<event>
 4    1  0.1351183E-004  0.5784989E+03  0.7818608E-02  0.9951046E-01
          2   -1    0    0  501    0  0.00000000000E+00  0.00000000000E+00  0.97583430978E+03  0.97583430978E+03  0.25500000000E-02 0.  1.
         -2   -1    0    0    0  501 -0.00000000000E+00 -0.00000000000E+00 -0.85737139405E+02  0.85737139443E+02  0.25500000000E-02 0. -1.
    5000001    1    1    2    0    0 -0.11026875637E+03 -0.15919727626E+03  0.76306388471E+03  0.79743241942E+03  0.12700000000E+03 0.  0.
   -5000001    1    1    2    0    0  0.11026875637E+03  0.15919727626E+03  0.12703328567E+03  0.26413902981E+03  0.12700000000E+03 0.  0.
<mgrwt>
<rscale>  0 0.57849889E+03</rscale>
<asrwt>0</asrwt>
<pdfrwt beam="1">  1        2 0.13940490E+00 0.57849889E+03</pdfrwt>
<pdfrwt beam="2">  1       -2 0.12248163E-01 0.57849889E+03</pdfrwt>
<totfact> 0.14362235E+03</totfact>
</mgrwt>
</event>
<event>
 4    1  0.1351183E-004  0.4755534E+03  0.7818608E-02  0.1020364E+00
         -2   -1    0    0    0  501 -0.00000000000E+00  0.00000000000E+00  0.50628812521E+02  0.50628812585E+02  0.25500000000E-02 0. -1.
          2   -1    0    0  501    0  0.00000000000E+00 -0.00000000000E+00 -0.11167112683E+04  0.11167112683E+04  0.25500000000E-02 0.  1.
    5000001    1    1    2    0    0 -0.25826880789E+02 -0.16497428395E+03 -0.25832088424E+03  0.33277953869E+03  0.12700000000E+03 0.  0.
   -5000001    1    1    2    0    0  0.25826880789E+02  0.16497428395E+03 -0.80776157158E+03  0.83456054224E+03  0.12700000000E+03 0.  0.
<mgrwt>
<rscale>  0 0.47555343E+03</rscale>
<asrwt>0</asrwt>
<pdfrwt beam="1">  1        2 0.15953017E+00 0.47555343E+03</pdfrwt>
<pdfrwt beam="2">  1       -2 0.72326882E-02 0.47555343E+03</pdfrwt>
<totfact> 0.27680926E+03</totfact>
</mgrwt>
</event>
<event>
 4    1  0.1351183E-004  0.3897892E+03  0.7818608E-02  0.1047374E+00
          2   -1    0    0  501    0  0.00000000000E+00  0.00000000000E+00  0.79798631129E+02  0.79798631169E+02  0.25500000000E-02 0.  1.
         -2   -1    0    0    0  501 -0.00000000000E+00 -0.00000000000E+00 -0.47599700410E+03  0.47599700411E+03  0.25500000000E-02 0. -1.
    5000001    1    1    2    0    0 -0.83091335297E+02  0.81067466490E+02 -0.67579400350E+02  0.18485691622E+03  0.12700000000E+03 0.  0.
   -5000001    1    1    2    0    0  0.83091335297E+02 -0.81067466490E+02 -0.32861897262E+03  0.37093871905E+03  0.12700000000E+03 0.  0.
<mgrwt>
<rscale>  0 0.38978922E+03</rscale>
<asrwt>0</asrwt>
<pdfrwt beam="1">  1        2 0.11399805E-01 0.38978922E+03</pdfrwt>
<pdfrwt beam="2">  1       -2 0.67999570E-01 0.38978922E+03</pdfrwt>
<totfact> 0.11133239E+03</totfact>
</mgrwt>
</event>
<event>
 4    1  0.1351183E-004  0.6394270E+03  0.7818608E-02  0.9826823E-01
         -2   -1    0    0    0  501 -0.00000000000E+00  0.00000000000E+00  0.43024777896E+02  0.43024777972E+02  0.25500000000E-02 0. -1.
          2   -1    0    0  501    0  0.00000000000E+00 -0.00000000000E+00 -0.23757639096E+04  0.23757639096E+04  0.25500000000E-02 0.  1.
    5000001    1    1    2    0    0 -0.22573254611E+03  0.40482066608E+02 -0.18586606860E+04  0.18770568787E+04  0.12700000000E+03 0.  0.
   -5000001    1    1    2    0    0  0.22573254611E+03 -0.40482066608E+02 -0.47407844565E+03  0.54173180885E+03  0.12700000000E+03 0.  0.
<mgrwt>
<rscale>  0 0.63942698E+03</rscale>
<asrwt>0</asrwt>
<pdfrwt beam="1">  1        2 0.33939476E+00 0.63942698E+03</pdfrwt>
<pdfrwt beam="2">  1       -2 0.61463984E-02 0.63942698E+03</pdfrwt>
<totfact> 0.79429294E+02</totfact>
</mgrwt>
</event>
<event>
 4    1  0.1351183E-004  0.3452391E+03  0.7818608E-02  0.1064586E+00
         -2   -1    0    0    0  501 -0.00000000000E+00  0.00000000000E+00  0.13175118564E+02  0.13175118810E+02  0.25500000000E-02 0. -1.
          2   -1    0    0  501    0  0.00000000000E+00 -0.00000000000E+00 -0.22616499525E+04  0.22616499525E+04  0.25500000000E-02 0.  1.
    5000001    1    1    2    0    0 -0.64371581223E+02  0.18826100300E+02 -0.17552264486E+04  0.17610925610E+04  0.12700000000E+03 0.  0.
   -5000001    1    1    2    0    0  0.64371581223E+02 -0.18826100300E+02 -0.49324838535E+03  0.51373251034E+03  0.12700000000E+03 0.  0.
<mgrwt>
<rscale>  0 0.34523909E+03</rscale>
<asrwt>0</asrwt>
<pdfrwt beam="1">  1        2 0.32309260E+00 0.34523909E+03</pdfrwt>
<pdfrwt beam="2">  1       -2 0.18821613E-02 0.34523909E+03</pdfrwt>
<totfact> 0.55611919E+03</totfact>
</mgrwt>
</event>
<event>
 4    1  0.1351183E-004  0.3868944E+03  0.7818608E-02  0.1048415E+00
         -2   -1    0    0    0  501 -0.00000000000E+00  0.00000000000E+00  0.58555932746E+02  0.58555932802E+02  0.25500000000E-02 0. -1.
          2   -1    0    0  501    0  0.00000000000E+00 -0.00000000000E+00 -0.63907822756E+03  0.63907822756E+03  0.25500000000E-02 0.  1.
    5000001    1    1    2    0    0  0.32288695225E+01  0.11796968434E+03 -0.44501371457E+03  0.47759132967E+03  0.12700000000E+03 0.  0.
   -5000001    1    1    2    0    0 -0.32288695225E+01 -0.11796968434E+03 -0.13550858024E+03  0.22004283069E+03  0.12700000000E+03 0.  0.
<mgrwt>
<rscale>  0 0.38689441E+03</rscale>
<asrwt>0</asrwt>
<pdfrwt beam="1">  1        2 0.91296886E-01 0.38689441E+03</pdfrwt>
<pdfrwt beam="2">  1       -2 0.83651336E-02 0.38689441E+03</pdfrwt>
<totfact> 0.45343923E+03</totfact>
</mgrwt>
</event>
<event>
 4    1  0.1351183E-004  0.3615592E+03  0.7818608E-02  0.1057968E+00
         -2   -1    0    0    0  501 -0.00000000000E+00  0.00000000000E+00  0.60584561808E+02  0.60584561861E+02  0.25500000000E-02 0. -1.
          2   -1    0    0  501    0  0.00000000000E+00 -0.00000000000E+00 -0.53943227552E+03  0.53943227553E+03  0.25500000000E-02 0.  1.
    5000001    1    1    2    0    0  0.11089168712E+03 -0.27429207230E+02 -0.14120375849E+03  0.22162316913E+03  0.12700000000E+03 0.  0.
   -5000001    1    1    2    0    0 -0.11089168712E+03  0.27429207230E+02 -0.33764395522E+03  0.37839366826E+03  0.12700000000E+03 0.  0.
<mgrwt>
<rscale>  0 0.36155922E+03</rscale>
<asrwt>0</asrwt>
<pdfrwt beam="1">  1        2 0.77061751E-01 0.36155922E+03</pdfrwt>
<pdfrwt beam="2">  1       -2 0.86549377E-02 0.36155922E+03</pdfrwt>
<totfact> 0.52151328E+03</totfact>
</mgrwt>
</event>
<event>
 4    1  0.1351183E-004  0.3036915E+03  0.7818608E-02  0.1083410E+00
         -2   -1    0    0    0  501 -0.00000000000E+00  0.00000000000E+00  0.44723763639E+02  0.44723763712E+02  0.25500000000E-02 0.  1.
          2   -1    0    0  501    0  0.00000000000E+00 -0.00000000000E+00 -0.51554546707E+03  0.51554546707E+03  0.25500000000E-02 0. -1.
    5000001    1    1    2    0    0 -0.31032642667E+02 -0.74033671834E+02 -0.19481866040E+03  0.24602300689E+03  0.12700000000E+03 0.  0.
   -5000001    1    1    2    0    0  0.31032642667E+02  0.74033671834E+02 -0.27600304303E+03  0.31424622390E+03  0.12700000000E+03 0.  0.
<mgrwt>
<rscale>  0 0.30369151E+03</rscale>
<asrwt>0</asrwt>
<pdfrwt beam="1">  1        2 0.73649349E-01 0.30369151E+03</pdfrwt>
<pdfrwt beam="2">  1       -2 0.63891094E-02 0.30369151E+03</pdfrwt>
<totfact> 0.87722639E+03</totfact>
</mgrwt>
</event>
<event>
 4    1  0.1351183E-004  0.2716596E+03  0.7818608E-02  0.1100333E+00
         -2   -1    0    0    0  501 -0.00000000000E+00  0.00000000000E+00  0.34375678225E+02  0.34375678320E+02  0.25500000000E-02 0. -1.
          2   -1    0    0  501    0  0.00000000000E+00 -0.00000000000E+00 -0.53670907693E+03  0.53670907694E+03  0.25500000000E-02 0.  1.
    5000001    1    1    2    0    0  0.72535811602E+01  0.47391374301E+02 -0.26106757179E+03  0.29425131068E+03  0.12700000000E+03 0.  0.
   -5000001    1    1    2    0    0 -0.72535811602E+01 -0.47391374301E+02 -0.24126582692E+03  0.27683344458E+03  0.12700000000E+03 0.  0.
<mgrwt>
<rscale>  0 0.27165963E+03</rscale>
<asrwt>0</asrwt>
<pdfrwt beam="1">  1        2 0.76672720E-01 0.27165963E+03</pdfrwt>
<pdfrwt beam="2">  1       -2 0.49108115E-02 0.27165963E+03</pdfrwt>
<totfact> 0.12491221E+04</totfact>
</mgrwt>
</event>
<event>
 4    1  0.1351183E-004  0.2641130E+03  0.7818608E-02  0.1104697E+00
          2   -1    0    0  501    0  0.00000000000E+00  0.00000000000E+00  0.21618913528E+03  0.21618913529E+03  0.25500000000E-02 0.  1.
         -2   -1    0    0    0  501 -0.00000000000E+00 -0.00000000000E+00 -0.80665123988E+02  0.80665124028E+02  0.25500000000E-02 0. -1.
    5000001    1    1    2    0    0 -0.19563886216E+01 -0.27386500728E+02  0.41257461037E+02  0.13632690846E+03  0.12700000000E+03 0.  0.
   -5000001    1    1    2    0    0  0.19563886216E+01  0.27386500728E+02  0.94266550254E+02  0.16052735086E+03  0.12700000000E+03 0.  0.
<mgrwt>
<rscale>  0 0.26411303E+03</rscale>
<asrwt>0</asrwt>
<pdfrwt beam="1">  1        2 0.30884162E-01 0.26411303E+03</pdfrwt>
<pdfrwt beam="2">  1       -2 0.11523589E-01 0.26411303E+03</pdfrwt>
<totfact> 0.88644575E+03</totfact>
</mgrwt>
</event>
<event>
 4    1  0.1351183E-004  0.3549667E+03  0.7818608E-02  0.1060595E+00
         -2   -1    0    0    0  501 -0.00000000000E+00  0.00000000000E+00  0.14744301593E+03  0.14744301595E+03  0.25500000000E-02 0. -1.
          2   -1    0    0  501    0  0.00000000000E+00 -0.00000000000E+00 -0.21364421582E+03  0.21364421584E+03  0.25500000000E-02 0.  1.
    5000001    1    1    2    0    0 -0.65694749902E+02 -0.10023146043E+03 -0.78490870535E+00  0.17461890478E+03  0.12700000000E+03 0.  0.
   -5000001    1    1    2    0    0  0.65694749902E+02  0.10023146043E+03 -0.65416291191E+02  0.18646832701E+03  0.12700000000E+03 0.  0.
<mgrwt>
<rscale>  0 0.35496675E+03</rscale>
<asrwt>0</asrwt>
<pdfrwt beam="1">  1        2 0.30520602E-01 0.35496675E+03</pdfrwt>
<pdfrwt beam="2">  1       -2 0.21063288E-01 0.35496675E+03</pdfrwt>
<totfact> 0.33208296E+03</totfact>
</mgrwt>
</event>
<event>
 4    1  0.1351183E-004  0.6061356E+03  0.7818608E-02  0.9892758E-01
          2   -1    0    0  501    0  0.00000000000E+00  0.00000000000E+00  0.92192166828E+03  0.92192166829E+03  0.25500000000E-02 0.  1.
         -2   -1    0    0    0  501 -0.00000000000E+00 -0.00000000000E+00 -0.99628957750E+02  0.99628957782E+02  0.25500000000E-02 0. -1.
    5000001    1    1    2    0    0  0.86556530927E+02  0.26110897964E+03  0.42320134000E+03  0.52047892029E+03  0.12700000000E+03 0.  0.
   -5000001    1    1    2    0    0 -0.86556530927E+02 -0.26110897964E+03  0.39909137054E+03  0.50107170578E+03  0.12700000000E+03 0.  0.
<mgrwt>
<rscale>  0 0.60613561E+03</rscale>
<asrwt>0</asrwt>
<pdfrwt beam="1">  1        2 0.13170310E+00 0.60613561E+03</pdfrwt>
<pdfrwt beam="2">  1       -2 0.14232708E-01 0.60613561E+03</pdfrwt>
<totfact> 0.12090494E+03</totfact>
</mgrwt>
</event>
<event>
 4    1  0.1351183E-004  0.3118746E+03  0.7818608E-02  0.1079451E+00
          2   -1    0    0  501    0  0.00000000000E+00  0.00000000000E+00  0.29712310973E+04  0.29712310973E+04  0.25500000000E-02 0.  1.
         -2   -1    0    0    0  501 -0.00000000000E+00 -0.00000000000E+00 -0.81839631859E+01  0.81839635832E+01  0.25500000000E-02 0. -1.
    5000001    1    1    2    0    0  0.71845836670E+02  0.54861279777E+02  0.14434754402E+04  0.14518684275E+04  0.12700000000E+03 0.  0.
   -5000001    1    1    2    0    0 -0.71845836670E+02 -0.54861279777E+02  0.15195716939E+04  0.15275466333E+04  0.12700000000E+03 0.  0.
<mgrwt>
<rscale>  0 0.31187463E+03</rscale>
<asrwt>0</asrwt>
<pdfrwt beam="1">  1        2 0.42446155E+00 0.31187463E+03</pdfrwt>
<pdfrwt beam="2">  1       -2 0.11691377E-02 0.31187463E+03</pdfrwt>
<totfact> 0.48753567E+03</totfact>
</mgrwt>
</event>
<event>
 4    1  0.1351183E-004  0.5876960E+03  0.7818608E-02  0.9931267E-01
          2   -1    0    0  501    0  0.00000000000E+00  0.00000000000E+00  0.54269642804E+03  0.54269642804E+03  0.25500000000E-02 0.  1.
         -2   -1    0    0    0  501 -0.00000000000E+00 -0.00000000000E+00 -0.15910671285E+03  0.15910671287E+03  0.25500000000E-02 0. -1.
    5000001    1    1    2    0    0  0.18893313133E+03 -0.11595599534E+03  0.18431244776E+02  0.25614494286E+03  0.12700000000E+03 0.  0.
   -5000001    1    1    2    0    0 -0.18893313133E+03  0.11595599534E+03  0.36515847041E+03  0.44565819805E+03  0.12700000000E+03 0.  0.
<mgrwt>
<rscale>  0 0.58769599E+03</rscale>
<asrwt>0</asrwt>
<pdfrwt beam="1">  1        2 0.77528062E-01 0.58769599E+03</pdfrwt>
<pdfrwt beam="2">  1       -2 0.22729530E-01 0.58769599E+03</pdfrwt>
<totfact> 0.10406086E+03</totfact>
</mgrwt>
</event>
<event>
 4    1  0.1351183E-004  0.3633930E+03  0.7818608E-02  0.1057248E+00
         -2   -1    0    0    0  501 -0.00000000000E+00  0.00000000000E+00  0.24507176079E+02  0.24507176212E+02  0.25500000000E-02 0. -1.
          2   -1    0    0  501    0  0.00000000000E+00 -0.00000000000E+00 -0.13471000945E+04  0.13471000945E+04  0.25500000000E-02 0.  1.
    5000001    1    1    2    0    0 -0.85845231619E+02 -0.85825060649E+02 -0.83628078734E+03  0.85453490280E+03  0.12700000000E+03 0.  0.
   -5000001    1    1    2    0    0  0.85845231619E+02  0.85825060649E+02 -0.48631213111E+03  0.51707236794E+03  0.12700000000E+03 0.  0.
<mgrwt>
<rscale>  0 0.36339301E+03</rscale>
<asrwt>0</asrwt>
<pdfrwt beam="1">  1        2 0.19244282E+00 0.36339301E+03</pdfrwt>
<pdfrwt beam="2">  1       -2 0.35010260E-02 0.36339301E+03</pdfrwt>
<totfact> 0.63126102E+03</totfact>
</mgrwt>
</event>
<event>
 4    1  0.1351183E-004  0.3213139E+03  0.7818608E-02  0.1075046E+00
         -2   -1    0    0    0  501 -0.00000000000E+00  0.00000000000E+00  0.13849103933E+02  0.13849104168E+02  0.25500000000E-02 0. -1.
          2   -1    0    0  501    0  0.00000000000E+00 -0.00000000000E+00 -0.18637054845E+04  0.18637054845E+04  0.25500000000E-02 0.  1.
    5000001    1    1    2    0    0 -0.90521326291E+02  0.38496479401E+02 -0.93870879741E+03  0.95235460611E+03  0.12700000000E+03 0.  0.
   -5000001    1    1    2    0    0  0.90521326291E+02 -0.38496479401E+02 -0.91114758311E+03  0.92519998251E+03  0.12700000000E+03 0.  0.
<mgrwt>
<rscale>  0 0.32131387E+03</rscale>
<asrwt>0</asrwt>
<pdfrwt beam="1">  1        2 0.26624348E+00 0.32131387E+03</pdfrwt>
<pdfrwt beam="2">  1       -2 0.19784446E-02 0.32131387E+03</pdfrwt>
<totfact> 0.81063063E+03</totfact>
</mgrwt>
</event>
<event>
 4    1  0.1351183E-004  0.5192271E+03  0.7818608E-02  0.1008879E+00
          2   -1    0    0  501    0  0.00000000000E+00  0.00000000000E+00  0.82827661784E+03  0.82827661784E+03  0.25500000000E-02 0.  1.
         -2   -1    0    0    0  501 -0.00000000000E+00 -0.00000000000E+00 -0.81372812192E+02  0.81372812231E+02  0.25500000000E-02 0. -1.
    5000001    1    1    2    0    0  0.11916151452E+03 -0.19060015309E+03  0.42118396116E+03  0.49401701797E+03  0.12700000000E+03 0.  0.
   -5000001    1    1    2    0    0 -0.11916151452E+03  0.19060015309E+03  0.32571984448E+03  0.41563241211E+03  0.12700000000E+03 0.  0.
<mgrwt>
<rscale>  0 0.51922711E+03</rscale>
<asrwt>0</asrwt>
<pdfrwt beam="1">  1        2 0.11832523E+00 0.51922711E+03</pdfrwt>
<pdfrwt beam="2">  1       -2 0.11624688E-01 0.51922711E+03</pdfrwt>
<totfact> 0.19485113E+03</totfact>
</mgrwt>
</event>
<event>
 4    1  0.1351183E-004  0.4105858E+03  0.7818608E-02  0.1040175E+00
         -2   -1    0    0    0  501 -0.00000000000E+00  0.00000000000E+00  0.10352936250E+03  0.10352936253E+03  0.25500000000E-02 0. -1.
          2   -1    0    0  501    0  0.00000000000E+00 -0.00000000000E+00 -0.40708432708E+03  0.40708432709E+03  0.25500000000E-02 0.  1.
    5000001    1    1    2    0    0  0.23867870575E+02 -0.15041175679E+03 -0.21785127674E+03  0.29458708493E+03  0.12700000000E+03 0.  0.
   -5000001    1    1    2    0    0 -0.23867870575E+02  0.15041175679E+03 -0.85703687834E+02  0.21602660469E+03  0.12700000000E+03 0.  0.
<mgrwt>
<rscale>  0 0.41058583E+03</rscale>
<asrwt>0</asrwt>
<pdfrwt beam="1">  1        2 0.58154903E-01 0.41058583E+03</pdfrwt>
<pdfrwt beam="2">  1       -2 0.14789909E-01 0.41058583E+03</pdfrwt>
<totfact> 0.29990284E+03</totfact>
</mgrwt>
</event>
<event>
 4    1  0.1351183E-004  0.6579633E+03  0.7818608E-02  0.9791950E-01
          2   -1    0    0  501    0  0.00000000000E+00  0.00000000000E+00  0.15294544902E+04  0.15294544902E+04  0.25500000000E-02 0.  1.
         -2   -1    0    0    0  501 -0.00000000000E+00 -0.00000000000E+00 -0.70763092487E+02  0.70763092533E+02  0.25500000000E-02 0. -1.
    5000001    1    1    2    0    0  0.10312450607E+03  0.28528420804E+03  0.70784051390E+03  0.78050556451E+03  0.12700000000E+03 0.  0.
   -5000001    1    1    2    0    0 -0.10312450607E+03 -0.28528420804E+03  0.75085088381E+03  0.81971201823E+03  0.12700000000E+03 0.  0.
<mgrwt>
<rscale>  0 0.65796331E+03</rscale>
<asrwt>0</asrwt>
<pdfrwt beam="1">  1        2 0.21849350E+00 0.65796331E+03</pdfrwt>
<pdfrwt beam="2">  1       -2 0.10109013E-01 0.65796331E+03</pdfrwt>
<totfact> 0.96398261E+02</totfact>
</mgrwt>
</event>
<event>
 4    1  0.1351183E-004  0.5496284E+03  0.7818608E-02  0.1001580E+00
          2   -1    0    0  501    0  0.00000000000E+00  0.00000000000E+00  0.16051191571E+04  0.16051191571E+04  0.25500000000E-02 0.  1.
         -2   -1    0    0    0  501 -0.00000000000E+00 -0.00000000000E+00 -0.47051235220E+02  0.47051235289E+02  0.25500000000E-02 0. -1.
    5000001    1    1    2    0    0 -0.12989939957E+03 -0.16075898375E+03  0.39084910811E+03  0.46001014138E+03  0.12700000000E+03 0.  0.
   -5000001    1    1    2    0    0  0.12989939957E+03  0.16075898375E+03  0.11672188138E+04  0.11921602511E+04  0.12700000000E+03 0.  0.
<mgrwt>
<rscale>  0 0.54962838E+03</rscale>
<asrwt>0</asrwt>
<pdfrwt beam="1">  1        2 0.22930275E+00 0.54962838E+03</pdfrwt>
<pdfrwt beam="2">  1       -2 0.67216045E-02 0.54962838E+03</pdfrwt>
<totfact> 0.16984540E+03</totfact>
</mgrwt>
</event>
<event>
 4    1  0.1351183E-004  0.2732288E+03  0.7818608E-02  0.1099446E+00
         -2   -1    0    0    0  501 -0.00000000000E+00  0.00000000000E+00  0.12159835660E+03  0.12159835662E+03  0.25500000000E-02 0. -1.
          2   -1    0    0  501    0  0.00000000000E+00 -0.00000000000E+00 -0.15348476900E+03  0.15348476902E+03  0.25500000000E-02 0.  1.
    5000001    1    1    2    0    0 -0.16836954734E+02  0.43922201434E+02  0.21188064950E+01  0.13544789465E+03  0.12700000000E+03 0.  0.
   -5000001    1    1    2    0    0  0.16836954734E+02 -0.43922201434E+02 -0.34005218897E+02  0.13963523100E+03  0.12700000000E+03 0.  0.
<mgrwt>
<rscale>  0 0.27322881E+03</rscale>
<asrwt>0</asrwt>
<pdfrwt beam="1">  1        2 0.21926395E-01 0.27322881E+03</pdfrwt>
<pdfrwt beam="2">  1       -2 0.17371194E-01 0.27322881E+03</pdfrwt>
<totfact> 0.66241535E+03</totfact>
</mgrwt>
</event>
<event>
 4    1  0.1351183E-004  0.3465220E+03  0.7818608E-02  0.1064052E+00
          2   -1    0    0  501    0  0.00000000000E+00  0.00000000000E+00  0.27941528098E+03  0.27941528099E+03  0.25500000000E-02 0.  1.
         -2   -1    0    0    0  501 -0.00000000000E+00 -0.00000000000E+00 -0.10743642877E+03  0.10743642880E+03  0.25500000000E-02 0. -1.
    5000001    1    1    2    0    0  0.11380220154E+03  0.17568318094E+02  0.11402807752E+03  0.20589072184E+03  0.12700000000E+03 0.  0.
   -5000001    1    1    2    0    0 -0.11380220154E+03 -0.17568318094E+02  0.57950774691E+02  0.18096098796E+03  0.12700000000E+03 0.  0.
<mgrwt>
<rscale>  0 0.34652203E+03</rscale>
<asrwt>0</asrwt>
<pdfrwt beam="1">  1        2 0.39916469E-01 0.34652203E+03</pdfrwt>
<pdfrwt beam="2">  1       -2 0.15348061E-01 0.34652203E+03</pdfrwt>
<totfact> 0.42337982E+03</totfact>
</mgrwt>
</event>
<event>
 4    1  0.1351183E-004  0.4268883E+03  0.7818608E-02  0.1034847E+00
          2   -1    0    0  501    0  0.00000000000E+00  0.00000000000E+00  0.51595966467E+03  0.51595966467E+03  0.25500000000E-02 0.  1.
         -2   -1    0    0    0  501 -0.00000000000E+00 -0.00000000000E+00 -0.88298383502E+02  0.88298383538E+02  0.25500000000E-02 0. -1.
    5000001    1    1    2    0    0  0.33236743474E+02  0.75545128483E+02  0.42670923811E+03  0.45279302274E+03  0.12700000000E+03 0.  0.
   -5000001    1    1    2    0    0 -0.33236743474E+02 -0.75545128483E+02  0.95204305317E+00  0.15146502547E+03  0.12700000000E+03 0.  0.
<mgrwt>
<rscale>  0 0.42688830E+03</rscale>
<asrwt>0</asrwt>
<pdfrwt beam="1">  1        2 0.73708525E-01 0.42688830E+03</pdfrwt>
<pdfrwt beam="2">  1       -2 0.12614054E-01 0.42688830E+03</pdfrwt>
<totfact> 0.29990992E+03</totfact>
</mgrwt>
</event>
<event>
 4    1  0.1351183E-004  0.4253838E+03  0.7818608E-02  0.1035328E+00
         -2   -1    0    0    0  501 -0.00000000000E+00  0.00000000000E+00  0.69297727766E+02  0.69297727813E+02  0.25500000000E-02 0.  1.
          2   -1    0    0  501    0  0.00000000000E+00 -0.00000000000E+00 -0.65280420716E+03  0.65280420716E+03  0.25500000000E-02 0. -1.
    5000001    1    1    2    0    0  0.43734057703E+02  0.11613642146E+03 -0.93000692803E+02  0.20044566609E+03  0.12700000000E+03 0.  0.
   -5000001    1    1    2    0    0 -0.43734057703E+02 -0.11613642146E+03 -0.49050578659E+03  0.52165626889E+03  0.12700000000E+03 0.  0.
<mgrwt>
<rscale>  0 0.42538382E+03</rscale>
<asrwt>0</asrwt>
<pdfrwt beam="1">  1        2 0.93257740E-01 0.42538382E+03</pdfrwt>
<pdfrwt beam="2">  1       -2 0.98996758E-02 0.42538382E+03</pdfrwt>
<totfact> 0.33862118E+03</totfact>
</mgrwt>
</event>
<event>
 4    1  0.1351183E-004  0.3396415E+03  0.7818608E-02  0.1066949E+00
          2   -1    0    0  501    0  0.00000000000E+00  0.00000000000E+00  0.10889047743E+04  0.10889047743E+04  0.25500000000E-02 0.  1.
         -2   -1    0    0    0  501 -0.00000000000E+00 -0.00000000000E+00 -0.26484490913E+02  0.26484491036E+02  0.25500000000E-02 0. -1.
    5000001    1    1    2    0    0 -0.11019747970E+03  0.14634272516E+02  0.46955778890E+03  0.49897010289E+03  0.12700000000E+03 0.  0.
   -5000001    1    1    2    0    0  0.11019747970E+03 -0.14634272516E+02  0.59286249452E+03  0.61641916248E+03  0.12700000000E+03 0.  0.
<mgrwt>
<rscale>  0 0.33964151E+03</rscale>
<asrwt>0</asrwt>
<pdfrwt beam="1">  1        2 0.15555783E+00 0.33964151E+03</pdfrwt>
<pdfrwt beam="2">  1       -2 0.37834986E-02 0.33964151E+03</pdfrwt>
<totfact> 0.77618322E+03</totfact>
</mgrwt>
</event>
<event>
 4    1  0.1351183E-004  0.5001501E+03  0.7818608E-02  0.1013740E+00
          2   -1    0    0  501    0  0.00000000000E+00  0.00000000000E+00  0.79066989689E+02  0.79066989730E+02  0.25500000000E-02 0.  1.
         -2   -1    0    0    0  501 -0.00000000000E+00 -0.00000000000E+00 -0.79094354021E+03  0.79094354021E+03  0.25500000000E-02 0. -1.
    5000001    1    1    2    0    0 -0.19056512816E+03 -0.40910088434E+02 -0.19632257488E+03  0.30440147308E+03  0.12700000000E+03 0.  0.
   -5000001    1    1    2    0    0  0.19056512816E+03  0.40910088434E+02 -0.51555397564E+03  0.56560905686E+03  0.12700000000E+03 0.  0.
<mgrwt>
<rscale>  0 0.50015008E+03</rscale>
<asrwt>0</asrwt>
<pdfrwt beam="1">  1        2 0.11295285E-01 0.50015008E+03</pdfrwt>
<pdfrwt beam="2">  1       -2 0.11299193E+00 0.50015008E+03</pdfrwt>
<totfact> 0.35479931E+02</totfact>
</mgrwt>
</event>
<event>
 4    1  0.1351183E-004  0.6416079E+03  0.7818608E-02  0.9822655E-01
          2   -1    0    0  501    0  0.00000000000E+00  0.00000000000E+00  0.24146261437E+04  0.24146261437E+04  0.25500000000E-02 0.  1.
         -2   -1    0    0    0  501 -0.00000000000E+00 -0.00000000000E+00 -0.42621577268E+02  0.42621577345E+02  0.25500000000E-02 0. -1.
    5000001    1    1    2    0    0  0.26960269404E+03 -0.11818937754E+03  0.11420287132E+04  0.11861757556E+04  0.12700000000E+03 0.  0.
   -5000001    1    1    2    0    0 -0.26960269404E+03  0.11818937754E+03  0.12299758532E+04  0.12710719654E+04  0.12700000000E+03 0.  0.
<mgrwt>
<rscale>  0 0.64160790E+03</rscale>
<asrwt>0</asrwt>
<pdfrwt beam="1">  1        2 0.34494666E+00 0.64160790E+03</pdfrwt>
<pdfrwt beam="2">  1       -2 0.60887956E-02 0.64160790E+03</pdfrwt>
<totfact> 0.77003031E+02</totfact>
</mgrwt>
</event>
<event>
 4    1  0.1351183E-004  0.1211527E+04  0.7818608E-02  0.9102826E-01
          2   -1    0    0  501    0  0.00000000000E+00  0.00000000000E+00  0.12063365680E+04  0.12063365680E+04  0.25500000000E-02 0.  1.
         -2   -1    0    0    0  501 -0.00000000000E+00 -0.00000000000E+00 -0.30418517442E+03  0.30418517443E+03  0.25500000000E-02 0. -1.
    5000001    1    1    2    0    0  0.21324935186E+03 -0.41681836064E+03 -0.12326927116E+01  0.48512199638E+03  0.12700000000E+03 0.  0.
   -5000001    1    1    2    0    0 -0.21324935186E+03  0.41681836064E+03  0.90338408626E+03  0.10253997460E+04  0.12700000000E+03 0.  0.
<mgrwt>
<rscale>  0 0.12115275E+04</rscale>
<asrwt>0</asrwt>
<pdfrwt beam="1">  1        2 0.17233380E+00 0.12115275E+04</pdfrwt>
<pdfrwt beam="2">  1       -2 0.43455024E-01 0.12115275E+04</pdfrwt>
<totfact> 0.10489046E+02</totfact>
</mgrwt>
</event>
<event>
 4    1  0.1351183E-004  0.6973933E+03  0.7818608E-02  0.9721700E-01
         -2   -1    0    0    0  501 -0.00000000000E+00  0.00000000000E+00  0.10078941489E+03  0.10078941493E+03  0.25500000000E-02 0. -1.
          2   -1    0    0  501    0  0.00000000000E+00 -0.00000000000E+00 -0.12063701514E+04  0.12063701514E+04  0.25500000000E-02 0.  1.
    5000001    1    1    2    0    0  0.18873269056E+03  0.49487013728E+02 -0.66211851342E+02  0.24203719192E+03  0.12700000000E+03 0.  0.
   -5000001    1    1    2    0    0 -0.18873269056E+03 -0.49487013728E+02 -0.10393688852E+04  0.10651223744E+04  0.12700000000E+03 0.  0.
<mgrwt>
<rscale>  0 0.69739327E+03</rscale>
<asrwt>0</asrwt>
<pdfrwt beam="1">  1        2 0.17233858E+00 0.69739327E+03</pdfrwt>
<pdfrwt beam="2">  1       -2 0.14398489E-01 0.69739327E+03</pdfrwt>
<totfact> 0.80100186E+02</totfact>
</mgrwt>
</event>
<event>
 4    1  0.1351183E-004  0.3034302E+03  0.7818608E-02  0.1083538E+00
         -2   -1    0    0    0  501 -0.00000000000E+00  0.00000000000E+00  0.56478867500E+02  0.56478867557E+02  0.25500000000E-02 0. -1.
          2   -1    0    0  501    0  0.00000000000E+00 -0.00000000000E+00 -0.40754138553E+03  0.40754138554E+03  0.25500000000E-02 0.  1.
    5000001    1    1    2    0    0  0.66684303181E+02  0.78444363302E+01 -0.10092422925E+03  0.17556489263E+03  0.12700000000E+03 0.  0.
   -5000001    1    1    2    0    0 -0.66684303181E+02 -0.78444363302E+01 -0.25013828877E+03  0.28845536047E+03  0.12700000000E+03 0.  0.
<mgrwt>
<rscale>  0 0.30343023E+03</rscale>
<asrwt>0</asrwt>
<pdfrwt beam="1">  1        2 0.58220196E-01 0.30343023E+03</pdfrwt>
<pdfrwt beam="2">  1       -2 0.80684099E-02 0.30343023E+03</pdfrwt>
<totfact> 0.79005377E+03</totfact>
</mgrwt>
</event>
<event>
 4    1  0.1351183E-004  0.3846933E+03  0.7818608E-02  0.1049213E+00
          2   -1    0    0  501    0  0.00000000000E+00  0.00000000000E+00  0.26410168861E+04  0.26410168861E+04  0.25500000000E-02 0.  1.
         -2   -1    0    0    0  501 -0.00000000000E+00 -0.00000000000E+00 -0.14008704955E+02  0.14008705188E+02  0.25500000000E-02 0. -1.
    5000001    1    1    2    0    0  0.78309335152E+02 -0.62448069596E+02  0.20319447437E+04  0.20383720355E+04  0.12700000000E+03 0.  0.
   -5000001    1    1    2    0    0 -0.78309335152E+02  0.62448069596E+02  0.59506343737E+03  0.61665355579E+03  0.12700000000E+03 0.  0.
<mgrwt>
<rscale>  0 0.38469326E+03</rscale>
<asrwt>0</asrwt>
<pdfrwt beam="1">  1        2 0.37728829E+00 0.38469326E+03</pdfrwt>
<pdfrwt beam="2">  1       -2 0.20012427E-02 0.38469326E+03</pdfrwt>
<totfact> 0.32687169E+03</totfact>
</mgrwt>
</event>
<event>
 4    1  0.1351183E-004  0.4020432E+03  0.7818608E-02  0.1043074E+00
          2   -1    0    0  501    0  0.00000000000E+00  0.00000000000E+00  0.15247728870E+04  0.15247728870E+04  0.25500000000E-02 0.  1.
         -2   -1    0    0    0  501 -0.00000000000E+00 -0.00000000000E+00 -0.26502097424E+02  0.26502097547E+02  0.25500000000E-02 0. -1.
    5000001    1    1    2    0    0 -0.13895650591E+03  0.53178193780E+02  0.92778957105E+03  0.94818738601E+03  0.12700000000E+03 0.  0.
   -5000001    1    1    2    0    0  0.13895650591E+03 -0.53178193780E+02  0.57048121851E+03  0.60308759853E+03  0.12700000000E+03 0.  0.
<mgrwt>
<rscale>  0 0.40204318E+03</rscale>
<asrwt>0</asrwt>
<pdfrwt beam="1">  1        2 0.21782482E+00 0.40204318E+03</pdfrwt>
<pdfrwt beam="2">  1       -2 0.37860118E-02 0.40204318E+03</pdfrwt>
<totfact> 0.45398968E+03</totfact>
</mgrwt>
</event>
<event>
 4    1  0.1351183E-004  0.4827265E+03  0.7818608E-02  0.1018389E+00
          2   -1    0    0  501    0  0.00000000000E+00  0.00000000000E+00  0.42253634158E+03  0.42253634159E+03  0.25500000000E-02 0.  1.
         -2   -1    0    0    0  501 -0.00000000000E+00 -0.00000000000E+00 -0.13787265538E+03  0.13787265540E+03  0.25500000000E-02 0. -1.
    5000001    1    1    2    0    0 -0.10011166674E+03  0.15395540372E+03  0.35914914075E+02  0.22614927195E+03  0.12700000000E+03 0.  0.
   -5000001    1    1    2    0    0  0.10011166674E+03 -0.15395540372E+03  0.24874877213E+03  0.33425972504E+03  0.12700000000E+03 0.  0.
<mgrwt>
<rscale>  0 0.48272645E+03</rscale>
<asrwt>0</asrwt>
<pdfrwt beam="1">  1        2 0.60362334E-01 0.48272645E+03</pdfrwt>
<pdfrwt beam="2">  1       -2 0.19696094E-01 0.48272645E+03</pdfrwt>
<totfact> 0.17732968E+03</totfact>
</mgrwt>
</event>
<event>
 4    1  0.1351183E-004  0.3270555E+03  0.7818608E-02  0.1072447E+00
          2   -1    0    0  501    0  0.00000000000E+00  0.00000000000E+00  0.11578253253E+04  0.11578253253E+04  0.25500000000E-02 0. -1.
         -2   -1    0    0    0  501 -0.00000000000E+00 -0.00000000000E+00 -0.23096158639E+02  0.23096158779E+02  0.25500000000E-02 0.  1.
    5000001    1    1    2    0    0 -0.62991503218E+02 -0.80531712545E+02  0.52183004978E+03  0.54670731388E+03  0.12700000000E+03 0.  0.
   -5000001    1    1    2    0    0  0.62991503218E+02  0.80531712545E+02  0.61289911687E+03  0.63421417019E+03  0.12700000000E+03 0.  0.
<mgrwt>
<rscale>  0 0.32705545E+03</rscale>
<asrwt>0</asrwt>
<pdfrwt beam="1">  1        2 0.16540364E+00 0.32705545E+03</pdfrwt>
<pdfrwt beam="2">  1       -2 0.32994508E-02 0.32705545E+03</pdfrwt>
<totfact> 0.87154491E+03</totfact>
</mgrwt>
</event>
<event>
 4    1  0.1351183E-004  0.6276245E+03  0.7818608E-02  0.9849695E-01
         -2   -1    0    0    0  501 -0.00000000000E+00  0.00000000000E+00  0.19235587036E+03  0.19235587037E+03  0.25500000000E-02 0. -1.
          2   -1    0    0  501    0  0.00000000000E+00 -0.00000000000E+00 -0.51195804685E+03  0.51195804686E+03  0.25500000000E-02 0.  1.
    5000001    1    1    2    0    0  0.28266251837E+03  0.29807158565E+02 -0.11544164723E+03  0.33202761920E+03  0.12700000000E+03 0.  0.
   -5000001    1    1    2    0    0 -0.28266251837E+03 -0.29807158565E+02 -0.20416052927E+03  0.37228629804E+03  0.12700000000E+03 0.  0.
<mgrwt>
<rscale>  0 0.62762452E+03</rscale>
<asrwt>0</asrwt>
<pdfrwt beam="1">  1        2 0.73136863E-01 0.62762452E+03</pdfrwt>
<pdfrwt beam="2">  1       -2 0.27479410E-01 0.62762452E+03</pdfrwt>
<totfact> 0.79083375E+02</totfact>
</mgrwt>
</event>
<event>
 4    1  0.1351183E-004  0.2899465E+03  0.7818608E-02  0.1090377E+00
          2   -1    0    0  501    0  0.00000000000E+00  0.00000000000E+00  0.18176329338E+04  0.18176329338E+04  0.25500000000E-02 0.  1.
         -2   -1    0    0    0  501 -0.00000000000E+00 -0.00000000000E+00 -0.11562971613E+02  0.11562971894E+02  0.25500000000E-02 0. -1.
    5000001    1    1    2    0    0  0.69266825218E+02  0.74429133193E+01  0.86573959919E+03  0.87777408463E+03  0.12700000000E+03 0.  0.
   -5000001    1    1    2    0    0 -0.69266825218E+02 -0.74429133193E+01  0.94033036297E+03  0.95142182105E+03  0.12700000000E+03 0.  0.
<mgrwt>
<rscale>  0 0.28994647E+03</rscale>
<asrwt>0</asrwt>
<pdfrwt beam="1">  1        2 0.25966220E+00 0.28994647E+03</pdfrwt>
<pdfrwt beam="2">  1       -2 0.16518509E-02 0.28994647E+03</pdfrwt>
<totfact> 0.11121850E+04</totfact>
</mgrwt>
</event>
<event>
 4    1  0.1351183E-004  0.5245167E+03  0.7818608E-02  0.1007571E+00
         -2   -1    0    0    0  501 -0.00000000000E+00  0.00000000000E+00  0.48601921374E+02  0.48601921441E+02  0.25500000000E-02 0. -1.
          2   -1    0    0  501    0  0.00000000000E+00 -0.00000000000E+00 -0.14151586514E+04  0.14151586515E+04  0.25500000000E-02 0.  1.
    5000001    1    1    2    0    0 -0.61006643679E+02  0.18261980717E+03 -0.33496083946E+03  0.40669345768E+03  0.12700000000E+03 0.  0.
   -5000001    1    1    2    0    0  0.61006643679E+02 -0.18261980717E+03 -0.10315958906E+04  0.10570671152E+04  0.12700000000E+03 0.  0.
<mgrwt>
<rscale>  0 0.52451665E+03</rscale>
<asrwt>0</asrwt>
<pdfrwt beam="1">  1        2 0.20216550E+00 0.52451665E+03</pdfrwt>
<pdfrwt beam="2">  1       -2 0.69431325E-02 0.52451665E+03</pdfrwt>
<totfact> 0.20263310E+03</totfact>
</mgrwt>
</event>
<event>
 4    1  0.1351183E-004  0.2927800E+03  0.7818608E-02  0.1088907E+00
          2   -1    0    0  501    0  0.00000000000E+00  0.00000000000E+00  0.20047141273E+03  0.20047141274E+03  0.25500000000E-02 0.  1.
         -2   -1    0    0    0  501 -0.00000000000E+00 -0.00000000000E+00 -0.10689819914E+03  0.10689819917E+03  0.25500000000E-02 0. -1.
    5000001    1    1    2    0    0 -0.72662878614E+02  0.32073529413E+01  0.43328218944E+02  0.15263196126E+03  0.12700000000E+03 0.  0.
   -5000001    1    1    2    0    0  0.72662878614E+02 -0.32073529413E+01  0.50244994645E+02  0.15473765065E+03  0.12700000000E+03 0.  0.
<mgrwt>
<rscale>  0 0.29278001E+03</rscale>
<asrwt>0</asrwt>
<pdfrwt beam="1">  1        2 0.28638773E-01 0.29278001E+03</pdfrwt>
<pdfrwt beam="2">  1       -2 0.15271171E-01 0.29278001E+03</pdfrwt>
<totfact> 0.61081356E+03</totfact>
</mgrwt>
</event>
<event>
 4    1  0.1351183E-004  0.4286169E+03  0.7818608E-02  0.1034298E+00
         -2   -1    0    0    0  501 -0.00000000000E+00  0.00000000000E+00  0.16066490257E+02  0.16066490459E+02  0.25500000000E-02 0. -1.
          2   -1    0    0  501    0  0.00000000000E+00 -0.00000000000E+00 -0.28586274636E+04  0.28586274636E+04  0.25500000000E-02 0.  1.
    5000001    1    1    2    0    0  0.91492474920E+02 -0.36092701085E+02 -0.23727530251E+04  0.23781840707E+04  0.12700000000E+03 0.  0.
   -5000001    1    1    2    0    0 -0.91492474920E+02  0.36092701085E+02 -0.46980794829E+03  0.49650988340E+03  0.12700000000E+03 0.  0.
<mgrwt>
<rscale>  0 0.42861689E+03</rscale>
<asrwt>0</asrwt>
<pdfrwt beam="1">  1        2 0.40837503E+00 0.42861689E+03</pdfrwt>
<pdfrwt beam="2">  1       -2 0.22952147E-02 0.42861689E+03</pdfrwt>
<totfact> 0.20478184E+03</totfact>
</mgrwt>
</event>
<event>
 4    1  0.1351183E-004  0.8089327E+03  0.7818608E-02  0.9547177E-01
         -2   -1    0    0    0  501 -0.00000000000E+00  0.00000000000E+00  0.50992289866E+03  0.50992289867E+03  0.25500000000E-02 0. -1.
          2   -1    0    0  501    0  0.00000000000E+00 -0.00000000000E+00 -0.32081915542E+03  0.32081915543E+03  0.25500000000E-02 0.  1.
    5000001    1    1    2    0    0  0.55767655235E+02 -0.31500328394E+03 -0.12360641217E+03  0.36571115022E+03  0.12700000000E+03 0.  0.
   -5000001    1    1    2    0    0 -0.55767655235E+02  0.31500328394E+03  0.31271015541E+03  0.46503090388E+03  0.12700000000E+03 0.  0.
<mgrwt>
<rscale>  0 0.80893271E+03</rscale>
<asrwt>0</asrwt>
<pdfrwt beam="1">  1        2 0.45831308E-01 0.80893271E+03</pdfrwt>
<pdfrwt beam="2">  1       -2 0.72846128E-01 0.80893271E+03</pdfrwt>
<totfact> 0.18981312E+02</totfact>
</mgrwt>
</event>
<event>
 4    1  0.1351183E-004  0.4552652E+03  0.7818608E-02  0.1026163E+00
         -2   -1    0    0    0  501 -0.00000000000E+00  0.00000000000E+00  0.72646305992E+02  0.72646306037E+02  0.25500000000E-02 0. -1.
          2   -1    0    0  501    0  0.00000000000E+00 -0.00000000000E+00 -0.71327237544E+03  0.71327237544E+03  0.25500000000E-02 0.  1.
    5000001    1    1    2    0    0  0.12919109458E+03 -0.22132381437E+02 -0.55516062626E+03  0.58439071021E+03  0.12700000000E+03 0.  0.
   -5000001    1    1    2    0    0 -0.12919109458E+03  0.22132381437E+02 -0.85465443186E+02  0.20152797127E+03  0.12700000000E+03 0.  0.
<mgrwt>
<rscale>  0 0.45526521E+03</rscale>
<asrwt>0</asrwt>
<pdfrwt beam="1">  1        2 0.10189605E+00 0.45526521E+03</pdfrwt>
<pdfrwt beam="2">  1       -2 0.10378044E-01 0.45526521E+03</pdfrwt>
<totfact> 0.28235308E+03</totfact>
</mgrwt>
</event>
<event>
 4    1  0.1351183E-004  0.3738544E+03  0.7818608E-02  0.1053229E+00
         -2   -1    0    0    0  501 -0.00000000000E+00  0.00000000000E+00  0.16213546323E+03  0.16213546325E+03  0.25500000000E-02 0. -1.
          2   -1    0    0  501    0  0.00000000000E+00 -0.00000000000E+00 -0.21550982247E+03  0.21550982249E+03  0.25500000000E-02 0.  1.
    5000001    1    1    2    0    0 -0.26131173416E+02 -0.12171652221E+03 -0.84847338140E+02  0.19704268774E+03  0.12700000000E+03 0.  0.
   -5000001    1    1    2    0    0  0.26131173416E+02  0.12171652221E+03  0.31472978893E+02  0.18060259799E+03  0.12700000000E+03 0.  0.
<mgrwt>
<rscale>  0 0.37385444E+03</rscale>
<asrwt>0</asrwt>
<pdfrwt beam="1">  1        2 0.30787117E-01 0.37385444E+03</pdfrwt>
<pdfrwt beam="2">  1       -2 0.23162209E-01 0.37385444E+03</pdfrwt>
<totfact> 0.27896042E+03</totfact>
</mgrwt>
</event>
<event>
 4    1  0.1351183E-004  0.4799297E+03  0.7818608E-02  0.1019154E+00
         -2   -1    0    0    0  501 -0.00000000000E+00  0.00000000000E+00  0.17244410164E+03  0.17244410166E+03  0.25500000000E-02 0. -1.
          2   -1    0    0  501    0  0.00000000000E+00 -0.00000000000E+00 -0.33392350402E+03  0.33392350403E+03  0.25500000000E-02 0.  1.
    5000001    1    1    2    0    0 -0.59889969036E+02  0.16555848548E+03 -0.18863604265E+03  0.28759168467E+03  0.12700000000E+03 0.  0.
   -5000001    1    1    2    0    0  0.59889969036E+02 -0.16555848548E+03  0.27156640271E+02  0.21877592101E+03  0.12700000000E+03 0.  0.
<mgrwt>
<rscale>  0 0.47992974E+03</rscale>
<asrwt>0</asrwt>
<pdfrwt beam="1">  1        2 0.47703358E-01 0.47992974E+03</pdfrwt>
<pdfrwt beam="2">  1       -2 0.24634872E-01 0.47992974E+03</pdfrwt>
<totfact> 0.15513343E+03</totfact>
</mgrwt>
</event>
<event>
 4    1  0.1351183E-004  0.3938939E+03  0.7818608E-02  0.1045915E+00
         -2   -1    0    0    0  501 -0.00000000000E+00  0.00000000000E+00  0.20015825778E+02  0.20015825940E+02  0.25500000000E-02 0. -1.
          2   -1    0    0  501    0  0.00000000000E+00 -0.00000000000E+00 -0.19378715167E+04  0.19378715167E+04  0.25500000000E-02 0.  1.
    5000001    1    1    2    0    0 -0.28081962029E+01  0.13386861662E+03 -0.13007952385E+04  0.13138211237E+04  0.12700000000E+03 0.  0.
   -5000001    1    1    2    0    0  0.28081962029E+01 -0.13386861662E+03 -0.61706045236E+03  0.64406621892E+03  0.12700000000E+03 0.  0.
<mgrwt>
<rscale>  0 0.39389389E+03</rscale>
<asrwt>0</asrwt>
<pdfrwt beam="1">  1        2 0.27683867E+00 0.39389389E+03</pdfrwt>
<pdfrwt beam="2">  1       -2 0.28594049E-02 0.39389389E+03</pdfrwt>
<totfact> 0.43077244E+03</totfact>
</mgrwt>
</event>
<event>
 4    1  0.1351183E-004  0.3063495E+03  0.7818608E-02  0.1082109E+00
         -2   -1    0    0    0  501 -0.00000000000E+00  0.00000000000E+00  0.22235858348E+02  0.22235858494E+02  0.25500000000E-02 0. -1.
          2   -1    0    0  501    0  0.00000000000E+00 -0.00000000000E+00 -0.10551651487E+04  0.10551651487E+04  0.25500000000E-02 0.  1.
    5000001    1    1    2    0    0 -0.15517423861E+02  0.72816596574E+02 -0.66527803166E+03  0.68137134265E+03  0.12700000000E+03 0.  0.
   -5000001    1    1    2    0    0  0.15517423861E+02 -0.72816596574E+02 -0.36765125867E+03  0.39602966452E+03  0.12700000000E+03 0.  0.
<mgrwt>
<rscale>  0 0.30634949E+03</rscale>
<asrwt>0</asrwt>
<pdfrwt beam="1">  1        2 0.15073785E+00 0.30634949E+03</pdfrwt>
<pdfrwt beam="2">  1       -2 0.31765519E-02 0.30634949E+03</pdfrwt>
<totfact> 0.10527018E+04</totfact>
</mgrwt>
</event>
<event>
 4    1  0.1351183E-004  0.3505356E+03  0.7818608E-02  0.1062395E+00
          2   -1    0    0  501    0  0.00000000000E+00  0.00000000000E+00  0.24358270242E+03  0.24358270243E+03  0.25500000000E-02 0.  1.
         -2   -1    0    0    0  501 -0.00000000000E+00 -0.00000000000E+00 -0.12611242573E+03  0.12611242576E+03  0.25500000000E-02 0. -1.
    5000001    1    1    2    0    0  0.11889911426E+03  0.20590617292E+01  0.36398134189E+02  0.17775000219E+03  0.12700000000E+03 0.  0.
   -5000001    1    1    2    0    0 -0.11889911426E+03 -0.20590617292E+01  0.81072142497E+02  0.19194512600E+03  0.12700000000E+03 0.  0.
<mgrwt>
<rscale>  0 0.35053562E+03</rscale>
<asrwt>0</asrwt>
<pdfrwt beam="1">  1        2 0.34797529E-01 0.35053562E+03</pdfrwt>
<pdfrwt beam="2">  1       -2 0.18016061E-01 0.35053562E+03</pdfrwt>
<totfact> 0.37571911E+03</totfact>
</mgrwt>
</event>
<event>
 4    1  0.1351183E-004  0.5469829E+03  0.7818608E-02  0.1002195E+00
         -2   -1    0    0    0  501 -0.00000000000E+00  0.00000000000E+00  0.58729740062E+02  0.58729740117E+02  0.25500000000E-02 0. -1.
          2   -1    0    0  501    0  0.00000000000E+00 -0.00000000000E+00 -0.12735893519E+04  0.12735893519E+04  0.25500000000E-02 0.  1.
    5000001    1    1    2    0    0  0.13017218644E+03  0.17913603209E+03 -0.36835210070E+03  0.44815933127E+03  0.12700000000E+03 0.  0.
   -5000001    1    1    2    0    0 -0.13017218644E+03 -0.17913603209E+03 -0.84650751117E+03  0.88415976078E+03  0.12700000000E+03 0.  0.
<mgrwt>
<rscale>  0 0.54698289E+03</rscale>
<asrwt>0</asrwt>
<pdfrwt beam="1">  1        2 0.18194132E+00 0.54698289E+03</pdfrwt>
<pdfrwt beam="2">  1       -2 0.83899637E-02 0.54698289E+03</pdfrwt>
<totfact> 0.17867316E+03</totfact>
</mgrwt>
</event>
<event>
 4    1  0.1351183E-004  0.3686816E+03  0.7818608E-02  0.1055198E+00
         -2   -1    0    0    0  501 -0.00000000000E+00  0.00000000000E+00  0.96236605328E+01  0.96236608706E+01  0.25500000000E-02 0. -1.
          2   -1    0    0  501    0  0.00000000000E+00 -0.00000000000E+00 -0.35310408645E+04  0.35310408645E+04  0.25500000000E-02 0.  1.
    5000001    1    1    2    0    0  0.13108993714E+03  0.23624133534E+02 -0.16600458780E+04  0.16702167489E+04  0.12700000000E+03 0.  0.
   -5000001    1    1    2    0    0 -0.13108993714E+03 -0.23624133534E+02 -0.18613713260E+04  0.18704477765E+04  0.12700000000E+03 0.  0.
<mgrwt>
<rscale>  0 0.36868165E+03</rscale>
<asrwt>0</asrwt>
<pdfrwt beam="1">  1        2 0.50443358E+00 0.36868165E+03</pdfrwt>
<pdfrwt beam="2">  1       -2 0.13748109E-02 0.36868165E+03</pdfrwt>
<totfact> 0.18645752E+03</totfact>
</mgrwt>
</event>
<event>
 4    1  0.1351183E-004  0.4045948E+03  0.7818608E-02  0.1042200E+00
          2   -1    0    0  501    0  0.00000000000E+00  0.00000000000E+00  0.17152123870E+04  0.17152123870E+04  0.25500000000E-02 0.  1.
         -2   -1    0    0    0  501 -0.00000000000E+00 -0.00000000000E+00 -0.23859573297E+02  0.23859573433E+02  0.25500000000E-02 0. -1.
    5000001    1    1    2    0    0  0.12196494685E+03 -0.95626884903E+02  0.72599454012E+03  0.75313811592E+03  0.12700000000E+03 0.  0.
   -5000001    1    1    2    0    0 -0.12196494685E+03  0.95626884903E+02  0.96535827362E+03  0.98593384455E+03  0.12700000000E+03 0.  0.
<mgrwt>
<rscale>  0 0.40459479E+03</rscale>
<asrwt>0</asrwt>
<pdfrwt beam="1">  1        2 0.24503038E+00 0.40459479E+03</pdfrwt>
<pdfrwt beam="2">  1       -2 0.34085100E-02 0.40459479E+03</pdfrwt>
<totfact> 0.42650019E+03</totfact>
</mgrwt>
</event>
<event>
 4    1  0.1351183E-004  0.3490079E+03  0.7818608E-02  0.1063023E+00
         -2   -1    0    0    0  501 -0.00000000000E+00  0.00000000000E+00  0.20491341391E+03  0.20491341393E+03  0.25500000000E-02 0. -1.
          2   -1    0    0  501    0  0.00000000000E+00 -0.00000000000E+00 -0.14860730715E+03  0.14860730717E+03  0.25500000000E-02 0.  1.
    5000001    1    1    2    0    0  0.71603346017E+02  0.95733104862E+02  0.22534793281E+02  0.17586552657E+03  0.12700000000E+03 0.  0.
   -5000001    1    1    2    0    0 -0.71603346017E+02 -0.95733104862E+02  0.33771313483E+02  0.17765519452E+03  0.12700000000E+03 0.  0.
<mgrwt>
<rscale>  0 0.34900791E+03</rscale>
<asrwt>0</asrwt>
<pdfrwt beam="1">  1        2 0.21229615E-01 0.34900791E+03</pdfrwt>
<pdfrwt beam="2">  1       -2 0.29273345E-01 0.34900791E+03</pdfrwt>
<totfact> 0.27847537E+03</totfact>
</mgrwt>
</event>
<event>
 4    1  0.1351183E-004  0.4490803E+03  0.7818608E-02  0.1027997E+00
          2   -1    0    0  501    0  0.00000000000E+00  0.00000000000E+00  0.84692098948E+03  0.84692098949E+03  0.25500000000E-02 0.  1.
         -2   -1    0    0    0  501 -0.00000000000E+00 -0.00000000000E+00 -0.59531253812E+02  0.59531253867E+02  0.25500000000E-02 0. -1.
    5000001    1    1    2    0    0 -0.12939249995E+03 -0.89493028613E+02  0.19656785101E+03  0.28199173971E+03  0.12700000000E+03 0.  0.
   -5000001    1    1    2    0    0  0.12939249995E+03  0.89493028613E+02  0.59082188466E+03  0.62446050364E+03  0.12700000000E+03 0.  0.
<mgrwt>
<rscale>  0 0.44908025E+03</rscale>
<asrwt>0</asrwt>
<pdfrwt beam="1">  1        2 0.12098872E+00 0.44908025E+03</pdfrwt>
<pdfrwt beam="2">  1       -2 0.85044645E-02 0.44908025E+03</pdfrwt>
<totfact> 0.31323236E+03</totfact>
</mgrwt>
</event>
<event>
 4    1  0.1351183E-004  0.4919331E+03  0.7818608E-02  0.1015906E+00
         -2   -1    0    0    0  501 -0.00000000000E+00  0.00000000000E+00  0.20774053629E+04  0.20774053629E+04  0.25500000000E-02 0. -1.
          2   -1    0    0  501    0  0.00000000000E+00 -0.00000000000E+00 -0.29122650560E+02  0.29122650671E+02  0.25500000000E-02 0.  1.
    5000001    1    1    2    0    0  0.79072695590E+01  0.13511425289E+03  0.17153084820E+04  0.17253204267E+04  0.12700000000E+03 0.  0.
   -5000001    1    1    2    0    0 -0.79072695590E+01 -0.13511425289E+03  0.33297423034E+03  0.38120758691E+03  0.12700000000E+03 0.  0.
<mgrwt>
<rscale>  0 0.49193313E+03</rscale>
<asrwt>0</asrwt>
<pdfrwt beam="1">  1        2 0.41603772E-02 0.49193313E+03</pdfrwt>
<pdfrwt beam="2">  1       -2 0.29677230E+00 0.49193313E+03</pdfrwt>
<totfact> 0.75164553E+01</totfact>
</mgrwt>
</event>
<event>
 4    1  0.1351183E-004  0.3144181E+03  0.7818608E-02  0.1078247E+00
         -2   -1    0    0    0  501 -0.00000000000E+00  0.00000000000E+00  0.50949355262E+03  0.50949355263E+03  0.25500000000E-02 0. -1.
          2   -1    0    0  501    0  0.00000000000E+00 -0.00000000000E+00 -0.48508333806E+02  0.48508333873E+02  0.25500000000E-02 0.  1.
    5000001    1    1    2    0    0 -0.50160338678E+02  0.67772266855E+02  0.29868741346E+03  0.33533909807E+03  0.12700000000E+03 0.  0.
   -5000001    1    1    2    0    0  0.50160338678E+02 -0.67772266855E+02  0.16229780535E+03  0.22266278843E+03  0.12700000000E+03 0.  0.
<mgrwt>
<rscale>  0 0.31441809E+03</rscale>
<asrwt>0</asrwt>
<pdfrwt beam="1">  1        2 0.69297620E-02 0.31441809E+03</pdfrwt>
<pdfrwt beam="2">  1       -2 0.72784793E-01 0.31441809E+03</pdfrwt>
<totfact> 0.17998548E+03</totfact>
</mgrwt>
</event>
<event>
 4    1  0.1351183E-004  0.4257165E+03  0.7818608E-02  0.1035222E+00
         -2   -1    0    0    0  501 -0.00000000000E+00  0.00000000000E+00  0.69739134628E+02  0.69739134675E+02  0.25500000000E-02 0. -1.
          2   -1    0    0  501    0  0.00000000000E+00 -0.00000000000E+00 -0.64968730329E+03  0.64968730329E+03  0.25500000000E-02 0.  1.
    5000001    1    1    2    0    0  0.25508344557E+02 -0.12957840491E+03 -0.47306644707E+03  0.50730868513E+03  0.12700000000E+03 0.  0.
   -5000001    1    1    2    0    0 -0.25508344557E+02  0.12957840491E+03 -0.10688172159E+03  0.21211775284E+03  0.12700000000E+03 0.  0.
<mgrwt>
<rscale>  0 0.42571648E+03</rscale>
<asrwt>0</asrwt>
<pdfrwt beam="1">  1        2 0.92812469E-01 0.42571648E+03</pdfrwt>
<pdfrwt beam="2">  1       -2 0.99627339E-02 0.42571648E+03</pdfrwt>
<totfact> 0.33709353E+03</totfact>
</mgrwt>
</event>
<event>
 4    1  0.1351183E-004  0.5804518E+03  0.7818608E-02  0.9946813E-01
         -2   -1    0    0    0  501 -0.00000000000E+00  0.00000000000E+00  0.11749921780E+03  0.11749921783E+03  0.25500000000E-02 0. -1.
          2   -1    0    0  501    0  0.00000000000E+00 -0.00000000000E+00 -0.71686493986E+03  0.71686493986E+03  0.25500000000E-02 0.  1.
    5000001    1    1    2    0    0 -0.47159693486E+02 -0.23911257446E+03 -0.43378299484E+03  0.51351294684E+03  0.12700000000E+03 0.  0.
   -5000001    1    1    2    0    0  0.47159693486E+02  0.23911257446E+03 -0.16558272722E+03  0.32085121086E+03  0.12700000000E+03 0.  0.
<mgrwt>
<rscale>  0 0.58045179E+03</rscale>
<asrwt>0</asrwt>
<pdfrwt beam="1">  1        2 0.10240928E+00 0.58045179E+03</pdfrwt>
<pdfrwt beam="2">  1       -2 0.16785603E-01 0.58045179E+03</pdfrwt>
<totfact> 0.12654313E+03</totfact>
</mgrwt>
</event>
<event>
 4    1  0.1351183E-004  0.4480823E+03  0.7818608E-02  0.1028295E+00
          2   -1    0    0  501    0  0.00000000000E+00  0.00000000000E+00  0.27470626451E+04  0.27470626451E+04  0.25500000000E-02 0.  1.
         -2   -1    0    0    0  501 -0.00000000000E+00 -0.00000000000E+00 -0.18272037242E+02  0.18272037419E+02  0.25500000000E-02 0. -1.
    5000001    1    1    2    0    0 -0.11194953272E+03 -0.35908936099E+02  0.48632276541E+03  0.51619858748E+03  0.12700000000E+03 0.  0.
   -5000001    1    1    2    0    0  0.11194953272E+03  0.35908936099E+02  0.22424678425E+04  0.22491360951E+04  0.12700000000E+03 0.  0.
<mgrwt>
<rscale>  0 0.44808227E+03</rscale>
<asrwt>0</asrwt>
<pdfrwt beam="1">  1        2 0.39243740E+00 0.44808227E+03</pdfrwt>
<pdfrwt beam="2">  1       -2 0.26102919E-02 0.44808227E+03</pdfrwt>
<totfact> 0.19293292E+03</totfact>
</mgrwt>
</event>
<event>
 4    1  0.1351183E-004  0.2816720E+03  0.7818608E-02  0.1094779E+00
          2   -1    0    0  501    0  0.00000000000E+00  0.00000000000E+00  0.17381629713E+04  0.17381629713E+04  0.25500000000E-02 0.  1.
         -2   -1    0    0    0  501 -0.00000000000E+00 -0.00000000000E+00 -0.11411346262E+02  0.11411346547E+02  0.25500000000E-02 0. -1.
    5000001    1    1    2    0    0 -0.80388778277E+00  0.60014125429E+02  0.92654850300E+03  0.93713577986E+03  0.12700000000E+03 0.  0.
   -5000001    1    1    2    0    0  0.80388778277E+00 -0.60014125429E+02  0.80020312208E+03  0.81243853803E+03  0.12700000000E+03 0.  0.
<mgrwt>
<rscale>  0 0.28167201E+03</rscale>
<asrwt>0</asrwt>
<pdfrwt beam="1">  1        2 0.24830890E+00 0.28167201E+03</pdfrwt>
<pdfrwt beam="2">  1       -2 0.16301930E-02 0.28167201E+03</pdfrwt>
<totfact> 0.12398400E+04</totfact>
</mgrwt>
</event>
<event>
 4    1  0.1351183E-004  0.3321173E+03  0.7818608E-02  0.1070204E+00
          2   -1    0    0  501    0  0.00000000000E+00  0.00000000000E+00  0.19177817154E+04  0.19177817154E+04  0.25500000000E-02 0.  1.
         -2   -1    0    0    0  501 -0.00000000000E+00 -0.00000000000E+00 -0.14378836714E+02  0.14378836940E+02  0.25500000000E-02 0. -1.
    5000001    1    1    2    0    0  0.95048246521E+02 -0.44485613860E+02  0.10728063650E+04  0.10853827140E+04  0.12700000000E+03 0.  0.
   -5000001    1    1    2    0    0 -0.95048246521E+02  0.44485613860E+02  0.83059651371E+03  0.84677783840E+03  0.12700000000E+03 0.  0.
<mgrwt>
<rscale>  0 0.33211727E+03</rscale>
<asrwt>0</asrwt>
<pdfrwt beam="1">  1        2 0.27396886E+00 0.33211727E+03</pdfrwt>
<pdfrwt beam="2">  1       -2 0.20541192E-02 0.33211727E+03</pdfrwt>
<totfact> 0.72152000E+03</totfact>
</mgrwt>
</event>
<event>
 4    1  0.1351183E-004  0.6122873E+03  0.7818608E-02  0.9880237E-01
          2   -1    0    0  501    0  0.00000000000E+00  0.00000000000E+00  0.48651077375E+03  0.48651077376E+03  0.25500000000E-02 0.  1.
         -2   -1    0    0    0  501 -0.00000000000E+00 -0.00000000000E+00 -0.19264514418E+03  0.19264514420E+03  0.25500000000E-02 0. -1.
    5000001    1    1    2    0    0 -0.22571402063E+03 -0.28773209909E+02 -0.31302685964E+02  0.26245680571E+03  0.12700000000E+03 0.  0.
   -5000001    1    1    2    0    0  0.22571402063E+03  0.28773209909E+02  0.32516831553E+03  0.41669911224E+03  0.12700000000E+03 0.  0.
<mgrwt>
<rscale>  0 0.61228731E+03</rscale>
<asrwt>0</asrwt>
<pdfrwt beam="1">  1        2 0.69501539E-01 0.61228731E+03</pdfrwt>
<pdfrwt beam="2">  1       -2 0.27520735E-01 0.61228731E+03</pdfrwt>
<totfact> 0.83603052E+02</totfact>
</mgrwt>
</event>
<event>
 4    1  0.1351183E-004  0.4649072E+03  0.7818608E-02  0.1023368E+00
          2   -1    0    0  501    0  0.00000000000E+00  0.00000000000E+00  0.25795008637E+03  0.25795008638E+03  0.25500000000E-02 0.  1.
         -2   -1    0    0    0  501 -0.00000000000E+00 -0.00000000000E+00 -0.20947725020E+03  0.20947725021E+03  0.25500000000E-02 0. -1.
    5000001    1    1    2    0    0  0.19395366323E+03 -0.16628746707E+02  0.20881250592E+02  0.23336573297E+03  0.12700000000E+03 0.  0.
   -5000001    1    1    2    0    0 -0.19395366323E+03  0.16628746707E+02  0.27591585579E+02  0.23406160362E+03  0.12700000000E+03 0.  0.
<mgrwt>
<rscale>  0 0.46490719E+03</rscale>
<asrwt>0</asrwt>
<pdfrwt beam="1">  1        2 0.36850012E-01 0.46490719E+03</pdfrwt>
<pdfrwt beam="2">  1       -2 0.29925321E-01 0.46490719E+03</pdfrwt>
<totfact> 0.14479952E+03</totfact>
</mgrwt>
</event>
<event>
 4    1  0.1351183E-004  0.5882683E+03  0.7818608E-02  0.9930049E-01
         -2   -1    0    0    0  501 -0.00000000000E+00  0.00000000000E+00  0.40701557355E+02  0.40701557435E+02  0.25500000000E-02 0. -1.
          2   -1    0    0  501    0  0.00000000000E+00 -0.00000000000E+00 -0.21255916265E+04  0.21255916265E+04  0.25500000000E-02 0.  1.
    5000001    1    1    2    0    0 -0.18276582297E+03 -0.18435212080E+03 -0.84085292870E+03  0.88912974205E+03  0.12700000000E+03 0.  0.
   -5000001    1    1    2    0    0  0.18276582297E+03  0.18435212080E+03 -0.12440371404E+04  0.12771634419E+04  0.12700000000E+03 0.  0.
<mgrwt>
<rscale>  0 0.58826827E+03</rscale>
<asrwt>0</asrwt>
<pdfrwt beam="1">  1        2 0.30365588E+00 0.58826827E+03</pdfrwt>
<pdfrwt beam="2">  1       -2 0.58145095E-02 0.58826827E+03</pdfrwt>
<totfact> 0.11631072E+03</totfact>
</mgrwt>
</event>
<event>
 4    1  0.1351183E-004  0.4111924E+03  0.7818608E-02  0.1039972E+00
          2   -1    0    0  501    0  0.00000000000E+00  0.00000000000E+00  0.10570212552E+04  0.10570212552E+04  0.25500000000E-02 0.  1.
         -2   -1    0    0    0  501 -0.00000000000E+00 -0.00000000000E+00 -0.39989537367E+02  0.39989537449E+02  0.25500000000E-02 0. -1.
    5000001    1    1    2    0    0  0.13491659957E+03  0.73805751873E+02  0.64166975152E+03  0.67195152196E+03  0.12700000000E+03 0.  0.
   -5000001    1    1    2    0    0 -0.13491659957E+03 -0.73805751873E+02  0.37536196635E+03  0.42505927072E+03  0.12700000000E+03 0.  0.
<mgrwt>
<rscale>  0 0.41119237E+03</rscale>
<asrwt>0</asrwt>
<pdfrwt beam="1">  1        2 0.15100305E+00 0.41119237E+03</pdfrwt>
<pdfrwt beam="2">  1       -2 0.57127905E-02 0.41119237E+03</pdfrwt>
<totfact> 0.43279019E+03</totfact>
</mgrwt>
</event>
<event>
 4    1  0.1351183E-004  0.5171692E+03  0.7818608E-02  0.1009392E+00
         -2   -1    0    0    0  501 -0.00000000000E+00  0.00000000000E+00  0.53538808214E+02  0.53538808275E+02  0.25500000000E-02 0. -1.
          2   -1    0    0  501    0  0.00000000000E+00 -0.00000000000E+00 -0.12489255285E+04  0.12489255285E+04  0.25500000000E-02 0.  1.
    5000001    1    1    2    0    0  0.10295250084E+03 -0.16830597699E+03 -0.87139290655E+03  0.90243044990E+03  0.12700000000E+03 0.  0.
   -5000001    1    1    2    0    0 -0.10295250084E+03  0.16830597699E+03 -0.32399381378E+03  0.40003388692E+03  0.12700000000E+03 0.  0.
<mgrwt>
<rscale>  0 0.51716916E+03</rscale>
<asrwt>0</asrwt>
<pdfrwt beam="1">  1        2 0.17841791E+00 0.51716916E+03</pdfrwt>
<pdfrwt beam="2">  1       -2 0.76484019E-02 0.51716916E+03</pdfrwt>
<totfact> 0.21363708E+03</totfact>
</mgrwt>
</event>
<event>
 4    1  0.1351183E-004  0.7893442E+03  0.7818608E-02  0.9575570E-01
         -2   -1    0    0    0  501 -0.00000000000E+00  0.00000000000E+00  0.47589677112E+02  0.47589677180E+02  0.25500000000E-02 0.  1.
          2   -1    0    0  501    0  0.00000000000E+00 -0.00000000000E+00 -0.32731060309E+04  0.32731060309E+04  0.25500000000E-02 0. -1.
    5000001    1    1    2    0    0 -0.26926750942E+03 -0.25487425199E+03 -0.18087829301E+04  0.18507540529E+04  0.12700000000E+03 0.  0.
   -5000001    1    1    2    0    0  0.26926750942E+03  0.25487425199E+03 -0.14167334237E+04  0.14699416552E+04  0.12700000000E+03 0.  0.
<mgrwt>
<rscale>  0 0.78934418E+03</rscale>
<asrwt>0</asrwt>
<pdfrwt beam="1">  1        2 0.46758643E+00 0.78934418E+03</pdfrwt>
<pdfrwt beam="2">  1       -2 0.67985274E-02 0.78934418E+03</pdfrwt>
<totfact> 0.22068400E+02</totfact>
</mgrwt>
</event>
<event>
 4    1  0.1351183E-004  0.3687220E+03  0.7818608E-02  0.1055183E+00
          2   -1    0    0  501    0  0.00000000000E+00  0.00000000000E+00  0.17506868602E+03  0.17506868604E+03  0.25500000000E-02 0.  1.
         -2   -1    0    0    0  501 -0.00000000000E+00 -0.00000000000E+00 -0.19414651800E+03  0.19414651802E+03  0.25500000000E-02 0. -1.
    5000001    1    1    2    0    0  0.74917685683E+02  0.48618160832E+01  0.10116972227E+03  0.17888714204E+03  0.12700000000E+03 0.  0.
   -5000001    1    1    2    0    0 -0.74917685683E+02 -0.48618160832E+01 -0.12024755425E+03  0.19032806201E+03  0.12700000000E+03 0.  0.
<mgrwt>
<rscale>  0 0.36872199E+03</rscale>
<asrwt>0</asrwt>
<pdfrwt beam="1">  1        2 0.25009812E-01 0.36872199E+03</pdfrwt>
<pdfrwt beam="2">  1       -2 0.27735217E-01 0.36872199E+03</pdfrwt>
<totfact> 0.25518258E+03</totfact>
</mgrwt>
</event>
<event>
 4    1  0.1351183E-004  0.5080090E+03  0.7818608E-02  0.1011709E+00
         -2   -1    0    0    0  501 -0.00000000000E+00  0.00000000000E+00  0.55499234845E+02  0.55499234904E+02  0.25500000000E-02 0. -1.
          2   -1    0    0  501    0  0.00000000000E+00 -0.00000000000E+00 -0.11625076010E+04  0.11625076010E+04  0.25500000000E-02 0.  1.
    5000001    1    1    2    0    0  0.21080001029E+03  0.98152381626E+01 -0.40461481381E+03  0.47368252110E+03  0.12700000000E+03 0.  0.
   -5000001    1    1    2    0    0 -0.21080001029E+03 -0.98152381626E+01 -0.70239355238E+03  0.74432431484E+03  0.12700000000E+03 0.  0.
<mgrwt>
<rscale>  0 0.50800899E+03</rscale>
<asrwt>0</asrwt>
<pdfrwt beam="1">  1        2 0.16607250E+00 0.50800899E+03</pdfrwt>
<pdfrwt beam="2">  1       -2 0.79284629E-02 0.50800899E+03</pdfrwt>
<totfact> 0.22544021E+03</totfact>
</mgrwt>
</event>
<event>
 4    1  0.1351183E-004  0.4417641E+03  0.7818608E-02  0.1030207E+00
         -2   -1    0    0    0  501 -0.00000000000E+00  0.00000000000E+00  0.12892928599E+03  0.12892928602E+03  0.25500000000E-02 0. -1.
          2   -1    0    0  501    0  0.00000000000E+00 -0.00000000000E+00 -0.37841583530E+03  0.37841583530E+03  0.25500000000E-02 0.  1.
    5000001    1    1    2    0    0  0.16424737907E+02 -0.17145708988E+03 -0.61917800295E+02  0.22277818493E+03  0.12700000000E+03 0.  0.
   -5000001    1    1    2    0    0 -0.16424737907E+02  0.17145708988E+03 -0.18756874901E+03  0.28456693640E+03  0.12700000000E+03 0.  0.
<mgrwt>
<rscale>  0 0.44176412E+03</rscale>
<asrwt>0</asrwt>
<pdfrwt beam="1">  1        2 0.54059405E-01 0.44176412E+03</pdfrwt>
<pdfrwt beam="2">  1       -2 0.18418470E-01 0.44176412E+03</pdfrwt>
<totfact> 0.22458377E+03</totfact>
</mgrwt>
</event>
<event>
 4    1  0.1351183E-004  0.3791357E+03  0.7818608E-02  0.1051254E+00
          2   -1    0    0  501    0  0.00000000000E+00  0.00000000000E+00  0.27422846110E+03  0.27422846111E+03  0.25500000000E-02 0.  1.
         -2   -1    0    0    0  501 -0.00000000000E+00 -0.00000000000E+00 -0.13104388181E+03  0.13104388183E+03  0.25500000000E-02 0. -1.
    5000001    1    1    2    0    0  0.25851439850E+02  0.13828357063E+03  0.67274098909E+02  0.20111053486E+03  0.12700000000E+03 0.  0.
   -5000001    1    1    2    0    0 -0.25851439850E+02 -0.13828357063E+03  0.75910480379E+02  0.20416180808E+03  0.12700000000E+03 0.  0.
<mgrwt>
<rscale>  0 0.37913566E+03</rscale>
<asrwt>0</asrwt>
<pdfrwt beam="1">  1        2 0.39175494E-01 0.37913566E+03</pdfrwt>
<pdfrwt beam="2">  1       -2 0.18720555E-01 0.37913566E+03</pdfrwt>
<totfact> 0.30971479E+03</totfact>
</mgrwt>
</event>
<event>
 4    1  0.1351183E-004  0.4233852E+03  0.7818608E-02  0.1035970E+00
         -2   -1    0    0    0  501 -0.00000000000E+00  0.00000000000E+00  0.23751839593E+02  0.23751839730E+02  0.25500000000E-02 0. -1.
          2   -1    0    0  501    0  0.00000000000E+00 -0.00000000000E+00 -0.18867488803E+04  0.18867488803E+04  0.25500000000E-02 0.  1.
    5000001    1    1    2    0    0 -0.14719110189E+03 -0.78207650922E+02 -0.79589236781E+03  0.82301598907E+03  0.12700000000E+03 0.  0.
   -5000001    1    1    2    0    0  0.14719110189E+03  0.78207650922E+02 -0.10671046729E+04  0.10874847310E+04  0.12700000000E+03 0.  0.
<mgrwt>
<rscale>  0 0.42338520E+03</rscale>
<asrwt>0</asrwt>
<pdfrwt beam="1">  1        2 0.26953546E+00 0.42338520E+03</pdfrwt>
<pdfrwt beam="2">  1       -2 0.33931212E-02 0.42338520E+03</pdfrwt>
<totfact> 0.35264474E+03</totfact>
</mgrwt>
</event>
<event>
 4    1  0.1351183E-004  0.1093798E+04  0.7818608E-02  0.9211258E-01
          2   -1    0    0  501    0  0.00000000000E+00  0.00000000000E+00  0.49458691617E+03  0.49458691618E+03  0.25500000000E-02 0.  1.
         -2   -1    0    0    0  501 -0.00000000000E+00 -0.00000000000E+00 -0.60474375844E+03  0.60474375845E+03  0.25500000000E-02 0. -1.
    5000001    1    1    2    0    0  0.51810085353E+03 -0.34280345279E+02 -0.17127341692E+03  0.56130848902E+03  0.12700000000E+03 0.  0.
   -5000001    1    1    2    0    0 -0.51810085353E+03  0.34280345279E+02  0.61116574653E+02  0.53802218560E+03  0.12700000000E+03 0.  0.
<mgrwt>
<rscale>  0 0.10937977E+04</rscale>
<asrwt>0</asrwt>
<pdfrwt beam="1">  1        2 0.70655274E-01 0.10937977E+04</pdfrwt>
<pdfrwt beam="2">  1       -2 0.86391965E-01 0.10937977E+04</pdfrwt>
<totfact> 0.78490374E+01</totfact>
</mgrwt>
</event>
<event>
 4    1  0.1351183E-004  0.4678372E+03  0.7818608E-02  0.1022532E+00
          2   -1    0    0  501    0  0.00000000000E+00  0.00000000000E+00  0.19674545028E+04  0.19674545028E+04  0.25500000000E-02 0.  1.
         -2   -1    0    0    0  501 -0.00000000000E+00 -0.00000000000E+00 -0.27811528316E+02  0.27811528433E+02  0.25500000000E-02 0. -1.
    5000001    1    1    2    0    0  0.14644066167E+03 -0.12325817274E+03  0.78141874481E+03  0.81448247328E+03  0.12700000000E+03 0.  0.
   -5000001    1    1    2    0    0 -0.14644066167E+03  0.12325817274E+03  0.11582242297E+04  0.11807835580E+04  0.12700000000E+03 0.  0.
<mgrwt>
<rscale>  0 0.46783722E+03</rscale>
<asrwt>0</asrwt>
<pdfrwt beam="1">  1        2 0.28106501E+00 0.46783722E+03</pdfrwt>
<pdfrwt beam="2">  1       -2 0.39730743E-02 0.46783722E+03</pdfrwt>
<totfact> 0.25265844E+03</totfact>
</mgrwt>
</event>
<event>
 4    1  0.1351183E-004  0.3274020E+03  0.7818608E-02  0.1072292E+00
          2   -1    0    0  501    0  0.00000000000E+00  0.00000000000E+00  0.16824716539E+03  0.16824716541E+03  0.25500000000E-02 0.  1.
         -2   -1    0    0    0  501 -0.00000000000E+00 -0.00000000000E+00 -0.15927768163E+03  0.15927768165E+03  0.25500000000E-02 0. -1.
    5000001    1    1    2    0    0  0.17833029669E+02  0.41238334473E+02  0.97527171566E+02  0.16631045178E+03  0.12700000000E+03 0.  0.
   -5000001    1    1    2    0    0 -0.17833029669E+02 -0.41238334473E+02 -0.88557687802E+02  0.16121439528E+03  0.12700000000E+03 0.  0.
<mgrwt>
<rscale>  0 0.32740201E+03</rscale>
<asrwt>0</asrwt>
<pdfrwt beam="1">  1        2 0.24035309E-01 0.32740201E+03</pdfrwt>
<pdfrwt beam="2">  1       -2 0.22753954E-01 0.32740201E+03</pdfrwt>
<totfact> 0.37828574E+03</totfact>
</mgrwt>
</event>
<event>
 4    1  0.1351183E-004  0.4789796E+03  0.7818608E-02  0.1019416E+00
          2   -1    0    0  501    0  0.00000000000E+00  0.00000000000E+00  0.23247125824E+03  0.23247125826E+03  0.25500000000E-02 0.  1.
         -2   -1    0    0    0  501 -0.00000000000E+00 -0.00000000000E+00 -0.24672028105E+03  0.24672028106E+03  0.25500000000E-02 0. -1.
    5000001    1    1    2    0    0 -0.15092801483E+03  0.13484391863E+03  0.91377134787E+01  0.23911220350E+03  0.12700000000E+03 0.  0.
   -5000001    1    1    2    0    0  0.15092801483E+03 -0.13484391863E+03 -0.23386736285E+02  0.24007933582E+03  0.12700000000E+03 0.  0.
<mgrwt>
<rscale>  0 0.47897964E+03</rscale>
<asrwt>0</asrwt>
<pdfrwt beam="1">  1        2 0.33210180E-01 0.47897964E+03</pdfrwt>
<pdfrwt beam="2">  1       -2 0.35245754E-01 0.47897964E+03</pdfrwt>
<totfact> 0.11978169E+03</totfact>
</mgrwt>
</event>
<event>
 4    1  0.1351183E-004  0.4865282E+03  0.7818608E-02  0.1017356E+00
         -2   -1    0    0    0  501 -0.00000000000E+00  0.00000000000E+00  0.27334325687E+03  0.27334325688E+03  0.25500000000E-02 0. -1.
          2   -1    0    0  501    0  0.00000000000E+00 -0.00000000000E+00 -0.21649488620E+03  0.21649488621E+03  0.25500000000E-02 0.  1.
    5000001    1    1    2    0    0 -0.13883437310E+03  0.15002985274E+03 -0.73772255196E+01  0.24076412383E+03  0.12700000000E+03 0.  0.
   -5000001    1    1    2    0    0  0.13883437310E+03 -0.15002985274E+03  0.64225596187E+02  0.24907401926E+03  0.12700000000E+03 0.  0.
<mgrwt>
<rscale>  0 0.48652818E+03</rscale>
<asrwt>0</asrwt>
<pdfrwt beam="1">  1        2 0.30927841E-01 0.48652818E+03</pdfrwt>
<pdfrwt beam="2">  1       -2 0.39049037E-01 0.48652818E+03</pdfrwt>
<totfact> 0.10664579E+03</totfact>
</mgrwt>
</event>
<event>
 4    1  0.1351183E-004  0.3969051E+03  0.7818608E-02  0.1044857E+00
          2   -1    0    0  501    0  0.00000000000E+00  0.00000000000E+00  0.13329073482E+04  0.13329073482E+04  0.25500000000E-02 0.  1.
         -2   -1    0    0    0  501 -0.00000000000E+00 -0.00000000000E+00 -0.29546998193E+02  0.29546998303E+02  0.25500000000E-02 0. -1.
    5000001    1    1    2    0    0  0.64633740291E+02 -0.13806652376E+03  0.63859727194E+03  0.66871171748E+03  0.12700000000E+03 0.  0.
   -5000001    1    1    2    0    0 -0.64633740291E+02  0.13806652376E+03  0.66476307810E+03  0.69374262906E+03  0.12700000000E+03 0.  0.
<mgrwt>
<rscale>  0 0.39690508E+03</rscale>
<asrwt>0</asrwt>
<pdfrwt beam="1">  1        2 0.19041541E+00 0.39690508E+03</pdfrwt>
<pdfrwt beam="2">  1       -2 0.42209982E-02 0.39690508E+03</pdfrwt>
<totfact> 0.48415521E+03</totfact>
</mgrwt>
</event>
<event>
 4    1  0.1351183E-004  0.4415841E+03  0.7818608E-02  0.1030262E+00
          2   -1    0    0  501    0  0.00000000000E+00  0.00000000000E+00  0.13013512855E+04  0.13013512855E+04  0.25500000000E-02 0.  1.
         -2   -1    0    0    0  501 -0.00000000000E+00 -0.00000000000E+00 -0.37460394567E+02  0.37460394654E+02  0.25500000000E-02 0. -1.
    5000001    1    1    2    0    0  0.17822269715E+03  0.29245509801E+02  0.63566245951E+03  0.67291484756E+03  0.12700000000E+03 0.  0.
   -5000001    1    1    2    0    0 -0.17822269715E+03 -0.29245509801E+02  0.62822843139E+03  0.66589683258E+03  0.12700000000E+03 0.  0.
<mgrwt>
<rscale>  0 0.44158412E+03</rscale>
<asrwt>0</asrwt>
<pdfrwt beam="1">  1        2 0.18590731E+00 0.44158412E+03</pdfrwt>
<pdfrwt beam="2">  1       -2 0.53514853E-02 0.44158412E+03</pdfrwt>
<totfact> 0.34989044E+03</totfact>
</mgrwt>
</event>
<event>
 4    1  0.1351183E-004  0.5293967E+03  0.7818608E-02  0.1006379E+00
         -2   -1    0    0    0  501 -0.00000000000E+00  0.00000000000E+00  0.15870601932E+03  0.15870601934E+03  0.25500000000E-02 0. -1.
          2   -1    0    0  501    0  0.00000000000E+00 -0.00000000000E+00 -0.44147801121E+03  0.44147801122E+03  0.25500000000E-02 0.  1.
    5000001    1    1    2    0    0  0.20483039098E+03  0.41067036909E+02 -0.26358920932E+02  0.24589791236E+03  0.12700000000E+03 0.  0.
   -5000001    1    1    2    0    0 -0.20483039098E+03 -0.41067036909E+02 -0.25641307096E+03  0.35428611820E+03  0.12700000000E+03 0.  0.
<mgrwt>
<rscale>  0 0.52939670E+03</rscale>
<asrwt>0</asrwt>
<pdfrwt beam="1">  1        2 0.63068286E-01 0.52939670E+03</pdfrwt>
<pdfrwt beam="2">  1       -2 0.22672289E-01 0.52939670E+03</pdfrwt>
<totfact> 0.13209777E+03</totfact>
</mgrwt>
</event>
<event>
 4    1  0.1351183E-004  0.4116790E+03  0.7818608E-02  0.1039809E+00
          2   -1    0    0  501    0  0.00000000000E+00  0.00000000000E+00  0.22428757386E+02  0.22428757531E+02  0.25500000000E-02 0.  1.
         -2   -1    0    0    0  501 -0.00000000000E+00 -0.00000000000E+00 -0.18890883011E+04  0.18890883011E+04  0.25500000000E-02 0. -1.
    5000001    1    1    2    0    0  0.91119679862E+02 -0.13382112646E+03 -0.95876741737E+03  0.98059923034E+03  0.12700000000E+03 0.  0.
   -5000001    1    1    2    0    0 -0.91119679862E+02  0.13382112646E+03 -0.90789212633E+03  0.93091782827E+03  0.12700000000E+03 0.  0.
<mgrwt>
<rscale>  0 0.41167902E+03</rscale>
<asrwt>0</asrwt>
<pdfrwt beam="1">  1        2 0.32041094E-02 0.41167902E+03</pdfrwt>
<pdfrwt beam="2">  1       -2 0.26986966E+00 0.41167902E+03</pdfrwt>
<totfact> 0.15594443E+02</totfact>
</mgrwt>
</event>
<event>
 4    1  0.1351183E-004  0.3688566E+03  0.7818608E-02  0.1055131E+00
         -2   -1    0    0    0  501 -0.00000000000E+00  0.00000000000E+00  0.50101292870E+02  0.50101292934E+02  0.25500000000E-02 0. -1.
          2   -1    0    0  501    0  0.00000000000E+00 -0.00000000000E+00 -0.67890054026E+03  0.67890054026E+03  0.25500000000E-02 0.  1.
    5000001    1    1    2    0    0 -0.12797302398E+03  0.23621061590E+02 -0.25349157568E+03  0.31196478705E+03  0.12700000000E+03 0.  0.
   -5000001    1    1    2    0    0  0.12797302398E+03 -0.23621061590E+02 -0.37530767171E+03  0.41703704615E+03  0.12700000000E+03 0.  0.
<mgrwt>
<rscale>  0 0.36885658E+03</rscale>
<asrwt>0</asrwt>
<pdfrwt beam="1">  1        2 0.96985786E-01 0.36885658E+03</pdfrwt>
<pdfrwt beam="2">  1       -2 0.71573280E-02 0.36885658E+03</pdfrwt>
<totfact> 0.53890909E+03</totfact>
</mgrwt>
</event>
<event>
 4    1  0.1351183E-004  0.3350913E+03  0.7818608E-02  0.1068906E+00
         -2   -1    0    0    0  501 -0.00000000000E+00  0.00000000000E+00  0.56608720475E+03  0.56608720475E+03  0.25500000000E-02 0. -1.
          2   -1    0    0  501    0  0.00000000000E+00 -0.00000000000E+00 -0.49588715289E+02  0.49588715355E+02  0.25500000000E-02 0.  1.
    5000001    1    1    2    0    0  0.65532139344E+02 -0.13327470469E+02  0.99444824485E+02  0.17461487873E+03  0.12700000000E+03 0.  0.
   -5000001    1    1    2    0    0 -0.65532139344E+02  0.13327470469E+02  0.41705366497E+03  0.44106104138E+03  0.12700000000E+03 0.  0.
<mgrwt>
<rscale>  0 0.33509125E+03</rscale>
<asrwt>0</asrwt>
<pdfrwt beam="1">  1        2 0.70841022E-02 0.33509125E+03</pdfrwt>
<pdfrwt beam="2">  1       -2 0.80869600E-01 0.33509125E+03</pdfrwt>
<totfact> 0.13904159E+03</totfact>
</mgrwt>
</event>
<event>
 4    1  0.1351183E-004  0.4930987E+03  0.7818608E-02  0.1015596E+00
         -2   -1    0    0    0  501 -0.00000000000E+00  0.00000000000E+00  0.25304632304E+02  0.25304632432E+02  0.25500000000E-02 0. -1.
          2   -1    0    0  501    0  0.00000000000E+00 -0.00000000000E+00 -0.24021915351E+04  0.24021915351E+04  0.25500000000E-02 0.  1.
    5000001    1    1    2    0    0 -0.10289141118E+03  0.80369954690E+02 -0.37041101602E+03  0.41277026649E+03  0.12700000000E+03 0.  0.
   -5000001    1    1    2    0    0  0.10289141118E+03 -0.80369954690E+02 -0.20064758867E+04  0.20147259010E+04  0.12700000000E+03 0.  0.
<mgrwt>
<rscale>  0 0.49309867E+03</rscale>
<asrwt>0</asrwt>
<pdfrwt beam="1">  1        2 0.34317008E+00 0.49309867E+03</pdfrwt>
<pdfrwt beam="2">  1       -2 0.36149490E-02 0.49309867E+03</pdfrwt>
<totfact> 0.17661433E+03</totfact>
</mgrwt>
</event>
<event>
 4    1  0.1351183E-004  0.8542390E+03  0.7818608E-02  0.9484665E-01
         -2   -1    0    0    0  501 -0.00000000000E+00  0.00000000000E+00  0.22039759088E+03  0.22039759089E+03  0.25500000000E-02 0. -1.
          2   -1    0    0  501    0  0.00000000000E+00 -0.00000000000E+00 -0.82773614875E+03  0.82773614876E+03  0.25500000000E-02 0.  1.
    5000001    1    1    2    0    0  0.39891181873E+03  0.83083815482E+02 -0.32377428748E+03  0.53571666835E+03  0.12700000000E+03 0.  0.
   -5000001    1    1    2    0    0 -0.39891181873E+03 -0.83083815482E+02 -0.28356427039E+03  0.51241707130E+03  0.12700000000E+03 0.  0.
<mgrwt>
<rscale>  0 0.85423897E+03</rscale>
<asrwt>0</asrwt>
<pdfrwt beam="1">  1        2 0.11824802E+00 0.85423897E+03</pdfrwt>
<pdfrwt beam="2">  1       -2 0.31485371E-01 0.85423897E+03</pdfrwt>
<totfact> 0.34100572E+02</totfact>
</mgrwt>
</event>
<event>
 4    1  0.1351183E-004  0.4697277E+03  0.7818608E-02  0.1021997E+00
         -2   -1    0    0    0  501 -0.00000000000E+00  0.00000000000E+00  0.11126692272E+03  0.11126692275E+03  0.25500000000E-02 0. -1.
          2   -1    0    0  501    0  0.00000000000E+00 -0.00000000000E+00 -0.49575415906E+03  0.49575415907E+03  0.25500000000E-02 0.  1.
    5000001    1    1    2    0    0 -0.51773819976E+02 -0.16801501103E+03 -0.75776978841E+02  0.22974055561E+03  0.12700000000E+03 0.  0.
   -5000001    1    1    2    0    0  0.51773819976E+02  0.16801501103E+03 -0.30871025751E+03  0.37728052621E+03  0.12700000000E+03 0.  0.
<mgrwt>
<rscale>  0 0.46972775E+03</rscale>
<asrwt>0</asrwt>
<pdfrwt beam="1">  1        2 0.70822022E-01 0.46972775E+03</pdfrwt>
<pdfrwt beam="2">  1       -2 0.15895275E-01 0.46972775E+03</pdfrwt>
<totfact> 0.21383938E+03</totfact>
</mgrwt>
</event>
<event>
 4    1  0.1351183E-004  0.4855212E+03  0.7818608E-02  0.1017629E+00
          2   -1    0    0  501    0  0.00000000000E+00  0.00000000000E+00  0.20672209602E+03  0.20672209604E+03  0.25500000000E-02 0.  1.
         -2   -1    0    0    0  501 -0.00000000000E+00 -0.00000000000E+00 -0.28508175785E+03  0.28508175786E+03  0.25500000000E-02 0. -1.
    5000001    1    1    2    0    0 -0.21102808264E+02 -0.20429129859E+03 -0.64471615497E+02  0.24993169547E+03  0.12700000000E+03 0.  0.
   -5000001    1    1    2    0    0  0.21102808264E+02  0.20429129859E+03 -0.13888046332E+02  0.24187215843E+03  0.12700000000E+03 0.  0.
<mgrwt>
<rscale>  0 0.48552116E+03</rscale>
<asrwt>0</asrwt>
<pdfrwt beam="1">  1        2 0.29531728E-01 0.48552116E+03</pdfrwt>
<pdfrwt beam="2">  1       -2 0.40725965E-01 0.48552116E+03</pdfrwt>
<totfact> 0.10352878E+03</totfact>
</mgrwt>
</event>
<event>
 4    1  0.1351183E-004  0.6335001E+03  0.7818608E-02  0.9838242E-01
         -2   -1    0    0    0  501 -0.00000000000E+00  0.00000000000E+00  0.16462991755E+03  0.16462991757E+03  0.25500000000E-02 0. -1.
          2   -1    0    0  501    0  0.00000000000E+00 -0.00000000000E+00 -0.60943117306E+03  0.60943117307E+03  0.25500000000E-02 0.  1.
    5000001    1    1    2    0    0 -0.26828305569E+03 -0.11056829580E+03 -0.22157391169E+03  0.38655548677E+03  0.12700000000E+03 0.  0.
   -5000001    1    1    2    0    0  0.26828305569E+03  0.11056829580E+03 -0.22322734382E+03  0.38750560387E+03  0.12700000000E+03 0.  0.
<mgrwt>
<rscale>  0 0.63350013E+03</rscale>
<asrwt>0</asrwt>
<pdfrwt beam="1">  1        2 0.87061595E-01 0.63350013E+03</pdfrwt>
<pdfrwt beam="2">  1       -2 0.23518560E-01 0.63350013E+03</pdfrwt>
<totfact> 0.85483170E+02</totfact>
</mgrwt>
</event>
<event>
 4    1  0.1351183E-004  0.3820932E+03  0.7818608E-02  0.1050163E+00
          2   -1    0    0  501    0  0.00000000000E+00  0.00000000000E+00  0.75596549750E+03  0.75596549751E+03  0.25500000000E-02 0.  1.
         -2   -1    0    0    0  501 -0.00000000000E+00 -0.00000000000E+00 -0.48281055549E+02  0.48281055616E+02  0.25500000000E-02 0. -1.
    5000001    1    1    2    0    0  0.39028428342E+02 -0.13478257024E+03  0.29894441356E+03  0.35381679138E+03  0.12700000000E+03 0.  0.
   -5000001    1    1    2    0    0 -0.39028428342E+02  0.13478257024E+03  0.40874002839E+03  0.45042976175E+03  0.12700000000E+03 0.  0.
<mgrwt>
<rscale>  0 0.38209325E+03</rscale>
<asrwt>0</asrwt>
<pdfrwt beam="1">  1        2 0.10799507E+00 0.38209325E+03</pdfrwt>
<pdfrwt beam="2">  1       -2 0.68972936E-02 0.38209325E+03</pdfrwt>
<totfact> 0.50164921E+03</totfact>
</mgrwt>
</event>
<event>
 4    1  0.1351183E-004  0.7116485E+03  0.7818608E-02  0.9697516E-01
         -2   -1    0    0    0  501 -0.00000000000E+00  0.00000000000E+00  0.20437566412E+03  0.20437566413E+03  0.25500000000E-02 0. -1.
          2   -1    0    0  501    0  0.00000000000E+00 -0.00000000000E+00 -0.61950086914E+03  0.61950086915E+03  0.25500000000E-02 0.  1.
    5000001    1    1    2    0    0  0.13786769297E+03  0.26296131096E+03 -0.34581120887E+02  0.32477839483E+03  0.12700000000E+03 0.  0.
   -5000001    1    1    2    0    0 -0.13786769297E+03 -0.26296131096E+03 -0.38054408414E+03  0.49909813845E+03  0.12700000000E+03 0.  0.
<mgrwt>
<rscale>  0 0.71164851E+03</rscale>
<asrwt>0</asrwt>
<pdfrwt beam="1">  1        2 0.88500123E-01 0.71164851E+03</pdfrwt>
<pdfrwt beam="2">  1       -2 0.29196524E-01 0.71164851E+03</pdfrwt>
<totfact> 0.56551089E+02</totfact>
</mgrwt>
</event>
<event>
 4    1  0.1351183E-004  0.4088203E+03  0.7818608E-02  0.1040768E+00
          2   -1    0    0  501    0  0.00000000000E+00  0.00000000000E+00  0.11302968010E+04  0.11302968010E+04  0.25500000000E-02 0.  1.
         -2   -1    0    0    0  501 -0.00000000000E+00 -0.00000000000E+00 -0.36966839861E+02  0.36966839949E+02  0.25500000000E-02 0. -1.
    5000001    1    1    2    0    0  0.72001682874E+02 -0.53003998165E+02  0.16722580946E+03  0.22822606667E+03  0.12700000000E+03 0.  0.
   -5000001    1    1    2    0    0 -0.72001682874E+02  0.53003998165E+02  0.92610415169E+03  0.93903757430E+03  0.12700000000E+03 0.  0.
<mgrwt>
<rscale>  0 0.40882026E+03</rscale>
<asrwt>0</asrwt>
<pdfrwt beam="1">  1        2 0.16147096E+00 0.40882026E+03</pdfrwt>
<pdfrwt beam="2">  1       -2 0.52809776E-02 0.40882026E+03</pdfrwt>
<totfact> 0.44343752E+03</totfact>
</mgrwt>
</event>
<event>
 4    1  0.1351183E-004  0.6340476E+03  0.7818608E-02  0.9837182E-01
          2   -1    0    0  501    0  0.00000000000E+00  0.00000000000E+00  0.11011247850E+04  0.11011247850E+04  0.25500000000E-02 0.  1.
         -2   -1    0    0    0  501 -0.00000000000E+00 -0.00000000000E+00 -0.91274013738E+02  0.91274013774E+02  0.25500000000E-02 0. -1.
    5000001    1    1    2    0    0 -0.63659989699E+02  0.18560690265E+03  0.10213769523E+03  0.25507572481E+03  0.12700000000E+03 0.  0.
   -5000001    1    1    2    0    0  0.63659989699E+02 -0.18560690265E+03  0.90771307603E+03  0.93732307397E+03  0.12700000000E+03 0.  0.
<mgrwt>
<rscale>  0 0.63404757E+03</rscale>
<asrwt>0</asrwt>
<pdfrwt beam="1">  1        2 0.15730353E+00 0.63404757E+03</pdfrwt>
<pdfrwt beam="2">  1       -2 0.13039145E-01 0.63404757E+03</pdfrwt>
<totfact> 0.10882008E+03</totfact>
</mgrwt>
</event>
<event>
 4    1  0.1351183E-004  0.3879150E+03  0.7818608E-02  0.1048046E+00
          2   -1    0    0  501    0  0.00000000000E+00  0.00000000000E+00  0.12134406616E+03  0.12134406619E+03  0.25500000000E-02 0.  1.
         -2   -1    0    0    0  501 -0.00000000000E+00 -0.00000000000E+00 -0.31002354138E+03  0.31002354139E+03  0.25500000000E-02 0. -1.
    5000001    1    1    2    0    0  0.14491229407E+03 -0.22147207064E+02 -0.93597620050E+02  0.21535920280E+03  0.12700000000E+03 0.  0.
   -5000001    1    1    2    0    0 -0.14491229407E+03  0.22147207064E+02 -0.95081855168E+02  0.21600840478E+03  0.12700000000E+03 0.  0.
<mgrwt>
<rscale>  0 0.38791503E+03</rscale>
<asrwt>0</asrwt>
<pdfrwt beam="1">  1        2 0.17334867E-01 0.38791503E+03</pdfrwt>
<pdfrwt beam="2">  1       -2 0.44289077E-01 0.38791503E+03</pdfrwt>
<totfact> 0.16159018E+03</totfact>
</mgrwt>
</event>
<event>
 4    1  0.1351183E-004  0.3601923E+03  0.7818608E-02  0.1058508E+00
         -2   -1    0    0    0  501 -0.00000000000E+00  0.00000000000E+00  0.55321716027E+02  0.55321716086E+02  0.25500000000E-02 0. -1.
          2   -1    0    0  501    0  0.00000000000E+00 -0.00000000000E+00 -0.58629089185E+03  0.58629089186E+03  0.25500000000E-02 0.  1.
    5000001    1    1    2    0    0  0.10357273850E+03 -0.57045562999E+02 -0.35135960218E+03  0.39187252834E+03  0.12700000000E+03 0.  0.
   -5000001    1    1    2    0    0 -0.10357273850E+03  0.57045562999E+02 -0.17960957364E+03  0.24974007961E+03  0.12700000000E+03 0.  0.
<mgrwt>
<rscale>  0 0.36019227E+03</rscale>
<asrwt>0</asrwt>
<pdfrwt beam="1">  1        2 0.83755838E-01 0.36019227E+03</pdfrwt>
<pdfrwt beam="2">  1       -2 0.79031026E-02 0.36019227E+03</pdfrwt>
<totfact> 0.54731946E+03</totfact>
</mgrwt>
</event>
<event>
 4    1  0.1351183E-004  0.3824668E+03  0.7818608E-02  0.1050026E+00
          2   -1    0    0  501    0  0.00000000000E+00  0.00000000000E+00  0.66662719969E+03  0.66662719970E+03  0.25500000000E-02 0.  1.
         -2   -1    0    0    0  501 -0.00000000000E+00 -0.00000000000E+00 -0.54858569928E+02  0.54858569987E+02  0.25500000000E-02 0. -1.
    5000001    1    1    2    0    0  0.42844085717E+02  0.13436331453E+03  0.26155995633E+03  0.32315898057E+03  0.12700000000E+03 0.  0.
   -5000001    1    1    2    0    0 -0.42844085717E+02 -0.13436331453E+03  0.35020867344E+03  0.39832678911E+03  0.12700000000E+03 0.  0.
<mgrwt>
<rscale>  0 0.38246681E+03</rscale>
<asrwt>0</asrwt>
<pdfrwt beam="1">  1        2 0.95232455E-01 0.38246681E+03</pdfrwt>
<pdfrwt beam="2">  1       -2 0.78369388E-02 0.38246681E+03</pdfrwt>
<totfact> 0.47804620E+03</totfact>
</mgrwt>
</event>
<event>
 4    1  0.1351183E-004  0.4306520E+03  0.7818608E-02  0.1033654E+00
          2   -1    0    0  501    0  0.00000000000E+00  0.00000000000E+00  0.72774251281E+02  0.72774251325E+02  0.25500000000E-02 0.  1.
         -2   -1    0    0    0  501 -0.00000000000E+00 -0.00000000000E+00 -0.63711104745E+03  0.63711104746E+03  0.25500000000E-02 0. -1.
    5000001    1    1    2    0    0 -0.16841205158E+03  0.34377080550E+02 -0.23880971365E+03  0.32047383999E+03  0.12700000000E+03 0.  0.
   -5000001    1    1    2    0    0  0.16841205158E+03 -0.34377080550E+02 -0.32552708252E+03  0.38941145879E+03  0.12700000000E+03 0.  0.
<mgrwt>
<rscale>  0 0.43065197E+03</rscale>
<asrwt>0</asrwt>
<pdfrwt beam="1">  1        2 0.10396322E-01 0.43065197E+03</pdfrwt>
<pdfrwt beam="2">  1       -2 0.91015861E-01 0.43065197E+03</pdfrwt>
<totfact> 0.65513217E+02</totfact>
</mgrwt>
</event>
<event>
 4    1  0.1351183E-004  0.4502407E+03  0.7818608E-02  0.1027650E+00
          2   -1    0    0  501    0  0.00000000000E+00  0.00000000000E+00  0.11719936088E+04  0.11719936088E+04  0.25500000000E-02 0.  1.
         -2   -1    0    0    0  501 -0.00000000000E+00 -0.00000000000E+00 -0.43241853853E+02  0.43241853929E+02  0.25500000000E-02 0. -1.
    5000001    1    1    2    0    0  0.12650233339E+03  0.39389507550E+02  0.91624933267E+03  0.93444968472E+03  0.12700000000E+03 0.  0.
   -5000001    1    1    2    0    0 -0.12650233339E+03 -0.39389507550E+02  0.21250242226E+03  0.28078577799E+03  0.12700000000E+03 0.  0.
<mgrwt>
<rscale>  0 0.45024072E+03</rscale>
<asrwt>0</asrwt>
<pdfrwt beam="1">  1        2 0.16742766E+00 0.45024072E+03</pdfrwt>
<pdfrwt beam="2">  1       -2 0.61774077E-02 0.45024072E+03</pdfrwt>
<totfact> 0.32970892E+03</totfact>
</mgrwt>
</event>
<event>
 4    1  0.1351183E-004  0.3196790E+03  0.7818608E-02  0.1075797E+00
          2   -1    0    0  501    0  0.00000000000E+00  0.00000000000E+00  0.10119856773E+04  0.10119856773E+04  0.25500000000E-02 0.  1.
         -2   -1    0    0    0  501 -0.00000000000E+00 -0.00000000000E+00 -0.25246066637E+02  0.25246066766E+02  0.25500000000E-02 0. -1.
    5000001    1    1    2    0    0 -0.49706222840E+02  0.83228151116E+02  0.47814289867E+03  0.50413020667E+03  0.12700000000E+03 0.  0.
   -5000001    1    1    2    0    0  0.49706222840E+02 -0.83228151116E+02  0.50859671196E+03  0.53310153736E+03  0.12700000000E+03 0.  0.
<mgrwt>
<rscale>  0 0.31967895E+03</rscale>
<asrwt>0</asrwt>
<pdfrwt beam="1">  1        2 0.14456938E+00 0.31967895E+03</pdfrwt>
<pdfrwt beam="2">  1       -2 0.36065811E-02 0.31967895E+03</pdfrwt>
<totfact> 0.92323188E+03</totfact>
</mgrwt>
</event>
<event>
 4    1  0.1351183E-004  0.5521266E+03  0.7818608E-02  0.1001003E+00
         -2   -1    0    0    0  501 -0.00000000000E+00  0.00000000000E+00  0.18088978308E+03  0.18088978310E+03  0.25500000000E-02 0. -1.
          2   -1    0    0  501    0  0.00000000000E+00 -0.00000000000E+00 -0.42131157376E+03  0.42131157377E+03  0.25500000000E-02 0.  1.
    5000001    1    1    2    0    0  0.12040611633E+03 -0.64263534625E+02  0.10185864263E+03  0.21244203400E+03  0.12700000000E+03 0.  0.
   -5000001    1    1    2    0    0 -0.12040611633E+03  0.64263534625E+02 -0.34228043331E+03  0.38975932287E+03  0.12700000000E+03 0.  0.
<mgrwt>
<rscale>  0 0.55212665E+03</rscale>
<asrwt>0</asrwt>
<pdfrwt beam="1">  1        2 0.60187367E-01 0.55212665E+03</pdfrwt>
<pdfrwt beam="2">  1       -2 0.25841398E-01 0.55212665E+03</pdfrwt>
<totfact> 0.11019537E+03</totfact>
</mgrwt>
</event>
<event>
 4    1  0.1351183E-004  0.3829598E+03  0.7818608E-02  0.1049845E+00
         -2   -1    0    0    0  501 -0.00000000000E+00  0.00000000000E+00  0.14879495947E+03  0.14879495950E+03  0.25500000000E-02 0. -1.
          2   -1    0    0  501    0  0.00000000000E+00 -0.00000000000E+00 -0.24640996451E+03  0.24640996452E+03  0.25500000000E-02 0.  1.
    5000001    1    1    2    0    0  0.45650233024E+02  0.12135282563E+03  0.14177707128E+02  0.18204521264E+03  0.12700000000E+03 0.  0.
   -5000001    1    1    2    0    0 -0.45650233024E+02 -0.12135282563E+03 -0.11179271216E+03  0.21315971138E+03  0.12700000000E+03 0.  0.
<mgrwt>
<rscale>  0 0.38295984E+03</rscale>
<asrwt>0</asrwt>
<pdfrwt beam="1">  1        2 0.35201424E-01 0.38295984E+03</pdfrwt>
<pdfrwt beam="2">  1       -2 0.21256423E-01 0.38295984E+03</pdfrwt>
<totfact> 0.27977394E+03</totfact>
</mgrwt>
</event>
<event>
 4    1  0.1351183E-004  0.3185387E+03  0.7818608E-02  0.1076324E+00
         -2   -1    0    0    0  501 -0.00000000000E+00  0.00000000000E+00  0.24260980442E+02  0.24260980576E+02  0.25500000000E-02 0. -1.
          2   -1    0    0  501    0  0.00000000000E+00 -0.00000000000E+00 -0.10455769693E+04  0.10455769693E+04  0.25500000000E-02 0.  1.
    5000001    1    1    2    0    0 -0.30856446457E+02  0.68805530986E+02 -0.71080803703E+03  0.72599131323E+03  0.12700000000E+03 0.  0.
   -5000001    1    1    2    0    0  0.30856446457E+02 -0.68805530986E+02 -0.31050795179E+03  0.34384663661E+03  0.12700000000E+03 0.  0.
<mgrwt>
<rscale>  0 0.31853868E+03</rscale>
<asrwt>0</asrwt>
<pdfrwt beam="1">  1        2 0.14936811E+00 0.31853868E+03</pdfrwt>
<pdfrwt beam="2">  1       -2 0.34658550E-02 0.31853868E+03</pdfrwt>
<totfact> 0.93666956E+03</totfact>
</mgrwt>
</event>
<event>
 4    1  0.1351183E-004  0.3721278E+03  0.7818608E-02  0.1053882E+00
          2   -1    0    0  501    0  0.00000000000E+00  0.00000000000E+00  0.29905454910E+04  0.29905454910E+04  0.25500000000E-02 0.  1.
         -2   -1    0    0    0  501 -0.00000000000E+00 -0.00000000000E+00 -0.11576404849E+02  0.11576405130E+02  0.25500000000E-02 0. -1.
    5000001    1    1    2    0    0  0.78675909530E+02  0.11055099753E+03  0.15613455297E+04  0.15723677321E+04  0.12700000000E+03 0.  0.
   -5000001    1    1    2    0    0 -0.78675909530E+02 -0.11055099753E+03  0.14176235565E+04  0.14297541641E+04  0.12700000000E+03 0.  0.
<mgrwt>
<rscale>  0 0.37212775E+03</rscale>
<asrwt>0</asrwt>
<pdfrwt beam="1">  1        2 0.42722017E+00 0.37212775E+03</pdfrwt>
<pdfrwt beam="2">  1       -2 0.16537745E-02 0.37212775E+03</pdfrwt>
<totfact> 0.28491724E+03</totfact>
</mgrwt>
</event>
<event>
 4    1  0.1351183E-004  0.6913533E+03  0.7818608E-02  0.9732134E-01
          2   -1    0    0  501    0  0.00000000000E+00  0.00000000000E+00  0.11542201277E+03  0.11542201280E+03  0.25500000000E-02 0.  1.
         -2   -1    0    0    0  501 -0.00000000000E+00 -0.00000000000E+00 -0.10352648461E+04  0.10352648461E+04  0.25500000000E-02 0. -1.
    5000001    1    1    2    0    0  0.22901953707E+03 -0.21692841864E+03 -0.56326784992E+03  0.65795710949E+03  0.12700000000E+03 0.  0.
   -5000001    1    1    2    0    0 -0.22901953707E+03  0.21692841864E+03 -0.35657498342E+03  0.49272974943E+03  0.12700000000E+03 0.  0.
<mgrwt>
<rscale>  0 0.69135332E+03</rscale>
<asrwt>0</asrwt>
<pdfrwt beam="1">  1        2 0.16488860E-01 0.69135332E+03</pdfrwt>
<pdfrwt beam="2">  1       -2 0.14789497E+00 0.69135332E+03</pdfrwt>
<totfact> 0.11271487E+02</totfact>
</mgrwt>
</event>
<event>
 4    1  0.1351183E-004  0.5528121E+03  0.7818608E-02  0.1000845E+00
          2   -1    0    0  501    0  0.00000000000E+00  0.00000000000E+00  0.21186547577E+04  0.21186547577E+04  0.25500000000E-02 0.  1.
         -2   -1    0    0    0  501 -0.00000000000E+00 -0.00000000000E+00 -0.36060759680E+02  0.36060759770E+02  0.25500000000E-02 0. -1.
    5000001    1    1    2    0    0  0.13020059960E+03  0.13366194107E+03  0.16631488472E+04  0.16783953046E+04  0.12700000000E+03 0.  0.
   -5000001    1    1    2    0    0 -0.13020059960E+03 -0.13366194107E+03  0.41944515083E+03  0.47632021286E+03  0.12700000000E+03 0.  0.
<mgrwt>
<rscale>  0 0.55281208E+03</rscale>
<asrwt>0</asrwt>
<pdfrwt beam="1">  1        2 0.30266502E+00 0.55281208E+03</pdfrwt>
<pdfrwt beam="2">  1       -2 0.51515362E-02 0.55281208E+03</pdfrwt>
<totfact> 0.14184443E+03</totfact>
</mgrwt>
</event>
<event>
 4    1  0.1351183E-004  0.5268575E+03  0.7818608E-02  0.1006997E+00
          2   -1    0    0  501    0  0.00000000000E+00  0.00000000000E+00  0.10148432807E+04  0.10148432807E+04  0.25500000000E-02 0. -1.
         -2   -1    0    0    0  501 -0.00000000000E+00 -0.00000000000E+00 -0.68379724563E+02  0.68379724611E+02  0.25500000000E-02 0.  1.
    5000001    1    1    2    0    0  0.17206564603E+02 -0.22005092067E+03  0.33458869761E+03  0.42047243682E+03  0.12700000000E+03 0.  0.
   -5000001    1    1    2    0    0 -0.17206564603E+02  0.22005092067E+03  0.61187485855E+03  0.66275056852E+03  0.12700000000E+03 0.  0.
<mgrwt>
<rscale>  0 0.52685749E+03</rscale>
<asrwt>0</asrwt>
<pdfrwt beam="1">  1        2 0.14497761E+00 0.52685749E+03</pdfrwt>
<pdfrwt beam="2">  1       -2 0.97685325E-02 0.52685749E+03</pdfrwt>
<totfact> 0.19673933E+03</totfact>
</mgrwt>
</event>
<event>
 4    1  0.1351183E-004  0.3589409E+03  0.7818608E-02  0.1059004E+00
          2   -1    0    0  501    0  0.00000000000E+00  0.00000000000E+00  0.21319540862E+04  0.21319540862E+04  0.25500000000E-02 0.  1.
         -2   -1    0    0    0  501 -0.00000000000E+00 -0.00000000000E+00 -0.15108040713E+02  0.15108040929E+02  0.25500000000E-02 0. -1.
    5000001    1    1    2    0    0 -0.88052036139E+01 -0.10075719297E+03  0.15159751654E+04  0.15246439734E+04  0.12700000000E+03 0.  0.
   -5000001    1    1    2    0    0  0.88052036139E+01  0.10075719297E+03  0.60087088012E+03  0.62241815375E+03  0.12700000000E+03 0.  0.
<mgrwt>
<rscale>  0 0.35894094E+03</rscale>
<asrwt>0</asrwt>
<pdfrwt beam="1">  1        2 0.30456467E+00 0.35894094E+03</pdfrwt>
<pdfrwt beam="2">  1       -2 0.21582930E-02 0.35894094E+03</pdfrwt>
<totfact> 0.52608543E+03</totfact>
</mgrwt>
</event>
<event>
 4    1  0.1351183E-004  0.4098314E+03  0.7818608E-02  0.1040428E+00
         -2   -1    0    0    0  501 -0.00000000000E+00  0.00000000000E+00  0.10150667202E+03  0.10150667205E+03  0.25500000000E-02 0.  1.
          2   -1    0    0  501    0  0.00000000000E+00 -0.00000000000E+00 -0.41367185233E+03  0.41367185234E+03  0.25500000000E-02 0. -1.
    5000001    1    1    2    0    0 -0.13293304790E+03  0.36668656182E+02 -0.52076115770E+02  0.19456800200E+03  0.12700000000E+03 0.  0.
   -5000001    1    1    2    0    0  0.13293304790E+03 -0.36668656182E+02 -0.26008906454E+03  0.32061052238E+03  0.12700000000E+03 0.  0.
<mgrwt>
<rscale>  0 0.40983144E+03</rscale>
<asrwt>0</asrwt>
<pdfrwt beam="1">  1        2 0.59095978E-01 0.40983144E+03</pdfrwt>
<pdfrwt beam="2">  1       -2 0.14500953E-01 0.40983144E+03</pdfrwt>
<totfact> 0.30448708E+03</totfact>
</mgrwt>
</event>
<event>
 4    1  0.1351183E-004  0.3180715E+03  0.7818608E-02  0.1076540E+00
         -2   -1    0    0    0  501 -0.00000000000E+00  0.00000000000E+00  0.78629171153E+02  0.78629171194E+02  0.25500000000E-02 0. -1.
          2   -1    0    0  501    0  0.00000000000E+00 -0.00000000000E+00 -0.32166650566E+03  0.32166650567E+03  0.25500000000E-02 0.  1.
    5000001    1    1    2    0    0  0.59801482189E+02 -0.66503014584E+02 -0.16446502629E+03  0.22622248582E+03  0.12700000000E+03 0.  0.
   -5000001    1    1    2    0    0 -0.59801482189E+02  0.66503014584E+02 -0.78572308223E+02  0.17407319104E+03  0.12700000000E+03 0.  0.
<mgrwt>
<rscale>  0 0.31807151E+03</rscale>
<asrwt>0</asrwt>
<pdfrwt beam="1">  1        2 0.45952357E-01 0.31807151E+03</pdfrwt>
<pdfrwt beam="2">  1       -2 0.11232739E-01 0.31807151E+03</pdfrwt>
<totfact> 0.60449850E+03</totfact>
</mgrwt>
</event>
<event>
 4    1  0.1351183E-004  0.5315138E+03  0.7818608E-02  0.1005866E+00
          2   -1    0    0  501    0  0.00000000000E+00  0.00000000000E+00  0.88395739096E+03  0.88395739097E+03  0.25500000000E-02 0.  1.
         -2   -1    0    0    0  501 -0.00000000000E+00 -0.00000000000E+00 -0.79898347259E+02  0.79898347299E+02  0.25500000000E-02 0. -1.
    5000001    1    1    2    0    0  0.12028537934E+03  0.17714087386E+03  0.23336941033E+03  0.34122975156E+03  0.12700000000E+03 0.  0.
   -5000001    1    1    2    0    0 -0.12028537934E+03 -0.17714087386E+03  0.57068963338E+03  0.62262598670E+03  0.12700000000E+03 0.  0.
<mgrwt>
<rscale>  0 0.53151382E+03</rscale>
<asrwt>0</asrwt>
<pdfrwt beam="1">  1        2 0.12627962E+00 0.53151382E+03</pdfrwt>
<pdfrwt beam="2">  1       -2 0.11414050E-01 0.53151382E+03</pdfrwt>
<totfact> 0.18442138E+03</totfact>
</mgrwt>
</event>
<event>
 4    1  0.1351183E-004  0.3642403E+03  0.7818608E-02  0.1056917E+00
          2   -1    0    0  501    0  0.00000000000E+00  0.00000000000E+00  0.40427028348E+03  0.40427028349E+03  0.25500000000E-02 0.  1.
         -2   -1    0    0    0  501 -0.00000000000E+00 -0.00000000000E+00 -0.82043514739E+02  0.82043514779E+02  0.25500000000E-02 0. -1.
    5000001    1    1    2    0    0 -0.17015562943E+02  0.12937447183E+03  0.16563549423E+03  0.24615320492E+03  0.12700000000E+03 0.  0.
   -5000001    1    1    2    0    0  0.17015562943E+02 -0.12937447183E+03  0.15659127451E+03  0.24016059335E+03  0.12700000000E+03 0.  0.
<mgrwt>
<rscale>  0 0.36424033E+03</rscale>
<asrwt>0</asrwt>
<pdfrwt beam="1">  1        2 0.57752898E-01 0.36424033E+03</pdfrwt>
<pdfrwt beam="2">  1       -2 0.11720502E-01 0.36424033E+03</pdfrwt>
<totfact> 0.44189468E+03</totfact>
</mgrwt>
</event>
<event>
 4    1  0.1351183E-004  0.4246666E+03  0.7818608E-02  0.1035558E+00
         -2   -1    0    0    0  501 -0.00000000000E+00  0.00000000000E+00  0.38116820176E+02  0.38116820261E+02  0.25500000000E-02 0. -1.
          2   -1    0    0  501    0  0.00000000000E+00 -0.00000000000E+00 -0.11828222080E+04  0.11828222080E+04  0.25500000000E-02 0.  1.
    5000001    1    1    2    0    0 -0.60293436467E+02  0.15761561018E+03 -0.50946571305E+03  0.55150910403E+03  0.12700000000E+03 0.  0.
   -5000001    1    1    2    0    0  0.60293436467E+02 -0.15761561018E+03 -0.63523967476E+03  0.66942992422E+03  0.12700000000E+03 0.  0.
<mgrwt>
<rscale>  0 0.42466656E+03</rscale>
<asrwt>0</asrwt>
<pdfrwt beam="1">  1        2 0.16897458E+00 0.42466656E+03</pdfrwt>
<pdfrwt beam="2">  1       -2 0.54452608E-02 0.42466656E+03</pdfrwt>
<totfact> 0.39532989E+03</totfact>
</mgrwt>
</event>
<event>
 4    1  0.1351183E-004  0.3451450E+03  0.7818608E-02  0.1064626E+00
          2   -1    0    0  501    0  0.00000000000E+00  0.00000000000E+00  0.82032961832E+03  0.82032961832E+03  0.25500000000E-02 0.  1.
         -2   -1    0    0    0  501 -0.00000000000E+00 -0.00000000000E+00 -0.36304032111E+02  0.36304032200E+02  0.25500000000E-02 0. -1.
    5000001    1    1    2    0    0 -0.11847109933E+02  0.10172548065E+03  0.53161784524E+03  0.55608898641E+03  0.12700000000E+03 0.  0.
   -5000001    1    1    2    0    0  0.11847109933E+02 -0.10172548065E+03  0.25240774097E+03  0.30054466411E+03  0.12700000000E+03 0.  0.
<mgrwt>
<rscale>  0 0.34514503E+03</rscale>
<asrwt>0</asrwt>
<pdfrwt beam="1">  1        2 0.11718993E+00 0.34514503E+03</pdfrwt>
<pdfrwt beam="2">  1       -2 0.51862912E-02 0.34514503E+03</pdfrwt>
<totfact> 0.70253397E+03</totfact>
</mgrwt>
</event>
<event>
 4    1  0.1351183E-004  0.5083704E+03  0.7818608E-02  0.1011617E+00
          2   -1    0    0  501    0  0.00000000000E+00  0.00000000000E+00  0.15406726481E+04  0.15406726481E+04  0.25500000000E-02 0.  1.
         -2   -1    0    0    0  501 -0.00000000000E+00 -0.00000000000E+00 -0.41936299639E+02  0.41936299717E+02  0.25500000000E-02 0. -1.
    5000001    1    1    2    0    0  0.66915273428E+01 -0.21831476540E+03  0.66270326905E+03  0.70923249794E+03  0.12700000000E+03 0.  0.
   -5000001    1    1    2    0    0 -0.66915273428E+01  0.21831476540E+03  0.83603307943E+03  0.87337644990E+03  0.12700000000E+03 0.  0.
<mgrwt>
<rscale>  0 0.50837038E+03</rscale>
<asrwt>0</asrwt>
<pdfrwt beam="1">  1        2 0.22009612E+00 0.50837038E+03</pdfrwt>
<pdfrwt beam="2">  1       -2 0.59908993E-02 0.50837038E+03</pdfrwt>
<totfact> 0.21975956E+03</totfact>
</mgrwt>
</event>
<event>
 4    1  0.1351183E-004  0.2900863E+03  0.7818608E-02  0.1090304E+00
         -2   -1    0    0    0  501 -0.00000000000E+00  0.00000000000E+00  0.27526871354E+02  0.27526871472E+02  0.25500000000E-02 0. -1.
          2   -1    0    0  501    0  0.00000000000E+00 -0.00000000000E+00 -0.76425359447E+03  0.76425359448E+03  0.25500000000E-02 0.  1.
    5000001    1    1    2    0    0 -0.10248782802E+02 -0.17960851483E+02 -0.55107209435E+03  0.56589493981E+03  0.12700000000E+03 0.  0.
   -5000001    1    1    2    0    0  0.10248782802E+02  0.17960851483E+02 -0.18565462877E+03  0.22588552614E+03  0.12700000000E+03 0.  0.
<mgrwt>
<rscale>  0 0.29008627E+03</rscale>
<asrwt>0</asrwt>
<pdfrwt beam="1">  1        2 0.10917907E+00 0.29008627E+03</pdfrwt>
<pdfrwt beam="2">  1       -2 0.39324107E-02 0.29008627E+03</pdfrwt>
<totfact> 0.11615235E+04</totfact>
</mgrwt>
</event>
<event>
 4    1  0.1351183E-004  0.3361351E+03  0.7818608E-02  0.1068454E+00
         -2   -1    0    0    0  501 -0.00000000000E+00  0.00000000000E+00  0.67139837314E+02  0.67139837362E+02  0.25500000000E-02 0.  1.
          2   -1    0    0  501    0  0.00000000000E+00 -0.00000000000E+00 -0.42071439472E+03  0.42071439472E+03  0.25500000000E-02 0. -1.
    5000001    1    1    2    0    0  0.31975651523E+02  0.54147029362E+02 -0.45654718612E+02  0.14888820105E+03  0.12700000000E+03 0.  0.
   -5000001    1    1    2    0    0 -0.31975651523E+02 -0.54147029362E+02 -0.30791983879E+03  0.33896603104E+03  0.12700000000E+03 0.  0.
<mgrwt>
<rscale>  0 0.33613507E+03</rscale>
<asrwt>0</asrwt>
<pdfrwt beam="1">  1        2 0.60102055E-01 0.33613507E+03</pdfrwt>
<pdfrwt beam="2">  1       -2 0.95914056E-02 0.33613507E+03</pdfrwt>
<totfact> 0.58269145E+03</totfact>
</mgrwt>
</event>
<event>
 4    1  0.1351183E-004  0.3189492E+03  0.7818608E-02  0.1076134E+00
         -2   -1    0    0    0  501 -0.00000000000E+00  0.00000000000E+00  0.60215383647E+02  0.60215383701E+02  0.25500000000E-02 0. -1.
          2   -1    0    0  501    0  0.00000000000E+00 -0.00000000000E+00 -0.42235311254E+03  0.42235311254E+03  0.25500000000E-02 0.  1.
    5000001    1    1    2    0    0 -0.75444325843E+02 -0.48289335573E+02 -0.23518774379E+03  0.28189711077E+03  0.12700000000E+03 0.  0.
   -5000001    1    1    2    0    0  0.75444325843E+02  0.48289335573E+02 -0.12694998510E+03  0.20067138548E+03  0.12700000000E+03 0.  0.
<mgrwt>
<rscale>  0 0.31894924E+03</rscale>
<asrwt>0</asrwt>
<pdfrwt beam="1">  1        2 0.60336157E-01 0.31894924E+03</pdfrwt>
<pdfrwt beam="2">  1       -2 0.86021979E-02 0.31894924E+03</pdfrwt>
<totfact> 0.68830817E+03</totfact>
</mgrwt>
</event>
<event>
 4    1  0.1351183E-004  0.5537707E+03  0.7818608E-02  0.1000625E+00
          2   -1    0    0  501    0  0.00000000000E+00  0.00000000000E+00  0.14446817523E+04  0.14446817523E+04  0.25500000000E-02 0.  1.
         -2   -1    0    0    0  501 -0.00000000000E+00 -0.00000000000E+00 -0.53067394624E+02  0.53067394685E+02  0.25500000000E-02 0. -1.
    5000001    1    1    2    0    0  0.93092445762E+02 -0.22492381570E+03  0.59905935697E+03  0.65898257906E+03  0.12700000000E+03 0.  0.
   -5000001    1    1    2    0    0 -0.93092445762E+02  0.22492381570E+03  0.79255500067E+03  0.83876656789E+03  0.12700000000E+03 0.  0.
<mgrwt>
<rscale>  0 0.55377070E+03</rscale>
<asrwt>0</asrwt>
<pdfrwt beam="1">  1        2 0.20638311E+00 0.55377070E+03</pdfrwt>
<pdfrwt beam="2">  1       -2 0.75810563E-02 0.55377070E+03</pdfrwt>
<totfact> 0.17004233E+03</totfact>
</mgrwt>
</event>
<event>
 4    1  0.1351183E-004  0.3626277E+03  0.7818608E-02  0.1057548E+00
         -2   -1    0    0    0  501 -0.00000000000E+00  0.00000000000E+00  0.25374186040E+03  0.25374186041E+03  0.25500000000E-02 0. -1.
          2   -1    0    0  501    0  0.00000000000E+00 -0.00000000000E+00 -0.12955966949E+03  0.12955966951E+03  0.25500000000E-02 0.  1.
    5000001    1    1    2    0    0  0.69710985029E+02  0.63934703810E+01 -0.52949476204E+02  0.15437987216E+03  0.12700000000E+03 0.  0.
   -5000001    1    1    2    0    0 -0.69710985029E+02 -0.63934703810E+01  0.17713166712E+03  0.22892165776E+03  0.12700000000E+03 0.  0.
<mgrwt>
<rscale>  0 0.36262770E+03</rscale>
<asrwt>0</asrwt>
<pdfrwt beam="1">  1        2 0.18508525E-01 0.36262770E+03</pdfrwt>
<pdfrwt beam="2">  1       -2 0.36248836E-01 0.36262770E+03</pdfrwt>
<totfact> 0.21978471E+03</totfact>
</mgrwt>
</event>
<event>
 4    1  0.1351183E-004  0.7748950E+03  0.7818608E-02  0.9597084E-01
          2   -1    0    0  501    0  0.00000000000E+00  0.00000000000E+00  0.18342410913E+04  0.18342410913E+04  0.25500000000E-02 0.  1.
         -2   -1    0    0    0  501 -0.00000000000E+00 -0.00000000000E+00 -0.81840685080E+02  0.81840685120E+02  0.25500000000E-02 0. -1.
    5000001    1    1    2    0    0  0.70178747427E+02  0.34051696865E+03  0.59308229805E+03  0.69910834267E+03  0.12700000000E+03 0.  0.
   -5000001    1    1    2    0    0 -0.70178747427E+02 -0.34051696865E+03  0.11593181082E+04  0.12169734338E+04  0.12700000000E+03 0.  0.
<mgrwt>
<rscale>  0 0.77489495E+03</rscale>
<asrwt>0</asrwt>
<pdfrwt beam="1">  1        2 0.26203442E+00 0.77489495E+03</pdfrwt>
<pdfrwt beam="2">  1       -2 0.11691527E-01 0.77489495E+03</pdfrwt>
<totfact> 0.52671895E+02</totfact>
</mgrwt>
</event>
<event>
 4    1  0.1351183E-004  0.4185864E+03  0.7818608E-02  0.1037527E+00
         -2   -1    0    0    0  501 -0.00000000000E+00  0.00000000000E+00  0.10014474667E+03  0.10014474670E+03  0.25500000000E-02 0. -1.
          2   -1    0    0  501    0  0.00000000000E+00 -0.00000000000E+00 -0.43740322841E+03  0.43740322842E+03  0.25500000000E-02 0.  1.
    5000001    1    1    2    0    0  0.14744709687E+03 -0.15692921516E+02 -0.71778864630E+02  0.20800990257E+03  0.12700000000E+03 0.  0.
   -5000001    1    1    2    0    0 -0.14744709687E+03  0.15692921516E+02 -0.26547961711E+03  0.32953807255E+03  0.12700000000E+03 0.  0.
<mgrwt>
<rscale>  0 0.41858636E+03</rscale>
<asrwt>0</asrwt>
<pdfrwt beam="1">  1        2 0.62486175E-01 0.41858636E+03</pdfrwt>
<pdfrwt beam="2">  1       -2 0.14306393E-01 0.41858636E+03</pdfrwt>
<totfact> 0.29291254E+03</totfact>
</mgrwt>
</event>
<event>
 4    1  0.1351183E-004  0.4927618E+03  0.7818608E-02  0.1015686E+00
          2   -1    0    0  501    0  0.00000000000E+00  0.00000000000E+00  0.52131762554E+03  0.52131762554E+03  0.25500000000E-02 0.  1.
         -2   -1    0    0    0  501 -0.00000000000E+00 -0.00000000000E+00 -0.11644251782E+03  0.11644251785E+03  0.25500000000E-02 0. -1.
    5000001    1    1    2    0    0 -0.20615588542E+03  0.72985745126E+01  0.14425329064E+03  0.28194242346E+03  0.12700000000E+03 0.  0.
   -5000001    1    1    2    0    0  0.20615588542E+03 -0.72985745126E+01  0.26062181708E+03  0.35581771994E+03  0.12700000000E+03 0.  0.
<mgrwt>
<rscale>  0 0.49276176E+03</rscale>
<asrwt>0</asrwt>
<pdfrwt beam="1">  1        2 0.74473947E-01 0.49276176E+03</pdfrwt>
<pdfrwt beam="2">  1       -2 0.16634645E-01 0.49276176E+03</pdfrwt>
<totfact> 0.18712507E+03</totfact>
</mgrwt>
</event>
<event>
 4    1  0.1351183E-004  0.7475723E+03  0.7818608E-02  0.9639167E-01
          2   -1    0    0  501    0  0.00000000000E+00  0.00000000000E+00  0.15501385037E+04  0.15501385037E+04  0.25500000000E-02 0.  1.
         -2   -1    0    0    0  501 -0.00000000000E+00 -0.00000000000E+00 -0.90131360505E+02  0.90131360541E+02  0.25500000000E-02 0. -1.
    5000001    1    1    2    0    0 -0.14460400362E+03 -0.29678549918E+03  0.99507703758E+03  0.10560772988E+04  0.12700000000E+03 0.  0.
   -5000001    1    1    2    0    0  0.14460400362E+03  0.29678549918E+03  0.46493010564E+03  0.58419256544E+03  0.12700000000E+03 0.  0.
<mgrwt>
<rscale>  0 0.74757232E+03</rscale>
<asrwt>0</asrwt>
<pdfrwt beam="1">  1        2 0.22144835E+00 0.74757232E+03</pdfrwt>
<pdfrwt beam="2">  1       -2 0.12875909E-01 0.74757232E+03</pdfrwt>
<totfact> 0.62911404E+02</totfact>
</mgrwt>
</event>
<event>
 4    1  0.1351183E-004  0.3832965E+03  0.7818608E-02  0.1049722E+00
          2   -1    0    0  501    0  0.00000000000E+00  0.00000000000E+00  0.14868165955E+04  0.14868165955E+04  0.25500000000E-02 0.  1.
         -2   -1    0    0    0  501 -0.00000000000E+00 -0.00000000000E+00 -0.24703142930E+02  0.24703143062E+02  0.25500000000E-02 0. -1.
    5000001    1    1    2    0    0  0.58823597733E+02 -0.10818816564E+03  0.44033016345E+03  0.47453613949E+03  0.12700000000E+03 0.  0.
   -5000001    1    1    2    0    0 -0.58823597733E+02  0.10818816564E+03  0.10217832892E+04  0.10369835991E+04  0.12700000000E+03 0.  0.
<mgrwt>
<rscale>  0 0.38329645E+03</rscale>
<asrwt>0</asrwt>
<pdfrwt beam="1">  1        2 0.21240241E+00 0.38329645E+03</pdfrwt>
<pdfrwt beam="2">  1       -2 0.35290198E-02 0.38329645E+03</pdfrwt>
<totfact> 0.52797890E+03</totfact>
</mgrwt>
</event>
<event>
 4    1  0.1351183E-004  0.2848046E+03  0.7818608E-02  0.1093093E+00
          2   -1    0    0  501    0  0.00000000000E+00  0.00000000000E+00  0.16500879496E+02  0.16500879693E+02  0.25500000000E-02 0.  1.
         -2   -1    0    0    0  501 -0.00000000000E+00 -0.00000000000E+00 -0.12289297251E+04  0.12289297251E+04  0.25500000000E-02 0. -1.
    5000001    1    1    2    0    0 -0.46312239713E+02  0.56728797139E+01 -0.41200434644E+03  0.43365145750E+03  0.12700000000E+03 0.  0.
   -5000001    1    1    2    0    0  0.46312239713E+02 -0.56728797139E+01 -0.80042449915E+03  0.81177914727E+03  0.12700000000E+03 0.  0.
<mgrwt>
<rscale>  0 0.28480464E+03</rscale>
<asrwt>0</asrwt>
<pdfrwt beam="1">  1        2 0.23572693E-02 0.28480464E+03</pdfrwt>
<pdfrwt beam="2">  1       -2 0.17556133E+00 0.28480464E+03</pdfrwt>
<totfact> 0.91119086E+02</totfact>
</mgrwt>
</event>
<event>
 4    1  0.1351183E-004  0.2940557E+03  0.7818608E-02  0.1088250E+00
          2   -1    0    0  501    0  0.00000000000E+00  0.00000000000E+00  0.90569388400E+03  0.90569388400E+03  0.25500000000E-02 0.  1.
         -2   -1    0    0    0  501 -0.00000000000E+00 -0.00000000000E+00 -0.23868093941E+02  0.23868094078E+02  0.25500000000E-02 0. -1.
    5000001    1    1    2    0    0 -0.27071522723E+02 -0.41287790645E+02  0.61551283496E+03  0.63041462467E+03  0.12700000000E+03 0.  0.
   -5000001    1    1    2    0    0  0.27071522723E+02  0.41287790645E+02  0.26631295510E+03  0.29914735341E+03  0.12700000000E+03 0.  0.
<mgrwt>
<rscale>  0 0.29405569E+03</rscale>
<asrwt>0</asrwt>
<pdfrwt beam="1">  1        2 0.12938484E+00 0.29405569E+03</pdfrwt>
<pdfrwt beam="2">  1       -2 0.34097278E-02 0.29405569E+03</pdfrwt>
<totfact> 0.11622309E+04</totfact>
</mgrwt>
</event>
<event>
 4    1  0.1351183E-004  0.5391736E+03  0.7818608E-02  0.1004031E+00
         -2   -1    0    0    0  501 -0.00000000000E+00  0.00000000000E+00  0.34464378413E+02  0.34464378508E+02  0.25500000000E-02 0. -1.
          2   -1    0    0  501    0  0.00000000000E+00 -0.00000000000E+00 -0.21087579177E+04  0.21087579177E+04  0.25500000000E-02 0.  1.
    5000001    1    1    2    0    0 -0.14454782310E+02 -0.44890833122E+02 -0.11067088745E+03  0.17493190949E+03  0.12700000000E+03 0.  0.
   -5000001    1    1    2    0    0  0.14454782310E+02  0.44890833122E+02 -0.19636226519E+04  0.19682903867E+04  0.12700000000E+03 0.  0.
<mgrwt>
<rscale>  0 0.53917356E+03</rscale>
<asrwt>0</asrwt>
<pdfrwt beam="1">  1        2 0.30125105E+00 0.53917356E+03</pdfrwt>
<pdfrwt beam="2">  1       -2 0.49234840E-02 0.53917356E+03</pdfrwt>
<totfact> 0.15400677E+03</totfact>
</mgrwt>
</event>
<event>
 4    1  0.1351183E-004  0.3698756E+03  0.7818608E-02  0.1054741E+00
          2   -1    0    0  501    0  0.00000000000E+00  0.00000000000E+00  0.29109240006E+04  0.29109240006E+04  0.25500000000E-02 0.  1.
         -2   -1    0    0    0  501 -0.00000000000E+00 -0.00000000000E+00 -0.11749532388E+02  0.11749532665E+02  0.25500000000E-02 0. -1.
    5000001    1    1    2    0    0  0.13300456245E+03  0.42244219371E+01  0.12986371193E+04  0.13116003305E+04  0.12700000000E+03 0.  0.
   -5000001    1    1    2    0    0 -0.13300456245E+03 -0.42244219371E+01  0.16005373489E+04  0.16110732028E+04  0.12700000000E+03 0.  0.
<mgrwt>
<rscale>  0 0.36987563E+03</rscale>
<asrwt>0</asrwt>
<pdfrwt beam="1">  1        2 0.41584627E+00 0.36987563E+03</pdfrwt>
<pdfrwt beam="2">  1       -2 0.16785047E-02 0.36987563E+03</pdfrwt>
<totfact> 0.30732635E+03</totfact>
</mgrwt>
</event>
<event>
 4    1  0.1351183E-004  0.2877076E+03  0.7818608E-02  0.1091552E+00
          2   -1    0    0  501    0  0.00000000000E+00  0.00000000000E+00  0.47910608557E+03  0.47910608557E+03  0.25500000000E-02 0.  1.
         -2   -1    0    0    0  501 -0.00000000000E+00 -0.00000000000E+00 -0.43192765269E+02  0.43192765345E+02  0.25500000000E-02 0. -1.
    5000001    1    1    2    0    0  0.41433249893E+02  0.48755034470E+02  0.25736126019E+03  0.29403670830E+03  0.12700000000E+03 0.  0.
   -5000001    1    1    2    0    0 -0.41433249893E+02 -0.48755034470E+02  0.17855206011E+03  0.22826214262E+03  0.12700000000E+03 0.  0.
<mgrwt>
<rscale>  0 0.28770761E+03</rscale>
<asrwt>0</asrwt>
<pdfrwt beam="1">  1        2 0.68443726E-01 0.28770761E+03</pdfrwt>
<pdfrwt beam="2">  1       -2 0.61703951E-02 0.28770761E+03</pdfrwt>
<totfact> 0.10019405E+04</totfact>
</mgrwt>
</event>
<event>
 4    1  0.1351183E-004  0.3415049E+03  0.7818608E-02  0.1066157E+00
         -2   -1    0    0    0  501 -0.00000000000E+00  0.00000000000E+00  0.53799609611E+01  0.53799615654E+01  0.25500000000E-02 0. -1.
          2   -1    0    0  501    0  0.00000000000E+00 -0.00000000000E+00 -0.54194428229E+04  0.54194428229E+04  0.25500000000E-02 0.  1.
    5000001    1    1    2    0    0 -0.57620998070E+02  0.97630137505E+02 -0.24965504090E+04  0.25023478511E+04  0.12700000000E+03 0.  0.
   -5000001    1    1    2    0    0  0.57620998070E+02 -0.97630137505E+02 -0.29175124529E+04  0.29224749334E+04  0.12700000000E+03 0.  0.
<mgrwt>
<rscale>  0 0.34150486E+03</rscale>
<asrwt>0</asrwt>
<pdfrwt beam="1">  1        2 0.77420262E+00 0.34150486E+03</pdfrwt>
<pdfrwt beam="2">  1       -2 0.76856937E-03 0.34150486E+03</pdfrwt>
<totfact> 0.14067659E+02</totfact>
</mgrwt>
</event>
<event>
 4    1  0.1351183E-004  0.3600971E+03  0.7818608E-02  0.1058545E+00
         -2   -1    0    0    0  501 -0.00000000000E+00  0.00000000000E+00  0.48372876939E+02  0.48372877006E+02  0.25500000000E-02 0. -1.
          2   -1    0    0  501    0  0.00000000000E+00 -0.00000000000E+00 -0.67015809605E+03  0.67015809606E+03  0.25500000000E-02 0.  1.
    5000001    1    1    2    0    0 -0.12755236633E+03  0.43105737055E+01 -0.30982189752E+03  0.35833893925E+03  0.12700000000E+03 0.  0.
   -5000001    1    1    2    0    0  0.12755236633E+03 -0.43105737055E+01 -0.31196332160E+03  0.36019203381E+03  0.12700000000E+03 0.  0.
<mgrwt>
<rscale>  0 0.36009707E+03</rscale>
<asrwt>0</asrwt>
<pdfrwt beam="1">  1        2 0.95736866E-01 0.36009707E+03</pdfrwt>
<pdfrwt beam="2">  1       -2 0.69104114E-02 0.36009707E+03</pdfrwt>
<totfact> 0.57779200E+03</totfact>
</mgrwt>
</event>
<event>
 4    1  0.1351183E-004  0.4660575E+03  0.7818608E-02  0.1023039E+00
          2   -1    0    0  501    0  0.00000000000E+00  0.00000000000E+00  0.52357078391E+02  0.52357078454E+02  0.25500000000E-02 0.  1.
         -2   -1    0    0    0  501 -0.00000000000E+00 -0.00000000000E+00 -0.10371547693E+04  0.10371547693E+04  0.25500000000E-02 0. -1.
    5000001    1    1    2    0    0 -0.13799721474E+03  0.86857415965E+02 -0.74402647720E+03  0.77219935299E+03  0.12700000000E+03 0.  0.
   -5000001    1    1    2    0    0  0.13799721474E+03 -0.86857415965E+02 -0.24077121372E+03  0.31731249478E+03  0.12700000000E+03 0.  0.
<mgrwt>
<rscale>  0 0.46605748E+03</rscale>
<asrwt>0</asrwt>
<pdfrwt beam="1">  1        2 0.74795832E-02 0.46605748E+03</pdfrwt>
<pdfrwt beam="2">  1       -2 0.14816496E+00 0.46605748E+03</pdfrwt>
<totfact> 0.30419083E+02</totfact>
</mgrwt>
</event>
<event>
 4    1  0.1351183E-004  0.3972503E+03  0.7818608E-02  0.1044736E+00
         -2   -1    0    0    0  501 -0.00000000000E+00  0.00000000000E+00  0.78158256439E+03  0.78158256439E+03  0.25500000000E-02 0. -1.
          2   -1    0    0  501    0  0.00000000000E+00 -0.00000000000E+00 -0.50476999542E+02  0.50476999606E+02  0.25500000000E-02 0.  1.
    5000001    1    1    2    0    0  0.76109497316E+02  0.10195648210E+03  0.18862657348E+03  0.26057007512E+03  0.12700000000E+03 0.  0.
   -5000001    1    1    2    0    0 -0.76109497316E+02 -0.10195648210E+03  0.54247899137E+03  0.57148948888E+03  0.12700000000E+03 0.  0.
<mgrwt>
<rscale>  0 0.39725026E+03</rscale>
<asrwt>0</asrwt>
<pdfrwt beam="1">  1        2 0.72110007E-02 0.39725026E+03</pdfrwt>
<pdfrwt beam="2">  1       -2 0.11165464E+00 0.39725026E+03</pdfrwt>
<totfact> 0.64668488E+02</totfact>
</mgrwt>
</event>
<event>
 4    1  0.1351183E-004  0.3787668E+03  0.7818608E-02  0.1051390E+00
         -2   -1    0    0    0  501 -0.00000000000E+00  0.00000000000E+00  0.14367437562E+02  0.14367437788E+02  0.25500000000E-02 0. -1.
          2   -1    0    0  501    0  0.00000000000E+00 -0.00000000000E+00 -0.24963443663E+04  0.24963443663E+04  0.25500000000E-02 0.  1.
    5000001    1    1    2    0    0 -0.97104321739E+02  0.20734866416E+02 -0.18997936538E+04  0.19066211242E+04  0.12700000000E+03 0.  0.
   -5000001    1    1    2    0    0  0.97104321739E+02 -0.20734866416E+02 -0.58218327488E+03  0.60409067990E+03  0.12700000000E+03 0.  0.
<mgrwt>
<rscale>  0 0.37876680E+03</rscale>
<asrwt>0</asrwt>
<pdfrwt beam="1">  1        2 0.35662035E+00 0.37876680E+03</pdfrwt>
<pdfrwt beam="2">  1       -2 0.20524927E-02 0.37876680E+03</pdfrwt>
<totfact> 0.37302367E+03</totfact>
</mgrwt>
</event>
<event>
 4    1  0.1351183E-004  0.3622535E+03  0.7818608E-02  0.1057695E+00
         -2   -1    0    0    0  501 -0.00000000000E+00  0.00000000000E+00  0.48936520555E+02  0.48936520621E+02  0.25500000000E-02 0. -1.
          2   -1    0    0  501    0  0.00000000000E+00 -0.00000000000E+00 -0.67039700332E+03  0.67039700333E+03  0.25500000000E-02 0.  1.
    5000001    1    1    2    0    0 -0.38862054707E+02 -0.87131481420E+02 -0.48356469806E+03  0.50898523707E+03  0.12700000000E+03 0.  0.
   -5000001    1    1    2    0    0  0.38862054707E+02  0.87131481420E+02 -0.13789578471E+03  0.21034828687E+03  0.12700000000E+03 0.  0.
<mgrwt>
<rscale>  0 0.36225348E+03</rscale>
<asrwt>0</asrwt>
<pdfrwt beam="1">  1        2 0.95770995E-01 0.36225348E+03</pdfrwt>
<pdfrwt beam="2">  1       -2 0.69909319E-02 0.36225348E+03</pdfrwt>
<totfact> 0.56728512E+03</totfact>
</mgrwt>
</event>
<event>
 4    1  0.1351183E-004  0.4857259E+03  0.7818608E-02  0.1017573E+00
         -2   -1    0    0    0  501 -0.00000000000E+00  0.00000000000E+00  0.86751100552E+02  0.86751100589E+02  0.25500000000E-02 0. -1.
          2   -1    0    0  501    0  0.00000000000E+00 -0.00000000000E+00 -0.67990399035E+03  0.67990399036E+03  0.25500000000E-02 0.  1.
    5000001    1    1    2    0    0  0.18459107138E+03  0.74404688707E+02 -0.38646731030E+03  0.45287515197E+03  0.12700000000E+03 0.  0.
   -5000001    1    1    2    0    0 -0.18459107138E+03 -0.74404688707E+02 -0.20668557950E+03  0.31377993898E+03  0.12700000000E+03 0.  0.
<mgrwt>
<rscale>  0 0.48572593E+03</rscale>
<asrwt>0</asrwt>
<pdfrwt beam="1">  1        2 0.97129139E-01 0.48572593E+03</pdfrwt>
<pdfrwt beam="2">  1       -2 0.12393015E-01 0.48572593E+03</pdfrwt>
<totfact> 0.22421714E+03</totfact>
</mgrwt>
</event>
<event>
 4    1  0.1351183E-004  0.3962164E+03  0.7818608E-02  0.1045098E+00
         -2   -1    0    0    0  501 -0.00000000000E+00  0.00000000000E+00  0.30143021562E+02  0.30143021669E+02  0.25500000000E-02 0. -1.
          2   -1    0    0  501    0  0.00000000000E+00 -0.00000000000E+00 -0.13020216314E+04  0.13020216314E+04  0.25500000000E-02 0.  1.
    5000001    1    1    2    0    0 -0.14090916142E+03 -0.54350067437E+02 -0.57688053746E+03  0.60969621625E+03  0.12700000000E+03 0.  0.
   -5000001    1    1    2    0    0  0.14090916142E+03  0.54350067437E+02 -0.69499807239E+03  0.72246843684E+03  0.12700000000E+03 0.  0.
<mgrwt>
<rscale>  0 0.39621644E+03</rscale>
<asrwt>0</asrwt>
<pdfrwt beam="1">  1        2 0.18600306E+00 0.39621644E+03</pdfrwt>
<pdfrwt beam="2">  1       -2 0.43061467E-02 0.39621644E+03</pdfrwt>
<totfact> 0.48776295E+03</totfact>
</mgrwt>
</event>
<event>
 4    1  0.1351183E-004  0.4720436E+03  0.7818608E-02  0.1021345E+00
         -2   -1    0    0    0  501 -0.00000000000E+00  0.00000000000E+00  0.22722335628E+02  0.22722335771E+02  0.25500000000E-02 0. -1.
          2   -1    0    0  501    0  0.00000000000E+00 -0.00000000000E+00 -0.24516091279E+04  0.24516091279E+04  0.25500000000E-02 0.  1.
    5000001    1    1    2    0    0  0.32392846935E+02 -0.18594265512E+03 -0.88486657464E+03  0.91364206473E+03  0.12700000000E+03 0.  0.
   -5000001    1    1    2    0    0 -0.32392846935E+02  0.18594265512E+03 -0.15440202177E+04  0.15606893990E+04  0.12700000000E+03 0.  0.
<mgrwt>
<rscale>  0 0.47204358E+03</rscale>
<asrwt>0</asrwt>
<pdfrwt beam="1">  1        2 0.35022971E+00 0.47204358E+03</pdfrwt>
<pdfrwt beam="2">  1       -2 0.32460495E-02 0.47204358E+03</pdfrwt>
<totfact> 0.19659897E+03</totfact>
</mgrwt>
</event>
<event>
 4    1  0.1351183E-004  0.3089656E+03  0.7818608E-02  0.1080843E+00
         -2   -1    0    0    0  501 -0.00000000000E+00  0.00000000000E+00  0.81304818406E+01  0.81304822405E+01  0.25500000000E-02 0. -1.
          2   -1    0    0  501    0  0.00000000000E+00 -0.00000000000E+00 -0.29352426411E+04  0.29352426411E+04  0.25500000000E-02 0.  1.
    5000001    1    1    2    0    0  0.44033183891E+02  0.58086051851E+02 -0.19324928507E+04  0.19380326438E+04  0.12700000000E+03 0.  0.
   -5000001    1    1    2    0    0 -0.44033183891E+02 -0.58086051851E+02 -0.99461930859E+03  0.10053404795E+04  0.12700000000E+03 0.  0.
<mgrwt>
<rscale>  0 0.30896561E+03</rscale>
<asrwt>0</asrwt>
<pdfrwt beam="1">  1        2 0.41931970E+00 0.30896561E+03</pdfrwt>
<pdfrwt beam="2">  1       -2 0.11614993E-02 0.30896561E+03</pdfrwt>
<totfact> 0.51434752E+03</totfact>
</mgrwt>
</event>
<event>
 4    1  0.1351183E-004  0.5072320E+03  0.7818608E-02  0.1011908E+00
          2   -1    0    0  501    0  0.00000000000E+00  0.00000000000E+00  0.73956614870E+03  0.73956614871E+03  0.25500000000E-02 0.  1.
         -2   -1    0    0    0  501 -0.00000000000E+00 -0.00000000000E+00 -0.86971354705E+02  0.86971354743E+02  0.25500000000E-02 0. -1.
    5000001    1    1    2    0    0  0.15679944244E+03  0.15234118176E+03  0.35881284112E+03  0.43894140357E+03  0.12700000000E+03 0.  0.
   -5000001    1    1    2    0    0 -0.15679944244E+03 -0.15234118176E+03  0.29378195287E+03  0.38759609988E+03  0.12700000000E+03 0.  0.
<mgrwt>
<rscale>  0 0.50723198E+03</rscale>
<asrwt>0</asrwt>
<pdfrwt beam="1">  1        2 0.10565231E+00 0.50723198E+03</pdfrwt>
<pdfrwt beam="2">  1       -2 0.12424479E-01 0.50723198E+03</pdfrwt>
<totfact> 0.20152877E+03</totfact>
</mgrwt>
</event>
<event>
 4    1  0.1351183E-004  0.3285341E+03  0.7818608E-02  0.1071787E+00
          2   -1    0    0  501    0  0.00000000000E+00  0.00000000000E+00  0.84010883363E+03  0.84010883363E+03  0.25500000000E-02 0.  1.
         -2   -1    0    0    0  501 -0.00000000000E+00 -0.00000000000E+00 -0.32119253684E+02  0.32119253785E+02  0.25500000000E-02 0. -1.
    5000001    1    1    2    0    0 -0.98915887084E+02  0.16376115561E+02  0.47918726269E+03  0.50576868488E+03  0.12700000000E+03 0.  0.
   -5000001    1    1    2    0    0  0.98915887084E+02 -0.16376115561E+02  0.32880231726E+03  0.36645940254E+03  0.12700000000E+03 0.  0.
<mgrwt>
<rscale>  0 0.32853413E+03</rscale>
<asrwt>0</asrwt>
<pdfrwt beam="1">  1        2 0.12001552E+00 0.32853413E+03</pdfrwt>
<pdfrwt beam="2">  1       -2 0.45884659E-02 0.32853413E+03</pdfrwt>
<totfact> 0.82072510E+03</totfact>
</mgrwt>
</event>
<event>
 4    1  0.1351183E-004  0.3960092E+03  0.7818608E-02  0.1045170E+00
         -2   -1    0    0    0  501 -0.00000000000E+00  0.00000000000E+00  0.41626790313E+03  0.41626790314E+03  0.25500000000E-02 0. -1.
          2   -1    0    0  501    0  0.00000000000E+00 -0.00000000000E+00 -0.94184087970E+02  0.94184088005E+02  0.25500000000E-02 0.  1.
    5000001    1    1    2    0    0  0.18718348185E+02 -0.15055947829E+03  0.15120160290E+03  0.24901698292E+03  0.12700000000E+03 0.  0.
   -5000001    1    1    2    0    0 -0.18718348185E+02  0.15055947829E+03  0.17088221226E+03  0.26143500823E+03  0.12700000000E+03 0.  0.
<mgrwt>
<rscale>  0 0.39600916E+03</rscale>
<asrwt>0</asrwt>
<pdfrwt beam="1">  1        2 0.13454869E-01 0.39600916E+03</pdfrwt>
<pdfrwt beam="2">  1       -2 0.59466845E-01 0.39600916E+03</pdfrwt>
<totfact> 0.12062913E+03</totfact>
</mgrwt>
</event>
<event>
 4    1  0.1351183E-004  0.3298451E+03  0.7818608E-02  0.1071205E+00
         -2   -1    0    0    0  501 -0.00000000000E+00  0.00000000000E+00  0.65288394872E+02  0.65288394922E+02  0.25500000000E-02 0. -1.
          2   -1    0    0  501    0  0.00000000000E+00 -0.00000000000E+00 -0.41660464063E+03  0.41660464063E+03  0.25500000000E-02 0.  1.
    5000001    1    1    2    0    0 -0.89163648032E+02  0.34304003541E+02 -0.24006555025E+03  0.28790170059E+03  0.12700000000E+03 0.  0.
   -5000001    1    1    2    0    0  0.89163648032E+02 -0.34304003541E+02 -0.11125069551E+03  0.19399133496E+03  0.12700000000E+03 0.  0.
<mgrwt>
<rscale>  0 0.32984510E+03</rscale>
<asrwt>0</asrwt>
<pdfrwt beam="1">  1        2 0.59514947E-01 0.32984510E+03</pdfrwt>
<pdfrwt beam="2">  1       -2 0.93269138E-02 0.32984510E+03</pdfrwt>
<totfact> 0.61540137E+03</totfact>
</mgrwt>
</event>
<event>
 4    1  0.1351183E-004  0.2804618E+03  0.7818608E-02  0.1095437E+00
         -2   -1    0    0    0  501 -0.00000000000E+00  0.00000000000E+00  0.11577333706E+03  0.11577333708E+03  0.25500000000E-02 0. -1.
          2   -1    0    0  501    0  0.00000000000E+00 -0.00000000000E+00 -0.16985521143E+03  0.16985521145E+03  0.25500000000E-02 0.  1.
    5000001    1    1    2    0    0 -0.34467032538E+01  0.53698977421E+02 -0.52810135216E+02  0.14769350128E+03  0.12700000000E+03 0.  0.
   -5000001    1    1    2    0    0  0.34467032538E+01 -0.53698977421E+02 -0.12717391583E+01  0.13793504725E+03  0.12700000000E+03 0.  0.
<mgrwt>
<rscale>  0 0.28046180E+03</rscale>
<asrwt>0</asrwt>
<pdfrwt beam="1">  1        2 0.24265030E-01 0.28046180E+03</pdfrwt>
<pdfrwt beam="2">  1       -2 0.16539048E-01 0.28046180E+03</pdfrwt>
<totfact> 0.64222306E+03</totfact>
</mgrwt>
</event>
<event>
 4    1  0.1351183E-004  0.4359421E+03  0.7818608E-02  0.1031999E+00
         -2   -1    0    0    0  501 -0.00000000000E+00  0.00000000000E+00  0.14583364094E+03  0.14583364097E+03  0.25500000000E-02 0. -1.
          2   -1    0    0  501    0  0.00000000000E+00 -0.00000000000E+00 -0.32579162410E+03  0.32579162411E+03  0.25500000000E-02 0.  1.
    5000001    1    1    2    0    0  0.16194002794E+03 -0.38728492074E+02 -0.15541017230E+03  0.26077919856E+03  0.12700000000E+03 0.  0.
   -5000001    1    1    2    0    0 -0.16194002794E+03  0.38728492074E+02 -0.24547810856E+02  0.21084606652E+03  0.12700000000E+03 0.  0.
<mgrwt>
<rscale>  0 0.43594210E+03</rscale>
<asrwt>0</asrwt>
<pdfrwt beam="1">  1        2 0.46541661E-01 0.43594210E+03</pdfrwt>
<pdfrwt beam="2">  1       -2 0.20833377E-01 0.43594210E+03</pdfrwt>
<totfact> 0.21390246E+03</totfact>
</mgrwt>
</event>
<event>
 4    1  0.1351183E-004  0.2992625E+03  0.7818608E-02  0.1085610E+00
          2   -1    0    0  501    0  0.00000000000E+00  0.00000000000E+00  0.15947717051E+04  0.15947717051E+04  0.25500000000E-02 0.  1.
         -2   -1    0    0    0  501 -0.00000000000E+00 -0.00000000000E+00 -0.14039320803E+02  0.14039321034E+02  0.25500000000E-02 0. -1.
    5000001    1    1    2    0    0 -0.38726021731E+01  0.72400014768E+02  0.96068635490E+03  0.97175307135E+03  0.12700000000E+03 0.  0.
   -5000001    1    1    2    0    0  0.38726021731E+01 -0.72400014768E+02  0.62004602939E+03  0.63705795478E+03  0.12700000000E+03 0.  0.
<mgrwt>
<rscale>  0 0.29926251E+03</rscale>
<asrwt>0</asrwt>
<pdfrwt beam="1">  1        2 0.22782441E+00 0.29926251E+03</pdfrwt>
<pdfrwt beam="2">  1       -2 0.20056183E-02 0.29926251E+03</pdfrwt>
<totfact> 0.10781992E+04</totfact>
</mgrwt>
</event>
<event>
 4    1  0.1351183E-004  0.2742109E+03  0.7818608E-02  0.1098893E+00
         -2   -1    0    0    0  501 -0.00000000000E+00  0.00000000000E+00  0.18263644690E+03  0.18263644692E+03  0.25500000000E-02 0. -1.
          2   -1    0    0  501    0  0.00000000000E+00 -0.00000000000E+00 -0.10292529401E+03  0.10292529404E+03  0.25500000000E-02 0.  1.
    5000001    1    1    2    0    0 -0.38699107851E+02  0.23064151289E+02  0.66187290797E+02  0.15013105437E+03  0.12700000000E+03 0.  0.
   -5000001    1    1    2    0    0  0.38699107851E+02 -0.23064151289E+02  0.13523862093E+02  0.13543068659E+03  0.12700000000E+03 0.  0.
<mgrwt>
<rscale>  0 0.27421094E+03</rscale>
<asrwt>0</asrwt>
<pdfrwt beam="1">  1        2 0.14703614E-01 0.27421094E+03</pdfrwt>
<pdfrwt beam="2">  1       -2 0.26090921E-01 0.27421094E+03</pdfrwt>
<totfact> 0.52202644E+03</totfact>
</mgrwt>
</event>
<event>
 4    1  0.1351183E-004  0.3162194E+03  0.7818608E-02  0.1077403E+00
         -2   -1    0    0    0  501 -0.00000000000E+00  0.00000000000E+00  0.32563737441E+02  0.32563737541E+02  0.25500000000E-02 0. -1.
          2   -1    0    0  501    0  0.00000000000E+00 -0.00000000000E+00 -0.76768451524E+03  0.76768451524E+03  0.25500000000E-02 0.  1.
    5000001    1    1    2    0    0  0.18893216423E+02 -0.88785108957E+02 -0.30404461041E+03  0.34177752167E+03  0.12700000000E+03 0.  0.
   -5000001    1    1    2    0    0 -0.18893216423E+02  0.88785108957E+02 -0.43107616738E+03  0.45847073111E+03  0.12700000000E+03 0.  0.
<mgrwt>
<rscale>  0 0.31621940E+03</rscale>
<asrwt>0</asrwt>
<pdfrwt beam="1">  1        2 0.10966921E+00 0.31621940E+03</pdfrwt>
<pdfrwt beam="2">  1       -2 0.46519630E-02 0.31621940E+03</pdfrwt>
<totfact> 0.89848882E+03</totfact>
</mgrwt>
</event>
<event>
 4    1  0.1351183E-004  0.3203719E+03  0.7818608E-02  0.1075478E+00
         -2   -1    0    0    0  501 -0.00000000000E+00  0.00000000000E+00  0.54315208218E+03  0.54315208219E+03  0.25500000000E-02 0. -1.
          2   -1    0    0  501    0  0.00000000000E+00 -0.00000000000E+00 -0.47241899480E+02  0.47241899548E+02  0.25500000000E-02 0.  1.
    5000001    1    1    2    0    0 -0.84457252805E+02  0.21809711727E+01  0.33809899502E+03  0.37091469992E+03  0.12700000000E+03 0.  0.
   -5000001    1    1    2    0    0  0.84457252805E+02 -0.21809711727E+01  0.15781118768E+03  0.21947928181E+03  0.12700000000E+03 0.  0.
<mgrwt>
<rscale>  0 0.32037188E+03</rscale>
<asrwt>0</asrwt>
<pdfrwt beam="1">  1        2 0.67488428E-02 0.32037188E+03</pdfrwt>
<pdfrwt beam="2">  1       -2 0.77593154E-01 0.32037188E+03</pdfrwt>
<totfact> 0.16206524E+03</totfact>
</mgrwt>
</event>
<event>
 4    1  0.1351183E-004  0.3531128E+03  0.7818608E-02  0.1061345E+00
         -2   -1    0    0    0  501 -0.00000000000E+00  0.00000000000E+00  0.35123835292E+02  0.35123835385E+02  0.25500000000E-02 0. -1.
          2   -1    0    0  501    0  0.00000000000E+00 -0.00000000000E+00 -0.88749293309E+03  0.88749293309E+03  0.25500000000E-02 0.  1.
    5000001    1    1    2    0    0 -0.88967017132E+02  0.70827850643E+02 -0.54624429315E+03  0.57222682772E+03  0.12700000000E+03 0.  0.
   -5000001    1    1    2    0    0  0.88967017132E+02 -0.70827850643E+02 -0.30612480465E+03  0.35038994076E+03  0.12700000000E+03 0.  0.
<mgrwt>
<rscale>  0 0.35311276E+03</rscale>
<asrwt>0</asrwt>
<pdfrwt beam="1">  1        2 0.12678469E+00 0.35311276E+03</pdfrwt>
<pdfrwt beam="2">  1       -2 0.50176913E-02 0.35311276E+03</pdfrwt>
<totfact> 0.66845432E+03</totfact>
</mgrwt>
</event>
<event>
 4    1  0.1351183E-004  0.4265206E+03  0.7818608E-02  0.1034965E+00
          2   -1    0    0  501    0  0.00000000000E+00  0.00000000000E+00  0.41146606660E+04  0.41146606660E+04  0.25500000000E-02 0.  1.
         -2   -1    0    0    0  501 -0.00000000000E+00 -0.00000000000E+00 -0.11053147901E+02  0.11053148196E+02  0.25500000000E-02 0. -1.
    5000001    1    1    2    0    0  0.13286687085E+03  0.66430967379E+02  0.28773706277E+04  0.28840002441E+04  0.12700000000E+03 0.  0.
   -5000001    1    1    2    0    0 -0.13286687085E+03 -0.66430967379E+02  0.12262368904E+04  0.12417135701E+04  0.12700000000E+03 0.  0.
<mgrwt>
<rscale>  0 0.42652059E+03</rscale>
<asrwt>0</asrwt>
<pdfrwt beam="1">  1        2 0.58780815E+00 0.42652059E+03</pdfrwt>
<pdfrwt beam="2">  1       -2 0.15790225E-02 0.42652059E+03</pdfrwt>
<totfact> 0.64463288E+02</totfact>
</mgrwt>
</event>
<event>
 4    1  0.1351183E-004  0.3192187E+03  0.7818608E-02  0.1076009E+00
          2   -1    0    0  501    0  0.00000000000E+00  0.00000000000E+00  0.18563457242E+03  0.18563457243E+03  0.25500000000E-02 0.  1.
         -2   -1    0    0    0  501 -0.00000000000E+00 -0.00000000000E+00 -0.13723278125E+03  0.13723278127E+03  0.25500000000E-02 0. -1.
    5000001    1    1    2    0    0  0.64728104547E+02  0.55355867278E+02  0.70463714537E+02  0.16836904296E+03  0.12700000000E+03 0.  0.
   -5000001    1    1    2    0    0 -0.64728104547E+02 -0.55355867278E+02 -0.22061923366E+02  0.15449831074E+03  0.12700000000E+03 0.  0.
<mgrwt>
<rscale>  0 0.31921873E+03</rscale>
<asrwt>0</asrwt>
<pdfrwt beam="1">  1        2 0.26519225E-01 0.31921873E+03</pdfrwt>
<pdfrwt beam="2">  1       -2 0.19604683E-01 0.31921873E+03</pdfrwt>
<totfact> 0.43801360E+03</totfact>
</mgrwt>
</event>
<event>
 4    1  0.1351183E-004  0.2965535E+03  0.7818608E-02  0.1086976E+00
          2   -1    0    0  501    0  0.00000000000E+00  0.00000000000E+00  0.26103897210E+02  0.26103897334E+02  0.25500000000E-02 0.  1.
         -2   -1    0    0    0  501 -0.00000000000E+00 -0.00000000000E+00 -0.84224957754E+03  0.84224957754E+03  0.25500000000E-02 0. -1.
    5000001    1    1    2    0    0  0.53037115951E+02  0.51003018978E+02 -0.46968609498E+03  0.49208563425E+03  0.12700000000E+03 0.  0.
   -5000001    1    1    2    0    0 -0.53037115951E+02 -0.51003018978E+02 -0.34645958535E+03  0.37626784063E+03  0.12700000000E+03 0.  0.
<mgrwt>
<rscale>  0 0.29655351E+03</rscale>
<asrwt>0</asrwt>
<pdfrwt beam="1">  1        2 0.37291287E-02 0.29655351E+03</pdfrwt>
<pdfrwt beam="2">  1       -2 0.12032135E+00 0.29655351E+03</pdfrwt>
<totfact> 0.12892787E+03</totfact>
</mgrwt>
</event>
<event>
 4    1  0.1351183E-004  0.3298049E+03  0.7818608E-02  0.1071223E+00
         -2   -1    0    0    0  501 -0.00000000000E+00  0.00000000000E+00  0.29884994171E+03  0.29884994173E+03  0.25500000000E-02 0. -1.
          2   -1    0    0  501    0  0.00000000000E+00 -0.00000000000E+00 -0.90991558244E+02  0.90991558279E+02  0.25500000000E-02 0.  1.
    5000001    1    1    2    0    0 -0.91719032915E+02 -0.43257986476E+01  0.16457963232E+03  0.22725877081E+03  0.12700000000E+03 0.  0.
   -5000001    1    1    2    0    0  0.91719032915E+02  0.43257986476E+01  0.43278751149E+02  0.16258272920E+03  0.12700000000E+03 0.  0.
<mgrwt>
<rscale>  0 0.32980492E+03</rscale>
<asrwt>0</asrwt>
<pdfrwt beam="1">  1        2 0.12998794E-01 0.32980492E+03</pdfrwt>
<pdfrwt beam="2">  1       -2 0.42692849E-01 0.32980492E+03</pdfrwt>
<totfact> 0.24414661E+03</totfact>
</mgrwt>
</event>
<event>
 4    1  0.1351183E-004  0.5962157E+03  0.7818608E-02  0.9913288E-01
          2   -1    0    0  501    0  0.00000000000E+00  0.00000000000E+00  0.12732799258E+04  0.12732799258E+04  0.25500000000E-02 0.  1.
         -2   -1    0    0    0  501 -0.00000000000E+00 -0.00000000000E+00 -0.69794783426E+02  0.69794783472E+02  0.25500000000E-02 0. -1.
    5000001    1    1    2    0    0 -0.16645610766E+03 -0.16158026187E+03  0.29185992999E+03  0.39386169595E+03  0.12700000000E+03 0.  0.
   -5000001    1    1    2    0    0  0.16645610766E+03  0.16158026187E+03  0.91162521234E+03  0.94921301328E+03  0.12700000000E+03 0.  0.
<mgrwt>
<rscale>  0 0.59621572E+03</rscale>
<asrwt>0</asrwt>
<pdfrwt beam="1">  1        2 0.18189711E+00 0.59621572E+03</pdfrwt>
<pdfrwt beam="2">  1       -2 0.99706847E-02 0.59621572E+03</pdfrwt>
<totfact> 0.13526087E+03</totfact>
</mgrwt>
</event>
<event>
 4    1  0.1351183E-004  0.4323690E+03  0.7818608E-02  0.1033114E+00
          2   -1    0    0  501    0  0.00000000000E+00  0.00000000000E+00  0.36452119183E+03  0.36452119184E+03  0.25500000000E-02 0.  1.
         -2   -1    0    0    0  501 -0.00000000000E+00 -0.00000000000E+00 -0.12821132509E+03  0.12821132512E+03  0.25500000000E-02 0. -1.
    5000001    1    1    2    0    0 -0.15332171312E+03  0.79447597879E+02  0.86179216374E+02  0.23103100627E+03  0.12700000000E+03 0.  0.
   -5000001    1    1    2    0    0  0.15332171312E+03 -0.79447597879E+02  0.15013065037E+03  0.26170151070E+03  0.12700000000E+03 0.  0.
<mgrwt>
<rscale>  0 0.43236903E+03</rscale>
<asrwt>0</asrwt>
<pdfrwt beam="1">  1        2 0.52074456E-01 0.43236903E+03</pdfrwt>
<pdfrwt beam="2">  1       -2 0.18315904E-01 0.43236903E+03</pdfrwt>
<totfact> 0.23617757E+03</totfact>
</mgrwt>
</event>
<event>
 4    1  0.1351183E-004  0.4838989E+03  0.7818608E-02  0.1018069E+00
         -2   -1    0    0    0  501 -0.00000000000E+00  0.00000000000E+00  0.45202328492E+03  0.45202328493E+03  0.25500000000E-02 0. -1.
          2   -1    0    0  501    0  0.00000000000E+00 -0.00000000000E+00 -0.12950556523E+03  0.12950556525E+03  0.25500000000E-02 0.  1.
    5000001    1    1    2    0    0 -0.64351756029E+02  0.89909916739E+02  0.37005212229E+03  0.40656182168E+03  0.12700000000E+03 0.  0.
   -5000001    1    1    2    0    0  0.64351756029E+02 -0.89909916739E+02 -0.47534402598E+02  0.17496702850E+03  0.12700000000E+03 0.  0.
<mgrwt>
<rscale>  0 0.48389888E+03</rscale>
<asrwt>0</asrwt>
<pdfrwt beam="1">  1        2 0.18500795E-01 0.48389888E+03</pdfrwt>
<pdfrwt beam="2">  1       -2 0.64574756E-01 0.48389888E+03</pdfrwt>
<totfact> 0.69391790E+02</totfact>
</mgrwt>
</event>
<event>
 4    1  0.1351183E-004  0.3581628E+03  0.7818608E-02  0.1059314E+00
         -2   -1    0    0    0  501 -0.00000000000E+00  0.00000000000E+00  0.68004085670E+02  0.68004085718E+02  0.25500000000E-02 0. -1.
          2   -1    0    0  501    0  0.00000000000E+00 -0.00000000000E+00 -0.47159153216E+03  0.47159153217E+03  0.25500000000E-02 0.  1.
    5000001    1    1    2    0    0 -0.89176611296E+02  0.87120964919E+02 -0.23187302132E+03  0.29229544736E+03  0.12700000000E+03 0.  0.
   -5000001    1    1    2    0    0  0.89176611296E+02 -0.87120964919E+02 -0.17171442517E+03  0.24730017053E+03  0.12700000000E+03 0.  0.
<mgrwt>
<rscale>  0 0.35816282E+03</rscale>
<asrwt>0</asrwt>
<pdfrwt beam="1">  1        2 0.67370217E-01 0.35816282E+03</pdfrwt>
<pdfrwt beam="2">  1       -2 0.97148696E-02 0.35816282E+03</pdfrwt>
<totfact> 0.50436582E+03</totfact>
</mgrwt>
</event>
<event>
 4    1  0.1351183E-004  0.1037457E+04  0.7818608E-02  0.9268391E-01
          2   -1    0    0  501    0  0.00000000000E+00  0.00000000000E+00  0.14842872869E+04  0.14842872869E+04  0.25500000000E-02 0.  1.
         -2   -1    0    0    0  501 -0.00000000000E+00 -0.00000000000E+00 -0.18128507900E+03  0.18128507901E+03  0.25500000000E-02 0. -1.
    5000001    1    1    2    0    0  0.29727719156E+03  0.28580562470E+03  0.11137210034E+04  0.11943877332E+04  0.12700000000E+03 0.  0.
   -5000001    1    1    2    0    0 -0.29727719156E+03 -0.28580562470E+03  0.18928120446E+03  0.47118463270E+03  0.12700000000E+03 0.  0.
<mgrwt>
<rscale>  0 0.10374568E+04</rscale>
<asrwt>0</asrwt>
<pdfrwt beam="1">  1        2 0.21204105E+00 0.10374568E+04</pdfrwt>
<pdfrwt beam="2">  1       -2 0.25897867E-01 0.10374568E+04</pdfrwt>
<totfact> 0.19933176E+02</totfact>
</mgrwt>
</event>
<event>
 4    1  0.1351183E-004  0.5899449E+03  0.7818608E-02  0.9926490E-01
         -2   -1    0    0    0  501 -0.00000000000E+00  0.00000000000E+00  0.44955540798E+02  0.44955540870E+02  0.25500000000E-02 0. -1.
          2   -1    0    0  501    0  0.00000000000E+00 -0.00000000000E+00 -0.19354399667E+04  0.19354399667E+04  0.25500000000E-02 0.  1.
    5000001    1    1    2    0    0  0.69999859060E+02  0.23703807727E+03 -0.61304793914E+03  0.67308528882E+03  0.12700000000E+03 0.  0.
   -5000001    1    1    2    0    0 -0.69999859060E+02 -0.23703807727E+03 -0.12774364868E+04  0.13073102188E+04  0.12700000000E+03 0.  0.
<mgrwt>
<rscale>  0 0.58994491E+03</rscale>
<asrwt>0</asrwt>
<pdfrwt beam="1">  1        2 0.27649137E+00 0.58994491E+03</pdfrwt>
<pdfrwt beam="2">  1       -2 0.64222213E-02 0.58994491E+03</pdfrwt>
<totfact> 0.12398830E+03</totfact>
</mgrwt>
</event>
<event>
 4    1  0.1351183E-004  0.3815472E+03  0.7818608E-02  0.1050363E+00
         -2   -1    0    0    0  501 -0.00000000000E+00  0.00000000000E+00  0.16664933503E+02  0.16664933698E+02  0.25500000000E-02 0. -1.
          2   -1    0    0  501    0  0.00000000000E+00 -0.00000000000E+00 -0.21839013498E+04  0.21839013498E+04  0.25500000000E-02 0.  1.
    5000001    1    1    2    0    0  0.44871970149E+02  0.11325984770E+03 -0.65884474826E+03  0.68194331811E+03  0.12700000000E+03 0.  0.
   -5000001    1    1    2    0    0 -0.44871970149E+02 -0.11325984770E+03 -0.15083916680E+04  0.15186229654E+04  0.12700000000E+03 0.  0.
<mgrwt>
<rscale>  0 0.38154722E+03</rscale>
<asrwt>0</asrwt>
<pdfrwt beam="1">  1        2 0.31198573E+00 0.38154722E+03</pdfrwt>
<pdfrwt beam="2">  1       -2 0.23807062E-02 0.38154722E+03</pdfrwt>
<totfact> 0.42834315E+03</totfact>
</mgrwt>
</event>
<event>
 4    1  0.1351183E-004  0.3186457E+03  0.7818608E-02  0.1076274E+00
         -2   -1    0    0    0  501 -0.00000000000E+00  0.00000000000E+00  0.17863652395E+02  0.17863652577E+02  0.25500000000E-02 0. -1.
          2   -1    0    0  501    0  0.00000000000E+00 -0.00000000000E+00 -0.14209728750E+04  0.14209728750E+04  0.25500000000E-02 0.  1.
    5000001    1    1    2    0    0 -0.84591751117E+02  0.25904376962E+02 -0.87218726485E+03  0.88581399067E+03  0.12700000000E+03 0.  0.
   -5000001    1    1    2    0    0  0.84591751117E+02 -0.25904376962E+02 -0.53092195780E+03  0.55302253695E+03  0.12700000000E+03 0.  0.
<mgrwt>
<rscale>  0 0.31864567E+03</rscale>
<asrwt>0</asrwt>
<pdfrwt beam="1">  1        2 0.20299605E+00 0.31864567E+03</pdfrwt>
<pdfrwt beam="2">  1       -2 0.25519513E-02 0.31864567E+03</pdfrwt>
<totfact> 0.92565366E+03</totfact>
</mgrwt>
</event>
<event>
 4    1  0.1351183E-004  0.6318922E+03  0.7818608E-02  0.9841363E-01
          2   -1    0    0  501    0  0.00000000000E+00  0.00000000000E+00  0.82880990782E+02  0.82880990821E+02  0.25500000000E-02 0.  1.
         -2   -1    0    0    0  501 -0.00000000000E+00 -0.00000000000E+00 -0.12044009506E+04  0.12044009506E+04  0.25500000000E-02 0. -1.
    5000001    1    1    2    0    0  0.17609700020E+03 -0.21544238106E+02 -0.95234525430E+02  0.23806075382E+03  0.12700000000E+03 0.  0.
   -5000001    1    1    2    0    0 -0.17609700020E+03  0.21544238106E+02 -0.10262854343E+04  0.10492211876E+04  0.12700000000E+03 0.  0.
<mgrwt>
<rscale>  0 0.63189222E+03</rscale>
<asrwt>0</asrwt>
<pdfrwt beam="1">  1        2 0.11840142E-01 0.63189222E+03</pdfrwt>
<pdfrwt beam="2">  1       -2 0.17205727E+00 0.63189222E+03</pdfrwt>
<totfact> 0.11273919E+02</totfact>
</mgrwt>
</event>
<event>
 4    1  0.1351183E-004  0.3150950E+03  0.7818608E-02  0.1077929E+00
         -2   -1    0    0    0  501 -0.00000000000E+00  0.00000000000E+00  0.39346635924E+02  0.39346636007E+02  0.25500000000E-02 0. -1.
          2   -1    0    0  501    0  0.00000000000E+00 -0.00000000000E+00 -0.63083433500E+03  0.63083433501E+03  0.25500000000E-02 0.  1.
    5000001    1    1    2    0    0 -0.58649021684E+02 -0.70450916590E+02 -0.33191205049E+03  0.36701178271E+03  0.12700000000E+03 0.  0.
   -5000001    1    1    2    0    0  0.58649021684E+02  0.70450916590E+02 -0.25957564859E+03  0.30316918830E+03  0.12700000000E+03 0.  0.
<mgrwt>
<rscale>  0 0.31509496E+03</rscale>
<asrwt>0</asrwt>
<pdfrwt beam="1">  1        2 0.90119185E-01 0.31509496E+03</pdfrwt>
<pdfrwt beam="2">  1       -2 0.56209484E-02 0.31509496E+03</pdfrwt>
<totfact> 0.85047496E+03</totfact>
</mgrwt>
</event>
<event>
 4    1  0.1351183E-004  0.4214072E+03  0.7818608E-02  0.1036609E+00
         -2   -1    0    0    0  501 -0.00000000000E+00  0.00000000000E+00  0.20810623140E+02  0.20810623296E+02  0.25500000000E-02 0.  1.
          2   -1    0    0  501    0  0.00000000000E+00 -0.00000000000E+00 -0.21333337189E+04  0.21333337189E+04  0.25500000000E-02 0. -1.
    5000001    1    1    2    0    0  0.29525901777E+02  0.16318162694E+03 -0.11978296609E+04  0.12159049793E+04  0.12700000000E+03 0.  0.
   -5000001    1    1    2    0    0 -0.29525901777E+02 -0.16318162694E+03 -0.91469343491E+03  0.93823936291E+03  0.12700000000E+03 0.  0.
<mgrwt>
<rscale>  0 0.42140719E+03</rscale>
<asrwt>0</asrwt>
<pdfrwt beam="1">  1        2 0.30476182E+00 0.42140719E+03</pdfrwt>
<pdfrwt beam="2">  1       -2 0.29729475E-02 0.42140719E+03</pdfrwt>
<totfact> 0.32489453E+03</totfact>
</mgrwt>
</event>
<event>
 4    1  0.1351183E-004  0.7656633E+03  0.7818608E-02  0.9611093E-01
         -2   -1    0    0    0  501 -0.00000000000E+00  0.00000000000E+00  0.52845101037E+02  0.52845101098E+02  0.25500000000E-02 0.  1.
          2   -1    0    0  501    0  0.00000000000E+00 -0.00000000000E+00 -0.27733900130E+04  0.27733900130E+04  0.25500000000E-02 0. -1.
    5000001    1    1    2    0    0 -0.35127875030E+03 -0.59446414478E+02 -0.11418829807E+04  0.12028949988E+04  0.12700000000E+03 0.  0.
   -5000001    1    1    2    0    0  0.35127875030E+03  0.59446414478E+02 -0.15786619313E+04  0.16233401153E+04  0.12700000000E+03 0.  0.
<mgrwt>
<rscale>  0 0.76566331E+03</rscale>
<asrwt>0</asrwt>
<pdfrwt beam="1">  1        2 0.39619848E+00 0.76566331E+03</pdfrwt>
<pdfrwt beam="2">  1       -2 0.75493019E-02 0.76566331E+03</pdfrwt>
<totfact> 0.35290314E+02</totfact>
</mgrwt>
</event>
<event>
 4    1  0.1351183E-004  0.3297561E+03  0.7818608E-02  0.1071245E+00
          2   -1    0    0  501    0  0.00000000000E+00  0.00000000000E+00  0.48660317891E+04  0.48660317891E+04  0.25500000000E-02 0.  1.
         -2   -1    0    0    0  501 -0.00000000000E+00 -0.00000000000E+00 -0.55866395961E+01  0.55866401781E+01  0.25500000000E-02 0. -1.
    5000001    1    1    2    0    0  0.33857934769E+02 -0.98460710400E+02  0.26467907685E+04  0.26518806994E+04  0.12700000000E+03 0.  0.
   -5000001    1    1    2    0    0 -0.33857934769E+02  0.98460710400E+02  0.22136543810E+04  0.22197377299E+04  0.12700000000E+03 0.  0.
<mgrwt>
<rscale>  0 0.32975608E+03</rscale>
<asrwt>0</asrwt>
<pdfrwt beam="1">  1        2 0.69514577E+00 0.32975608E+03</pdfrwt>
<pdfrwt beam="2">  1       -2 0.79809328E-03 0.32975608E+03</pdfrwt>
<totfact> 0.47502001E+02</totfact>
</mgrwt>
</event>
<event>
 4    1  0.1351183E-004  0.4521899E+03  0.7818608E-02  0.1027071E+00
         -2   -1    0    0    0  501 -0.00000000000E+00  0.00000000000E+00  0.63914521543E+02  0.63914521594E+02  0.25500000000E-02 0. -1.
          2   -1    0    0  501    0  0.00000000000E+00 -0.00000000000E+00 -0.79980143917E+03  0.79980143917E+03  0.25500000000E-02 0.  1.
    5000001    1    1    2    0    0  0.11889278307E+03  0.13046140373E+03 -0.48621780656E+03  0.53262785051E+03  0.12700000000E+03 0.  0.
   -5000001    1    1    2    0    0 -0.11889278307E+03 -0.13046140373E+03 -0.24966911107E+03  0.33108811025E+03  0.12700000000E+03 0.  0.
<mgrwt>
<rscale>  0 0.45218990E+03</rscale>
<asrwt>0</asrwt>
<pdfrwt beam="1">  1        2 0.11425734E+00 0.45218990E+03</pdfrwt>
<pdfrwt beam="2">  1       -2 0.91306464E-02 0.45218990E+03</pdfrwt>
<totfact> 0.30092542E+03</totfact>
</mgrwt>
</event>
<event>
 4    1  0.1351183E-004  0.3630504E+03  0.7818608E-02  0.1057383E+00
          2   -1    0    0  501    0  0.00000000000E+00  0.00000000000E+00  0.35936242337E+03  0.35936242338E+03  0.25500000000E-02 0. -1.
         -2   -1    0    0    0  501 -0.00000000000E+00 -0.00000000000E+00 -0.91694033744E+02  0.91694033780E+02  0.25500000000E-02 0.  1.
    5000001    1    1    2    0    0  0.62451922233E+02  0.11293975492E+03  0.14987806495E+03  0.23504906974E+03  0.12700000000E+03 0.  0.
   -5000001    1    1    2    0    0 -0.62451922233E+02 -0.11293975492E+03  0.11779032468E+03  0.21600738742E+03  0.12700000000E+03 0.  0.
<mgrwt>
<rscale>  0 0.36305036E+03</rscale>
<asrwt>0</asrwt>
<pdfrwt beam="1">  1        2 0.51337489E-01 0.36305036E+03</pdfrwt>
<pdfrwt beam="2">  1       -2 0.13099148E-01 0.36305036E+03</pdfrwt>
<totfact> 0.41907839E+03</totfact>
</mgrwt>
</event>
<event>
 4    1  0.1351183E-004  0.3227831E+03  0.7818608E-02  0.1074376E+00
         -2   -1    0    0    0  501 -0.00000000000E+00  0.00000000000E+00  0.17228550404E+03  0.17228550406E+03  0.25500000000E-02 0. -1.
          2   -1    0    0  501    0  0.00000000000E+00 -0.00000000000E+00 -0.15118642235E+03  0.15118642237E+03  0.25500000000E-02 0.  1.
    5000001    1    1    2    0    0 -0.89388450411E+02  0.78222219819E+01 -0.32748529203E+02  0.15891176290E+03  0.12700000000E+03 0.  0.
   -5000001    1    1    2    0    0  0.89388450411E+02 -0.78222219819E+01  0.53847610892E+02  0.16456016353E+03  0.12700000000E+03 0.  0.
<mgrwt>
<rscale>  0 0.32278308E+03</rscale>
<asrwt>0</asrwt>
<pdfrwt beam="1">  1        2 0.21598060E-01 0.32278308E+03</pdfrwt>
<pdfrwt beam="2">  1       -2 0.24612215E-01 0.32278308E+03</pdfrwt>
<totfact> 0.37188738E+03</totfact>
</mgrwt>
</event>
<event>
 4    1  0.1351183E-004  0.3682745E+03  0.7818608E-02  0.1055355E+00
          2   -1    0    0  501    0  0.00000000000E+00  0.00000000000E+00  0.13247635666E+04  0.13247635666E+04  0.25500000000E-02 0.  1.
         -2   -1    0    0    0  501 -0.00000000000E+00 -0.00000000000E+00 -0.25594394476E+02  0.25594394603E+02  0.25500000000E-02 0. -1.
    5000001    1    1    2    0    0  0.28074256873E+02 -0.11245703157E+03  0.89122016850E+03  0.90765474526E+03  0.12700000000E+03 0.  0.
   -5000001    1    1    2    0    0 -0.28074256873E+02  0.11245703157E+03  0.40794900360E+03  0.44270321592E+03  0.12700000000E+03 0.  0.
<mgrwt>
<rscale>  0 0.36827447E+03</rscale>
<asrwt>0</asrwt>
<pdfrwt beam="1">  1        2 0.18925197E+00 0.36827447E+03</pdfrwt>
<pdfrwt beam="2">  1       -2 0.36563415E-02 0.36827447E+03</pdfrwt>
<totfact> 0.60759791E+03</totfact>
</mgrwt>
</event>
<event>
 4    1  0.1351183E-004  0.3214135E+03  0.7818608E-02  0.1075001E+00
          2   -1    0    0  501    0  0.00000000000E+00  0.00000000000E+00  0.20064695567E+03  0.20064695569E+03  0.25500000000E-02 0.  1.
         -2   -1    0    0    0  501 -0.00000000000E+00 -0.00000000000E+00 -0.12871690132E+03  0.12871690134E+03  0.25500000000E-02 0. -1.
    5000001    1    1    2    0    0 -0.33027163418E+02 -0.92184401170E+02  0.46658528822E+02  0.16701729148E+03  0.12700000000E+03 0.  0.
   -5000001    1    1    2    0    0  0.33027163418E+02  0.92184401170E+02  0.25271525533E+02  0.16234656555E+03  0.12700000000E+03 0.  0.
<mgrwt>
<rscale>  0 0.32141347E+03</rscale>
<asrwt>0</asrwt>
<pdfrwt beam="1">  1        2 0.28663851E-01 0.32141347E+03</pdfrwt>
<pdfrwt beam="2">  1       -2 0.18388129E-01 0.32141347E+03</pdfrwt>
<totfact> 0.44820590E+03</totfact>
</mgrwt>
</event>
<event>
 4    1  0.1351183E-004  0.4336226E+03  0.7818608E-02  0.1032722E+00
         -2   -1    0    0    0  501 -0.00000000000E+00  0.00000000000E+00  0.31977654004E+02  0.31977654106E+02  0.25500000000E-02 0. -1.
          2   -1    0    0  501    0  0.00000000000E+00 -0.00000000000E+00 -0.14699995045E+04  0.14699995045E+04  0.25500000000E-02 0.  1.
    5000001    1    1    2    0    0 -0.49086566341E+02  0.14892637657E+03 -0.44430866925E+03  0.48798335034E+03  0.12700000000E+03 0.  0.
   -5000001    1    1    2    0    0  0.49086566341E+02 -0.14892637657E+03 -0.99371318126E+03  0.10139938083E+04  0.12700000000E+03 0.  0.
<mgrwt>
<rscale>  0 0.43362258E+03</rscale>
<asrwt>0</asrwt>
<pdfrwt beam="1">  1        2 0.20999989E+00 0.43362258E+03</pdfrwt>
<pdfrwt beam="2">  1       -2 0.45682372E-02 0.43362258E+03</pdfrwt>
<totfact> 0.36380562E+03</totfact>
</mgrwt>
</event>
<event>
 4    1  0.1351183E-004  0.3315253E+03  0.7818608E-02  0.1070464E+00
          2   -1    0    0  501    0  0.00000000000E+00  0.00000000000E+00  0.10555799643E+04  0.10555799643E+04  0.25500000000E-02 0.  1.
         -2   -1    0    0    0  501 -0.00000000000E+00 -0.00000000000E+00 -0.26030489857E+02  0.26030489982E+02  0.25500000000E-02 0. -1.
    5000001    1    1    2    0    0 -0.36217004401E+02  0.99632925663E+02  0.48057692481E+03  0.50825345246E+03  0.12700000000E+03 0.  0.
   -5000001    1    1    2    0    0  0.36217004401E+02 -0.99632925663E+02  0.54897254963E+03  0.57335700181E+03  0.12700000000E+03 0.  0.
<mgrwt>
<rscale>  0 0.33152535E+03</rscale>
<asrwt>0</asrwt>
<pdfrwt beam="1">  1        2 0.15079712E+00 0.33152535E+03</pdfrwt>
<pdfrwt beam="2">  1       -2 0.37186420E-02 0.33152535E+03</pdfrwt>
<totfact> 0.83217670E+03</totfact>
</mgrwt>
</event>
<event>
 4    1  0.1351183E-004  0.4690652E+03  0.7818608E-02  0.1022184E+00
         -2   -1    0    0    0  501 -0.00000000000E+00  0.00000000000E+00  0.11789075475E+03  0.11789075478E+03  0.25500000000E-02 0. -1.
          2   -1    0    0  501    0  0.00000000000E+00 -0.00000000000E+00 -0.46658070636E+03  0.46658070637E+03  0.25500000000E-02 0.  1.
    5000001    1    1    2    0    0 -0.69598892235E+02 -0.18133140314E+03 -0.13206292908E+03  0.26701067544E+03  0.12700000000E+03 0.  0.
   -5000001    1    1    2    0    0  0.69598892235E+02  0.18133140314E+03 -0.21662702254E+03  0.31746078570E+03  0.12700000000E+03 0.  0.
<mgrwt>
<rscale>  0 0.46906525E+03</rscale>
<asrwt>0</asrwt>
<pdfrwt beam="1">  1        2 0.66654385E-01 0.46906525E+03</pdfrwt>
<pdfrwt beam="2">  1       -2 0.16841537E-01 0.46906525E+03</pdfrwt>
<totfact> 0.20759071E+03</totfact>
</mgrwt>
</event>
<event>
 4    1  0.1351183E-004  0.3373529E+03  0.7818608E-02  0.1067929E+00
          2   -1    0    0  501    0  0.00000000000E+00  0.00000000000E+00  0.65127995839E+03  0.65127995839E+03  0.25500000000E-02 0.  1.
         -2   -1    0    0    0  501 -0.00000000000E+00 -0.00000000000E+00 -0.43685880646E+02  0.43685880720E+02  0.25500000000E-02 0. -1.
    5000001    1    1    2    0    0 -0.17937864618E+02 -0.10914599127E+03  0.28445837123E+03  0.33057552746E+03  0.12700000000E+03 0.  0.
   -5000001    1    1    2    0    0  0.17937864618E+02  0.10914599127E+03  0.32313570652E+03  0.36439031165E+03  0.12700000000E+03 0.  0.
<mgrwt>
<rscale>  0 0.33735286E+03</rscale>
<asrwt>0</asrwt>
<pdfrwt beam="1">  1        2 0.93039991E-01 0.33735286E+03</pdfrwt>
<pdfrwt beam="2">  1       -2 0.62408403E-02 0.33735286E+03</pdfrwt>
<totfact> 0.69891111E+03</totfact>
</mgrwt>
</event>
<event>
 4    1  0.1351183E-004  0.4165744E+03  0.7818608E-02  0.1038187E+00
         -2   -1    0    0    0  501 -0.00000000000E+00  0.00000000000E+00  0.40642697056E+02  0.40642697136E+02  0.25500000000E-02 0. -1.
          2   -1    0    0  501    0  0.00000000000E+00 -0.00000000000E+00 -0.10674377559E+04  0.10674377559E+04  0.25500000000E-02 0.  1.
    5000001    1    1    2    0    0  0.62081833529E+02 -0.15297140229E+03 -0.51238320370E+03  0.55310030863E+03  0.12700000000E+03 0.  0.
   -5000001    1    1    2    0    0 -0.62081833529E+02  0.15297140229E+03 -0.51441185510E+03  0.55498014437E+03  0.12700000000E+03 0.  0.
<mgrwt>
<rscale>  0 0.41657436E+03</rscale>
<asrwt>0</asrwt>
<pdfrwt beam="1">  1        2 0.15249109E+00 0.41657436E+03</pdfrwt>
<pdfrwt beam="2">  1       -2 0.58061003E-02 0.41657436E+03</pdfrwt>
<totfact> 0.41626049E+03</totfact>
</mgrwt>
</event>
<event>
 4    1  0.1351183E-004  0.3717085E+03  0.7818608E-02  0.1054042E+00
          2   -1    0    0  501    0  0.00000000000E+00  0.00000000000E+00  0.49244054300E+03  0.49244054301E+03  0.25500000000E-02 0.  1.
         -2   -1    0    0    0  501 -0.00000000000E+00 -0.00000000000E+00 -0.70144098266E+02  0.70144098312E+02  0.25500000000E-02 0. -1.
    5000001    1    1    2    0    0  0.13107367432E+03 -0.19016849801E+01  0.15809167693E+03  0.24146615253E+03  0.12700000000E+03 0.  0.
   -5000001    1    1    2    0    0 -0.13107367432E+03  0.19016849801E+01  0.26420476781E+03  0.32111848879E+03  0.12700000000E+03 0.  0.
<mgrwt>
<rscale>  0 0.37170848E+03</rscale>
<asrwt>0</asrwt>
<pdfrwt beam="1">  1        2 0.70348647E-01 0.37170848E+03</pdfrwt>
<pdfrwt beam="2">  1       -2 0.10020586E-01 0.37170848E+03</pdfrwt>
<totfact> 0.45782168E+03</totfact>
</mgrwt>
</event>
<event>
 4    1  0.1351183E-004  0.3162121E+03  0.7818608E-02  0.1077406E+00
         -2   -1    0    0    0  501 -0.00000000000E+00  0.00000000000E+00  0.35744701591E+02  0.35744701682E+02  0.25500000000E-02 0. -1.
          2   -1    0    0  501    0  0.00000000000E+00 -0.00000000000E+00 -0.69933485758E+03  0.69933485759E+03  0.25500000000E-02 0.  1.
    5000001    1    1    2    0    0  0.56526030354E+02 -0.44127767014E+02 -0.18989550977E+03  0.23944050735E+03  0.12700000000E+03 0.  0.
   -5000001    1    1    2    0    0 -0.56526030354E+02  0.44127767014E+02 -0.47369464622E+03  0.49563905191E+03  0.12700000000E+03 0.  0.
<mgrwt>
<rscale>  0 0.31621205E+03</rscale>
<asrwt>0</asrwt>
<pdfrwt beam="1">  1        2 0.99904971E-01 0.31621205E+03</pdfrwt>
<pdfrwt beam="2">  1       -2 0.51063864E-02 0.31621205E+03</pdfrwt>
<totfact> 0.87266961E+03</totfact>
</mgrwt>
</event>
<event>
 4    1  0.1351183E-004  0.5138088E+03  0.7818608E-02  0.1010236E+00
         -2   -1    0    0    0  501 -0.00000000000E+00  0.00000000000E+00  0.80226929885E+02  0.80226929925E+02  0.25500000000E-02 0. -1.
          2   -1    0    0  501    0  0.00000000000E+00 -0.00000000000E+00 -0.82266469624E+03  0.82266469624E+03  0.25500000000E-02 0.  1.
    5000001    1    1    2    0    0 -0.21790081249E+03  0.31007861633E+02 -0.30480006221E+03  0.39683035353E+03  0.12700000000E+03 0.  0.
   -5000001    1    1    2    0    0  0.21790081249E+03 -0.31007861633E+02 -0.43763770415E+03  0.50606127263E+03  0.12700000000E+03 0.  0.
<mgrwt>
<rscale>  0 0.51380877E+03</rscale>
<asrwt>0</asrwt>
<pdfrwt beam="1">  1        2 0.11752352E+00 0.51380877E+03</pdfrwt>
<pdfrwt beam="2">  1       -2 0.11460990E-01 0.51380877E+03</pdfrwt>
<totfact> 0.20117389E+03</totfact>
</mgrwt>
</event>
<event>
 4    1  0.1351183E-004  0.3935930E+03  0.7818608E-02  0.1046021E+00
         -2   -1    0    0    0  501 -0.00000000000E+00  0.00000000000E+00  0.27631290274E+02  0.27631290392E+02  0.25500000000E-02 0. -1.
          2   -1    0    0  501    0  0.00000000000E+00 -0.00000000000E+00 -0.14016305444E+04  0.14016305444E+04  0.25500000000E-02 0.  1.
    5000001    1    1    2    0    0 -0.13517140099E+03  0.64436420211E+02 -0.63875626574E+03  0.66825289144E+03  0.12700000000E+03 0.  0.
   -5000001    1    1    2    0    0  0.13517140099E+03 -0.64436420211E+02 -0.73524298843E+03  0.76100894340E+03  0.12700000000E+03 0.  0.
<mgrwt>
<rscale>  0 0.39359299E+03</rscale>
<asrwt>0</asrwt>
<pdfrwt beam="1">  1        2 0.20023289E+00 0.39359299E+03</pdfrwt>
<pdfrwt beam="2">  1       -2 0.39473281E-02 0.39359299E+03</pdfrwt>
<totfact> 0.49326172E+03</totfact>
</mgrwt>
</event>
<event>
 4    1  0.1351183E-004  0.6497390E+03  0.7818608E-02  0.9807269E-01
         -2   -1    0    0    0  501 -0.00000000000E+00  0.00000000000E+00  0.46099513265E+02  0.46099513335E+02  0.25500000000E-02 0. -1.
          2   -1    0    0  501    0  0.00000000000E+00 -0.00000000000E+00 -0.22893994271E+04  0.22893994271E+04  0.25500000000E-02 0.  1.
    5000001    1    1    2    0    0  0.22548577316E+02  0.28848501185E+03 -0.13925335713E+04  0.14279393501E+04  0.12700000000E+03 0.  0.
   -5000001    1    1    2    0    0 -0.22548577316E+02 -0.28848501185E+03 -0.85076634254E+03  0.90755959033E+03  0.12700000000E+03 0.  0.
<mgrwt>
<rscale>  0 0.64973902E+03</rscale>
<asrwt>0</asrwt>
<pdfrwt beam="1">  1        2 0.32705699E+00 0.64973902E+03</pdfrwt>
<pdfrwt beam="2">  1       -2 0.65856462E-02 0.64973902E+03</pdfrwt>
<totfact> 0.78773772E+02</totfact>
</mgrwt>
</event>
<event>
 4    1  0.1351183E-004  0.5105383E+03  0.7818608E-02  0.1011064E+00
         -2   -1    0    0    0  501 -0.00000000000E+00  0.00000000000E+00  0.97557402438E+02  0.97557402471E+02  0.25500000000E-02 0. -1.
          2   -1    0    0  501    0  0.00000000000E+00 -0.00000000000E+00 -0.66793847452E+03  0.66793847453E+03  0.25500000000E-02 0.  1.
    5000001    1    1    2    0    0  0.17994945907E+02  0.18442050874E+03 -0.10340785337E+03  0.24729926458E+03  0.12700000000E+03 0.  0.
   -5000001    1    1    2    0    0 -0.17994945907E+02 -0.18442050874E+03 -0.46697321872E+03  0.51819661242E+03  0.12700000000E+03 0.  0.
<mgrwt>
<rscale>  0 0.51053831E+03</rscale>
<asrwt>0</asrwt>
<pdfrwt beam="1">  1        2 0.95419780E-01 0.51053831E+03</pdfrwt>
<pdfrwt beam="2">  1       -2 0.13936772E-01 0.51053831E+03</pdfrwt>
<totfact> 0.18866302E+03</totfact>
</mgrwt>
</event>
<event>
 4    1  0.1351183E-004  0.7150806E+03  0.7818608E-02  0.9691784E-01
          2   -1    0    0  501    0  0.00000000000E+00  0.00000000000E+00  0.28691052054E+04  0.28691052054E+04  0.25500000000E-02 0.  1.
         -2   -1    0    0    0  501 -0.00000000000E+00 -0.00000000000E+00 -0.44555724707E+02  0.44555724780E+02  0.25500000000E-02 0. -1.
    5000001    1    1    2    0    0  0.30022137801E+03  0.14233343645E+03  0.12645530383E+04  0.13136266858E+04  0.12700000000E+03 0.  0.
   -5000001    1    1    2    0    0 -0.30022137801E+03 -0.14233343645E+03  0.15599964424E+04  0.16000342444E+04  0.12700000000E+03 0.  0.
<mgrwt>
<rscale>  0 0.71508059E+03</rscale>
<asrwt>0</asrwt>
<pdfrwt beam="1">  1        2 0.40987212E+00 0.71508059E+03</pdfrwt>
<pdfrwt beam="2">  1       -2 0.63651043E-02 0.71508059E+03</pdfrwt>
<totfact> 0.41303960E+02</totfact>
</mgrwt>
</event>
<event>
 4    1  0.1351183E-004  0.4768512E+03  0.7818608E-02  0.1020004E+00
         -2   -1    0    0    0  501 -0.00000000000E+00  0.00000000000E+00  0.66238348608E+02  0.66238348657E+02  0.25500000000E-02 0. -1.
          2   -1    0    0  501    0  0.00000000000E+00 -0.00000000000E+00 -0.85821535011E+03  0.85821535011E+03  0.25500000000E-02 0.  1.
    5000001    1    1    2    0    0 -0.94849405984E+02 -0.63770525574E+02 -0.73594773690E+02  0.18603300907E+03  0.12700000000E+03 0.  0.
   -5000001    1    1    2    0    0  0.94849405984E+02  0.63770525574E+02 -0.71838222781E+03  0.73842068970E+03  0.12700000000E+03 0.  0.
<mgrwt>
<rscale>  0 0.47685120E+03</rscale>
<asrwt>0</asrwt>
<pdfrwt beam="1">  1        2 0.12260219E+00 0.47685120E+03</pdfrwt>
<pdfrwt beam="2">  1       -2 0.94626218E-02 0.47685120E+03</pdfrwt>
<totfact> 0.25972042E+03</totfact>
</mgrwt>
</event>
<event>
 4    1  0.1351183E-004  0.2959214E+03  0.7818608E-02  0.1087297E+00
          2   -1    0    0  501    0  0.00000000000E+00  0.00000000000E+00  0.38375051519E+03  0.38375051520E+03  0.25500000000E-02 0.  1.
         -2   -1    0    0    0  501 -0.00000000000E+00 -0.00000000000E+00 -0.57048433087E+02  0.57048433144E+02  0.25500000000E-02 0. -1.
    5000001    1    1    2    0    0  0.20179559176E+02  0.53882314928E+02  0.89577700514E+02  0.16572170316E+03  0.12700000000E+03 0.  0.
   -5000001    1    1    2    0    0 -0.20179559176E+02 -0.53882314928E+02  0.23712438159E+03  0.27507724518E+03  0.12700000000E+03 0.  0.
<mgrwt>
<rscale>  0 0.29592138E+03</rscale>
<asrwt>0</asrwt>
<pdfrwt beam="1">  1        2 0.54821502E-01 0.29592138E+03</pdfrwt>
<pdfrwt beam="2">  1       -2 0.81497762E-02 0.29592138E+03</pdfrwt>
<totfact> 0.82943039E+03</totfact>
</mgrwt>
</event>
<event>
 4    1  0.1351183E-004  0.4761556E+03  0.7818608E-02  0.1020197E+00
          2   -1    0    0  501    0  0.00000000000E+00  0.00000000000E+00  0.12487690534E+04  0.12487690534E+04  0.25500000000E-02 0.  1.
         -2   -1    0    0    0  501 -0.00000000000E+00 -0.00000000000E+00 -0.45389520933E+02  0.45389521004E+02  0.25500000000E-02 0. -1.
    5000001    1    1    2    0    0  0.18510256549E+03 -0.40870721224E+02  0.78640228366E+03  0.81883510388E+03  0.12700000000E+03 0.  0.
   -5000001    1    1    2    0    0 -0.18510256549E+03  0.40870721224E+02  0.41697724876E+03  0.47532347048E+03  0.12700000000E+03 0.  0.
<mgrwt>
<rscale>  0 0.47615556E+03</rscale>
<asrwt>0</asrwt>
<pdfrwt beam="1">  1        2 0.17839557E+00 0.47615556E+03</pdfrwt>
<pdfrwt beam="2">  1       -2 0.64842176E-02 0.47615556E+03</pdfrwt>
<totfact> 0.27721068E+03</totfact>
</mgrwt>
</event>
<event>
 4    1  0.1351183E-004  0.8295659E+03  0.7818608E-02  0.9518181E-01
          2   -1    0    0  501    0  0.00000000000E+00  0.00000000000E+00  0.30495954986E+04  0.30495954986E+04  0.25500000000E-02 0.  1.
         -2   -1    0    0    0  501 -0.00000000000E+00 -0.00000000000E+00 -0.56415638906E+02  0.56415638963E+02  0.25500000000E-02 0. -1.
    5000001    1    1    2    0    0 -0.32795279776E+03 -0.21947919737E+03  0.15484328131E+04  0.16029651688E+04  0.12700000000E+03 0.  0.
   -5000001    1    1    2    0    0  0.32795279776E+03  0.21947919737E+03  0.14447470466E+04  0.15030459688E+04  0.12700000000E+03 0.  0.
<mgrwt>
<rscale>  0 0.82956586E+03</rscale>
<asrwt>0</asrwt>
<pdfrwt beam="1">  1        2 0.43565673E+00 0.82956586E+03</pdfrwt>
<pdfrwt beam="2">  1       -2 0.80593727E-02 0.82956586E+03</pdfrwt>
<totfact> 0.22385185E+02</totfact>
</mgrwt>
</event>
<event>
 4    1  0.1351183E-004  0.4804203E+03  0.7818608E-02  0.1019020E+00
         -2   -1    0    0    0  501 -0.00000000000E+00  0.00000000000E+00  0.69151915352E+02  0.69151915399E+02  0.25500000000E-02 0. -1.
          2   -1    0    0  501    0  0.00000000000E+00 -0.00000000000E+00 -0.83440795879E+03  0.83440795879E+03  0.25500000000E-02 0.  1.
    5000001    1    1    2    0    0  0.13902889581E+03 -0.13359660343E+03 -0.50731074275E+03  0.55737803691E+03  0.12700000000E+03 0.  0.
   -5000001    1    1    2    0    0 -0.13902889581E+03  0.13359660343E+03 -0.25794530068E+03  0.34618183728E+03  0.12700000000E+03 0.  0.
<mgrwt>
<rscale>  0 0.48042027E+03</rscale>
<asrwt>0</asrwt>
<pdfrwt beam="1">  1        2 0.11920113E+00 0.48042027E+03</pdfrwt>
<pdfrwt beam="2">  1       -2 0.98788456E-02 0.48042027E+03</pdfrwt>
<totfact> 0.25134260E+03</totfact>
</mgrwt>
</event>
<event>
 4    1  0.1351183E-004  0.5339413E+03  0.7818608E-02  0.1005281E+00
          2   -1    0    0  501    0  0.00000000000E+00  0.00000000000E+00  0.14914597913E+04  0.14914597913E+04  0.25500000000E-02 0.  1.
         -2   -1    0    0    0  501 -0.00000000000E+00 -0.00000000000E+00 -0.47787636843E+02  0.47787636911E+02  0.25500000000E-02 0. -1.
    5000001    1    1    2    0    0  0.57016932755E+02 -0.10560110545E+03  0.13037182797E+04  0.13153755649E+04  0.12700000000E+03 0.  0.
   -5000001    1    1    2    0    0 -0.57016932755E+02  0.10560110545E+03  0.13995387475E+03  0.22387186324E+03  0.12700000000E+03 0.  0.
<mgrwt>
<rscale>  0 0.53394134E+03</rscale>
<asrwt>0</asrwt>
<pdfrwt beam="1">  1        2 0.21306574E+00 0.53394134E+03</pdfrwt>
<pdfrwt beam="2">  1       -2 0.68268036E-02 0.53394134E+03</pdfrwt>
<totfact> 0.18977910E+03</totfact>
</mgrwt>
</event>
<event>
 4    1  0.1351183E-004  0.2665505E+03  0.7818608E-02  0.1103270E+00
         -2   -1    0    0    0  501 -0.00000000000E+00  0.00000000000E+00  0.52302081586E+01  0.52302087802E+01  0.25500000000E-02 0. -1.
          2   -1    0    0  501    0  0.00000000000E+00 -0.00000000000E+00 -0.33960973486E+04  0.33960973486E+04  0.25500000000E-02 0.  1.
    5000001    1    1    2    0    0 -0.36551795535E+02  0.28699500449E+01 -0.14784944294E+04  0.14843918109E+04  0.12700000000E+03 0.  0.
   -5000001    1    1    2    0    0  0.36551795535E+02 -0.28699500449E+01 -0.19123727110E+04  0.19169357465E+04  0.12700000000E+03 0.  0.
<mgrwt>
<rscale>  0 0.26655054E+03</rscale>
<asrwt>0</asrwt>
<pdfrwt beam="1">  1        2 0.48515535E+00 0.26655054E+03</pdfrwt>
<pdfrwt beam="2">  1       -2 0.74717481E-03 0.26655054E+03</pdfrwt>
<totfact> 0.54834212E+03</totfact>
</mgrwt>
</event>
<event>
 4    1  0.1351183E-004  0.6407608E+03  0.7818608E-02  0.9824272E-01
         -2   -1    0    0    0  501 -0.00000000000E+00  0.00000000000E+00  0.26656302039E+03  0.26656302040E+03  0.25500000000E-02 0. -1.
          2   -1    0    0  501    0  0.00000000000E+00 -0.00000000000E+00 -0.38506316040E+03  0.38506316041E+03  0.25500000000E-02 0.  1.
    5000001    1    1    2    0    0  0.19921731251E+03 -0.17853670821E+03  0.65100550765E+02  0.30319956381E+03  0.12700000000E+03 0.  0.
   -5000001    1    1    2    0    0 -0.19921731251E+03  0.17853670821E+03 -0.18360069078E+03  0.34842661700E+03  0.12700000000E+03 0.  0.
<mgrwt>
<rscale>  0 0.64076079E+03</rscale>
<asrwt>0</asrwt>
<pdfrwt beam="1">  1        2 0.55009022E-01 0.64076079E+03</pdfrwt>
<pdfrwt beam="2">  1       -2 0.38080432E-01 0.64076079E+03</pdfrwt>
<totfact> 0.59116411E+02</totfact>
</mgrwt>
</event>
<event>
 4    1  0.1351183E-004  0.4016811E+03  0.7818608E-02  0.1043199E+00
         -2   -1    0    0    0  501 -0.00000000000E+00  0.00000000000E+00  0.13669794765E+02  0.13669795003E+02  0.25500000000E-02 0. -1.
          2   -1    0    0  501    0  0.00000000000E+00 -0.00000000000E+00 -0.29508072639E+04  0.29508072639E+04  0.25500000000E-02 0.  1.
    5000001    1    1    2    0    0 -0.12085041997E+03 -0.95542425382E+02 -0.13077637096E+04  0.13229165126E+04  0.12700000000E+03 0.  0.
   -5000001    1    1    2    0    0  0.12085041997E+03  0.95542425382E+02 -0.16293737596E+04  0.16415605464E+04  0.12700000000E+03 0.  0.
<mgrwt>
<rscale>  0 0.40168112E+03</rscale>
<asrwt>0</asrwt>
<pdfrwt beam="1">  1        2 0.42154349E+00 0.40168112E+03</pdfrwt>
<pdfrwt beam="2">  1       -2 0.19528297E-02 0.40168112E+03</pdfrwt>
<totfact> 0.23330414E+03</totfact>
</mgrwt>
</event>
<event>
 4    1  0.1351183E-004  0.5366993E+03  0.7818608E-02  0.1004620E+00
         -2   -1    0    0    0  501 -0.00000000000E+00  0.00000000000E+00  0.13890757089E+03  0.13890757091E+03  0.25500000000E-02 0. -1.
          2   -1    0    0  501    0  0.00000000000E+00 -0.00000000000E+00 -0.51841331825E+03  0.51841331826E+03  0.25500000000E-02 0.  1.
    5000001    1    1    2    0    0  0.77716940310E+02 -0.19519285280E+03 -0.57036611871E+02  0.25203640151E+03  0.12700000000E+03 0.  0.
   -5000001    1    1    2    0    0 -0.77716940310E+02  0.19519285280E+03 -0.32246913549E+03  0.40528448766E+03  0.12700000000E+03 0.  0.
<mgrwt>
<rscale>  0 0.53669930E+03</rscale>
<asrwt>0</asrwt>
<pdfrwt beam="1">  1        2 0.74059044E-01 0.53669930E+03</pdfrwt>
<pdfrwt beam="2">  1       -2 0.19843939E-01 0.53669930E+03</pdfrwt>
<totfact> 0.13917764E+03</totfact>
</mgrwt>
</event>
<event>
 4    1  0.1351183E-004  0.3962388E+03  0.7818608E-02  0.1045090E+00
         -2   -1    0    0    0  501 -0.00000000000E+00  0.00000000000E+00  0.78770177328E+02  0.78770177369E+02  0.25500000000E-02 0. -1.
          2   -1    0    0  501    0  0.00000000000E+00 -0.00000000000E+00 -0.49830160375E+03  0.49830160376E+03  0.25500000000E-02 0.  1.
    5000001    1    1    2    0    0 -0.67132113577E+02 -0.36753939292E+02 -0.40112639996E+03  0.42765518992E+03  0.12700000000E+03 0.  0.
   -5000001    1    1    2    0    0  0.67132113577E+02  0.36753939292E+02 -0.18405026464E+02  0.14941659120E+03  0.12700000000E+03 0.  0.
<mgrwt>
<rscale>  0 0.39623885E+03</rscale>
<asrwt>0</asrwt>
<pdfrwt beam="1">  1        2 0.71185941E-01 0.39623885E+03</pdfrwt>
<pdfrwt beam="2">  1       -2 0.11252883E-01 0.39623885E+03</pdfrwt>
<totfact> 0.37528198E+03</totfact>
</mgrwt>
</event>
<event>
 4    1  0.1351183E-004  0.3559771E+03  0.7818608E-02  0.1060188E+00
         -2   -1    0    0    0  501 -0.00000000000E+00  0.00000000000E+00  0.94970006573E+02  0.94970006607E+02  0.25500000000E-02 0. -1.
          2   -1    0    0  501    0  0.00000000000E+00 -0.00000000000E+00 -0.33357816166E+03  0.33357816167E+03  0.25500000000E-02 0.  1.
    5000001    1    1    2    0    0 -0.93601517866E+01 -0.12413346395E+03 -0.11044189293E+03  0.20933977412E+03  0.12700000000E+03 0.  0.
   -5000001    1    1    2    0    0  0.93601517866E+01  0.12413346395E+03 -0.12816626216E+03  0.21920839416E+03  0.12700000000E+03 0.  0.
<mgrwt>
<rscale>  0 0.35597708E+03</rscale>
<asrwt>0</asrwt>
<pdfrwt beam="1">  1        2 0.47654023E-01 0.35597708E+03</pdfrwt>
<pdfrwt beam="2">  1       -2 0.13567144E-01 0.35597708E+03</pdfrwt>
<totfact> 0.42873315E+03</totfact>
</mgrwt>
</event>
<event>
 4    1  0.1351183E-004  0.4039948E+03  0.7818608E-02  0.1042405E+00
         -2   -1    0    0    0  501 -0.00000000000E+00  0.00000000000E+00  0.32806429178E+02  0.32806429277E+02  0.25500000000E-02 0. -1.
          2   -1    0    0  501    0  0.00000000000E+00 -0.00000000000E+00 -0.12437487614E+04  0.12437487614E+04  0.25500000000E-02 0.  1.
    5000001    1    1    2    0    0  0.10659564877E+03 -0.10618250446E+03 -0.46287213815E+03  0.50300792525E+03  0.12700000000E+03 0.  0.
   -5000001    1    1    2    0    0 -0.10659564877E+03  0.10618250446E+03 -0.74807019403E+03  0.77354726538E+03  0.12700000000E+03 0.  0.
<mgrwt>
<rscale>  0 0.40399483E+03</rscale>
<asrwt>0</asrwt>
<pdfrwt beam="1">  1        2 0.17767837E+00 0.40399483E+03</pdfrwt>
<pdfrwt beam="2">  1       -2 0.46866335E-02 0.40399483E+03</pdfrwt>
<totfact> 0.46079974E+03</totfact>
</mgrwt>
</event>
<event>
 4    1  0.1351183E-004  0.5150088E+03  0.7818608E-02  0.1009934E+00
         -2   -1    0    0    0  501 -0.00000000000E+00  0.00000000000E+00  0.70349817361E+03  0.70349817361E+03  0.25500000000E-02 0. -1.
          2   -1    0    0  501    0  0.00000000000E+00 -0.00000000000E+00 -0.94255435629E+02  0.94255435663E+02  0.25500000000E-02 0.  1.
    5000001    1    1    2    0    0  0.20274859823E+03 -0.88383792482E+02  0.35962403405E+03  0.44088222319E+03  0.12700000000E+03 0.  0.
   -5000001    1    1    2    0    0 -0.20274859823E+03  0.88383792482E+02  0.24961870393E+03  0.35687138609E+03  0.12700000000E+03 0.  0.
<mgrwt>
<rscale>  0 0.51500884E+03</rscale>
<asrwt>0</asrwt>
<pdfrwt beam="1">  1        2 0.13465062E-01 0.51500884E+03</pdfrwt>
<pdfrwt beam="2">  1       -2 0.10049974E+00 0.51500884E+03</pdfrwt>
<totfact> 0.37769475E+02</totfact>
</mgrwt>
</event>
<event>
 4    1  0.1351183E-004  0.5302720E+03  0.7818608E-02  0.1006166E+00
         -2   -1    0    0    0  501 -0.00000000000E+00  0.00000000000E+00  0.23860067642E+02  0.23860067778E+02  0.25500000000E-02 0. -1.
          2   -1    0    0  501    0  0.00000000000E+00 -0.00000000000E+00 -0.29462232456E+04  0.29462232456E+04  0.25500000000E-02 0.  1.
    5000001    1    1    2    0    0 -0.17169475414E+03 -0.13337848143E+03 -0.99595057742E+03  0.10272854815E+04  0.12700000000E+03 0.  0.
   -5000001    1    1    2    0    0  0.17169475414E+03  0.13337848143E+03 -0.19264126005E+04  0.19427978318E+04  0.12700000000E+03 0.  0.
<mgrwt>
<rscale>  0 0.53027195E+03</rscale>
<asrwt>0</asrwt>
<pdfrwt beam="1">  1        2 0.42088880E+00 0.53027195E+03</pdfrwt>
<pdfrwt beam="2">  1       -2 0.34085830E-02 0.53027195E+03</pdfrwt>
<totfact> 0.10040961E+03</totfact>
</mgrwt>
</event>
<event>
 4    1  0.1351183E-004  0.3015179E+03  0.7818608E-02  0.1084484E+00
         -2   -1    0    0    0  501 -0.00000000000E+00  0.00000000000E+00  0.82890186385E+02  0.82890186425E+02  0.25500000000E-02 0. -1.
          2   -1    0    0  501    0  0.00000000000E+00 -0.00000000000E+00 -0.27419733546E+03  0.27419733547E+03  0.25500000000E-02 0.  1.
    5000001    1    1    2    0    0  0.80543615393E+02  0.79266082374E+01 -0.87349688725E+02  0.17409501205E+03  0.12700000000E+03 0.  0.
   -5000001    1    1    2    0    0 -0.80543615393E+02 -0.79266082374E+01 -0.10395746034E+03  0.18299250985E+03  0.12700000000E+03 0.  0.
<mgrwt>
<rscale>  0 0.30151795E+03</rscale>
<asrwt>0</asrwt>
<pdfrwt beam="1">  1        2 0.39171048E-01 0.30151795E+03</pdfrwt>
<pdfrwt beam="2">  1       -2 0.11841455E-01 0.30151795E+03</pdfrwt>
<totfact> 0.65853542E+03</totfact>
</mgrwt>
</event>
<event>
 4    1  0.1351183E-004  0.3382604E+03  0.7818608E-02  0.1067539E+00
          2   -1    0    0  501    0  0.00000000000E+00  0.00000000000E+00  0.90121893167E+02  0.90121893203E+02  0.25500000000E-02 0.  1.
         -2   -1    0    0    0  501 -0.00000000000E+00 -0.00000000000E+00 -0.31740370679E+03  0.31740370680E+03  0.25500000000E-02 0. -1.
    5000001    1    1    2    0    0  0.10980764883E+03  0.72036610279E+01 -0.90579399027E+02  0.19090112625E+03  0.12700000000E+03 0.  0.
   -5000001    1    1    2    0    0 -0.10980764883E+03 -0.72036610279E+01 -0.13670241459E+03  0.21662447376E+03  0.12700000000E+03 0.  0.
<mgrwt>
<rscale>  0 0.33826039E+03</rscale>
<asrwt>0</asrwt>
<pdfrwt beam="1">  1        2 0.12874556E-01 0.33826039E+03</pdfrwt>
<pdfrwt beam="2">  1       -2 0.45343386E-01 0.33826039E+03</pdfrwt>
<totfact> 0.21972010E+03</totfact>
</mgrwt>
</event>
<event>
 4    1  0.1351183E-004  0.3072137E+03  0.7818608E-02  0.1081689E+00
          2   -1    0    0  501    0  0.00000000000E+00  0.00000000000E+00  0.47869625432E+03  0.47869625433E+03  0.25500000000E-02 0.  1.
         -2   -1    0    0    0  501 -0.00000000000E+00 -0.00000000000E+00 -0.49290267901E+02  0.49290267967E+02  0.25500000000E-02 0. -1.
    5000001    1    1    2    0    0  0.41085766062E+02 -0.22774957401E+02  0.33934009911E+03  0.36535933234E+03  0.12700000000E+03 0.  0.
   -5000001    1    1    2    0    0 -0.41085766062E+02  0.22774957401E+02  0.90065887304E+02  0.16262718996E+03  0.12700000000E+03 0.  0.
<mgrwt>
<rscale>  0 0.30721371E+03</rscale>
<asrwt>0</asrwt>
<pdfrwt beam="1">  1        2 0.68385181E-01 0.30721371E+03</pdfrwt>
<pdfrwt beam="2">  1       -2 0.70414667E-02 0.30721371E+03</pdfrwt>
<totfact> 0.81963765E+03</totfact>
</mgrwt>
</event>
<event>
 4    1  0.1351183E-004  0.4444913E+03  0.7818608E-02  0.1029378E+00
          2   -1    0    0  501    0  0.00000000000E+00  0.00000000000E+00  0.32118205359E+02  0.32118205460E+02  0.25500000000E-02 0.  1.
         -2   -1    0    0    0  501 -0.00000000000E+00 -0.00000000000E+00 -0.15378543878E+04  0.15378543878E+04  0.25500000000E-02 0. -1.
    5000001    1    1    2    0    0  0.11608436566E+03 -0.94003228153E+02 -0.38323207104E+03  0.43047416546E+03  0.12700000000E+03 0.  0.
   -5000001    1    1    2    0    0 -0.11608436566E+03  0.94003228153E+02 -0.11225041114E+04  0.11394984278E+04  0.12700000000E+03 0.  0.
<mgrwt>
<rscale>  0 0.44449127E+03</rscale>
<asrwt>0</asrwt>
<pdfrwt beam="1">  1        2 0.45883160E-02 0.44449127E+03</pdfrwt>
<pdfrwt beam="2">  1       -2 0.21969344E+00 0.44449127E+03</pdfrwt>
<totfact> 0.19095014E+02</totfact>
</mgrwt>
</event>
<event>
 4    1  0.1351183E-004  0.4026081E+03  0.7818608E-02  0.1042880E+00
          2   -1    0    0  501    0  0.00000000000E+00  0.00000000000E+00  0.11540878426E+04  0.11540878426E+04  0.25500000000E-02 0.  1.
         -2   -1    0    0    0  501 -0.00000000000E+00 -0.00000000000E+00 -0.35112848993E+02  0.35112849086E+02  0.25500000000E-02 0. -1.
    5000001    1    1    2    0    0  0.66587275995E+02 -0.14001236648E+03  0.50367941036E+03  0.54208788634E+03  0.12700000000E+03 0.  0.
   -5000001    1    1    2    0    0 -0.66587275995E+02  0.14001236648E+03  0.61529558326E+03  0.64711280536E+03  0.12700000000E+03 0.  0.
<mgrwt>
<rscale>  0 0.40260806E+03</rscale>
<asrwt>0</asrwt>
<pdfrwt beam="1">  1        2 0.16486967E+00 0.40260806E+03</pdfrwt>
<pdfrwt beam="2">  1       -2 0.50161220E-02 0.40260806E+03</pdfrwt>
<totfact> 0.46530787E+03</totfact>
</mgrwt>
</event>
<event>
 4    1  0.1351183E-004  0.3220705E+03  0.7818608E-02  0.1074700E+00
         -2   -1    0    0    0  501 -0.00000000000E+00  0.00000000000E+00  0.16833930174E+02  0.16833930367E+02  0.25500000000E-02 0. -1.
          2   -1    0    0  501    0  0.00000000000E+00 -0.00000000000E+00 -0.15404812554E+04  0.15404812555E+04  0.25500000000E-02 0.  1.
    5000001    1    1    2    0    0  0.90961828857E+02 -0.38332658968E+02 -0.79924887673E+03  0.81527370497E+03  0.12700000000E+03 0.  0.
   -5000001    1    1    2    0    0 -0.90961828857E+02  0.38332658968E+02 -0.72439844854E+03  0.74204148085E+03  0.12700000000E+03 0.  0.
<mgrwt>
<rscale>  0 0.32207051E+03</rscale>
<asrwt>0</asrwt>
<pdfrwt beam="1">  1        2 0.22006866E+00 0.32207051E+03</pdfrwt>
<pdfrwt beam="2">  1       -2 0.24048482E-02 0.32207051E+03</pdfrwt>
<totfact> 0.87881368E+03</totfact>
</mgrwt>
</event>
<event>
 4    1  0.1351183E-004  0.4652587E+03  0.7818608E-02  0.1023267E+00
          2   -1    0    0  501    0  0.00000000000E+00  0.00000000000E+00  0.30473330309E+04  0.30473330309E+04  0.25500000000E-02 0.  1.
         -2   -1    0    0    0  501 -0.00000000000E+00 -0.00000000000E+00 -0.17758615765E+02  0.17758615948E+02  0.25500000000E-02 0. -1.
    5000001    1    1    2    0    0 -0.15809366831E+03 -0.90038791100E+02  0.19753218861E+04  0.19877439839E+04  0.12700000000E+03 0.  0.
   -5000001    1    1    2    0    0  0.15809366831E+03  0.90038791100E+02  0.10542525290E+04  0.10773476629E+04  0.12700000000E+03 0.  0.
<mgrwt>
<rscale>  0 0.46525871E+03</rscale>
<asrwt>0</asrwt>
<pdfrwt beam="1">  1        2 0.43533308E+00 0.46525871E+03</pdfrwt>
<pdfrwt beam="2">  1       -2 0.25369463E-02 0.46525871E+03</pdfrwt>
<totfact> 0.13922159E+03</totfact>
</mgrwt>
</event>
<event>
 4    1  0.1351183E-004  0.9271499E+03  0.7818608E-02  0.9392265E-01
          2   -1    0    0  501    0  0.00000000000E+00  0.00000000000E+00  0.61507639224E+03  0.61507639225E+03  0.25500000000E-02 0.  1.
         -2   -1    0    0    0  501 -0.00000000000E+00 -0.00000000000E+00 -0.34939034047E+03  0.34939034048E+03  0.25500000000E-02 0. -1.
    5000001    1    1    2    0    0  0.84545658388E+02 -0.39262381040E+03  0.33420933365E+03  0.53770466201E+03  0.12700000000E+03 0.  0.
   -5000001    1    1    2    0    0 -0.84545658388E+02  0.39262381040E+03 -0.68523281873E+02  0.42676207072E+03  0.12700000000E+03 0.  0.
<mgrwt>
<rscale>  0 0.92714993E+03</rscale>
<asrwt>0</asrwt>
<pdfrwt beam="1">  1        2 0.87868056E-01 0.92714993E+03</pdfrwt>
<pdfrwt beam="2">  1       -2 0.49912906E-01 0.92714993E+03</pdfrwt>
<totfact> 0.20037896E+02</totfact>
</mgrwt>
</event>
<event>
 4    1  0.1351183E-004  0.3842706E+03  0.7818608E-02  0.1049367E+00
          2   -1    0    0  501    0  0.00000000000E+00  0.00000000000E+00  0.29655017703E+04  0.29655017703E+04  0.25500000000E-02 0.  1.
         -2   -1    0    0    0  501 -0.00000000000E+00 -0.00000000000E+00 -0.12448477580E+02  0.12448477841E+02  0.25500000000E-02 0. -1.
    5000001    1    1    2    0    0 -0.13442901951E+03  0.52104102272E+02  0.14688395370E+04  0.14813522823E+04  0.12700000000E+03 0.  0.
   -5000001    1    1    2    0    0  0.13442901951E+03 -0.52104102272E+02  0.14842137557E+04  0.14965979659E+04  0.12700000000E+03 0.  0.
<mgrwt>
<rscale>  0 0.38427065E+03</rscale>
<asrwt>0</asrwt>
<pdfrwt beam="1">  1        2 0.42364352E+00 0.38427065E+03</pdfrwt>
<pdfrwt beam="2">  1       -2 0.17783522E-02 0.38427065E+03</pdfrwt>
<totfact> 0.26364079E+03</totfact>
</mgrwt>
</event>
<event>
 4    1  0.1351183E-004  0.2784520E+03  0.7818608E-02  0.1096537E+00
         -2   -1    0    0    0  501 -0.00000000000E+00  0.00000000000E+00  0.24345633719E+02  0.24345633852E+02  0.25500000000E-02 0. -1.
          2   -1    0    0  501    0  0.00000000000E+00 -0.00000000000E+00 -0.79619527015E+03  0.79619527016E+03  0.25500000000E-02 0.  1.
    5000001    1    1    2    0    0  0.27587469381E+02  0.32331839752E+02 -0.27377373430E+03  0.30477446402E+03  0.12700000000E+03 0.  0.
   -5000001    1    1    2    0    0 -0.27587469381E+02 -0.32331839752E+02 -0.49807590213E+03  0.51576643999E+03  0.12700000000E+03 0.  0.
<mgrwt>
<rscale>  0 0.27845200E+03</rscale>
<asrwt>0</asrwt>
<pdfrwt beam="1">  1        2 0.11374217E+00 0.27845200E+03</pdfrwt>
<pdfrwt beam="2">  1       -2 0.34779482E-02 0.27845200E+03</pdfrwt>
<totfact> 0.13260129E+04</totfact>
</mgrwt>
</event>
<event>
 4    1  0.1351183E-004  0.2877320E+03  0.7818608E-02  0.1091539E+00
          2   -1    0    0  501    0  0.00000000000E+00  0.00000000000E+00  0.16365019692E+03  0.16365019694E+03  0.25500000000E-02 0.  1.
         -2   -1    0    0    0  501 -0.00000000000E+00 -0.00000000000E+00 -0.12647359421E+03  0.12647359424E+03  0.25500000000E-02 0. -1.
    5000001    1    1    2    0    0 -0.49933079168E+02  0.15002875859E+02  0.61957812650E+02  0.15061928571E+03  0.12700000000E+03 0.  0.
   -5000001    1    1    2    0    0  0.49933079168E+02 -0.15002875859E+02 -0.24781209940E+02  0.13950450547E+03  0.12700000000E+03 0.  0.
<mgrwt>
<rscale>  0 0.28773202E+03</rscale>
<asrwt>0</asrwt>
<pdfrwt beam="1">  1        2 0.23378600E-01 0.28773202E+03</pdfrwt>
<pdfrwt beam="2">  1       -2 0.18067656E-01 0.28773202E+03</pdfrwt>
<totfact> 0.57775803E+03</totfact>
</mgrwt>
</event>
<event>
 4    1  0.1351183E-004  0.4318198E+03  0.7818608E-02  0.1033287E+00
          2   -1    0    0  501    0  0.00000000000E+00  0.00000000000E+00  0.45410930164E+03  0.45410930165E+03  0.25500000000E-02 0.  1.
         -2   -1    0    0    0  501 -0.00000000000E+00 -0.00000000000E+00 -0.10265606551E+03  0.10265606555E+03  0.25500000000E-02 0. -1.
    5000001    1    1    2    0    0  0.18841313998E+02  0.16677766599E+03  0.23780687714E+03  0.31757030057E+03  0.12700000000E+03 0.  0.
   -5000001    1    1    2    0    0 -0.18841313998E+02 -0.16677766599E+03  0.11364635899E+03  0.23919506663E+03  0.12700000000E+03 0.  0.
<mgrwt>
<rscale>  0 0.43181975E+03</rscale>
<asrwt>0</asrwt>
<pdfrwt beam="1">  1        2 0.64872757E-01 0.43181975E+03</pdfrwt>
<pdfrwt beam="2">  1       -2 0.14665152E-01 0.43181975E+03</pdfrwt>
<totfact> 0.26975643E+03</totfact>
</mgrwt>
</event>
<event>
 4    1  0.1351183E-004  0.3196972E+03  0.7818608E-02  0.1075789E+00
          2   -1    0    0  501    0  0.00000000000E+00  0.00000000000E+00  0.71530608111E+03  0.71530608112E+03  0.25500000000E-02 0.  1.
         -2   -1    0    0    0  501 -0.00000000000E+00 -0.00000000000E+00 -0.35721185552E+02  0.35721185643E+02  0.25500000000E-02 0. -1.
    5000001    1    1    2    0    0 -0.15628157675E+02 -0.49810782339E+02  0.14754332884E+03  0.20155244289E+03  0.12700000000E+03 0.  0.
   -5000001    1    1    2    0    0  0.15628157675E+02  0.49810782339E+02  0.53204156672E+03  0.54947482387E+03  0.12700000000E+03 0.  0.
<mgrwt>
<rscale>  0 0.31969724E+03</rscale>
<asrwt>0</asrwt>
<pdfrwt beam="1">  1        2 0.10218659E+00 0.31969724E+03</pdfrwt>
<pdfrwt beam="2">  1       -2 0.51030264E-02 0.31969724E+03</pdfrwt>
<totfact> 0.85053522E+03</totfact>
</mgrwt>
</event>
<event>
 4    1  0.1351183E-004  0.7498559E+03  0.7818608E-02  0.9635576E-01
         -2   -1    0    0    0  501 -0.00000000000E+00  0.00000000000E+00  0.57982170603E+02  0.57982170659E+02  0.25500000000E-02 0. -1.
          2   -1    0    0  501    0  0.00000000000E+00 -0.00000000000E+00 -0.24243828523E+04  0.24243828523E+04  0.25500000000E-02 0.  1.
    5000001    1    1    2    0    0  0.30294098482E+03 -0.14324226417E+03 -0.81829267580E+03  0.89332160491E+03  0.12700000000E+03 0.  0.
   -5000001    1    1    2    0    0 -0.30294098482E+03  0.14324226417E+03 -0.15481080059E+04  0.15890434180E+04  0.12700000000E+03 0.  0.
<mgrwt>
<rscale>  0 0.74985593E+03</rscale>
<asrwt>0</asrwt>
<pdfrwt beam="1">  1        2 0.34634034E+00 0.74985593E+03</pdfrwt>
<pdfrwt beam="2">  1       -2 0.82831687E-02 0.74985593E+03</pdfrwt>
<totfact> 0.46334794E+02</totfact>
</mgrwt>
</event>
<event>
 4    1  0.1351183E-004  0.1150146E+04  0.7818608E-02  0.9157649E-01
          2   -1    0    0  501    0  0.00000000000E+00  0.00000000000E+00  0.17439037642E+04  0.17439037642E+04  0.25500000000E-02 0.  1.
         -2   -1    0    0    0  501 -0.00000000000E+00 -0.00000000000E+00 -0.18963709779E+03  0.18963709781E+03  0.25500000000E-02 0. -1.
    5000001    1    1    2    0    0 -0.25154280986E+03  0.49784427395E+03  0.67828733663E+03  0.88731359582E+03  0.12700000000E+03 0.  0.
   -5000001    1    1    2    0    0  0.25154280986E+03 -0.49784427395E+03  0.87597932977E+03  0.10462272662E+04  0.12700000000E+03 0.  0.
<mgrwt>
<rscale>  0 0.11501458E+04</rscale>
<asrwt>0</asrwt>
<pdfrwt beam="1">  1        2 0.24912912E+00 0.11501458E+04</pdfrwt>
<pdfrwt beam="2">  1       -2 0.27091012E-01 0.11501458E+04</pdfrwt>
<totfact> 0.13334343E+02</totfact>
</mgrwt>
</event>
<event>
 4    1  0.1351183E-004  0.5194855E+03  0.7818608E-02  0.1008814E+00
         -2   -1    0    0    0  501 -0.00000000000E+00  0.00000000000E+00  0.32363273792E+03  0.32363273793E+03  0.25500000000E-02 0. -1.
          2   -1    0    0  501    0  0.00000000000E+00 -0.00000000000E+00 -0.20846560187E+03  0.20846560189E+03  0.25500000000E-02 0.  1.
    5000001    1    1    2    0    0  0.13468980803E+03  0.16049062998E+03 -0.30758427125E+02  0.24692846644E+03  0.12700000000E+03 0.  0.
   -5000001    1    1    2    0    0 -0.13468980803E+03 -0.16049062998E+03  0.14592556317E+03  0.28516987338E+03  0.12700000000E+03 0.  0.
<mgrwt>
<rscale>  0 0.51948549E+03</rscale>
<asrwt>0</asrwt>
<pdfrwt beam="1">  1        2 0.29780800E-01 0.51948549E+03</pdfrwt>
<pdfrwt beam="2">  1       -2 0.46233248E-01 0.51948549E+03</pdfrwt>
<totfact> 0.79940875E+02</totfact>
</mgrwt>
</event>
<event>
 4    1  0.1351183E-004  0.2982070E+03  0.7818608E-02  0.1086140E+00
         -2   -1    0    0    0  501 -0.00000000000E+00  0.00000000000E+00  0.91768437541E+01  0.91768441084E+01  0.25500000000E-02 0. -1.
          2   -1    0    0  501    0  0.00000000000E+00 -0.00000000000E+00 -0.24226040004E+04  0.24226040004E+04  0.25500000000E-02 0.  1.
    5000001    1    1    2    0    0  0.38776401958E+02 -0.63272620949E+02 -0.10076618842E+04  0.10183410563E+04  0.12700000000E+03 0.  0.
   -5000001    1    1    2    0    0 -0.38776401958E+02  0.63272620949E+02 -0.14057652724E+04  0.14134397883E+04  0.12700000000E+03 0.  0.
<mgrwt>
<rscale>  0 0.29820703E+03</rscale>
<asrwt>0</asrwt>
<pdfrwt beam="1">  1        2 0.34608588E+00 0.29820703E+03</pdfrwt>
<pdfrwt beam="2">  1       -2 0.13109793E-02 0.29820703E+03</pdfrwt>
<totfact> 0.78767927E+03</totfact>
</mgrwt>
</event>
<event>
 4    1  0.1351183E-004  0.4322645E+03  0.7818608E-02  0.1033147E+00
         -2   -1    0    0    0  501 -0.00000000000E+00  0.00000000000E+00  0.97095901952E+02  0.97095901986E+02  0.25500000000E-02 0. -1.
          2   -1    0    0  501    0  0.00000000000E+00 -0.00000000000E+00 -0.48110330521E+03  0.48110330522E+03  0.25500000000E-02 0.  1.
    5000001    1    1    2    0    0  0.58144743342E+02 -0.12016581023E+03 -0.40886739876E+02  0.18873621440E+03  0.12700000000E+03 0.  0.
   -5000001    1    1    2    0    0 -0.58144743342E+02  0.12016581023E+03 -0.34312066338E+03  0.38946299281E+03  0.12700000000E+03 0.  0.
<mgrwt>
<rscale>  0 0.43226455E+03</rscale>
<asrwt>0</asrwt>
<pdfrwt beam="1">  1        2 0.68729043E-01 0.43226455E+03</pdfrwt>
<pdfrwt beam="2">  1       -2 0.13870843E-01 0.43226455E+03</pdfrwt>
<totfact> 0.27746114E+03</totfact>
</mgrwt>
</event>
<event>
 4    1  0.1351183E-004  0.4389187E+03  0.7818608E-02  0.1031079E+00
          2   -1    0    0  501    0  0.00000000000E+00  0.00000000000E+00  0.67785237008E+02  0.67785237056E+02  0.25500000000E-02 0.  1.
         -2   -1    0    0    0  501 -0.00000000000E+00 -0.00000000000E+00 -0.71051466931E+03  0.71051466931E+03  0.25500000000E-02 0. -1.
    5000001    1    1    2    0    0  0.20196855598E+02  0.15715537229E+03 -0.17377474513E+03  0.26726837834E+03  0.12700000000E+03 0.  0.
   -5000001    1    1    2    0    0 -0.20196855598E+02 -0.15715537229E+03 -0.46895468717E+03  0.51103152803E+03  0.12700000000E+03 0.  0.
<mgrwt>
<rscale>  0 0.43891870E+03</rscale>
<asrwt>0</asrwt>
<pdfrwt beam="1">  1        2 0.96836057E-02 0.43891870E+03</pdfrwt>
<pdfrwt beam="2">  1       -2 0.10150209E+00 0.43891870E+03</pdfrwt>
<totfact> 0.55624140E+02</totfact>
</mgrwt>
</event>
<event>
 4    1  0.1351183E-004  0.3754007E+03  0.7818608E-02  0.1052647E+00
         -2   -1    0    0    0  501 -0.00000000000E+00  0.00000000000E+00  0.98182872815E+02  0.98182872848E+02  0.25500000000E-02 0. -1.
          2   -1    0    0  501    0  0.00000000000E+00 -0.00000000000E+00 -0.35883460553E+03  0.35883460554E+03  0.25500000000E-02 0.  1.
    5000001    1    1    2    0    0  0.12429503114E+03  0.60178687861E+02 -0.12347331404E+03  0.22460050872E+03  0.12700000000E+03 0.  0.
   -5000001    1    1    2    0    0 -0.12429503114E+03 -0.60178687861E+02 -0.13717841868E+03  0.23241696967E+03  0.12700000000E+03 0.  0.
<mgrwt>
<rscale>  0 0.37540065E+03</rscale>
<asrwt>0</asrwt>
<pdfrwt beam="1">  1        2 0.51262086E-01 0.37540065E+03</pdfrwt>
<pdfrwt beam="2">  1       -2 0.14026125E-01 0.37540065E+03</pdfrwt>
<totfact> 0.37532577E+03</totfact>
</mgrwt>
</event>
<event>
 4    1  0.1351183E-004  0.3303620E+03  0.7818608E-02  0.1070977E+00
         -2   -1    0    0    0  501 -0.00000000000E+00  0.00000000000E+00  0.17016576831E+02  0.17016577022E+02  0.25500000000E-02 0. -1.
          2   -1    0    0  501    0  0.00000000000E+00 -0.00000000000E+00 -0.16034225081E+04  0.16034225081E+04  0.25500000000E-02 0.  1.
    5000001    1    1    2    0    0 -0.43816734612E+02 -0.87880159914E+02 -0.98399163406E+03  0.99700118587E+03  0.12700000000E+03 0.  0.
   -5000001    1    1    2    0    0  0.43816734612E+02  0.87880159914E+02 -0.60241429725E+03  0.62343789928E+03  0.12700000000E+03 0.  0.
<mgrwt>
<rscale>  0 0.33036200E+03</rscale>
<asrwt>0</asrwt>
<pdfrwt beam="1">  1        2 0.22906026E+00 0.33036200E+03</pdfrwt>
<pdfrwt beam="2">  1       -2 0.24309406E-02 0.33036200E+03</pdfrwt>
<totfact> 0.80429186E+03</totfact>
</mgrwt>
</event>
<event>
 4    1  0.1351183E-004  0.6939356E+03  0.7818608E-02  0.9727660E-01
          2   -1    0    0  501    0  0.00000000000E+00  0.00000000000E+00  0.21994720169E+04  0.21994720169E+04  0.25500000000E-02 0.  1.
         -2   -1    0    0    0  501 -0.00000000000E+00 -0.00000000000E+00 -0.54734348888E+02  0.54734348948E+02  0.25500000000E-02 0. -1.
    5000001    1    1    2    0    0 -0.31983724491E+03 -0.80528207551E-01  0.92848839907E+03  0.99020986509E+03  0.12700000000E+03 0.  0.
   -5000001    1    1    2    0    0  0.31983724491E+03  0.80528207551E-01  0.12162492689E+04  0.12639965007E+04  0.12700000000E+03 0.  0.
<mgrwt>
<rscale>  0 0.69393564E+03</rscale>
<asrwt>0</asrwt>
<pdfrwt beam="1">  1        2 0.31421033E+00 0.69393564E+03</pdfrwt>
<pdfrwt beam="2">  1       -2 0.78191917E-02 0.69393564E+03</pdfrwt>
<totfact> 0.66425522E+02</totfact>
</mgrwt>
</event>
<event>
 4    1  0.1351183E-004  0.2985595E+03  0.7818608E-02  0.1085963E+00
         -2   -1    0    0    0  501 -0.00000000000E+00  0.00000000000E+00  0.56789697747E+02  0.56789697804E+02  0.25500000000E-02 0. -1.
          2   -1    0    0  501    0  0.00000000000E+00 -0.00000000000E+00 -0.39240288140E+03  0.39240288141E+03  0.25500000000E-02 0.  1.
    5000001    1    1    2    0    0 -0.61908351068E+01  0.28164051068E+02 -0.58028245760E+02  0.14257565542E+03  0.12700000000E+03 0.  0.
   -5000001    1    1    2    0    0  0.61908351068E+01 -0.28164051068E+02 -0.27758493789E+03  0.30661692380E+03  0.12700000000E+03 0.  0.
<mgrwt>
<rscale>  0 0.29855948E+03</rscale>
<asrwt>0</asrwt>
<pdfrwt beam="1">  1        2 0.56057553E-01 0.29855948E+03</pdfrwt>
<pdfrwt beam="2">  1       -2 0.81128142E-02 0.29855948E+03</pdfrwt>
<totfact> 0.81567477E+03</totfact>
</mgrwt>
</event>
<event>
 4    1  0.1351183E-004  0.3371001E+03  0.7818608E-02  0.1068038E+00
          2   -1    0    0  501    0  0.00000000000E+00  0.00000000000E+00  0.43831565154E+02  0.43831565228E+02  0.25500000000E-02 0.  1.
         -2   -1    0    0    0  501 -0.00000000000E+00 -0.00000000000E+00 -0.64814278594E+03  0.64814278594E+03  0.25500000000E-02 0. -1.
    5000001    1    1    2    0    0 -0.37493555353E+02  0.10364995533E+03 -0.27865813240E+03  0.32546648780E+03  0.12700000000E+03 0.  0.
   -5000001    1    1    2    0    0  0.37493555353E+02 -0.10364995533E+03 -0.32565308839E+03  0.36650786337E+03  0.12700000000E+03 0.  0.
<mgrwt>
<rscale>  0 0.33710006E+03</rscale>
<asrwt>0</asrwt>
<pdfrwt beam="1">  1        2 0.62616526E-02 0.33710006E+03</pdfrwt>
<pdfrwt beam="2">  1       -2 0.92591821E-01 0.33710006E+03</pdfrwt>
<totfact> 0.12035784E+03</totfact>
</mgrwt>
</event>
<event>
 4    1  0.1351183E-004  0.7691738E+03  0.7818608E-02  0.9605741E-01
          2   -1    0    0  501    0  0.00000000000E+00  0.00000000000E+00  0.11595856040E+04  0.11595856040E+04  0.25500000000E-02 0.  1.
         -2   -1    0    0    0  501 -0.00000000000E+00 -0.00000000000E+00 -0.12755168001E+03  0.12755168004E+03  0.25500000000E-02 0. -1.
    5000001    1    1    2    0    0 -0.17933110594E+03 -0.80993886722E+02  0.55375258091E+01  0.23426335488E+03  0.12700000000E+03 0.  0.
   -5000001    1    1    2    0    0  0.17933110594E+03  0.80993886722E+02  0.10264963982E+04  0.10528739292E+04  0.12700000000E+03 0.  0.
<mgrwt>
<rscale>  0 0.76917382E+03</rscale>
<asrwt>0</asrwt>
<pdfrwt beam="1">  1        2 0.16565509E+00 0.76917382E+03</pdfrwt>
<pdfrwt beam="2">  1       -2 0.18221668E-01 0.76917382E+03</pdfrwt>
<totfact> 0.56841601E+02</totfact>
</mgrwt>
</event>
<event>
 4    1  0.1351183E-004  0.3050259E+03  0.7818608E-02  0.1082755E+00
          2   -1    0    0  501    0  0.00000000000E+00  0.00000000000E+00  0.12305558231E+03  0.12305558233E+03  0.25500000000E-02 0. -1.
         -2   -1    0    0    0  501 -0.00000000000E+00 -0.00000000000E+00 -0.18902192776E+03  0.18902192778E+03  0.25500000000E-02 0.  1.
    5000001    1    1    2    0    0  0.71856899294E+02  0.10780149056E+02 -0.77007903211E+02  0.16534461814E+03  0.12700000000E+03 0.  0.
   -5000001    1    1    2    0    0 -0.71856899294E+02 -0.10780149056E+02  0.11041557758E+02  0.14673289198E+03  0.12700000000E+03 0.  0.
<mgrwt>
<rscale>  0 0.30502592E+03</rscale>
<asrwt>0</asrwt>
<pdfrwt beam="1">  1        2 0.17579369E-01 0.30502592E+03</pdfrwt>
<pdfrwt beam="2">  1       -2 0.27003133E-01 0.30502592E+03</pdfrwt>
<totfact> 0.39925858E+03</totfact>
</mgrwt>
</event>
<event>
 4    1  0.1351183E-004  0.2860103E+03  0.7818608E-02  0.1092451E+00
         -2   -1    0    0    0  501 -0.00000000000E+00  0.00000000000E+00  0.37516301483E+02  0.37516301569E+02  0.25500000000E-02 0. -1.
          2   -1    0    0  501    0  0.00000000000E+00 -0.00000000000E+00 -0.54510909563E+03  0.54510909564E+03  0.25500000000E-02 0.  1.
    5000001    1    1    2    0    0 -0.53704232723E+02  0.11765539219E+02 -0.18037944800E+03  0.22735064941E+03  0.12700000000E+03 0.  0.
   -5000001    1    1    2    0    0  0.53704232723E+02 -0.11765539219E+02 -0.32721334615E+03  0.35527474780E+03  0.12700000000E+03 0.  0.
<mgrwt>
<rscale>  0 0.28601033E+03</rscale>
<asrwt>0</asrwt>
<pdfrwt beam="1">  1        2 0.77872723E-01 0.28601033E+03</pdfrwt>
<pdfrwt beam="2">  1       -2 0.53594720E-02 0.28601033E+03</pdfrwt>
<totfact> 0.10769545E+04</totfact>
</mgrwt>
</event>
<event>
 4    1  0.1351183E-004  0.3678307E+03  0.7818608E-02  0.1055526E+00
          2   -1    0    0  501    0  0.00000000000E+00  0.00000000000E+00  0.16678265023E+04  0.16678265023E+04  0.25500000000E-02 0.  1.
         -2   -1    0    0    0  501 -0.00000000000E+00 -0.00000000000E+00 -0.20280798858E+02  0.20280799019E+02  0.25500000000E-02 0. -1.
    5000001    1    1    2    0    0  0.11608003335E+03 -0.56432802956E+02  0.97153444990E+03  0.98826485455E+03  0.12700000000E+03 0.  0.
   -5000001    1    1    2    0    0 -0.11608003335E+03  0.56432802956E+02  0.67601125356E+03  0.69984244679E+03  0.12700000000E+03 0.  0.
<mgrwt>
<rscale>  0 0.36783069E+03</rscale>
<asrwt>0</asrwt>
<pdfrwt beam="1">  1        2 0.23826099E+00 0.36783069E+03</pdfrwt>
<pdfrwt beam="2">  1       -2 0.28972563E-02 0.36783069E+03</pdfrwt>
<totfact> 0.57519051E+03</totfact>
</mgrwt>
</event>
<event>
 4    1  0.1351183E-004  0.4001168E+03  0.7818608E-02  0.1043739E+00
         -2   -1    0    0    0  501 -0.00000000000E+00  0.00000000000E+00  0.17989584625E+03  0.17989584627E+03  0.25500000000E-02 0. -1.
          2   -1    0    0  501    0  0.00000000000E+00 -0.00000000000E+00 -0.22248079523E+03  0.22248079524E+03  0.25500000000E-02 0.  1.
    5000001    1    1    2    0    0  0.59777347524E+02 -0.14056111033E+03 -0.45167112227E+02  0.20371505846E+03  0.12700000000E+03 0.  0.
   -5000001    1    1    2    0    0 -0.59777347524E+02  0.14056111033E+03  0.25821632486E+01  0.19866158306E+03  0.12700000000E+03 0.  0.
<mgrwt>
<rscale>  0 0.40011684E+03</rscale>
<asrwt>0</asrwt>
<pdfrwt beam="1">  1        2 0.31782970E-01 0.40011684E+03</pdfrwt>
<pdfrwt beam="2">  1       -2 0.25699407E-01 0.40011684E+03</pdfrwt>
<totfact> 0.22426714E+03</totfact>
</mgrwt>
</event>
<event>
 4    1  0.1351183E-004  0.4586207E+03  0.7818608E-02  0.1025182E+00
         -2   -1    0    0    0  501 -0.00000000000E+00  0.00000000000E+00  0.91051051039E+02  0.91051051075E+02  0.25500000000E-02 0. -1.
          2   -1    0    0  501    0  0.00000000000E+00 -0.00000000000E+00 -0.57751371860E+03  0.57751371861E+03  0.25500000000E-02 0.  1.
    5000001    1    1    2    0    0  0.10449403981E+03  0.15774292240E+03 -0.28046586480E+03  0.36137506173E+03  0.12700000000E+03 0.  0.
   -5000001    1    1    2    0    0 -0.10449403981E+03 -0.15774292240E+03 -0.20599680277E+03  0.30718970795E+03  0.12700000000E+03 0.  0.
<mgrwt>
<rscale>  0 0.45862068E+03</rscale>
<asrwt>0</asrwt>
<pdfrwt beam="1">  1        2 0.82501958E-01 0.45862068E+03</pdfrwt>
<pdfrwt beam="2">  1       -2 0.13007293E-01 0.45862068E+03</pdfrwt>
<totfact> 0.25088538E+03</totfact>
</mgrwt>
</event>
<event>
 4    1  0.1351183E-004  0.3706861E+03  0.7818608E-02  0.1054431E+00
         -2   -1    0    0    0  501 -0.00000000000E+00  0.00000000000E+00  0.64022821567E+02  0.64022821618E+02  0.25500000000E-02 0. -1.
          2   -1    0    0  501    0  0.00000000000E+00 -0.00000000000E+00 -0.53655941304E+03  0.53655941304E+03  0.25500000000E-02 0.  1.
    5000001    1    1    2    0    0 -0.11240762084E+03  0.60510157315E+02 -0.16516249229E+03  0.24434525004E+03  0.12700000000E+03 0.  0.
   -5000001    1    1    2    0    0  0.11240762084E+03 -0.60510157315E+02 -0.30737409918E+03  0.35623698462E+03  0.12700000000E+03 0.  0.
<mgrwt>
<rscale>  0 0.37068611E+03</rscale>
<asrwt>0</asrwt>
<pdfrwt beam="1">  1        2 0.76651342E-01 0.37068611E+03</pdfrwt>
<pdfrwt beam="2">  1       -2 0.91461177E-02 0.37068611E+03</pdfrwt>
<totfact> 0.48095351E+03</totfact>
</mgrwt>
</event>
<event>
 4    1  0.1351183E-004  0.4131683E+03  0.7818608E-02  0.1039313E+00
          2   -1    0    0  501    0  0.00000000000E+00  0.00000000000E+00  0.33040422076E+03  0.33040422077E+03  0.25500000000E-02 0.  1.
         -2   -1    0    0    0  501 -0.00000000000E+00 -0.00000000000E+00 -0.12916603607E+03  0.12916603610E+03  0.25500000000E-02 0. -1.
    5000001    1    1    2    0    0  0.85784902538E+02  0.13723016467E+03  0.79607487120E+02  0.22058449539E+03  0.12700000000E+03 0.  0.
   -5000001    1    1    2    0    0 -0.85784902538E+02 -0.13723016467E+03  0.12163069757E+03  0.23898576148E+03  0.12700000000E+03 0.  0.
<mgrwt>
<rscale>  0 0.41316826E+03</rscale>
<asrwt>0</asrwt>
<pdfrwt beam="1">  1        2 0.47200602E-01 0.41316826E+03</pdfrwt>
<pdfrwt beam="2">  1       -2 0.18452291E-01 0.41316826E+03</pdfrwt>
<totfact> 0.25949289E+03</totfact>
</mgrwt>
</event>
<event>
 4    1  0.1351183E-004  0.4622932E+03  0.7818608E-02  0.1024118E+00
         -2   -1    0    0    0  501 -0.00000000000E+00  0.00000000000E+00  0.13762359376E+03  0.13762359378E+03  0.25500000000E-02 0. -1.
          2   -1    0    0  501    0  0.00000000000E+00 -0.00000000000E+00 -0.38822370998E+03  0.38822370999E+03  0.25500000000E-02 0.  1.
    5000001    1    1    2    0    0 -0.58166055233E+02 -0.14679786213E+03 -0.25179453086E+03  0.32320641714E+03  0.12700000000E+03 0.  0.
   -5000001    1    1    2    0    0  0.58166055233E+02  0.14679786213E+03  0.11944146349E+01  0.20264088663E+03  0.12700000000E+03 0.  0.
<mgrwt>
<rscale>  0 0.46229316E+03</rscale>
<asrwt>0</asrwt>
<pdfrwt beam="1">  1        2 0.55460530E-01 0.46229316E+03</pdfrwt>
<pdfrwt beam="2">  1       -2 0.19660514E-01 0.46229316E+03</pdfrwt>
<totfact> 0.19525853E+03</totfact>
</mgrwt>
</event>
<event>
 4    1  0.1351183E-004  0.3653234E+03  0.7818608E-02  0.1056496E+00
         -2   -1    0    0    0  501 -0.00000000000E+00  0.00000000000E+00  0.29728893049E+02  0.29728893158E+02  0.25500000000E-02 0. -1.
          2   -1    0    0  501    0  0.00000000000E+00 -0.00000000000E+00 -0.11223188395E+04  0.11223188395E+04  0.25500000000E-02 0.  1.
    5000001    1    1    2    0    0 -0.91755259888E+02  0.86289098318E+02 -0.42951062261E+03  0.46526681715E+03  0.12700000000E+03 0.  0.
   -5000001    1    1    2    0    0  0.91755259888E+02 -0.86289098318E+02 -0.66307932386E+03  0.68678091553E+03  0.12700000000E+03 0.  0.
<mgrwt>
<rscale>  0 0.36532340E+03</rscale>
<asrwt>0</asrwt>
<pdfrwt beam="1">  1        2 0.16033124E+00 0.36532340E+03</pdfrwt>
<pdfrwt beam="2">  1       -2 0.42469854E-02 0.36532340E+03</pdfrwt>
<totfact> 0.62450525E+03</totfact>
</mgrwt>
</event>
<event>
 4    1  0.1351183E-004  0.3661723E+03  0.7818608E-02  0.1056166E+00
          2   -1    0    0  501    0  0.00000000000E+00  0.00000000000E+00  0.26909752077E+04  0.26909752077E+04  0.25500000000E-02 0.  1.
         -2   -1    0    0    0  501 -0.00000000000E+00 -0.00000000000E+00 -0.12456648058E+02  0.12456648319E+02  0.25500000000E-02 0. -1.
    5000001    1    1    2    0    0 -0.93708028951E+02 -0.76490705513E+02  0.17270932712E+04  0.17359758610E+04  0.12700000000E+03 0.  0.
   -5000001    1    1    2    0    0  0.93708028951E+02  0.76490705513E+02  0.95142528851E+03  0.96745599504E+03  0.12700000000E+03 0.  0.
<mgrwt>
<rscale>  0 0.36617226E+03</rscale>
<asrwt>0</asrwt>
<pdfrwt beam="1">  1        2 0.38442572E+00 0.36617226E+03</pdfrwt>
<pdfrwt beam="2">  1       -2 0.17795180E-02 0.36617226E+03</pdfrwt>
<totfact> 0.36709614E+03</totfact>
</mgrwt>
</event>
<event>
 4    1  0.1351183E-004  0.4681970E+03  0.7818608E-02  0.1022430E+00
         -2   -1    0    0    0  501 -0.00000000000E+00  0.00000000000E+00  0.25986824756E+02  0.25986824881E+02  0.25500000000E-02 0. -1.
          2   -1    0    0  501    0  0.00000000000E+00 -0.00000000000E+00 -0.21088418491E+04  0.21088418491E+04  0.25500000000E-02 0.  1.
    5000001    1    1    2    0    0  0.10222776127E+03  0.16550375032E+03 -0.90997759548E+03  0.93916464521E+03  0.12700000000E+03 0.  0.
   -5000001    1    1    2    0    0 -0.10222776127E+03 -0.16550375032E+03 -0.11728774288E+04  0.11956640287E+04  0.12700000000E+03 0.  0.
<mgrwt>
<rscale>  0 0.46819698E+03</rscale>
<asrwt>0</asrwt>
<pdfrwt beam="1">  1        2 0.30126301E+00 0.46819698E+03</pdfrwt>
<pdfrwt beam="2">  1       -2 0.37124049E-02 0.46819698E+03</pdfrwt>
<totfact> 0.23827543E+03</totfact>
</mgrwt>
</event>
<event>
 4    1  0.1351183E-004  0.4381997E+03  0.7818608E-02  0.1031301E+00
          2   -1    0    0  501    0  0.00000000000E+00  0.00000000000E+00  0.97578719522E+03  0.97578719522E+03  0.25500000000E-02 0.  1.
         -2   -1    0    0    0  501 -0.00000000000E+00 -0.00000000000E+00 -0.49195921352E+02  0.49195921419E+02  0.25500000000E-02 0. -1.
    5000001    1    1    2    0    0 -0.12168645775E+03 -0.13054834783E+03  0.47505750544E+03  0.52312436246E+03  0.12700000000E+03 0.  0.
   -5000001    1    1    2    0    0  0.12168645775E+03  0.13054834783E+03  0.45153376842E+03  0.50185875418E+03  0.12700000000E+03 0.  0.
<mgrwt>
<rscale>  0 0.43819973E+03</rscale>
<asrwt>0</asrwt>
<pdfrwt beam="1">  1        2 0.13939818E+00 0.43819973E+03</pdfrwt>
<pdfrwt beam="2">  1       -2 0.70279884E-02 0.43819973E+03</pdfrwt>
<totfact> 0.35058868E+03</totfact>
</mgrwt>
</event>
<event>
 4    1  0.1351183E-004  0.3721292E+03  0.7818608E-02  0.1053882E+00
         -2   -1    0    0    0  501 -0.00000000000E+00  0.00000000000E+00  0.16003211345E+03  0.16003211347E+03  0.25500000000E-02 0. -1.
          2   -1    0    0  501    0  0.00000000000E+00 -0.00000000000E+00 -0.21633176748E+03  0.21633176750E+03  0.25500000000E-02 0.  1.
    5000001    1    1    2    0    0  0.10207838600E+03  0.75386566014E+02 -0.77572038620E+02  0.19557492784E+03  0.12700000000E+03 0.  0.
   -5000001    1    1    2    0    0 -0.10207838600E+03 -0.75386566014E+02  0.21272384586E+02  0.18078895312E+03  0.12700000000E+03 0.  0.
<mgrwt>
<rscale>  0 0.37212917E+03</rscale>
<asrwt>0</asrwt>
<pdfrwt beam="1">  1        2 0.30904538E-01 0.37212917E+03</pdfrwt>
<pdfrwt beam="2">  1       -2 0.22861730E-01 0.37212917E+03</pdfrwt>
<totfact> 0.28420569E+03</totfact>
</mgrwt>
</event>
<event>
 4    1  0.1351183E-004  0.4303854E+03  0.7818608E-02  0.1033738E+00
          2   -1    0    0  501    0  0.00000000000E+00  0.00000000000E+00  0.24818995058E+04  0.24818995058E+04  0.25500000000E-02 0.  1.
         -2   -1    0    0    0  501 -0.00000000000E+00 -0.00000000000E+00 -0.18658245892E+02  0.18658246066E+02  0.25500000000E-02 0. -1.
    5000001    1    1    2    0    0  0.72362018705E+02  0.15552064153E+03  0.13913661680E+04  0.14076404886E+04  0.12700000000E+03 0.  0.
   -5000001    1    1    2    0    0 -0.72362018705E+02 -0.15552064153E+03  0.10718750919E+04  0.10929172632E+04  0.12700000000E+03 0.  0.
<mgrwt>
<rscale>  0 0.43038537E+03</rscale>
<asrwt>0</asrwt>
<pdfrwt beam="1">  1        2 0.35455737E+00 0.43038537E+03</pdfrwt>
<pdfrwt beam="2">  1       -2 0.26654614E-02 0.43038537E+03</pdfrwt>
<totfact> 0.25608513E+03</totfact>
</mgrwt>
</event>
<event>
 4    1  0.1351183E-004  0.4303734E+03  0.7818608E-02  0.1033742E+00
         -2   -1    0    0    0  501 -0.00000000000E+00  0.00000000000E+00  0.28395585672E+02  0.28395585786E+02  0.25500000000E-02 0. -1.
          2   -1    0    0  501    0  0.00000000000E+00 -0.00000000000E+00 -0.16307226175E+04  0.16307226175E+04  0.25500000000E-02 0.  1.
    5000001    1    1    2    0    0  0.57653514728E+02  0.11094106932E+03 -0.12660863733E+04  0.12785677742E+04  0.12700000000E+03 0.  0.
   -5000001    1    1    2    0    0 -0.57653514728E+02 -0.11094106932E+03 -0.33624065862E+03  0.38055042916E+03  0.12700000000E+03 0.  0.
<mgrwt>
<rscale>  0 0.43037344E+03</rscale>
<asrwt>0</asrwt>
<pdfrwt beam="1">  1        2 0.23296031E+00 0.43037344E+03</pdfrwt>
<pdfrwt beam="2">  1       -2 0.40565133E-02 0.43037344E+03</pdfrwt>
<totfact> 0.36108120E+03</totfact>
</mgrwt>
</event>
<event>
 4    1  0.1351183E-004  0.4779847E+03  0.7818608E-02  0.1019691E+00
         -2   -1    0    0    0  501 -0.00000000000E+00  0.00000000000E+00  0.60415454111E+03  0.60415454112E+03  0.25500000000E-02 0. -1.
          2   -1    0    0  501    0  0.00000000000E+00 -0.00000000000E+00 -0.94540940168E+02  0.94540940203E+02  0.25500000000E-02 0.  1.
    5000001    1    1    2    0    0  0.19585374144E+03 -0.34599580450E+02  0.31013215481E+03  0.38970087561E+03  0.12700000000E+03 0.  0.
   -5000001    1    1    2    0    0 -0.19585374144E+03  0.34599580450E+02  0.19948144613E+03  0.30899460571E+03  0.12700000000E+03 0.  0.
<mgrwt>
<rscale>  0 0.47798468E+03</rscale>
<asrwt>0</asrwt>
<pdfrwt beam="1">  1        2 0.13505849E-01 0.47798468E+03</pdfrwt>
<pdfrwt beam="2">  1       -2 0.86307792E-01 0.47798468E+03</pdfrwt>
<totfact> 0.53494678E+02</totfact>
</mgrwt>
</event>
<event>
 4    1  0.1351183E-004  0.3505545E+03  0.7818608E-02  0.1062388E+00
          2   -1    0    0  501    0  0.00000000000E+00  0.00000000000E+00  0.37907982932E+04  0.37907982932E+04  0.25500000000E-02 0.  1.
         -2   -1    0    0    0  501 -0.00000000000E+00 -0.00000000000E+00 -0.81043904368E+01  0.81043908380E+01  0.25500000000E-02 0. -1.
    5000001    1    1    2    0    0 -0.55617938314E+02  0.10175757134E+03  0.15246272994E+04  0.15342963731E+04  0.12700000000E+03 0.  0.
   -5000001    1    1    2    0    0  0.55617938314E+02 -0.10175757134E+03  0.22580666034E+04  0.22646063109E+04  0.12700000000E+03 0.  0.
<mgrwt>
<rscale>  0 0.35055448E+03</rscale>
<asrwt>0</asrwt>
<pdfrwt beam="1">  1        2 0.54154109E+00 0.35055448E+03</pdfrwt>
<pdfrwt beam="2">  1       -2 0.11577733E-02 0.35055448E+03</pdfrwt>
<totfact> 0.16746313E+03</totfact>
</mgrwt>
</event>
<event>
 4    1  0.1351183E-004  0.3841744E+03  0.7818608E-02  0.1049402E+00
          2   -1    0    0  501    0  0.00000000000E+00  0.00000000000E+00  0.69184756759E+03  0.69184756760E+03  0.25500000000E-02 0.  1.
         -2   -1    0    0    0  501 -0.00000000000E+00 -0.00000000000E+00 -0.53331812097E+02  0.53331812158E+02  0.25500000000E-02 0. -1.
    5000001    1    1    2    0    0  0.12315514437E+03 -0.36516241032E+02  0.44597563796E+03  0.48116929983E+03  0.12700000000E+03 0.  0.
   -5000001    1    1    2    0    0 -0.12315514437E+03  0.36516241032E+02  0.19254011754E+03  0.26401007993E+03  0.12700000000E+03 0.  0.
<mgrwt>
<rscale>  0 0.38417436E+03</rscale>
<asrwt>0</asrwt>
<pdfrwt beam="1">  1        2 0.98835359E-01 0.38417436E+03</pdfrwt>
<pdfrwt beam="2">  1       -2 0.76188309E-02 0.38417436E+03</pdfrwt>
<totfact> 0.47812796E+03</totfact>
</mgrwt>
</event>
<event>
 4    1  0.1351183E-004  0.5434640E+03  0.7818608E-02  0.1003018E+00
          2   -1    0    0  501    0  0.00000000000E+00  0.00000000000E+00  0.33943362440E+03  0.33943362441E+03  0.25500000000E-02 0.  1.
         -2   -1    0    0    0  501 -0.00000000000E+00 -0.00000000000E+00 -0.21753378236E+03  0.21753378238E+03  0.25500000000E-02 0. -1.
    5000001    1    1    2    0    0  0.11383933853E+02  0.11727706848E+03  0.27549759178E+03  0.32544035984E+03  0.12700000000E+03 0.  0.
   -5000001    1    1    2    0    0 -0.11383933853E+02 -0.11727706848E+03 -0.15359774974E+03  0.23152704694E+03  0.12700000000E+03 0.  0.
<mgrwt>
<rscale>  0 0.54346400E+03</rscale>
<asrwt>0</asrwt>
<pdfrwt beam="1">  1        2 0.48490518E-01 0.54346400E+03</pdfrwt>
<pdfrwt beam="2">  1       -2 0.31076255E-01 0.54346400E+03</pdfrwt>
<totfact> 0.99906321E+02</totfact>
</mgrwt>
</event>
<event>
 4    1  0.1351183E-004  0.3168990E+03  0.7818608E-02  0.1077085E+00
         -2   -1    0    0    0  501 -0.00000000000E+00  0.00000000000E+00  0.20794525943E+03  0.20794525945E+03  0.25500000000E-02 0. -1.
          2   -1    0    0  501    0  0.00000000000E+00 -0.00000000000E+00 -0.12073488423E+03  0.12073488425E+03  0.25500000000E-02 0.  1.
    5000001    1    1    2    0    0  0.52350064147E+02  0.24496431507E+02  0.12147386876E+03  0.18500136530E+03  0.12700000000E+03 0.  0.
   -5000001    1    1    2    0    0 -0.52350064147E+02 -0.24496431507E+02 -0.34263493547E+02  0.14367877840E+03  0.12700000000E+03 0.  0.
<mgrwt>
<rscale>  0 0.31689902E+03</rscale>
<asrwt>0</asrwt>
<pdfrwt beam="1">  1        2 0.17247841E-01 0.31689902E+03</pdfrwt>
<pdfrwt beam="2">  1       -2 0.29706465E-01 0.31689902E+03</pdfrwt>
<totfact> 0.34404829E+03</totfact>
</mgrwt>
</event>
<event>
 4    1  0.1351183E-004  0.4857170E+03  0.7818608E-02  0.1017576E+00
          2   -1    0    0  501    0  0.00000000000E+00  0.00000000000E+00  0.12144385307E+04  0.12144385307E+04  0.25500000000E-02 0.  1.
         -2   -1    0    0    0  501 -0.00000000000E+00 -0.00000000000E+00 -0.48565858716E+02  0.48565858783E+02  0.25500000000E-02 0. -1.
    5000001    1    1    2    0    0 -0.17576906691E+03  0.16985462171E+02  0.30205726186E+03  0.37222420696E+03  0.12700000000E+03 0.  0.
   -5000001    1    1    2    0    0  0.17576906691E+03 -0.16985462171E+02  0.86381541009E+03  0.89078018249E+03  0.12700000000E+03 0.  0.
<mgrwt>
<rscale>  0 0.48571700E+03</rscale>
<asrwt>0</asrwt>
<pdfrwt beam="1">  1        2 0.17349125E+00 0.48571700E+03</pdfrwt>
<pdfrwt beam="2">  1       -2 0.69379788E-02 0.48571700E+03</pdfrwt>
<totfact> 0.26038294E+03</totfact>
</mgrwt>
</event>
<event>
 4    1  0.1351183E-004  0.9117034E+03  0.7818608E-02  0.9411069E-01
         -2   -1    0    0    0  501 -0.00000000000E+00  0.00000000000E+00  0.11154042816E+03  0.11154042818E+03  0.25500000000E-02 0. -1.
          2   -1    0    0  501    0  0.00000000000E+00 -0.00000000000E+00 -0.18630084073E+04  0.18630084073E+04  0.25500000000E-02 0.  1.
    5000001    1    1    2    0    0 -0.43125145750E+02 -0.38183538849E+03 -0.13301026073E+04  0.13903093138E+04  0.12700000000E+03 0.  0.
   -5000001    1    1    2    0    0  0.43125145750E+02  0.38183538849E+03 -0.42136537181E+03  0.58423952165E+03  0.12700000000E+03 0.  0.
<mgrwt>
<rscale>  0 0.91170336E+03</rscale>
<asrwt>0</asrwt>
<pdfrwt beam="1">  1        2 0.26614404E+00 0.91170336E+03</pdfrwt>
<pdfrwt beam="2">  1       -2 0.15934348E-01 0.91170336E+03</pdfrwt>
<totfact> 0.30037625E+02</totfact>
</mgrwt>
</event>
<event>
 4    1  0.1351183E-004  0.4852284E+03  0.7818608E-02  0.1017708E+00
         -2   -1    0    0    0  501 -0.00000000000E+00  0.00000000000E+00  0.85424749749E+02  0.85424749788E+02  0.25500000000E-02 0. -1.
          2   -1    0    0  501    0  0.00000000000E+00 -0.00000000000E+00 -0.68904676100E+03  0.68904676101E+03  0.25500000000E-02 0.  1.
    5000001    1    1    2    0    0 -0.59267774604E+02  0.16667590211E+03 -0.47251967834E+03  0.52028585592E+03  0.12700000000E+03 0.  0.
   -5000001    1    1    2    0    0  0.59267774604E+02 -0.16667590211E+03 -0.13110233291E+03  0.25418565488E+03  0.12700000000E+03 0.  0.
<mgrwt>
<rscale>  0 0.48522839E+03</rscale>
<asrwt>0</asrwt>
<pdfrwt beam="1">  1        2 0.98435249E-01 0.48522839E+03</pdfrwt>
<pdfrwt beam="2">  1       -2 0.12203536E-01 0.48522839E+03</pdfrwt>
<totfact> 0.22628322E+03</totfact>
</mgrwt>
</event>
<event>
 4    1  0.1351183E-004  0.4068434E+03  0.7818608E-02  0.1041435E+00
          2   -1    0    0  501    0  0.00000000000E+00  0.00000000000E+00  0.15675891021E+04  0.15675891021E+04  0.25500000000E-02 0.  1.
         -2   -1    0    0    0  501 -0.00000000000E+00 -0.00000000000E+00 -0.26397475303E+02  0.26397475426E+02  0.25500000000E-02 0. -1.
    5000001    1    1    2    0    0  0.12499117251E+03 -0.13487728889E+02  0.11513958780E+04  0.11651807499E+04  0.12700000000E+03 0.  0.
   -5000001    1    1    2    0    0 -0.12499117251E+03  0.13487728889E+02  0.38979574880E+03  0.42880582764E+03  0.12700000000E+03 0.  0.
<mgrwt>
<rscale>  0 0.40684343E+03</rscale>
<asrwt>0</asrwt>
<pdfrwt beam="1">  1        2 0.22394136E+00 0.40684343E+03</pdfrwt>
<pdfrwt beam="2">  1       -2 0.37710669E-02 0.40684343E+03</pdfrwt>
<totfact> 0.43434754E+03</totfact>
</mgrwt>
</event>
<event>
 4    1  0.1351183E-004  0.4379635E+03  0.7818608E-02  0.1031373E+00
          2   -1    0    0  501    0  0.00000000000E+00  0.00000000000E+00  0.15213723006E+03  0.15213723008E+03  0.25500000000E-02 0.  1.
         -2   -1    0    0    0  501 -0.00000000000E+00 -0.00000000000E+00 -0.31519572629E+03  0.31519572630E+03  0.25500000000E-02 0. -1.
    5000001    1    1    2    0    0 -0.11322637247E+03  0.12898260198E+03 -0.13344671212E+03  0.25178115103E+03  0.12700000000E+03 0.  0.
   -5000001    1    1    2    0    0  0.11322637247E+03 -0.12898260198E+03 -0.29611784104E+02  0.21555180536E+03  0.12700000000E+03 0.  0.
<mgrwt>
<rscale>  0 0.43796349E+03</rscale>
<asrwt>0</asrwt>
<pdfrwt beam="1">  1        2 0.21733890E-01 0.43796349E+03</pdfrwt>
<pdfrwt beam="2">  1       -2 0.45027961E-01 0.43796349E+03</pdfrwt>
<totfact> 0.12037266E+03</totfact>
</mgrwt>
</event>
<event>
 4    1  0.1351183E-004  0.4799352E+03  0.7818608E-02  0.1019153E+00
         -2   -1    0    0    0  501 -0.00000000000E+00  0.00000000000E+00  0.14669676622E+03  0.14669676625E+03  0.25500000000E-02 0. -1.
          2   -1    0    0  501    0  0.00000000000E+00 -0.00000000000E+00 -0.39254066469E+03  0.39254066470E+03  0.25500000000E-02 0.  1.
    5000001    1    1    2    0    0  0.89481258184E+02 -0.79768361451E+01  0.82370328111E+02  0.17602385189E+03  0.12700000000E+03 0.  0.
   -5000001    1    1    2    0    0 -0.89481258184E+02  0.79768361451E+01 -0.32821422658E+03  0.36321357905E+03  0.12700000000E+03 0.  0.
<mgrwt>
<rscale>  0 0.47993519E+03</rscale>
<asrwt>0</asrwt>
<pdfrwt beam="1">  1        2 0.56077238E-01 0.47993519E+03</pdfrwt>
<pdfrwt beam="2">  1       -2 0.20956681E-01 0.47993519E+03</pdfrwt>
<totfact> 0.17270672E+03</totfact>
</mgrwt>
</event>
<event>
 4    1  0.1351183E-004  0.3660601E+03  0.7818608E-02  0.1056210E+00
         -2   -1    0    0    0  501 -0.00000000000E+00  0.00000000000E+00  0.15203392381E+02  0.15203392595E+02  0.25500000000E-02 0. -1.
          2   -1    0    0  501    0  0.00000000000E+00 -0.00000000000E+00 -0.22034553348E+04  0.22034553348E+04  0.25500000000E-02 0.  1.
    5000001    1    1    2    0    0  0.23696322757E+02 -0.12939465585E+03 -0.10446993697E+04  0.10605801552E+04  0.12700000000E+03 0.  0.
   -5000001    1    1    2    0    0 -0.23696322757E+02  0.12939465585E+03 -0.11435525727E+04  0.11580785721E+04  0.12700000000E+03 0.  0.
<mgrwt>
<rscale>  0 0.36606008E+03</rscale>
<asrwt>0</asrwt>
<pdfrwt beam="1">  1        2 0.31477913E+00 0.36606008E+03</pdfrwt>
<pdfrwt beam="2">  1       -2 0.21719146E-02 0.36606008E+03</pdfrwt>
<totfact> 0.48042574E+03</totfact>
</mgrwt>
</event>
<event>
 4    1  0.1351183E-004  0.3840030E+03  0.7818608E-02  0.1049464E+00
          2   -1    0    0  501    0  0.00000000000E+00  0.00000000000E+00  0.23013711409E+03  0.23013711411E+03  0.25500000000E-02 0. -1.
         -2   -1    0    0    0  501 -0.00000000000E+00 -0.00000000000E+00 -0.16018530059E+03  0.16018530061E+03  0.25500000000E-02 0.  1.
    5000001    1    1    2    0    0  0.18826778329E+02 -0.12845891048E+03  0.98286087338E+02  0.20650737088E+03  0.12700000000E+03 0.  0.
   -5000001    1    1    2    0    0 -0.18826778329E+02  0.12845891048E+03 -0.28334273832E+02  0.18381504383E+03  0.12700000000E+03 0.  0.
<mgrwt>
<rscale>  0 0.38400304E+03</rscale>
<asrwt>0</asrwt>
<pdfrwt beam="1">  1        2 0.32876731E-01 0.38400304E+03</pdfrwt>
<pdfrwt beam="2">  1       -2 0.22883614E-01 0.38400304E+03</pdfrwt>
<totfact> 0.26515680E+03</totfact>
</mgrwt>
</event>
<event>
 4    1  0.1351183E-004  0.4761160E+03  0.7818608E-02  0.1020208E+00
          2   -1    0    0  501    0  0.00000000000E+00  0.00000000000E+00  0.12838010812E+04  0.12838010812E+04  0.25500000000E-02 0.  1.
         -2   -1    0    0    0  501 -0.00000000000E+00 -0.00000000000E+00 -0.44143608741E+02  0.44143608815E+02  0.25500000000E-02 0. -1.
    5000001    1    1    2    0    0 -0.18680646724E+03  0.66888657190E+02  0.52435018623E+03  0.57484160119E+03  0.12700000000E+03 0.  0.
   -5000001    1    1    2    0    0  0.18680646724E+03 -0.66888657190E+02  0.71530728627E+03  0.75310308886E+03  0.12700000000E+03 0.  0.
<mgrwt>
<rscale>  0 0.47611601E+03</rscale>
<asrwt>0</asrwt>
<pdfrwt beam="1">  1        2 0.18340017E+00 0.47611601E+03</pdfrwt>
<pdfrwt beam="2">  1       -2 0.63062294E-02 0.47611601E+03</pdfrwt>
<totfact> 0.27710421E+03</totfact>
</mgrwt>
</event>
<event>
 4    1  0.1351183E-004  0.3667460E+03  0.7818608E-02  0.1055944E+00
          2   -1    0    0  501    0  0.00000000000E+00  0.00000000000E+00  0.13684258586E+03  0.13684258588E+03  0.25500000000E-02 0.  1.
         -2   -1    0    0    0  501 -0.00000000000E+00 -0.00000000000E+00 -0.24572505988E+03  0.24572505989E+03  0.25500000000E-02 0. -1.
    5000001    1    1    2    0    0  0.85164515669E+02 -0.99032077834E+02 -0.32652191983E+02  0.18508244868E+03  0.12700000000E+03 0.  0.
   -5000001    1    1    2    0    0 -0.85164515669E+02  0.99032077834E+02 -0.76230282038E+02  0.19748519709E+03  0.12700000000E+03 0.  0.
<mgrwt>
<rscale>  0 0.36674598E+03</rscale>
<asrwt>0</asrwt>
<pdfrwt beam="1">  1        2 0.19548941E-01 0.36674598E+03</pdfrwt>
<pdfrwt beam="2">  1       -2 0.35103580E-01 0.36674598E+03</pdfrwt>
<totfact> 0.21914488E+03</totfact>
</mgrwt>
</event>
<event>
 4    1  0.1351183E-004  0.4096281E+03  0.7818608E-02  0.1040496E+00
         -2   -1    0    0    0  501 -0.00000000000E+00  0.00000000000E+00  0.82813339670E+03  0.82813339670E+03  0.25500000000E-02 0. -1.
          2   -1    0    0  501    0  0.00000000000E+00 -0.00000000000E+00 -0.50654637338E+02  0.50654637402E+02  0.25500000000E-02 0.  1.
    5000001    1    1    2    0    0 -0.12537738840E+03 -0.43606361094E+02  0.19448566344E+03  0.26753444177E+03  0.12700000000E+03 0.  0.
   -5000001    1    1    2    0    0  0.12537738840E+03  0.43606361094E+02  0.58299309592E+03  0.61125359234E+03  0.12700000000E+03 0.  0.
<mgrwt>
<rscale>  0 0.40962811E+03</rscale>
<asrwt>0</asrwt>
<pdfrwt beam="1">  1        2 0.72363771E-02 0.40962811E+03</pdfrwt>
<pdfrwt beam="2">  1       -2 0.11830476E+00 0.40962811E+03</pdfrwt>
<totfact> 0.55999533E+02</totfact>
</mgrwt>
</event>
<event>
 4    1  0.1351183E-004  0.3687902E+03  0.7818608E-02  0.1055157E+00
          2   -1    0    0  501    0  0.00000000000E+00  0.00000000000E+00  0.90953907700E+03  0.90953907700E+03  0.25500000000E-02 0.  1.
         -2   -1    0    0    0  501 -0.00000000000E+00 -0.00000000000E+00 -0.37383273142E+02  0.37383273229E+02  0.25500000000E-02 0. -1.
    5000001    1    1    2    0    0 -0.11637503158E+03 -0.48877606775E+02  0.54918200307E+03  0.57763486816E+03  0.12700000000E+03 0.  0.
   -5000001    1    1    2    0    0  0.11637503158E+03  0.48877606775E+02  0.32297380079E+03  0.36928748207E+03  0.12700000000E+03 0.  0.
<mgrwt>
<rscale>  0 0.36879017E+03</rscale>
<asrwt>0</asrwt>
<pdfrwt beam="1">  1        2 0.12993415E+00 0.36879017E+03</pdfrwt>
<pdfrwt beam="2">  1       -2 0.53404679E-02 0.36879017E+03</pdfrwt>
<totfact> 0.58879664E+03</totfact>
</mgrwt>
</event>
<event>
 4    1  0.1351183E-004  0.6112607E+03  0.7818608E-02  0.9882315E-01
         -2   -1    0    0    0  501 -0.00000000000E+00  0.00000000000E+00  0.32291818916E+02  0.32291819017E+02  0.25500000000E-02 0. -1.
          2   -1    0    0  501    0  0.00000000000E+00 -0.00000000000E+00 -0.28926799052E+04  0.28926799052E+04  0.25500000000E-02 0.  1.
    5000001    1    1    2    0    0 -0.66535831868E+01 -0.27695716942E+03 -0.15404968028E+04  0.15703531270E+04  0.12700000000E+03 0.  0.
   -5000001    1    1    2    0    0  0.66535831868E+01  0.27695716942E+03 -0.13198912834E+04  0.13546185972E+04  0.12700000000E+03 0.  0.
<mgrwt>
<rscale>  0 0.61126065E+03</rscale>
<asrwt>0</asrwt>
<pdfrwt beam="1">  1        2 0.41323983E+00 0.61126065E+03</pdfrwt>
<pdfrwt beam="2">  1       -2 0.46131188E-02 0.61126065E+03</pdfrwt>
<totfact> 0.66943517E+02</totfact>
</mgrwt>
</event>
<event>
 4    1  0.1351183E-004  0.3580851E+03  0.7818608E-02  0.1059345E+00
          2   -1    0    0  501    0  0.00000000000E+00  0.00000000000E+00  0.46495509711E+02  0.46495509781E+02  0.25500000000E-02 0.  1.
         -2   -1    0    0    0  501 -0.00000000000E+00 -0.00000000000E+00 -0.68944792641E+03  0.68944792642E+03  0.25500000000E-02 0. -1.
    5000001    1    1    2    0    0  0.16466593404E+02 -0.11432760300E+03 -0.42597524037E+03  0.45926664903E+03  0.12700000000E+03 0.  0.
   -5000001    1    1    2    0    0 -0.16466593404E+02  0.11432760300E+03 -0.21697717633E+03  0.27667678716E+03  0.12700000000E+03 0.  0.
<mgrwt>
<rscale>  0 0.35808509E+03</rscale>
<asrwt>0</asrwt>
<pdfrwt beam="1">  1        2 0.66422161E-02 0.35808509E+03</pdfrwt>
<pdfrwt beam="2">  1       -2 0.98492554E-01 0.35808509E+03</pdfrwt>
<totfact> 0.96725070E+02</totfact>
</mgrwt>
</event>
<event>
 4    1  0.1351183E-004  0.3251503E+03  0.7818608E-02  0.1073303E+00
          2   -1    0    0  501    0  0.00000000000E+00  0.00000000000E+00  0.59666883015E+03  0.59666883016E+03  0.25500000000E-02 0.  1.
         -2   -1    0    0    0  501 -0.00000000000E+00 -0.00000000000E+00 -0.44297070314E+02  0.44297070388E+02  0.25500000000E-02 0. -1.
    5000001    1    1    2    0    0  0.65744353883E+01  0.71772794060E+02  0.13530925037E+03  0.19907825196E+03  0.12700000000E+03 0.  0.
   -5000001    1    1    2    0    0 -0.65744353883E+01 -0.71772794060E+02  0.41706250947E+03  0.44188764859E+03  0.12700000000E+03 0.  0.
<mgrwt>
<rscale>  0 0.32515031E+03</rscale>
<asrwt>0</asrwt>
<pdfrwt beam="1">  1        2 0.85238402E-01 0.32515031E+03</pdfrwt>
<pdfrwt beam="2">  1       -2 0.63281531E-02 0.32515031E+03</pdfrwt>
<totfact> 0.75640223E+03</totfact>
</mgrwt>
</event>
<event>
 4    1  0.1351183E-004  0.2975451E+03  0.7818608E-02  0.1086474E+00
         -2   -1    0    0    0  501 -0.00000000000E+00  0.00000000000E+00  0.14098316780E+02  0.14098317011E+02  0.25500000000E-02 0. -1.
          2   -1    0    0  501    0  0.00000000000E+00 -0.00000000000E+00 -0.15699224839E+04  0.15699224839E+04  0.25500000000E-02 0.  1.
    5000001    1    1    2    0    0 -0.55656830812E+01  0.40889251411E+02 -0.11270611532E+04  0.11349443822E+04  0.12700000000E+03 0.  0.
   -5000001    1    1    2    0    0  0.55656830812E+01 -0.40889251411E+02 -0.42876301392E+03  0.44907641868E+03  0.12700000000E+03 0.  0.
<mgrwt>
<rscale>  0 0.29754505E+03</rscale>
<asrwt>0</asrwt>
<pdfrwt beam="1">  1        2 0.22427453E+00 0.29754505E+03</pdfrwt>
<pdfrwt beam="2">  1       -2 0.20140463E-02 0.29754505E+03</pdfrwt>
<totfact> 0.11025698E+04</totfact>
</mgrwt>
</event>
<event>
 4    1  0.1351183E-004  0.3150779E+03  0.7818608E-02  0.1077937E+00
         -2   -1    0    0    0  501 -0.00000000000E+00  0.00000000000E+00  0.15801515954E+02  0.15801516160E+02  0.25500000000E-02 0. -1.
          2   -1    0    0  501    0  0.00000000000E+00 -0.00000000000E+00 -0.15706419191E+04  0.15706419191E+04  0.25500000000E-02 0.  1.
    5000001    1    1    2    0    0 -0.23776416815E+02 -0.60857569792E+02 -0.11121892937E+04  0.11213219818E+04  0.12700000000E+03 0.  0.
   -5000001    1    1    2    0    0  0.23776416815E+02  0.60857569792E+02 -0.44265110943E+03  0.46512145347E+03  0.12700000000E+03 0.  0.
<mgrwt>
<rscale>  0 0.31507792E+03</rscale>
<asrwt>0</asrwt>
<pdfrwt beam="1">  1        2 0.22437732E+00 0.31507792E+03</pdfrwt>
<pdfrwt beam="2">  1       -2 0.22573604E-02 0.31507792E+03</pdfrwt>
<totfact> 0.93176611E+03</totfact>
</mgrwt>
</event>
<event>
 4    1  0.1351183E-004  0.5878336E+03  0.7818608E-02  0.9930974E-01
          2   -1    0    0  501    0  0.00000000000E+00  0.00000000000E+00  0.38796946681E+03  0.38796946682E+03  0.25500000000E-02 0.  1.
         -2   -1    0    0    0  501 -0.00000000000E+00 -0.00000000000E+00 -0.22266467644E+03  0.22266467645E+03  0.25500000000E-02 0. -1.
    5000001    1    1    2    0    0 -0.25700698421E+02 -0.88037711157E+02 -0.17568407979E+03  0.23538279542E+03  0.12700000000E+03 0.  0.
   -5000001    1    1    2    0    0  0.25700698421E+02  0.88037711157E+02  0.34098887017E+03  0.37525134785E+03  0.12700000000E+03 0.  0.
<mgrwt>
<rscale>  0 0.58783364E+03</rscale>
<asrwt>0</asrwt>
<pdfrwt beam="1">  1        2 0.55424210E-01 0.58783364E+03</pdfrwt>
<pdfrwt beam="2">  1       -2 0.31809239E-01 0.58783364E+03</pdfrwt>
<totfact> 0.82507261E+02</totfact>
</mgrwt>
</event>
<event>
 4    1  0.1351183E-004  0.5429930E+03  0.7818608E-02  0.1003129E+00
         -2   -1    0    0    0  501 -0.00000000000E+00  0.00000000000E+00  0.78137650220E+02  0.78137650262E+02  0.25500000000E-02 0. -1.
          2   -1    0    0  501    0  0.00000000000E+00 -0.00000000000E+00 -0.94333984196E+03  0.94333984196E+03  0.25500000000E-02 0.  1.
    5000001    1    1    2    0    0 -0.16709388541E+03 -0.27268459092E+00 -0.10861465424E+03  0.23631881858E+03  0.12700000000E+03 0.  0.
   -5000001    1    1    2    0    0  0.16709388541E+03  0.27268459092E+00 -0.75658753750E+03  0.78515867364E+03  0.12700000000E+03 0.  0.
<mgrwt>
<rscale>  0 0.54299303E+03</rscale>
<asrwt>0</asrwt>
<pdfrwt beam="1">  1        2 0.13476283E+00 0.54299303E+03</pdfrwt>
<pdfrwt beam="2">  1       -2 0.11162522E-01 0.54299303E+03</pdfrwt>
<totfact> 0.17527362E+03</totfact>
</mgrwt>
</event>
<event>
 4    1  0.1351183E-004  0.3348860E+03  0.7818608E-02  0.1068995E+00
          2   -1    0    0  501    0  0.00000000000E+00  0.00000000000E+00  0.93623855307E+03  0.93623855307E+03  0.25500000000E-02 0.  1.
         -2   -1    0    0    0  501 -0.00000000000E+00 -0.00000000000E+00 -0.29946599224E+02  0.29946599332E+02  0.25500000000E-02 0. -1.
    5000001    1    1    2    0    0  0.10489363100E+03 -0.25461359999E+02  0.40687549934E+03  0.43969037588E+03  0.12700000000E+03 0.  0.
   -5000001    1    1    2    0    0 -0.10489363100E+03  0.25461359999E+02  0.49941645450E+03  0.52649477652E+03  0.12700000000E+03 0.  0.
<mgrwt>
<rscale>  0 0.33488602E+03</rscale>
<asrwt>0</asrwt>
<pdfrwt beam="1">  1        2 0.13374836E+00 0.33488602E+03</pdfrwt>
<pdfrwt beam="2">  1       -2 0.42780857E-02 0.33488602E+03</pdfrwt>
<totfact> 0.79343548E+03</totfact>
</mgrwt>
</event>
<event>
 4    1  0.1351183E-004  0.5460973E+03  0.7818608E-02  0.1002401E+00
          2   -1    0    0  501    0  0.00000000000E+00  0.00000000000E+00  0.12869319345E+03  0.12869319347E+03  0.25500000000E-02 0.  1.
         -2   -1    0    0    0  501 -0.00000000000E+00 -0.00000000000E+00 -0.57932789646E+03  0.57932789646E+03  0.25500000000E-02 0. -1.
    5000001    1    1    2    0    0 -0.15144959487E+03  0.18711145113E+03 -0.25368938762E+03  0.37206851563E+03  0.12700000000E+03 0.  0.
   -5000001    1    1    2    0    0  0.15144959487E+03 -0.18711145113E+03 -0.19694531539E+03  0.33595257431E+03  0.12700000000E+03 0.  0.
<mgrwt>
<rscale>  0 0.54609727E+03</rscale>
<asrwt>0</asrwt>
<pdfrwt beam="1">  1        2 0.18384742E-01 0.54609727E+03</pdfrwt>
<pdfrwt beam="2">  1       -2 0.82761127E-01 0.54609727E+03</pdfrwt>
<totfact> 0.40589579E+02</totfact>
</mgrwt>
</event>
<event>
 4    1  0.1351183E-004  0.2736833E+04  0.7818608E-02  0.8323152E-01
          2   -1    0    0  501    0  0.00000000000E+00  0.00000000000E+00  0.25645118543E+04  0.25645118543E+04  0.25500000000E-02 0.  1.
         -2   -1    0    0    0  501 -0.00000000000E+00 -0.00000000000E+00 -0.73018341041E+03  0.73018341042E+03  0.25500000000E-02 0. -1.
    5000001    1    1    2    0    0 -0.12637142022E+04 -0.99395137253E+02  0.15185782851E+04  0.19821861634E+04  0.12700000000E+03 0.  0.
   -5000001    1    1    2    0    0  0.12637142022E+04  0.99395137253E+02  0.31575015873E+03  0.13125091013E+04  0.12700000000E+03 0.  0.
<mgrwt>
<rscale>  0 0.27368332E+04</rscale>
<asrwt>0</asrwt>
<pdfrwt beam="1">  1        2 0.36635884E+00 0.27368332E+04</pdfrwt>
<pdfrwt beam="2">  1       -2 0.10431191E+00 0.27368332E+04</pdfrwt>
<totfact> 0.26782637E+00</totfact>
</mgrwt>
</event>
<event>
 4    1  0.1351183E-004  0.8578655E+03  0.7818608E-02  0.9479841E-01
          2   -1    0    0  501    0  0.00000000000E+00  0.00000000000E+00  0.19693593552E+04  0.19693593552E+04  0.25500000000E-02 0.  1.
         -2   -1    0    0    0  501 -0.00000000000E+00 -0.00000000000E+00 -0.93422918320E+02  0.93422918355E+02  0.25500000000E-02 0. -1.
    5000001    1    1    2    0    0 -0.33399191103E+03  0.23691400486E+03  0.96981885870E+03  0.10603567612E+04  0.12700000000E+03 0.  0.
   -5000001    1    1    2    0    0  0.33399191103E+03 -0.23691400486E+03  0.90611757817E+03  0.10024255123E+04  0.12700000000E+03 0.  0.
<mgrwt>
<rscale>  0 0.85786549E+03</rscale>
<asrwt>0</asrwt>
<pdfrwt beam="1">  1        2 0.28133702E+00 0.85786549E+03</pdfrwt>
<pdfrwt beam="2">  1       -2 0.13346133E-01 0.85786549E+03</pdfrwt>
<totfact> 0.35902797E+02</totfact>
</mgrwt>
</event>
<event>
 4    1  0.1351183E-004  0.7245477E+03  0.7818608E-02  0.9676149E-01
         -2   -1    0    0    0  501 -0.00000000000E+00  0.00000000000E+00  0.22605214498E+03  0.22605214500E+03  0.25500000000E-02 0.  1.
          2   -1    0    0  501    0  0.00000000000E+00 -0.00000000000E+00 -0.58058438947E+03  0.58058438947E+03  0.25500000000E-02 0. -1.
    5000001    1    1    2    0    0  0.28399375438E+03 -0.60771915005E+02  0.18014069325E+02  0.31748887362E+03  0.12700000000E+03 0.  0.
   -5000001    1    1    2    0    0 -0.28399375438E+03  0.60771915005E+02 -0.37254631381E+03  0.48914766085E+03  0.12700000000E+03 0.  0.
<mgrwt>
<rscale>  0 0.72454771E+03</rscale>
<asrwt>0</asrwt>
<pdfrwt beam="1">  1        2 0.82940627E-01 0.72454771E+03</pdfrwt>
<pdfrwt beam="2">  1       -2 0.32293164E-01 0.72454771E+03</pdfrwt>
<totfact> 0.50603890E+02</totfact>
</mgrwt>
</event>
<event>
 4    1  0.1351183E-004  0.3188468E+03  0.7818608E-02  0.1076181E+00
          2   -1    0    0  501    0  0.00000000000E+00  0.00000000000E+00  0.21285937409E+02  0.21285937562E+02  0.25500000000E-02 0.  1.
         -2   -1    0    0    0  501 -0.00000000000E+00 -0.00000000000E+00 -0.11940196780E+04  0.11940196780E+04  0.25500000000E-02 0. -1.
    5000001    1    1    2    0    0  0.32949527473E+02  0.63050715331E+02 -0.83414102508E+03  0.84674749116E+03  0.12700000000E+03 0.  0.
   -5000001    1    1    2    0    0 -0.32949527473E+02 -0.63050715331E+02 -0.33859271547E+03  0.36855812436E+03  0.12700000000E+03 0.  0.
<mgrwt>
<rscale>  0 0.31884685E+03</rscale>
<asrwt>0</asrwt>
<pdfrwt beam="1">  1        2 0.30408490E-02 0.31884685E+03</pdfrwt>
<pdfrwt beam="2">  1       -2 0.17057420E+00 0.31884685E+03</pdfrwt>
<totfact> 0.69645542E+02</totfact>
</mgrwt>
</event>
<event>
 4    1  0.1351183E-004  0.3531672E+03  0.7818608E-02  0.1061323E+00
         -2   -1    0    0    0  501 -0.00000000000E+00  0.00000000000E+00  0.91646249673E+02  0.91646249708E+02  0.25500000000E-02 0. -1.
          2   -1    0    0  501    0  0.00000000000E+00 -0.00000000000E+00 -0.34024059766E+03  0.34024059767E+03  0.25500000000E-02 0.  1.
    5000001    1    1    2    0    0  0.11551380616E+03 -0.40382948785E+01 -0.73979381714E+02  0.18698046999E+03  0.12700000000E+03 0.  0.
   -5000001    1    1    2    0    0 -0.11551380616E+03  0.40382948785E+01 -0.17461496627E+03  0.24490637739E+03  0.12700000000E+03 0.  0.
<mgrwt>
<rscale>  0 0.35316724E+03</rscale>
<asrwt>0</asrwt>
<pdfrwt beam="1">  1        2 0.48605799E-01 0.35316724E+03</pdfrwt>
<pdfrwt beam="2">  1       -2 0.13092322E-01 0.35316724E+03</pdfrwt>
<totfact> 0.44482797E+03</totfact>
</mgrwt>
</event>
<event>
 4    1  0.1351183E-004  0.5131546E+03  0.7818608E-02  0.1010401E+00
         -2   -1    0    0    0  501 -0.00000000000E+00  0.00000000000E+00  0.11988770880E+03  0.11988770882E+03  0.25500000000E-02 0. -1.
          2   -1    0    0  501    0  0.00000000000E+00 -0.00000000000E+00 -0.54911319562E+03  0.54911319563E+03  0.25500000000E-02 0.  1.
    5000001    1    1    2    0    0 -0.90584608067E+02  0.19950689231E+03 -0.26827639339E+03  0.36893060940E+03  0.12700000000E+03 0.  0.
   -5000001    1    1    2    0    0  0.90584608067E+02 -0.19950689231E+03 -0.16094909343E+03  0.30007029506E+03  0.12700000000E+03 0.  0.
<mgrwt>
<rscale>  0 0.51315465E+03</rscale>
<asrwt>0</asrwt>
<pdfrwt beam="1">  1        2 0.78444741E-01 0.51315465E+03</pdfrwt>
<pdfrwt beam="2">  1       -2 0.17126816E-01 0.51315465E+03</pdfrwt>
<totfact> 0.16782873E+03</totfact>
</mgrwt>
</event>
<event>
 4    1  0.1351183E-004  0.4595584E+03  0.7818608E-02  0.1024909E+00
          2   -1    0    0  501    0  0.00000000000E+00  0.00000000000E+00  0.55731657879E+03  0.55731657879E+03  0.25500000000E-02 0.  1.
         -2   -1    0    0    0  501 -0.00000000000E+00 -0.00000000000E+00 -0.94736968080E+02  0.94736968115E+02  0.25500000000E-02 0. -1.
    5000001    1    1    2    0    0  0.79454022550E+02 -0.14410105916E+03  0.92331620003E+02  0.22744710375E+03  0.12700000000E+03 0.  0.
   -5000001    1    1    2    0    0 -0.79454022550E+02  0.14410105916E+03  0.37024799070E+03  0.42460644316E+03  0.12700000000E+03 0.  0.
<mgrwt>
<rscale>  0 0.45955841E+03</rscale>
<asrwt>0</asrwt>
<pdfrwt beam="1">  1        2 0.79616652E-01 0.45955841E+03</pdfrwt>
<pdfrwt beam="2">  1       -2 0.13533853E-01 0.45955841E+03</pdfrwt>
<totfact> 0.24480599E+03</totfact>
</mgrwt>
</event>
<event>
 4    1  0.1351183E-004  0.4203984E+03  0.7818608E-02  0.1036937E+00
         -2   -1    0    0    0  501 -0.00000000000E+00  0.00000000000E+00  0.44769375098E+02  0.44769375171E+02  0.25500000000E-02 0. -1.
          2   -1    0    0  501    0  0.00000000000E+00 -0.00000000000E+00 -0.98691806702E+03  0.98691806702E+03  0.25500000000E-02 0.  1.
    5000001    1    1    2    0    0 -0.79950226009E+02  0.13410128476E+03 -0.61993577776E+03  0.65178567165E+03  0.12700000000E+03 0.  0.
   -5000001    1    1    2    0    0  0.79950226009E+02 -0.13410128476E+03 -0.32221291416E+03  0.37990177055E+03  0.12700000000E+03 0.  0.
<mgrwt>
<rscale>  0 0.42039841E+03</rscale>
<asrwt>0</asrwt>
<pdfrwt beam="1">  1        2 0.14098828E+00 0.42039841E+03</pdfrwt>
<pdfrwt beam="2">  1       -2 0.63956256E-02 0.42039841E+03</pdfrwt>
<totfact> 0.39985589E+03</totfact>
</mgrwt>
</event>
<event>
 4    1  0.1351183E-004  0.6161073E+03  0.7818608E-02  0.9872541E-01
          2   -1    0    0  501    0  0.00000000000E+00  0.00000000000E+00  0.61365053464E+03  0.61365053465E+03  0.25500000000E-02 0.  1.
         -2   -1    0    0    0  501 -0.00000000000E+00 -0.00000000000E+00 -0.15464349012E+03  0.15464349014E+03  0.25500000000E-02 0. -1.
    5000001    1    1    2    0    0 -0.12661229503E+02 -0.23344334112E+03  0.35866971137E+02  0.26846143087E+03  0.12700000000E+03 0.  0.
   -5000001    1    1    2    0    0  0.12661229503E+02  0.23344334112E+03  0.42314007338E+03  0.49983259392E+03  0.12700000000E+03 0.  0.
<mgrwt>
<rscale>  0 0.61610733E+03</rscale>
<asrwt>0</asrwt>
<pdfrwt beam="1">  1        2 0.87664363E-01 0.61610733E+03</pdfrwt>
<pdfrwt beam="2">  1       -2 0.22091927E-01 0.61610733E+03</pdfrwt>
<totfact> 0.94769410E+02</totfact>
</mgrwt>
</event>
<event>
 4    1  0.1351183E-004  0.3592151E+03  0.7818608E-02  0.1058895E+00
         -2   -1    0    0    0  501 -0.00000000000E+00  0.00000000000E+00  0.25837839498E+02  0.25837839624E+02  0.25500000000E-02 0. -1.
          2   -1    0    0  501    0  0.00000000000E+00 -0.00000000000E+00 -0.12485124665E+04  0.12485124665E+04  0.25500000000E-02 0.  1.
    5000001    1    1    2    0    0 -0.24485545536E+02 -0.12373198645E+03 -0.66404252385E+03  0.68774313511E+03  0.12700000000E+03 0.  0.
   -5000001    1    1    2    0    0  0.24485545536E+02  0.12373198645E+03 -0.55863210311E+03  0.58660717097E+03  0.12700000000E+03 0.  0.
<mgrwt>
<rscale>  0 0.35921506E+03</rscale>
<asrwt>0</asrwt>
<pdfrwt beam="1">  1        2 0.17835889E+00 0.35921506E+03</pdfrwt>
<pdfrwt beam="2">  1       -2 0.36911207E-02 0.35921506E+03</pdfrwt>
<totfact> 0.65774680E+03</totfact>
</mgrwt>
</event>
<event>
 4    1  0.1351183E-004  0.3178323E+03  0.7818608E-02  0.1076651E+00
         -2   -1    0    0    0  501 -0.00000000000E+00  0.00000000000E+00  0.44856507248E+02  0.44856507321E+02  0.25500000000E-02 0. -1.
          2   -1    0    0  501    0  0.00000000000E+00 -0.00000000000E+00 -0.56300272493E+03  0.56300272494E+03  0.25500000000E-02 0.  1.
    5000001    1    1    2    0    0  0.40610404326E+02 -0.20962273693E+02 -0.98641479178E+02  0.16717584536E+03  0.12700000000E+03 0.  0.
   -5000001    1    1    2    0    0 -0.40610404326E+02  0.20962273693E+02 -0.41950473850E+03  0.44068338690E+03  0.12700000000E+03 0.  0.
<mgrwt>
<rscale>  0 0.31783226E+03</rscale>
<asrwt>0</asrwt>
<pdfrwt beam="1">  1        2 0.80428956E-01 0.31783226E+03</pdfrwt>
<pdfrwt beam="2">  1       -2 0.64080728E-02 0.31783226E+03</pdfrwt>
<totfact> 0.79211928E+03</totfact>
</mgrwt>
</event>
<event>
 4    1  0.1351183E-004  0.3359479E+03  0.7818608E-02  0.1068535E+00
         -2   -1    0    0    0  501 -0.00000000000E+00  0.00000000000E+00  0.16028208866E+02  0.16028209069E+02  0.25500000000E-02 0. -1.
          2   -1    0    0  501    0  0.00000000000E+00 -0.00000000000E+00 -0.17603496968E+04  0.17603496968E+04  0.25500000000E-02 0.  1.
    5000001    1    1    2    0    0 -0.11378310827E+02  0.10869001144E+03 -0.80887026513E+03  0.82604061060E+03  0.12700000000E+03 0.  0.
   -5000001    1    1    2    0    0  0.11378310827E+02 -0.10869001144E+03 -0.93545122279E+03  0.95033729526E+03  0.12700000000E+03 0.  0.
<mgrwt>
<rscale>  0 0.33594793E+03</rscale>
<asrwt>0</asrwt>
<pdfrwt beam="1">  1        2 0.25147841E+00 0.33594793E+03</pdfrwt>
<pdfrwt beam="2">  1       -2 0.22897453E-02 0.33594793E+03</pdfrwt>
<totfact> 0.73445103E+03</totfact>
</mgrwt>
</event>
<event>
 4    1  0.1351183E-004  0.3568288E+03  0.7818608E-02  0.1059847E+00
          2   -1    0    0  501    0  0.00000000000E+00  0.00000000000E+00  0.18203391773E+03  0.18203391775E+03  0.25500000000E-02 0.  1.
         -2   -1    0    0    0  501 -0.00000000000E+00 -0.00000000000E+00 -0.17486680366E+03  0.17486680368E+03  0.25500000000E-02 0. -1.
    5000001    1    1    2    0    0  0.32172839546E+02  0.75186729106E+02  0.98547709578E+02  0.18035738660E+03  0.12700000000E+03 0.  0.
   -5000001    1    1    2    0    0 -0.32172839546E+02 -0.75186729106E+02 -0.91380595504E+02  0.17654333483E+03  0.12700000000E+03 0.  0.
<mgrwt>
<rscale>  0 0.35682875E+03</rscale>
<asrwt>0</asrwt>
<pdfrwt beam="1">  1        2 0.26004845E-01 0.35682875E+03</pdfrwt>
<pdfrwt beam="2">  1       -2 0.24980972E-01 0.35682875E+03</pdfrwt>
<totfact> 0.29430823E+03</totfact>
</mgrwt>
</event>
<event>
 4    1  0.1351183E-004  0.4450382E+03  0.7818608E-02  0.1029212E+00
         -2   -1    0    0    0  501 -0.00000000000E+00  0.00000000000E+00  0.16637509923E+02  0.16637510119E+02  0.25500000000E-02 0. -1.
          2   -1    0    0  501    0  0.00000000000E+00 -0.00000000000E+00 -0.29760912075E+04  0.29760912075E+04  0.25500000000E-02 0.  1.
    5000001    1    1    2    0    0 -0.15896919479E+03 -0.50787347740E+02 -0.97942022981E+03  0.10016204601E+04  0.12700000000E+03 0.  0.
   -5000001    1    1    2    0    0  0.15896919479E+03  0.50787347740E+02 -0.19800334677E+04  0.19911082575E+04  0.12700000000E+03 0.  0.
<mgrwt>
<rscale>  0 0.44503819E+03</rscale>
<asrwt>0</asrwt>
<pdfrwt beam="1">  1        2 0.42515555E+00 0.44503819E+03</pdfrwt>
<pdfrwt beam="2">  1       -2 0.23767890E-02 0.44503819E+03</pdfrwt>
<totfact> 0.16806946E+03</totfact>
</mgrwt>
</event>
<event>
 4    1  0.1351183E-004  0.3152219E+03  0.7818608E-02  0.1077870E+00
         -2   -1    0    0    0  501 -0.00000000000E+00  0.00000000000E+00  0.38285178392E+02  0.38285178477E+02  0.25500000000E-02 0. -1.
          2   -1    0    0  501    0  0.00000000000E+00 -0.00000000000E+00 -0.64884667121E+03  0.64884667121E+03  0.25500000000E-02 0.  1.
    5000001    1    1    2    0    0  0.27341246648E+02  0.48501631151E+02 -0.46858313691E+03  0.48867075643E+03  0.12700000000E+03 0.  0.
   -5000001    1    1    2    0    0 -0.27341246648E+02 -0.48501631151E+02 -0.14197835591E+03  0.19846109326E+03  0.12700000000E+03 0.  0.
<mgrwt>
<rscale>  0 0.31522189E+03</rscale>
<asrwt>0</asrwt>
<pdfrwt beam="1">  1        2 0.92692375E-01 0.31522189E+03</pdfrwt>
<pdfrwt beam="2">  1       -2 0.54693116E-02 0.31522189E+03</pdfrwt>
<totfact> 0.85828225E+03</totfact>
</mgrwt>
</event>
<event>
 4    1  0.1351183E-004  0.4035708E+03  0.7818608E-02  0.1042550E+00
          2   -1    0    0  501    0  0.00000000000E+00  0.00000000000E+00  0.16123241833E+04  0.16123241833E+04  0.25500000000E-02 0.  1.
         -2   -1    0    0    0  501 -0.00000000000E+00 -0.00000000000E+00 -0.25253825965E+02  0.25253826094E+02  0.25500000000E-02 0. -1.
    5000001    1    1    2    0    0  0.75363429076E+02  0.96833629073E+02  0.11896975718E+04  0.12027326014E+04  0.12700000000E+03 0.  0.
   -5000001    1    1    2    0    0 -0.75363429076E+02 -0.96833629073E+02  0.39737278559E+03  0.43484540804E+03  0.12700000000E+03 0.  0.
<mgrwt>
<rscale>  0 0.40357083E+03</rscale>
<asrwt>0</asrwt>
<pdfrwt beam="1">  1        2 0.23033194E+00 0.40357083E+03</pdfrwt>
<pdfrwt beam="2">  1       -2 0.36076908E-02 0.40357083E+03</pdfrwt>
<totfact> 0.44088268E+03</totfact>
</mgrwt>
</event>
<event>
 4    1  0.1351183E-004  0.3471999E+03  0.7818608E-02  0.1063770E+00
         -2   -1    0    0    0  501 -0.00000000000E+00  0.00000000000E+00  0.24827778774E+03  0.24827778776E+03  0.25500000000E-02 0. -1.
          2   -1    0    0  501    0  0.00000000000E+00 -0.00000000000E+00 -0.12138395514E+03  0.12138395517E+03  0.25500000000E-02 0.  1.
    5000001    1    1    2    0    0  0.24197200819E+02  0.41743727649E+02 -0.51618399367E+02  0.14533238620E+03  0.12700000000E+03 0.  0.
   -5000001    1    1    2    0    0 -0.24197200819E+02 -0.41743727649E+02  0.17851223197E+03  0.22432935672E+03  0.12700000000E+03 0.  0.
<mgrwt>
<rscale>  0 0.34719988E+03</rscale>
<asrwt>0</asrwt>
<pdfrwt beam="1">  1        2 0.17340565E-01 0.34719988E+03</pdfrwt>
<pdfrwt beam="2">  1       -2 0.35468255E-01 0.34719988E+03</pdfrwt>
<totfact> 0.24692013E+03</totfact>
</mgrwt>
</event>
<event>
 4    1  0.1351183E-004  0.3439131E+03  0.7818608E-02  0.1065141E+00
         -2   -1    0    0    0  501 -0.00000000000E+00  0.00000000000E+00  0.22941499854E+02  0.22941499996E+02  0.25500000000E-02 0. -1.
          2   -1    0    0  501    0  0.00000000000E+00 -0.00000000000E+00 -0.12888893709E+04  0.12888893709E+04  0.25500000000E-02 0.  1.
    5000001    1    1    2    0    0  0.81181597634E+02  0.44089668011E+02 -0.36580877070E+03  0.39809472157E+03  0.12700000000E+03 0.  0.
   -5000001    1    1    2    0    0 -0.81181597634E+02 -0.44089668011E+02 -0.90013910031E+03  0.91373614930E+03  0.12700000000E+03 0.  0.
<mgrwt>
<rscale>  0 0.34391310E+03</rscale>
<asrwt>0</asrwt>
<pdfrwt beam="1">  1        2 0.18412701E+00 0.34391310E+03</pdfrwt>
<pdfrwt beam="2">  1       -2 0.32773580E-02 0.34391310E+03</pdfrwt>
<totfact> 0.74795386E+03</totfact>
</mgrwt>
</event>
<event>
 4    1  0.1351183E-004  0.3732586E+03  0.7818608E-02  0.1053454E+00
         -2   -1    0    0    0  501 -0.00000000000E+00  0.00000000000E+00  0.10608336312E+02  0.10608336618E+02  0.25500000000E-02 0. -1.
          2   -1    0    0  501    0  0.00000000000E+00 -0.00000000000E+00 -0.32833138140E+04  0.32833138140E+04  0.25500000000E-02 0.  1.
    5000001    1    1    2    0    0 -0.12400713801E+03 -0.57208732975E+02 -0.15734003414E+04  0.15844141642E+04  0.12700000000E+03 0.  0.
   -5000001    1    1    2    0    0  0.12400713801E+03  0.57208732975E+02 -0.16993051363E+04  0.17095079865E+04  0.12700000000E+03 0.  0.
<mgrwt>
<rscale>  0 0.37325861E+03</rscale>
<asrwt>0</asrwt>
<pdfrwt beam="1">  1        2 0.46904418E+00 0.37325861E+03</pdfrwt>
<pdfrwt beam="2">  1       -2 0.15154787E-02 0.37325861E+03</pdfrwt>
<totfact> 0.22406115E+03</totfact>
</mgrwt>
</event>
<event>
 4    1  0.1351183E-004  0.2979793E+03  0.7818608E-02  0.1086255E+00
          2   -1    0    0  501    0  0.00000000000E+00  0.00000000000E+00  0.84478890759E+03  0.84478890760E+03  0.25500000000E-02 0.  1.
         -2   -1    0    0    0  501 -0.00000000000E+00 -0.00000000000E+00 -0.26276293108E+02  0.26276293232E+02  0.25500000000E-02 0. -1.
    5000001    1    1    2    0    0 -0.34442272171E+02  0.68484152422E+02  0.36869043506E+03  0.39741412425E+03  0.12700000000E+03 0.  0.
   -5000001    1    1    2    0    0  0.34442272171E+02 -0.68484152422E+02  0.44982217942E+03  0.47365107658E+03  0.12700000000E+03 0.  0.
<mgrwt>
<rscale>  0 0.29797933E+03</rscale>
<asrwt>0</asrwt>
<pdfrwt beam="1">  1        2 0.12068414E+00 0.29797933E+03</pdfrwt>
<pdfrwt beam="2">  1       -2 0.37537558E-02 0.29797933E+03</pdfrwt>
<totfact> 0.11007523E+04</totfact>
</mgrwt>
</event>
<event>
 4    1  0.1351183E-004  0.3157326E+03  0.7818608E-02  0.1077630E+00
          2   -1    0    0  501    0  0.00000000000E+00  0.00000000000E+00  0.11698339904E+03  0.11698339907E+03  0.25500000000E-02 0.  1.
         -2   -1    0    0    0  501 -0.00000000000E+00 -0.00000000000E+00 -0.21303681648E+03  0.21303681650E+03  0.25500000000E-02 0. -1.
    5000001    1    1    2    0    0  0.34814262674E+02  0.86902305859E+02 -0.53629033478E+02  0.16664068195E+03  0.12700000000E+03 0.  0.
   -5000001    1    1    2    0    0 -0.34814262674E+02 -0.86902305859E+02 -0.42424383962E+02  0.16337953361E+03  0.12700000000E+03 0.  0.
<mgrwt>
<rscale>  0 0.31573261E+03</rscale>
<asrwt>0</asrwt>
<pdfrwt beam="1">  1        2 0.16711914E-01 0.31573261E+03</pdfrwt>
<pdfrwt beam="2">  1       -2 0.30433831E-01 0.31573261E+03</pdfrwt>
<totfact> 0.34159280E+03</totfact>
</mgrwt>
</event>
<event>
 4    1  0.1351183E-004  0.2988165E+03  0.7818608E-02  0.1085834E+00
          2   -1    0    0  501    0  0.00000000000E+00  0.00000000000E+00  0.29603904801E+02  0.29603904911E+02  0.25500000000E-02 0.  1.
         -2   -1    0    0    0  501 -0.00000000000E+00 -0.00000000000E+00 -0.75405010776E+03  0.75405010776E+03  0.25500000000E-02 0. -1.
    5000001    1    1    2    0    0 -0.66731071651E+02  0.34126500435E+02 -0.42517320901E+03  0.45002101241E+03  0.12700000000E+03 0.  0.
   -5000001    1    1    2    0    0  0.66731071651E+02 -0.34126500435E+02 -0.29927299395E+03  0.33363300026E+03  0.12700000000E+03 0.  0.
<mgrwt>
<rscale>  0 0.29881652E+03</rscale>
<asrwt>0</asrwt>
<pdfrwt beam="1">  1        2 0.42291297E-02 0.29881652E+03</pdfrwt>
<pdfrwt beam="2">  1       -2 0.10772143E+00 0.29881652E+03</pdfrwt>
<totfact> 0.14191634E+03</totfact>
</mgrwt>
</event>
<event>
 4    1  0.1351183E-004  0.3589522E+03  0.7818608E-02  0.1059000E+00
         -2   -1    0    0    0  501 -0.00000000000E+00  0.00000000000E+00  0.48156882057E+02  0.48156882124E+02  0.25500000000E-02 0. -1.
          2   -1    0    0  501    0  0.00000000000E+00 -0.00000000000E+00 -0.66889014112E+03  0.66889014112E+03  0.25500000000E-02 0.  1.
    5000001    1    1    2    0    0  0.11765911471E+03 -0.47256019511E+02 -0.31520440053E+03  0.36271147317E+03  0.12700000000E+03 0.  0.
   -5000001    1    1    2    0    0 -0.11765911471E+03  0.47256019511E+02 -0.30552885853E+03  0.35433555008E+03  0.12700000000E+03 0.  0.
<mgrwt>
<rscale>  0 0.35895216E+03</rscale>
<asrwt>0</asrwt>
<pdfrwt beam="1">  1        2 0.95555729E-01 0.35895216E+03</pdfrwt>
<pdfrwt beam="2">  1       -2 0.68795550E-02 0.35895216E+03</pdfrwt>
<totfact> 0.58310056E+03</totfact>
</mgrwt>
</event>
<event>
 4    1  0.1351183E-004  0.3070791E+03  0.7818608E-02  0.1081754E+00
         -2   -1    0    0    0  501 -0.00000000000E+00  0.00000000000E+00  0.38050564322E+02  0.38050564408E+02  0.25500000000E-02 0. -1.
          2   -1    0    0  501    0  0.00000000000E+00 -0.00000000000E+00 -0.61955438743E+03  0.61955438743E+03  0.25500000000E-02 0.  1.
    5000001    1    1    2    0    0  0.25535549138E+02 -0.68015764470E+02 -0.19105932502E+03  0.24064678299E+03  0.12700000000E+03 0.  0.
   -5000001    1    1    2    0    0 -0.25535549138E+02  0.68015764470E+02 -0.39044449808E+03  0.41695816885E+03  0.12700000000E+03 0.  0.
<mgrwt>
<rscale>  0 0.30707910E+03</rscale>
<asrwt>0</asrwt>
<pdfrwt beam="1">  1        2 0.88507764E-01 0.30707910E+03</pdfrwt>
<pdfrwt beam="2">  1       -2 0.54357953E-02 0.30707910E+03</pdfrwt>
<totfact> 0.91338563E+03</totfact>
</mgrwt>
</event>
<event>
 4    1  0.1351183E-004  0.3405736E+03  0.7818608E-02  0.1066552E+00
          2   -1    0    0  501    0  0.00000000000E+00  0.00000000000E+00  0.24173181373E+04  0.24173181373E+04  0.25500000000E-02 0. -1.
         -2   -1    0    0    0  501 -0.00000000000E+00 -0.00000000000E+00 -0.11995770912E+02  0.11995771183E+02  0.25500000000E-02 0.  1.
    5000001    1    1    2    0    0 -0.13203230878E+02  0.68890234503E+02  0.18385960709E+04  0.18443114438E+04  0.12700000000E+03 0.  0.
   -5000001    1    1    2    0    0  0.13203230878E+02 -0.68890234503E+02  0.56672629547E+03  0.58500246469E+03  0.12700000000E+03 0.  0.
<mgrwt>
<rscale>  0 0.34057360E+03</rscale>
<asrwt>0</asrwt>
<pdfrwt beam="1">  1        2 0.34533152E+00 0.34057360E+03</pdfrwt>
<pdfrwt beam="2">  1       -2 0.17136798E-02 0.34057360E+03</pdfrwt>
<totfact> 0.53451135E+03</totfact>
</mgrwt>
</event>
<event>
 4    1  0.1351183E-004  0.5372901E+03  0.7818608E-02  0.1004479E+00
          2   -1    0    0  501    0  0.00000000000E+00  0.00000000000E+00  0.73018169550E+03  0.73018169551E+03  0.25500000000E-02 0.  1.
         -2   -1    0    0    0  501 -0.00000000000E+00 -0.00000000000E+00 -0.98838635385E+02  0.98838635418E+02  0.25500000000E-02 0. -1.
    5000001    1    1    2    0    0  0.18982032880E+02 -0.21116835238E+03  0.47815084030E+03  0.53824679906E+03  0.12700000000E+03 0.  0.
   -5000001    1    1    2    0    0 -0.18982032880E+02  0.21116835238E+03  0.15319221982E+03  0.29077353187E+03  0.12700000000E+03 0.  0.
<mgrwt>
<rscale>  0 0.53729010E+03</rscale>
<asrwt>0</asrwt>
<pdfrwt beam="1">  1        2 0.10431167E+00 0.53729010E+03</pdfrwt>
<pdfrwt beam="2">  1       -2 0.14119805E-01 0.53729010E+03</pdfrwt>
<totfact> 0.16562630E+03</totfact>
</mgrwt>
</event>
<event>
 4    1  0.1351183E-004  0.3166700E+03  0.7818608E-02  0.1077192E+00
         -2   -1    0    0    0  501 -0.00000000000E+00  0.00000000000E+00  0.35306046631E+02  0.35306046724E+02  0.25500000000E-02 0. -1.
          2   -1    0    0  501    0  0.00000000000E+00 -0.00000000000E+00 -0.71007569586E+03  0.71007569586E+03  0.25500000000E-02 0.  1.
    5000001    1    1    2    0    0  0.27933252569E+02 -0.89552085706E+02 -0.36534699031E+03  0.39800410297E+03  0.12700000000E+03 0.  0.
   -5000001    1    1    2    0    0 -0.27933252569E+02  0.89552085706E+02 -0.30942265892E+03  0.34737763962E+03  0.12700000000E+03 0.  0.
<mgrwt>
<rscale>  0 0.31666996E+03</rscale>
<asrwt>0</asrwt>
<pdfrwt beam="1">  1        2 0.10143938E+00 0.31666996E+03</pdfrwt>
<pdfrwt beam="2">  1       -2 0.50437214E-02 0.31666996E+03</pdfrwt>
<totfact> 0.87325143E+03</totfact>
</mgrwt>
</event>
<event>
 4    1  0.1351183E-004  0.3981108E+03  0.7818608E-02  0.1044436E+00
          2   -1    0    0  501    0  0.00000000000E+00  0.00000000000E+00  0.39911813773E+03  0.39911813774E+03  0.25500000000E-02 0.  1.
         -2   -1    0    0    0  501 -0.00000000000E+00 -0.00000000000E+00 -0.99276482868E+02  0.99276482900E+02  0.25500000000E-02 0. -1.
    5000001    1    1    2    0    0  0.12096228797E+03  0.92873651356E+02  0.13066212440E+03  0.23761098666E+03  0.12700000000E+03 0.  0.
   -5000001    1    1    2    0    0 -0.12096228797E+03 -0.92873651356E+02  0.16917953046E+03  0.26078363398E+03  0.12700000000E+03 0.  0.
<mgrwt>
<rscale>  0 0.39811076E+03</rscale>
<asrwt>0</asrwt>
<pdfrwt beam="1">  1        2 0.57016876E-01 0.39811076E+03</pdfrwt>
<pdfrwt beam="2">  1       -2 0.14182355E-01 0.39811076E+03</pdfrwt>
<totfact> 0.32842679E+03</totfact>
</mgrwt>
</event>
<event>
 4    1  0.1351183E-004  0.4203908E+03  0.7818608E-02  0.1036939E+00
         -2   -1    0    0    0  501 -0.00000000000E+00  0.00000000000E+00  0.61774859633E+02  0.61774859685E+02  0.25500000000E-02 0. -1.
          2   -1    0    0  501    0  0.00000000000E+00 -0.00000000000E+00 -0.71521179992E+03  0.71521179992E+03  0.25500000000E-02 0.  1.
    5000001    1    1    2    0    0 -0.94914674640E+02  0.13424261538E+03 -0.26759666506E+03  0.33877256441E+03  0.12700000000E+03 0.  0.
   -5000001    1    1    2    0    0  0.94914674640E+02 -0.13424261538E+03 -0.38584027522E+03  0.43821409520E+03  0.12700000000E+03 0.  0.
<mgrwt>
<rscale>  0 0.42039081E+03</rscale>
<asrwt>0</asrwt>
<pdfrwt beam="1">  1        2 0.10217311E+00 0.42039081E+03</pdfrwt>
<pdfrwt beam="2">  1       -2 0.88249804E-02 0.42039081E+03</pdfrwt>
<totfact> 0.36463846E+03</totfact>
</mgrwt>
</event>
<event>
 4    1  0.1351183E-004  0.4252043E+03  0.7818608E-02  0.1035386E+00
         -2   -1    0    0    0  501 -0.00000000000E+00  0.00000000000E+00  0.11807905553E+02  0.11807905829E+02  0.25500000000E-02 0. -1.
          2   -1    0    0  501    0  0.00000000000E+00 -0.00000000000E+00 -0.38279165235E+04  0.38279165235E+04  0.25500000000E-02 0.  1.
    5000001    1    1    2    0    0 -0.76761844761E+02  0.12386250407E+03 -0.27074467607E+04  0.27143380893E+04  0.12700000000E+03 0.  0.
   -5000001    1    1    2    0    0  0.76761844761E+02 -0.12386250407E+03 -0.11086618572E+04  0.11253863401E+04  0.12700000000E+03 0.  0.
<mgrwt>
<rscale>  0 0.42520431E+03</rscale>
<asrwt>0</asrwt>
<pdfrwt beam="1">  1        2 0.54684442E+00 0.42520431E+03</pdfrwt>
<pdfrwt beam="2">  1       -2 0.16868461E-02 0.42520431E+03</pdfrwt>
<totfact> 0.90148517E+02</totfact>
</mgrwt>
</event>
<event>
 4    1  0.1351183E-004  0.7458479E+03  0.7818608E-02  0.9641887E-01
          2   -1    0    0  501    0  0.00000000000E+00  0.00000000000E+00  0.25179613311E+03  0.25179613312E+03  0.25500000000E-02 0.  1.
         -2   -1    0    0    0  501 -0.00000000000E+00 -0.00000000000E+00 -0.55232085146E+03  0.55232085147E+03  0.25500000000E-02 0. -1.
    5000001    1    1    2    0    0 -0.16220451337E+03  0.13004101702E+03 -0.45467232004E+03  0.51582641351E+03  0.12700000000E+03 0.  0.
   -5000001    1    1    2    0    0  0.16220451337E+03 -0.13004101702E+03  0.15414760168E+03  0.28829057108E+03  0.12700000000E+03 0.  0.
<mgrwt>
<rscale>  0 0.74584785E+03</rscale>
<asrwt>0</asrwt>
<pdfrwt beam="1">  1        2 0.35970876E-01 0.74584785E+03</pdfrwt>
<pdfrwt beam="2">  1       -2 0.78902978E-01 0.74584785E+03</pdfrwt>
<totfact> 0.20861095E+02</totfact>
</mgrwt>
</event>
<event>
 4    1  0.1351183E-004  0.5382176E+03  0.7818608E-02  0.1004258E+00
         -2   -1    0    0    0  501 -0.00000000000E+00  0.00000000000E+00  0.28087259759E+03  0.28087259760E+03  0.25500000000E-02 0. -1.
          2   -1    0    0  501    0  0.00000000000E+00 -0.00000000000E+00 -0.25783769757E+03  0.25783769758E+03  0.25500000000E-02 0.  1.
    5000001    1    1    2    0    0  0.23124375174E+03  0.52543098402E+02  0.40210028108E+01  0.26903460441E+03  0.12700000000E+03 0.  0.
   -5000001    1    1    2    0    0 -0.23124375174E+03 -0.52543098402E+02  0.19013897209E+02  0.26967569077E+03  0.12700000000E+03 0.  0.
<mgrwt>
<rscale>  0 0.53821759E+03</rscale>
<asrwt>0</asrwt>
<pdfrwt beam="1">  1        2 0.36833957E-01 0.53821759E+03</pdfrwt>
<pdfrwt beam="2">  1       -2 0.40124657E-01 0.53821759E+03</pdfrwt>
<totfact> 0.83341604E+02</totfact>
</mgrwt>
</event>
<event>
 4    1  0.1351183E-004  0.5580738E+03  0.7818608E-02  0.9996423E-01
         -2   -1    0    0    0  501 -0.00000000000E+00  0.00000000000E+00  0.26223540989E+03  0.26223540990E+03  0.25500000000E-02 0. -1.
          2   -1    0    0  501    0  0.00000000000E+00 -0.00000000000E+00 -0.29691484836E+03  0.29691484837E+03  0.25500000000E-02 0.  1.
    5000001    1    1    2    0    0  0.18516556453E+03 -0.41258098783E+02  0.14341936075E+03  0.26960458090E+03  0.12700000000E+03 0.  0.
   -5000001    1    1    2    0    0 -0.18516556453E+03  0.41258098783E+02 -0.17809879923E+03  0.28954567738E+03  0.12700000000E+03 0.  0.
<mgrwt>
<rscale>  0 0.55807378E+03</rscale>
<asrwt>0</asrwt>
<pdfrwt beam="1">  1        2 0.42416407E-01 0.55807378E+03</pdfrwt>
<pdfrwt beam="2">  1       -2 0.37462202E-01 0.55807378E+03</pdfrwt>
<totfact> 0.81398906E+02</totfact>
</mgrwt>
</event>
<event>
 4    1  0.1351183E-004  0.3294636E+03  0.7818608E-02  0.1071374E+00
         -2   -1    0    0    0  501 -0.00000000000E+00  0.00000000000E+00  0.30518344454E+03  0.30518344455E+03  0.25500000000E-02 0.  1.
          2   -1    0    0  501    0  0.00000000000E+00 -0.00000000000E+00 -0.88918892330E+02  0.88918892366E+02  0.25500000000E-02 0. -1.
    5000001    1    1    2    0    0  0.16354482494E+02 -0.92676169445E+02  0.52651162489E+02  0.16660578139E+03  0.12700000000E+03 0.  0.
   -5000001    1    1    2    0    0 -0.16354482494E+02  0.92676169445E+02  0.16361338972E+03  0.22749655552E+03  0.12700000000E+03 0.  0.
<mgrwt>
<rscale>  0 0.32946365E+03</rscale>
<asrwt>0</asrwt>
<pdfrwt beam="1">  1        2 0.12702699E-01 0.32946365E+03</pdfrwt>
<pdfrwt beam="2">  1       -2 0.43597636E-01 0.32946365E+03</pdfrwt>
<totfact> 0.24103190E+03</totfact>
</mgrwt>
</event>
<event>
 4    1  0.1351183E-004  0.3596500E+03  0.7818608E-02  0.1058723E+00
          2   -1    0    0  501    0  0.00000000000E+00  0.00000000000E+00  0.16098463851E+02  0.16098464053E+02  0.25500000000E-02 0.  1.
         -2   -1    0    0    0  501 -0.00000000000E+00 -0.00000000000E+00 -0.20087023799E+04  0.20087023799E+04  0.25500000000E-02 0. -1.
    5000001    1    1    2    0    0  0.63277210213E+02 -0.10677969951E+03 -0.11557503553E+04  0.11693133854E+04  0.12700000000E+03 0.  0.
   -5000001    1    1    2    0    0 -0.63277210213E+02  0.10677969951E+03 -0.83685356072E+03  0.85548745850E+03  0.12700000000E+03 0.  0.
<mgrwt>
<rscale>  0 0.35964996E+03</rscale>
<asrwt>0</asrwt>
<pdfrwt beam="1">  1        2 0.22997819E-02 0.35964996E+03</pdfrwt>
<pdfrwt beam="2">  1       -2 0.28695732E+00 0.35964996E+03</pdfrwt>
<totfact> 0.19618979E+02</totfact>
</mgrwt>
</event>
<event>
 4    1  0.1351183E-004  0.2877992E+03  0.7818608E-02  0.1091504E+00
          2   -1    0    0  501    0  0.00000000000E+00  0.00000000000E+00  0.31677332181E+03  0.31677332182E+03  0.25500000000E-02 0.  1.
         -2   -1    0    0    0  501 -0.00000000000E+00 -0.00000000000E+00 -0.65368793891E+02  0.65368793941E+02  0.25500000000E-02 0. -1.
    5000001    1    1    2    0    0  0.58950175943E+02 -0.29756966504E+02  0.14528415889E+03  0.20395363964E+03  0.12700000000E+03 0.  0.
   -5000001    1    1    2    0    0 -0.58950175943E+02  0.29756966504E+02  0.10612036904E+03  0.17818847612E+03  0.12700000000E+03 0.  0.
<mgrwt>
<rscale>  0 0.28779917E+03</rscale>
<asrwt>0</asrwt>
<pdfrwt beam="1">  1        2 0.45253331E-01 0.28779917E+03</pdfrwt>
<pdfrwt beam="2">  1       -2 0.93383992E-02 0.28779917E+03</pdfrwt>
<totfact> 0.82247945E+03</totfact>
</mgrwt>
</event>
<event>
 4    1  0.1351183E-004  0.9670404E+03  0.7818608E-02  0.9345452E-01
         -2   -1    0    0    0  501 -0.00000000000E+00  0.00000000000E+00  0.17893743681E+03  0.17893743683E+03  0.25500000000E-02 0. -1.
          2   -1    0    0  501    0  0.00000000000E+00 -0.00000000000E+00 -0.13065558782E+04  0.13065558782E+04  0.25500000000E-02 0.  1.
    5000001    1    1    2    0    0 -0.16318926310E+03  0.43421261006E+03 -0.64048368717E+03  0.80094923676E+03  0.12700000000E+03 0.  0.
   -5000001    1    1    2    0    0  0.16318926310E+03 -0.43421261006E+03 -0.48713475420E+03  0.68454407826E+03  0.12700000000E+03 0.  0.
<mgrwt>
<rscale>  0 0.96704035E+03</rscale>
<asrwt>0</asrwt>
<pdfrwt beam="1">  1        2 0.18665084E+00 0.96704035E+03</pdfrwt>
<pdfrwt beam="2">  1       -2 0.25562492E-01 0.96704035E+03</pdfrwt>
<totfact> 0.25567309E+02</totfact>
</mgrwt>
</event>
<event>
 4    1  0.1351183E-004  0.3024782E+03  0.7818608E-02  0.1084008E+00
          2   -1    0    0  501    0  0.00000000000E+00  0.00000000000E+00  0.10381164746E+04  0.10381164746E+04  0.25500000000E-02 0.  1.
         -2   -1    0    0    0  501 -0.00000000000E+00 -0.00000000000E+00 -0.22033423933E+02  0.22033424080E+02  0.25500000000E-02 0. -1.
    5000001    1    1    2    0    0 -0.32617833764E+02  0.13157135871E+02  0.76814115740E+03  0.77936311883E+03  0.12700000000E+03 0.  0.
   -5000001    1    1    2    0    0  0.32617833764E+02 -0.13157135871E+02  0.24794189329E+03  0.28078677987E+03  0.12700000000E+03 0.  0.
<mgrwt>
<rscale>  0 0.30247817E+03</rscale>
<asrwt>0</asrwt>
<pdfrwt beam="1">  1        2 0.14830234E+00 0.30247817E+03</pdfrwt>
<pdfrwt beam="2">  1       -2 0.31476323E-02 0.30247817E+03</pdfrwt>
<totfact> 0.10913358E+04</totfact>
</mgrwt>
</event>
<event>
 4    1  0.1351183E-004  0.6947068E+03  0.7818608E-02  0.9726327E-01
          2   -1    0    0  501    0  0.00000000000E+00  0.00000000000E+00  0.89899624217E+03  0.89899624217E+03  0.25500000000E-02 0.  1.
         -2   -1    0    0    0  501 -0.00000000000E+00 -0.00000000000E+00 -0.13421010610E+03  0.13421010612E+03  0.25500000000E-02 0. -1.
    5000001    1    1    2    0    0 -0.85634519607E+02 -0.25510643241E+03  0.64890995562E+03  0.71388072765E+03  0.12700000000E+03 0.  0.
   -5000001    1    1    2    0    0  0.85634519607E+02  0.25510643241E+03  0.11587618045E+03  0.31932562064E+03  0.12700000000E+03 0.  0.
<mgrwt>
<rscale>  0 0.69470679E+03</rscale>
<asrwt>0</asrwt>
<pdfrwt beam="1">  1        2 0.12842803E+00 0.69470679E+03</pdfrwt>
<pdfrwt beam="2">  1       -2 0.19172873E-01 0.69470679E+03</pdfrwt>
<totfact> 0.75103546E+02</totfact>
</mgrwt>
</event>
<event>
 4    1  0.1351183E-004  0.4427826E+03  0.7818608E-02  0.1029896E+00
          2   -1    0    0  501    0  0.00000000000E+00  0.00000000000E+00  0.32131150869E+04  0.32131150869E+04  0.25500000000E-02 0.  1.
         -2   -1    0    0    0  501 -0.00000000000E+00 -0.00000000000E+00 -0.15254391657E+02  0.15254391870E+02  0.25500000000E-02 0. -1.
    5000001    1    1    2    0    0  0.19503810854E+02 -0.17700577939E+03  0.13491455669E+04  0.13667604784E+04  0.12700000000E+03 0.  0.
   -5000001    1    1    2    0    0 -0.19503810854E+02  0.17700577939E+03  0.18487151284E+04  0.18616090004E+04  0.12700000000E+03 0.  0.
<mgrwt>
<rscale>  0 0.44278264E+03</rscale>
<asrwt>0</asrwt>
<pdfrwt beam="1">  1        2 0.45901682E+00 0.44278264E+03</pdfrwt>
<pdfrwt beam="2">  1       -2 0.21791970E-02 0.44278264E+03</pdfrwt>
<totfact> 0.14202453E+03</totfact>
</mgrwt>
</event>
<event>
 4    1  0.1351183E-004  0.2860716E+03  0.7818608E-02  0.1092418E+00
          2   -1    0    0  501    0  0.00000000000E+00  0.00000000000E+00  0.38045076244E+03  0.38045076244E+03  0.25500000000E-02 0.  1.
         -2   -1    0    0    0  501 -0.00000000000E+00 -0.00000000000E+00 -0.53776329173E+02  0.53776329233E+02  0.25500000000E-02 0. -1.
    5000001    1    1    2    0    0 -0.52423640295E+01 -0.58908584356E+02  0.11954013963E+03  0.18416446094E+03  0.12700000000E+03 0.  0.
   -5000001    1    1    2    0    0  0.52423640295E+01  0.58908584356E+02  0.20713429363E+03  0.25006263073E+03  0.12700000000E+03 0.  0.
<mgrwt>
<rscale>  0 0.28607164E+03</rscale>
<asrwt>0</asrwt>
<pdfrwt beam="1">  1        2 0.54350110E-01 0.28607164E+03</pdfrwt>
<pdfrwt beam="2">  1       -2 0.76823325E-02 0.28607164E+03</pdfrwt>
<totfact> 0.91704809E+03</totfact>
</mgrwt>
</event>
<event>
 4    1  0.1351183E-004  0.3664724E+03  0.7818608E-02  0.1056050E+00
          2   -1    0    0  501    0  0.00000000000E+00  0.00000000000E+00  0.13542277356E+03  0.13542277358E+03  0.25500000000E-02 0.  1.
         -2   -1    0    0    0  501 -0.00000000000E+00 -0.00000000000E+00 -0.24793102535E+03  0.24793102537E+03  0.25500000000E-02 0. -1.
    5000001    1    1    2    0    0 -0.29800242375E+02  0.11147969874E+03  0.10977228435E+02  0.17194556470E+03  0.12700000000E+03 0.  0.
   -5000001    1    1    2    0    0  0.29800242375E+02 -0.11147969874E+03 -0.12348548023E+03  0.21140823424E+03  0.12700000000E+03 0.  0.
<mgrwt>
<rscale>  0 0.36647241E+03</rscale>
<asrwt>0</asrwt>
<pdfrwt beam="1">  1        2 0.19346111E-01 0.36647241E+03</pdfrwt>
<pdfrwt beam="2">  1       -2 0.35418717E-01 0.36647241E+03</pdfrwt>
<totfact> 0.21811384E+03</totfact>
</mgrwt>
</event>
<event>
 4    1  0.1351183E-004  0.4071194E+03  0.7818608E-02  0.1041342E+00
          2   -1    0    0  501    0  0.00000000000E+00  0.00000000000E+00  0.13610556472E+04  0.13610556472E+04  0.25500000000E-02 0.  1.
         -2   -1    0    0    0  501 -0.00000000000E+00 -0.00000000000E+00 -0.30444418390E+02  0.30444418497E+02  0.25500000000E-02 0. -1.
    5000001    1    1    2    0    0  0.14368507810E+02  0.14202240803E+03  0.42530241489E+03  0.46624882039E+03  0.12700000000E+03 0.  0.
   -5000001    1    1    2    0    0 -0.14368507810E+02 -0.14202240803E+03  0.90530881396E+03  0.92525124535E+03  0.12700000000E+03 0.  0.
<mgrwt>
<rscale>  0 0.40711938E+03</rscale>
<asrwt>0</asrwt>
<pdfrwt beam="1">  1        2 0.19443659E+00 0.40711938E+03</pdfrwt>
<pdfrwt beam="2">  1       -2 0.43492011E-02 0.40711938E+03</pdfrwt>
<totfact> 0.44704036E+03</totfact>
</mgrwt>
</event>
<event>
 4    1  0.1351183E-004  0.3692888E+03  0.7818608E-02  0.1054965E+00
          2   -1    0    0  501    0  0.00000000000E+00  0.00000000000E+00  0.15087210528E+04  0.15087210528E+04  0.25500000000E-02 0.  1.
         -2   -1    0    0    0  501 -0.00000000000E+00 -0.00000000000E+00 -0.22597654909E+02  0.22597655053E+02  0.25500000000E-02 0. -1.
    5000001    1    1    2    0    0  0.49093689475E+02  0.74078921684E+02  0.32701452131E+03  0.36189138444E+03  0.12700000000E+03 0.  0.
   -5000001    1    1    2    0    0 -0.49093689475E+02 -0.74078921684E+02  0.11591088766E+04  0.11694273234E+04  0.12700000000E+03 0.  0.
<mgrwt>
<rscale>  0 0.36928882E+03</rscale>
<asrwt>0</asrwt>
<pdfrwt beam="1">  1        2 0.21553162E+00 0.36928882E+03</pdfrwt>
<pdfrwt beam="2">  1       -2 0.32282358E-02 0.36928882E+03</pdfrwt>
<totfact> 0.58833887E+03</totfact>
</mgrwt>
</event>
<event>
 4    1  0.1351183E-004  0.4390093E+03  0.7818608E-02  0.1031051E+00
         -2   -1    0    0    0  501 -0.00000000000E+00  0.00000000000E+00  0.76003115891E+03  0.76003115891E+03  0.25500000000E-02 0. -1.
          2   -1    0    0  501    0  0.00000000000E+00 -0.00000000000E+00 -0.63395151257E+02  0.63395151308E+02  0.25500000000E-02 0.  1.
    5000001    1    1    2    0    0  0.16961970152E+03  0.13860761012E+02  0.24404948503E+03  0.32349979132E+03  0.12700000000E+03 0.  0.
   -5000001    1    1    2    0    0 -0.16961970152E+03 -0.13860761012E+02  0.45258652263E+03  0.49992651890E+03  0.12700000000E+03 0.  0.
<mgrwt>
<rscale>  0 0.43900930E+03</rscale>
<asrwt>0</asrwt>
<pdfrwt beam="1">  1        2 0.90564501E-02 0.43900930E+03</pdfrwt>
<pdfrwt beam="2">  1       -2 0.10857588E+00 0.43900930E+03</pdfrwt>
<totfact> 0.51601607E+02</totfact>
</mgrwt>
</event>
<event>
 4    1  0.1351183E-004  0.2970694E+03  0.7818608E-02  0.1086715E+00
         -2   -1    0    0    0  501 -0.00000000000E+00  0.00000000000E+00  0.12374675667E+02  0.12374675930E+02  0.25500000000E-02 0. -1.
          2   -1    0    0  501    0  0.00000000000E+00 -0.00000000000E+00 -0.17828791998E+04  0.17828791998E+04  0.25500000000E-02 0.  1.
    5000001    1    1    2    0    0  0.70168112427E+02 -0.30029701866E+02 -0.82238973218E+03  0.83563103017E+03  0.12700000000E+03 0.  0.
   -5000001    1    1    2    0    0 -0.70168112427E+02  0.30029701866E+02 -0.94811479199E+03  0.95962284560E+03  0.12700000000E+03 0.  0.
<mgrwt>
<rscale>  0 0.29706937E+03</rscale>
<asrwt>0</asrwt>
<pdfrwt beam="1">  1        2 0.25469686E+00 0.29706937E+03</pdfrwt>
<pdfrwt beam="2">  1       -2 0.17678120E-02 0.29706937E+03</pdfrwt>
<totfact> 0.10475028E+04</totfact>
</mgrwt>
</event>
<event>
 4    1  0.1351183E-004  0.6377559E+03  0.7818608E-02  0.9830030E-01
         -2   -1    0    0    0  501 -0.00000000000E+00  0.00000000000E+00  0.14605417956E+03  0.14605417958E+03  0.25500000000E-02 0. -1.
          2   -1    0    0  501    0  0.00000000000E+00 -0.00000000000E+00 -0.69620157867E+03  0.69620157868E+03  0.25500000000E-02 0.  1.
    5000001    1    1    2    0    0  0.14654854401E+03  0.10709669014E+03  0.27837466866E+02  0.22327136259E+03  0.12700000000E+03 0.  0.
   -5000001    1    1    2    0    0 -0.14654854401E+03 -0.10709669014E+03 -0.57798486597E+03  0.61898439567E+03  0.12700000000E+03 0.  0.
<mgrwt>
<rscale>  0 0.63775591E+03</rscale>
<asrwt>0</asrwt>
<pdfrwt beam="1">  1        2 0.99457367E-01 0.63775591E+03</pdfrwt>
<pdfrwt beam="2">  1       -2 0.20864883E-01 0.63775591E+03</pdfrwt>
<totfact> 0.89994202E+02</totfact>
</mgrwt>
</event>
<event>
 4    1  0.1351183E-004  0.4459995E+03  0.7818608E-02  0.1028922E+00
         -2   -1    0    0    0  501 -0.00000000000E+00  0.00000000000E+00  0.31717349569E+02  0.31717349671E+02  0.25500000000E-02 0. -1.
          2   -1    0    0  501    0  0.00000000000E+00 -0.00000000000E+00 -0.15678766796E+04  0.15678766796E+04  0.25500000000E-02 0.  1.
    5000001    1    1    2    0    0 -0.10644514106E+03  0.34996415234E+02 -0.24778967501E+03  0.30014003427E+03  0.12700000000E+03 0.  0.
   -5000001    1    1    2    0    0  0.10644514106E+03 -0.34996415234E+02 -0.12883696550E+04  0.12994539950E+04  0.12700000000E+03 0.  0.
<mgrwt>
<rscale>  0 0.44599952E+03</rscale>
<asrwt>0</asrwt>
<pdfrwt beam="1">  1        2 0.22398233E+00 0.44599952E+03</pdfrwt>
<pdfrwt beam="2">  1       -2 0.45310509E-02 0.44599952E+03</pdfrwt>
<totfact> 0.32810026E+03</totfact>
</mgrwt>
</event>
<event>
 4    1  0.1351183E-004  0.1479931E+04  0.7818608E-02  0.8897909E-01
          2   -1    0    0  501    0  0.00000000000E+00  0.00000000000E+00  0.22900540060E+04  0.22900540060E+04  0.25500000000E-02 0.  1.
         -2   -1    0    0    0  501 -0.00000000000E+00 -0.00000000000E+00 -0.23909878103E+03  0.23909878104E+03  0.25500000000E-02 0. -1.
    5000001    1    1    2    0    0  0.41073186254E+03  0.40551686433E+03  0.17864485805E+04  0.18816673779E+04  0.12700000000E+03 0.  0.
   -5000001    1    1    2    0    0 -0.41073186254E+03 -0.40551686433E+03  0.26450664453E+03  0.64748540923E+03  0.12700000000E+03 0.  0.
<mgrwt>
<rscale>  0 0.14799312E+04</rscale>
<asrwt>0</asrwt>
<pdfrwt beam="1">  1        2 0.32715056E+00 0.14799312E+04</pdfrwt>
<pdfrwt beam="2">  1       -2 0.34156970E-01 0.14799312E+04</pdfrwt>
<totfact> 0.44199556E+01</totfact>
</mgrwt>
</event>
<event>
 4    1  0.1351183E-004  0.4616015E+03  0.7818608E-02  0.1024318E+00
         -2   -1    0    0    0  501 -0.00000000000E+00  0.00000000000E+00  0.15615512428E+03  0.15615512430E+03  0.25500000000E-02 0. -1.
          2   -1    0    0  501    0  0.00000000000E+00 -0.00000000000E+00 -0.34112859045E+03  0.34112859046E+03  0.25500000000E-02 0.  1.
    5000001    1    1    2    0    0  0.85022149596E+02 -0.77487614659E+02 -0.25905739904E+03  0.31060076037E+03  0.12700000000E+03 0.  0.
   -5000001    1    1    2    0    0 -0.85022149596E+02  0.77487614659E+02  0.74083932870E+02  0.18668295438E+03  0.12700000000E+03 0.  0.
<mgrwt>
<rscale>  0 0.46160146E+03</rscale>
<asrwt>0</asrwt>
<pdfrwt beam="1">  1        2 0.48732656E-01 0.46160146E+03</pdfrwt>
<pdfrwt beam="2">  1       -2 0.22307875E-01 0.46160146E+03</pdfrwt>
<totfact> 0.18058890E+03</totfact>
</mgrwt>
</event>
<event>
 4    1  0.1351183E-004  0.4108755E+03  0.7818608E-02  0.1040078E+00
         -2   -1    0    0    0  501 -0.00000000000E+00  0.00000000000E+00  0.43594753210E+03  0.43594753211E+03  0.25500000000E-02 0. -1.
          2   -1    0    0  501    0  0.00000000000E+00 -0.00000000000E+00 -0.96811357258E+02  0.96811357292E+02  0.25500000000E-02 0.  1.
    5000001    1    1    2    0    0 -0.98833919561E+02 -0.95804367555E+02  0.60087699426E+02  0.19668795622E+03  0.12700000000E+03 0.  0.
   -5000001    1    1    2    0    0  0.98833919561E+02  0.95804367555E+02  0.27904847542E+03  0.33607093318E+03  0.12700000000E+03 0.  0.
<mgrwt>
<rscale>  0 0.41087552E+03</rscale>
<asrwt>0</asrwt>
<pdfrwt beam="1">  1        2 0.13830194E-01 0.41087552E+03</pdfrwt>
<pdfrwt beam="2">  1       -2 0.62278219E-01 0.41087552E+03</pdfrwt>
<totfact> 0.10595687E+03</totfact>
</mgrwt>
</event>
<event>
 4    1  0.1351183E-004  0.3170579E+03  0.7818608E-02  0.1077011E+00
         -2   -1    0    0    0  501 -0.00000000000E+00  0.00000000000E+00  0.51693756367E+02  0.51693756430E+02  0.25500000000E-02 0. -1.
          2   -1    0    0  501    0  0.00000000000E+00 -0.00000000000E+00 -0.48615972496E+03  0.48615972497E+03  0.25500000000E-02 0.  1.
    5000001    1    1    2    0    0  0.94024897885E+02  0.86929355822E+01 -0.23298054129E+03  0.28164726374E+03  0.12700000000E+03 0.  0.
   -5000001    1    1    2    0    0 -0.94024897885E+02 -0.86929355822E+01 -0.20148542730E+03  0.25620621766E+03  0.12700000000E+03 0.  0.
<mgrwt>
<rscale>  0 0.31705786E+03</rscale>
<asrwt>0</asrwt>
<pdfrwt beam="1">  1        2 0.69451386E-01 0.31705786E+03</pdfrwt>
<pdfrwt beam="2">  1       -2 0.73848226E-02 0.31705786E+03</pdfrwt>
<totfact> 0.74897285E+03</totfact>
</mgrwt>
</event>
<event>
 4    1  0.1351183E-004  0.4533473E+03  0.7818608E-02  0.1026729E+00
          2   -1    0    0  501    0  0.00000000000E+00  0.00000000000E+00  0.17346979317E+03  0.17346979319E+03  0.25500000000E-02 0. -1.
         -2   -1    0    0    0  501 -0.00000000000E+00 -0.00000000000E+00 -0.29619527397E+03  0.29619527398E+03  0.25500000000E-02 0.  1.
    5000001    1    1    2    0    0 -0.18201094600E+03  0.26164414996E+02 -0.10066737585E+03  0.24510300210E+03  0.12700000000E+03 0.  0.
   -5000001    1    1    2    0    0  0.18201094600E+03 -0.26164414996E+02 -0.22058104949E+02  0.22456206507E+03  0.12700000000E+03 0.  0.
<mgrwt>
<rscale>  0 0.45334725E+03</rscale>
<asrwt>0</asrwt>
<pdfrwt beam="1">  1        2 0.24781399E-01 0.45334725E+03</pdfrwt>
<pdfrwt beam="2">  1       -2 0.42313611E-01 0.45334725E+03</pdfrwt>
<totfact> 0.11707320E+03</totfact>
</mgrwt>
</event>
<event>
 4    1  0.1351183E-004  0.3535433E+03  0.7818608E-02  0.1061170E+00
          2   -1    0    0  501    0  0.00000000000E+00  0.00000000000E+00  0.23810181953E+03  0.23810181955E+03  0.25500000000E-02 0. -1.
         -2   -1    0    0    0  501 -0.00000000000E+00 -0.00000000000E+00 -0.13123887135E+03  0.13123887138E+03  0.25500000000E-02 0.  1.
    5000001    1    1    2    0    0 -0.42236168710E+02  0.10588206600E+03  0.52818028535E+01  0.17073899170E+03  0.12700000000E+03 0.  0.
   -5000001    1    1    2    0    0  0.42236168710E+02 -0.10588206600E+03  0.10158114533E+03  0.19860169922E+03  0.12700000000E+03 0.  0.
<mgrwt>
<rscale>  0 0.35354329E+03</rscale>
<asrwt>0</asrwt>
<pdfrwt beam="1">  1        2 0.34014545E-01 0.35354329E+03</pdfrwt>
<pdfrwt beam="2">  1       -2 0.18748410E-01 0.35354329E+03</pdfrwt>
<totfact> 0.36002820E+03</totfact>
</mgrwt>
</event>
<event>
 4    1  0.1351183E-004  0.3464833E+03  0.7818608E-02  0.1064068E+00
          2   -1    0    0  501    0  0.00000000000E+00  0.00000000000E+00  0.19919273091E+04  0.19919273091E+04  0.25500000000E-02 0.  1.
         -2   -1    0    0    0  501 -0.00000000000E+00 -0.00000000000E+00 -0.15067148034E+02  0.15067148250E+02  0.25500000000E-02 0. -1.
    5000001    1    1    2    0    0 -0.11397980796E+03  0.29636208324E+02  0.10100743933E+04  0.10248165599E+04  0.12700000000E+03 0.  0.
   -5000001    1    1    2    0    0  0.11397980796E+03 -0.29636208324E+02  0.96678576781E+03  0.98217789748E+03  0.12700000000E+03 0.  0.
<mgrwt>
<rscale>  0 0.34648327E+03</rscale>
<asrwt>0</asrwt>
<pdfrwt beam="1">  1        2 0.28456090E+00 0.34648327E+03</pdfrwt>
<pdfrwt beam="2">  1       -2 0.21524508E-02 0.34648327E+03</pdfrwt>
<totfact> 0.61911209E+03</totfact>
</mgrwt>
</event>
<event>
 4    1  0.1351183E-004  0.3497964E+03  0.7818608E-02  0.1062699E+00
          2   -1    0    0  501    0  0.00000000000E+00  0.00000000000E+00  0.16144163651E+04  0.16144163651E+04  0.25500000000E-02 0.  1.
         -2   -1    0    0    0  501 -0.00000000000E+00 -0.00000000000E+00 -0.18947636306E+02  0.18947636477E+02  0.25500000000E-02 0. -1.
    5000001    1    1    2    0    0 -0.12017078752E+03 -0.43983727105E+01  0.79725777423E+03  0.81621646788E+03  0.12700000000E+03 0.  0.
   -5000001    1    1    2    0    0  0.12017078752E+03  0.43983727105E+01  0.79821095452E+03  0.81714753366E+03  0.12700000000E+03 0.  0.
<mgrwt>
<rscale>  0 0.34979637E+03</rscale>
<asrwt>0</asrwt>
<pdfrwt beam="1">  1        2 0.23063083E+00 0.34979637E+03</pdfrwt>
<pdfrwt beam="2">  1       -2 0.27068061E-02 0.34979637E+03</pdfrwt>
<totfact> 0.67704206E+03</totfact>
</mgrwt>
</event>
<event>
 4    1  0.1351183E-004  0.4924889E+03  0.7818608E-02  0.1015758E+00
         -2   -1    0    0    0  501 -0.00000000000E+00  0.00000000000E+00  0.92113651677E+02  0.92113651713E+02  0.25500000000E-02 0. -1.
          2   -1    0    0  501    0  0.00000000000E+00 -0.00000000000E+00 -0.65827721122E+03  0.65827721122E+03  0.25500000000E-02 0.  1.
    5000001    1    1    2    0    0 -0.13615028684E+03  0.96108647637E+02 -0.85982467243E+02  0.22648566716E+03  0.12700000000E+03 0.  0.
   -5000001    1    1    2    0    0  0.13615028684E+03 -0.96108647637E+02 -0.48018109230E+03  0.52390519577E+03  0.12700000000E+03 0.  0.
<mgrwt>
<rscale>  0 0.49248885E+03</rscale>
<asrwt>0</asrwt>
<pdfrwt beam="1">  1        2 0.94039599E-01 0.49248885E+03</pdfrwt>
<pdfrwt beam="2">  1       -2 0.13159094E-01 0.49248885E+03</pdfrwt>
<totfact> 0.21115643E+03</totfact>
</mgrwt>
</event>
<event>
 4    1  0.1351183E-004  0.3961088E+03  0.7818608E-02  0.1045135E+00
          2   -1    0    0  501    0  0.00000000000E+00  0.00000000000E+00  0.87230314813E+03  0.87230314813E+03  0.25500000000E-02 0.  1.
         -2   -1    0    0    0  501 -0.00000000000E+00 -0.00000000000E+00 -0.44967793952E+02  0.44967794025E+02  0.25500000000E-02 0. -1.
    5000001    1    1    2    0    0  0.10413615974E+03 -0.21162115196E+02  0.66526417865E+03  0.68556371132E+03  0.12700000000E+03 0.  0.
   -5000001    1    1    2    0    0 -0.10413615974E+03  0.21162115196E+02  0.16207117553E+03  0.23170723084E+03  0.12700000000E+03 0.  0.
<mgrwt>
<rscale>  0 0.39610881E+03</rscale>
<asrwt>0</asrwt>
<pdfrwt beam="1">  1        2 0.12461472E+00 0.39610881E+03</pdfrwt>
<pdfrwt beam="2">  1       -2 0.64239713E-02 0.39610881E+03</pdfrwt>
<totfact> 0.46796651E+03</totfact>
</mgrwt>
</event>
<event>
 4    1  0.1351183E-004  0.3485053E+03  0.7818608E-02  0.1063230E+00
          2   -1    0    0  501    0  0.00000000000E+00  0.00000000000E+00  0.27472705518E+03  0.27472705519E+03  0.25500000000E-02 0.  1.
         -2   -1    0    0    0  501 -0.00000000000E+00 -0.00000000000E+00 -0.11052418978E+03  0.11052418981E+03  0.25500000000E-02 0. -1.
    5000001    1    1    2    0    0  0.17672215830E+02 -0.65810693520E+02 -0.26161775356E+02  0.14648137453E+03  0.12700000000E+03 0.  0.
   -5000001    1    1    2    0    0 -0.17672215830E+02  0.65810693520E+02  0.19036464076E+03  0.23876987047E+03  0.12700000000E+03 0.  0.
<mgrwt>
<rscale>  0 0.34850530E+03</rscale>
<asrwt>0</asrwt>
<pdfrwt beam="1">  1        2 0.39246722E-01 0.34850530E+03</pdfrwt>
<pdfrwt beam="2">  1       -2 0.15789170E-01 0.34850530E+03</pdfrwt>
<totfact> 0.41138460E+03</totfact>
</mgrwt>
</event>
<event>
 4    1  0.1351183E-004  0.3798377E+03  0.7818608E-02  0.1050994E+00
          2   -1    0    0  501    0  0.00000000000E+00  0.00000000000E+00  0.67150552925E+02  0.67150552974E+02  0.25500000000E-02 0.  1.
         -2   -1    0    0    0  501 -0.00000000000E+00 -0.00000000000E+00 -0.53713872112E+03  0.53713872112E+03  0.25500000000E-02 0. -1.
    5000001    1    1    2    0    0 -0.10833930370E+03  0.61458803517E+02 -0.34082964399E+03  0.38445862649E+03  0.12700000000E+03 0.  0.
   -5000001    1    1    2    0    0  0.10833930370E+03 -0.61458803517E+02 -0.12915852420E+03  0.21983064761E+03  0.12700000000E+03 0.  0.
<mgrwt>
<rscale>  0 0.37983766E+03</rscale>
<asrwt>0</asrwt>
<pdfrwt beam="1">  1        2 0.95929364E-02 0.37983766E+03</pdfrwt>
<pdfrwt beam="2">  1       -2 0.76734101E-01 0.37983766E+03</pdfrwt>
<totfact> 0.10620625E+03</totfact>
</mgrwt>
</event>
<event>
 4    1  0.1351183E-004  0.3397502E+03  0.7818608E-02  0.1066902E+00
          2   -1    0    0  501    0  0.00000000000E+00  0.00000000000E+00  0.25629773113E+03  0.25629773114E+03  0.25500000000E-02 0.  1.
         -2   -1    0    0    0  501 -0.00000000000E+00 -0.00000000000E+00 -0.11259383038E+03  0.11259383041E+03  0.25500000000E-02 0. -1.
    5000001    1    1    2    0    0 -0.90577182244E+01 -0.10615629830E+03  0.11214775567E+03  0.20014325127E+03  0.12700000000E+03 0.  0.
   -5000001    1    1    2    0    0  0.90577182244E+01  0.10615629830E+03  0.31556145081E+02  0.16874831028E+03  0.12700000000E+03 0.  0.
<mgrwt>
<rscale>  0 0.33975016E+03</rscale>
<asrwt>0</asrwt>
<pdfrwt beam="1">  1        2 0.36613962E-01 0.33975016E+03</pdfrwt>
<pdfrwt beam="2">  1       -2 0.16084833E-01 0.33975016E+03</pdfrwt>
<totfact> 0.42990020E+03</totfact>
</mgrwt>
</event>
<event>
 4    1  0.1351183E-004  0.6227928E+03  0.7818608E-02  0.9859215E-01
         -2   -1    0    0    0  501 -0.00000000000E+00  0.00000000000E+00  0.21915182857E+03  0.21915182858E+03  0.25500000000E-02 0. -1.
          2   -1    0    0  501    0  0.00000000000E+00 -0.00000000000E+00 -0.44246823706E+03  0.44246823707E+03  0.25500000000E-02 0.  1.
    5000001    1    1    2    0    0 -0.23311103415E+03  0.84064676557E+01 -0.28435786042E+03  0.38910129237E+03  0.12700000000E+03 0.  0.
   -5000001    1    1    2    0    0  0.23311103415E+03 -0.84064676557E+01  0.61041451927E+02  0.27251877328E+03  0.12700000000E+03 0.  0.
<mgrwt>
<rscale>  0 0.62279282E+03</rscale>
<asrwt>0</asrwt>
<pdfrwt beam="1">  1        2 0.63209748E-01 0.62279282E+03</pdfrwt>
<pdfrwt beam="2">  1       -2 0.31307404E-01 0.62279282E+03</pdfrwt>
<totfact> 0.73367136E+02</totfact>
</mgrwt>
</event>
<event>
 4    1  0.1351183E-004  0.3656967E+03  0.7818608E-02  0.1056351E+00
         -2   -1    0    0    0  501 -0.00000000000E+00  0.00000000000E+00  0.39596808536E+02  0.39596808618E+02  0.25500000000E-02 0. -1.
          2   -1    0    0  501    0  0.00000000000E+00 -0.00000000000E+00 -0.84434898540E+03  0.84434898540E+03  0.25500000000E-02 0.  1.
    5000001    1    1    2    0    0 -0.10795248809E+03 -0.29736371710E+02 -0.23549547584E+03  0.29004329095E+03  0.12700000000E+03 0.  0.
   -5000001    1    1    2    0    0  0.10795248809E+03  0.29736371710E+02 -0.56925670102E+03  0.59390250307E+03  0.12700000000E+03 0.  0.
<mgrwt>
<rscale>  0 0.36569673E+03</rscale>
<asrwt>0</asrwt>
<pdfrwt beam="1">  1        2 0.12062127E+00 0.36569673E+03</pdfrwt>
<pdfrwt beam="2">  1       -2 0.56566875E-02 0.36569673E+03</pdfrwt>
<totfact> 0.59342385E+03</totfact>
</mgrwt>
</event>
<event>
 4    1  0.1351183E-004  0.6481250E+03  0.7818608E-02  0.9810304E-01
          2   -1    0    0  501    0  0.00000000000E+00  0.00000000000E+00  0.58145848913E+03  0.58145848914E+03  0.25500000000E-02 0.  1.
         -2   -1    0    0    0  501 -0.00000000000E+00 -0.00000000000E+00 -0.18060875060E+03  0.18060875062E+03  0.25500000000E-02 0. -1.
    5000001    1    1    2    0    0  0.17982387343E+03 -0.13361570760E+03  0.43172568748E+03  0.50269856972E+03  0.12700000000E+03 0.  0.
   -5000001    1    1    2    0    0 -0.17982387343E+03  0.13361570760E+03 -0.30875948941E+02  0.25936867003E+03  0.12700000000E+03 0.  0.
<mgrwt>
<rscale>  0 0.64812496E+03</rscale>
<asrwt>0</asrwt>
<pdfrwt beam="1">  1        2 0.83065499E-01 0.64812496E+03</pdfrwt>
<pdfrwt beam="2">  1       -2 0.25801250E-01 0.64812496E+03</pdfrwt>
<totfact> 0.76490336E+02</totfact>
</mgrwt>
</event>
<event>
 4    1  0.1351183E-004  0.2757936E+03  0.7818608E-02  0.1098009E+00
         -2   -1    0    0    0  501 -0.00000000000E+00  0.00000000000E+00  0.89447770906E+01  0.89447774541E+01  0.25500000000E-02 0. -1.
          2   -1    0    0  501    0  0.00000000000E+00 -0.00000000000E+00 -0.21258799230E+04  0.21258799230E+04  0.25500000000E-02 0.  1.
    5000001    1    1    2    0    0 -0.15049172371E+02  0.51395206286E+02 -0.10251039702E+04  0.10343283301E+04  0.12700000000E+03 0.  0.
   -5000001    1    1    2    0    0  0.15049172371E+02 -0.51395206286E+02 -0.10918311757E+04  0.11004963703E+04  0.12700000000E+03 0.  0.
<mgrwt>
<rscale>  0 0.27579356E+03</rscale>
<asrwt>0</asrwt>
<pdfrwt beam="1">  1        2 0.30369681E+00 0.27579356E+03</pdfrwt>
<pdfrwt beam="2">  1       -2 0.12778267E-02 0.27579356E+03</pdfrwt>
<totfact> 0.11437746E+04</totfact>
</mgrwt>
</event>
<event>
 4    1  0.1351183E-004  0.6520814E+03  0.7818608E-02  0.9802881E-01
         -2   -1    0    0    0  501 -0.00000000000E+00  0.00000000000E+00  0.94108846655E+02  0.94108846689E+02  0.25500000000E-02 0.  1.
          2   -1    0    0  501    0  0.00000000000E+00 -0.00000000000E+00 -0.11295700772E+04  0.11295700772E+04  0.25500000000E-02 0. -1.
    5000001    1    1    2    0    0 -0.10696596650E+03  0.26706673752E+03 -0.67923786742E+03  0.74850480347E+03  0.12700000000E+03 0.  0.
   -5000001    1    1    2    0    0  0.10696596650E+03 -0.26706673752E+03 -0.35622336312E+03  0.47517412041E+03  0.12700000000E+03 0.  0.
<mgrwt>
<rscale>  0 0.65208140E+03</rscale>
<asrwt>0</asrwt>
<pdfrwt beam="1">  1        2 0.16136715E+00 0.65208140E+03</pdfrwt>
<pdfrwt beam="2">  1       -2 0.13444122E-01 0.65208140E+03</pdfrwt>
<totfact> 0.99513380E+02</totfact>
</mgrwt>
</event>
<event>
 4    1  0.1351183E-004  0.4056880E+03  0.7818608E-02  0.1041828E+00
          2   -1    0    0  501    0  0.00000000000E+00  0.00000000000E+00  0.10372800991E+03  0.10372800994E+03  0.25500000000E-02 0.  1.
         -2   -1    0    0    0  501 -0.00000000000E+00 -0.00000000000E+00 -0.39666897155E+03  0.39666897156E+03  0.25500000000E-02 0. -1.
    5000001    1    1    2    0    0  0.48280726568E+02 -0.13358314221E+03 -0.60648408676E+02  0.19995678012E+03  0.12700000000E+03 0.  0.
   -5000001    1    1    2    0    0 -0.48280726568E+02  0.13358314221E+03 -0.23229255296E+03  0.30044020138E+03  0.12700000000E+03 0.  0.
<mgrwt>
<rscale>  0 0.40568797E+03</rscale>
<asrwt>0</asrwt>
<pdfrwt beam="1">  1        2 0.14818287E-01 0.40568797E+03</pdfrwt>
<pdfrwt beam="2">  1       -2 0.56666995E-01 0.40568797E+03</pdfrwt>
<totfact> 0.11867375E+03</totfact>
</mgrwt>
</event>
<event>
 4    1  0.1351183E-004  0.4612029E+03  0.7818608E-02  0.1024433E+00
          2   -1    0    0  501    0  0.00000000000E+00  0.00000000000E+00  0.21184476396E+03  0.21184476398E+03  0.25500000000E-02 0.  1.
         -2   -1    0    0    0  501 -0.00000000000E+00 -0.00000000000E+00 -0.25101884251E+03  0.25101884253E+03  0.25500000000E-02 0. -1.
    5000001    1    1    2    0    0  0.14618997697E+03 -0.10850573425E+03  0.43112103888E+02  0.22612531312E+03  0.12700000000E+03 0.  0.
   -5000001    1    1    2    0    0 -0.14618997697E+03  0.10850573425E+03 -0.82286182440E+02  0.23673829338E+03  0.12700000000E+03 0.  0.
<mgrwt>
<rscale>  0 0.46120289E+03</rscale>
<asrwt>0</asrwt>
<pdfrwt beam="1">  1        2 0.30263538E-01 0.46120289E+03</pdfrwt>
<pdfrwt beam="2">  1       -2 0.35859835E-01 0.46120289E+03</pdfrwt>
<totfact> 0.12852306E+03</totfact>
</mgrwt>
</event>
<event>
 4    1  0.1351183E-004  0.5800859E+03  0.7818608E-02  0.9947605E-01
         -2   -1    0    0    0  501 -0.00000000000E+00  0.00000000000E+00  0.14424790253E+03  0.14424790256E+03  0.25500000000E-02 0. -1.
          2   -1    0    0  501    0  0.00000000000E+00 -0.00000000000E+00 -0.58319683812E+03  0.58319683813E+03  0.25500000000E-02 0.  1.
    5000001    1    1    2    0    0  0.17210082646E+03 -0.83734958525E+02 -0.44156756099E+03  0.49773602308E+03  0.12700000000E+03 0.  0.
   -5000001    1    1    2    0    0 -0.17210082646E+03  0.83734958525E+02  0.26186254071E+01  0.22970871761E+03  0.12700000000E+03 0.  0.
<mgrwt>
<rscale>  0 0.58008593E+03</rscale>
<asrwt>0</asrwt>
<pdfrwt beam="1">  1        2 0.83313833E-01 0.58008593E+03</pdfrwt>
<pdfrwt beam="2">  1       -2 0.20606843E-01 0.58008593E+03</pdfrwt>
<totfact> 0.11374647E+03</totfact>
</mgrwt>
</event>
<event>
 4    1  0.1351183E-004  0.5397297E+03  0.7818608E-02  0.1003899E+00
          2   -1    0    0  501    0  0.00000000000E+00  0.00000000000E+00  0.76249336284E+03  0.76249336284E+03  0.25500000000E-02 0.  1.
         -2   -1    0    0    0  501 -0.00000000000E+00 -0.00000000000E+00 -0.95511688901E+02  0.95511688935E+02  0.25500000000E-02 0. -1.
    5000001    1    1    2    0    0  0.10848745646E+03  0.15477089443E+03  0.56371932436E+03  0.60797371212E+03  0.12700000000E+03 0.  0.
   -5000001    1    1    2    0    0 -0.10848745646E+03 -0.15477089443E+03  0.10326234958E+03  0.25003133966E+03  0.12700000000E+03 0.  0.
<mgrwt>
<rscale>  0 0.53972967E+03</rscale>
<asrwt>0</asrwt>
<pdfrwt beam="1">  1        2 0.10892762E+00 0.53972967E+03</pdfrwt>
<pdfrwt beam="2">  1       -2 0.13644527E-01 0.53972967E+03</pdfrwt>
<totfact> 0.16615841E+03</totfact>
</mgrwt>
</event>
<event>
 4    1  0.1351183E-004  0.3590222E+03  0.7818608E-02  0.1058972E+00
          2   -1    0    0  501    0  0.00000000000E+00  0.00000000000E+00  0.23292229300E+04  0.23292229300E+04  0.25500000000E-02 0.  1.
         -2   -1    0    0    0  501 -0.00000000000E+00 -0.00000000000E+00 -0.13834755992E+02  0.13834756227E+02  0.25500000000E-02 0. -1.
    5000001    1    1    2    0    0  0.11995699996E+03  0.16242154520E+02  0.90989172636E+03  0.92665281693E+03  0.12700000000E+03 0.  0.
   -5000001    1    1    2    0    0 -0.11995699996E+03 -0.16242154520E+02  0.14054964477E+04  0.14164048693E+04  0.12700000000E+03 0.  0.
<mgrwt>
<rscale>  0 0.35902218E+03</rscale>
<asrwt>0</asrwt>
<pdfrwt beam="1">  1        2 0.33274599E+00 0.35902218E+03</pdfrwt>
<pdfrwt beam="2">  1       -2 0.19763946E-02 0.35902218E+03</pdfrwt>
<totfact> 0.47875548E+03</totfact>
</mgrwt>
</event>
<event>
 4    1  0.1351183E-004  0.5209980E+03  0.7818608E-02  0.1008439E+00
          2   -1    0    0  501    0  0.00000000000E+00  0.00000000000E+00  0.38186799085E+03  0.38186799086E+03  0.25500000000E-02 0.  1.
         -2   -1    0    0    0  501 -0.00000000000E+00 -0.00000000000E+00 -0.17770465891E+03  0.17770465893E+03  0.25500000000E-02 0. -1.
    5000001    1    1    2    0    0  0.22794315571E+02  0.20265923512E+03  0.21023687710E+03  0.31924738197E+03  0.12700000000E+03 0.  0.
   -5000001    1    1    2    0    0 -0.22794315571E+02 -0.20265923512E+03 -0.60735451596E+01  0.24032526782E+03  0.12700000000E+03 0.  0.
<mgrwt>
<rscale>  0 0.52099797E+03</rscale>
<asrwt>0</asrwt>
<pdfrwt beam="1">  1        2 0.54552570E-01 0.52099797E+03</pdfrwt>
<pdfrwt beam="2">  1       -2 0.25386380E-01 0.52099797E+03</pdfrwt>
<totfact> 0.12687278E+03</totfact>
</mgrwt>
</event>
<event>
 4    1  0.1351183E-004  0.3781436E+03  0.7818608E-02  0.1051622E+00
          2   -1    0    0  501    0  0.00000000000E+00  0.00000000000E+00  0.28518442119E+04  0.28518442119E+04  0.25500000000E-02 0.  1.
         -2   -1    0    0    0  501 -0.00000000000E+00 -0.00000000000E+00 -0.12535097784E+02  0.12535098043E+02  0.25500000000E-02 0. -1.
    5000001    1    1    2    0    0 -0.91721104611E+02  0.86411942379E+02  0.95645034358E+03  0.97303959044E+03  0.12700000000E+03 0.  0.
   -5000001    1    1    2    0    0  0.91721104611E+02 -0.86411942379E+02  0.18828587706E+04  0.18913397195E+04  0.12700000000E+03 0.  0.
<mgrwt>
<rscale>  0 0.37814360E+03</rscale>
<asrwt>0</asrwt>
<pdfrwt beam="1">  1        2 0.40740629E+00 0.37814360E+03</pdfrwt>
<pdfrwt beam="2">  1       -2 0.17907284E-02 0.37814360E+03</pdfrwt>
<totfact> 0.29983853E+03</totfact>
</mgrwt>
</event>
<event>
 4    1  0.1351183E-004  0.3783923E+03  0.7818608E-02  0.1051530E+00
         -2   -1    0    0    0  501 -0.00000000000E+00  0.00000000000E+00  0.91446414742E+01  0.91446418297E+01  0.25500000000E-02 0. -1.
          2   -1    0    0  501    0  0.00000000000E+00 -0.00000000000E+00 -0.39143332427E+04  0.39143332427E+04  0.25500000000E-02 0.  1.
    5000001    1    1    2    0    0 -0.65856049585E+02  0.10311015648E+03 -0.26632514131E+04  0.26690833282E+04  0.12700000000E+03 0.  0.
   -5000001    1    1    2    0    0  0.65856049585E+02 -0.10311015648E+03 -0.12419371881E+04  0.12543945563E+04  0.12700000000E+03 0.  0.
<mgrwt>
<rscale>  0 0.37839226E+03</rscale>
<asrwt>0</asrwt>
<pdfrwt beam="1">  1        2 0.55918939E+00 0.37839226E+03</pdfrwt>
<pdfrwt beam="2">  1       -2 0.13063799E-02 0.37839226E+03</pdfrwt>
<totfact> 0.11665965E+03</totfact>
</mgrwt>
</event>
<event>
 4    1  0.1351183E-004  0.4467326E+03  0.7818608E-02  0.1028701E+00
          2   -1    0    0  501    0  0.00000000000E+00  0.00000000000E+00  0.84650241995E+03  0.84650241995E+03  0.25500000000E-02 0.  1.
         -2   -1    0    0    0  501 -0.00000000000E+00 -0.00000000000E+00 -0.58939598949E+02  0.58939599004E+02  0.25500000000E-02 0. -1.
    5000001    1    1    2    0    0  0.10492073239E+03 -0.55517493975E+02  0.67806240360E+03  0.69999155380E+03  0.12700000000E+03 0.  0.
   -5000001    1    1    2    0    0 -0.10492073239E+03  0.55517493975E+02  0.10950041741E+03  0.20545046516E+03  0.12700000000E+03 0.  0.
<mgrwt>
<rscale>  0 0.44673264E+03</rscale>
<asrwt>0</asrwt>
<pdfrwt beam="1">  1        2 0.12092891E+00 0.44673264E+03</pdfrwt>
<pdfrwt beam="2">  1       -2 0.84199431E-02 0.44673264E+03</pdfrwt>
<totfact> 0.31843323E+03</totfact>
</mgrwt>
</event>
<event>
 4    1  0.1351183E-004  0.5407296E+03  0.7818608E-02  0.1003663E+00
         -2   -1    0    0    0  501 -0.00000000000E+00  0.00000000000E+00  0.30341241901E+03  0.30341241902E+03  0.25500000000E-02 0. -1.
          2   -1    0    0  501    0  0.00000000000E+00 -0.00000000000E+00 -0.24091671044E+03  0.24091671046E+03  0.25500000000E-02 0.  1.
    5000001    1    1    2    0    0  0.18244864561E+03  0.42710193418E+02  0.18007127519E+03  0.28925133199E+03  0.12700000000E+03 0.  0.
   -5000001    1    1    2    0    0 -0.18244864561E+03 -0.42710193418E+02 -0.11757556662E+03  0.25507779749E+03  0.12700000000E+03 0.  0.
<mgrwt>
<rscale>  0 0.54072959E+03</rscale>
<asrwt>0</asrwt>
<pdfrwt beam="1">  1        2 0.34416673E-01 0.54072959E+03</pdfrwt>
<pdfrwt beam="2">  1       -2 0.43344631E-01 0.54072959E+03</pdfrwt>
<totfact> 0.77282786E+02</totfact>
</mgrwt>
</event>
<event>
 4    1  0.1351183E-004  0.3960739E+03  0.7818608E-02  0.1045148E+00
         -2   -1    0    0    0  501 -0.00000000000E+00  0.00000000000E+00  0.62036438243E+02  0.62036438295E+02  0.25500000000E-02 0. -1.
          2   -1    0    0  501    0  0.00000000000E+00 -0.00000000000E+00 -0.63218710170E+03  0.63218710170E+03  0.25500000000E-02 0.  1.
    5000001    1    1    2    0    0 -0.67309021465E+02 -0.13177411768E+03 -0.34565892247E+03  0.39686775272E+03  0.12700000000E+03 0.  0.
   -5000001    1    1    2    0    0  0.67309021465E+02  0.13177411768E+03 -0.22449174098E+03  0.29735578728E+03  0.12700000000E+03 0.  0.
<mgrwt>
<rscale>  0 0.39607391E+03</rscale>
<asrwt>0</asrwt>
<pdfrwt beam="1">  1        2 0.90312439E-01 0.39607391E+03</pdfrwt>
<pdfrwt beam="2">  1       -2 0.88623487E-02 0.39607391E+03</pdfrwt>
<totfact> 0.41926139E+03</totfact>
</mgrwt>
</event>
<event>
 4    1  0.1351183E-004  0.3794805E+03  0.7818608E-02  0.1051126E+00
          2   -1    0    0  501    0  0.00000000000E+00  0.00000000000E+00  0.15053487123E+04  0.15053487123E+04  0.25500000000E-02 0.  1.
         -2   -1    0    0    0  501 -0.00000000000E+00 -0.00000000000E+00 -0.23915633236E+02  0.23915633372E+02  0.25500000000E-02 0. -1.
    5000001    1    1    2    0    0 -0.96805008214E+02  0.63642280367E+02  0.10643850676E+04  0.10781772218E+04  0.12700000000E+03 0.  0.
   -5000001    1    1    2    0    0  0.96805008214E+02 -0.63642280367E+02  0.41704801148E+03  0.45108712390E+03  0.12700000000E+03 0.  0.
<mgrwt>
<rscale>  0 0.37948053E+03</rscale>
<asrwt>0</asrwt>
<pdfrwt beam="1">  1        2 0.21504978E+00 0.37948053E+03</pdfrwt>
<pdfrwt beam="2">  1       -2 0.34165197E-02 0.37948053E+03</pdfrwt>
<totfact> 0.54242647E+03</totfact>
</mgrwt>
</event>
<event>
 4    1  0.1351183E-004  0.3053067E+03  0.7818608E-02  0.1082618E+00
          2   -1    0    0  501    0  0.00000000000E+00  0.00000000000E+00  0.12864789606E+04  0.12864789606E+04  0.25500000000E-02 0.  1.
         -2   -1    0    0    0  501 -0.00000000000E+00 -0.00000000000E+00 -0.18113822076E+02  0.18113822255E+02  0.25500000000E-02 0. -1.
    5000001    1    1    2    0    0  0.28575388634E+02  0.24756705962E+02  0.95805100399E+03  0.96717122247E+03  0.12700000000E+03 0.  0.
   -5000001    1    1    2    0    0 -0.28575388634E+02 -0.24756705962E+02  0.31031413457E+03  0.33742156042E+03  0.12700000000E+03 0.  0.
<mgrwt>
<rscale>  0 0.30530674E+03</rscale>
<asrwt>0</asrwt>
<pdfrwt beam="1">  1        2 0.18378269E+00 0.30530674E+03</pdfrwt>
<pdfrwt beam="2">  1       -2 0.25876892E-02 0.30530674E+03</pdfrwt>
<totfact> 0.10650151E+04</totfact>
</mgrwt>
</event>
<event>
 4    1  0.1351183E-004  0.4500270E+03  0.7818608E-02  0.1027714E+00
         -2   -1    0    0    0  501 -0.00000000000E+00  0.00000000000E+00  0.51132900098E+02  0.51132900162E+02  0.25500000000E-02 0. -1.
          2   -1    0    0  501    0  0.00000000000E+00 -0.00000000000E+00 -0.99018602190E+03  0.99018602191E+03  0.25500000000E-02 0.  1.
    5000001    1    1    2    0    0  0.30197592113E+02  0.97030443123E+02 -0.10975160715E+03  0.19621726920E+03  0.12700000000E+03 0.  0.
   -5000001    1    1    2    0    0 -0.30197592113E+02 -0.97030443123E+02 -0.82930151466E+03  0.84510165286E+03  0.12700000000E+03 0.  0.
<mgrwt>
<rscale>  0 0.45002703E+03</rscale>
<asrwt>0</asrwt>
<pdfrwt beam="1">  1        2 0.14145513E+00 0.45002703E+03</pdfrwt>
<pdfrwt beam="2">  1       -2 0.73047006E-02 0.45002703E+03</pdfrwt>
<totfact> 0.32342306E+03</totfact>
</mgrwt>
</event>
<event>
 4    1  0.1351183E-004  0.3132648E+03  0.7818608E-02  0.1078791E+00
         -2   -1    0    0    0  501 -0.00000000000E+00  0.00000000000E+00  0.15570767066E+02  0.15570767275E+02  0.25500000000E-02 0. -1.
          2   -1    0    0  501    0  0.00000000000E+00 -0.00000000000E+00 -0.15756262311E+04  0.15756262311E+04  0.25500000000E-02 0.  1.
    5000001    1    1    2    0    0 -0.89135215361E+02  0.11113816809E+02 -0.68690616888E+03  0.70429943092E+03  0.12700000000E+03 0.  0.
   -5000001    1    1    2    0    0  0.89135215361E+02 -0.11113816809E+02 -0.87314929512E+03  0.88689756743E+03  0.12700000000E+03 0.  0.
<mgrwt>
<rscale>  0 0.31326480E+03</rscale>
<asrwt>0</asrwt>
<pdfrwt beam="1">  1        2 0.22508936E+00 0.31326480E+03</pdfrwt>
<pdfrwt beam="2">  1       -2 0.22243963E-02 0.31326480E+03</pdfrwt>
<totfact> 0.94671979E+03</totfact>
</mgrwt>
</event>
<event>
 4    1  0.1351183E-004  0.3335173E+03  0.7818608E-02  0.1069591E+00
          2   -1    0    0  501    0  0.00000000000E+00  0.00000000000E+00  0.62041366281E+03  0.62041366281E+03  0.25500000000E-02 0.  1.
         -2   -1    0    0    0  501 -0.00000000000E+00 -0.00000000000E+00 -0.44822419746E+02  0.44822419819E+02  0.25500000000E-02 0. -1.
    5000001    1    1    2    0    0  0.13077932566E+02  0.61295383910E+02  0.11218760612E+03  0.18067433513E+03  0.12700000000E+03 0.  0.
   -5000001    1    1    2    0    0 -0.13077932566E+02 -0.61295383910E+02  0.46340363694E+03  0.48456174750E+03  0.12700000000E+03 0.  0.
<mgrwt>
<rscale>  0 0.33351727E+03</rscale>
<asrwt>0</asrwt>
<pdfrwt beam="1">  1        2 0.88630532E-01 0.33351727E+03</pdfrwt>
<pdfrwt beam="2">  1       -2 0.64032022E-02 0.33351727E+03</pdfrwt>
<totfact> 0.71058002E+03</totfact>
</mgrwt>
</event>
<event>
 4    1  0.1351183E-004  0.6645960E+03  0.7818608E-02  0.9779770E-01
         -2   -1    0    0    0  501 -0.00000000000E+00  0.00000000000E+00  0.94688444701E+02  0.94688444735E+02  0.25500000000E-02 0.  1.
          2   -1    0    0  501    0  0.00000000000E+00 -0.00000000000E+00 -0.11661608409E+04  0.11661608409E+04  0.25500000000E-02 0. -1.
    5000001    1    1    2    0    0 -0.22687118681E+03 -0.43134461307E+02 -0.15176806124E+03  0.30412770602E+03  0.12700000000E+03 0.  0.
   -5000001    1    1    2    0    0  0.22687118681E+03  0.43134461307E+02 -0.91970433495E+03  0.95672157960E+03  0.12700000000E+03 0.  0.
<mgrwt>
<rscale>  0 0.66459599E+03</rscale>
<asrwt>0</asrwt>
<pdfrwt beam="1">  1        2 0.16659440E+00 0.66459599E+03</pdfrwt>
<pdfrwt beam="2">  1       -2 0.13526921E-01 0.66459599E+03</pdfrwt>
<totfact> 0.93821187E+02</totfact>
</mgrwt>
</event>
<event>
 4    1  0.1351183E-004  0.4129959E+03  0.7818608E-02  0.1039370E+00
         -2   -1    0    0    0  501 -0.00000000000E+00  0.00000000000E+00  0.41047357752E+02  0.41047357831E+02  0.25500000000E-02 0. -1.
          2   -1    0    0  501    0  0.00000000000E+00 -0.00000000000E+00 -0.10388342467E+04  0.10388342467E+04  0.25500000000E-02 0.  1.
    5000001    1    1    2    0    0 -0.58923443588E+02  0.10366166456E+03 -0.78882078573E+03  0.80782729894E+03  0.12700000000E+03 0.  0.
   -5000001    1    1    2    0    0  0.58923443588E+02 -0.10366166456E+03 -0.20896610324E+03  0.27205430562E+03  0.12700000000E+03 0.  0.
<mgrwt>
<rscale>  0 0.41299589E+03</rscale>
<asrwt>0</asrwt>
<pdfrwt beam="1">  1        2 0.14840488E+00 0.41299589E+03</pdfrwt>
<pdfrwt beam="2">  1       -2 0.58639089E-02 0.41299589E+03</pdfrwt>
<totfact> 0.42599848E+03</totfact>
</mgrwt>
</event>
<event>
 4    1  0.1351183E-004  0.8252626E+03  0.7818608E-02  0.9524154E-01
          2   -1    0    0  501    0  0.00000000000E+00  0.00000000000E+00  0.23422679697E+04  0.23422679697E+04  0.25500000000E-02 0.  1.
         -2   -1    0    0    0  501 -0.00000000000E+00 -0.00000000000E+00 -0.72692193425E+02  0.72692193470E+02  0.25500000000E-02 0. -1.
    5000001    1    1    2    0    0 -0.31639018993E+03 -0.23016112354E+03  0.10395730750E+04  0.11179973495E+04  0.12700000000E+03 0.  0.
   -5000001    1    1    2    0    0  0.31639018993E+03  0.23016112354E+03  0.12300027012E+04  0.12969628137E+04  0.12700000000E+03 0.  0.
<mgrwt>
<rscale>  0 0.82526262E+03</rscale>
<asrwt>0</asrwt>
<pdfrwt beam="1">  1        2 0.33460972E+00 0.82526262E+03</pdfrwt>
<pdfrwt beam="2">  1       -2 0.10384599E-01 0.82526262E+03</pdfrwt>
<totfact> 0.35196500E+02</totfact>
</mgrwt>
</event>
<event>
 4    1  0.1351183E-004  0.3999496E+03  0.7818608E-02  0.1043797E+00
         -2   -1    0    0    0  501 -0.00000000000E+00  0.00000000000E+00  0.35016829525E+03  0.35016829526E+03  0.25500000000E-02 0. -1.
          2   -1    0    0  501    0  0.00000000000E+00 -0.00000000000E+00 -0.11420199608E+03  0.11420199611E+03  0.25500000000E-02 0.  1.
    5000001    1    1    2    0    0 -0.76941414977E+02  0.11703932529E+03  0.42355249957E+02  0.19375539271E+03  0.12700000000E+03 0.  0.
   -5000001    1    1    2    0    0  0.76941414977E+02 -0.11703932529E+03  0.19361104921E+03  0.27061489867E+03  0.12700000000E+03 0.  0.
<mgrwt>
<rscale>  0 0.39994959E+03</rscale>
<asrwt>0</asrwt>
<pdfrwt beam="1">  1        2 0.16314571E-01 0.39994959E+03</pdfrwt>
<pdfrwt beam="2">  1       -2 0.50024042E-01 0.39994959E+03</pdfrwt>
<totfact> 0.13636511E+03</totfact>
</mgrwt>
</event>
<event>
 4    1  0.1351183E-004  0.4362041E+03  0.7818608E-02  0.1031918E+00
          2   -1    0    0  501    0  0.00000000000E+00  0.00000000000E+00  0.33292953684E+02  0.33292953781E+02  0.25500000000E-02 0.  1.
         -2   -1    0    0    0  501 -0.00000000000E+00 -0.00000000000E+00 -0.14287856590E+04  0.14287856590E+04  0.25500000000E-02 0. -1.
    5000001    1    1    2    0    0 -0.56405627534E+02  0.16065464627E+03 -0.53190784945E+03  0.57275341159E+03  0.12700000000E+03 0.  0.
   -5000001    1    1    2    0    0  0.56405627534E+02 -0.16065464627E+03 -0.86358485585E+03  0.88932520117E+03  0.12700000000E+03 0.  0.
<mgrwt>
<rscale>  0 0.43620406E+03</rscale>
<asrwt>0</asrwt>
<pdfrwt beam="1">  1        2 0.47561371E-02 0.43620406E+03</pdfrwt>
<pdfrwt beam="2">  1       -2 0.20411220E+00 0.43620406E+03</pdfrwt>
<totfact> 0.22778478E+02</totfact>
</mgrwt>
</event>
<event>
 4    1  0.1351183E-004  0.4000536E+03  0.7818608E-02  0.1043761E+00
         -2   -1    0    0    0  501 -0.00000000000E+00  0.00000000000E+00  0.14240922174E+02  0.14240922402E+02  0.25500000000E-02 0. -1.
          2   -1    0    0  501    0  0.00000000000E+00 -0.00000000000E+00 -0.28095593637E+04  0.28095593637E+04  0.25500000000E-02 0.  1.
    5000001    1    1    2    0    0 -0.12589686893E+03 -0.79499682318E+02 -0.11056452063E+04  0.11228314848E+04  0.12700000000E+03 0.  0.
   -5000001    1    1    2    0    0  0.12589686893E+03  0.79499682318E+02 -0.16896732352E+04  0.17009688013E+04  0.12700000000E+03 0.  0.
<mgrwt>
<rscale>  0 0.40005358E+03</rscale>
<asrwt>0</asrwt>
<pdfrwt beam="1">  1        2 0.40136527E+00 0.40005358E+03</pdfrwt>
<pdfrwt beam="2">  1       -2 0.20344193E-02 0.40005358E+03</pdfrwt>
<totfact> 0.26068793E+03</totfact>
</mgrwt>
</event>
<event>
 4    1  0.1351183E-004  0.3868890E+03  0.7818608E-02  0.1048417E+00
          2   -1    0    0  501    0  0.00000000000E+00  0.00000000000E+00  0.29782564011E+04  0.29782564011E+04  0.25500000000E-02 0.  1.
         -2   -1    0    0    0  501 -0.00000000000E+00 -0.00000000000E+00 -0.12564660951E+02  0.12564661210E+02  0.25500000000E-02 0. -1.
    5000001    1    1    2    0    0  0.41593935542E+02  0.13925178966E+03  0.15838356387E+04  0.15955517688E+04  0.12700000000E+03 0.  0.
   -5000001    1    1    2    0    0 -0.41593935542E+02 -0.13925178966E+03  0.13818561015E+04  0.13952692936E+04  0.12700000000E+03 0.  0.
<mgrwt>
<rscale>  0 0.38688904E+03</rscale>
<asrwt>0</asrwt>
<pdfrwt beam="1">  1        2 0.42546515E+00 0.38688904E+03</pdfrwt>
<pdfrwt beam="2">  1       -2 0.17949518E-02 0.38688904E+03</pdfrwt>
<totfact> 0.25593673E+03</totfact>
</mgrwt>
</event>
<event>
 4    1  0.1351183E-004  0.5060879E+03  0.7818608E-02  0.1012202E+00
         -2   -1    0    0    0  501 -0.00000000000E+00  0.00000000000E+00  0.63049452308E+02  0.63049452360E+02  0.25500000000E-02 0. -1.
          2   -1    0    0  501    0  0.00000000000E+00 -0.00000000000E+00 -0.10155719153E+04  0.10155719153E+04  0.25500000000E-02 0.  1.
    5000001    1    1    2    0    0 -0.14352479754E+03  0.16409526566E+03 -0.51756814846E+03  0.57578851328E+03  0.12700000000E+03 0.  0.
   -5000001    1    1    2    0    0  0.14352479754E+03 -0.16409526566E+03 -0.43495431456E+03  0.50283285441E+03  0.12700000000E+03 0.  0.
<mgrwt>
<rscale>  0 0.50608795E+03</rscale>
<asrwt>0</asrwt>
<pdfrwt beam="1">  1        2 0.14508169E+00 0.50608795E+03</pdfrwt>
<pdfrwt beam="2">  1       -2 0.90070652E-02 0.50608795E+03</pdfrwt>
<totfact> 0.22395836E+03</totfact>
</mgrwt>
</event>
<event>
 4    1  0.1351183E-004  0.3100904E+03  0.7818608E-02  0.1080303E+00
         -2   -1    0    0    0  501 -0.00000000000E+00  0.00000000000E+00  0.36348419051E+03  0.36348419052E+03  0.25500000000E-02 0. -1.
          2   -1    0    0  501    0  0.00000000000E+00 -0.00000000000E+00 -0.66134982978E+02  0.66134983027E+02  0.25500000000E-02 0.  1.
    5000001    1    1    2    0    0 -0.76721641664E+02 -0.44940664768E+02  0.15149602747E+03  0.21676235833E+03  0.12700000000E+03 0.  0.
   -5000001    1    1    2    0    0  0.76721641664E+02  0.44940664768E+02  0.14585318006E+03  0.21285681521E+03  0.12700000000E+03 0.  0.
<mgrwt>
<rscale>  0 0.31009044E+03</rscale>
<asrwt>0</asrwt>
<pdfrwt beam="1">  1        2 0.94478547E-02 0.31009044E+03</pdfrwt>
<pdfrwt beam="2">  1       -2 0.51926313E-01 0.31009044E+03</pdfrwt>
<totfact> 0.24536080E+03</totfact>
</mgrwt>
</event>
<event>
 4    1  0.1351183E-004  0.6352542E+03  0.7818608E-02  0.9834849E-01
         -2   -1    0    0    0  501 -0.00000000000E+00  0.00000000000E+00  0.20881513737E+04  0.20881513737E+04  0.25500000000E-02 0. -1.
          2   -1    0    0  501    0  0.00000000000E+00 -0.00000000000E+00 -0.48314021288E+02  0.48314021355E+02  0.25500000000E-02 0.  1.
    5000001    1    1    2    0    0  0.11322647310E+03  0.22019383598E+03  0.50487719011E+03  0.57648550433E+03  0.12700000000E+03 0.  0.
   -5000001    1    1    2    0    0 -0.11322647310E+03 -0.22019383598E+03  0.15349601623E+04  0.15599798908E+04  0.12700000000E+03 0.  0.
<mgrwt>
<rscale>  0 0.63525425E+03</rscale>
<asrwt>0</asrwt>
<pdfrwt beam="1">  1        2 0.69020035E-02 0.63525425E+03</pdfrwt>
<pdfrwt beam="2">  1       -2 0.29830732E+00 0.63525425E+03</pdfrwt>
<totfact> 0.36833632E+01</totfact>
</mgrwt>
</event>
<event>
 4    1  0.1351183E-004  0.7008968E+03  0.7818608E-02  0.9715700E-01
         -2   -1    0    0    0  501 -0.00000000000E+00  0.00000000000E+00  0.47813478009E+03  0.47813478009E+03  0.25500000000E-02 0. -1.
          2   -1    0    0  501    0  0.00000000000E+00 -0.00000000000E+00 -0.25686078272E+03  0.25686078274E+03  0.25500000000E-02 0.  1.
    5000001    1    1    2    0    0 -0.61508925853E+02 -0.28979801302E+03 -0.33600398541E+02  0.32407440981E+03  0.12700000000E+03 0.  0.
   -5000001    1    1    2    0    0  0.61508925853E+02  0.28979801302E+03  0.25487439590E+03  0.41092115302E+03  0.12700000000E+03 0.  0.
<mgrwt>
<rscale>  0 0.70089678E+03</rscale>
<asrwt>0</asrwt>
<pdfrwt beam="1">  1        2 0.36694398E-01 0.70089678E+03</pdfrwt>
<pdfrwt beam="2">  1       -2 0.68304968E-01 0.70089678E+03</pdfrwt>
<totfact> 0.28071900E+02</totfact>
</mgrwt>
</event>
<event>
 4    1  0.1351183E-004  0.6886452E+03  0.7818608E-02  0.9736850E-01
          2   -1    0    0  501    0  0.00000000000E+00  0.00000000000E+00  0.53650767331E+03  0.53650767331E+03  0.25500000000E-02 0.  1.
         -2   -1    0    0    0  501 -0.00000000000E+00 -0.00000000000E+00 -0.22098111178E+03  0.22098111179E+03  0.25500000000E-02 0. -1.
    5000001    1    1    2    0    0  0.89937950111E+02  0.30538810697E+03  0.19388403311E+03  0.39379023483E+03  0.12700000000E+03 0.  0.
   -5000001    1    1    2    0    0 -0.89937950111E+02 -0.30538810697E+03  0.12164252842E+03  0.36369855028E+03  0.12700000000E+03 0.  0.
<mgrwt>
<rscale>  0 0.68864523E+03</rscale>
<asrwt>0</asrwt>
<pdfrwt beam="1">  1        2 0.76643953E-01 0.68864523E+03</pdfrwt>
<pdfrwt beam="2">  1       -2 0.31568730E-01 0.68864523E+03</pdfrwt>
<totfact> 0.57941090E+02</totfact>
</mgrwt>
</event>
<event>
 4    1  0.1351183E-004  0.3535970E+03  0.7818608E-02  0.1061148E+00
          2   -1    0    0  501    0  0.00000000000E+00  0.00000000000E+00  0.17613677402E+04  0.17613677402E+04  0.25500000000E-02 0.  1.
         -2   -1    0    0    0  501 -0.00000000000E+00 -0.00000000000E+00 -0.17746266690E+02  0.17746266873E+02  0.25500000000E-02 0. -1.
    5000001    1    1    2    0    0 -0.85221700776E+02  0.83099451580E+02  0.10277413691E+04  0.10423768891E+04  0.12700000000E+03 0.  0.
   -5000001    1    1    2    0    0  0.85221700776E+02 -0.83099451580E+02  0.71588010439E+03  0.73673711797E+03  0.12700000000E+03 0.  0.
<mgrwt>
<rscale>  0 0.35359696E+03</rscale>
<asrwt>0</asrwt>
<pdfrwt beam="1">  1        2 0.25162400E+00 0.35359696E+03</pdfrwt>
<pdfrwt beam="2">  1       -2 0.25351806E-02 0.35359696E+03</pdfrwt>
<totfact> 0.63068330E+03</totfact>
</mgrwt>
</event>
<event>
 4    1  0.1351183E-004  0.4351698E+03  0.7818608E-02  0.1032239E+00
          2   -1    0    0  501    0  0.00000000000E+00  0.00000000000E+00  0.13894707561E+04  0.13894707561E+04  0.25500000000E-02 0.  1.
         -2   -1    0    0    0  501 -0.00000000000E+00 -0.00000000000E+00 -0.34072818015E+02  0.34072818111E+02  0.25500000000E-02 0. -1.
    5000001    1    1    2    0    0  0.83694319222E+02  0.13239710235E+03  0.41032755230E+03  0.45719955376E+03  0.12700000000E+03 0.  0.
   -5000001    1    1    2    0    0 -0.83694319222E+02 -0.13239710235E+03  0.94507038574E+03  0.96634402041E+03  0.12700000000E+03 0.  0.
<mgrwt>
<rscale>  0 0.43516978E+03</rscale>
<asrwt>0</asrwt>
<pdfrwt beam="1">  1        2 0.19849586E+00 0.43516978E+03</pdfrwt>
<pdfrwt beam="2">  1       -2 0.48675445E-02 0.43516978E+03</pdfrwt>
<totfact> 0.36353812E+03</totfact>
</mgrwt>
</event>
<event>
 4    1  0.1351183E-004  0.4355575E+03  0.7818608E-02  0.1032119E+00
         -2   -1    0    0    0  501 -0.00000000000E+00  0.00000000000E+00  0.32689289978E+03  0.32689289979E+03  0.25500000000E-02 0. -1.
          2   -1    0    0  501    0  0.00000000000E+00 -0.00000000000E+00 -0.14508598878E+03  0.14508598880E+03  0.25500000000E-02 0.  1.
    5000001    1    1    2    0    0  0.72111964926E+02 -0.22988729333E+02 -0.82374031885E+02  0.16924272005E+03  0.12700000000E+03 0.  0.
   -5000001    1    1    2    0    0 -0.72111964926E+02  0.22988729333E+02  0.26418094288E+03  0.30273616854E+03  0.12700000000E+03 0.  0.
<mgrwt>
<rscale>  0 0.43555748E+03</rscale>
<asrwt>0</asrwt>
<pdfrwt beam="1">  1        2 0.20726570E-01 0.43555748E+03</pdfrwt>
<pdfrwt beam="2">  1       -2 0.46698986E-01 0.43555748E+03</pdfrwt>
<totfact> 0.11829088E+03</totfact>
</mgrwt>
</event>
<event>
 4    1  0.1351183E-004  0.3083818E+03  0.7818608E-02  0.1081124E+00
         -2   -1    0    0    0  501 -0.00000000000E+00  0.00000000000E+00  0.25479419806E+02  0.25479419934E+02  0.25500000000E-02 0. -1.
          2   -1    0    0  501    0  0.00000000000E+00 -0.00000000000E+00 -0.93309944672E+03  0.93309944672E+03  0.25500000000E-02 0.  1.
    5000001    1    1    2    0    0 -0.60950413570E+02 -0.46293196559E+02 -0.58524196933E+03  0.60373435849E+03  0.12700000000E+03 0.  0.
   -5000001    1    1    2    0    0  0.60950413570E+02  0.46293196559E+02 -0.32237805759E+03  0.35484450817E+03  0.12700000000E+03 0.  0.
<mgrwt>
<rscale>  0 0.30838179E+03</rscale>
<asrwt>0</asrwt>
<pdfrwt beam="1">  1        2 0.13329990E+00 0.30838179E+03</pdfrwt>
<pdfrwt beam="2">  1       -2 0.36399177E-02 0.30838179E+03</pdfrwt>
<totfact> 0.10148093E+04</totfact>
</mgrwt>
</event>
<event>
 4    1  0.1351183E-004  0.3633163E+03  0.7818608E-02  0.1057278E+00
          2   -1    0    0  501    0  0.00000000000E+00  0.00000000000E+00  0.20609586639E+03  0.20609586641E+03  0.25500000000E-02 0.  1.
         -2   -1    0    0    0  501 -0.00000000000E+00 -0.00000000000E+00 -0.16011814664E+03  0.16011814666E+03  0.25500000000E-02 0. -1.
    5000001    1    1    2    0    0 -0.92923814500E+02 -0.48781188173E+02 -0.54147616252E+02  0.17342261665E+03  0.12700000000E+03 0.  0.
   -5000001    1    1    2    0    0  0.92923814500E+02  0.48781188173E+02  0.10012533600E+03  0.19279139641E+03  0.12700000000E+03 0.  0.
<mgrwt>
<rscale>  0 0.36331633E+03</rscale>
<asrwt>0</asrwt>
<pdfrwt beam="1">  1        2 0.29442267E-01 0.36331633E+03</pdfrwt>
<pdfrwt beam="2">  1       -2 0.22874021E-01 0.36331633E+03</pdfrwt>
<totfact> 0.29945292E+03</totfact>
</mgrwt>
</event>
<event>
 4    1  0.1351183E-004  0.3977840E+03  0.7818608E-02  0.1044550E+00
         -2   -1    0    0    0  501 -0.00000000000E+00  0.00000000000E+00  0.26299583375E+02  0.26299583499E+02  0.25500000000E-02 0. -1.
          2   -1    0    0  501    0  0.00000000000E+00 -0.00000000000E+00 -0.15041311080E+04  0.15041311080E+04  0.25500000000E-02 0.  1.
    5000001    1    1    2    0    0  0.75341502508E+02 -0.12696562137E+03 -0.58346921206E+03  0.61511131710E+03  0.12700000000E+03 0.  0.
   -5000001    1    1    2    0    0 -0.75341502508E+02  0.12696562137E+03 -0.89436231259E+03  0.91531937442E+03  0.12700000000E+03 0.  0.
<mgrwt>
<rscale>  0 0.39778397E+03</rscale>
<asrwt>0</asrwt>
<pdfrwt beam="1">  1        2 0.21487582E+00 0.39778397E+03</pdfrwt>
<pdfrwt beam="2">  1       -2 0.37570843E-02 0.39778397E+03</pdfrwt>
<totfact> 0.47059776E+03</totfact>
</mgrwt>
</event>
<event>
 4    1  0.1351183E-004  0.5128137E+03  0.7818608E-02  0.1010487E+00
          2   -1    0    0  501    0  0.00000000000E+00  0.00000000000E+00  0.22494788410E+04  0.22494788410E+04  0.25500000000E-02 0.  1.
         -2   -1    0    0    0  501 -0.00000000000E+00 -0.00000000000E+00 -0.29226540841E+02  0.29226540952E+02  0.25500000000E-02 0. -1.
    5000001    1    1    2    0    0  0.16025371814E+03 -0.13275529734E+03  0.14631078740E+04  0.14832797693E+04  0.12700000000E+03 0.  0.
   -5000001    1    1    2    0    0 -0.16025371814E+03  0.13275529734E+03  0.75714442614E+03  0.79542561260E+03  0.12700000000E+03 0.  0.
<mgrwt>
<rscale>  0 0.51281375E+03</rscale>
<asrwt>0</asrwt>
<pdfrwt beam="1">  1        2 0.32135437E+00 0.51281375E+03</pdfrwt>
<pdfrwt beam="2">  1       -2 0.41752169E-02 0.51281375E+03</pdfrwt>
<totfact> 0.16899115E+03</totfact>
</mgrwt>
</event>
<event>
 4    1  0.1351183E-004  0.4495377E+03  0.7818608E-02  0.1027860E+00
         -2   -1    0    0    0  501 -0.00000000000E+00  0.00000000000E+00  0.32314105904E+02  0.32314106004E+02  0.25500000000E-02 0. -1.
          2   -1    0    0  501    0  0.00000000000E+00 -0.00000000000E+00 -0.15634360700E+04  0.15634360700E+04  0.25500000000E-02 0.  1.
    5000001    1    1    2    0    0 -0.18031935299E+03 -0.89746530023E+01 -0.91601485032E+03  0.94223554352E+03  0.12700000000E+03 0.  0.
   -5000001    1    1    2    0    0  0.18031935299E+03  0.89746530023E+01 -0.61510711375E+03  0.65351463246E+03  0.12700000000E+03 0.  0.
<mgrwt>
<rscale>  0 0.44953771E+03</rscale>
<asrwt>0</asrwt>
<pdfrwt beam="1">  1        2 0.22334796E+00 0.44953771E+03</pdfrwt>
<pdfrwt beam="2">  1       -2 0.46163018E-02 0.44953771E+03</pdfrwt>
<totfact> 0.32050756E+03</totfact>
</mgrwt>
</event>
<event>
 4    1  0.1351183E-004  0.7113996E+03  0.7818608E-02  0.9697933E-01
         -2   -1    0    0    0  501 -0.00000000000E+00  0.00000000000E+00  0.17361921930E+03  0.17361921931E+03  0.25500000000E-02 0. -1.
          2   -1    0    0  501    0  0.00000000000E+00 -0.00000000000E+00 -0.72873477831E+03  0.72873477832E+03  0.25500000000E-02 0.  1.
    5000001    1    1    2    0    0  0.11160719028E+03  0.29049357816E+03 -0.42521131106E+03  0.54201138634E+03  0.12700000000E+03 0.  0.
   -5000001    1    1    2    0    0 -0.11160719028E+03 -0.29049357816E+03 -0.12990424796E+03  0.36034261129E+03  0.12700000000E+03 0.  0.
<mgrwt>
<rscale>  0 0.71139964E+03</rscale>
<asrwt>0</asrwt>
<pdfrwt beam="1">  1        2 0.10410497E+00 0.71139964E+03</pdfrwt>
<pdfrwt beam="2">  1       -2 0.24802746E-01 0.71139964E+03</pdfrwt>
<totfact> 0.62462444E+02</totfact>
</mgrwt>
</event>
<event>
 4    1  0.1351183E-004  0.3621997E+03  0.7818608E-02  0.1057716E+00
          2   -1    0    0  501    0  0.00000000000E+00  0.00000000000E+00  0.45835797188E+03  0.45835797188E+03  0.25500000000E-02 0.  1.
         -2   -1    0    0    0  501 -0.00000000000E+00 -0.00000000000E+00 -0.71553591599E+02  0.71553591644E+02  0.25500000000E-02 0. -1.
    5000001    1    1    2    0    0 -0.11541115779E+03 -0.41455313061E+02  0.13433678168E+03  0.22184149575E+03  0.12700000000E+03 0.  0.
   -5000001    1    1    2    0    0  0.11541115779E+03  0.41455313061E+02  0.25246759860E+03  0.30807006778E+03  0.12700000000E+03 0.  0.
<mgrwt>
<rscale>  0 0.36219972E+03</rscale>
<asrwt>0</asrwt>
<pdfrwt beam="1">  1        2 0.65479709E-01 0.36219972E+03</pdfrwt>
<pdfrwt beam="2">  1       -2 0.10221942E-01 0.36219972E+03</pdfrwt>
<totfact> 0.47994022E+03</totfact>
</mgrwt>
</event>
<event>
 4    1  0.1351183E-004  0.3123625E+03  0.7818608E-02  0.1079219E+00
         -2   -1    0    0    0  501 -0.00000000000E+00  0.00000000000E+00  0.86847848322E+01  0.86847852065E+01  0.25500000000E-02 0. -1.
          2   -1    0    0  501    0  0.00000000000E+00 -0.00000000000E+00 -0.28086572433E+04  0.28086572433E+04  0.25500000000E-02 0.  1.
    5000001    1    1    2    0    0  0.33642897767E+02  0.81408894394E+02 -0.16025392867E+04  0.16099752849E+04  0.12700000000E+03 0.  0.
   -5000001    1    1    2    0    0 -0.33642897767E+02 -0.81408894394E+02 -0.11974331718E+04  0.12073667436E+04  0.12700000000E+03 0.  0.
<mgrwt>
<rscale>  0 0.31236251E+03</rscale>
<asrwt>0</asrwt>
<pdfrwt beam="1">  1        2 0.40123617E+00 0.31236251E+03</pdfrwt>
<pdfrwt beam="2">  1       -2 0.12406854E-02 0.31236251E+03</pdfrwt>
<totfact> 0.54388515E+03</totfact>
</mgrwt>
</event>
<event>
 4    1  0.1351183E-004  0.4673349E+03  0.7818608E-02  0.1022675E+00
         -2   -1    0    0    0  501 -0.00000000000E+00  0.00000000000E+00  0.86334295492E+02  0.86334295530E+02  0.25500000000E-02 0. -1.
          2   -1    0    0  501    0  0.00000000000E+00 -0.00000000000E+00 -0.63243090159E+03  0.63243090159E+03  0.25500000000E-02 0.  1.
    5000001    1    1    2    0    0  0.16736833024E+03  0.94976870703E+02 -0.21471107025E+03  0.31505968899E+03  0.12700000000E+03 0.  0.
   -5000001    1    1    2    0    0 -0.16736833024E+03 -0.94976870703E+02 -0.33138553584E+03  0.40370550814E+03  0.12700000000E+03 0.  0.
<mgrwt>
<rscale>  0 0.46733490E+03</rscale>
<asrwt>0</asrwt>
<pdfrwt beam="1">  1        2 0.90347269E-01 0.46733490E+03</pdfrwt>
<pdfrwt beam="2">  1       -2 0.12333471E-01 0.46733490E+03</pdfrwt>
<totfact> 0.24630245E+03</totfact>
</mgrwt>
</event>
<event>
 4    1  0.1351183E-004  0.8043761E+03  0.7818608E-02  0.9553704E-01
          2   -1    0    0  501    0  0.00000000000E+00  0.00000000000E+00  0.25460574063E+03  0.25460574064E+03  0.25500000000E-02 0.  1.
         -2   -1    0    0    0  501 -0.00000000000E+00 -0.00000000000E+00 -0.63531643807E+03  0.63531643808E+03  0.25500000000E-02 0. -1.
    5000001    1    1    2    0    0 -0.12676889968E+03  0.32663529885E+03 -0.35764950608E+03  0.51652990386E+03  0.12700000000E+03 0.  0.
   -5000001    1    1    2    0    0  0.12676889968E+03 -0.32663529885E+03 -0.23061191362E+02  0.37339227486E+03  0.12700000000E+03 0.  0.
<mgrwt>
<rscale>  0 0.80437606E+03</rscale>
<asrwt>0</asrwt>
<pdfrwt beam="1">  1        2 0.36372249E-01 0.80437606E+03</pdfrwt>
<pdfrwt beam="2">  1       -2 0.90759490E-01 0.80437606E+03</pdfrwt>
<totfact> 0.14953909E+02</totfact>
</mgrwt>
</event>
<event>
 4    1  0.1351183E-004  0.6035254E+03  0.7818608E-02  0.9898119E-01
          2   -1    0    0  501    0  0.00000000000E+00  0.00000000000E+00  0.12443183314E+04  0.12443183314E+04  0.25500000000E-02 0.  1.
         -2   -1    0    0    0  501 -0.00000000000E+00 -0.00000000000E+00 -0.73181204663E+02  0.73181204708E+02  0.25500000000E-02 0. -1.
    5000001    1    1    2    0    0  0.22328050817E+03 -0.13333443131E+03  0.77207776944E+03  0.82453947023E+03  0.12700000000E+03 0.  0.
   -5000001    1    1    2    0    0 -0.22328050817E+03  0.13333443131E+03  0.39905935729E+03  0.49296006587E+03  0.12700000000E+03 0.  0.
<mgrwt>
<rscale>  0 0.60352536E+03</rscale>
<asrwt>0</asrwt>
<pdfrwt beam="1">  1        2 0.17775977E+00 0.60352536E+03</pdfrwt>
<pdfrwt beam="2">  1       -2 0.10454458E-01 0.60352536E+03</pdfrwt>
<totfact> 0.12989974E+03</totfact>
</mgrwt>
</event>
<event>
 4    1  0.1351183E-004  0.6709109E+03  0.7818608E-02  0.9768314E-01
         -2   -1    0    0    0  501 -0.00000000000E+00  0.00000000000E+00  0.50676295554E+03  0.50676295555E+03  0.25500000000E-02 0. -1.
          2   -1    0    0  501    0  0.00000000000E+00 -0.00000000000E+00 -0.22205716414E+03  0.22205716415E+03  0.25500000000E-02 0.  1.
    5000001    1    1    2    0    0 -0.30131418145E+03 -0.73847461537E+01  0.61376377541E+02  0.33277744837E+03  0.12700000000E+03 0.  0.
   -5000001    1    1    2    0    0  0.30131418145E+03  0.73847461537E+01  0.22332941386E+03  0.39604267133E+03  0.12700000000E+03 0.  0.
<mgrwt>
<rscale>  0 0.67091086E+03</rscale>
<asrwt>0</asrwt>
<pdfrwt beam="1">  1        2 0.31722452E-01 0.67091086E+03</pdfrwt>
<pdfrwt beam="2">  1       -2 0.72394708E-01 0.67091086E+03</pdfrwt>
<totfact> 0.29125530E+02</totfact>
</mgrwt>
</event>
<event>
 4    1  0.1351183E-004  0.3559381E+03  0.7818608E-02  0.1060204E+00
         -2   -1    0    0    0  501 -0.00000000000E+00  0.00000000000E+00  0.38575175421E+02  0.38575175506E+02  0.25500000000E-02 0. -1.
          2   -1    0    0  501    0  0.00000000000E+00 -0.00000000000E+00 -0.82107146213E+03  0.82107146213E+03  0.25500000000E-02 0.  1.
    5000001    1    1    2    0    0 -0.92240493091E+02  0.69930691874E+02 -0.50311364758E+03  0.53164927595E+03  0.12700000000E+03 0.  0.
   -5000001    1    1    2    0    0  0.92240493091E+02 -0.69930691874E+02 -0.27938263912E+03  0.32799736169E+03  0.12700000000E+03 0.  0.
<mgrwt>
<rscale>  0 0.35593806E+03</rscale>
<asrwt>0</asrwt>
<pdfrwt beam="1">  1        2 0.11729591E+00 0.35593806E+03</pdfrwt>
<pdfrwt beam="2">  1       -2 0.55107398E-02 0.35593806E+03</pdfrwt>
<totfact> 0.63977411E+03</totfact>
</mgrwt>
</event>
<event>
 4    1  0.1351183E-004  0.8649436E+03  0.7818608E-02  0.9470497E-01
         -2   -1    0    0    0  501 -0.00000000000E+00  0.00000000000E+00  0.78950279242E+02  0.78950279283E+02  0.25500000000E-02 0. -1.
          2   -1    0    0  501    0  0.00000000000E+00 -0.00000000000E+00 -0.23689827282E+04  0.23689827282E+04  0.25500000000E-02 0.  1.
    5000001    1    1    2    0    0 -0.35459074583E+03  0.17163848822E+03 -0.14997306379E+04  0.15558005508E+04  0.12700000000E+03 0.  0.
   -5000001    1    1    2    0    0  0.35459074583E+03 -0.17163848822E+03 -0.79030181100E+03  0.89213245661E+03  0.12700000000E+03 0.  0.
<mgrwt>
<rscale>  0 0.86494358E+03</rscale>
<asrwt>0</asrwt>
<pdfrwt beam="1">  1        2 0.33842606E+00 0.86494358E+03</pdfrwt>
<pdfrwt beam="2">  1       -2 0.11278613E-01 0.86494358E+03</pdfrwt>
<totfact> 0.29688742E+02</totfact>
</mgrwt>
</event>
<event>
 4    1  0.1351183E-004  0.5065233E+03  0.7818608E-02  0.1012090E+00
          2   -1    0    0  501    0  0.00000000000E+00  0.00000000000E+00  0.12397124285E+04  0.12397124285E+04  0.25500000000E-02 0.  1.
         -2   -1    0    0    0  501 -0.00000000000E+00 -0.00000000000E+00 -0.51738991972E+02  0.51738992035E+02  0.25500000000E-02 0. -1.
    5000001    1    1    2    0    0 -0.48610946114E+02 -0.73826564761E+02  0.82791589176E+02  0.17549026464E+03  0.12700000000E+03 0.  0.
   -5000001    1    1    2    0    0  0.48610946114E+02  0.73826564761E+02  0.11051818473E+04  0.11159611558E+04  0.12700000000E+03 0.  0.
<mgrwt>
<rscale>  0 0.50652333E+03</rscale>
<asrwt>0</asrwt>
<pdfrwt beam="1">  1        2 0.17710178E+00 0.50652333E+03</pdfrwt>
<pdfrwt beam="2">  1       -2 0.73912843E-02 0.50652333E+03</pdfrwt>
<totfact> 0.22818483E+03</totfact>
</mgrwt>
</event>
<event>
 4    1  0.1351183E-004  0.4361322E+03  0.7818608E-02  0.1031940E+00
         -2   -1    0    0    0  501 -0.00000000000E+00  0.00000000000E+00  0.60745570763E+02  0.60745570816E+02  0.25500000000E-02 0. -1.
          2   -1    0    0  501    0  0.00000000000E+00 -0.00000000000E+00 -0.78281966658E+03  0.78281966658E+03  0.25500000000E-02 0.  1.
    5000001    1    1    2    0    0  0.13395394991E+03 -0.11383845996E+03 -0.40518470086E+03  0.45957208082E+03  0.12700000000E+03 0.  0.
   -5000001    1    1    2    0    0 -0.13395394991E+03  0.11383845996E+03 -0.31688939496E+03  0.38399315658E+03  0.12700000000E+03 0.  0.
<mgrwt>
<rscale>  0 0.43613222E+03</rscale>
<asrwt>0</asrwt>
<pdfrwt beam="1">  1        2 0.11183137E+00 0.43613222E+03</pdfrwt>
<pdfrwt beam="2">  1       -2 0.86779392E-02 0.43613222E+03</pdfrwt>
<totfact> 0.33516975E+03</totfact>
</mgrwt>
</event>
<event>
 4    1  0.1351183E-004  0.3647274E+03  0.7818608E-02  0.1056728E+00
         -2   -1    0    0    0  501 -0.00000000000E+00  0.00000000000E+00  0.30288928627E+02  0.30288928735E+02  0.25500000000E-02 0. -1.
          2   -1    0    0  501    0  0.00000000000E+00 -0.00000000000E+00 -0.10979761803E+04  0.10979761803E+04  0.25500000000E-02 0.  1.
    5000001    1    1    2    0    0 -0.81262558177E+02  0.26274399505E+02 -0.84060343532E+03  0.85442207538E+03  0.12700000000E+03 0.  0.
   -5000001    1    1    2    0    0  0.81262558177E+02 -0.26274399505E+02 -0.22708381635E+03  0.27384303365E+03  0.12700000000E+03 0.  0.
<mgrwt>
<rscale>  0 0.36472742E+03</rscale>
<asrwt>0</asrwt>
<pdfrwt beam="1">  1        2 0.15685371E+00 0.36472742E+03</pdfrwt>
<pdfrwt beam="2">  1       -2 0.43269905E-02 0.36472742E+03</pdfrwt>
<totfact> 0.62664372E+03</totfact>
</mgrwt>
</event>
<event>
 4    1  0.1351183E-004  0.5881913E+03  0.7818608E-02  0.9930213E-01
          2   -1    0    0  501    0  0.00000000000E+00  0.00000000000E+00  0.33644207089E+03  0.33644207090E+03  0.25500000000E-02 0.  1.
         -2   -1    0    0    0  501 -0.00000000000E+00 -0.00000000000E+00 -0.25707919085E+03  0.25707919087E+03  0.25500000000E-02 0. -1.
    5000001    1    1    2    0    0  0.25316138758E+02  0.23655700037E+03 -0.78698017311E+02  0.28093148494E+03  0.12700000000E+03 0.  0.
   -5000001    1    1    2    0    0 -0.25316138758E+02 -0.23655700037E+03  0.15806089735E+03  0.31258977682E+03  0.12700000000E+03 0.  0.
<mgrwt>
<rscale>  0 0.58819131E+03</rscale>
<asrwt>0</asrwt>
<pdfrwt beam="1">  1        2 0.48063153E-01 0.58819131E+03</pdfrwt>
<pdfrwt beam="2">  1       -2 0.36725599E-01 0.58819131E+03</pdfrwt>
<totfact> 0.73649737E+02</totfact>
</mgrwt>
</event>
<event>
 4    1  0.1351183E-004  0.4845917E+03  0.7818608E-02  0.1017881E+00
         -2   -1    0    0    0  501 -0.00000000000E+00  0.00000000000E+00  0.17722373480E+02  0.17722373663E+02  0.25500000000E-02 0. -1.
          2   -1    0    0  501    0  0.00000000000E+00 -0.00000000000E+00 -0.33126083503E+04  0.33126083503E+04  0.25500000000E-02 0.  1.
    5000001    1    1    2    0    0 -0.98711630368E+02 -0.16387997616E+03 -0.11160979559E+04  0.11394754406E+04  0.12700000000E+03 0.  0.
   -5000001    1    1    2    0    0  0.98711630368E+02  0.16387997616E+03 -0.21787880209E+04  0.21908552834E+04  0.12700000000E+03 0.  0.
<mgrwt>
<rscale>  0 0.48459172E+03</rscale>
<asrwt>0</asrwt>
<pdfrwt beam="1">  1        2 0.47322937E+00 0.48459172E+03</pdfrwt>
<pdfrwt beam="2">  1       -2 0.25317698E-02 0.48459172E+03</pdfrwt>
<totfact> 0.99246465E+02</totfact>
</mgrwt>
</event>
<event>
 4    1  0.1351183E-004  0.7849684E+03  0.7818608E-02  0.9582033E-01
         -2   -1    0    0    0  501 -0.00000000000E+00  0.00000000000E+00  0.12272262491E+03  0.12272262494E+03  0.25500000000E-02 0. -1.
          2   -1    0    0  501    0  0.00000000000E+00 -0.00000000000E+00 -0.12552195466E+04  0.12552195466E+04  0.25500000000E-02 0.  1.
    5000001    1    1    2    0    0  0.67561081593E+02 -0.11732230793E+03 -0.11732903536E+04  0.11878839495E+04  0.12700000000E+03 0.  0.
   -5000001    1    1    2    0    0 -0.67561081593E+02  0.11732230793E+03  0.40793431884E+02  0.19005822205E+03  0.12700000000E+03 0.  0.
<mgrwt>
<rscale>  0 0.78496838E+03</rscale>
<asrwt>0</asrwt>
<pdfrwt beam="1">  1        2 0.17931707E+00 0.78496838E+03</pdfrwt>
<pdfrwt beam="2">  1       -2 0.17531804E-01 0.78496838E+03</pdfrwt>
<totfact> 0.53620292E+02</totfact>
</mgrwt>
</event>
<event>
 4    1  0.1351183E-004  0.5093221E+03  0.7818608E-02  0.1011374E+00
          2   -1    0    0  501    0  0.00000000000E+00  0.00000000000E+00  0.13283753807E+04  0.13283753807E+04  0.25500000000E-02 0.  1.
         -2   -1    0    0    0  501 -0.00000000000E+00 -0.00000000000E+00 -0.48820723216E+02  0.48820723282E+02  0.25500000000E-02 0. -1.
    5000001    1    1    2    0    0 -0.32743677858E+02  0.21101656064E+03  0.48866604876E+03  0.54820036895E+03  0.12700000000E+03 0.  0.
   -5000001    1    1    2    0    0  0.32743677858E+02 -0.21101656064E+03  0.79088860872E+03  0.82899573503E+03  0.12700000000E+03 0.  0.
<mgrwt>
<rscale>  0 0.50932209E+03</rscale>
<asrwt>0</asrwt>
<pdfrwt beam="1">  1        2 0.18976787E+00 0.50932209E+03</pdfrwt>
<pdfrwt beam="2">  1       -2 0.69743905E-02 0.50932209E+03</pdfrwt>
<totfact> 0.22381300E+03</totfact>
</mgrwt>
</event>
<event>
 4    1  0.1351183E-004  0.4987171E+03  0.7818608E-02  0.1014114E+00
         -2   -1    0    0    0  501 -0.00000000000E+00  0.00000000000E+00  0.21908671653E+03  0.21908671654E+03  0.25500000000E-02 0. -1.
          2   -1    0    0  501    0  0.00000000000E+00 -0.00000000000E+00 -0.28381315958E+03  0.28381315959E+03  0.25500000000E-02 0.  1.
    5000001    1    1    2    0    0 -0.14790446144E+03  0.12371338479E+03  0.62607147154E+02  0.23922664184E+03  0.12700000000E+03 0.  0.
   -5000001    1    1    2    0    0  0.14790446144E+03 -0.12371338479E+03 -0.12733359020E+03  0.26367323429E+03  0.12700000000E+03 0.  0.
<mgrwt>
<rscale>  0 0.49871713E+03</rscale>
<asrwt>0</asrwt>
<pdfrwt beam="1">  1        2 0.40544737E-01 0.49871713E+03</pdfrwt>
<pdfrwt beam="2">  1       -2 0.31298103E-01 0.49871713E+03</pdfrwt>
<totfact> 0.12003558E+03</totfact>
</mgrwt>
</event>
<event>
 4    1  0.1351183E-004  0.3215955E+03  0.7818608E-02  0.1074917E+00
          2   -1    0    0  501    0  0.00000000000E+00  0.00000000000E+00  0.12438423898E+04  0.12438423898E+04  0.25500000000E-02 0.  1.
         -2   -1    0    0    0  501 -0.00000000000E+00 -0.00000000000E+00 -0.20787133044E+02  0.20787133200E+02  0.25500000000E-02 0. -1.
    5000001    1    1    2    0    0 -0.33751728071E+02 -0.57811010980E+02  0.89633549056E+03  0.90775966190E+03  0.12700000000E+03 0.  0.
   -5000001    1    1    2    0    0  0.33751728071E+02  0.57811010980E+02  0.32671976618E+03  0.35686986109E+03  0.12700000000E+03 0.  0.
<mgrwt>
<rscale>  0 0.32159551E+03</rscale>
<asrwt>0</asrwt>
<pdfrwt beam="1">  1        2 0.17769181E+00 0.32159551E+03</pdfrwt>
<pdfrwt beam="2">  1       -2 0.29695899E-02 0.32159551E+03</pdfrwt>
<totfact> 0.91541348E+03</totfact>
</mgrwt>
</event>
<event>
 4    1  0.1351183E-004  0.7049146E+03  0.7818608E-02  0.9708864E-01
          2   -1    0    0  501    0  0.00000000000E+00  0.00000000000E+00  0.26696999645E+03  0.26696999646E+03  0.25500000000E-02 0.  1.
         -2   -1    0    0    0  501 -0.00000000000E+00 -0.00000000000E+00 -0.46531870096E+03  0.46531870096E+03  0.25500000000E-02 0. -1.
    5000001    1    1    2    0    0 -0.25550597977E+03  0.19570299259E+03 -0.16897100020E+03  0.38504956294E+03  0.12700000000E+03 0.  0.
   -5000001    1    1    2    0    0  0.25550597977E+03 -0.19570299259E+03 -0.29377704306E+02  0.34723913449E+03  0.12700000000E+03 0.  0.
<mgrwt>
<rscale>  0 0.70491455E+03</rscale>
<asrwt>0</asrwt>
<pdfrwt beam="1">  1        2 0.38138571E-01 0.70491455E+03</pdfrwt>
<pdfrwt beam="2">  1       -2 0.66474100E-01 0.70491455E+03</pdfrwt>
<totfact> 0.28513296E+02</totfact>
</mgrwt>
</event>
<event>
 4    1  0.1351183E-004  0.3838399E+03  0.7818608E-02  0.1049524E+00
         -2   -1    0    0    0  501 -0.00000000000E+00  0.00000000000E+00  0.38354308011E+02  0.38354308096E+02  0.25500000000E-02 0. -1.
          2   -1    0    0  501    0  0.00000000000E+00 -0.00000000000E+00 -0.96034244798E+03  0.96034244798E+03  0.25500000000E-02 0.  1.
    5000001    1    1    2    0    0 -0.63262806254E+02 -0.12877588346E+03 -0.48936019696E+03  0.52553573920E+03  0.12700000000E+03 0.  0.
   -5000001    1    1    2    0    0  0.63262806254E+02  0.12877588346E+03 -0.43262794301E+03  0.47316101687E+03  0.12700000000E+03 0.  0.
<mgrwt>
<rscale>  0 0.38383992E+03</rscale>
<asrwt>0</asrwt>
<pdfrwt beam="1">  1        2 0.13719176E+00 0.38383992E+03</pdfrwt>
<pdfrwt beam="2">  1       -2 0.54791874E-02 0.38383992E+03</pdfrwt>
<totfact> 0.52676417E+03</totfact>
</mgrwt>
</event>
<event>
 4    1  0.1351183E-004  0.8216841E+03  0.7818608E-02  0.9529150E-01
         -2   -1    0    0    0  501 -0.00000000000E+00  0.00000000000E+00  0.92828571797E+02  0.92828571832E+02  0.25500000000E-02 0. -1.
          2   -1    0    0  501    0  0.00000000000E+00 -0.00000000000E+00 -0.18183106596E+04  0.18183106596E+04  0.25500000000E-02 0.  1.
    5000001    1    1    2    0    0  0.12338953577E+03  0.35515226110E+03 -0.11100301478E+04  0.11788358814E+04  0.12700000000E+03 0.  0.
   -5000001    1    1    2    0    0 -0.12338953577E+03 -0.35515226110E+03 -0.61545193997E+03  0.73230335006E+03  0.12700000000E+03 0.  0.
<mgrwt>
<rscale>  0 0.82168408E+03</rscale>
<asrwt>0</asrwt>
<pdfrwt beam="1">  1        2 0.25975864E+00 0.82168408E+03</pdfrwt>
<pdfrwt beam="2">  1       -2 0.13261226E-01 0.82168408E+03</pdfrwt>
<totfact> 0.43411668E+02</totfact>
</mgrwt>
</event>
<event>
 4    1  0.1351183E-004  0.3019023E+03  0.7818608E-02  0.1084294E+00
          2   -1    0    0  501    0  0.00000000000E+00  0.00000000000E+00  0.12539046085E+04  0.12539046085E+04  0.25500000000E-02 0.  1.
         -2   -1    0    0    0  501 -0.00000000000E+00 -0.00000000000E+00 -0.18172229910E+02  0.18172230089E+02  0.25500000000E-02 0. -1.
    5000001    1    1    2    0    0 -0.70575795191E+02  0.33272008793E+02  0.51733345944E+03  0.53837800633E+03  0.12700000000E+03 0.  0.
   -5000001    1    1    2    0    0  0.70575795191E+02 -0.33272008793E+02  0.71839891915E+03  0.73369883227E+03  0.12700000000E+03 0.  0.
<mgrwt>
<rscale>  0 0.30190226E+03</rscale>
<asrwt>0</asrwt>
<pdfrwt beam="1">  1        2 0.17912924E+00 0.30190226E+03</pdfrwt>
<pdfrwt beam="2">  1       -2 0.25960328E-02 0.30190226E+03</pdfrwt>
<totfact> 0.11028718E+04</totfact>
</mgrwt>
</event>
<event>
 4    1  0.1351183E-004  0.4355279E+03  0.7818608E-02  0.1032128E+00
          2   -1    0    0  501    0  0.00000000000E+00  0.00000000000E+00  0.18878556916E+04  0.18878556916E+04  0.25500000000E-02 0.  1.
         -2   -1    0    0    0  501 -0.00000000000E+00 -0.00000000000E+00 -0.25119043528E+02  0.25119043658E+02  0.25500000000E-02 0. -1.
    5000001    1    1    2    0    0  0.10605920564E+03  0.13732720034E+03  0.10825567157E+04  0.11037052858E+04  0.12700000000E+03 0.  0.
   -5000001    1    1    2    0    0 -0.10605920564E+03 -0.13732720034E+03  0.78017993228E+03  0.80926944944E+03  0.12700000000E+03 0.  0.
<mgrwt>
<rscale>  0 0.43552786E+03</rscale>
<asrwt>0</asrwt>
<pdfrwt beam="1">  1        2 0.26969367E+00 0.43552786E+03</pdfrwt>
<pdfrwt beam="2">  1       -2 0.35884348E-02 0.43552786E+03</pdfrwt>
<totfact> 0.32347526E+03</totfact>
</mgrwt>
</event>
<event>
 4    1  0.1351183E-004  0.5632576E+03  0.7818608E-02  0.9984711E-01
         -2   -1    0    0    0  501 -0.00000000000E+00  0.00000000000E+00  0.27439535887E+03  0.27439535888E+03  0.25500000000E-02 0. -1.
          2   -1    0    0  501    0  0.00000000000E+00 -0.00000000000E+00 -0.28905292889E+03  0.28905292890E+03  0.25500000000E-02 0.  1.
    5000001    1    1    2    0    0  0.42786729357E+02  0.21902517076E+03 -0.12305309266E+03  0.28473460142E+03  0.12700000000E+03 0.  0.
   -5000001    1    1    2    0    0 -0.42786729357E+02 -0.21902517076E+03  0.10839552264E+03  0.27871368636E+03  0.12700000000E+03 0.  0.
<mgrwt>
<rscale>  0 0.56325760E+03</rscale>
<asrwt>0</asrwt>
<pdfrwt beam="1">  1        2 0.41293276E-01 0.56325760E+03</pdfrwt>
<pdfrwt beam="2">  1       -2 0.39199337E-01 0.56325760E+03</pdfrwt>
<totfact> 0.76838797E+02</totfact>
</mgrwt>
</event>
<event>
 4    1  0.1351183E-004  0.3573923E+03  0.7818608E-02  0.1059621E+00
          2   -1    0    0  501    0  0.00000000000E+00  0.00000000000E+00  0.75187684449E+03  0.75187684449E+03  0.25500000000E-02 0.  1.
         -2   -1    0    0    0  501 -0.00000000000E+00 -0.00000000000E+00 -0.42470128177E+02  0.42470128254E+02  0.25500000000E-02 0. -1.
    5000001    1    1    2    0    0  0.11677294194E+03 -0.46456259268E+02  0.34796108841E+03  0.39115217377E+03  0.12700000000E+03 0.  0.
   -5000001    1    1    2    0    0 -0.11677294194E+03  0.46456259268E+02  0.36144562790E+03  0.40319479897E+03  0.12700000000E+03 0.  0.
<mgrwt>
<rscale>  0 0.35739226E+03</rscale>
<asrwt>0</asrwt>
<pdfrwt beam="1">  1        2 0.10741098E+00 0.35739226E+03</pdfrwt>
<pdfrwt beam="2">  1       -2 0.60671613E-02 0.35739226E+03</pdfrwt>
<totfact> 0.61548984E+03</totfact>
</mgrwt>
</event>
<event>
 4    1  0.1351183E-004  0.4433656E+03  0.7818608E-02  0.1029719E+00
          2   -1    0    0  501    0  0.00000000000E+00  0.00000000000E+00  0.12314234482E+04  0.12314234482E+04  0.25500000000E-02 0.  1.
         -2   -1    0    0    0  501 -0.00000000000E+00 -0.00000000000E+00 -0.39907680050E+02  0.39907680131E+02  0.25500000000E-02 0. -1.
    5000001    1    1    2    0    0  0.34017097366E+02  0.17848464340E+03  0.59413027360E+03  0.63414013660E+03  0.12700000000E+03 0.  0.
   -5000001    1    1    2    0    0 -0.34017097366E+02 -0.17848464340E+03  0.59738549452E+03  0.63719099170E+03  0.12700000000E+03 0.  0.
<mgrwt>
<rscale>  0 0.44336555E+03</rscale>
<asrwt>0</asrwt>
<pdfrwt beam="1">  1        2 0.17591762E+00 0.44336555E+03</pdfrwt>
<pdfrwt beam="2">  1       -2 0.57010977E-02 0.44336555E+03</pdfrwt>
<totfact> 0.34621579E+03</totfact>
</mgrwt>
</event>
<event>
 4    1  0.1351183E-004  0.3544917E+03  0.7818608E-02  0.1060786E+00
         -2   -1    0    0    0  501 -0.00000000000E+00  0.00000000000E+00  0.96326439180E+02  0.96326439214E+02  0.25500000000E-02 0. -1.
          2   -1    0    0  501    0  0.00000000000E+00 -0.00000000000E+00 -0.32614188758E+03  0.32614188759E+03  0.25500000000E-02 0.  1.
    5000001    1    1    2    0    0 -0.57100125778E+02  0.67006848456E+02 -0.11445927769E+02  0.15495273914E+03  0.12700000000E+03 0.  0.
   -5000001    1    1    2    0    0  0.57100125778E+02 -0.67006848456E+02 -0.21836952063E+03  0.26751558767E+03  0.12700000000E+03 0.  0.
<mgrwt>
<rscale>  0 0.35449167E+03</rscale>
<asrwt>0</asrwt>
<pdfrwt beam="1">  1        2 0.46591698E-01 0.35449167E+03</pdfrwt>
<pdfrwt beam="2">  1       -2 0.13760920E-01 0.35449167E+03</pdfrwt>
<totfact> 0.42916922E+03</totfact>
</mgrwt>
</event>
<event>
 4    1  0.1351183E-004  0.2703887E+03  0.7818608E-02  0.1101057E+00
          2   -1    0    0  501    0  0.00000000000E+00  0.00000000000E+00  0.35187173987E+02  0.35187174080E+02  0.25500000000E-02 0.  1.
         -2   -1    0    0    0  501 -0.00000000000E+00 -0.00000000000E+00 -0.51943663775E+03  0.51943663775E+03  0.25500000000E-02 0. -1.
    5000001    1    1    2    0    0 -0.10588209611E+02 -0.43929147718E+02 -0.22094385286E+03  0.25881859732E+03  0.12700000000E+03 0.  0.
   -5000001    1    1    2    0    0  0.10588209611E+02  0.43929147718E+02 -0.26330561090E+03  0.29580521451E+03  0.12700000000E+03 0.  0.
<mgrwt>
<rscale>  0 0.27038866E+03</rscale>
<asrwt>0</asrwt>
<pdfrwt beam="1">  1        2 0.50267394E-02 0.27038866E+03</pdfrwt>
<pdfrwt beam="2">  1       -2 0.74205230E-01 0.27038866E+03</pdfrwt>
<totfact> 0.26156109E+03</totfact>
</mgrwt>
</event>
<event>
 4    1  0.1351183E-004  0.9067489E+03  0.7818608E-02  0.9417184E-01
          2   -1    0    0  501    0  0.00000000000E+00  0.00000000000E+00  0.21099550967E+03  0.21099550969E+03  0.25500000000E-02 0.  1.
         -2   -1    0    0    0  501 -0.00000000000E+00 -0.00000000000E+00 -0.97418371528E+03  0.97418371528E+03  0.25500000000E-02 0. -1.
    5000001    1    1    2    0    0 -0.26697587533E+03 -0.19600094205E+03 -0.12532009881E+02  0.35493455533E+03  0.12700000000E+03 0.  0.
   -5000001    1    1    2    0    0  0.26697587533E+03  0.19600094205E+03 -0.75065619572E+03  0.83024466965E+03  0.12700000000E+03 0.  0.
<mgrwt>
<rscale>  0 0.90674889E+03</rscale>
<asrwt>0</asrwt>
<pdfrwt beam="1">  1        2 0.30142216E-01 0.90674889E+03</pdfrwt>
<pdfrwt beam="2">  1       -2 0.13916910E+00 0.90674889E+03</pdfrwt>
<totfact> 0.64765133E+01</totfact>
</mgrwt>
</event>
<event>
 4    1  0.1351183E-004  0.4968974E+03  0.7818608E-02  0.1014592E+00
          2   -1    0    0  501    0  0.00000000000E+00  0.00000000000E+00  0.21849772972E+03  0.21849772973E+03  0.25500000000E-02 0.  1.
         -2   -1    0    0    0  501 -0.00000000000E+00 -0.00000000000E+00 -0.28250528732E+03  0.28250528733E+03  0.25500000000E-02 0. -1.
    5000001    1    1    2    0    0  0.83449660387E+02 -0.19654983169E+03 -0.30549025999E+02  0.25031565102E+03  0.12700000000E+03 0.  0.
   -5000001    1    1    2    0    0 -0.83449660387E+02  0.19654983169E+03 -0.33458531599E+02  0.25068736604E+03  0.12700000000E+03 0.  0.
<mgrwt>
<rscale>  0 0.49689743E+03</rscale>
<asrwt>0</asrwt>
<pdfrwt beam="1">  1        2 0.31213961E-01 0.49689743E+03</pdfrwt>
<pdfrwt beam="2">  1       -2 0.40357898E-01 0.49689743E+03</pdfrwt>
<totfact> 0.99050666E+02</totfact>
</mgrwt>
</event>
<event>
 4    1  0.1351183E-004  0.4101297E+03  0.7818608E-02  0.1040327E+00
          2   -1    0    0  501    0  0.00000000000E+00  0.00000000000E+00  0.57173818907E+03  0.57173818908E+03  0.25500000000E-02 0.  1.
         -2   -1    0    0    0  501 -0.00000000000E+00 -0.00000000000E+00 -0.73550426661E+02  0.73550426705E+02  0.25500000000E-02 0. -1.
    5000001    1    1    2    0    0  0.79426919776E+02 -0.68097452658E+02  0.44164263669E+03  0.47129939231E+03  0.12700000000E+03 0.  0.
   -5000001    1    1    2    0    0 -0.79426919776E+02  0.68097452658E+02  0.56545125720E+02  0.17398922348E+03  0.12700000000E+03 0.  0.
<mgrwt>
<rscale>  0 0.41012968E+03</rscale>
<asrwt>0</asrwt>
<pdfrwt beam="1">  1        2 0.81676878E-01 0.41012968E+03</pdfrwt>
<pdfrwt beam="2">  1       -2 0.10507205E-01 0.41012968E+03</pdfrwt>
<totfact> 0.35894602E+03</totfact>
</mgrwt>
</event>
<event>
 4    1  0.1351183E-004  0.3538361E+03  0.7818608E-02  0.1061051E+00
         -2   -1    0    0    0  501 -0.00000000000E+00  0.00000000000E+00  0.19134256471E+03  0.19134256473E+03  0.25500000000E-02 0. -1.
          2   -1    0    0  501    0  0.00000000000E+00 -0.00000000000E+00 -0.16358091145E+03  0.16358091147E+03  0.25500000000E-02 0.  1.
    5000001    1    1    2    0    0 -0.75413082828E+02  0.86881125454E+02  0.58010667981E+02  0.18091351697E+03  0.12700000000E+03 0.  0.
   -5000001    1    1    2    0    0  0.75413082828E+02 -0.86881125454E+02 -0.30249014718E+02  0.17400995924E+03  0.12700000000E+03 0.  0.
<mgrwt>
<rscale>  0 0.35383607E+03</rscale>
<asrwt>0</asrwt>
<pdfrwt beam="1">  1        2 0.23368702E-01 0.35383607E+03</pdfrwt>
<pdfrwt beam="2">  1       -2 0.27334652E-01 0.35383607E+03</pdfrwt>
<totfact> 0.28263480E+03</totfact>
</mgrwt>
</event>
<event>
 4    1  0.1351183E-004  0.4919501E+03  0.7818608E-02  0.1015902E+00
          2   -1    0    0  501    0  0.00000000000E+00  0.00000000000E+00  0.25133731499E+04  0.25133731499E+04  0.25500000000E-02 0.  1.
         -2   -1    0    0    0  501 -0.00000000000E+00 -0.00000000000E+00 -0.24072716994E+02  0.24072717129E+02  0.25500000000E-02 0. -1.
    5000001    1    1    2    0    0 -0.13293159014E+03  0.12046396134E+03  0.67511654200E+03  0.70999557669E+03  0.12700000000E+03 0.  0.
   -5000001    1    1    2    0    0  0.13293159014E+03 -0.12046396134E+03  0.18141838909E+04  0.18274502903E+04  0.12700000000E+03 0.  0.
<mgrwt>
<rscale>  0 0.49195008E+03</rscale>
<asrwt>0</asrwt>
<pdfrwt beam="1">  1        2 0.35905305E+00 0.49195008E+03</pdfrwt>
<pdfrwt beam="2">  1       -2 0.34389620E-02 0.49195008E+03</pdfrwt>
<totfact> 0.16732169E+03</totfact>
</mgrwt>
</event>
<event>
 4    1  0.1351183E-004  0.3140952E+03  0.7818608E-02  0.1078399E+00
          2   -1    0    0  501    0  0.00000000000E+00  0.00000000000E+00  0.17714196020E+04  0.17714196020E+04  0.25500000000E-02 0.  1.
         -2   -1    0    0    0  501 -0.00000000000E+00 -0.00000000000E+00 -0.13923263347E+02  0.13923263580E+02  0.25500000000E-02 0. -1.
    5000001    1    1    2    0    0 -0.14042966637E+02 -0.63469822154E+02  0.12518820582E+04  0.12599854407E+04  0.12700000000E+03 0.  0.
   -5000001    1    1    2    0    0  0.14042966637E+02  0.63469822154E+02  0.50561428044E+03  0.52535742482E+03  0.12700000000E+03 0.  0.
<mgrwt>
<rscale>  0 0.31409516E+03</rscale>
<asrwt>0</asrwt>
<pdfrwt beam="1">  1        2 0.25305961E+00 0.31409516E+03</pdfrwt>
<pdfrwt beam="2">  1       -2 0.19890403E-02 0.31409516E+03</pdfrwt>
<totfact> 0.89272283E+03</totfact>
</mgrwt>
</event>
<event>
 4    1  0.1351183E-004  0.4176342E+03  0.7818608E-02  0.1037839E+00
         -2   -1    0    0    0  501 -0.00000000000E+00  0.00000000000E+00  0.16589327176E+02  0.16589327372E+02  0.25500000000E-02 0. -1.
          2   -1    0    0  501    0  0.00000000000E+00 -0.00000000000E+00 -0.26284719071E+04  0.26284719071E+04  0.25500000000E-02 0.  1.
    5000001    1    1    2    0    0  0.10177552876E+03  0.24639922461E+02 -0.49214482144E+03  0.51894210593E+03  0.12700000000E+03 0.  0.
   -5000001    1    1    2    0    0 -0.10177552876E+03 -0.24639922461E+02 -0.21197377585E+04  0.21261191286E+04  0.12700000000E+03 0.  0.
<mgrwt>
<rscale>  0 0.41763420E+03</rscale>
<asrwt>0</asrwt>
<pdfrwt beam="1">  1        2 0.37549572E+00 0.41763420E+03</pdfrwt>
<pdfrwt beam="2">  1       -2 0.23699056E-02 0.41763420E+03</pdfrwt>
<totfact> 0.25733434E+03</totfact>
</mgrwt>
</event>
<event>
 4    1  0.1351183E-004  0.2914938E+03  0.7818608E-02  0.1089572E+00
         -2   -1    0    0    0  501 -0.00000000000E+00  0.00000000000E+00  0.18732187785E+02  0.18732187959E+02  0.25500000000E-02 0. -1.
          2   -1    0    0  501    0  0.00000000000E+00 -0.00000000000E+00 -0.11339920753E+04  0.11339920753E+04  0.25500000000E-02 0.  1.
    5000001    1    1    2    0    0 -0.26985545864E+02 -0.66073738501E+02 -0.54030471801E+03  0.55959998830E+03  0.12700000000E+03 0.  0.
   -5000001    1    1    2    0    0  0.26985545864E+02  0.66073738501E+02 -0.57495516950E+03  0.59312427496E+03  0.12700000000E+03 0.  0.
<mgrwt>
<rscale>  0 0.29149376E+03</rscale>
<asrwt>0</asrwt>
<pdfrwt beam="1">  1        2 0.16199882E+00 0.29149376E+03</pdfrwt>
<pdfrwt beam="2">  1       -2 0.26760276E-02 0.29149376E+03</pdfrwt>
<totfact> 0.12245181E+04</totfact>
</mgrwt>
</event>
<event>
 4    1  0.1351183E-004  0.4123926E+03  0.7818608E-02  0.1039571E+00
          2   -1    0    0  501    0  0.00000000000E+00  0.00000000000E+00  0.29033892862E+04  0.29033892862E+04  0.25500000000E-02 0.  1.
         -2   -1    0    0    0  501 -0.00000000000E+00 -0.00000000000E+00 -0.14643892379E+02  0.14643892601E+02  0.25500000000E-02 0. -1.
    5000001    1    1    2    0    0  0.11386437401E+03  0.10808938668E+03  0.11492567232E+04  0.11668626427E+04  0.12700000000E+03 0.  0.
   -5000001    1    1    2    0    0 -0.11386437401E+03 -0.10808938668E+03  0.17394886707E+04  0.17511705361E+04  0.12700000000E+03 0.  0.
<mgrwt>
<rscale>  0 0.41239263E+03</rscale>
<asrwt>0</asrwt>
<pdfrwt beam="1">  1        2 0.41477002E+00 0.41239263E+03</pdfrwt>
<pdfrwt beam="2">  1       -2 0.20919840E-02 0.41239263E+03</pdfrwt>
<totfact> 0.22297707E+03</totfact>
</mgrwt>
</event>
<event>
 4    1  0.1351183E-004  0.3114660E+03  0.7818608E-02  0.1079645E+00
          2   -1    0    0  501    0  0.00000000000E+00  0.00000000000E+00  0.43676774063E+03  0.43676774064E+03  0.25500000000E-02 0.  1.
         -2   -1    0    0    0  501 -0.00000000000E+00 -0.00000000000E+00 -0.55527848148E+02  0.55527848206E+02  0.25500000000E-02 0. -1.
    5000001    1    1    2    0    0  0.59660736268E+02 -0.45035283902E+02  0.11102117558E+03  0.18450550581E+03  0.12700000000E+03 0.  0.
   -5000001    1    1    2    0    0 -0.59660736268E+02  0.45035283902E+02  0.27021871690E+03  0.30779008303E+03  0.12700000000E+03 0.  0.
<mgrwt>
<rscale>  0 0.31146604E+03</rscale>
<asrwt>0</asrwt>
<pdfrwt beam="1">  1        2 0.62395394E-01 0.31146604E+03</pdfrwt>
<pdfrwt beam="2">  1       -2 0.79325494E-02 0.31146604E+03</pdfrwt>
<totfact> 0.75305728E+03</totfact>
</mgrwt>
</event>
<event>
 4    1  0.1351183E-004  0.4327428E+03  0.7818608E-02  0.1032997E+00
          2   -1    0    0  501    0  0.00000000000E+00  0.00000000000E+00  0.57829126341E+03  0.57829126341E+03  0.25500000000E-02 0.  1.
         -2   -1    0    0    0  501 -0.00000000000E+00 -0.00000000000E+00 -0.80956747158E+02  0.80956747198E+02  0.25500000000E-02 0. -1.
    5000001    1    1    2    0    0 -0.16219368096E+03  0.64972903708E+02  0.22943889941E+03  0.31511819516E+03  0.12700000000E+03 0.  0.
   -5000001    1    1    2    0    0  0.16219368096E+03 -0.64972903708E+02  0.26789561684E+03  0.34412981545E+03  0.12700000000E+03 0.  0.
<mgrwt>
<rscale>  0 0.43274279E+03</rscale>
<asrwt>0</asrwt>
<pdfrwt beam="1">  1        2 0.82613040E-01 0.43274279E+03</pdfrwt>
<pdfrwt beam="2">  1       -2 0.11565249E-01 0.43274279E+03</pdfrwt>
<totfact> 0.30348012E+03</totfact>
</mgrwt>
</event>
<event>
 4    1  0.1351183E-004  0.4273615E+03  0.7818608E-02  0.1034697E+00
          2   -1    0    0  501    0  0.00000000000E+00  0.00000000000E+00  0.41756699166E+04  0.41756699166E+04  0.25500000000E-02 0.  1.
         -2   -1    0    0    0  501 -0.00000000000E+00 -0.00000000000E+00 -0.10934643433E+02  0.10934643731E+02  0.25500000000E-02 0. -1.
    5000001    1    1    2    0    0 -0.15922708894E+03 -0.64594992803E+02  0.20611672870E+04  0.20722126735E+04  0.12700000000E+03 0.  0.
   -5000001    1    1    2    0    0  0.15922708894E+03  0.64594992803E+02  0.21035679862E+04  0.21143918869E+04  0.12700000000E+03 0.  0.
<mgrwt>
<rscale>  0 0.42736150E+03</rscale>
<asrwt>0</asrwt>
<pdfrwt beam="1">  1        2 0.59652362E+00 0.42736150E+03</pdfrwt>
<pdfrwt beam="2">  1       -2 0.15620937E-02 0.42736150E+03</pdfrwt>
<totfact> 0.59463878E+02</totfact>
</mgrwt>
</event>
<event>
 4    1  0.1351183E-004  0.4579461E+03  0.7818608E-02  0.1025379E+00
          2   -1    0    0  501    0  0.00000000000E+00  0.00000000000E+00  0.33801713690E+04  0.33801713690E+04  0.25500000000E-02 0. -1.
         -2   -1    0    0    0  501 -0.00000000000E+00 -0.00000000000E+00 -0.15510647543E+02  0.15510647752E+02  0.25500000000E-02 0.  1.
    5000001    1    1    2    0    0 -0.18621951629E+03  0.30199213301E+02  0.18799023913E+04  0.18936081172E+04  0.12700000000E+03 0.  0.
   -5000001    1    1    2    0    0  0.18621951629E+03 -0.30199213301E+02  0.14847583302E+04  0.15020738996E+04  0.12700000000E+03 0.  0.
<mgrwt>
<rscale>  0 0.45794605E+03</rscale>
<asrwt>0</asrwt>
<pdfrwt beam="1">  1        2 0.48288179E+00 0.45794605E+03</pdfrwt>
<pdfrwt beam="2">  1       -2 0.22158060E-02 0.45794605E+03</pdfrwt>
<totfact> 0.11123557E+03</totfact>
</mgrwt>
</event>
<event>
 4    1  0.1351183E-004  0.4029049E+03  0.7818608E-02  0.1042778E+00
          2   -1    0    0  501    0  0.00000000000E+00  0.00000000000E+00  0.27164295086E+04  0.27164295086E+04  0.25500000000E-02 0.  1.
         -2   -1    0    0    0  501 -0.00000000000E+00 -0.00000000000E+00 -0.14939861797E+02  0.14939862014E+02  0.25500000000E-02 0. -1.
    5000001    1    1    2    0    0  0.13766482067E+03  0.76556439139E+01  0.18509311333E+04  0.18603992238E+04  0.12700000000E+03 0.  0.
   -5000001    1    1    2    0    0 -0.13766482067E+03 -0.76556439139E+01  0.85055851349E+03  0.87097014679E+03  0.12700000000E+03 0.  0.
<mgrwt>
<rscale>  0 0.40290486E+03</rscale>
<asrwt>0</asrwt>
<pdfrwt beam="1">  1        2 0.38806157E+00 0.40290486E+03</pdfrwt>
<pdfrwt beam="2">  1       -2 0.21342648E-02 0.40290486E+03</pdfrwt>
<totfact> 0.27132437E+03</totfact>
</mgrwt>
</event>
<event>
 4    1  0.1351183E-004  0.3348029E+03  0.7818608E-02  0.1069031E+00
         -2   -1    0    0    0  501 -0.00000000000E+00  0.00000000000E+00  0.47602350849E+02  0.47602350917E+02  0.25500000000E-02 0. -1.
          2   -1    0    0  501    0  0.00000000000E+00 -0.00000000000E+00 -0.58869448070E+03  0.58869448071E+03  0.25500000000E-02 0.  1.
    5000001    1    1    2    0    0  0.33769744635E+02  0.94177472974E+02 -0.35304774562E+03  0.38830593963E+03  0.12700000000E+03 0.  0.
   -5000001    1    1    2    0    0 -0.33769744635E+02 -0.94177472974E+02 -0.18804438424E+03  0.24799089199E+03  0.12700000000E+03 0.  0.
<mgrwt>
<rscale>  0 0.33480287E+03</rscale>
<asrwt>0</asrwt>
<pdfrwt beam="1">  1        2 0.84099207E-01 0.33480287E+03</pdfrwt>
<pdfrwt beam="2">  1       -2 0.68003362E-02 0.33480287E+03</pdfrwt>
<totfact> 0.68769565E+03</totfact>
</mgrwt>
</event>
<event>
 4    1  0.1351183E-004  0.3460035E+03  0.7818608E-02  0.1064267E+00
         -2   -1    0    0    0  501 -0.00000000000E+00  0.00000000000E+00  0.14214027223E+03  0.14214027226E+03  0.25500000000E-02 0. -1.
          2   -1    0    0  501    0  0.00000000000E+00 -0.00000000000E+00 -0.21056389401E+03  0.21056389403E+03  0.25500000000E-02 0.  1.
    5000001    1    1    2    0    0  0.92081984445E+02 -0.54931850375E+02  0.14717846337E+02  0.16685986649E+03  0.12700000000E+03 0.  0.
   -5000001    1    1    2    0    0 -0.92081984445E+02  0.54931850375E+02 -0.83141468118E+02  0.18584429979E+03  0.12700000000E+03 0.  0.
<mgrwt>
<rscale>  0 0.34600352E+03</rscale>
<asrwt>0</asrwt>
<pdfrwt beam="1">  1        2 0.30080556E-01 0.34600352E+03</pdfrwt>
<pdfrwt beam="2">  1       -2 0.20305753E-01 0.34600352E+03</pdfrwt>
<totfact> 0.35929998E+03</totfact>
</mgrwt>
</event>
<event>
 4    1  0.1351183E-004  0.5576910E+03  0.7818608E-02  0.9997293E-01
         -2   -1    0    0    0  501 -0.00000000000E+00  0.00000000000E+00  0.39507318206E+03  0.39507318206E+03  0.25500000000E-02 0. -1.
          2   -1    0    0  501    0  0.00000000000E+00 -0.00000000000E+00 -0.19681113875E+03  0.19681113877E+03  0.25500000000E-02 0.  1.
    5000001    1    1    2    0    0 -0.77595864721E+02 -0.18231841244E+03 -0.59586393776E+02  0.24277697596E+03  0.12700000000E+03 0.  0.
   -5000001    1    1    2    0    0  0.77595864721E+02  0.18231841244E+03  0.25784843708E+03  0.34910734487E+03  0.12700000000E+03 0.  0.
<mgrwt>
<rscale>  0 0.55769096E+03</rscale>
<asrwt>0</asrwt>
<pdfrwt beam="1">  1        2 0.28115877E-01 0.55769096E+03</pdfrwt>
<pdfrwt beam="2">  1       -2 0.56439026E-01 0.55769096E+03</pdfrwt>
<totfact> 0.56853780E+02</totfact>
</mgrwt>
</event>
<event>
 4    1  0.1351183E-004  0.4472999E+03  0.7818608E-02  0.1028530E+00
          2   -1    0    0  501    0  0.00000000000E+00  0.00000000000E+00  0.19203134942E+04  0.19203134942E+04  0.25500000000E-02 0. -1.
         -2   -1    0    0    0  501 -0.00000000000E+00 -0.00000000000E+00 -0.26047466042E+02  0.26047466167E+02  0.25500000000E-02 0.  1.
    5000001    1    1    2    0    0  0.86734373558E+02 -0.15176808963E+03  0.11983798552E+04  0.12177026246E+04  0.12700000000E+03 0.  0.
   -5000001    1    1    2    0    0 -0.86734373558E+02  0.15176808963E+03  0.69588617296E+03  0.72865833578E+03  0.12700000000E+03 0.  0.
<mgrwt>
<rscale>  0 0.44729990E+03</rscale>
<asrwt>0</asrwt>
<pdfrwt beam="1">  1        2 0.27433057E+00 0.44729990E+03</pdfrwt>
<pdfrwt beam="2">  1       -2 0.37210656E-02 0.44729990E+03</pdfrwt>
<totfact> 0.29486760E+03</totfact>
</mgrwt>
</event>
<event>
 4    1  0.1351183E-004  0.2965382E+03  0.7818608E-02  0.1086984E+00
         -2   -1    0    0    0  501 -0.00000000000E+00  0.00000000000E+00  0.93847017291E+01  0.93847020755E+01  0.25500000000E-02 0. -1.
          2   -1    0    0  501    0  0.00000000000E+00 -0.00000000000E+00 -0.23425058783E+04  0.23425058783E+04  0.25500000000E-02 0.  1.
    5000001    1    1    2    0    0  0.32074955460E+02  0.69220279170E+02 -0.11199961470E+04  0.11297524592E+04  0.12700000000E+03 0.  0.
   -5000001    1    1    2    0    0 -0.32074955460E+02 -0.69220279170E+02 -0.12131250296E+04  0.12221381212E+04  0.12700000000E+03 0.  0.
<mgrwt>
<rscale>  0 0.29653816E+03</rscale>
<asrwt>0</asrwt>
<pdfrwt beam="1">  1        2 0.33464332E+00 0.29653816E+03</pdfrwt>
<pdfrwt beam="2">  1       -2 0.13406732E-02 0.29653816E+03</pdfrwt>
<totfact> 0.83529197E+03</totfact>
</mgrwt>
</event>
<event>
 4    1  0.1351183E-004  0.5602486E+03  0.7818608E-02  0.9991492E-01
         -2   -1    0    0    0  501 -0.00000000000E+00  0.00000000000E+00  0.34203239400E+02  0.34203239496E+02  0.25500000000E-02 0. -1.
          2   -1    0    0  501    0  0.00000000000E+00 -0.00000000000E+00 -0.22942160661E+04  0.22942160661E+04  0.25500000000E-02 0.  1.
    5000001    1    1    2    0    0 -0.72852564446E+02 -0.11865393934E+03 -0.19913651910E+04  0.20002626271E+04  0.12700000000E+03 0.  0.
   -5000001    1    1    2    0    0  0.72852564446E+02  0.11865393934E+03 -0.26864763566E+03  0.32815667845E+03  0.12700000000E+03 0.  0.
<mgrwt>
<rscale>  0 0.56024859E+03</rscale>
<asrwt>0</asrwt>
<pdfrwt beam="1">  1        2 0.32774505E+00 0.56024859E+03</pdfrwt>
<pdfrwt beam="2">  1       -2 0.48861785E-02 0.56024859E+03</pdfrwt>
<totfact> 0.12558589E+03</totfact>
</mgrwt>
</event>
<event>
 4    1  0.1351183E-004  0.8456378E+03  0.7818608E-02  0.9496211E-01
         -2   -1    0    0    0  501 -0.00000000000E+00  0.00000000000E+00  0.10529011146E+03  0.10529011149E+03  0.25500000000E-02 0. -1.
          2   -1    0    0  501    0  0.00000000000E+00 -0.00000000000E+00 -0.16979353867E+04  0.16979353867E+04  0.25500000000E-02 0.  1.
    5000001    1    1    2    0    0  0.21092597801E+03 -0.24986744523E+03 -0.12996888686E+04  0.13461959974E+04  0.12700000000E+03 0.  0.
   -5000001    1    1    2    0    0 -0.21092597801E+03  0.24986744523E+03 -0.29295640670E+03  0.45702950081E+03  0.12700000000E+03 0.  0.
<mgrwt>
<rscale>  0 0.84563776E+03</rscale>
<asrwt>0</asrwt>
<pdfrwt beam="1">  1        2 0.24256218E+00 0.84563776E+03</pdfrwt>
<pdfrwt beam="2">  1       -2 0.15041446E-01 0.84563776E+03</pdfrwt>
<totfact> 0.40415529E+02</totfact>
</mgrwt>
</event>
<event>
 4    1  0.1351183E-004  0.3275097E+03  0.7818608E-02  0.1072244E+00
         -2   -1    0    0    0  501 -0.00000000000E+00  0.00000000000E+00  0.21815753171E+03  0.21815753172E+03  0.25500000000E-02 0. -1.
          2   -1    0    0  501    0  0.00000000000E+00 -0.00000000000E+00 -0.12291872847E+03  0.12291872850E+03  0.25500000000E-02 0.  1.
    5000001    1    1    2    0    0 -0.45392919840E+02 -0.92174589796E+02  0.35746523838E+02  0.16722286369E+03  0.12700000000E+03 0.  0.
   -5000001    1    1    2    0    0  0.45392919840E+02  0.92174589796E+02  0.59492279399E+02  0.17385339653E+03  0.12700000000E+03 0.  0.
<mgrwt>
<rscale>  0 0.32750967E+03</rscale>
<asrwt>0</asrwt>
<pdfrwt beam="1">  1        2 0.17559818E-01 0.32750967E+03</pdfrwt>
<pdfrwt beam="2">  1       -2 0.31165362E-01 0.32750967E+03</pdfrwt>
<totfact> 0.30892087E+03</totfact>
</mgrwt>
</event>
<event>
 4    1  0.1351183E-004  0.6102560E+03  0.7818608E-02  0.9884354E-01
          2   -1    0    0  501    0  0.00000000000E+00  0.00000000000E+00  0.64593669613E+03  0.64593669613E+03  0.25500000000E-02 0.  1.
         -2   -1    0    0    0  501 -0.00000000000E+00 -0.00000000000E+00 -0.14413657746E+03  0.14413657748E+03  0.25500000000E-02 0. -1.
    5000001    1    1    2    0    0 -0.17890251805E+03 -0.20988188145E+03  0.29011752415E+03  0.41994486894E+03  0.12700000000E+03 0.  0.
   -5000001    1    1    2    0    0  0.17890251805E+03  0.20988188145E+03  0.21168259452E+03  0.37012840467E+03  0.12700000000E+03 0.  0.
<mgrwt>
<rscale>  0 0.61025603E+03</rscale>
<asrwt>0</asrwt>
<pdfrwt beam="1">  1        2 0.92276672E-01 0.61025603E+03</pdfrwt>
<pdfrwt beam="2">  1       -2 0.20590939E-01 0.61025603E+03</pdfrwt>
<totfact> 0.10089935E+03</totfact>
</mgrwt>
</event>
<event>
 4    1  0.1351183E-004  0.4987754E+03  0.7818608E-02  0.1014099E+00
          2   -1    0    0  501    0  0.00000000000E+00  0.00000000000E+00  0.40336931884E+02  0.40336931964E+02  0.25500000000E-02 0.  1.
         -2   -1    0    0    0  501 -0.00000000000E+00 -0.00000000000E+00 -0.15418677464E+04  0.15418677464E+04  0.25500000000E-02 0. -1.
    5000001    1    1    2    0    0 -0.92428974007E+01 -0.21272812832E+03 -0.66526199740E+03  0.70995859944E+03  0.12700000000E+03 0.  0.
   -5000001    1    1    2    0    0  0.92428974007E+01  0.21272812832E+03 -0.83626881714E+03  0.87224607896E+03  0.12700000000E+03 0.  0.
<mgrwt>
<rscale>  0 0.49877536E+03</rscale>
<asrwt>0</asrwt>
<pdfrwt beam="1">  1        2 0.57624198E-02 0.49877536E+03</pdfrwt>
<pdfrwt beam="2">  1       -2 0.22026678E+00 0.49877536E+03</pdfrwt>
<totfact> 0.13920390E+02</totfact>
</mgrwt>
</event>
<event>
 4    1  0.1351183E-004  0.3837018E+03  0.7818608E-02  0.1049574E+00
          2   -1    0    0  501    0  0.00000000000E+00  0.00000000000E+00  0.14571101478E+04  0.14571101478E+04  0.25500000000E-02 0.  1.
         -2   -1    0    0    0  501 -0.00000000000E+00 -0.00000000000E+00 -0.25260117091E+02  0.25260117220E+02  0.25500000000E-02 0. -1.
    5000001    1    1    2    0    0 -0.10560217838E+03  0.69304579038E+02  0.45042539429E+03  0.48473392761E+03  0.12700000000E+03 0.  0.
   -5000001    1    1    2    0    0  0.10560217838E+03 -0.69304579038E+02  0.98142463643E+03  0.99763633742E+03  0.12700000000E+03 0.  0.
<mgrwt>
<rscale>  0 0.38370183E+03</rscale>
<asrwt>0</asrwt>
<pdfrwt beam="1">  1        2 0.20815870E+00 0.38370183E+03</pdfrwt>
<pdfrwt beam="2">  1       -2 0.36085864E-02 0.38370183E+03</pdfrwt>
<totfact> 0.52876981E+03</totfact>
</mgrwt>
</event>
<event>
 4    1  0.1351183E-004  0.6250296E+03  0.7818608E-02  0.9854796E-01
         -2   -1    0    0    0  501 -0.00000000000E+00  0.00000000000E+00  0.36810584108E+03  0.36810584109E+03  0.25500000000E-02 0. -1.
          2   -1    0    0  501    0  0.00000000000E+00 -0.00000000000E+00 -0.26531906955E+03  0.26531906957E+03  0.25500000000E-02 0.  1.
    5000001    1    1    2    0    0 -0.26330293696E+03  0.92922920089E+02  0.11197418265E+03  0.32654298839E+03  0.12700000000E+03 0.  0.
   -5000001    1    1    2    0    0  0.26330293696E+03 -0.92922920089E+02 -0.91874111243E+01  0.30688192226E+03  0.12700000000E+03 0.  0.
<mgrwt>
<rscale>  0 0.62502960E+03</rscale>
<asrwt>0</asrwt>
<pdfrwt beam="1">  1        2 0.37902724E-01 0.62502960E+03</pdfrwt>
<pdfrwt beam="2">  1       -2 0.52586549E-01 0.62502960E+03</pdfrwt>
<totfact> 0.47057736E+02</totfact>
</mgrwt>
</event>
<event>
 4    1  0.1351183E-004  0.6516350E+03  0.7818608E-02  0.9803716E-01
         -2   -1    0    0    0  501 -0.00000000000E+00  0.00000000000E+00  0.49885724046E+02  0.49885724111E+02  0.25500000000E-02 0. -1.
          2   -1    0    0  501    0  0.00000000000E+00 -0.00000000000E+00 -0.21280046438E+04  0.21280046438E+04  0.25500000000E-02 0.  1.
    5000001    1    1    2    0    0  0.25778740396E+03 -0.12416690521E+03 -0.73721873907E+03  0.80093210401E+03  0.12700000000E+03 0.  0.
   -5000001    1    1    2    0    0 -0.25778740396E+03  0.12416690521E+03 -0.13409001807E+04  0.13769582639E+04  0.12700000000E+03 0.  0.
<mgrwt>
<rscale>  0 0.65163503E+03</rscale>
<asrwt>0</asrwt>
<pdfrwt beam="1">  1        2 0.30400061E+00 0.65163503E+03</pdfrwt>
<pdfrwt beam="2">  1       -2 0.71265333E-02 0.65163503E+03</pdfrwt>
<totfact> 0.83888585E+02</totfact>
</mgrwt>
</event>
<event>
 4    1  0.1351183E-004  0.7126433E+03  0.7818608E-02  0.9695851E-01
         -2   -1    0    0    0  501 -0.00000000000E+00  0.00000000000E+00  0.28281745773E+02  0.28281745888E+02  0.25500000000E-02 0. -1.
          2   -1    0    0  501    0  0.00000000000E+00 -0.00000000000E+00 -0.44892955170E+04  0.44892955170E+04  0.25500000000E-02 0.  1.
    5000001    1    1    2    0    0 -0.32086059581E+03  0.45243081865E+01 -0.16683486856E+04  0.17036690782E+04  0.12700000000E+03 0.  0.
   -5000001    1    1    2    0    0  0.32086059581E+03 -0.45243081865E+01 -0.27926650857E+04  0.28139081847E+04  0.12700000000E+03 0.  0.
<mgrwt>
<rscale>  0 0.71264329E+03</rscale>
<asrwt>0</asrwt>
<pdfrwt beam="1">  1        2 0.64132748E+00 0.71264329E+03</pdfrwt>
<pdfrwt beam="2">  1       -2 0.40402523E-02 0.71264329E+03</pdfrwt>
<totfact> 0.79500699E+01</totfact>
</mgrwt>
</event>
<event>
 4    1  0.1351183E-004  0.4930951E+03  0.7818608E-02  0.1015597E+00
          2   -1    0    0  501    0  0.00000000000E+00  0.00000000000E+00  0.10312174628E+04  0.10312174628E+04  0.25500000000E-02 0.  1.
         -2   -1    0    0    0  501 -0.00000000000E+00 -0.00000000000E+00 -0.58945570414E+02  0.58945570469E+02  0.25500000000E-02 0. -1.
    5000001    1    1    2    0    0  0.31205593330E+02 -0.20840860092E+03  0.52100640427E+03  0.57618105426E+03  0.12700000000E+03 0.  0.
   -5000001    1    1    2    0    0 -0.31205593330E+02  0.20840860092E+03  0.45126548815E+03  0.51398197905E+03  0.12700000000E+03 0.  0.
<mgrwt>
<rscale>  0 0.49309513E+03</rscale>
<asrwt>0</asrwt>
<pdfrwt beam="1">  1        2 0.14731678E+00 0.49309513E+03</pdfrwt>
<pdfrwt beam="2">  1       -2 0.84207959E-02 0.49309513E+03</pdfrwt>
<totfact> 0.24406216E+03</totfact>
</mgrwt>
</event>
<event>
 4    1  0.1351183E-004  0.2765490E+03  0.7818608E-02  0.1097589E+00
          2   -1    0    0  501    0  0.00000000000E+00  0.00000000000E+00  0.55072628379E+03  0.55072628380E+03  0.25500000000E-02 0.  1.
         -2   -1    0    0    0  501 -0.00000000000E+00 -0.00000000000E+00 -0.34717488579E+02  0.34717488672E+02  0.25500000000E-02 0. -1.
    5000001    1    1    2    0    0  0.41971345213E+02  0.10237374818E+01  0.33219454098E+03  0.35811290805E+03  0.12700000000E+03 0.  0.
   -5000001    1    1    2    0    0 -0.41971345213E+02 -0.10237374818E+01  0.18381425424E+03  0.22733086442E+03  0.12700000000E+03 0.  0.
<mgrwt>
<rscale>  0 0.27654897E+03</rscale>
<asrwt>0</asrwt>
<pdfrwt beam="1">  1        2 0.78675176E-01 0.27654897E+03</pdfrwt>
<pdfrwt beam="2">  1       -2 0.49596417E-02 0.27654897E+03</pdfrwt>
<totfact> 0.11963893E+04</totfact>
</mgrwt>
</event>
<event>
 4    1  0.1351183E-004  0.4704036E+03  0.7818608E-02  0.1021806E+00
          2   -1    0    0  501    0  0.00000000000E+00  0.00000000000E+00  0.34799199253E+02  0.34799199346E+02  0.25500000000E-02 0.  1.
         -2   -1    0    0    0  501 -0.00000000000E+00 -0.00000000000E+00 -0.15896888014E+04  0.15896888014E+04  0.25500000000E-02 0. -1.
    5000001    1    1    2    0    0 -0.16371577872E+03  0.11099454189E+03 -0.74891449862E+03  0.78493602973E+03  0.12700000000E+03 0.  0.
   -5000001    1    1    2    0    0  0.16371577872E+03 -0.11099454189E+03 -0.80597510357E+03  0.83955197106E+03  0.12700000000E+03 0.  0.
<mgrwt>
<rscale>  0 0.47040365E+03</rscale>
<asrwt>0</asrwt>
<pdfrwt beam="1">  1        2 0.49713152E-02 0.47040365E+03</pdfrwt>
<pdfrwt beam="2">  1       -2 0.22709835E+00 0.47040365E+03</pdfrwt>
<totfact> 0.15419306E+02</totfact>
</mgrwt>
</event>
<event>
 4    1  0.1351183E-004  0.3382204E+03  0.7818608E-02  0.1067556E+00
          2   -1    0    0  501    0  0.00000000000E+00  0.00000000000E+00  0.83990559448E+03  0.83990559448E+03  0.25500000000E-02 0.  1.
         -2   -1    0    0    0  501 -0.00000000000E+00 -0.00000000000E+00 -0.34049372023E+02  0.34049372118E+02  0.25500000000E-02 0. -1.
    5000001    1    1    2    0    0  0.95407917102E+02 -0.56450682002E+02  0.43758698495E+03  0.46893573071E+03  0.12700000000E+03 0.  0.
   -5000001    1    1    2    0    0 -0.95407917102E+02  0.56450682002E+02  0.36826923751E+03  0.40501923589E+03  0.12700000000E+03 0.  0.
<mgrwt>
<rscale>  0 0.33822039E+03</rscale>
<asrwt>0</asrwt>
<pdfrwt beam="1">  1        2 0.11998651E+00 0.33822039E+03</pdfrwt>
<pdfrwt beam="2">  1       -2 0.48641961E-02 0.33822039E+03</pdfrwt>
<totfact> 0.75172570E+03</totfact>
</mgrwt>
</event>
<event>
 4    1  0.1351183E-004  0.4745985E+03  0.7818608E-02  0.1020630E+00
         -2   -1    0    0    0  501 -0.00000000000E+00  0.00000000000E+00  0.20741015807E+02  0.20741015964E+02  0.25500000000E-02 0. -1.
          2   -1    0    0  501    0  0.00000000000E+00 -0.00000000000E+00 -0.27149554171E+04  0.27149554171E+04  0.25500000000E-02 0.  1.
    5000001    1    1    2    0    0  0.14520469970E+03 -0.74358300749E+02 -0.20185444207E+04  0.20291042704E+04  0.12700000000E+03 0.  0.
   -5000001    1    1    2    0    0 -0.14520469970E+03  0.74358300749E+02 -0.67566998059E+03  0.70659216269E+03  0.12700000000E+03 0.  0.
<mgrwt>
<rscale>  0 0.47459850E+03</rscale>
<asrwt>0</asrwt>
<pdfrwt beam="1">  1        2 0.38785055E+00 0.47459850E+03</pdfrwt>
<pdfrwt beam="2">  1       -2 0.29630040E-02 0.47459850E+03</pdfrwt>
<totfact> 0.16532072E+03</totfact>
</mgrwt>
</event>
<event>
 4    1  0.1351183E-004  0.8825957E+03  0.7818608E-02  0.9447603E-01
         -2   -1    0    0    0  501 -0.00000000000E+00  0.00000000000E+00  0.79901344111E+02  0.79901344152E+02  0.25500000000E-02 0. -1.
          2   -1    0    0  501    0  0.00000000000E+00 -0.00000000000E+00 -0.24373031189E+04  0.24373031189E+04  0.25500000000E-02 0.  1.
    5000001    1    1    2    0    0 -0.35658219752E+03 -0.16191795659E+03 -0.72553487264E+03  0.83420509449E+03  0.12700000000E+03 0.  0.
   -5000001    1    1    2    0    0  0.35658219752E+03  0.16191795659E+03 -0.16318669021E+04  0.16829993685E+04  0.12700000000E+03 0.  0.
<mgrwt>
<rscale>  0 0.88259571E+03</rscale>
<asrwt>0</asrwt>
<pdfrwt beam="1">  1        2 0.34818611E+00 0.88259571E+03</pdfrwt>
<pdfrwt beam="2">  1       -2 0.11414479E-01 0.88259571E+03</pdfrwt>
<totfact> 0.26805542E+02</totfact>
</mgrwt>
</event>
<event>
 4    1  0.1351183E-004  0.7131498E+03  0.7818608E-02  0.9695005E-01
         -2   -1    0    0    0  501 -0.00000000000E+00  0.00000000000E+00  0.41331394285E+02  0.41331394363E+02  0.25500000000E-02 0.  1.
          2   -1    0    0  501    0  0.00000000000E+00 -0.00000000000E+00 -0.30762492886E+04  0.30762492886E+04  0.25500000000E-02 0. -1.
    5000001    1    1    2    0    0 -0.27407559299E+03 -0.17553795431E+03 -0.12057057394E+04  0.12553032837E+04  0.12700000000E+03 0.  0.
   -5000001    1    1    2    0    0  0.27407559299E+03  0.17553795431E+03 -0.18292121549E+04  0.18622773992E+04  0.12700000000E+03 0.  0.
<mgrwt>
<rscale>  0 0.71314984E+03</rscale>
<asrwt>0</asrwt>
<pdfrwt beam="1">  1        2 0.43946404E+00 0.71314984E+03</pdfrwt>
<pdfrwt beam="2">  1       -2 0.59044869E-02 0.71314984E+03</pdfrwt>
<totfact> 0.35854818E+02</totfact>
</mgrwt>
</event>
<event>
 4    1  0.1351183E-004  0.5008676E+03  0.7818608E-02  0.1013553E+00
         -2   -1    0    0    0  501 -0.00000000000E+00  0.00000000000E+00  0.91396208533E+02  0.91396208569E+02  0.25500000000E-02 0. -1.
          2   -1    0    0  501    0  0.00000000000E+00 -0.00000000000E+00 -0.68621092547E+03  0.68621092548E+03  0.25500000000E-02 0.  1.
    5000001    1    1    2    0    0 -0.18126641403E+03  0.11553633274E+03 -0.32774790756E+03  0.41201195122E+03  0.12700000000E+03 0.  0.
   -5000001    1    1    2    0    0  0.18126641403E+03 -0.11553633274E+03 -0.26706680938E+03  0.36559518283E+03  0.12700000000E+03 0.  0.
<mgrwt>
<rscale>  0 0.50086755E+03</rscale>
<asrwt>0</asrwt>
<pdfrwt beam="1">  1        2 0.98030129E-01 0.50086755E+03</pdfrwt>
<pdfrwt beam="2">  1       -2 0.13056602E-01 0.50086755E+03</pdfrwt>
<totfact> 0.20349330E+03</totfact>
</mgrwt>
</event>
<event>
 4    1  0.1351183E-004  0.3597102E+03  0.7818608E-02  0.1058699E+00
          2   -1    0    0  501    0  0.00000000000E+00  0.00000000000E+00  0.21579747816E+04  0.21579747816E+04  0.25500000000E-02 0.  1.
         -2   -1    0    0    0  501 -0.00000000000E+00 -0.00000000000E+00 -0.14989913172E+02  0.14989913389E+02  0.25500000000E-02 0. -1.
    5000001    1    1    2    0    0  0.10841871754E+03  0.33873293799E+01  0.66839066995E+03  0.68894207303E+03  0.12700000000E+03 0.  0.
   -5000001    1    1    2    0    0 -0.10841871754E+03 -0.33873293799E+01  0.14745941985E+04  0.14840226220E+04  0.12700000000E+03 0.  0.
<mgrwt>
<rscale>  0 0.35971019E+03</rscale>
<asrwt>0</asrwt>
<pdfrwt beam="1">  1        2 0.30828203E+00 0.35971019E+03</pdfrwt>
<pdfrwt beam="2">  1       -2 0.21414167E-02 0.35971019E+03</pdfrwt>
<totfact> 0.51674375E+03</totfact>
</mgrwt>
</event>
<event>
 4    1  0.1351183E-004  0.4976149E+03  0.7818608E-02  0.1014403E+00
         -2   -1    0    0    0  501 -0.00000000000E+00  0.00000000000E+00  0.14190624080E+03  0.14190624082E+03  0.25500000000E-02 0. -1.
          2   -1    0    0  501    0  0.00000000000E+00 -0.00000000000E+00 -0.43623970112E+03  0.43623970112E+03  0.25500000000E-02 0.  1.
    5000001    1    1    2    0    0  0.14887205796E+03 -0.15366547695E+03 -0.14669103970E+03  0.28883079749E+03  0.12700000000E+03 0.  0.
   -5000001    1    1    2    0    0 -0.14887205796E+03  0.15366547695E+03 -0.14764242061E+03  0.28931514446E+03  0.12700000000E+03 0.  0.
<mgrwt>
<rscale>  0 0.49761486E+03</rscale>
<asrwt>0</asrwt>
<pdfrwt beam="1">  1        2 0.62319957E-01 0.49761486E+03</pdfrwt>
<pdfrwt beam="2">  1       -2 0.20272320E-01 0.49761486E+03</pdfrwt>
<totfact> 0.16283639E+03</totfact>
</mgrwt>
</event>
<event>
 4    1  0.1351183E-004  0.5113724E+03  0.7818608E-02  0.1010852E+00
          2   -1    0    0  501    0  0.00000000000E+00  0.00000000000E+00  0.19498105128E+03  0.19498105130E+03  0.25500000000E-02 0.  1.
         -2   -1    0    0    0  501 -0.00000000000E+00 -0.00000000000E+00 -0.33529125940E+03  0.33529125941E+03  0.25500000000E-02 0. -1.
    5000001    1    1    2    0    0  0.16021069325E+03 -0.48612175059E+02 -0.22119499837E+03  0.30510135546E+03  0.12700000000E+03 0.  0.
   -5000001    1    1    2    0    0 -0.16021069325E+03  0.48612175059E+02  0.80884790252E+02  0.22517095526E+03  0.12700000000E+03 0.  0.
<mgrwt>
<rscale>  0 0.51137244E+03</rscale>
<asrwt>0</asrwt>
<pdfrwt beam="1">  1        2 0.27854436E-01 0.51137244E+03</pdfrwt>
<pdfrwt beam="2">  1       -2 0.47898751E-01 0.51137244E+03</pdfrwt>
<totfact> 0.80299787E+02</totfact>
</mgrwt>
</event>
<event>
 4    1  0.1351183E-004  0.4688701E+03  0.7818608E-02  0.1022240E+00
         -2   -1    0    0    0  501 -0.00000000000E+00  0.00000000000E+00  0.15325275305E+02  0.15325275517E+02  0.25500000000E-02 0. -1.
          2   -1    0    0  501    0  0.00000000000E+00 -0.00000000000E+00 -0.35862186660E+04  0.35862186660E+04  0.25500000000E-02 0.  1.
    5000001    1    1    2    0    0 -0.98934098672E+02  0.16809148268E+03 -0.15698097915E+04  0.15869702215E+04  0.12700000000E+03 0.  0.
   -5000001    1    1    2    0    0  0.98934098672E+02 -0.16809148268E+03 -0.20010835992E+04  0.20145737200E+04  0.12700000000E+03 0.  0.
<mgrwt>
<rscale>  0 0.46887008E+03</rscale>
<asrwt>0</asrwt>
<pdfrwt beam="1">  1        2 0.51231642E+00 0.46887008E+03</pdfrwt>
<pdfrwt beam="2">  1       -2 0.21893274E-02 0.46887008E+03</pdfrwt>
<totfact> 0.85595924E+02</totfact>
</mgrwt>
</event>
<event>
 4    1  0.1351183E-004  0.4000732E+03  0.7818608E-02  0.1043754E+00
         -2   -1    0    0    0  501 -0.00000000000E+00  0.00000000000E+00  0.13292484380E+03  0.13292484382E+03  0.25500000000E-02 0. -1.
          2   -1    0    0  501    0  0.00000000000E+00 -0.00000000000E+00 -0.30103205113E+03  0.30103205114E+03  0.25500000000E-02 0.  1.
    5000001    1    1    2    0    0  0.72985183016E+02 -0.13610997023E+03 -0.90273113887E+02  0.21938777547E+03  0.12700000000E+03 0.  0.
   -5000001    1    1    2    0    0 -0.72985183016E+02  0.13610997023E+03 -0.77834093447E+02  0.21456911949E+03  0.12700000000E+03 0.  0.
<mgrwt>
<rscale>  0 0.40007319E+03</rscale>
<asrwt>0</asrwt>
<pdfrwt beam="1">  1        2 0.43004578E-01 0.40007319E+03</pdfrwt>
<pdfrwt beam="2">  1       -2 0.18989264E-01 0.40007319E+03</pdfrwt>
<totfact> 0.27331051E+03</totfact>
</mgrwt>
</event>
<event>
 4    1  0.1351183E-004  0.3405425E+03  0.7818608E-02  0.1066565E+00
          2   -1    0    0  501    0  0.00000000000E+00  0.00000000000E+00  0.15304656142E+04  0.15304656142E+04  0.25500000000E-02 0.  1.
         -2   -1    0    0    0  501 -0.00000000000E+00 -0.00000000000E+00 -0.18943448173E+02  0.18943448344E+02  0.25500000000E-02 0. -1.
    5000001    1    1    2    0    0  0.53043681472E+02 -0.68397553480E+02  0.42230388065E+03  0.44940118500E+03  0.12700000000E+03 0.  0.
   -5000001    1    1    2    0    0 -0.53043681472E+02  0.68397553480E+02  0.10892182854E+04  0.11000078775E+04  0.12700000000E+03 0.  0.
<mgrwt>
<rscale>  0 0.34054249E+03</rscale>
<asrwt>0</asrwt>
<pdfrwt beam="1">  1        2 0.21863804E+00 0.34054249E+03</pdfrwt>
<pdfrwt beam="2">  1       -2 0.27062057E-02 0.34054249E+03</pdfrwt>
<totfact> 0.74643559E+03</totfact>
</mgrwt>
</event>
<event>
 4    1  0.1351183E-004  0.6167736E+03  0.7818608E-02  0.9871205E-01
         -2   -1    0    0    0  501 -0.00000000000E+00  0.00000000000E+00  0.16897303285E+03  0.16897303287E+03  0.25500000000E-02 0. -1.
          2   -1    0    0  501    0  0.00000000000E+00 -0.00000000000E+00 -0.56282598054E+03  0.56282598054E+03  0.25500000000E-02 0.  1.
    5000001    1    1    2    0    0  0.23641830293E+03  0.15183372814E+03 -0.20301331624E+03  0.36917543463E+03  0.12700000000E+03 0.  0.
   -5000001    1    1    2    0    0 -0.23641830293E+03 -0.15183372814E+03 -0.19083963144E+03  0.36262357878E+03  0.12700000000E+03 0.  0.
<mgrwt>
<rscale>  0 0.61677358E+03</rscale>
<asrwt>0</asrwt>
<pdfrwt beam="1">  1        2 0.80403711E-01 0.61677358E+03</pdfrwt>
<pdfrwt beam="2">  1       -2 0.24139005E-01 0.61677358E+03</pdfrwt>
<totfact> 0.89603649E+02</totfact>
</mgrwt>
</event>
<event>
 4    1  0.1351183E-004  0.3452179E+03  0.7818608E-02  0.1064595E+00
         -2   -1    0    0    0  501 -0.00000000000E+00  0.00000000000E+00  0.55569365346E+02  0.55569365404E+02  0.25500000000E-02 0. -1.
          2   -1    0    0  501    0  0.00000000000E+00 -0.00000000000E+00 -0.53615612707E+03  0.53615612707E+03  0.25500000000E-02 0.  1.
    5000001    1    1    2    0    0  0.57277615125E+02  0.39536566685E+02 -0.40127845216E+03  0.42661137054E+03  0.12700000000E+03 0.  0.
   -5000001    1    1    2    0    0 -0.57277615125E+02 -0.39536566685E+02 -0.79308309557E+02  0.16511412194E+03  0.12700000000E+03 0.  0.
<mgrwt>
<rscale>  0 0.34521794E+03</rscale>
<asrwt>0</asrwt>
<pdfrwt beam="1">  1        2 0.76593729E-01 0.34521794E+03</pdfrwt>
<pdfrwt beam="2">  1       -2 0.79384811E-02 0.34521794E+03</pdfrwt>
<totfact> 0.60106887E+03</totfact>
</mgrwt>
</event>
<event>
 4    1  0.1351183E-004  0.3925979E+03  0.7818608E-02  0.1046373E+00
         -2   -1    0    0    0  501 -0.00000000000E+00  0.00000000000E+00  0.79724016130E+03  0.79724016131E+03  0.25500000000E-02 0. -1.
          2   -1    0    0  501    0  0.00000000000E+00 -0.00000000000E+00 -0.48333349293E+02  0.48333349361E+02  0.25500000000E-02 0.  1.
    5000001    1    1    2    0    0 -0.45957698118E+02 -0.14617943381E+02  0.67964242268E+03  0.69308629837E+03  0.12700000000E+03 0.  0.
   -5000001    1    1    2    0    0  0.45957698118E+02  0.14617943381E+02  0.69264389333E+02  0.15248721230E+03  0.12700000000E+03 0.  0.
<mgrwt>
<rscale>  0 0.39259795E+03</rscale>
<asrwt>0</asrwt>
<pdfrwt beam="1">  1        2 0.69047645E-02 0.39259795E+03</pdfrwt>
<pdfrwt beam="2">  1       -2 0.11389145E+00 0.39259795E+03</pdfrwt>
<totfact> 0.65233350E+02</totfact>
</mgrwt>
</event>
<event>
 4    1  0.1351183E-004  0.3629956E+03  0.7818608E-02  0.1057404E+00
         -2   -1    0    0    0  501 -0.00000000000E+00  0.00000000000E+00  0.12607157331E+02  0.12607157589E+02  0.25500000000E-02 0. -1.
          2   -1    0    0  501    0  0.00000000000E+00 -0.00000000000E+00 -0.26129167473E+04  0.26129167473E+04  0.25500000000E-02 0.  1.
    5000001    1    1    2    0    0  0.98726656194E+02  0.78651385595E+02 -0.10856571173E+04  0.11003242110E+04  0.12700000000E+03 0.  0.
   -5000001    1    1    2    0    0 -0.98726656194E+02 -0.78651385595E+02 -0.15146524727E+04  0.15251996939E+04  0.12700000000E+03 0.  0.
<mgrwt>
<rscale>  0 0.36299561E+03</rscale>
<asrwt>0</asrwt>
<pdfrwt beam="1">  1        2 0.37327348E+00 0.36299561E+03</pdfrwt>
<pdfrwt beam="2">  1       -2 0.18010242E-02 0.36299561E+03</pdfrwt>
<totfact> 0.39544180E+03</totfact>
</mgrwt>
</event>
<event>
 4    1  0.1351183E-004  0.3648120E+03  0.7818608E-02  0.1056695E+00
          2   -1    0    0  501    0  0.00000000000E+00  0.00000000000E+00  0.14782638910E+04  0.14782638910E+04  0.25500000000E-02 0.  1.
         -2   -1    0    0    0  501 -0.00000000000E+00 -0.00000000000E+00 -0.22507442693E+02  0.22507442837E+02  0.25500000000E-02 0. -1.
    5000001    1    1    2    0    0 -0.34711537453E+01 -0.57932100936E+02  0.24505568984E+03  0.28204515304E+03  0.12700000000E+03 0.  0.
   -5000001    1    1    2    0    0  0.34711537453E+01  0.57932100936E+02  0.12107007585E+04  0.12187261808E+04  0.12700000000E+03 0.  0.
<mgrwt>
<rscale>  0 0.36481195E+03</rscale>
<asrwt>0</asrwt>
<pdfrwt beam="1">  1        2 0.21118058E+00 0.36481195E+03</pdfrwt>
<pdfrwt beam="2">  1       -2 0.32153485E-02 0.36481195E+03</pdfrwt>
<totfact> 0.61345150E+03</totfact>
</mgrwt>
</event>
<event>
 4    1  0.1351183E-004  0.3227726E+03  0.7818608E-02  0.1074380E+00
         -2   -1    0    0    0  501 -0.00000000000E+00  0.00000000000E+00  0.13292607992E+02  0.13292608236E+02  0.25500000000E-02 0. -1.
          2   -1    0    0  501    0  0.00000000000E+00 -0.00000000000E+00 -0.19594003224E+04  0.19594003224E+04  0.25500000000E-02 0.  1.
    5000001    1    1    2    0    0 -0.84842120145E+02  0.42624096192E+02 -0.78954555628E+03  0.80531123448E+03  0.12700000000E+03 0.  0.
   -5000001    1    1    2    0    0  0.84842120145E+02 -0.42624096192E+02 -0.11565621582E+04  0.11673816962E+04  0.12700000000E+03 0.  0.
<mgrwt>
<rscale>  0 0.32277262E+03</rscale>
<asrwt>0</asrwt>
<pdfrwt beam="1">  1        2 0.27991415E+00 0.32277262E+03</pdfrwt>
<pdfrwt beam="2">  1       -2 0.18989453E-02 0.32277262E+03</pdfrwt>
<totfact> 0.77296886E+03</totfact>
</mgrwt>
</event>
<event>
 4    1  0.1351183E-004  0.4498300E+03  0.7818608E-02  0.1027773E+00
         -2   -1    0    0    0  501 -0.00000000000E+00  0.00000000000E+00  0.32826928034E+02  0.32826928133E+02  0.25500000000E-02 0. -1.
          2   -1    0    0  501    0  0.00000000000E+00 -0.00000000000E+00 -0.15410139080E+04  0.15410139080E+04  0.25500000000E-02 0.  1.
    5000001    1    1    2    0    0 -0.33059149350E+02  0.16495599785E+03 -0.10285692573E+04  0.10499462394E+04  0.12700000000E+03 0.  0.
   -5000001    1    1    2    0    0  0.33059149350E+02 -0.16495599785E+03 -0.47961772265E+03  0.52389459671E+03  0.12700000000E+03 0.  0.
<mgrwt>
<rscale>  0 0.44982998E+03</rscale>
<asrwt>0</asrwt>
<pdfrwt beam="1">  1        2 0.22014480E+00 0.44982998E+03</pdfrwt>
<pdfrwt beam="2">  1       -2 0.46895621E-02 0.44982998E+03</pdfrwt>
<totfact> 0.32122276E+03</totfact>
</mgrwt>
</event>
<event>
 4    1  0.1351183E-004  0.3582751E+03  0.7818608E-02  0.1059269E+00
         -2   -1    0    0    0  501 -0.00000000000E+00  0.00000000000E+00  0.60803313733E+02  0.60803313786E+02  0.25500000000E-02 0. -1.
          2   -1    0    0  501    0  0.00000000000E+00 -0.00000000000E+00 -0.52777172514E+03  0.52777172514E+03  0.25500000000E-02 0.  1.
    5000001    1    1    2    0    0  0.11920575255E+03 -0.33959058102E+02 -0.27365871145E+03  0.32616149285E+03  0.12700000000E+03 0.  0.
   -5000001    1    1    2    0    0 -0.11920575255E+03  0.33959058102E+02 -0.19330969996E+03  0.26241354608E+03  0.12700000000E+03 0.  0.
<mgrwt>
<rscale>  0 0.35827514E+03</rscale>
<asrwt>0</asrwt>
<pdfrwt beam="1">  1        2 0.75395958E-01 0.35827514E+03</pdfrwt>
<pdfrwt beam="2">  1       -2 0.86861880E-02 0.35827514E+03</pdfrwt>
<totfact> 0.53138494E+03</totfact>
</mgrwt>
</event>
<event>
 4    1  0.1351183E-004  0.6469781E+03  0.7818608E-02  0.9812466E-01
         -2   -1    0    0    0  501 -0.00000000000E+00  0.00000000000E+00  0.10242075607E+03  0.10242075610E+03  0.25500000000E-02 0. -1.
          2   -1    0    0  501    0  0.00000000000E+00 -0.00000000000E+00 -0.10217184109E+04  0.10217184109E+04  0.25500000000E-02 0.  1.
    5000001    1    1    2    0    0 -0.89770296542E+02  0.27211751285E+03 -0.32054361116E+03  0.44831222780E+03  0.12700000000E+03 0.  0.
   -5000001    1    1    2    0    0  0.89770296542E+02 -0.27211751285E+03 -0.59875404365E+03  0.67582693918E+03  0.12700000000E+03 0.  0.
<mgrwt>
<rscale>  0 0.64697812E+03</rscale>
<asrwt>0</asrwt>
<pdfrwt beam="1">  1        2 0.14595977E+00 0.64697812E+03</pdfrwt>
<pdfrwt beam="2">  1       -2 0.14631537E-01 0.64697812E+03</pdfrwt>
<totfact> 0.10000227E+03</totfact>
</mgrwt>
</event>
<event>
 4    1  0.1351183E-004  0.4639677E+03  0.7818608E-02  0.1023637E+00
          2   -1    0    0  501    0  0.00000000000E+00  0.00000000000E+00  0.17369019507E+04  0.17369019507E+04  0.25500000000E-02 0.  1.
         -2   -1    0    0    0  501 -0.00000000000E+00 -0.00000000000E+00 -0.30984194751E+02  0.30984194856E+02  0.25500000000E-02 0. -1.
    5000001    1    1    2    0    0  0.16412358590E+03  0.10227633080E+03  0.91790398173E+03  0.94661170443E+03  0.12700000000E+03 0.  0.
   -5000001    1    1    2    0    0 -0.16412358590E+03 -0.10227633080E+03  0.78801377419E+03  0.82127444110E+03  0.12700000000E+03 0.  0.
<mgrwt>
<rscale>  0 0.46396771E+03</rscale>
<asrwt>0</asrwt>
<pdfrwt beam="1">  1        2 0.24812884E+00 0.46396771E+03</pdfrwt>
<pdfrwt beam="2">  1       -2 0.44263137E-02 0.46396771E+03</pdfrwt>
<totfact> 0.27922429E+03</totfact>
</mgrwt>
</event>
<event>
 4    1  0.1351183E-004  0.5451763E+03  0.7818608E-02  0.1002617E+00
          2   -1    0    0  501    0  0.00000000000E+00  0.00000000000E+00  0.32259637282E+03  0.32259637283E+03  0.25500000000E-02 0.  1.
         -2   -1    0    0    0  501 -0.00000000000E+00 -0.00000000000E+00 -0.23033208044E+03  0.23033208046E+03  0.25500000000E-02 0. -1.
    5000001    1    1    2    0    0 -0.22955264576E+02 -0.11182580802E+03  0.26162299081E+03  0.31242206201E+03  0.12700000000E+03 0.  0.
   -5000001    1    1    2    0    0  0.22955264576E+02  0.11182580802E+03 -0.16935869843E+03  0.24050639128E+03  0.12700000000E+03 0.  0.
<mgrwt>
<rscale>  0 0.54517628E+03</rscale>
<asrwt>0</asrwt>
<pdfrwt beam="1">  1        2 0.46085195E-01 0.54517628E+03</pdfrwt>
<pdfrwt beam="2">  1       -2 0.32904583E-01 0.54517628E+03</pdfrwt>
<totfact> 0.94985684E+02</totfact>
</mgrwt>
</event>
<event>
 4    1  0.1351183E-004  0.3705675E+03  0.7818608E-02  0.1054476E+00
          2   -1    0    0  501    0  0.00000000000E+00  0.00000000000E+00  0.11426174116E+04  0.11426174116E+04  0.25500000000E-02 0.  1.
         -2   -1    0    0    0  501 -0.00000000000E+00 -0.00000000000E+00 -0.30045114363E+02  0.30045114472E+02  0.25500000000E-02 0. -1.
    5000001    1    1    2    0    0  0.67997437053E+02 -0.11334867659E+03  0.64175688361E+03  0.66742225884E+03  0.12700000000E+03 0.  0.
   -5000001    1    1    2    0    0 -0.67997437053E+02  0.11334867659E+03  0.47081541365E+03  0.50524026726E+03  0.12700000000E+03 0.  0.
<mgrwt>
<rscale>  0 0.37056752E+03</rscale>
<asrwt>0</asrwt>
<pdfrwt beam="1">  1        2 0.16323106E+00 0.37056752E+03</pdfrwt>
<pdfrwt beam="2">  1       -2 0.42921591E-02 0.37056752E+03</pdfrwt>
<totfact> 0.59870493E+03</totfact>
</mgrwt>
</event>
<event>
 4    1  0.1351183E-004  0.2913966E+03  0.7818608E-02  0.1089622E+00
         -2   -1    0    0    0  501 -0.00000000000E+00  0.00000000000E+00  0.41773271689E+02  0.41773271767E+02  0.25500000000E-02 0. -1.
          2   -1    0    0  501    0  0.00000000000E+00 -0.00000000000E+00 -0.50817161253E+03  0.50817161254E+03  0.25500000000E-02 0.  1.
    5000001    1    1    2    0    0 -0.37688657538E+02 -0.60477178701E+02 -0.24186148769E+03  0.28231879725E+03  0.12700000000E+03 0.  0.
   -5000001    1    1    2    0    0  0.37688657538E+02  0.60477178701E+02 -0.22453685315E+03  0.26762608705E+03  0.12700000000E+03 0.  0.
<mgrwt>
<rscale>  0 0.29139657E+03</rscale>
<asrwt>0</asrwt>
<pdfrwt beam="1">  1        2 0.72595941E-01 0.29139657E+03</pdfrwt>
<pdfrwt beam="2">  1       -2 0.59676106E-02 0.29139657E+03</pdfrwt>
<totfact> 0.98870855E+03</totfact>
</mgrwt>
</event>
<event>
 4    1  0.1351183E-004  0.4646170E+03  0.7818608E-02  0.1023451E+00
         -2   -1    0    0    0  501 -0.00000000000E+00  0.00000000000E+00  0.19210599225E+03  0.19210599227E+03  0.25500000000E-02 0. -1.
          2   -1    0    0  501    0  0.00000000000E+00 -0.00000000000E+00 -0.28092429127E+03  0.28092429128E+03  0.25500000000E-02 0.  1.
    5000001    1    1    2    0    0  0.19252180640E+03 -0.27325334342E+02 -0.39126759011E+02  0.23552329631E+03  0.12700000000E+03 0.  0.
   -5000001    1    1    2    0    0 -0.19252180640E+03  0.27325334342E+02 -0.49691540010E+02  0.23750698723E+03  0.12700000000E+03 0.  0.
<mgrwt>
<rscale>  0 0.46461700E+03</rscale>
<asrwt>0</asrwt>
<pdfrwt beam="1">  1        2 0.40132042E-01 0.46461700E+03</pdfrwt>
<pdfrwt beam="2">  1       -2 0.27443713E-01 0.46461700E+03</pdfrwt>
<totfact> 0.15438500E+03</totfact>
</mgrwt>
</event>
<event>
 4    1  0.1351183E-004  0.5376968E+03  0.7818608E-02  0.1004382E+00
         -2   -1    0    0    0  501 -0.00000000000E+00  0.00000000000E+00  0.10298592725E+03  0.10298592729E+03  0.25500000000E-02 0. -1.
          2   -1    0    0  501    0  0.00000000000E+00 -0.00000000000E+00 -0.70183836861E+03  0.70183836861E+03  0.25500000000E-02 0.  1.
    5000001    1    1    2    0    0 -0.73747772872E+02  0.22409214628E+03 -0.26614300433E+03  0.37764682281E+03  0.12700000000E+03 0.  0.
   -5000001    1    1    2    0    0  0.73747772872E+02 -0.22409214628E+03 -0.33270943702E+03  0.42717747308E+03  0.12700000000E+03 0.  0.
<mgrwt>
<rscale>  0 0.53769685E+03</rscale>
<asrwt>0</asrwt>
<pdfrwt beam="1">  1        2 0.10026262E+00 0.53769685E+03</pdfrwt>
<pdfrwt beam="2">  1       -2 0.14712276E-01 0.53769685E+03</pdfrwt>
<totfact> 0.16232114E+03</totfact>
</mgrwt>
</event>
<event>
 4    1  0.1351183E-004  0.5867056E+03  0.7818608E-02  0.9933378E-01
         -2   -1    0    0    0  501 -0.00000000000E+00  0.00000000000E+00  0.51561014397E+02  0.51561014460E+02  0.25500000000E-02 0. -1.
          2   -1    0    0  501    0  0.00000000000E+00 -0.00000000000E+00 -0.16690103123E+04  0.16690103123E+04  0.25500000000E-02 0.  1.
    5000001    1    1    2    0    0 -0.18686996819E+03  0.18706031541E+03 -0.79739776493E+03  0.84963765343E+03  0.12700000000E+03 0.  0.
   -5000001    1    1    2    0    0  0.18686996819E+03 -0.18706031541E+03 -0.82005153299E+03  0.87093367335E+03  0.12700000000E+03 0.  0.
<mgrwt>
<rscale>  0 0.58670560E+03</rscale>
<asrwt>0</asrwt>
<pdfrwt beam="1">  1        2 0.23843001E+00 0.58670560E+03</pdfrwt>
<pdfrwt beam="2">  1       -2 0.73658603E-02 0.58670560E+03</pdfrwt>
<totfact> 0.13616458E+03</totfact>
</mgrwt>
</event>
<event>
 4    1  0.1351183E-004  0.4140998E+03  0.7818608E-02  0.1039004E+00
         -2   -1    0    0    0  501 -0.00000000000E+00  0.00000000000E+00  0.25504378974E+02  0.25504379101E+02  0.25500000000E-02 0. -1.
          2   -1    0    0  501    0  0.00000000000E+00 -0.00000000000E+00 -0.16808749316E+04  0.16808749316E+04  0.25500000000E-02 0.  1.
    5000001    1    1    2    0    0  0.90170127327E+00  0.15384977398E+03 -0.59936360040E+03  0.63169319413E+03  0.12700000000E+03 0.  0.
   -5000001    1    1    2    0    0 -0.90170127327E+00 -0.15384977398E+03 -0.10560069522E+04  0.10746861166E+04  0.12700000000E+03 0.  0.
<mgrwt>
<rscale>  0 0.41409985E+03</rscale>
<asrwt>0</asrwt>
<pdfrwt beam="1">  1        2 0.24012492E+00 0.41409985E+03</pdfrwt>
<pdfrwt beam="2">  1       -2 0.36434838E-02 0.41409985E+03</pdfrwt>
<totfact> 0.40112605E+03</totfact>
</mgrwt>
</event>
<event>
 4    1  0.1351183E-004  0.4581588E+03  0.7818608E-02  0.1025317E+00
         -2   -1    0    0    0  501 -0.00000000000E+00  0.00000000000E+00  0.13092998891E+03  0.13092998893E+03  0.25500000000E-02 0. -1.
          2   -1    0    0  501    0  0.00000000000E+00 -0.00000000000E+00 -0.40080489837E+03  0.40080489838E+03  0.25500000000E-02 0.  1.
    5000001    1    1    2    0    0 -0.20759473855E+02  0.89924793782E+02 -0.32855430513E+03  0.36413507894E+03  0.12700000000E+03 0.  0.
   -5000001    1    1    2    0    0  0.20759473855E+02 -0.89924793782E+02  0.58679395672E+02  0.16759980838E+03  0.12700000000E+03 0.  0.
<mgrwt>
<rscale>  0 0.45815884E+03</rscale>
<asrwt>0</asrwt>
<pdfrwt beam="1">  1        2 0.57257842E-01 0.45815884E+03</pdfrwt>
<pdfrwt beam="2">  1       -2 0.18704284E-01 0.45815884E+03</pdfrwt>
<totfact> 0.20540134E+03</totfact>
</mgrwt>
</event>
<event>
 4    1  0.1351183E-004  0.7815210E+03  0.7818608E-02  0.9587157E-01
          2   -1    0    0  501    0  0.00000000000E+00  0.00000000000E+00  0.31708187083E+03  0.31708187084E+03  0.25500000000E-02 0.  1.
         -2   -1    0    0    0  501 -0.00000000000E+00 -0.00000000000E+00 -0.48155939055E+03  0.48155939056E+03  0.25500000000E-02 0. -1.
    5000001    1    1    2    0    0  0.87246259505E+02 -0.35747169128E+03 -0.11714599044E+03  0.40650965910E+03  0.12700000000E+03 0.  0.
   -5000001    1    1    2    0    0 -0.87246259505E+02  0.35747169128E+03 -0.47331529281E+02  0.39213160231E+03  0.12700000000E+03 0.  0.
<mgrwt>
<rscale>  0 0.78152096E+03</rscale>
<asrwt>0</asrwt>
<pdfrwt beam="1">  1        2 0.45297410E-01 0.78152096E+03</pdfrwt>
<pdfrwt beam="2">  1       -2 0.68794198E-01 0.78152096E+03</pdfrwt>
<totfact> 0.21816010E+02</totfact>
</mgrwt>
</event>
<event>
 4    1  0.1351183E-004  0.3371119E+03  0.7818608E-02  0.1068033E+00
         -2   -1    0    0    0  501 -0.00000000000E+00  0.00000000000E+00  0.61423107863E+03  0.61423107864E+03  0.25500000000E-02 0. -1.
          2   -1    0    0  501    0  0.00000000000E+00 -0.00000000000E+00 -0.46254750628E+02  0.46254750699E+02  0.25500000000E-02 0.  1.
    5000001    1    1    2    0    0 -0.31892388731E+02  0.61133706076E+02  0.45397652192E+03  0.47642222548E+03  0.12700000000E+03 0.  0.
   -5000001    1    1    2    0    0  0.31892388731E+02 -0.61133706076E+02  0.11399980609E+03  0.18406360386E+03  0.12700000000E+03 0.  0.
<mgrwt>
<rscale>  0 0.33711188E+03</rscale>
<asrwt>0</asrwt>
<pdfrwt beam="1">  1        2 0.66078215E-02 0.33711188E+03</pdfrwt>
<pdfrwt beam="2">  1       -2 0.87747297E-01 0.33711188E+03</pdfrwt>
<totfact> 0.12677851E+03</totfact>
</mgrwt>
</event>
<event>
 4    1  0.1351183E-004  0.3333959E+03  0.7818608E-02  0.1069644E+00
         -2   -1    0    0    0  501 -0.00000000000E+00  0.00000000000E+00  0.13979242949E+02  0.13979243182E+02  0.25500000000E-02 0. -1.
          2   -1    0    0  501    0  0.00000000000E+00 -0.00000000000E+00 -0.19878188062E+04  0.19878188062E+04  0.25500000000E-02 0.  1.
    5000001    1    1    2    0    0 -0.17629638211E+02  0.10617561930E+03 -0.10389653840E+04  0.10522177225E+04  0.12700000000E+03 0.  0.
   -5000001    1    1    2    0    0  0.17629638211E+02 -0.10617561930E+03 -0.93487417921E+03  0.94958032690E+03  0.12700000000E+03 0.  0.
<mgrwt>
<rscale>  0 0.33339587E+03</rscale>
<asrwt>0</asrwt>
<pdfrwt beam="1">  1        2 0.28397394E+00 0.33339587E+03</pdfrwt>
<pdfrwt beam="2">  1       -2 0.19970360E-02 0.33339587E+03</pdfrwt>
<totfact> 0.69497039E+03</totfact>
</mgrwt>
</event>
<event>
 4    1  0.1351183E-004  0.3085954E+03  0.7818608E-02  0.1081021E+00
          2   -1    0    0  501    0  0.00000000000E+00  0.00000000000E+00  0.13759366895E+03  0.13759366898E+03  0.25500000000E-02 0.  1.
         -2   -1    0    0    0  501 -0.00000000000E+00 -0.00000000000E+00 -0.17302956925E+03  0.17302956926E+03  0.25500000000E-02 0. -1.
    5000001    1    1    2    0    0  0.44615825072E+02  0.74429921908E+02 -0.29979466300E+02  0.15671041293E+03  0.12700000000E+03 0.  0.
   -5000001    1    1    2    0    0 -0.44615825072E+02 -0.74429921908E+02 -0.54564339931E+01  0.15391282531E+03  0.12700000000E+03 0.  0.
<mgrwt>
<rscale>  0 0.30859535E+03</rscale>
<asrwt>0</asrwt>
<pdfrwt beam="1">  1        2 0.19656239E-01 0.30859535E+03</pdfrwt>
<pdfrwt beam="2">  1       -2 0.24718510E-01 0.30859535E+03</pdfrwt>
<totfact> 0.41061372E+03</totfact>
</mgrwt>
</event>
<event>
 4    1  0.1351183E-004  0.3041474E+03  0.7818608E-02  0.1083186E+00
         -2   -1    0    0    0  501 -0.00000000000E+00  0.00000000000E+00  0.23688455959E+02  0.23688456096E+02  0.25500000000E-02 0. -1.
          2   -1    0    0  501    0  0.00000000000E+00 -0.00000000000E+00 -0.97627365766E+03  0.97627365767E+03  0.25500000000E-02 0.  1.
    5000001    1    1    2    0    0 -0.70820487120E+02 -0.28900844227E+02 -0.58762159271E+03  0.60603542504E+03  0.12700000000E+03 0.  0.
   -5000001    1    1    2    0    0  0.70820487120E+02  0.28900844227E+02 -0.36496360900E+03  0.39392668872E+03  0.12700000000E+03 0.  0.
<mgrwt>
<rscale>  0 0.30414744E+03</rscale>
<asrwt>0</asrwt>
<pdfrwt beam="1">  1        2 0.13946764E+00 0.30414744E+03</pdfrwt>
<pdfrwt beam="2">  1       -2 0.33840658E-02 0.30414744E+03</pdfrwt>
<totfact> 0.10653068E+04</totfact>
</mgrwt>
</event>
<event>
 4    1  0.1351183E-004  0.5173420E+03  0.7818608E-02  0.1009349E+00
          2   -1    0    0  501    0  0.00000000000E+00  0.00000000000E+00  0.34288999766E+02  0.34288999861E+02  0.25500000000E-02 0.  1.
         -2   -1    0    0    0  501 -0.00000000000E+00 -0.00000000000E+00 -0.19513745865E+04  0.19513745865E+04  0.25500000000E-02 0. -1.
    5000001    1    1    2    0    0  0.19234539124E+03 -0.46112533881E+01 -0.50824992873E+03  0.55809049736E+03  0.12700000000E+03 0.  0.
   -5000001    1    1    2    0    0 -0.19234539124E+03  0.46112533881E+01 -0.14088356580E+04  0.14275730890E+04  0.12700000000E+03 0.  0.
<mgrwt>
<rscale>  0 0.51734199E+03</rscale>
<asrwt>0</asrwt>
<pdfrwt beam="1">  1        2 0.48984298E-02 0.51734199E+03</pdfrwt>
<pdfrwt beam="2">  1       -2 0.27876773E+00 0.51734199E+03</pdfrwt>
<totfact> 0.76885826E+01</totfact>
</mgrwt>
</event>
<event>
 4    1  0.1351183E-004  0.4646078E+03  0.7818608E-02  0.1023453E+00
         -2   -1    0    0    0  501 -0.00000000000E+00  0.00000000000E+00  0.34008900549E+02  0.34008900645E+02  0.25500000000E-02 0. -1.
          2   -1    0    0  501    0  0.00000000000E+00 -0.00000000000E+00 -0.15867933933E+04  0.15867933933E+04  0.25500000000E-02 0.  1.
    5000001    1    1    2    0    0 -0.13154972352E+02  0.19367362837E+03 -0.73316093693E+03  0.76898406165E+03  0.12700000000E+03 0.  0.
   -5000001    1    1    2    0    0  0.13154972352E+02 -0.19367362837E+03 -0.81962355579E+03  0.85181823227E+03  0.12700000000E+03 0.  0.
<mgrwt>
<rscale>  0 0.46460779E+03</rscale>
<asrwt>0</asrwt>
<pdfrwt beam="1">  1        2 0.22668472E+00 0.46460779E+03</pdfrwt>
<pdfrwt beam="2">  1       -2 0.48584154E-02 0.46460779E+03</pdfrwt>
<totfact> 0.28820535E+03</totfact>
</mgrwt>
</event>
<event>
 4    1  0.1351183E-004  0.6400710E+03  0.7818608E-02  0.9825591E-01
         -2   -1    0    0    0  501 -0.00000000000E+00  0.00000000000E+00  0.19865393903E+03  0.19865393905E+03  0.25500000000E-02 0. -1.
          2   -1    0    0  501    0  0.00000000000E+00 -0.00000000000E+00 -0.51558368596E+03  0.51558368597E+03  0.25500000000E-02 0.  1.
    5000001    1    1    2    0    0  0.24547272258E+03 -0.14274970454E+03 -0.74518964286E+02  0.31986936664E+03  0.12700000000E+03 0.  0.
   -5000001    1    1    2    0    0 -0.24547272258E+03  0.14274970454E+03 -0.24241078264E+03  0.39436825838E+03  0.12700000000E+03 0.  0.
<mgrwt>
<rscale>  0 0.64007103E+03</rscale>
<asrwt>0</asrwt>
<pdfrwt beam="1">  1        2 0.73654812E-01 0.64007103E+03</pdfrwt>
<pdfrwt beam="2">  1       -2 0.28379134E-01 0.64007103E+03</pdfrwt>
<totfact> 0.73943197E+02</totfact>
</mgrwt>
</event>
<event>
 4    1  0.1351183E-004  0.5324736E+03  0.7818608E-02  0.1005634E+00
         -2   -1    0    0    0  501 -0.00000000000E+00  0.00000000000E+00  0.57038468239E+02  0.57038468296E+02  0.25500000000E-02 0. -1.
          2   -1    0    0  501    0  0.00000000000E+00 -0.00000000000E+00 -0.12427056473E+04  0.12427056473E+04  0.25500000000E-02 0.  1.
    5000001    1    1    2    0    0  0.20178963903E+03  0.71307345405E+02 -0.36191831943E+03  0.43922393590E+03  0.12700000000E+03 0.  0.
   -5000001    1    1    2    0    0 -0.20178963903E+03 -0.71307345405E+02 -0.82374885963E+03  0.86052017970E+03  0.12700000000E+03 0.  0.
<mgrwt>
<rscale>  0 0.53247357E+03</rscale>
<asrwt>0</asrwt>
<pdfrwt beam="1">  1        2 0.17752936E+00 0.53247357E+03</pdfrwt>
<pdfrwt beam="2">  1       -2 0.81483534E-02 0.53247357E+03</pdfrwt>
<totfact> 0.19468417E+03</totfact>
</mgrwt>
</event>
<event>
 4    1  0.1351183E-004  0.3938645E+03  0.7818608E-02  0.1045925E+00
          2   -1    0    0  501    0  0.00000000000E+00  0.00000000000E+00  0.35414049599E+04  0.35414049599E+04  0.25500000000E-02 0. -1.
         -2   -1    0    0    0  501 -0.00000000000E+00 -0.00000000000E+00 -0.10951110073E+02  0.10951110370E+02  0.25500000000E-02 0.  1.
    5000001    1    1    2    0    0  0.45629452869E+02  0.12493366352E+03  0.11298445747E+04  0.11447131650E+04  0.12700000000E+03 0.  0.
   -5000001    1    1    2    0    0 -0.45629452869E+02 -0.12493366352E+03  0.24006092751E+04  0.24076429052E+04  0.12700000000E+03 0.  0.
<mgrwt>
<rscale>  0 0.39386453E+03</rscale>
<asrwt>0</asrwt>
<pdfrwt beam="1">  1        2 0.50591514E+00 0.39386453E+03</pdfrwt>
<pdfrwt beam="2">  1       -2 0.15644439E-02 0.39386453E+03</pdfrwt>
<totfact> 0.15147248E+03</totfact>
</mgrwt>
</event>
<event>
 4    1  0.1351183E-004  0.4326056E+03  0.7818608E-02  0.1033040E+00
         -2   -1    0    0    0  501 -0.00000000000E+00  0.00000000000E+00  0.73526852509E+02  0.73526852554E+02  0.25500000000E-02 0. -1.
          2   -1    0    0  501    0  0.00000000000E+00 -0.00000000000E+00 -0.63632415184E+03  0.63632415184E+03  0.25500000000E-02 0.  1.
    5000001    1    1    2    0    0  0.50031693994E+02  0.85865326684E+02 -0.51794568384E+03  0.54246912921E+03  0.12700000000E+03 0.  0.
   -5000001    1    1    2    0    0 -0.50031693994E+02 -0.85865326684E+02 -0.44851615485E+02  0.16738187519E+03  0.12700000000E+03 0.  0.
<mgrwt>
<rscale>  0 0.43260565E+03</rscale>
<asrwt>0</asrwt>
<pdfrwt beam="1">  1        2 0.90903447E-01 0.43260565E+03</pdfrwt>
<pdfrwt beam="2">  1       -2 0.10503836E-01 0.43260565E+03</pdfrwt>
<totfact> 0.31731914E+03</totfact>
</mgrwt>
</event>
<event>
 4    1  0.1351183E-004  0.8926541E+03  0.7818608E-02  0.9434811E-01
         -2   -1    0    0    0  501 -0.00000000000E+00  0.00000000000E+00  0.97125298578E+02  0.97125298611E+02  0.25500000000E-02 0. -1.
          2   -1    0    0  501    0  0.00000000000E+00 -0.00000000000E+00 -0.20510397006E+04  0.20510397006E+04  0.25500000000E-02 0.  1.
    5000001    1    1    2    0    0  0.13773003838E+03 -0.38844810446E+03 -0.12536237285E+04  0.13257310987E+04  0.12700000000E+03 0.  0.
   -5000001    1    1    2    0    0 -0.13773003838E+03  0.38844810446E+03 -0.70029067349E+03  0.82243390051E+03  0.12700000000E+03 0.  0.
<mgrwt>
<rscale>  0 0.89265412E+03</rscale>
<asrwt>0</asrwt>
<pdfrwt beam="1">  1        2 0.29300565E+00 0.89265412E+03</pdfrwt>
<pdfrwt beam="2">  1       -2 0.13875044E-01 0.89265412E+03</pdfrwt>
<totfact> 0.30498793E+02</totfact>
</mgrwt>
</event>
<event>
 4    1  0.1351183E-004  0.3758818E+03  0.7818608E-02  0.1052466E+00
          2   -1    0    0  501    0  0.00000000000E+00  0.00000000000E+00  0.25712289620E+02  0.25712289746E+02  0.25500000000E-02 0.  1.
         -2   -1    0    0    0  501 -0.00000000000E+00 -0.00000000000E+00 -0.13737318008E+04  0.13737318008E+04  0.25500000000E-02 0. -1.
    5000001    1    1    2    0    0 -0.99589662862E+02  0.95343205638E+02 -0.72456196571E+03  0.74841664196E+03  0.12700000000E+03 0.  0.
   -5000001    1    1    2    0    0  0.99589662862E+02 -0.95343205638E+02 -0.62345754546E+03  0.65102744858E+03  0.12700000000E+03 0.  0.
<mgrwt>
<rscale>  0 0.37588184E+03</rscale>
<asrwt>0</asrwt>
<pdfrwt beam="1">  1        2 0.36731851E-02 0.37588184E+03</pdfrwt>
<pdfrwt beam="2">  1       -2 0.19624735E+00 0.37588184E+03</pdfrwt>
<totfact> 0.36325749E+02</totfact>
</mgrwt>
</event>
<event>
 4    1  0.1351183E-004  0.3258182E+03  0.7818608E-02  0.1073002E+00
          2   -1    0    0  501    0  0.00000000000E+00  0.00000000000E+00  0.12997144567E+03  0.12997144569E+03  0.25500000000E-02 0.  1.
         -2   -1    0    0    0  501 -0.00000000000E+00 -0.00000000000E+00 -0.20419390228E+03  0.20419390230E+03  0.25500000000E-02 0. -1.
    5000001    1    1    2    0    0 -0.37020883620E+02  0.94460936529E+02 -0.26019248692E+02  0.16461900150E+03  0.12700000000E+03 0.  0.
   -5000001    1    1    2    0    0  0.37020883620E+02 -0.94460936529E+02 -0.48203207921E+02  0.16954634649E+03  0.12700000000E+03 0.  0.
<mgrwt>
<rscale>  0 0.32581821E+03</rscale>
<asrwt>0</asrwt>
<pdfrwt beam="1">  1        2 0.18567349E-01 0.32581821E+03</pdfrwt>
<pdfrwt beam="2">  1       -2 0.29170557E-01 0.32581821E+03</pdfrwt>
<totfact> 0.32656369E+03</totfact>
</mgrwt>
</event>
<event>
 4    1  0.1351183E-004  0.4066321E+03  0.7818608E-02  0.1041507E+00
         -2   -1    0    0    0  501 -0.00000000000E+00  0.00000000000E+00  0.41003839406E+02  0.41003839486E+02  0.25500000000E-02 0. -1.
          2   -1    0    0  501    0  0.00000000000E+00 -0.00000000000E+00 -0.10081351932E+04  0.10081351932E+04  0.25500000000E-02 0.  1.
    5000001    1    1    2    0    0 -0.52379499797E+02 -0.14635900395E+03 -0.56692402681E+03  0.60141202366E+03  0.12700000000E+03 0.  0.
   -5000001    1    1    2    0    0  0.52379499797E+02  0.14635900395E+03 -0.40020732699E+03  0.44772700903E+03  0.12700000000E+03 0.  0.
<mgrwt>
<rscale>  0 0.40663209E+03</rscale>
<asrwt>0</asrwt>
<pdfrwt beam="1">  1        2 0.14401930E+00 0.40663209E+03</pdfrwt>
<pdfrwt beam="2">  1       -2 0.58576920E-02 0.40663209E+03</pdfrwt>
<totfact> 0.44490221E+03</totfact>
</mgrwt>
</event>
<event>
 4    1  0.1351183E-004  0.5301902E+03  0.7818608E-02  0.1006186E+00
         -2   -1    0    0    0  501 -0.00000000000E+00  0.00000000000E+00  0.63963883645E+02  0.63963883696E+02  0.25500000000E-02 0. -1.
          2   -1    0    0  501    0  0.00000000000E+00 -0.00000000000E+00 -0.10986731414E+04  0.10986731414E+04  0.25500000000E-02 0.  1.
    5000001    1    1    2    0    0 -0.18709098361E+03 -0.12632306030E+03 -0.64112739632E+03  0.69147226266E+03  0.12700000000E+03 0.  0.
   -5000001    1    1    2    0    0  0.18709098361E+03  0.12632306030E+03 -0.39358186142E+03  0.47116476243E+03  0.12700000000E+03 0.  0.
<mgrwt>
<rscale>  0 0.53019016E+03</rscale>
<asrwt>0</asrwt>
<pdfrwt beam="1">  1        2 0.15695329E+00 0.53019016E+03</pdfrwt>
<pdfrwt beam="2">  1       -2 0.91376983E-02 0.53019016E+03</pdfrwt>
<totfact> 0.19545563E+03</totfact>
</mgrwt>
</event>
<event>
 4    1  0.1351183E-004  0.3325284E+03  0.7818608E-02  0.1070024E+00
          2   -1    0    0  501    0  0.00000000000E+00  0.00000000000E+00  0.14616687052E+04  0.14616687052E+04  0.25500000000E-02 0.  1.
         -2   -1    0    0    0  501 -0.00000000000E+00 -0.00000000000E+00 -0.18912488189E+02  0.18912488361E+02  0.25500000000E-02 0. -1.
    5000001    1    1    2    0    0 -0.34702849704E+02 -0.89692714367E+02  0.50944115743E+03  0.53376808042E+03  0.12700000000E+03 0.  0.
   -5000001    1    1    2    0    0  0.34702849704E+02  0.89692714367E+02  0.93331505961E+03  0.94681311318E+03  0.12700000000E+03 0.  0.
<mgrwt>
<rscale>  0 0.33252845E+03</rscale>
<asrwt>0</asrwt>
<pdfrwt beam="1">  1        2 0.20880986E+00 0.33252845E+03</pdfrwt>
<pdfrwt beam="2">  1       -2 0.27017835E-02 0.33252845E+03</pdfrwt>
<totfact> 0.81090056E+03</totfact>
</mgrwt>
</event>
<event>
 4    1  0.1351183E-004  0.2947125E+03  0.7818608E-02  0.1087914E+00
          2   -1    0    0  501    0  0.00000000000E+00  0.00000000000E+00  0.14545297300E+03  0.14545297302E+03  0.25500000000E-02 0.  1.
         -2   -1    0    0    0  501 -0.00000000000E+00 -0.00000000000E+00 -0.14928438816E+03  0.14928438818E+03  0.25500000000E-02 0. -1.
    5000001    1    1    2    0    0 -0.49022830514E+02  0.51750299224E+02  0.20525589355E+02  0.14707695673E+03  0.12700000000E+03 0.  0.
   -5000001    1    1    2    0    0  0.49022830514E+02 -0.51750299224E+02 -0.24357004516E+02  0.14766040448E+03  0.12700000000E+03 0.  0.
<mgrwt>
<rscale>  0 0.29471246E+03</rscale>
<asrwt>0</asrwt>
<pdfrwt beam="1">  1        2 0.20778996E-01 0.29471246E+03</pdfrwt>
<pdfrwt beam="2">  1       -2 0.21326341E-01 0.29471246E+03</pdfrwt>
<totfact> 0.49787984E+03</totfact>
</mgrwt>
</event>
<event>
 4    1  0.1351183E-004  0.4826805E+03  0.7818608E-02  0.1018401E+00
         -2   -1    0    0    0  501 -0.00000000000E+00  0.00000000000E+00  0.22086138549E+02  0.22086138696E+02  0.25500000000E-02 0. -1.
          2   -1    0    0  501    0  0.00000000000E+00 -0.00000000000E+00 -0.26371798367E+04  0.26371798367E+04  0.25500000000E-02 0.  1.
    5000001    1    1    2    0    0 -0.18520446001E+03  0.21603160774E+02 -0.17798362321E+04  0.17940773121E+04  0.12700000000E+03 0.  0.
   -5000001    1    1    2    0    0  0.18520446001E+03 -0.21603160774E+02 -0.83525746601E+03  0.86518866329E+03  0.12700000000E+03 0.  0.
<mgrwt>
<rscale>  0 0.48268051E+03</rscale>
<asrwt>0</asrwt>
<pdfrwt beam="1">  1        2 0.37673978E+00 0.48268051E+03</pdfrwt>
<pdfrwt beam="2">  1       -2 0.31551643E-02 0.48268051E+03</pdfrwt>
<totfact> 0.16484307E+03</totfact>
</mgrwt>
</event>
<event>
 4    1  0.1351183E-004  0.4197725E+03  0.7818608E-02  0.1037140E+00
          2   -1    0    0  501    0  0.00000000000E+00  0.00000000000E+00  0.51258098073E+03  0.51258098074E+03  0.25500000000E-02 0.  1.
         -2   -1    0    0    0  501 -0.00000000000E+00 -0.00000000000E+00 -0.85942002907E+02  0.85942002945E+02  0.25500000000E-02 0. -1.
    5000001    1    1    2    0    0 -0.16068883673E+03 -0.29738938007E+02  0.16355976910E+03  0.26379178295E+03  0.12700000000E+03 0.  0.
   -5000001    1    1    2    0    0  0.16068883673E+03  0.29738938007E+02  0.26307920872E+03  0.33473120073E+03  0.12700000000E+03 0.  0.
<mgrwt>
<rscale>  0 0.41977249E+03</rscale>
<asrwt>0</asrwt>
<pdfrwt beam="1">  1        2 0.73225853E-01 0.41977249E+03</pdfrwt>
<pdfrwt beam="2">  1       -2 0.12277429E-01 0.41977249E+03</pdfrwt>
<totfact> 0.31576128E+03</totfact>
</mgrwt>
</event>
<event>
 4    1  0.1351183E-004  0.3025029E+03  0.7818608E-02  0.1083996E+00
         -2   -1    0    0    0  501 -0.00000000000E+00  0.00000000000E+00  0.20449959468E+02  0.20449959627E+02  0.25500000000E-02 0. -1.
          2   -1    0    0  501    0  0.00000000000E+00 -0.00000000000E+00 -0.11186819996E+04  0.11186819996E+04  0.25500000000E-02 0.  1.
    5000001    1    1    2    0    0  0.55996650585E+02 -0.60052769197E+02 -0.55837201773E+03  0.57848964567E+03  0.12700000000E+03 0.  0.
   -5000001    1    1    2    0    0 -0.55996650585E+02  0.60052769197E+02 -0.53986002242E+03  0.56064231357E+03  0.12700000000E+03 0.  0.
<mgrwt>
<rscale>  0 0.30250290E+03</rscale>
<asrwt>0</asrwt>
<pdfrwt beam="1">  1        2 0.15981168E+00 0.30250290E+03</pdfrwt>
<pdfrwt beam="2">  1       -2 0.29214235E-02 0.30250290E+03</pdfrwt>
<totfact> 0.10972534E+04</totfact>
</mgrwt>
</event>
<event>
 4    1  0.1351183E-004  0.3818936E+03  0.7818608E-02  0.1050236E+00
         -2   -1    0    0    0  501 -0.00000000000E+00  0.00000000000E+00  0.40245758828E+03  0.40245758829E+03  0.25500000000E-02 0. -1.
          2   -1    0    0  501    0  0.00000000000E+00 -0.00000000000E+00 -0.90595099292E+02  0.90595099328E+02  0.25500000000E-02 0.  1.
    5000001    1    1    2    0    0  0.34429201028E+02 -0.12526370037E+03  0.23182308772E+03  0.29452896040E+03  0.12700000000E+03 0.  0.
   -5000001    1    1    2    0    0 -0.34429201028E+02  0.12526370037E+03  0.80039401267E+02  0.19852372722E+03  0.12700000000E+03 0.  0.
<mgrwt>
<rscale>  0 0.38189362E+03</rscale>
<asrwt>0</asrwt>
<pdfrwt beam="1">  1        2 0.12942157E-01 0.38189362E+03</pdfrwt>
<pdfrwt beam="2">  1       -2 0.57493941E-01 0.38189362E+03</pdfrwt>
<totfact> 0.13557343E+03</totfact>
</mgrwt>
</event>
<event>
 4    1  0.1351183E-004  0.4876023E+03  0.7818608E-02  0.1017067E+00
          2   -1    0    0  501    0  0.00000000000E+00  0.00000000000E+00  0.48840674537E+03  0.48840674538E+03  0.25500000000E-02 0.  1.
         -2   -1    0    0    0  501 -0.00000000000E+00 -0.00000000000E+00 -0.12169980171E+03  0.12169980174E+03  0.25500000000E-02 0. -1.
    5000001    1    1    2    0    0  0.16937121316E+03  0.95960619881E+01  0.32521871516E+02  0.21439534599E+03  0.12700000000E+03 0.  0.
   -5000001    1    1    2    0    0 -0.16937121316E+03 -0.95960619881E+01  0.33418507215E+03  0.39571120113E+03  0.12700000000E+03 0.  0.
<mgrwt>
<rscale>  0 0.48760231E+03</rscale>
<asrwt>0</asrwt>
<pdfrwt beam="1">  1        2 0.69772392E-01 0.48760231E+03</pdfrwt>
<pdfrwt beam="2">  1       -2 0.17385686E-01 0.48760231E+03</pdfrwt>
<totfact> 0.18688600E+03</totfact>
</mgrwt>
</event>
<event>
 4    1  0.1351183E-004  0.3377588E+03  0.7818608E-02  0.1067755E+00
         -2   -1    0    0    0  501 -0.00000000000E+00  0.00000000000E+00  0.55686395321E+02  0.55686395379E+02  0.25500000000E-02 0. -1.
          2   -1    0    0  501    0  0.00000000000E+00 -0.00000000000E+00 -0.51215837545E+03  0.51215837546E+03  0.25500000000E-02 0.  1.
    5000001    1    1    2    0    0  0.59524202182E+02 -0.93728579590E+02 -0.24158831051E+03  0.29465588243E+03  0.12700000000E+03 0.  0.
   -5000001    1    1    2    0    0 -0.59524202182E+02  0.93728579590E+02 -0.21488366962E+03  0.27318888840E+03  0.12700000000E+03 0.  0.
<mgrwt>
<rscale>  0 0.33775881E+03</rscale>
<asrwt>0</asrwt>
<pdfrwt beam="1">  1        2 0.73165479E-01 0.33775881E+03</pdfrwt>
<pdfrwt beam="2">  1       -2 0.79551996E-02 0.33775881E+03</pdfrwt>
<totfact> 0.63033730E+03</totfact>
</mgrwt>
</event>
<event>
 4    1  0.1351183E-004  0.3210298E+03  0.7818608E-02  0.1075176E+00
          2   -1    0    0  501    0  0.00000000000E+00  0.00000000000E+00  0.49864054797E+03  0.49864054798E+03  0.25500000000E-02 0. -1.
         -2   -1    0    0    0  501 -0.00000000000E+00 -0.00000000000E+00 -0.51670538257E+02  0.51670538320E+02  0.25500000000E-02 0.  1.
    5000001    1    1    2    0    0  0.51295636087E+02  0.64735421153E+02  0.31442049175E+03  0.34901455939E+03  0.12700000000E+03 0.  0.
   -5000001    1    1    2    0    0 -0.51295636087E+02 -0.64735421153E+02  0.13254951797E+03  0.20129652691E+03  0.12700000000E+03 0.  0.
<mgrwt>
<rscale>  0 0.32102975E+03</rscale>
<asrwt>0</asrwt>
<pdfrwt beam="1">  1        2 0.71234363E-01 0.32102975E+03</pdfrwt>
<pdfrwt beam="2">  1       -2 0.73815056E-02 0.32102975E+03</pdfrwt>
<totfact> 0.72900160E+03</totfact>
</mgrwt>
</event>
<event>
 4    1  0.1351183E-004  0.6339378E+03  0.7818608E-02  0.9837394E-01
         -2   -1    0    0    0  501 -0.00000000000E+00  0.00000000000E+00  0.50624359332E+03  0.50624359332E+03  0.25500000000E-02 0. -1.
          2   -1    0    0  501    0  0.00000000000E+00 -0.00000000000E+00 -0.19846037696E+03  0.19846037698E+03  0.25500000000E-02 0.  1.
    5000001    1    1    2    0    0  0.27688467469E+03  0.43179305822E+02  0.69154238735E+02  0.31534248725E+03  0.12700000000E+03 0.  0.
   -5000001    1    1    2    0    0 -0.27688467469E+03 -0.43179305822E+02  0.23862897762E+03  0.38936148305E+03  0.12700000000E+03 0.  0.
<mgrwt>
<rscale>  0 0.63393783E+03</rscale>
<asrwt>0</asrwt>
<pdfrwt beam="1">  1        2 0.28351483E-01 0.63393783E+03</pdfrwt>
<pdfrwt beam="2">  1       -2 0.72320512E-01 0.63393783E+03</pdfrwt>
<totfact> 0.33159979E+02</totfact>
</mgrwt>
</event>
<event>
 4    1  0.1351183E-004  0.3536541E+03  0.7818608E-02  0.1061125E+00
          2   -1    0    0  501    0  0.00000000000E+00  0.00000000000E+00  0.10328235155E+04  0.10328235155E+04  0.25500000000E-02 0.  1.
         -2   -1    0    0    0  501 -0.00000000000E+00 -0.00000000000E+00 -0.30274099199E+02  0.30274099307E+02  0.25500000000E-02 0. -1.
    5000001    1    1    2    0    0  0.74485914123E+02  0.92422721035E+02  0.59862073143E+03  0.62335053611E+03  0.12700000000E+03 0.  0.
   -5000001    1    1    2    0    0 -0.74485914123E+02 -0.92422721035E+02  0.40392868486E+03  0.43974707869E+03  0.12700000000E+03 0.  0.
<mgrwt>
<rscale>  0 0.35365408E+03</rscale>
<asrwt>0</asrwt>
<pdfrwt beam="1">  1        2 0.14754624E+00 0.35365408E+03</pdfrwt>
<pdfrwt beam="2">  1       -2 0.43248705E-02 0.35365408E+03</pdfrwt>
<totfact> 0.68359643E+03</totfact>
</mgrwt>
</event>
<event>
 4    1  0.1351183E-004  0.5538622E+03  0.7818608E-02  0.1000604E+00
         -2   -1    0    0    0  501 -0.00000000000E+00  0.00000000000E+00  0.24055968956E+03  0.24055968957E+03  0.25500000000E-02 0. -1.
          2   -1    0    0  501    0  0.00000000000E+00 -0.00000000000E+00 -0.31880169873E+03  0.31880169874E+03  0.25500000000E-02 0.  1.
    5000001    1    1    2    0    0 -0.16703118269E+03 -0.12455479569E+03 -0.17137357696E+03  0.29817983835E+03  0.12700000000E+03 0.  0.
   -5000001    1    1    2    0    0  0.16703118269E+03  0.12455479569E+03  0.93131567793E+02  0.26118154996E+03  0.12700000000E+03 0.  0.
<mgrwt>
<rscale>  0 0.55386221E+03</rscale>
<asrwt>0</asrwt>
<pdfrwt beam="1">  1        2 0.45543100E-01 0.55386221E+03</pdfrwt>
<pdfrwt beam="2">  1       -2 0.34365670E-01 0.55386221E+03</pdfrwt>
<totfact> 0.88682477E+02</totfact>
</mgrwt>
</event>
<event>
 4    1  0.1351183E-004  0.3887475E+03  0.7818608E-02  0.1047747E+00
         -2   -1    0    0    0  501 -0.00000000000E+00  0.00000000000E+00  0.10058520268E+02  0.10058520591E+02  0.25500000000E-02 0. -1.
          2   -1    0    0  501    0  0.00000000000E+00 -0.00000000000E+00 -0.37561336180E+04  0.37561336180E+04  0.25500000000E-02 0.  1.
    5000001    1    1    2    0    0 -0.11684136870E+03  0.36453767246E+02 -0.10817356052E+04  0.10960208493E+04  0.12700000000E+03 0.  0.
   -5000001    1    1    2    0    0  0.11684136870E+03 -0.36453767246E+02 -0.26643394925E+04  0.26701712893E+04  0.12700000000E+03 0.  0.
<mgrwt>
<rscale>  0 0.38874746E+03</rscale>
<asrwt>0</asrwt>
<pdfrwt beam="1">  1        2 0.53658962E+00 0.38874746E+03</pdfrwt>
<pdfrwt beam="2">  1       -2 0.14369339E-02 0.38874746E+03</pdfrwt>
<totfact> 0.12741308E+03</totfact>
</mgrwt>
</event>
<event>
 4    1  0.1351183E-004  0.3589617E+03  0.7818608E-02  0.1058996E+00
          2   -1    0    0  501    0  0.00000000000E+00  0.00000000000E+00  0.43000699437E+03  0.43000699438E+03  0.25500000000E-02 0.  1.
         -2   -1    0    0    0  501 -0.00000000000E+00 -0.00000000000E+00 -0.74913592400E+02  0.74913592443E+02  0.25500000000E-02 0. -1.
    5000001    1    1    2    0    0  0.96892560449E+02 -0.78012284490E+02  0.21229559393E+03  0.27689800289E+03  0.12700000000E+03 0.  0.
   -5000001    1    1    2    0    0 -0.96892560449E+02  0.78012284490E+02  0.14279780804E+03  0.22802258393E+03  0.12700000000E+03 0.  0.
<mgrwt>
<rscale>  0 0.35896166E+03</rscale>
<asrwt>0</asrwt>
<pdfrwt beam="1">  1        2 0.61429568E-01 0.35896166E+03</pdfrwt>
<pdfrwt beam="2">  1       -2 0.10701942E-01 0.35896166E+03</pdfrwt>
<totfact> 0.47821105E+03</totfact>
</mgrwt>
</event>
<event>
 4    1  0.1351183E-004  0.4372555E+03  0.7818608E-02  0.1031592E+00
          2   -1    0    0  501    0  0.00000000000E+00  0.00000000000E+00  0.10077316376E+04  0.10077316376E+04  0.25500000000E-02 0.  1.
         -2   -1    0    0    0  501 -0.00000000000E+00 -0.00000000000E+00 -0.47431378396E+02  0.47431378464E+02  0.25500000000E-02 0. -1.
    5000001    1    1    2    0    0 -0.46003941781E+02 -0.16879524090E+03  0.40155015198E+03  0.45604793670E+03  0.12700000000E+03 0.  0.
   -5000001    1    1    2    0    0  0.46003941781E+02  0.16879524090E+03  0.55875010723E+03  0.59911507938E+03  0.12700000000E+03 0.  0.
<mgrwt>
<rscale>  0 0.43725553E+03</rscale>
<asrwt>0</asrwt>
<pdfrwt beam="1">  1        2 0.14396167E+00 0.43725553E+03</pdfrwt>
<pdfrwt beam="2">  1       -2 0.67759109E-02 0.43725553E+03</pdfrwt>
<totfact> 0.35508487E+03</totfact>
</mgrwt>
</event>
<event>
 4    1  0.1351183E-004  0.6034182E+03  0.7818608E-02  0.9898340E-01
         -2   -1    0    0    0  501 -0.00000000000E+00  0.00000000000E+00  0.29728101580E+02  0.29728101690E+02  0.25500000000E-02 0. -1.
          2   -1    0    0  501    0  0.00000000000E+00 -0.00000000000E+00 -0.30620318803E+04  0.30620318803E+04  0.25500000000E-02 0.  1.
    5000001    1    1    2    0    0 -0.33769042269E+02  0.26703729734E+03 -0.12625328986E+04  0.12971382295E+04  0.12700000000E+03 0.  0.
   -5000001    1    1    2    0    0  0.33769042269E+02 -0.26703729734E+03 -0.17697708802E+04  0.17946217525E+04  0.12700000000E+03 0.  0.
<mgrwt>
<rscale>  0 0.60341825E+03</rscale>
<asrwt>0</asrwt>
<pdfrwt beam="1">  1        2 0.43743292E+00 0.60341825E+03</pdfrwt>
<pdfrwt beam="2">  1       -2 0.42468736E-02 0.60341825E+03</pdfrwt>
<totfact> 0.61601368E+02</totfact>
</mgrwt>
</event>
<event>
 4    1  0.1351183E-004  0.6086352E+03  0.7818608E-02  0.9887651E-01
          2   -1    0    0  501    0  0.00000000000E+00  0.00000000000E+00  0.10282785619E+03  0.10282785622E+03  0.25500000000E-02 0.  1.
         -2   -1    0    0    0  501 -0.00000000000E+00 -0.00000000000E+00 -0.90062376551E+03  0.90062376552E+03  0.25500000000E-02 0. -1.
    5000001    1    1    2    0    0  0.14775502386E+03 -0.16012675867E+03 -0.67969910463E+03  0.72497724016E+03  0.12700000000E+03 0.  0.
   -5000001    1    1    2    0    0 -0.14775502386E+03  0.16012675867E+03 -0.11809680470E+03  0.27847438158E+03  0.12700000000E+03 0.  0.
<mgrwt>
<rscale>  0 0.60863523E+03</rscale>
<asrwt>0</asrwt>
<pdfrwt beam="1">  1        2 0.14689694E-01 0.60863523E+03</pdfrwt>
<pdfrwt beam="2">  1       -2 0.12866053E+00 0.60863523E+03</pdfrwt>
<totfact> 0.18592450E+02</totfact>
</mgrwt>
</event>
<event>
 4    1  0.1351183E-004  0.3603850E+03  0.7818608E-02  0.1058432E+00
         -2   -1    0    0    0  501 -0.00000000000E+00  0.00000000000E+00  0.15146139902E+02  0.15146140117E+02  0.25500000000E-02 0. -1.
          2   -1    0    0  501    0  0.00000000000E+00 -0.00000000000E+00 -0.21437368728E+04  0.21437368728E+04  0.25500000000E-02 0.  1.
    5000001    1    1    2    0    0 -0.36411637957E+02 -0.10948273877E+03 -0.73465170741E+03  0.75442322914E+03  0.12700000000E+03 0.  0.
   -5000001    1    1    2    0    0  0.36411637957E+02  0.10948273877E+03 -0.13939390255E+04  0.14044597837E+04  0.12700000000E+03 0.  0.
<mgrwt>
<rscale>  0 0.36038501E+03</rscale>
<asrwt>0</asrwt>
<pdfrwt beam="1">  1        2 0.30624793E+00 0.36038501E+03</pdfrwt>
<pdfrwt beam="2">  1       -2 0.21637357E-02 0.36038501E+03</pdfrwt>
<totfact> 0.51714255E+03</totfact>
</mgrwt>
</event>
<event>
 4    1  0.1351183E-004  0.2683196E+03  0.7818608E-02  0.1102245E+00
          2   -1    0    0  501    0  0.00000000000E+00  0.00000000000E+00  0.38010236191E+03  0.38010236192E+03  0.25500000000E-02 0.  1.
         -2   -1    0    0    0  501 -0.00000000000E+00 -0.00000000000E+00 -0.47352632550E+02  0.47352632619E+02  0.25500000000E-02 0. -1.
    5000001    1    1    2    0    0 -0.12916148769E+02 -0.39223970375E+02  0.18680738692E+03  0.22963306939E+03  0.12700000000E+03 0.  0.
   -5000001    1    1    2    0    0  0.12916148769E+02  0.39223970375E+02  0.14594234244E+03  0.19782192514E+03  0.12700000000E+03 0.  0.
<mgrwt>
<rscale>  0 0.26831957E+03</rscale>
<asrwt>0</asrwt>
<pdfrwt beam="1">  1        2 0.54300332E-01 0.26831957E+03</pdfrwt>
<pdfrwt beam="2">  1       -2 0.67646625E-02 0.26831957E+03</pdfrwt>
<totfact> 0.11152512E+04</totfact>
</mgrwt>
</event>
<event>
 4    1  0.1351183E-004  0.7343911E+03  0.7818608E-02  0.9660162E-01
          2   -1    0    0  501    0  0.00000000000E+00  0.00000000000E+00  0.16085762051E+04  0.16085762051E+04  0.25500000000E-02 0.  1.
         -2   -1    0    0    0  501 -0.00000000000E+00 -0.00000000000E+00 -0.83821067683E+02  0.83821067722E+02  0.25500000000E-02 0. -1.
    5000001    1    1    2    0    0  0.18920162353E+03  0.28775225461E+03  0.78598713998E+03  0.86746953756E+03  0.12700000000E+03 0.  0.
   -5000001    1    1    2    0    0 -0.18920162353E+03 -0.28775225461E+03  0.73876799749E+03  0.82492773532E+03  0.12700000000E+03 0.  0.
<mgrwt>
<rscale>  0 0.73439111E+03</rscale>
<asrwt>0</asrwt>
<pdfrwt beam="1">  1        2 0.22979658E+00 0.73439111E+03</pdfrwt>
<pdfrwt beam="2">  1       -2 0.11974439E-01 0.73439111E+03</pdfrwt>
<totfact> 0.66214277E+02</totfact>
</mgrwt>
</event>
<event>
 4    1  0.1351183E-004  0.3385205E+03  0.7818608E-02  0.1067428E+00
          2   -1    0    0  501    0  0.00000000000E+00  0.00000000000E+00  0.46461588667E+03  0.46461588668E+03  0.25500000000E-02 0.  1.
         -2   -1    0    0    0  501 -0.00000000000E+00 -0.00000000000E+00 -0.61661768628E+02  0.61661768681E+02  0.25500000000E-02 0. -1.
    5000001    1    1    2    0    0  0.84033668485E+01 -0.10958986861E+03  0.23406824693E+03  0.28809286714E+03  0.12700000000E+03 0.  0.
   -5000001    1    1    2    0    0 -0.84033668485E+01  0.10958986861E+03  0.16888587111E+03  0.23818478822E+03  0.12700000000E+03 0.  0.
<mgrwt>
<rscale>  0 0.33852053E+03</rscale>
<asrwt>0</asrwt>
<pdfrwt beam="1">  1        2 0.66373702E-01 0.33852053E+03</pdfrwt>
<pdfrwt beam="2">  1       -2 0.88088236E-02 0.33852053E+03</pdfrwt>
<totfact> 0.59821155E+03</totfact>
</mgrwt>
</event>
<event>
 4    1  0.1351183E-004  0.2978661E+03  0.7818608E-02  0.1086312E+00
         -2   -1    0    0    0  501 -0.00000000000E+00  0.00000000000E+00  0.69276059983E+03  0.69276059983E+03  0.25500000000E-02 0. -1.
          2   -1    0    0  501    0  0.00000000000E+00 -0.00000000000E+00 -0.32018359485E+02  0.32018359586E+02  0.25500000000E-02 0.  1.
    5000001    1    1    2    0    0 -0.45107373977E+02  0.39721269317E+01  0.48429342598E+03  0.50271221930E+03  0.12700000000E+03 0.  0.
   -5000001    1    1    2    0    0  0.45107373977E+02 -0.39721269317E+01  0.17644881436E+03  0.22206674012E+03  0.12700000000E+03 0.  0.
<mgrwt>
<rscale>  0 0.29786613E+03</rscale>
<asrwt>0</asrwt>
<pdfrwt beam="1">  1        2 0.45740515E-02 0.29786613E+03</pdfrwt>
<pdfrwt beam="2">  1       -2 0.98965797E-01 0.29786613E+03</pdfrwt>
<totfact> 0.15592147E+03</totfact>
</mgrwt>
</event>
<event>
 4    1  0.1351183E-004  0.4305714E+03  0.7818608E-02  0.1033680E+00
          2   -1    0    0  501    0  0.00000000000E+00  0.00000000000E+00  0.17514595678E+04  0.17514595678E+04  0.25500000000E-02 0.  1.
         -2   -1    0    0    0  501 -0.00000000000E+00 -0.00000000000E+00 -0.26462459032E+02  0.26462459155E+02  0.25500000000E-02 0. -1.
    5000001    1    1    2    0    0  0.14238525362E+03 -0.94973908090E+02  0.73689140671E+03  0.76709292067E+03  0.12700000000E+03 0.  0.
   -5000001    1    1    2    0    0 -0.14238525362E+03  0.94973908090E+02  0.98810570202E+03  0.10108291062E+04  0.12700000000E+03 0.  0.
<mgrwt>
<rscale>  0 0.43057137E+03</rscale>
<asrwt>0</asrwt>
<pdfrwt beam="1">  1        2 0.25020856E+00 0.43057137E+03</pdfrwt>
<pdfrwt beam="2">  1       -2 0.37803506E-02 0.43057137E+03</pdfrwt>
<totfact> 0.34955188E+03</totfact>
</mgrwt>
</event>
<event>
 4    1  0.1351183E-004  0.3517885E+03  0.7818608E-02  0.1061883E+00
          2   -1    0    0  501    0  0.00000000000E+00  0.00000000000E+00  0.29588612393E+03  0.29588612394E+03  0.25500000000E-02 0.  1.
         -2   -1    0    0    0  501 -0.00000000000E+00 -0.00000000000E+00 -0.10456313464E+03  0.10456313467E+03  0.25500000000E-02 0. -1.
    5000001    1    1    2    0    0 -0.77176810605E+02 -0.14202832716E+02  0.20154276402E+03  0.25081161512E+03  0.12700000000E+03 0.  0.
   -5000001    1    1    2    0    0  0.77176810605E+02  0.14202832716E+02 -0.10219774724E+02  0.14963764348E+03  0.12700000000E+03 0.  0.
<mgrwt>
<rscale>  0 0.35178846E+03</rscale>
<asrwt>0</asrwt>
<pdfrwt beam="1">  1        2 0.42269446E-01 0.35178846E+03</pdfrwt>
<pdfrwt beam="2">  1       -2 0.14937591E-01 0.35178846E+03</pdfrwt>
<totfact> 0.41635895E+03</totfact>
</mgrwt>
</event>
<event>
 4    1  0.1351183E-004  0.4988613E+03  0.7818608E-02  0.1014077E+00
          2   -1    0    0  501    0  0.00000000000E+00  0.00000000000E+00  0.26483769158E+04  0.26483769158E+04  0.25500000000E-02 0.  1.
         -2   -1    0    0    0  501 -0.00000000000E+00 -0.00000000000E+00 -0.23491990331E+02  0.23491990469E+02  0.25500000000E-02 0. -1.
    5000001    1    1    2    0    0 -0.17020469910E+03 -0.88212889751E+02  0.79495010380E+03  0.82754203582E+03  0.12700000000E+03 0.  0.
   -5000001    1    1    2    0    0  0.17020469910E+03  0.88212889751E+02  0.18299348217E+04  0.18443268705E+04  0.12700000000E+03 0.  0.
<mgrwt>
<rscale>  0 0.49886128E+03</rscale>
<asrwt>0</asrwt>
<pdfrwt beam="1">  1        2 0.37833967E+00 0.49886128E+03</pdfrwt>
<pdfrwt beam="2">  1       -2 0.33559976E-02 0.49886128E+03</pdfrwt>
<totfact> 0.14794843E+03</totfact>
</mgrwt>
</event>
<event>
 4    1  0.1351183E-004  0.4325016E+03  0.7818608E-02  0.1033073E+00
         -2   -1    0    0    0  501 -0.00000000000E+00  0.00000000000E+00  0.13804038961E+03  0.13804038963E+03  0.25500000000E-02 0. -1.
          2   -1    0    0  501    0  0.00000000000E+00 -0.00000000000E+00 -0.33877342533E+03  0.33877342534E+03  0.25500000000E-02 0.  1.
    5000001    1    1    2    0    0  0.12887083393E+03  0.94248809449E+02 -0.17944329198E+03  0.27169730392E+03  0.12700000000E+03 0.  0.
   -5000001    1    1    2    0    0 -0.12887083393E+03 -0.94248809449E+02 -0.21289743739E+02  0.20511651106E+03  0.12700000000E+03 0.  0.
<mgrwt>
<rscale>  0 0.43250163E+03</rscale>
<asrwt>0</asrwt>
<pdfrwt beam="1">  1        2 0.48396203E-01 0.43250163E+03</pdfrwt>
<pdfrwt beam="2">  1       -2 0.19720056E-01 0.43250163E+03</pdfrwt>
<totfact> 0.22539673E+03</totfact>
</mgrwt>
</event>
<event>
 4    1  0.1351183E-004  0.7411924E+03  0.7818608E-02  0.9649270E-01
         -2   -1    0    0    0  501 -0.00000000000E+00  0.00000000000E+00  0.24818967306E+03  0.24818967307E+03  0.25500000000E-02 0. -1.
          2   -1    0    0  501    0  0.00000000000E+00 -0.00000000000E+00 -0.55337332837E+03  0.55337332838E+03  0.25500000000E-02 0.  1.
    5000001    1    1    2    0    0  0.12830829125E+03  0.19210488747E+03  0.12909490599E+03  0.29353330330E+03  0.12700000000E+03 0.  0.
   -5000001    1    1    2    0    0 -0.12830829125E+03 -0.19210488747E+03 -0.43427856131E+03  0.50802969815E+03  0.12700000000E+03 0.  0.
<mgrwt>
<rscale>  0 0.74119241E+03</rscale>
<asrwt>0</asrwt>
<pdfrwt beam="1">  1        2 0.79053332E-01 0.74119241E+03</pdfrwt>
<pdfrwt beam="2">  1       -2 0.35455668E-01 0.74119241E+03</pdfrwt>
<totfact> 0.44837166E+02</totfact>
</mgrwt>
</event>
<event>
 4    1  0.1351183E-004  0.2908184E+03  0.7818608E-02  0.1089923E+00
         -2   -1    0    0    0  501 -0.00000000000E+00  0.00000000000E+00  0.27101951298E+02  0.27101951418E+02  0.25500000000E-02 0. -1.
          2   -1    0    0  501    0  0.00000000000E+00 -0.00000000000E+00 -0.78015930409E+03  0.78015930409E+03  0.25500000000E-02 0.  1.
    5000001    1    1    2    0    0 -0.34824702452E+01 -0.49580094318E+02 -0.51655047334E+03  0.53425060117E+03  0.12700000000E+03 0.  0.
   -5000001    1    1    2    0    0  0.34824702452E+01  0.49580094318E+02 -0.23650687945E+03  0.27301065433E+03  0.12700000000E+03 0.  0.
<mgrwt>
<rscale>  0 0.29081843E+03</rscale>
<asrwt>0</asrwt>
<pdfrwt beam="1">  1        2 0.11145132E+00 0.29081843E+03</pdfrwt>
<pdfrwt beam="2">  1       -2 0.38717078E-02 0.29081843E+03</pdfrwt>
<totfact> 0.11594903E+04</totfact>
</mgrwt>
</event>
<event>
 4    1  0.1351183E-004  0.3722017E+03  0.7818608E-02  0.1053854E+00
          2   -1    0    0  501    0  0.00000000000E+00  0.00000000000E+00  0.83331879872E+03  0.83331879872E+03  0.25500000000E-02 0.  1.
         -2   -1    0    0    0  501 -0.00000000000E+00 -0.00000000000E+00 -0.41560949920E+02  0.41560949998E+02  0.25500000000E-02 0. -1.
    5000001    1    1    2    0    0  0.31612828619E+02 -0.13164129592E+03  0.36472020351E+03  0.40924152841E+03  0.12700000000E+03 0.  0.
   -5000001    1    1    2    0    0 -0.31612828619E+02  0.13164129592E+03  0.42703764529E+03  0.46563822031E+03  0.12700000000E+03 0.  0.
<mgrwt>
<rscale>  0 0.37220167E+03</rscale>
<asrwt>0</asrwt>
<pdfrwt beam="1">  1        2 0.11904554E+00 0.37220167E+03</pdfrwt>
<pdfrwt beam="2">  1       -2 0.59372788E-02 0.37220167E+03</pdfrwt>
<totfact> 0.56020705E+03</totfact>
</mgrwt>
</event>
<event>
 4    1  0.1351183E-004  0.3286263E+03  0.7818608E-02  0.1071746E+00
         -2   -1    0    0    0  501 -0.00000000000E+00  0.00000000000E+00  0.10815911517E+04  0.10815911517E+04  0.25500000000E-02 0. -1.
          2   -1    0    0  501    0  0.00000000000E+00 -0.00000000000E+00 -0.24962123046E+02  0.24962123176E+02  0.25500000000E-02 0.  1.
    5000001    1    1    2    0    0 -0.18959728984E+02 -0.72672268975E+02  0.77180540241E+03  0.78578197306E+03  0.12700000000E+03 0.  0.
   -5000001    1    1    2    0    0  0.18959728984E+02  0.72672268975E+02  0.28482362623E+03  0.32077130181E+03  0.12700000000E+03 0.  0.
<mgrwt>
<rscale>  0 0.32862630E+03</rscale>
<asrwt>0</asrwt>
<pdfrwt beam="1">  1        2 0.35660176E-02 0.32862630E+03</pdfrwt>
<pdfrwt beam="2">  1       -2 0.15451302E+00 0.32862630E+03</pdfrwt>
<totfact> 0.73037142E+02</totfact>
</mgrwt>
</event>
<event>
 4    1  0.1351183E-004  0.6042978E+03  0.7818608E-02  0.9896529E-01
          2   -1    0    0  501    0  0.00000000000E+00  0.00000000000E+00  0.29391407056E+03  0.29391407057E+03  0.25500000000E-02 0.  1.
         -2   -1    0    0    0  501 -0.00000000000E+00 -0.00000000000E+00 -0.31061441512E+03  0.31061441513E+03  0.25500000000E-02 0. -1.
    5000001    1    1    2    0    0 -0.22227590356E+03 -0.16045806250E+03 -0.11754411883E+02  0.30235828635E+03  0.12700000000E+03 0.  0.
   -5000001    1    1    2    0    0  0.22227590356E+03  0.16045806250E+03 -0.49459326815E+01  0.30217019935E+03  0.12700000000E+03 0.  0.
<mgrwt>
<rscale>  0 0.60429776E+03</rscale>
<asrwt>0</asrwt>
<pdfrwt beam="1">  1        2 0.41987724E-01 0.60429776E+03</pdfrwt>
<pdfrwt beam="2">  1       -2 0.44373488E-01 0.60429776E+03</pdfrwt>
<totfact> 0.59168833E+02</totfact>
</mgrwt>
</event>
<event>
 4    1  0.1351183E-004  0.5173328E+03  0.7818608E-02  0.1009351E+00
          2   -1    0    0  501    0  0.00000000000E+00  0.00000000000E+00  0.50462048894E+03  0.50462048895E+03  0.25500000000E-02 0.  1.
         -2   -1    0    0    0  501 -0.00000000000E+00 -0.00000000000E+00 -0.13259133766E+03  0.13259133768E+03  0.25500000000E-02 0. -1.
    5000001    1    1    2    0    0 -0.28307184343E+02  0.22031501971E+03  0.13928523668E+03  0.29132350017E+03  0.12700000000E+03 0.  0.
   -5000001    1    1    2    0    0  0.28307184343E+02 -0.22031501971E+03  0.23274391460E+03  0.34588832646E+03  0.12700000000E+03 0.  0.
<mgrwt>
<rscale>  0 0.51733280E+03</rscale>
<asrwt>0</asrwt>
<pdfrwt beam="1">  1        2 0.72088640E-01 0.51733280E+03</pdfrwt>
<pdfrwt beam="2">  1       -2 0.18941620E-01 0.51733280E+03</pdfrwt>
<totfact> 0.15554211E+03</totfact>
</mgrwt>
</event>
<event>
 4    1  0.1351183E-004  0.4015483E+03  0.7818608E-02  0.1043245E+00
          2   -1    0    0  501    0  0.00000000000E+00  0.00000000000E+00  0.33200904500E+03  0.33200904501E+03  0.25500000000E-02 0.  1.
         -2   -1    0    0    0  501 -0.00000000000E+00 -0.00000000000E+00 -0.12141313940E+03  0.12141313943E+03  0.25500000000E-02 0. -1.
    5000001    1    1    2    0    0 -0.79206991891E+02 -0.12034700433E+03  0.17137321777E+03  0.25740032786E+03  0.12700000000E+03 0.  0.
   -5000001    1    1    2    0    0  0.79206991891E+02  0.12034700433E+03  0.39222687830E+02  0.19602185658E+03  0.12700000000E+03 0.  0.
<mgrwt>
<rscale>  0 0.40154831E+03</rscale>
<asrwt>0</asrwt>
<pdfrwt beam="1">  1        2 0.47429864E-01 0.40154831E+03</pdfrwt>
<pdfrwt beam="2">  1       -2 0.17344734E-01 0.40154831E+03</pdfrwt>
<totfact> 0.28667073E+03</totfact>
</mgrwt>
</event>
<event>
 4    1  0.1351183E-004  0.4321385E+03  0.7818608E-02  0.1033187E+00
          2   -1    0    0  501    0  0.00000000000E+00  0.00000000000E+00  0.12553188582E+03  0.12553188585E+03  0.25500000000E-02 0.  1.
         -2   -1    0    0    0  501 -0.00000000000E+00 -0.00000000000E+00 -0.37190493878E+03  0.37190493879E+03  0.25500000000E-02 0. -1.
    5000001    1    1    2    0    0  0.84010190306E+02  0.11597439680E+03 -0.77934582264E+01  0.19156594369E+03  0.12700000000E+03 0.  0.
   -5000001    1    1    2    0    0 -0.84010190306E+02 -0.11597439680E+03 -0.23857959473E+03  0.30587088095E+03  0.12700000000E+03 0.  0.
<mgrwt>
<rscale>  0 0.43213853E+03</rscale>
<asrwt>0</asrwt>
<pdfrwt beam="1">  1        2 0.17933127E-01 0.43213853E+03</pdfrwt>
<pdfrwt beam="2">  1       -2 0.53129276E-01 0.43213853E+03</pdfrwt>
<totfact> 0.10801705E+03</totfact>
</mgrwt>
</event>
<event>
 4    1  0.1351183E-004  0.3313997E+03  0.7818608E-02  0.1070519E+00
         -2   -1    0    0    0  501 -0.00000000000E+00  0.00000000000E+00  0.22378690284E+03  0.22378690286E+03  0.25500000000E-02 0.  1.
          2   -1    0    0  501    0  0.00000000000E+00 -0.00000000000E+00 -0.12269007873E+03  0.12269007876E+03  0.25500000000E-02 0. -1.
    5000001    1    1    2    0    0  0.54127113096E+01 -0.68681844815E+02 -0.34265341659E+02  0.14849110037E+03  0.12700000000E+03 0.  0.
   -5000001    1    1    2    0    0 -0.54127113096E+01  0.68681844815E+02  0.13536216577E+03  0.19798588124E+03  0.12700000000E+03 0.  0.
<mgrwt>
<rscale>  0 0.33139965E+03</rscale>
<asrwt>0</asrwt>
<pdfrwt beam="1">  1        2 0.17527154E-01 0.33139965E+03</pdfrwt>
<pdfrwt beam="2">  1       -2 0.31969558E-01 0.33139965E+03</pdfrwt>
<totfact> 0.29551206E+03</totfact>
</mgrwt>
</event>
<event>
 4    1  0.1351183E-004  0.4206369E+03  0.7818608E-02  0.1036859E+00
         -2   -1    0    0    0  501 -0.00000000000E+00  0.00000000000E+00  0.82372823089E+02  0.82372823128E+02  0.25500000000E-02 0. -1.
          2   -1    0    0  501    0  0.00000000000E+00 -0.00000000000E+00 -0.53699575241E+03  0.53699575241E+03  0.25500000000E-02 0.  1.
    5000001    1    1    2    0    0  0.14313229107E+03  0.83187825014E+02 -0.26620736932E+03  0.33823428338E+03  0.12700000000E+03 0.  0.
   -5000001    1    1    2    0    0 -0.14313229107E+03 -0.83187825014E+02 -0.18841556000E+03  0.28113429216E+03  0.12700000000E+03 0.  0.
<mgrwt>
<rscale>  0 0.42063693E+03</rscale>
<asrwt>0</asrwt>
<pdfrwt beam="1">  1        2 0.76713677E-01 0.42063693E+03</pdfrwt>
<pdfrwt beam="2">  1       -2 0.11767546E-01 0.42063693E+03</pdfrwt>
<totfact> 0.32103939E+03</totfact>
</mgrwt>
</event>
<event>
 4    1  0.1351183E-004  0.2760768E+03  0.7818608E-02  0.1097851E+00
          2   -1    0    0  501    0  0.00000000000E+00  0.00000000000E+00  0.33977438855E+03  0.33977438856E+03  0.25500000000E-02 0.  1.
         -2   -1    0    0    0  501 -0.00000000000E+00 -0.00000000000E+00 -0.56080133892E+02  0.56080133950E+02  0.25500000000E-02 0. -1.
    5000001    1    1    2    0    0 -0.19364356622E+02  0.50185886190E+02  0.13373705587E+03  0.19211507383E+03  0.12700000000E+03 0.  0.
   -5000001    1    1    2    0    0  0.19364356622E+02 -0.50185886190E+02  0.14995719878E+03  0.20373944868E+03  0.12700000000E+03 0.  0.
<mgrwt>
<rscale>  0 0.27607675E+03</rscale>
<asrwt>0</asrwt>
<pdfrwt beam="1">  1        2 0.48539196E-01 0.27607675E+03</pdfrwt>
<pdfrwt beam="2">  1       -2 0.80114480E-02 0.27607675E+03</pdfrwt>
<totfact> 0.96890447E+03</totfact>
</mgrwt>
</event>
<event>
 4    1  0.1351183E-004  0.4539965E+03  0.7818608E-02  0.1026537E+00
         -2   -1    0    0    0  501 -0.00000000000E+00  0.00000000000E+00  0.17277462006E+02  0.17277462194E+02  0.25500000000E-02 0. -1.
          2   -1    0    0  501    0  0.00000000000E+00 -0.00000000000E+00 -0.29823944909E+04  0.29823944909E+04  0.25500000000E-02 0.  1.
    5000001    1    1    2    0    0  0.19663143870E+02 -0.18704979410E+03 -0.14495598499E+04  0.14672174423E+04  0.12700000000E+03 0.  0.
   -5000001    1    1    2    0    0 -0.19663143870E+02  0.18704979410E+03 -0.15155571791E+04  0.15324545108E+04  0.12700000000E+03 0.  0.
<mgrwt>
<rscale>  0 0.45399651E+03</rscale>
<asrwt>0</asrwt>
<pdfrwt beam="1">  1        2 0.42605603E+00 0.45399651E+03</pdfrwt>
<pdfrwt beam="2">  1       -2 0.24682108E-02 0.45399651E+03</pdfrwt>
<totfact> 0.15746338E+03</totfact>
</mgrwt>
</event>
<event>
 4    1  0.1351183E-004  0.5293300E+03  0.7818608E-02  0.1006395E+00
         -2   -1    0    0    0  501 -0.00000000000E+00  0.00000000000E+00  0.20545731513E+03  0.20545731515E+03  0.25500000000E-02 0. -1.
          2   -1    0    0  501    0  0.00000000000E+00 -0.00000000000E+00 -0.34093486899E+03  0.34093486900E+03  0.25500000000E-02 0.  1.
    5000001    1    1    2    0    0 -0.14275127007E+03 -0.11899043038E+03  0.75967690088E+02  0.23756417568E+03  0.12700000000E+03 0.  0.
   -5000001    1    1    2    0    0  0.14275127007E+03  0.11899043038E+03 -0.21144524394E+03  0.30882800847E+03  0.12700000000E+03 0.  0.
<mgrwt>
<rscale>  0 0.52933000E+03</rscale>
<asrwt>0</asrwt>
<pdfrwt beam="1">  1        2 0.48704981E-01 0.52933000E+03</pdfrwt>
<pdfrwt beam="2">  1       -2 0.29351045E-01 0.52933000E+03</pdfrwt>
<totfact> 0.11047587E+03</totfact>
</mgrwt>
</event>
<event>
 4    1  0.1351183E-004  0.3171989E+03  0.7818608E-02  0.1076946E+00
         -2   -1    0    0    0  501 -0.00000000000E+00  0.00000000000E+00  0.15116229492E+02  0.15116229707E+02  0.25500000000E-02 0. -1.
          2   -1    0    0  501    0  0.00000000000E+00 -0.00000000000E+00 -0.16640252341E+04  0.16640252341E+04  0.25500000000E-02 0.  1.
    5000001    1    1    2    0    0  0.71171325444E+02 -0.52666995813E+02 -0.10067298330E+04  0.10185642477E+04  0.12700000000E+03 0.  0.
   -5000001    1    1    2    0    0 -0.71171325444E+02  0.52666995813E+02 -0.64217917159E+03  0.66057721611E+03  0.12700000000E+03 0.  0.
<mgrwt>
<rscale>  0 0.31719891E+03</rscale>
<asrwt>0</asrwt>
<pdfrwt beam="1">  1        2 0.23771777E+00 0.31719891E+03</pdfrwt>
<pdfrwt beam="2">  1       -2 0.21594624E-02 0.31719891E+03</pdfrwt>
<totfact> 0.89367117E+03</totfact>
</mgrwt>
</event>
<event>
 4    1  0.1351183E-004  0.8913379E+03  0.7818608E-02  0.9436475E-01
         -2   -1    0    0    0  501 -0.00000000000E+00  0.00000000000E+00  0.63705390772E+03  0.63705390773E+03  0.25500000000E-02 0. -1.
          2   -1    0    0  501    0  0.00000000000E+00 -0.00000000000E+00 -0.31178019661E+03  0.31178019662E+03  0.25500000000E-02 0.  1.
    5000001    1    1    2    0    0 -0.42340782916E+03  0.49008462396E+02  0.19304099481E+03  0.48484001986E+03  0.12700000000E+03 0.  0.
   -5000001    1    1    2    0    0  0.42340782916E+03 -0.49008462396E+02  0.13223271630E+03  0.46399408449E+03  0.12700000000E+03 0.  0.
<mgrwt>
<rscale>  0 0.89133785E+03</rscale>
<asrwt>0</asrwt>
<pdfrwt beam="1">  1        2 0.44540028E-01 0.89133785E+03</pdfrwt>
<pdfrwt beam="2">  1       -2 0.91007701E-01 0.89133785E+03</pdfrwt>
<totfact> 0.11814930E+02</totfact>
</mgrwt>
</event>
<event>
 4    1  0.1351183E-004  0.4141471E+03  0.7818608E-02  0.1038988E+00
          2   -1    0    0  501    0  0.00000000000E+00  0.00000000000E+00  0.19069173128E+04  0.19069173128E+04  0.25500000000E-02 0.  1.
         -2   -1    0    0    0  501 -0.00000000000E+00 -0.00000000000E+00 -0.22486265509E+02  0.22486265654E+02  0.25500000000E-02 0. -1.
    5000001    1    1    2    0    0  0.86766867571E+02 -0.85306887803E+02  0.43305348970E+03  0.46740782980E+03  0.12700000000E+03 0.  0.
   -5000001    1    1    2    0    0 -0.86766867571E+02  0.85306887803E+02  0.14513775575E+04  0.14619957486E+04  0.12700000000E+03 0.  0.
<mgrwt>
<rscale>  0 0.41414707E+03</rscale>
<asrwt>0</asrwt>
<pdfrwt beam="1">  1        2 0.27241678E+00 0.41414707E+03</pdfrwt>
<pdfrwt beam="2">  1       -2 0.32123234E-02 0.41414707E+03</pdfrwt>
<totfact> 0.37440693E+03</totfact>
</mgrwt>
</event>
<event>
 4    1  0.1351183E-004  0.4576404E+03  0.7818608E-02  0.1025468E+00
          2   -1    0    0  501    0  0.00000000000E+00  0.00000000000E+00  0.21133403834E+04  0.21133403834E+04  0.25500000000E-02 0.  1.
         -2   -1    0    0    0  501 -0.00000000000E+00 -0.00000000000E+00 -0.24775315527E+02  0.24775315658E+02  0.25500000000E-02 0. -1.
    5000001    1    1    2    0    0  0.82300964697E+02  0.12569901424E+03  0.49831303339E+03  0.53574114106E+03  0.12700000000E+03 0.  0.
   -5000001    1    1    2    0    0 -0.82300964697E+02 -0.12569901424E+03  0.15902520345E+04  0.16023745580E+04  0.12700000000E+03 0.  0.
<mgrwt>
<rscale>  0 0.45764036E+03</rscale>
<asrwt>0</asrwt>
<pdfrwt beam="1">  1        2 0.30190575E+00 0.45764036E+03</pdfrwt>
<pdfrwt beam="2">  1       -2 0.35393310E-02 0.45764036E+03</pdfrwt>
<totfact> 0.25501006E+03</totfact>
</mgrwt>
</event>
<event>
 4    1  0.1351183E-004  0.3345393E+03  0.7818608E-02  0.1069146E+00
         -2   -1    0    0    0  501 -0.00000000000E+00  0.00000000000E+00  0.49394289648E+02  0.49394289714E+02  0.25500000000E-02 0. -1.
          2   -1    0    0  501    0  0.00000000000E+00 -0.00000000000E+00 -0.56644463937E+03  0.56644463937E+03  0.25500000000E-02 0.  1.
    5000001    1    1    2    0    0 -0.87595168600E+02  0.64610198204E+02 -0.25547838460E+03  0.30536141909E+03  0.12700000000E+03 0.  0.
   -5000001    1    1    2    0    0  0.87595168600E+02 -0.64610198204E+02 -0.26157196512E+03  0.31047750999E+03  0.12700000000E+03 0.  0.
<mgrwt>
<rscale>  0 0.33453927E+03</rscale>
<asrwt>0</asrwt>
<pdfrwt beam="1">  1        2 0.80920659E-01 0.33453927E+03</pdfrwt>
<pdfrwt beam="2">  1       -2 0.70563274E-02 0.33453927E+03</pdfrwt>
<totfact> 0.67846594E+03</totfact>
</mgrwt>
</event>
<event>
 4    1  0.1351183E-004  0.3991683E+03  0.7818608E-02  0.1044068E+00
         -2   -1    0    0    0  501 -0.00000000000E+00  0.00000000000E+00  0.17504660871E+02  0.17504661057E+02  0.25500000000E-02 0. -1.
          2   -1    0    0  501    0  0.00000000000E+00 -0.00000000000E+00 -0.22756134225E+04  0.22756134225E+04  0.25500000000E-02 0.  1.
    5000001    1    1    2    0    0  0.14215865119E+03  0.52097658165E+02 -0.12896600080E+04  0.13047126827E+04  0.12700000000E+03 0.  0.
   -5000001    1    1    2    0    0 -0.14215865119E+03 -0.52097658165E+02 -0.96844875367E+03  0.98840540092E+03  0.12700000000E+03 0.  0.
<mgrwt>
<rscale>  0 0.39916834E+03</rscale>
<asrwt>0</asrwt>
<pdfrwt beam="1">  1        2 0.32508744E+00 0.39916834E+03</pdfrwt>
<pdfrwt beam="2">  1       -2 0.25006673E-02 0.39916834E+03</pdfrwt>
<totfact> 0.35819005E+03</totfact>
</mgrwt>
</event>
<event>
 4    1  0.1351183E-004  0.3023910E+03  0.7818608E-02  0.1084051E+00
         -2   -1    0    0    0  501 -0.00000000000E+00  0.00000000000E+00  0.17296644419E+02  0.17296644607E+02  0.25500000000E-02 0. -1.
          2   -1    0    0  501    0  0.00000000000E+00 -0.00000000000E+00 -0.13216479366E+04  0.13216479366E+04  0.25500000000E-02 0.  1.
    5000001    1    1    2    0    0  0.43595165816E+02 -0.64438686632E+02 -0.76748645698E+03  0.78180390410E+03  0.12700000000E+03 0.  0.
   -5000001    1    1    2    0    0 -0.43595165816E+02  0.64438686632E+02 -0.53686483525E+03  0.55714067715E+03  0.12700000000E+03 0.  0.
<mgrwt>
<rscale>  0 0.30239097E+03</rscale>
<asrwt>0</asrwt>
<pdfrwt beam="1">  1        2 0.18880678E+00 0.30239097E+03</pdfrwt>
<pdfrwt beam="2">  1       -2 0.24709501E-02 0.30239097E+03</pdfrwt>
<totfact> 0.10925240E+04</totfact>
</mgrwt>
</event>
<event>
 4    1  0.1351183E-004  0.6023944E+03  0.7818608E-02  0.9900451E-01
         -2   -1    0    0    0  501 -0.00000000000E+00  0.00000000000E+00  0.28119081461E+02  0.28119081576E+02  0.25500000000E-02 0. -1.
          2   -1    0    0  501    0  0.00000000000E+00 -0.00000000000E+00 -0.32262705680E+04  0.32262705680E+04  0.25500000000E-02 0.  1.
    5000001    1    1    2    0    0 -0.10506126490E+03 -0.14653170601E+03 -0.27073148031E+04  0.27162827271E+04  0.12700000000E+03 0.  0.
   -5000001    1    1    2    0    0  0.10506126490E+03  0.14653170601E+03 -0.49083668341E+03  0.53810692248E+03  0.12700000000E+03 0.  0.
<mgrwt>
<rscale>  0 0.60239444E+03</rscale>
<asrwt>0</asrwt>
<pdfrwt beam="1">  1        2 0.46089556E+00 0.60239444E+03</pdfrwt>
<pdfrwt beam="2">  1       -2 0.40170137E-02 0.60239444E+03</pdfrwt>
<totfact> 0.54375794E+02</totfact>
</mgrwt>
</event>
<event>
 4    1  0.1351183E-004  0.3554962E+03  0.7818608E-02  0.1060382E+00
          2   -1    0    0  501    0  0.00000000000E+00  0.00000000000E+00  0.81505034605E+03  0.81505034606E+03  0.25500000000E-02 0.  1.
         -2   -1    0    0    0  501 -0.00000000000E+00 -0.00000000000E+00 -0.38763730091E+02  0.38763730175E+02  0.25500000000E-02 0. -1.
    5000001    1    1    2    0    0 -0.90042939045E+02 -0.85667054884E+02  0.39856162856E+03  0.43637936125E+03  0.12700000000E+03 0.  0.
   -5000001    1    1    2    0    0  0.90042939045E+02  0.85667054884E+02  0.37772498741E+03  0.41743471499E+03  0.12700000000E+03 0.  0.
<mgrwt>
<rscale>  0 0.35549623E+03</rscale>
<asrwt>0</asrwt>
<pdfrwt beam="1">  1        2 0.11643575E+00 0.35549623E+03</pdfrwt>
<pdfrwt beam="2">  1       -2 0.55376766E-02 0.35549623E+03</pdfrwt>
<totfact> 0.64090066E+03</totfact>
</mgrwt>
</event>
<event>
 4    1  0.1351183E-004  0.3761297E+03  0.7818608E-02  0.1052374E+00
          2   -1    0    0  501    0  0.00000000000E+00  0.00000000000E+00  0.32793792542E+03  0.32793792543E+03  0.25500000000E-02 0.  1.
         -2   -1    0    0    0  501 -0.00000000000E+00 -0.00000000000E+00 -0.10785085633E+03  0.10785085636E+03  0.25500000000E-02 0. -1.
    5000001    1    1    2    0    0  0.33431966507E+02 -0.12882404389E+03  0.64782593206E+02  0.19503618908E+03  0.12700000000E+03 0.  0.
   -5000001    1    1    2    0    0 -0.33431966507E+02  0.12882404389E+03  0.15530447588E+03  0.24075259271E+03  0.12700000000E+03 0.  0.
<mgrwt>
<rscale>  0 0.37612969E+03</rscale>
<asrwt>0</asrwt>
<pdfrwt beam="1">  1        2 0.46848276E-01 0.37612969E+03</pdfrwt>
<pdfrwt beam="2">  1       -2 0.15407265E-01 0.37612969E+03</pdfrwt>
<totfact> 0.35416981E+03</totfact>
</mgrwt>
</event>
<event>
 4    1  0.1351183E-004  0.4627406E+03  0.7818608E-02  0.1023989E+00
         -2   -1    0    0    0  501 -0.00000000000E+00  0.00000000000E+00  0.22849679116E+02  0.22849679258E+02  0.25500000000E-02 0. -1.
          2   -1    0    0  501    0  0.00000000000E+00 -0.00000000000E+00 -0.23427997158E+04  0.23427997158E+04  0.25500000000E-02 0.  1.
    5000001    1    1    2    0    0 -0.14939075373E+03 -0.10794193954E+03 -0.86038788512E+03  0.88902495605E+03  0.12700000000E+03 0.  0.
   -5000001    1    1    2    0    0  0.14939075373E+03  0.10794193954E+03 -0.14595621515E+04  0.14766244390E+04  0.12700000000E+03 0.  0.
<mgrwt>
<rscale>  0 0.46274063E+03</rscale>
<asrwt>0</asrwt>
<pdfrwt beam="1">  1        2 0.33468552E+00 0.46274063E+03</pdfrwt>
<pdfrwt beam="2">  1       -2 0.32642414E-02 0.46274063E+03</pdfrwt>
<totfact> 0.22134089E+03</totfact>
</mgrwt>
</event>
<event>
 4    1  0.1351183E-004  0.5523886E+03  0.7818608E-02  0.1000943E+00
          2   -1    0    0  501    0  0.00000000000E+00  0.00000000000E+00  0.92129132164E+02  0.92129132199E+02  0.25500000000E-02 0.  1.
         -2   -1    0    0    0  501 -0.00000000000E+00 -0.00000000000E+00 -0.82800395764E+03  0.82800395764E+03  0.25500000000E-02 0. -1.
    5000001    1    1    2    0    0 -0.19639338458E+02  0.16702723779E+03 -0.70565265789E+02  0.22224369174E+03  0.12700000000E+03 0.  0.
   -5000001    1    1    2    0    0  0.19639338458E+02 -0.16702723779E+03 -0.66530955968E+03  0.69788939810E+03  0.12700000000E+03 0.  0.
<mgrwt>
<rscale>  0 0.55238858E+03</rscale>
<asrwt>0</asrwt>
<pdfrwt beam="1">  1        2 0.13161305E-01 0.55238858E+03</pdfrwt>
<pdfrwt beam="2">  1       -2 0.11828628E+00 0.55238858E+03</pdfrwt>
<totfact> 0.26246453E+02</totfact>
</mgrwt>
</event>
<event>
 4    1  0.1351183E-004  0.3628897E+03  0.7818608E-02  0.1057446E+00
          2   -1    0    0  501    0  0.00000000000E+00  0.00000000000E+00  0.53344642641E+03  0.53344642641E+03  0.25500000000E-02 0.  1.
         -2   -1    0    0    0  501 -0.00000000000E+00 -0.00000000000E+00 -0.61716085776E+02  0.61716085829E+02  0.25500000000E-02 0. -1.
    5000001    1    1    2    0    0  0.10087614997E+03  0.43836847783E+02  0.12348113772E+03  0.20850481584E+03  0.12700000000E+03 0.  0.
   -5000001    1    1    2    0    0 -0.10087614997E+03 -0.43836847783E+02  0.34824920291E+03  0.38665769640E+03  0.12700000000E+03 0.  0.
<mgrwt>
<rscale>  0 0.36288966E+03</rscale>
<asrwt>0</asrwt>
<pdfrwt beam="1">  1        2 0.76206634E-01 0.36288966E+03</pdfrwt>
<pdfrwt beam="2">  1       -2 0.88165835E-02 0.36288966E+03</pdfrwt>
<totfact> 0.51292460E+03</totfact>
</mgrwt>
</event>
<event>
 4    1  0.1351183E-004  0.3114064E+03  0.7818608E-02  0.1079674E+00
         -2   -1    0    0    0  501 -0.00000000000E+00  0.00000000000E+00  0.13933913729E+02  0.13933913962E+02  0.25500000000E-02 0. -1.
          2   -1    0    0  501    0  0.00000000000E+00 -0.00000000000E+00 -0.17398902467E+04  0.17398902467E+04  0.25500000000E-02 0.  1.
    5000001    1    1    2    0    0  0.35449498949E+02 -0.41142425957E+02 -0.45821727192E+03  0.47858273524E+03  0.12700000000E+03 0.  0.
   -5000001    1    1    2    0    0 -0.35449498949E+02  0.41142425957E+02 -0.12677390611E+04  0.12752414254E+04  0.12700000000E+03 0.  0.
<mgrwt>
<rscale>  0 0.31140636E+03</rscale>
<asrwt>0</asrwt>
<pdfrwt beam="1">  1        2 0.24855561E+00 0.31140636E+03</pdfrwt>
<pdfrwt beam="2">  1       -2 0.19905602E-02 0.31140636E+03</pdfrwt>
<totfact> 0.92414075E+03</totfact>
</mgrwt>
</event>
<event>
 4    1  0.1351183E-004  0.3059911E+03  0.7818608E-02  0.1082284E+00
         -2   -1    0    0    0  501 -0.00000000000E+00  0.00000000000E+00  0.21281589863E+03  0.21281589865E+03  0.25500000000E-02 0. -1.
          2   -1    0    0  501    0  0.00000000000E+00 -0.00000000000E+00 -0.10999005344E+03  0.10999005347E+03  0.25500000000E-02 0.  1.
    5000001    1    1    2    0    0 -0.39238876676E+01  0.51019241793E+02 -0.20604642928E+02  0.13846267092E+03  0.12700000000E+03 0.  0.
   -5000001    1    1    2    0    0  0.39238876676E+01 -0.51019241793E+02  0.12343048812E+03  0.18434328120E+03  0.12700000000E+03 0.  0.
<mgrwt>
<rscale>  0 0.30599106E+03</rscale>
<asrwt>0</asrwt>
<pdfrwt beam="1">  1        2 0.15712865E-01 0.30599106E+03</pdfrwt>
<pdfrwt beam="2">  1       -2 0.30402271E-01 0.30599106E+03</pdfrwt>
<totfact> 0.36771565E+03</totfact>
</mgrwt>
</event>
<event>
 4    1  0.1351183E-004  0.2904511E+03  0.7818608E-02  0.1090114E+00
         -2   -1    0    0    0  501 -0.00000000000E+00  0.00000000000E+00  0.10123187940E+03  0.10123187943E+03  0.25500000000E-02 0. -1.
          2   -1    0    0  501    0  0.00000000000E+00 -0.00000000000E+00 -0.20833817440E+03  0.20833817442E+03  0.25500000000E-02 0.  1.
    5000001    1    1    2    0    0 -0.24028714615E+02  0.50600589062E+02 -0.99068566607E+02  0.17053263508E+03  0.12700000000E+03 0.  0.
   -5000001    1    1    2    0    0  0.24028714615E+02 -0.50600589062E+02 -0.80377283927E+01  0.13903741877E+03  0.12700000000E+03 0.  0.
<mgrwt>
<rscale>  0 0.29045113E+03</rscale>
<asrwt>0</asrwt>
<pdfrwt beam="1">  1        2 0.29762596E-01 0.29045113E+03</pdfrwt>
<pdfrwt beam="2">  1       -2 0.14461697E-01 0.29045113E+03</pdfrwt>
<totfact> 0.64041239E+03</totfact>
</mgrwt>
</event>
<event>
 4    1  0.1351183E-004  0.4312638E+03  0.7818608E-02  0.1033461E+00
         -2   -1    0    0    0  501 -0.00000000000E+00  0.00000000000E+00  0.20868789516E+02  0.20868789671E+02  0.25500000000E-02 0. -1.
          2   -1    0    0  501    0  0.00000000000E+00 -0.00000000000E+00 -0.22280699619E+04  0.22280699619E+04  0.25500000000E-02 0.  1.
    5000001    1    1    2    0    0  0.14739633672E+03 -0.47973861537E+02 -0.68834850759E+03  0.71692387278E+03  0.12700000000E+03 0.  0.
   -5000001    1    1    2    0    0 -0.14739633672E+03  0.47973861537E+02 -0.15188526648E+04  0.15320148788E+04  0.12700000000E+03 0.  0.
<mgrwt>
<rscale>  0 0.43126383E+03</rscale>
<asrwt>0</asrwt>
<pdfrwt beam="1">  1        2 0.31829556E+00 0.43126383E+03</pdfrwt>
<pdfrwt beam="2">  1       -2 0.29812571E-02 0.43126383E+03</pdfrwt>
<totfact> 0.29016372E+03</totfact>
</mgrwt>
</event>
<event>
 4    1  0.1351183E-004  0.5401448E+03  0.7818608E-02  0.1003801E+00
          2   -1    0    0  501    0  0.00000000000E+00  0.00000000000E+00  0.20295540706E+03  0.20295540707E+03  0.25500000000E-02 0. -1.
         -2   -1    0    0    0  501 -0.00000000000E+00 -0.00000000000E+00 -0.35938489398E+03  0.35938489399E+03  0.25500000000E-02 0.  1.
    5000001    1    1    2    0    0  0.10308484949E+03  0.18206796425E+03  0.40647102496E+02  0.24810565641E+03  0.12700000000E+03 0.  0.
   -5000001    1    1    2    0    0 -0.10308484949E+03 -0.18206796425E+03 -0.19707658942E+03  0.31423464465E+03  0.12700000000E+03 0.  0.
<mgrwt>
<rscale>  0 0.54014482E+03</rscale>
<asrwt>0</asrwt>
<pdfrwt beam="1">  1        2 0.28993630E-01 0.54014482E+03</pdfrwt>
<pdfrwt beam="2">  1       -2 0.51340699E-01 0.54014482E+03</pdfrwt>
<totfact> 0.66717390E+02</totfact>
</mgrwt>
</event>
<event>
 4    1  0.1351183E-004  0.5340445E+03  0.7818608E-02  0.1005256E+00
         -2   -1    0    0    0  501 -0.00000000000E+00  0.00000000000E+00  0.16999003469E+03  0.16999003471E+03  0.25500000000E-02 0. -1.
          2   -1    0    0  501    0  0.00000000000E+00 -0.00000000000E+00 -0.41944152836E+03  0.41944152836E+03  0.25500000000E-02 0.  1.
    5000001    1    1    2    0    0  0.57374132575E+01 -0.21299579637E+03 -0.15621367537E+02  0.24854205742E+03  0.12700000000E+03 0.  0.
   -5000001    1    1    2    0    0 -0.57374132575E+01  0.21299579637E+03 -0.23383012613E+03  0.34088950566E+03  0.12700000000E+03 0.  0.
<mgrwt>
<rscale>  0 0.53404449E+03</rscale>
<asrwt>0</asrwt>
<pdfrwt beam="1">  1        2 0.59920218E-01 0.53404449E+03</pdfrwt>
<pdfrwt beam="2">  1       -2 0.24284291E-01 0.53404449E+03</pdfrwt>
<totfact> 0.12379635E+03</totfact>
</mgrwt>
</event>
<event>
 4    1  0.1351183E-004  0.3523074E+03  0.7818608E-02  0.1061672E+00
         -2   -1    0    0    0  501 -0.00000000000E+00  0.00000000000E+00  0.14144472600E+03  0.14144472603E+03  0.25500000000E-02 0. -1.
          2   -1    0    0  501    0  0.00000000000E+00 -0.00000000000E+00 -0.21937981510E+03  0.21937981512E+03  0.25500000000E-02 0.  1.
    5000001    1    1    2    0    0  0.11397072654E+03 -0.43695233386E+02 -0.40592700017E+02  0.18076329059E+03  0.12700000000E+03 0.  0.
   -5000001    1    1    2    0    0 -0.11397072654E+03  0.43695233386E+02 -0.37342389081E+02  0.18006125056E+03  0.12700000000E+03 0.  0.
<mgrwt>
<rscale>  0 0.35230735E+03</rscale>
<asrwt>0</asrwt>
<pdfrwt beam="1">  1        2 0.31339974E-01 0.35230735E+03</pdfrwt>
<pdfrwt beam="2">  1       -2 0.20206389E-01 0.35230735E+03</pdfrwt>
<totfact> 0.34644934E+03</totfact>
</mgrwt>
</event>
<event>
 4    1  0.1351183E-004  0.7861664E+03  0.7818608E-02  0.9580259E-01
          2   -1    0    0  501    0  0.00000000000E+00  0.00000000000E+00  0.24387098036E+04  0.24387098036E+04  0.25500000000E-02 0.  1.
         -2   -1    0    0    0  501 -0.00000000000E+00 -0.00000000000E+00 -0.63359083774E+02  0.63359083825E+02  0.25500000000E-02 0. -1.
    5000001    1    1    2    0    0 -0.23954090253E+03  0.26515301740E+03  0.85847103522E+03  0.93850278899E+03  0.12700000000E+03 0.  0.
   -5000001    1    1    2    0    0  0.23954090253E+03 -0.26515301740E+03  0.15168796846E+04  0.15635660985E+04  0.12700000000E+03 0.  0.
<mgrwt>
<rscale>  0 0.78616644E+03</rscale>
<asrwt>0</asrwt>
<pdfrwt beam="1">  1        2 0.34838710E+00 0.78616644E+03</pdfrwt>
<pdfrwt beam="2">  1       -2 0.90512981E-02 0.78616644E+03</pdfrwt>
<totfact> 0.39382534E+02</totfact>
</mgrwt>
</event>
<event>
 4    1  0.1351183E-004  0.3358263E+03  0.7818608E-02  0.1068588E+00
          2   -1    0    0  501    0  0.00000000000E+00  0.00000000000E+00  0.93806113601E+03  0.93806113601E+03  0.25500000000E-02 0.  1.
         -2   -1    0    0    0  501 -0.00000000000E+00 -0.00000000000E+00 -0.30056498950E+02  0.30056499058E+02  0.25500000000E-02 0. -1.
    5000001    1    1    2    0    0 -0.71873573724E+02  0.41120124982E+02  0.66206641572E+03  0.67920366172E+03  0.12700000000E+03 0.  0.
   -5000001    1    1    2    0    0  0.71873573724E+02 -0.41120124982E+02  0.24593822134E+03  0.28891397334E+03  0.12700000000E+03 0.  0.
<mgrwt>
<rscale>  0 0.33582635E+03</rscale>
<asrwt>0</asrwt>
<pdfrwt beam="1">  1        2 0.13400872E+00 0.33582635E+03</pdfrwt>
<pdfrwt beam="2">  1       -2 0.42937859E-02 0.33582635E+03</pdfrwt>
<totfact> 0.78705550E+03</totfact>
</mgrwt>
</event>
<event>
 4    1  0.1351183E-004  0.4521969E+03  0.7818608E-02  0.1027069E+00
         -2   -1    0    0    0  501 -0.00000000000E+00  0.00000000000E+00  0.58700697246E+02  0.58700697301E+02  0.25500000000E-02 0. -1.
          2   -1    0    0  501    0  0.00000000000E+00 -0.00000000000E+00 -0.87086713299E+03  0.87086713300E+03  0.25500000000E-02 0.  1.
    5000001    1    1    2    0    0 -0.14267930008E+02  0.15681037373E+03 -0.61367989583E+03  0.64616180766E+03  0.12700000000E+03 0.  0.
   -5000001    1    1    2    0    0  0.14267930008E+02 -0.15681037373E+03 -0.19848653991E+03  0.28340602263E+03  0.12700000000E+03 0.  0.
<mgrwt>
<rscale>  0 0.45219689E+03</rscale>
<asrwt>0</asrwt>
<pdfrwt beam="1">  1        2 0.12440958E+00 0.45219689E+03</pdfrwt>
<pdfrwt beam="2">  1       -2 0.83858144E-02 0.45219689E+03</pdfrwt>
<totfact> 0.30893207E+03</totfact>
</mgrwt>
</event>
<event>
 4    1  0.1351183E-004  0.6220490E+03  0.7818608E-02  0.9860689E-01
         -2   -1    0    0    0  501 -0.00000000000E+00  0.00000000000E+00  0.65465107006E+02  0.65465107055E+02  0.25500000000E-02 0. -1.
          2   -1    0    0  501    0  0.00000000000E+00 -0.00000000000E+00 -0.14776761556E+04  0.14776761556E+04  0.25500000000E-02 0.  1.
    5000001    1    1    2    0    0  0.15297706799E+03  0.21022946019E+03 -0.98904923228E+03  0.10305075415E+04  0.12700000000E+03 0.  0.
   -5000001    1    1    2    0    0 -0.15297706799E+03 -0.21022946019E+03 -0.42316181633E+03  0.51263372115E+03  0.12700000000E+03 0.  0.
<mgrwt>
<rscale>  0 0.62204896E+03</rscale>
<asrwt>0</asrwt>
<pdfrwt beam="1">  1        2 0.21109657E+00 0.62204896E+03</pdfrwt>
<pdfrwt beam="2">  1       -2 0.93521590E-02 0.62204896E+03</pdfrwt>
<totfact> 0.11653893E+03</totfact>
</mgrwt>
</event>
<event>
 4    1  0.1351183E-004  0.4312698E+03  0.7818608E-02  0.1033460E+00
          2   -1    0    0  501    0  0.00000000000E+00  0.00000000000E+00  0.20995282899E+03  0.20995282900E+03  0.25500000000E-02 0.  1.
         -2   -1    0    0    0  501 -0.00000000000E+00 -0.00000000000E+00 -0.22147075791E+03  0.22147075793E+03  0.25500000000E-02 0. -1.
    5000001    1    1    2    0    0 -0.84418166456E+02  0.56513479293E+02 -0.14740469292E+03  0.21949337955E+03  0.12700000000E+03 0.  0.
   -5000001    1    1    2    0    0  0.84418166456E+02 -0.56513479293E+02  0.13588676400E+03  0.21193020738E+03  0.12700000000E+03 0.  0.
<mgrwt>
<rscale>  0 0.43126981E+03</rscale>
<asrwt>0</asrwt>
<pdfrwt beam="1">  1        2 0.29993261E-01 0.43126981E+03</pdfrwt>
<pdfrwt beam="2">  1       -2 0.31638680E-01 0.43126981E+03</pdfrwt>
<totfact> 0.16402269E+03</totfact>
</mgrwt>
</event>
<event>
 4    1  0.1351183E-004  0.3866123E+03  0.7818608E-02  0.1048517E+00
          2   -1    0    0  501    0  0.00000000000E+00  0.00000000000E+00  0.86305019945E+03  0.86305019946E+03  0.25500000000E-02 0.  1.
         -2   -1    0    0    0  501 -0.00000000000E+00 -0.00000000000E+00 -0.43296755233E+02  0.43296755308E+02  0.25500000000E-02 0. -1.
    5000001    1    1    2    0    0 -0.62197403460E+02  0.11402337969E+03  0.25493041496E+03  0.31303093231E+03  0.12700000000E+03 0.  0.
   -5000001    1    1    2    0    0  0.62197403460E+02 -0.11402337969E+03  0.56482302926E+03  0.59331602245E+03  0.12700000000E+03 0.  0.
<mgrwt>
<rscale>  0 0.38661233E+03</rscale>
<asrwt>0</asrwt>
<pdfrwt beam="1">  1        2 0.12329289E+00 0.38661233E+03</pdfrwt>
<pdfrwt beam="2">  1       -2 0.61852506E-02 0.38661233E+03</pdfrwt>
<totfact> 0.50303639E+03</totfact>
</mgrwt>
</event>
<event>
 4    1  0.1351183E-004  0.6886616E+03  0.7818608E-02  0.9736821E-01
         -2   -1    0    0    0  501 -0.00000000000E+00  0.00000000000E+00  0.85366049622E+02  0.85366049660E+02  0.25500000000E-02 0. -1.
          2   -1    0    0  501    0  0.00000000000E+00 -0.00000000000E+00 -0.13888860677E+04  0.13888860677E+04  0.25500000000E-02 0.  1.
    5000001    1    1    2    0    0  0.74837717496E+02 -0.17678922810E+03 -0.10354584841E+03  0.25240019385E+03  0.12700000000E+03 0.  0.
   -5000001    1    1    2    0    0 -0.74837717496E+02  0.17678922810E+03 -0.11999741697E+04  0.12218519235E+04  0.12700000000E+03 0.  0.
<mgrwt>
<rscale>  0 0.68866165E+03</rscale>
<asrwt>0</asrwt>
<pdfrwt beam="1">  1        2 0.19841228E+00 0.68866165E+03</pdfrwt>
<pdfrwt beam="2">  1       -2 0.12195151E-01 0.68866165E+03</pdfrwt>
<totfact> 0.83963868E+02</totfact>
</mgrwt>
</event>
<event>
 4    1  0.1351183E-004  0.3227148E+03  0.7818608E-02  0.1074407E+00
          2   -1    0    0  501    0  0.00000000000E+00  0.00000000000E+00  0.11309285061E+04  0.11309285061E+04  0.25500000000E-02 0.  1.
         -2   -1    0    0    0  501 -0.00000000000E+00 -0.00000000000E+00 -0.23021983557E+02  0.23021983698E+02  0.25500000000E-02 0. -1.
    5000001    1    1    2    0    0 -0.77486354268E+02 -0.25081975339E+02  0.75855345679E+03  0.77341165455E+03  0.12700000000E+03 0.  0.
   -5000001    1    1    2    0    0  0.77486354268E+02  0.25081975339E+02  0.34935306578E+03  0.38053883527E+03  0.12700000000E+03 0.  0.
<mgrwt>
<rscale>  0 0.32271484E+03</rscale>
<asrwt>0</asrwt>
<pdfrwt beam="1">  1        2 0.16156123E+00 0.32271484E+03</pdfrwt>
<pdfrwt beam="2">  1       -2 0.32888546E-02 0.32271484E+03</pdfrwt>
<totfact> 0.90624010E+03</totfact>
</mgrwt>
</event>
<event>
 4    1  0.1351183E-004  0.4333657E+03  0.7818608E-02  0.1032802E+00
          2   -1    0    0  501    0  0.00000000000E+00  0.00000000000E+00  0.25156853086E+04  0.25156853086E+04  0.25500000000E-02 0. -1.
         -2   -1    0    0    0  501 -0.00000000000E+00 -0.00000000000E+00 -0.18663482120E+02  0.18663482294E+02  0.25500000000E-02 0.  1.
    5000001    1    1    2    0    0  0.20101409389E+02 -0.17413955039E+03  0.13051491128E+04  0.13229784036E+04  0.12700000000E+03 0.  0.
   -5000001    1    1    2    0    0 -0.20101409389E+02  0.17413955039E+03  0.11918727137E+04  0.12113703873E+04  0.12700000000E+03 0.  0.
<mgrwt>
<rscale>  0 0.43336566E+03</rscale>
<asrwt>0</asrwt>
<pdfrwt beam="1">  1        2 0.35938367E+00 0.43336566E+03</pdfrwt>
<pdfrwt beam="2">  1       -2 0.26662114E-02 0.43336566E+03</pdfrwt>
<totfact> 0.24603041E+03</totfact>
</mgrwt>
</event>
<event>
 4    1  0.1351183E-004  0.4962027E+03  0.7818608E-02  0.1014775E+00
         -2   -1    0    0    0  501 -0.00000000000E+00  0.00000000000E+00  0.74990070745E+02  0.74990070788E+02  0.25500000000E-02 0. -1.
          2   -1    0    0  501    0  0.00000000000E+00 -0.00000000000E+00 -0.82083239131E+03  0.82083239132E+03  0.25500000000E-02 0.  1.
    5000001    1    1    2    0    0  0.14061276474E+03  0.16015372138E+03 -0.36925889547E+03  0.44486210893E+03  0.12700000000E+03 0.  0.
   -5000001    1    1    2    0    0 -0.14061276474E+03 -0.16015372138E+03 -0.37658342510E+03  0.45096035318E+03  0.12700000000E+03 0.  0.
<mgrwt>
<rscale>  0 0.49620270E+03</rscale>
<asrwt>0</asrwt>
<pdfrwt beam="1">  1        2 0.11726176E+00 0.49620270E+03</pdfrwt>
<pdfrwt beam="2">  1       -2 0.10712868E-01 0.49620270E+03</pdfrwt>
<totfact> 0.22518719E+03</totfact>
</mgrwt>
</event>
<event>
 4    1  0.1351183E-004  0.3345954E+03  0.7818608E-02  0.1069121E+00
         -2   -1    0    0    0  501 -0.00000000000E+00  0.00000000000E+00  0.27113129081E+03  0.27113129082E+03  0.25500000000E-02 0. -1.
          2   -1    0    0  501    0  0.00000000000E+00 -0.00000000000E+00 -0.10322867771E+03  0.10322867774E+03  0.25500000000E-02 0.  1.
    5000001    1    1    2    0    0 -0.10572495987E+03  0.11580208831E+02  0.11013454944E+03  0.19892332030E+03  0.12700000000E+03 0.  0.
   -5000001    1    1    2    0    0  0.10572495987E+03 -0.11580208831E+02  0.57768063659E+02  0.17543664827E+03  0.12700000000E+03 0.  0.
<mgrwt>
<rscale>  0 0.33459543E+03</rscale>
<asrwt>0</asrwt>
<pdfrwt beam="1">  1        2 0.14746954E-01 0.33459543E+03</pdfrwt>
<pdfrwt beam="2">  1       -2 0.38733042E-01 0.33459543E+03</pdfrwt>
<totfact> 0.25302776E+03</totfact>
</mgrwt>
</event>
<event>
 4    1  0.1351183E-004  0.5992392E+03  0.7818608E-02  0.9906986E-01
         -2   -1    0    0    0  501 -0.00000000000E+00  0.00000000000E+00  0.83267029668E+02  0.83267029707E+02  0.25500000000E-02 0. -1.
          2   -1    0    0  501    0  0.00000000000E+00 -0.00000000000E+00 -0.10781206630E+04  0.10781206630E+04  0.25500000000E-02 0.  1.
    5000001    1    1    2    0    0 -0.27670646328E+01 -0.15083771855E+03 -0.60242731417E+02  0.20619859522E+03  0.12700000000E+03 0.  0.
   -5000001    1    1    2    0    0  0.27670646328E+01  0.15083771855E+03 -0.93461090192E+03  0.95518909749E+03  0.12700000000E+03 0.  0.
<mgrwt>
<rscale>  0 0.59923920E+03</rscale>
<asrwt>0</asrwt>
<pdfrwt beam="1">  1        2 0.15401723E+00 0.59923920E+03</pdfrwt>
<pdfrwt beam="2">  1       -2 0.11895291E-01 0.59923920E+03</pdfrwt>
<totfact> 0.13075519E+03</totfact>
</mgrwt>
</event>
<event>
 4    1  0.1351183E-004  0.6715218E+03  0.7818608E-02  0.9767213E-01
          2   -1    0    0  501    0  0.00000000000E+00  0.00000000000E+00  0.20890533630E+04  0.20890533630E+04  0.25500000000E-02 0.  1.
         -2   -1    0    0    0  501 -0.00000000000E+00 -0.00000000000E+00 -0.53964816583E+02  0.53964816643E+02  0.25500000000E-02 0. -1.
    5000001    1    1    2    0    0  0.98514543984E+02  0.29358376703E+03  0.11025690224E+04  0.11522517055E+04  0.12700000000E+03 0.  0.
   -5000001    1    1    2    0    0 -0.98514543984E+02 -0.29358376703E+03  0.93251952399E+03  0.99076647413E+03  0.12700000000E+03 0.  0.
<mgrwt>
<rscale>  0 0.67152180E+03</rscale>
<asrwt>0</asrwt>
<pdfrwt beam="1">  1        2 0.29843624E+00 0.67152180E+03</pdfrwt>
<pdfrwt beam="2">  1       -2 0.77092584E-02 0.67152180E+03</pdfrwt>
<totfact> 0.77366742E+02</totfact>
</mgrwt>
</event>
<event>
 4    1  0.1351183E-004  0.3099433E+03  0.7818608E-02  0.1080373E+00
         -2   -1    0    0    0  501 -0.00000000000E+00  0.00000000000E+00  0.14737188310E+03  0.14737188312E+03  0.25500000000E-02 0. -1.
          2   -1    0    0  501    0  0.00000000000E+00 -0.00000000000E+00 -0.16296333787E+03  0.16296333789E+03  0.25500000000E-02 0.  1.
    5000001    1    1    2    0    0  0.29786213259E+02 -0.61992704884E+02 -0.64053070063E+02  0.15799401806E+03  0.12700000000E+03 0.  0.
   -5000001    1    1    2    0    0 -0.29786213259E+02  0.61992704884E+02  0.48461615298E+02  0.15234120295E+03  0.12700000000E+03 0.  0.
<mgrwt>
<rscale>  0 0.30994331E+03</rscale>
<asrwt>0</asrwt>
<pdfrwt beam="1">  1        2 0.23280477E-01 0.30994331E+03</pdfrwt>
<pdfrwt beam="2">  1       -2 0.21053126E-01 0.30994331E+03</pdfrwt>
<totfact> 0.44812355E+03</totfact>
</mgrwt>
</event>
<event>
 4    1  0.1351183E-004  0.2800396E+03  0.7818608E-02  0.1095667E+00
         -2   -1    0    0    0  501 -0.00000000000E+00  0.00000000000E+00  0.54173774933E+01  0.54173780934E+01  0.25500000000E-02 0. -1.
          2   -1    0    0  501    0  0.00000000000E+00 -0.00000000000E+00 -0.36190105152E+04  0.36190105152E+04  0.25500000000E-02 0.  1.
    5000001    1    1    2    0    0 -0.28999881581E+02  0.36161107173E+02 -0.22784329665E+04  0.22824404486E+04  0.12700000000E+03 0.  0.
   -5000001    1    1    2    0    0  0.28999881581E+02 -0.36161107173E+02 -0.13351601712E+04  0.13419874447E+04  0.12700000000E+03 0.  0.
<mgrwt>
<rscale>  0 0.28003962E+03</rscale>
<asrwt>0</asrwt>
<pdfrwt beam="1">  1        2 0.51699995E+00 0.28003962E+03</pdfrwt>
<pdfrwt beam="2">  1       -2 0.77391343E-03 0.28003962E+03</pdfrwt>
<totfact> 0.38638284E+03</totfact>
</mgrwt>
</event>
<event>
 4    1  0.1351183E-004  0.2742811E+03  0.7818608E-02  0.1098854E+00
          2   -1    0    0  501    0  0.00000000000E+00  0.00000000000E+00  0.41929677888E+03  0.41929677888E+03  0.25500000000E-02 0.  1.
         -2   -1    0    0    0  501 -0.00000000000E+00 -0.00000000000E+00 -0.44854942380E+02  0.44854942453E+02  0.25500000000E-02 0. -1.
    5000001    1    1    2    0    0  0.37321433273E+02  0.83023212567E+00  0.12656015360E+03  0.18313943089E+03  0.12700000000E+03 0.  0.
   -5000001    1    1    2    0    0 -0.37321433273E+02 -0.83023212567E+00  0.24788168290E+03  0.28101229045E+03  0.12700000000E+03 0.  0.
<mgrwt>
<rscale>  0 0.27428112E+03</rscale>
<asrwt>0</asrwt>
<pdfrwt beam="1">  1        2 0.59899539E-01 0.27428112E+03</pdfrwt>
<pdfrwt beam="2">  1       -2 0.64078490E-02 0.27428112E+03</pdfrwt>
<totfact> 0.10914367E+04</totfact>
</mgrwt>
</event>
<event>
 4    1  0.1351183E-004  0.2973018E+03  0.7818608E-02  0.1086597E+00
         -2   -1    0    0    0  501 -0.00000000000E+00  0.00000000000E+00  0.36566672458E+03  0.36566672459E+03  0.25500000000E-02 0. -1.
          2   -1    0    0  501    0  0.00000000000E+00 -0.00000000000E+00 -0.60429594114E+02  0.60429594168E+02  0.25500000000E-02 0.  1.
    5000001    1    1    2    0    0  0.73823975025E+02  0.22640919716E+02  0.15598011848E+03  0.21545623197E+03  0.12700000000E+03 0.  0.
   -5000001    1    1    2    0    0 -0.73823975025E+02 -0.22640919716E+02  0.14925701198E+03  0.21064008678E+03  0.12700000000E+03 0.  0.
<mgrwt>
<rscale>  0 0.29730181E+03</rscale>
<asrwt>0</asrwt>
<pdfrwt beam="1">  1        2 0.86327993E-02 0.29730181E+03</pdfrwt>
<pdfrwt beam="2">  1       -2 0.52238103E-01 0.29730181E+03</pdfrwt>
<totfact> 0.27129104E+03</totfact>
</mgrwt>
</event>
<event>
 4    1  0.1351183E-004  0.9527541E+03  0.7818608E-02  0.9361937E-01
          2   -1    0    0  501    0  0.00000000000E+00  0.00000000000E+00  0.13537394980E+04  0.13537394980E+04  0.25500000000E-02 0.  1.
         -2   -1    0    0    0  501 -0.00000000000E+00 -0.00000000000E+00 -0.16763570215E+03  0.16763570217E+03  0.25500000000E-02 0. -1.
    5000001    1    1    2    0    0 -0.38805236612E+03 -0.68597878343E+02  0.21681300632E+03  0.46736194483E+03  0.12700000000E+03 0.  0.
   -5000001    1    1    2    0    0  0.38805236612E+03  0.68597878343E+02  0.96929078955E+03  0.10540132554E+04  0.12700000000E+03 0.  0.
<mgrwt>
<rscale>  0 0.95275405E+03</rscale>
<asrwt>0</asrwt>
<pdfrwt beam="1">  1        2 0.19339136E+00 0.95275405E+03</pdfrwt>
<pdfrwt beam="2">  1       -2 0.23947957E-01 0.95275405E+03</pdfrwt>
<totfact> 0.27123373E+02</totfact>
</mgrwt>
</event>
<event>
 4    1  0.1351183E-004  0.3093251E+03  0.7818608E-02  0.1080670E+00
          2   -1    0    0  501    0  0.00000000000E+00  0.00000000000E+00  0.61452863526E+03  0.61452863526E+03  0.25500000000E-02 0.  1.
         -2   -1    0    0    0  501 -0.00000000000E+00 -0.00000000000E+00 -0.38924975087E+02  0.38924975171E+02  0.25500000000E-02 0. -1.
    5000001    1    1    2    0    0  0.34146188465E+02  0.77649938002E+02  0.33937645344E+03  0.37215702628E+03  0.12700000000E+03 0.  0.
   -5000001    1    1    2    0    0 -0.34146188465E+02 -0.77649938002E+02  0.23622720673E+03  0.28129658416E+03  0.12700000000E+03 0.  0.
<mgrwt>
<rscale>  0 0.30932515E+03</rscale>
<asrwt>0</asrwt>
<pdfrwt beam="1">  1        2 0.87789795E-01 0.30932515E+03</pdfrwt>
<pdfrwt beam="2">  1       -2 0.55607113E-02 0.30932515E+03</pdfrwt>
<totfact> 0.89070076E+03</totfact>
</mgrwt>
</event>
<event>
 4    1  0.1351183E-004  0.2809821E+03  0.7818608E-02  0.1095154E+00
          2   -1    0    0  501    0  0.00000000000E+00  0.00000000000E+00  0.32149938717E+03  0.32149938718E+03  0.25500000000E-02 0.  1.
         -2   -1    0    0    0  501 -0.00000000000E+00 -0.00000000000E+00 -0.61392749294E+02  0.61392749346E+02  0.25500000000E-02 0. -1.
    5000001    1    1    2    0    0  0.55960807468E+02 -0.21157527833E+02  0.12265472356E+03  0.18642004766E+03  0.12700000000E+03 0.  0.
   -5000001    1    1    2    0    0 -0.55960807468E+02  0.21157527833E+02  0.13745191432E+03  0.19647208887E+03  0.12700000000E+03 0.  0.
<mgrwt>
<rscale>  0 0.28098207E+03</rscale>
<asrwt>0</asrwt>
<pdfrwt beam="1">  1        2 0.45928484E-01 0.28098207E+03</pdfrwt>
<pdfrwt beam="2">  1       -2 0.87703928E-02 0.28098207E+03</pdfrwt>
<totfact> 0.89291440E+03</totfact>
</mgrwt>
</event>
<event>
 4    1  0.1351183E-004  0.5880391E+03  0.7818608E-02  0.9930537E-01
         -2   -1    0    0    0  501 -0.00000000000E+00  0.00000000000E+00  0.81750607995E+02  0.81750608035E+02  0.25500000000E-02 0. -1.
          2   -1    0    0  501    0  0.00000000000E+00 -0.00000000000E+00 -0.10574537707E+04  0.10574537707E+04  0.25500000000E-02 0.  1.
    5000001    1    1    2    0    0  0.25522498413E+03  0.70868211837E+02 -0.51207881050E+03  0.59035227122E+03  0.12700000000E+03 0.  0.
   -5000001    1    1    2    0    0 -0.25522498413E+03 -0.70868211837E+02 -0.46362435222E+03  0.54885210753E+03  0.12700000000E+03 0.  0.
<mgrwt>
<rscale>  0 0.58803908E+03</rscale>
<asrwt>0</asrwt>
<pdfrwt beam="1">  1        2 0.15106482E+00 0.58803908E+03</pdfrwt>
<pdfrwt beam="2">  1       -2 0.11678659E-01 0.58803908E+03</pdfrwt>
<totfact> 0.13863266E+03</totfact>
</mgrwt>
</event>
<event>
 4    1  0.1351183E-004  0.3522264E+03  0.7818608E-02  0.1061705E+00
         -2   -1    0    0    0  501 -0.00000000000E+00  0.00000000000E+00  0.13712074607E+02  0.13712074844E+02  0.25500000000E-02 0. -1.
          2   -1    0    0  501    0  0.00000000000E+00 -0.00000000000E+00 -0.22619378344E+04  0.22619378344E+04  0.25500000000E-02 0.  1.
    5000001    1    1    2    0    0 -0.18083335563E+02  0.97284850939E+02 -0.15853002694E+04  0.15934545157E+04  0.12700000000E+03 0.  0.
   -5000001    1    1    2    0    0  0.18083335563E+02 -0.97284850939E+02 -0.66292549040E+03  0.68219539361E+03  0.12700000000E+03 0.  0.
<mgrwt>
<rscale>  0 0.35222641E+03</rscale>
<asrwt>0</asrwt>
<pdfrwt beam="1">  1        2 0.32313374E+00 0.35222641E+03</pdfrwt>
<pdfrwt beam="2">  1       -2 0.19588693E-02 0.35222641E+03</pdfrwt>
<totfact> 0.52397330E+03</totfact>
</mgrwt>
</event>
<event>
 4    1  0.1351183E-004  0.8261306E+03  0.7818608E-02  0.9522946E-01
          2   -1    0    0  501    0  0.00000000000E+00  0.00000000000E+00  0.19308243811E+04  0.19308243811E+04  0.25500000000E-02 0.  1.
         -2   -1    0    0    0  501 -0.00000000000E+00 -0.00000000000E+00 -0.88367930571E+02  0.88367930608E+02  0.25500000000E-02 0. -1.
    5000001    1    1    2    0    0 -0.25415407773E+03 -0.28845077522E+03  0.11212284657E+04  0.11920907756E+04  0.12700000000E+03 0.  0.
   -5000001    1    1    2    0    0  0.25415407773E+03  0.28845077522E+03  0.72122798480E+03  0.82710153610E+03  0.12700000000E+03 0.  0.
<mgrwt>
<rscale>  0 0.82613063E+03</rscale>
<asrwt>0</asrwt>
<pdfrwt beam="1">  1        2 0.27583206E+00 0.82613063E+03</pdfrwt>
<pdfrwt beam="2">  1       -2 0.12623990E-01 0.82613063E+03</pdfrwt>
<totfact> 0.41297030E+02</totfact>
</mgrwt>
</event>
<event>
 4    1  0.1351183E-004  0.5578344E+03  0.7818608E-02  0.9996967E-01
          2   -1    0    0  501    0  0.00000000000E+00  0.00000000000E+00  0.23431066536E+04  0.23431066536E+04  0.25500000000E-02 0.  1.
         -2   -1    0    0    0  501 -0.00000000000E+00 -0.00000000000E+00 -0.33201560990E+02  0.33201561088E+02  0.25500000000E-02 0. -1.
    5000001    1    1    2    0    0 -0.23105588173E+03  0.50283280027E+02  0.14779900421E+04  0.15021647024E+04  0.12700000000E+03 0.  0.
   -5000001    1    1    2    0    0  0.23105588173E+03 -0.50283280027E+02  0.83191505056E+03  0.87414351229E+03  0.12700000000E+03 0.  0.
<mgrwt>
<rscale>  0 0.55783438E+03</rscale>
<asrwt>0</asrwt>
<pdfrwt beam="1">  1        2 0.33472956E+00 0.55783438E+03</pdfrwt>
<pdfrwt beam="2">  1       -2 0.47430797E-02 0.55783438E+03</pdfrwt>
<totfact> 0.12423920E+03</totfact>
</mgrwt>
</event>
<event>
 4    1  0.1351183E-004  0.3763755E+03  0.7818608E-02  0.1052282E+00
          2   -1    0    0  501    0  0.00000000000E+00  0.00000000000E+00  0.14232830673E+03  0.14232830675E+03  0.25500000000E-02 0.  1.
         -2   -1    0    0    0  501 -0.00000000000E+00 -0.00000000000E+00 -0.24882349545E+03  0.24882349546E+03  0.25500000000E-02 0. -1.
    5000001    1    1    2    0    0  0.11235629436E+03  0.46251968123E+02  0.16641702152E+02  0.17654780567E+03  0.12700000000E+03 0.  0.
   -5000001    1    1    2    0    0 -0.11235629436E+03 -0.46251968123E+02 -0.12313689087E+03  0.21460399654E+03  0.12700000000E+03 0.  0.
<mgrwt>
<rscale>  0 0.37637549E+03</rscale>
<asrwt>0</asrwt>
<pdfrwt beam="1">  1        2 0.20332615E-01 0.37637549E+03</pdfrwt>
<pdfrwt beam="2">  1       -2 0.35546214E-01 0.37637549E+03</pdfrwt>
<totfact> 0.20462536E+03</totfact>
</mgrwt>
</event>
<event>
 4    1  0.1351183E-004  0.2797761E+03  0.7818608E-02  0.1095811E+00
         -2   -1    0    0    0  501 -0.00000000000E+00  0.00000000000E+00  0.24718776564E+02  0.24718776696E+02  0.25500000000E-02 0. -1.
          2   -1    0    0  501    0  0.00000000000E+00 -0.00000000000E+00 -0.79165162929E+03  0.79165162930E+03  0.25500000000E-02 0.  1.
    5000001    1    1    2    0    0  0.17527966171E+02  0.48530340331E+02 -0.46481561841E+03  0.48460807118E+03  0.12700000000E+03 0.  0.
   -5000001    1    1    2    0    0 -0.17527966171E+02 -0.48530340331E+02 -0.30211723432E+03  0.33176233482E+03  0.12700000000E+03 0.  0.
<mgrwt>
<rscale>  0 0.27977605E+03</rscale>
<asrwt>0</asrwt>
<pdfrwt beam="1">  1        2 0.11309307E+00 0.27977605E+03</pdfrwt>
<pdfrwt beam="2">  1       -2 0.35312543E-02 0.27977605E+03</pdfrwt>
<totfact> 0.13056083E+04</totfact>
</mgrwt>
</event>
<event>
 4    1  0.1351183E-004  0.3354751E+03  0.7818608E-02  0.1068740E+00
          2   -1    0    0  501    0  0.00000000000E+00  0.00000000000E+00  0.24333768592E+03  0.24333768593E+03  0.25500000000E-02 0.  1.
         -2   -1    0    0    0  501 -0.00000000000E+00 -0.00000000000E+00 -0.11562483445E+03  0.11562483448E+03  0.25500000000E-02 0. -1.
    5000001    1    1    2    0    0 -0.55732530046E+02  0.61774758236E+02  0.14015547684E+03  0.20662718444E+03  0.12700000000E+03 0.  0.
   -5000001    1    1    2    0    0  0.55732530046E+02 -0.61774758236E+02 -0.12442625370E+02  0.15233533597E+03  0.12700000000E+03 0.  0.
<mgrwt>
<rscale>  0 0.33547506E+03</rscale>
<asrwt>0</asrwt>
<pdfrwt beam="1">  1        2 0.34762527E-01 0.33547506E+03</pdfrwt>
<pdfrwt beam="2">  1       -2 0.16517833E-01 0.33547506E+03</pdfrwt>
<totfact> 0.43500671E+03</totfact>
</mgrwt>
</event>
<event>
 4    1  0.1351183E-004  0.4497569E+03  0.7818608E-02  0.1027795E+00
          2   -1    0    0  501    0  0.00000000000E+00  0.00000000000E+00  0.32920724132E+03  0.32920724133E+03  0.25500000000E-02 0.  1.
         -2   -1    0    0    0  501 -0.00000000000E+00 -0.00000000000E+00 -0.15361242901E+03  0.15361242903E+03  0.25500000000E-02 0. -1.
    5000001    1    1    2    0    0  0.11172802973E+03 -0.11404842823E+03  0.18936284758E+03  0.27834777644E+03  0.12700000000E+03 0.  0.
   -5000001    1    1    2    0    0 -0.11172802973E+03  0.11404842823E+03 -0.13768035262E+02  0.20447189392E+03  0.12700000000E+03 0.  0.
<mgrwt>
<rscale>  0 0.44975693E+03</rscale>
<asrwt>0</asrwt>
<pdfrwt beam="1">  1        2 0.47029607E-01 0.44975693E+03</pdfrwt>
<pdfrwt beam="2">  1       -2 0.21944632E-01 0.44975693E+03</pdfrwt>
<totfact> 0.19320286E+03</totfact>
</mgrwt>
</event>
<event>
 4    1  0.1351183E-004  0.5276274E+03  0.7818608E-02  0.1006809E+00
          2   -1    0    0  501    0  0.00000000000E+00  0.00000000000E+00  0.11955161725E+03  0.11955161728E+03  0.25500000000E-02 0.  1.
         -2   -1    0    0    0  501 -0.00000000000E+00 -0.00000000000E+00 -0.58215580844E+03  0.58215580845E+03  0.25500000000E-02 0. -1.
    5000001    1    1    2    0    0  0.10038180294E+03 -0.12406677412E+03 -0.87638671473E+01  0.20414425333E+03  0.12700000000E+03 0.  0.
   -5000001    1    1    2    0    0 -0.10038180294E+03  0.12406677412E+03 -0.45384032404E+03  0.49756317240E+03  0.12700000000E+03 0.  0.
<mgrwt>
<rscale>  0 0.52762740E+03</rscale>
<asrwt>0</asrwt>
<pdfrwt beam="1">  1        2 0.17078803E-01 0.52762740E+03</pdfrwt>
<pdfrwt beam="2">  1       -2 0.83165114E-01 0.52762740E+03</pdfrwt>
<totfact> 0.43821601E+02</totfact>
</mgrwt>
</event>
<event>
 4    1  0.1351183E-004  0.3527681E+03  0.7818608E-02  0.1061485E+00
          2   -1    0    0  501    0  0.00000000000E+00  0.00000000000E+00  0.26058236535E+03  0.26058236537E+03  0.25500000000E-02 0.  1.
         -2   -1    0    0    0  501 -0.00000000000E+00 -0.00000000000E+00 -0.11939155478E+03  0.11939155481E+03  0.25500000000E-02 0. -1.
    5000001    1    1    2    0    0 -0.30848437318E+02 -0.99949615844E+02  0.21259004030E+01  0.16454504321E+03  0.12700000000E+03 0.  0.
   -5000001    1    1    2    0    0  0.30848437318E+02  0.99949615844E+02  0.13906491017E+03  0.21542887697E+03  0.12700000000E+03 0.  0.
<mgrwt>
<rscale>  0 0.35276810E+03</rscale>
<asrwt>0</asrwt>
<pdfrwt beam="1">  1        2 0.37226052E-01 0.35276810E+03</pdfrwt>
<pdfrwt beam="2">  1       -2 0.17055936E-01 0.35276810E+03</pdfrwt>
<totfact> 0.38294281E+03</totfact>
</mgrwt>
</event>
<event>
 4    1  0.1351183E-004  0.3601261E+03  0.7818608E-02  0.1058534E+00
         -2   -1    0    0    0  501 -0.00000000000E+00  0.00000000000E+00  0.68494865719E+02  0.68494865767E+02  0.25500000000E-02 0. -1.
          2   -1    0    0  501    0  0.00000000000E+00 -0.00000000000E+00 -0.47335965778E+03  0.47335965779E+03  0.25500000000E-02 0.  1.
    5000001    1    1    2    0    0 -0.94825501844E+02  0.85371720368E+02 -0.19690409978E+03  0.26679660970E+03  0.12700000000E+03 0.  0.
   -5000001    1    1    2    0    0  0.94825501844E+02 -0.85371720368E+02 -0.20796069228E+03  0.27505791385E+03  0.12700000000E+03 0.  0.
<mgrwt>
<rscale>  0 0.36012612E+03</rscale>
<asrwt>0</asrwt>
<pdfrwt beam="1">  1        2 0.67622806E-01 0.36012612E+03</pdfrwt>
<pdfrwt beam="2">  1       -2 0.97849811E-02 0.36012612E+03</pdfrwt>
<totfact> 0.49660616E+03</totfact>
</mgrwt>
</event>
<event>
 4    1  0.1351183E-004  0.3984670E+03  0.7818608E-02  0.1044312E+00
          2   -1    0    0  501    0  0.00000000000E+00  0.00000000000E+00  0.15043356769E+04  0.15043356769E+04  0.25500000000E-02 0.  1.
         -2   -1    0    0    0  501 -0.00000000000E+00 -0.00000000000E+00 -0.26386389297E+02  0.26386389420E+02  0.25500000000E-02 0. -1.
    5000001    1    1    2    0    0 -0.11805340515E+03 -0.36449168384E+02  0.10889510833E+04  0.11032717753E+04  0.12700000000E+03 0.  0.
   -5000001    1    1    2    0    0  0.11805340515E+03  0.36449168384E+02  0.38899820423E+03  0.42745029095E+03  0.12700000000E+03 0.  0.
<mgrwt>
<rscale>  0 0.39846700E+03</rscale>
<asrwt>0</asrwt>
<pdfrwt beam="1">  1        2 0.21490511E+00 0.39846700E+03</pdfrwt>
<pdfrwt beam="2">  1       -2 0.37694839E-02 0.39846700E+03</pdfrwt>
<totfact> 0.46814198E+03</totfact>
</mgrwt>
</event>
<event>
 4    1  0.1351183E-004  0.2901469E+03  0.7818608E-02  0.1090272E+00
         -2   -1    0    0    0  501 -0.00000000000E+00  0.00000000000E+00  0.12944328314E+02  0.12944328565E+02  0.25500000000E-02 0. -1.
          2   -1    0    0  501    0  0.00000000000E+00 -0.00000000000E+00 -0.16259098087E+04  0.16259098087E+04  0.25500000000E-02 0.  1.
    5000001    1    1    2    0    0  0.47383436615E+02 -0.50392965214E+02 -0.74142365078E+03  0.75539570487E+03  0.12700000000E+03 0.  0.
   -5000001    1    1    2    0    0 -0.47383436615E+02  0.50392965214E+02 -0.87154182958E+03  0.88345843237E+03  0.12700000000E+03 0.  0.
<mgrwt>
<rscale>  0 0.29014693E+03</rscale>
<asrwt>0</asrwt>
<pdfrwt beam="1">  1        2 0.23227270E+00 0.29014693E+03</pdfrwt>
<pdfrwt beam="2">  1       -2 0.18491908E-02 0.29014693E+03</pdfrwt>
<totfact> 0.11717023E+04</totfact>
</mgrwt>
</event>
<event>
 4    1  0.1351183E-004  0.3047397E+03  0.7818608E-02  0.1082895E+00
         -2   -1    0    0    0  501 -0.00000000000E+00  0.00000000000E+00  0.47084736428E+01  0.47084743333E+01  0.25500000000E-02 0. -1.
          2   -1    0    0  501    0  0.00000000000E+00 -0.00000000000E+00 -0.49308072108E+04  0.49308072108E+04  0.25500000000E-02 0.  1.
    5000001    1    1    2    0    0 -0.62865876346E+02 -0.47984470138E+02 -0.29304753333E+04  0.29342919601E+04  0.12700000000E+03 0.  0.
   -5000001    1    1    2    0    0  0.62865876346E+02  0.47984470138E+02 -0.19956234039E+04  0.20012237251E+04  0.12700000000E+03 0.  0.
<mgrwt>
<rscale>  0 0.30473974E+03</rscale>
<asrwt>0</asrwt>
<pdfrwt beam="1">  1        2 0.70439772E+00 0.30473974E+03</pdfrwt>
<pdfrwt beam="2">  1       -2 0.67264230E-03 0.30473974E+03</pdfrwt>
<totfact> 0.53740344E+02</totfact>
</mgrwt>
</event>
<event>
 4    1  0.1351183E-004  0.2777150E+03  0.7818608E-02  0.1096944E+00
          2   -1    0    0  501    0  0.00000000000E+00  0.00000000000E+00  0.51538230445E+03  0.51538230445E+03  0.25500000000E-02 0.  1.
         -2   -1    0    0    0  501 -0.00000000000E+00 -0.00000000000E+00 -0.37411858181E+02  0.37411858268E+02  0.25500000000E-02 0. -1.
    5000001    1    1    2    0    0 -0.38762958714E+02  0.35083977749E+02  0.19824260681E+03  0.24116920122E+03  0.12700000000E+03 0.  0.
   -5000001    1    1    2    0    0  0.38762958714E+02 -0.35083977749E+02  0.27972783946E+03  0.31162496150E+03  0.12700000000E+03 0.  0.
<mgrwt>
<rscale>  0 0.27771503E+03</rscale>
<asrwt>0</asrwt>
<pdfrwt beam="1">  1        2 0.73626046E-01 0.27771503E+03</pdfrwt>
<pdfrwt beam="2">  1       -2 0.53445510E-02 0.27771503E+03</pdfrwt>
<totfact> 0.11500816E+04</totfact>
</mgrwt>
</event>
<event>
 4    1  0.1351183E-004  0.4189450E+03  0.7818608E-02  0.1037410E+00
          2   -1    0    0  501    0  0.00000000000E+00  0.00000000000E+00  0.16102034742E+04  0.16102034742E+04  0.25500000000E-02 0.  1.
         -2   -1    0    0    0  501 -0.00000000000E+00 -0.00000000000E+00 -0.27250421343E+02  0.27250421462E+02  0.25500000000E-02 0. -1.
    5000001    1    1    2    0    0 -0.11103622986E+03  0.56198991514E+02  0.12242882217E+04  0.12371329842E+04  0.12700000000E+03 0.  0.
   -5000001    1    1    2    0    0  0.11103622986E+03 -0.56198991514E+02  0.35866483117E+03  0.40032091140E+03  0.12700000000E+03 0.  0.
<mgrwt>
<rscale>  0 0.41894498E+03</rscale>
<asrwt>0</asrwt>
<pdfrwt beam="1">  1        2 0.23002906E+00 0.41894498E+03</pdfrwt>
<pdfrwt beam="2">  1       -2 0.38929174E-02 0.41894498E+03</pdfrwt>
<totfact> 0.39376347E+03</totfact>
</mgrwt>
</event>
<event>
 4    1  0.1351183E-004  0.3080671E+03  0.7818608E-02  0.1081276E+00
          2   -1    0    0  501    0  0.00000000000E+00  0.00000000000E+00  0.71000012269E+03  0.71000012269E+03  0.25500000000E-02 0.  1.
         -2   -1    0    0    0  501 -0.00000000000E+00 -0.00000000000E+00 -0.33417358952E+02  0.33417359049E+02  0.25500000000E-02 0. -1.
    5000001    1    1    2    0    0 -0.24849909902E+02 -0.74629520482E+02  0.24766912301E+03  0.28923360427E+03  0.12700000000E+03 0.  0.
   -5000001    1    1    2    0    0  0.24849909902E+02  0.74629520482E+02  0.42891364073E+03  0.45418387747E+03  0.12700000000E+03 0.  0.
<mgrwt>
<rscale>  0 0.30806706E+03</rscale>
<asrwt>0</asrwt>
<pdfrwt beam="1">  1        2 0.10142859E+00 0.30806706E+03</pdfrwt>
<pdfrwt beam="2">  1       -2 0.47739084E-02 0.30806706E+03</pdfrwt>
<totfact> 0.94882175E+03</totfact>
</mgrwt>
</event>
<event>
 4    1  0.1351183E-004  0.4646838E+03  0.7818608E-02  0.1023431E+00
         -2   -1    0    0    0  501 -0.00000000000E+00  0.00000000000E+00  0.69041524790E+02  0.69041524837E+02  0.25500000000E-02 0. -1.
          2   -1    0    0  501    0  0.00000000000E+00 -0.00000000000E+00 -0.78188813010E+03  0.78188813011E+03  0.25500000000E-02 0.  1.
    5000001    1    1    2    0    0 -0.22934223026E+02  0.18510628494E+03 -0.45777718519E+03  0.51037169455E+03  0.12700000000E+03 0.  0.
   -5000001    1    1    2    0    0  0.22934223026E+02 -0.18510628494E+03 -0.25506942012E+03  0.34055796040E+03  0.12700000000E+03 0.  0.
<mgrwt>
<rscale>  0 0.46468376E+03</rscale>
<asrwt>0</asrwt>
<pdfrwt beam="1">  1        2 0.11169830E+00 0.46468376E+03</pdfrwt>
<pdfrwt beam="2">  1       -2 0.98630754E-02 0.46468376E+03</pdfrwt>
<totfact> 0.27364269E+03</totfact>
</mgrwt>
</event>
<event>
 4    1  0.1351183E-004  0.3292805E+03  0.7818608E-02  0.1071456E+00
          2   -1    0    0  501    0  0.00000000000E+00  0.00000000000E+00  0.33869834888E+03  0.33869834889E+03  0.25500000000E-02 0.  1.
         -2   -1    0    0    0  501 -0.00000000000E+00 -0.00000000000E+00 -0.80031152493E+02  0.80031152533E+02  0.25500000000E-02 0. -1.
    5000001    1    1    2    0    0  0.27107220815E+02  0.99486242844E+02  0.15295704657E+03  0.22395796934E+03  0.12700000000E+03 0.  0.
   -5000001    1    1    2    0    0 -0.27107220815E+02 -0.99486242844E+02  0.10571014982E+03  0.19477153208E+03  0.12700000000E+03 0.  0.
<mgrwt>
<rscale>  0 0.32928054E+03</rscale>
<asrwt>0</asrwt>
<pdfrwt beam="1">  1        2 0.48385478E-01 0.32928054E+03</pdfrwt>
<pdfrwt beam="2">  1       -2 0.11433022E-01 0.32928054E+03</pdfrwt>
<totfact> 0.55622004E+03</totfact>
</mgrwt>
</event>
<event>
 4    1  0.1351183E-004  0.5679265E+03  0.7818608E-02  0.9974277E-01
         -2   -1    0    0    0  501 -0.00000000000E+00  0.00000000000E+00  0.41319992923E+02  0.41319993001E+02  0.25500000000E-02 0. -1.
          2   -1    0    0  501    0  0.00000000000E+00 -0.00000000000E+00 -0.19514799865E+04  0.19514799865E+04  0.25500000000E-02 0.  1.
    5000001    1    1    2    0    0 -0.19807316686E+03  0.11605890168E+03 -0.13363009692E+04  0.13618120018E+04  0.12700000000E+03 0.  0.
   -5000001    1    1    2    0    0  0.19807316686E+03 -0.11605890168E+03 -0.57385902440E+03  0.63098797768E+03  0.12700000000E+03 0.  0.
<mgrwt>
<rscale>  0 0.56792654E+03</rscale>
<asrwt>0</asrwt>
<pdfrwt beam="1">  1        2 0.27878280E+00 0.56792654E+03</pdfrwt>
<pdfrwt beam="2">  1       -2 0.59028574E-02 0.56792654E+03</pdfrwt>
<totfact> 0.13906063E+03</totfact>
</mgrwt>
</event>
<event>
 4    1  0.1351183E-004  0.1550120E+04  0.7818608E-02  0.8851791E-01
          2   -1    0    0  501    0  0.00000000000E+00  0.00000000000E+00  0.18228087981E+04  0.18228087981E+04  0.25500000000E-02 0.  1.
         -2   -1    0    0    0  501 -0.00000000000E+00 -0.00000000000E+00 -0.32955612793E+03  0.32955612794E+03  0.25500000000E-02 0. -1.
    5000001    1    1    2    0    0  0.59147500110E+02  0.38502280099E+03  0.16601467914E+04  0.17099582899E+04  0.12700000000E+03 0.  0.
   -5000001    1    1    2    0    0 -0.59147500110E+02 -0.38502280099E+03 -0.16689412122E+03  0.44240663620E+03  0.12700000000E+03 0.  0.
<mgrwt>
<rscale>  0 0.15501197E+04</rscale>
<asrwt>0</asrwt>
<pdfrwt beam="1">  1        2 0.26040126E+00 0.15501197E+04</pdfrwt>
<pdfrwt beam="2">  1       -2 0.47079447E-01 0.15501197E+04</pdfrwt>
<totfact> 0.40830512E+01</totfact>
</mgrwt>
</event>
<event>
 4    1  0.1351183E-004  0.4436829E+03  0.7818608E-02  0.1029623E+00
          2   -1    0    0  501    0  0.00000000000E+00  0.00000000000E+00  0.89618147590E+03  0.89618147590E+03  0.25500000000E-02 0. -1.
         -2   -1    0    0    0  501 -0.00000000000E+00 -0.00000000000E+00 -0.54914790578E+02  0.54914790637E+02  0.25500000000E-02 0.  1.
    5000001    1    1    2    0    0 -0.85653586700E+02 -0.14437953723E+03  0.57072840703E+03  0.60831069551E+03  0.12700000000E+03 0.  0.
   -5000001    1    1    2    0    0  0.85653586700E+02  0.14437953723E+03  0.27053827829E+03  0.34278557103E+03  0.12700000000E+03 0.  0.
<mgrwt>
<rscale>  0 0.44368285E+03</rscale>
<asrwt>0</asrwt>
<pdfrwt beam="1">  1        2 0.12802592E+00 0.44368285E+03</pdfrwt>
<pdfrwt beam="2">  1       -2 0.78449706E-02 0.44368285E+03</pdfrwt>
<totfact> 0.33062509E+03</totfact>
</mgrwt>
</event>
<event>
 4    1  0.1351183E-004  0.9765362E+03  0.7818608E-02  0.9334661E-01
          2   -1    0    0  501    0  0.00000000000E+00  0.00000000000E+00  0.90407133128E+03  0.90407133128E+03  0.25500000000E-02 0.  1.
         -2   -1    0    0    0  501 -0.00000000000E+00 -0.00000000000E+00 -0.26370233892E+03  0.26370233894E+03  0.25500000000E-02 0. -1.
    5000001    1    1    2    0    0  0.73011898222E+02 -0.30763571483E+03  0.73839474971E+03  0.81321969770E+03  0.12700000000E+03 0.  0.
   -5000001    1    1    2    0    0 -0.73011898222E+02  0.30763571483E+03 -0.98025757356E+02  0.35455397252E+03  0.12700000000E+03 0.  0.
<mgrwt>
<rscale>  0 0.97653617E+03</rscale>
<asrwt>0</asrwt>
<pdfrwt beam="1">  1        2 0.12915305E+00 0.97653617E+03</pdfrwt>
<pdfrwt beam="2">  1       -2 0.37671762E-01 0.97653617E+03</pdfrwt>
<totfact> 0.21434198E+02</totfact>
</mgrwt>
</event>
<event>
 4    1  0.1351183E-004  0.3592888E+03  0.7818608E-02  0.1058866E+00
         -2   -1    0    0    0  501 -0.00000000000E+00  0.00000000000E+00  0.27411780193E+02  0.27411780312E+02  0.25500000000E-02 0. -1.
          2   -1    0    0  501    0  0.00000000000E+00 -0.00000000000E+00 -0.11773082223E+04  0.11773082223E+04  0.25500000000E-02 0.  1.
    5000001    1    1    2    0    0  0.85393218508E+02 -0.44619481277E+02 -0.29722559654E+03  0.33727578495E+03  0.12700000000E+03 0.  0.
   -5000001    1    1    2    0    0 -0.85393218508E+02  0.44619481277E+02 -0.85267084557E+03  0.86744421766E+03  0.12700000000E+03 0.  0.
<mgrwt>
<rscale>  0 0.35928882E+03</rscale>
<asrwt>0</asrwt>
<pdfrwt beam="1">  1        2 0.16818686E+00 0.35928882E+03</pdfrwt>
<pdfrwt beam="2">  1       -2 0.39159694E-02 0.35928882E+03</pdfrwt>
<totfact> 0.65787777E+03</totfact>
</mgrwt>
</event>
<event>
 4    1  0.1351183E-004  0.3116618E+03  0.7818608E-02  0.1079552E+00
         -2   -1    0    0    0  501 -0.00000000000E+00  0.00000000000E+00  0.19443926965E+02  0.19443927132E+02  0.25500000000E-02 0. -1.
          2   -1    0    0  501    0  0.00000000000E+00 -0.00000000000E+00 -0.12488870101E+04  0.12488870101E+04  0.25500000000E-02 0.  1.
    5000001    1    1    2    0    0 -0.90212808782E+02 -0.34163742391E+01 -0.62310668091E+03  0.64229351412E+03  0.12700000000E+03 0.  0.
   -5000001    1    1    2    0    0  0.90212808782E+02  0.34163742391E+01 -0.60633640220E+03  0.62603742309E+03  0.12700000000E+03 0.  0.
<mgrwt>
<rscale>  0 0.31166179E+03</rscale>
<asrwt>0</asrwt>
<pdfrwt beam="1">  1        2 0.17841238E+00 0.31166179E+03</pdfrwt>
<pdfrwt beam="2">  1       -2 0.27777047E-02 0.31166179E+03</pdfrwt>
<totfact> 0.10043141E+04</totfact>
</mgrwt>
</event>
<event>
 4    1  0.1351183E-004  0.3321579E+03  0.7818608E-02  0.1070186E+00
          2   -1    0    0  501    0  0.00000000000E+00  0.00000000000E+00  0.11571594961E+04  0.11571594961E+04  0.25500000000E-02 0.  1.
         -2   -1    0    0    0  501 -0.00000000000E+00 -0.00000000000E+00 -0.23836143782E+02  0.23836143919E+02  0.25500000000E-02 0. -1.
    5000001    1    1    2    0    0 -0.71927530543E+02 -0.71039086857E+02  0.69151571851E+03  0.71031198107E+03  0.12700000000E+03 0.  0.
   -5000001    1    1    2    0    0  0.71927530543E+02  0.71039086857E+02  0.44180763385E+03  0.47068365899E+03  0.12700000000E+03 0.  0.
<mgrwt>
<rscale>  0 0.33215792E+03</rscale>
<asrwt>0</asrwt>
<pdfrwt beam="1">  1        2 0.16530848E+00 0.33215792E+03</pdfrwt>
<pdfrwt beam="2">  1       -2 0.34051637E-02 0.33215792E+03</pdfrwt>
<totfact> 0.83222929E+03</totfact>
</mgrwt>
</event>
<event>
 4    1  0.1351183E-004  0.2754573E+03  0.7818608E-02  0.1098196E+00
         -2   -1    0    0    0  501 -0.00000000000E+00  0.00000000000E+00  0.10508150865E+03  0.10508150868E+03  0.25500000000E-02 0. -1.
          2   -1    0    0  501    0  0.00000000000E+00 -0.00000000000E+00 -0.18051867943E+03  0.18051867945E+03  0.25500000000E-02 0.  1.
    5000001    1    1    2    0    0  0.40601909613E+02  0.23724891482E+02 -0.11719566516E+02  0.13593282819E+03  0.12700000000E+03 0.  0.
   -5000001    1    1    2    0    0 -0.40601909613E+02 -0.23724891482E+02 -0.63717604261E+02  0.14966735994E+03  0.12700000000E+03 0.  0.
<mgrwt>
<rscale>  0 0.27545726E+03</rscale>
<asrwt>0</asrwt>
<pdfrwt beam="1">  1        2 0.25788383E-01 0.27545726E+03</pdfrwt>
<pdfrwt beam="2">  1       -2 0.15011644E-01 0.27545726E+03</pdfrwt>
<totfact> 0.70426649E+03</totfact>
</mgrwt>
</event>
<event>
 4    1  0.1351183E-004  0.3538678E+03  0.7818608E-02  0.1061039E+00
          2   -1    0    0  501    0  0.00000000000E+00  0.00000000000E+00  0.17516498213E+03  0.17516498215E+03  0.25500000000E-02 0.  1.
         -2   -1    0    0    0  501 -0.00000000000E+00 -0.00000000000E+00 -0.17872069695E+03  0.17872069696E+03  0.25500000000E-02 0. -1.
    5000001    1    1    2    0    0 -0.90579022635E+02  0.62385234683E+02 -0.57279585590E+02  0.17750050077E+03  0.12700000000E+03 0.  0.
   -5000001    1    1    2    0    0  0.90579022635E+02 -0.62385234683E+02  0.53723870773E+02  0.17638517834E+03  0.12700000000E+03 0.  0.
<mgrwt>
<rscale>  0 0.35386782E+03</rscale>
<asrwt>0</asrwt>
<pdfrwt beam="1">  1        2 0.25023569E-01 0.35386782E+03</pdfrwt>
<pdfrwt beam="2">  1       -2 0.25531528E-01 0.35386782E+03</pdfrwt>
<totfact> 0.29558273E+03</totfact>
</mgrwt>
</event>
<event>
 4    1  0.1351183E-004  0.7038579E+03  0.7818608E-02  0.9710657E-01
          2   -1    0    0  501    0  0.00000000000E+00  0.00000000000E+00  0.70506702310E+03  0.70506702311E+03  0.25500000000E-02 0.  1.
         -2   -1    0    0    0  501 -0.00000000000E+00 -0.00000000000E+00 -0.17566271035E+03  0.17566271037E+03  0.25500000000E-02 0. -1.
    5000001    1    1    2    0    0  0.16867784106E+02 -0.32421334459E+03  0.32505230345E+03  0.47664118048E+03  0.12700000000E+03 0.  0.
   -5000001    1    1    2    0    0 -0.16867784106E+02  0.32421334459E+03  0.20435200930E+03  0.40408855299E+03  0.12700000000E+03 0.  0.
<mgrwt>
<rscale>  0 0.70385790E+03</rscale>
<asrwt>0</asrwt>
<pdfrwt beam="1">  1        2 0.10072386E+00 0.70385790E+03</pdfrwt>
<pdfrwt beam="2">  1       -2 0.25094672E-01 0.70385790E+03</pdfrwt>
<totfact> 0.63727562E+02</totfact>
</mgrwt>
</event>
<event>
 4    1  0.1351183E-004  0.3085529E+03  0.7818608E-02  0.1081042E+00
          2   -1    0    0  501    0  0.00000000000E+00  0.00000000000E+00  0.33143352650E+03  0.33143352651E+03  0.25500000000E-02 0.  1.
         -2   -1    0    0    0  501 -0.00000000000E+00 -0.00000000000E+00 -0.71812970200E+02  0.71812970245E+02  0.25500000000E-02 0. -1.
    5000001    1    1    2    0    0 -0.84680836480E+02 -0.20782492796E+02  0.14070307181E+03  0.20863631153E+03  0.12700000000E+03 0.  0.
   -5000001    1    1    2    0    0  0.84680836480E+02  0.20782492796E+02  0.11891748449E+03  0.19461018522E+03  0.12700000000E+03 0.  0.
<mgrwt>
<rscale>  0 0.30855292E+03</rscale>
<asrwt>0</asrwt>
<pdfrwt beam="1">  1        2 0.47347647E-01 0.30855292E+03</pdfrwt>
<pdfrwt beam="2">  1       -2 0.10258996E-01 0.30855292E+03</pdfrwt>
<totfact> 0.67623646E+03</totfact>
</mgrwt>
</event>
<event>
 4    1  0.1351183E-004  0.6154184E+03  0.7818608E-02  0.9873924E-01
          2   -1    0    0  501    0  0.00000000000E+00  0.00000000000E+00  0.71518307132E+03  0.71518307133E+03  0.25500000000E-02 0.  1.
         -2   -1    0    0    0  501 -0.00000000000E+00 -0.00000000000E+00 -0.13239260292E+03  0.13239260294E+03  0.25500000000E-02 0. -1.
    5000001    1    1    2    0    0 -0.21210965212E+03  0.93775212562E+02  0.50815841334E+03  0.57283354307E+03  0.12700000000E+03 0.  0.
   -5000001    1    1    2    0    0  0.21210965212E+03 -0.93775212562E+02  0.74632055061E+02  0.27474213120E+03  0.12700000000E+03 0.  0.
<mgrwt>
<rscale>  0 0.61541839E+03</rscale>
<asrwt>0</asrwt>
<pdfrwt beam="1">  1        2 0.10216901E+00 0.61541839E+03</pdfrwt>
<pdfrwt beam="2">  1       -2 0.18913229E-01 0.61541839E+03</pdfrwt>
<totfact> 0.10335496E+03</totfact>
</mgrwt>
</event>
<event>
 4    1  0.1351183E-004  0.3432694E+03  0.7818608E-02  0.1065412E+00
          2   -1    0    0  501    0  0.00000000000E+00  0.00000000000E+00  0.35278932137E+03  0.35278932138E+03  0.25500000000E-02 0.  1.
         -2   -1    0    0    0  501 -0.00000000000E+00 -0.00000000000E+00 -0.83501587547E+02  0.83501587586E+02  0.25500000000E-02 0. -1.
    5000001    1    1    2    0    0 -0.53529280977E+02 -0.95985033904E+02  0.89690480977E+02  0.19039929893E+03  0.12700000000E+03 0.  0.
   -5000001    1    1    2    0    0  0.53529280977E+02  0.95985033904E+02  0.17959725285E+03  0.24589161004E+03  0.12700000000E+03 0.  0.
<mgrwt>
<rscale>  0 0.34326939E+03</rscale>
<asrwt>0</asrwt>
<pdfrwt beam="1">  1        2 0.50398474E-01 0.34326939E+03</pdfrwt>
<pdfrwt beam="2">  1       -2 0.11928798E-01 0.34326939E+03</pdfrwt>
<totfact> 0.49742450E+03</totfact>
</mgrwt>
</event>
<event>
 4    1  0.1351183E-004  0.2973200E+03  0.7818608E-02  0.1086588E+00
          2   -1    0    0  501    0  0.00000000000E+00  0.00000000000E+00  0.18443133451E+04  0.18443133451E+04  0.25500000000E-02 0.  1.
         -2   -1    0    0    0  501 -0.00000000000E+00 -0.00000000000E+00 -0.11982665099E+02  0.11982665370E+02  0.25500000000E-02 0. -1.
    5000001    1    1    2    0    0  0.39117675596E+02  0.53640416205E+02  0.11630219124E+04  0.11718175863E+04  0.12700000000E+03 0.  0.
   -5000001    1    1    2    0    0 -0.39117675596E+02 -0.53640416205E+02  0.66930876757E+03  0.68447842416E+03  0.12700000000E+03 0.  0.
<mgrwt>
<rscale>  0 0.29731996E+03</rscale>
<asrwt>0</asrwt>
<pdfrwt beam="1">  1        2 0.26347333E+00 0.29731996E+03</pdfrwt>
<pdfrwt beam="2">  1       -2 0.17118094E-02 0.29731996E+03</pdfrwt>
<totfact> 0.10245751E+04</totfact>
</mgrwt>
</event>
<event>
 4    1  0.1351183E-004  0.2919381E+03  0.7818608E-02  0.1089342E+00
          2   -1    0    0  501    0  0.00000000000E+00  0.00000000000E+00  0.39322981038E+03  0.39322981039E+03  0.25500000000E-02 0.  1.
         -2   -1    0    0    0  501 -0.00000000000E+00 -0.00000000000E+00 -0.54184508419E+02  0.54184508479E+02  0.25500000000E-02 0. -1.
    5000001    1    1    2    0    0  0.68526614848E+02  0.15877000451E+02  0.14628075292E+03  0.20609472278E+03  0.12700000000E+03 0.  0.
   -5000001    1    1    2    0    0 -0.68526614848E+02 -0.15877000451E+02  0.19276454905E+03  0.24131959609E+03  0.12700000000E+03 0.  0.
<mgrwt>
<rscale>  0 0.29193810E+03</rscale>
<asrwt>0</asrwt>
<pdfrwt beam="1">  1        2 0.56175689E-01 0.29193810E+03</pdfrwt>
<pdfrwt beam="2">  1       -2 0.77406438E-02 0.29193810E+03</pdfrwt>
<totfact> 0.87511907E+03</totfact>
</mgrwt>
</event>
<event>
 4    1  0.1351183E-004  0.3480349E+03  0.7818608E-02  0.1063425E+00
         -2   -1    0    0    0  501 -0.00000000000E+00  0.00000000000E+00  0.17480789495E+02  0.17480789681E+02  0.25500000000E-02 0. -1.
          2   -1    0    0  501    0  0.00000000000E+00 -0.00000000000E+00 -0.17323054377E+04  0.17323054377E+04  0.25500000000E-02 0.  1.
    5000001    1    1    2    0    0  0.69828002528E+02  0.81315111140E+01 -0.13399325529E+04  0.13477723538E+04  0.12700000000E+03 0.  0.
   -5000001    1    1    2    0    0 -0.69828002528E+02 -0.81315111140E+01 -0.37489209527E+03  0.40201387352E+03  0.12700000000E+03 0.  0.
<mgrwt>
<rscale>  0 0.34803487E+03</rscale>
<asrwt>0</asrwt>
<pdfrwt beam="1">  1        2 0.24747210E+00 0.34803487E+03</pdfrwt>
<pdfrwt beam="2">  1       -2 0.24972567E-02 0.34803487E+03</pdfrwt>
<totfact> 0.66672711E+03</totfact>
</mgrwt>
</event>
<event>
 4    1  0.1351183E-004  0.4564115E+03  0.7818608E-02  0.1025827E+00
         -2   -1    0    0    0  501 -0.00000000000E+00  0.00000000000E+00  0.12261347995E+03  0.12261347997E+03  0.25500000000E-02 0. -1.
          2   -1    0    0  501    0  0.00000000000E+00 -0.00000000000E+00 -0.42473198754E+03  0.42473198755E+03  0.25500000000E-02 0.  1.
    5000001    1    1    2    0    0  0.16143081928E+03 -0.87840044676E+02 -0.95155211529E+02  0.24281535607E+03  0.12700000000E+03 0.  0.
   -5000001    1    1    2    0    0 -0.16143081928E+03  0.87840044676E+02 -0.20696329606E+03  0.30453011145E+03  0.12700000000E+03 0.  0.
<mgrwt>
<rscale>  0 0.45641151E+03</rscale>
<asrwt>0</asrwt>
<pdfrwt beam="1">  1        2 0.60675997E-01 0.45641151E+03</pdfrwt>
<pdfrwt beam="2">  1       -2 0.17516212E-01 0.45641151E+03</pdfrwt>
<totfact> 0.21552703E+03</totfact>
</mgrwt>
</event>
<event>
 4    1  0.1351183E-004  0.3843231E+03  0.7818608E-02  0.1049347E+00
         -2   -1    0    0    0  501 -0.00000000000E+00  0.00000000000E+00  0.18934628515E+02  0.18934628687E+02  0.25500000000E-02 0. -1.
          2   -1    0    0  501    0  0.00000000000E+00 -0.00000000000E+00 -0.19501867631E+04  0.19501867631E+04  0.25500000000E-02 0.  1.
    5000001    1    1    2    0    0 -0.83763234498E+02 -0.34715044691E+02 -0.15401937410E+04  0.15480785425E+04  0.12700000000E+03 0.  0.
   -5000001    1    1    2    0    0  0.83763234498E+02  0.34715044691E+02 -0.39105839353E+03  0.42104284928E+03  0.12700000000E+03 0.  0.
<mgrwt>
<rscale>  0 0.38432310E+03</rscale>
<asrwt>0</asrwt>
<pdfrwt beam="1">  1        2 0.27859798E+00 0.38432310E+03</pdfrwt>
<pdfrwt beam="2">  1       -2 0.27049482E-02 0.38432310E+03</pdfrwt>
<totfact> 0.46171549E+03</totfact>
</mgrwt>
</event>
<event>
 4    1  0.1351183E-004  0.3962187E+03  0.7818608E-02  0.1045097E+00
          2   -1    0    0  501    0  0.00000000000E+00  0.00000000000E+00  0.26446795411E+04  0.26446795411E+04  0.25500000000E-02 0.  1.
         -2   -1    0    0    0  501 -0.00000000000E+00 -0.00000000000E+00 -0.14840103396E+02  0.14840103615E+02  0.25500000000E-02 0. -1.
    5000001    1    1    2    0    0  0.93578974610E+02  0.25951660578E+02  0.52962058548E+03  0.55322461780E+03  0.12700000000E+03 0.  0.
   -5000001    1    1    2    0    0 -0.93578974610E+02 -0.25951660578E+02  0.21002188523E+04  0.21062950270E+04  0.12700000000E+03 0.  0.
<mgrwt>
<rscale>  0 0.39621872E+03</rscale>
<asrwt>0</asrwt>
<pdfrwt beam="1">  1        2 0.37781155E+00 0.39621872E+03</pdfrwt>
<pdfrwt beam="2">  1       -2 0.21200137E-02 0.39621872E+03</pdfrwt>
<totfact> 0.29851449E+03</totfact>
</mgrwt>
</event>
<event>
 4    1  0.1351183E-004  0.3808619E+03  0.7818608E-02  0.1050616E+00
          2   -1    0    0  501    0  0.00000000000E+00  0.00000000000E+00  0.81302758887E+03  0.81302758887E+03  0.25500000000E-02 0.  1.
         -2   -1    0    0    0  501 -0.00000000000E+00 -0.00000000000E+00 -0.44603584705E+02  0.44603584778E+02  0.25500000000E-02 0. -1.
    5000001    1    1    2    0    0  0.11262119477E+03  0.58664934454E+02  0.52680440721E+03  0.55657613271E+03  0.12700000000E+03 0.  0.
   -5000001    1    1    2    0    0 -0.11262119477E+03 -0.58664934454E+02  0.24161959696E+03  0.30105504095E+03  0.12700000000E+03 0.  0.
<mgrwt>
<rscale>  0 0.38086189E+03</rscale>
<asrwt>0</asrwt>
<pdfrwt beam="1">  1        2 0.11614679E+00 0.38086189E+03</pdfrwt>
<pdfrwt beam="2">  1       -2 0.63719410E-02 0.38086189E+03</pdfrwt>
<totfact> 0.51827004E+03</totfact>
</mgrwt>
</event>
<event>
 4    1  0.1351183E-004  0.3023705E+03  0.7818608E-02  0.1084062E+00
         -2   -1    0    0    0  501 -0.00000000000E+00  0.00000000000E+00  0.14336774066E+02  0.14336774293E+02  0.25500000000E-02 0. -1.
          2   -1    0    0  501    0  0.00000000000E+00 -0.00000000000E+00 -0.15942907762E+04  0.15942907762E+04  0.25500000000E-02 0.  1.
    5000001    1    1    2    0    0  0.77006630818E+02  0.17896411994E+02 -0.67370198603E+03  0.69011134517E+03  0.12700000000E+03 0.  0.
   -5000001    1    1    2    0    0 -0.77006630818E+02 -0.17896411994E+02 -0.90625201612E+03  0.91851620534E+03  0.12700000000E+03 0.  0.
<mgrwt>
<rscale>  0 0.30237055E+03</rscale>
<asrwt>0</asrwt>
<pdfrwt beam="1">  1        2 0.22775571E+00 0.30237055E+03</pdfrwt>
<pdfrwt beam="2">  1       -2 0.20481116E-02 0.30237055E+03</pdfrwt>
<totfact> 0.10461500E+04</totfact>
</mgrwt>
</event>
<event>
 4    1  0.1351183E-004  0.4853279E+03  0.7818608E-02  0.1017681E+00
          2   -1    0    0  501    0  0.00000000000E+00  0.00000000000E+00  0.10204856586E+03  0.10204856589E+03  0.25500000000E-02 0.  1.
         -2   -1    0    0    0  501 -0.00000000000E+00 -0.00000000000E+00 -0.57703696912E+03  0.57703696913E+03  0.25500000000E-02 0. -1.
    5000001    1    1    2    0    0  0.11143151300E+02  0.19977858263E+03 -0.16450394081E+03  0.28848951184E+03  0.12700000000E+03 0.  0.
   -5000001    1    1    2    0    0 -0.11143151300E+02 -0.19977858263E+03 -0.31048446246E+03  0.39059602318E+03  0.12700000000E+03 0.  0.
<mgrwt>
<rscale>  0 0.48532791E+03</rscale>
<asrwt>0</asrwt>
<pdfrwt beam="1">  1        2 0.14578367E-01 0.48532791E+03</pdfrwt>
<pdfrwt beam="2">  1       -2 0.82433850E-01 0.48532791E+03</pdfrwt>
<totfact> 0.54069813E+02</totfact>
</mgrwt>
</event>
<event>
 4    1  0.1351183E-004  0.3123471E+03  0.7818608E-02  0.1079226E+00
         -2   -1    0    0    0  501 -0.00000000000E+00  0.00000000000E+00  0.27558590369E+02  0.27558590487E+02  0.25500000000E-02 0. -1.
          2   -1    0    0  501    0  0.00000000000E+00 -0.00000000000E+00 -0.88502989305E+03  0.88502989305E+03  0.25500000000E-02 0.  1.
    5000001    1    1    2    0    0 -0.90828452558E+02  0.17922740126E+01 -0.42039146181E+03  0.44845401236E+03  0.12700000000E+03 0.  0.
   -5000001    1    1    2    0    0  0.90828452558E+02 -0.17922740126E+01 -0.43707984087E+03  0.46413447118E+03  0.12700000000E+03 0.  0.
<mgrwt>
<rscale>  0 0.31234709E+03</rscale>
<asrwt>0</asrwt>
<pdfrwt beam="1">  1        2 0.12643282E+00 0.31234709E+03</pdfrwt>
<pdfrwt beam="2">  1       -2 0.39369420E-02 0.31234709E+03</pdfrwt>
<totfact> 0.96670811E+03</totfact>
</mgrwt>
</event>
<event>
 4    1  0.1351183E-004  0.4283371E+03  0.7818608E-02  0.1034387E+00
         -2   -1    0    0    0  501 -0.00000000000E+00  0.00000000000E+00  0.17197959957E+02  0.17197960146E+02  0.25500000000E-02 0. -1.
          2   -1    0    0  501    0  0.00000000000E+00 -0.00000000000E+00 -0.26670699706E+04  0.26670699706E+04  0.25500000000E-02 0.  1.
    5000001    1    1    2    0    0 -0.55902746805E+02 -0.16126358168E+03 -0.14794716772E+04  0.14946894338E+04  0.12700000000E+03 0.  0.
   -5000001    1    1    2    0    0  0.55902746805E+02  0.16126358168E+03 -0.11704003334E+04  0.11895784969E+04  0.12700000000E+03 0.  0.
<mgrwt>
<rscale>  0 0.42833708E+03</rscale>
<asrwt>0</asrwt>
<pdfrwt beam="1">  1        2 0.38100973E+00 0.42833708E+03</pdfrwt>
<pdfrwt beam="2">  1       -2 0.24568531E-02 0.42833708E+03</pdfrwt>
<totfact> 0.23277432E+03</totfact>
</mgrwt>
</event>
<event>
 4    1  0.1351183E-004  0.5941835E+03  0.7818608E-02  0.9917547E-01
         -2   -1    0    0    0  501 -0.00000000000E+00  0.00000000000E+00  0.16686512769E+03  0.16686512771E+03  0.25500000000E-02 0. -1.
          2   -1    0    0  501    0  0.00000000000E+00 -0.00000000000E+00 -0.52895126895E+03  0.52895126896E+03  0.25500000000E-02 0.  1.
    5000001    1    1    2    0    0  0.25904688343E+03  0.31911296847E+02 -0.10687873961E+03  0.30931486169E+03  0.12700000000E+03 0.  0.
   -5000001    1    1    2    0    0 -0.25904688343E+03 -0.31911296847E+02 -0.25520740165E+03  0.38650153497E+03  0.12700000000E+03 0.  0.
<mgrwt>
<rscale>  0 0.59418354E+03</rscale>
<asrwt>0</asrwt>
<pdfrwt beam="1">  1        2 0.75564466E-01 0.59418354E+03</pdfrwt>
<pdfrwt beam="2">  1       -2 0.23837876E-01 0.59418354E+03</pdfrwt>
<totfact> 0.98477320E+02</totfact>
</mgrwt>
</event>
<event>
 4    1  0.1351183E-004  0.3168733E+03  0.7818608E-02  0.1077097E+00
          2   -1    0    0  501    0  0.00000000000E+00  0.00000000000E+00  0.19974982665E+03  0.19974982666E+03  0.25500000000E-02 0.  1.
         -2   -1    0    0    0  501 -0.00000000000E+00 -0.00000000000E+00 -0.12566804997E+03  0.12566804999E+03  0.25500000000E-02 0. -1.
    5000001    1    1    2    0    0  0.20321895458E+02  0.85352557424E+02  0.73712792494E+02  0.17105734206E+03  0.12700000000E+03 0.  0.
   -5000001    1    1    2    0    0 -0.20321895458E+02 -0.85352557424E+02  0.36898418573E+00  0.15436053460E+03  0.12700000000E+03 0.  0.
<mgrwt>
<rscale>  0 0.31687329E+03</rscale>
<asrwt>0</asrwt>
<pdfrwt beam="1">  1        2 0.28535689E-01 0.31687329E+03</pdfrwt>
<pdfrwt beam="2">  1       -2 0.17952579E-01 0.31687329E+03</pdfrwt>
<totfact> 0.46891546E+03</totfact>
</mgrwt>
</event>
<event>
 4    1  0.1351183E-004  0.3537630E+03  0.7818608E-02  0.1061081E+00
         -2   -1    0    0    0  501 -0.00000000000E+00  0.00000000000E+00  0.34322864095E+03  0.34322864096E+03  0.25500000000E-02 0. -1.
          2   -1    0    0  501    0  0.00000000000E+00 -0.00000000000E+00 -0.91155144361E+02  0.91155144396E+02  0.25500000000E-02 0.  1.
    5000001    1    1    2    0    0 -0.11501126651E+03 -0.28167445547E+02  0.84631734662E+02  0.19316450741E+03  0.12700000000E+03 0.  0.
   -5000001    1    1    2    0    0  0.11501126651E+03  0.28167445547E+02  0.16744176193E+03  0.24121927794E+03  0.12700000000E+03 0.  0.
<mgrwt>
<rscale>  0 0.35376295E+03</rscale>
<asrwt>0</asrwt>
<pdfrwt beam="1">  1        2 0.13022164E-01 0.35376295E+03</pdfrwt>
<pdfrwt beam="2">  1       -2 0.49032663E-01 0.35376295E+03</pdfrwt>
<totfact> 0.18574034E+03</totfact>
</mgrwt>
</event>
<event>
 4    1  0.1351183E-004  0.4637983E+03  0.7818608E-02  0.1023685E+00
         -2   -1    0    0    0  501 -0.00000000000E+00  0.00000000000E+00  0.54646160036E+02  0.54646160096E+02  0.25500000000E-02 0. -1.
          2   -1    0    0  501    0  0.00000000000E+00 -0.00000000000E+00 -0.98409857733E+03  0.98409857733E+03  0.25500000000E-02 0.  1.
    5000001    1    1    2    0    0 -0.13018448374E+02 -0.19359121760E+03 -0.46230485038E+03  0.51720577550E+03  0.12700000000E+03 0.  0.
   -5000001    1    1    2    0    0  0.13018448374E+02  0.19359121760E+03 -0.46714756691E+03  0.52153896192E+03  0.12700000000E+03 0.  0.
<mgrwt>
<rscale>  0 0.46379827E+03</rscale>
<asrwt>0</asrwt>
<pdfrwt beam="1">  1        2 0.14058550E+00 0.46379827E+03</pdfrwt>
<pdfrwt beam="2">  1       -2 0.78065949E-02 0.46379827E+03</pdfrwt>
<totfact> 0.29376720E+03</totfact>
</mgrwt>
</event>
<event>
 4    1  0.1351183E-004  0.2871413E+03  0.7818608E-02  0.1091851E+00
         -2   -1    0    0    0  501 -0.00000000000E+00  0.00000000000E+00  0.15202486653E+02  0.15202486867E+02  0.25500000000E-02 0. -1.
          2   -1    0    0  501    0  0.00000000000E+00 -0.00000000000E+00 -0.13558654753E+04  0.13558654753E+04  0.25500000000E-02 0.  1.
    5000001    1    1    2    0    0  0.22030888906E+02 -0.54001278588E+02 -0.51326528009E+03  0.53195088674E+03  0.12700000000E+03 0.  0.
   -5000001    1    1    2    0    0 -0.22030888906E+02  0.54001278588E+02 -0.82739770855E+03  0.83911707543E+03  0.12700000000E+03 0.  0.
<mgrwt>
<rscale>  0 0.28714127E+03</rscale>
<asrwt>0</asrwt>
<pdfrwt beam="1">  1        2 0.19369499E+00 0.28714127E+03</pdfrwt>
<pdfrwt beam="2">  1       -2 0.21717847E-02 0.28714127E+03</pdfrwt>
<totfact> 0.12672719E+04</totfact>
</mgrwt>
</event>
<event>
 4    1  0.1351183E-004  0.2972677E+03  0.7818608E-02  0.1086614E+00
          2   -1    0    0  501    0  0.00000000000E+00  0.00000000000E+00  0.11309982432E+04  0.11309982432E+04  0.25500000000E-02 0.  1.
         -2   -1    0    0    0  501 -0.00000000000E+00 -0.00000000000E+00 -0.19533203151E+02  0.19533203317E+02  0.25500000000E-02 0. -1.
    5000001    1    1    2    0    0 -0.41851139426E+02 -0.62582073495E+02  0.62220633150E+03  0.63948241004E+03  0.12700000000E+03 0.  0.
   -5000001    1    1    2    0    0  0.41851139426E+02  0.62582073495E+02  0.48925870857E+03  0.51104903649E+03  0.12700000000E+03 0.  0.
<mgrwt>
<rscale>  0 0.29726768E+03</rscale>
<asrwt>0</asrwt>
<pdfrwt beam="1">  1        2 0.16157118E+00 0.29726768E+03</pdfrwt>
<pdfrwt beam="2">  1       -2 0.27904575E-02 0.29726768E+03</pdfrwt>
<totfact> 0.11557366E+04</totfact>
</mgrwt>
</event>
<event>
 4    1  0.1351183E-004  0.3082915E+03  0.7818608E-02  0.1081168E+00
         -2   -1    0    0    0  501 -0.00000000000E+00  0.00000000000E+00  0.70438302910E+03  0.70438302910E+03  0.25500000000E-02 0. -1.
          2   -1    0    0  501    0  0.00000000000E+00 -0.00000000000E+00 -0.33732942997E+02  0.33732943094E+02  0.25500000000E-02 0.  1.
    5000001    1    1    2    0    0  0.67901569451E+02  0.50163327001E+02  0.28152548875E+03  0.32017586312E+03  0.12700000000E+03 0.  0.
   -5000001    1    1    2    0    0 -0.67901569451E+02 -0.50163327001E+02  0.38912459735E+03  0.41794010908E+03  0.12700000000E+03 0.  0.
<mgrwt>
<rscale>  0 0.30829150E+03</rscale>
<asrwt>0</asrwt>
<pdfrwt beam="1">  1        2 0.48189920E-02 0.30829150E+03</pdfrwt>
<pdfrwt beam="2">  1       -2 0.10062614E+00 0.30829150E+03</pdfrwt>
<totfact> 0.14004691E+03</totfact>
</mgrwt>
</event>
<event>
 4    1  0.1351183E-004  0.4265516E+03  0.7818608E-02  0.1034955E+00
          2   -1    0    0  501    0  0.00000000000E+00  0.00000000000E+00  0.26969481111E+03  0.26969481112E+03  0.25500000000E-02 0.  1.
         -2   -1    0    0    0  501 -0.00000000000E+00 -0.00000000000E+00 -0.16865941080E+03  0.16865941082E+03  0.25500000000E-02 0. -1.
    5000001    1    1    2    0    0 -0.15618937910E+03 -0.16603434999E+02  0.12087197885E+03  0.23539292995E+03  0.12700000000E+03 0.  0.
   -5000001    1    1    2    0    0  0.15618937910E+03  0.16603434999E+02 -0.19836578547E+02  0.20296129199E+03  0.12700000000E+03 0.  0.
<mgrwt>
<rscale>  0 0.42655161E+03</rscale>
<asrwt>0</asrwt>
<pdfrwt beam="1">  1        2 0.38527830E-01 0.42655161E+03</pdfrwt>
<pdfrwt beam="2">  1       -2 0.24094202E-01 0.42655161E+03</pdfrwt>
<totfact> 0.20369416E+03</totfact>
</mgrwt>
</event>
<event>
 4    1  0.1351183E-004  0.4483650E+03  0.7818608E-02  0.1028211E+00
          2   -1    0    0  501    0  0.00000000000E+00  0.00000000000E+00  0.13216556961E+04  0.13216556961E+04  0.25500000000E-02 0.  1.
         -2   -1    0    0    0  501 -0.00000000000E+00 -0.00000000000E+00 -0.38026383957E+02  0.38026384043E+02  0.25500000000E-02 0. -1.
    5000001    1    1    2    0    0 -0.15148554091E+03  0.91269232792E+02  0.47989763524E+03  0.52698072287E+03  0.12700000000E+03 0.  0.
   -5000001    1    1    2    0    0  0.15148554091E+03 -0.91269232792E+02  0.80373167686E+03  0.83270135724E+03  0.12700000000E+03 0.  0.
<mgrwt>
<rscale>  0 0.44836497E+03</rscale>
<asrwt>0</asrwt>
<pdfrwt beam="1">  1        2 0.18880792E+00 0.44836497E+03</pdfrwt>
<pdfrwt beam="2">  1       -2 0.54323418E-02 0.44836497E+03</pdfrwt>
<totfact> 0.33341593E+03</totfact>
</mgrwt>
</event>
<event>
 4    1  0.1351183E-004  0.3665081E+03  0.7818608E-02  0.1056036E+00
         -2   -1    0    0    0  501 -0.00000000000E+00  0.00000000000E+00  0.15864457975E+03  0.15864457977E+03  0.25500000000E-02 0. -1.
          2   -1    0    0  501    0  0.00000000000E+00 -0.00000000000E+00 -0.21168107716E+03  0.21168107718E+03  0.25500000000E-02 0.  1.
    5000001    1    1    2    0    0  0.32463618650E+02  0.10674464440E+03 -0.97999370233E+02  0.19540005683E+03  0.12700000000E+03 0.  0.
   -5000001    1    1    2    0    0 -0.32463618650E+02 -0.10674464440E+03  0.44962872822E+02  0.17492560012E+03  0.12700000000E+03 0.  0.
<mgrwt>
<rscale>  0 0.36650815E+03</rscale>
<asrwt>0</asrwt>
<pdfrwt beam="1">  1        2 0.30240154E-01 0.36650815E+03</pdfrwt>
<pdfrwt beam="2">  1       -2 0.22663512E-01 0.36650815E+03</pdfrwt>
<totfact> 0.29551106E+03</totfact>
</mgrwt>
</event>
<event>
 4    1  0.1351183E-004  0.3495519E+03  0.7818608E-02  0.1062799E+00
          2   -1    0    0  501    0  0.00000000000E+00  0.00000000000E+00  0.29706265559E+04  0.29706265559E+04  0.25500000000E-02 0.  1.
         -2   -1    0    0    0  501 -0.00000000000E+00 -0.00000000000E+00 -0.10282889822E+02  0.10282890138E+02  0.25500000000E-02 0. -1.
    5000001    1    1    2    0    0  0.50413854491E+02  0.10806224076E+03  0.13599868422E+04  0.13710989080E+04  0.12700000000E+03 0.  0.
   -5000001    1    1    2    0    0 -0.50413854491E+02 -0.10806224076E+03  0.16003568239E+04  0.16098105380E+04  0.12700000000E+03 0.  0.
<mgrwt>
<rscale>  0 0.34955186E+03</rscale>
<asrwt>0</asrwt>
<pdfrwt beam="1">  1        2 0.42437491E+00 0.34955186E+03</pdfrwt>
<pdfrwt beam="2">  1       -2 0.14689854E-02 0.34955186E+03</pdfrwt>
<totfact> 0.34828482E+03</totfact>
</mgrwt>
</event>
<event>
 4    1  0.1351183E-004  0.4486056E+03  0.7818608E-02  0.1028139E+00
         -2   -1    0    0    0  501 -0.00000000000E+00  0.00000000000E+00  0.21817870685E+02  0.21817870834E+02  0.25500000000E-02 0. -1.
          2   -1    0    0  501    0  0.00000000000E+00 -0.00000000000E+00 -0.23059879218E+04  0.23059879218E+04  0.25500000000E-02 0.  1.
    5000001    1    1    2    0    0 -0.11877028771E+03  0.14145557409E+03 -0.10997111052E+04  0.11223232937E+04  0.12700000000E+03 0.  0.
   -5000001    1    1    2    0    0  0.11877028771E+03 -0.14145557409E+03 -0.11844589460E+04  0.12054824990E+04  0.12700000000E+03 0.  0.
<mgrwt>
<rscale>  0 0.44860560E+03</rscale>
<asrwt>0</asrwt>
<pdfrwt beam="1">  1        2 0.32942669E+00 0.44860560E+03</pdfrwt>
<pdfrwt beam="2">  1       -2 0.31168401E-02 0.44860560E+03</pdfrwt>
<totfact> 0.24786614E+03</totfact>
</mgrwt>
</event>
<event>
 4    1  0.1351183E-004  0.3446472E+03  0.7818608E-02  0.1064834E+00
          2   -1    0    0  501    0  0.00000000000E+00  0.00000000000E+00  0.14188220864E+04  0.14188220864E+04  0.25500000000E-02 0.  1.
         -2   -1    0    0    0  501 -0.00000000000E+00 -0.00000000000E+00 -0.20929628240E+02  0.20929628396E+02  0.25500000000E-02 0. -1.
    5000001    1    1    2    0    0 -0.93312800440E+02 -0.31728249954E+02  0.95823389411E+03  0.97162500811E+03  0.12700000000E+03 0.  0.
   -5000001    1    1    2    0    0  0.93312800440E+02  0.31728249954E+02  0.43965856409E+03  0.46812670672E+03  0.12700000000E+03 0.  0.
<mgrwt>
<rscale>  0 0.34464718E+03</rscale>
<asrwt>0</asrwt>
<pdfrwt beam="1">  1        2 0.20268893E+00 0.34464718E+03</pdfrwt>
<pdfrwt beam="2">  1       -2 0.29899459E-02 0.34464718E+03</pdfrwt>
<totfact> 0.73364124E+03</totfact>
</mgrwt>
</event>
<event>
 4    1  0.1351183E-004  0.6689815E+03  0.7818608E-02  0.9771799E-01
          2   -1    0    0  501    0  0.00000000000E+00  0.00000000000E+00  0.88994379633E+03  0.88994379633E+03  0.25500000000E-02 0.  1.
         -2   -1    0    0    0  501 -0.00000000000E+00 -0.00000000000E+00 -0.12572037908E+03  0.12572037911E+03  0.25500000000E-02 0. -1.
    5000001    1    1    2    0    0  0.12155199866E+03  0.27657891405E+03  0.28044407250E+03  0.43133358538E+03  0.12700000000E+03 0.  0.
   -5000001    1    1    2    0    0 -0.12155199866E+03 -0.27657891405E+03  0.48377934474E+03  0.58433059005E+03  0.12700000000E+03 0.  0.
<mgrwt>
<rscale>  0 0.66898153E+03</rscale>
<asrwt>0</asrwt>
<pdfrwt beam="1">  1        2 0.12713483E+00 0.66898153E+03</pdfrwt>
<pdfrwt beam="2">  1       -2 0.17960054E-01 0.66898153E+03</pdfrwt>
<totfact> 0.85297623E+02</totfact>
</mgrwt>
</event>
<event>
 4    1  0.1351183E-004  0.4022384E+03  0.7818608E-02  0.1043007E+00
          2   -1    0    0  501    0  0.00000000000E+00  0.00000000000E+00  0.24319619481E+04  0.24319619481E+04  0.25500000000E-02 0.  1.
         -2   -1    0    0    0  501 -0.00000000000E+00 -0.00000000000E+00 -0.16632224135E+02  0.16632224330E+02  0.25500000000E-02 0. -1.
    5000001    1    1    2    0    0 -0.85484587483E+02  0.13040948949E+03  0.12221815423E+04  0.12386165557E+04  0.12700000000E+03 0.  0.
   -5000001    1    1    2    0    0  0.85484587483E+02 -0.13040948949E+03  0.11931481817E+04  0.12099776168E+04  0.12700000000E+03 0.  0.
<mgrwt>
<rscale>  0 0.40223842E+03</rscale>
<asrwt>0</asrwt>
<pdfrwt beam="1">  1        2 0.34742266E+00 0.40223842E+03</pdfrwt>
<pdfrwt beam="2">  1       -2 0.23760353E-02 0.40223842E+03</pdfrwt>
<totfact> 0.32284530E+03</totfact>
</mgrwt>
</event>
<event>
 4    1  0.1351183E-004  0.5358687E+03  0.7818608E-02  0.1004819E+00
          2   -1    0    0  501    0  0.00000000000E+00  0.00000000000E+00  0.10382250597E+04  0.10382250597E+04  0.25500000000E-02 0.  1.
         -2   -1    0    0    0  501 -0.00000000000E+00 -0.00000000000E+00 -0.69145716386E+02  0.69145716433E+02  0.25500000000E-02 0. -1.
    5000001    1    1    2    0    0  0.12603569531E+03 -0.19740852517E+03  0.54316021606E+03  0.60498524164E+03  0.12700000000E+03 0.  0.
   -5000001    1    1    2    0    0 -0.12603569531E+03  0.19740852517E+03  0.42591912726E+03  0.50238553449E+03  0.12700000000E+03 0.  0.
<mgrwt>
<rscale>  0 0.53586870E+03</rscale>
<asrwt>0</asrwt>
<pdfrwt beam="1">  1        2 0.14831786E+00 0.53586870E+03</pdfrwt>
<pdfrwt beam="2">  1       -2 0.98779597E-02 0.53586870E+03</pdfrwt>
<totfact> 0.18708762E+03</totfact>
</mgrwt>
</event>
<event>
 4    1  0.1351183E-004  0.3546383E+03  0.7818608E-02  0.1060727E+00
         -2   -1    0    0    0  501 -0.00000000000E+00  0.00000000000E+00  0.14956369241E+02  0.14956369458E+02  0.25500000000E-02 0. -1.
          2   -1    0    0  501    0  0.00000000000E+00 -0.00000000000E+00 -0.21022531467E+04  0.21022531467E+04  0.25500000000E-02 0.  1.
    5000001    1    1    2    0    0 -0.10396653389E+03 -0.66245635431E+02 -0.97947373992E+03  0.99533679304E+03  0.12700000000E+03 0.  0.
   -5000001    1    1    2    0    0  0.10396653389E+03  0.66245635431E+02 -0.11078230376E+04  0.11218727232E+04  0.12700000000E+03 0.  0.
<mgrwt>
<rscale>  0 0.35463826E+03</rscale>
<asrwt>0</asrwt>
<pdfrwt beam="1">  1        2 0.30032169E+00 0.35463826E+03</pdfrwt>
<pdfrwt beam="2">  1       -2 0.21366255E-02 0.35463826E+03</pdfrwt>
<totfact> 0.55236123E+03</totfact>
</mgrwt>
</event>
<event>
 4    1  0.1351183E-004  0.3461906E+03  0.7818608E-02  0.1064190E+00
         -2   -1    0    0    0  501 -0.00000000000E+00  0.00000000000E+00  0.56722741957E+02  0.56722742014E+02  0.25500000000E-02 0. -1.
          2   -1    0    0  501    0  0.00000000000E+00 -0.00000000000E+00 -0.52821804997E+03  0.52821804998E+03  0.25500000000E-02 0.  1.
    5000001    1    1    2    0    0  0.10447203562E+03 -0.37007425997E+02 -0.16924710224E+03  0.23886719621E+03  0.12700000000E+03 0.  0.
   -5000001    1    1    2    0    0 -0.10447203562E+03  0.37007425997E+02 -0.30224820578E+03  0.34607359579E+03  0.12700000000E+03 0.  0.
<mgrwt>
<rscale>  0 0.34619056E+03</rscale>
<asrwt>0</asrwt>
<pdfrwt beam="1">  1        2 0.75459719E-01 0.34619056E+03</pdfrwt>
<pdfrwt beam="2">  1       -2 0.81032491E-02 0.34619056E+03</pdfrwt>
<totfact> 0.59187341E+03</totfact>
</mgrwt>
</event>
<event>
 4    1  0.1351183E-004  0.2899634E+03  0.7818608E-02  0.1090368E+00
         -2   -1    0    0    0  501 -0.00000000000E+00  0.00000000000E+00  0.18061586579E+03  0.18061586581E+03  0.25500000000E-02 0. -1.
          2   -1    0    0  501    0  0.00000000000E+00 -0.00000000000E+00 -0.11637791337E+03  0.11637791339E+03  0.25500000000E-02 0.  1.
    5000001    1    1    2    0    0  0.39109315029E+02  0.20756836948E+02  0.87563813769E+02  0.16048927155E+03  0.12700000000E+03 0.  0.
   -5000001    1    1    2    0    0 -0.39109315029E+02 -0.20756836948E+02 -0.23325861342E+02  0.13650450765E+03  0.12700000000E+03 0.  0.
<mgrwt>
<rscale>  0 0.28996343E+03</rscale>
<asrwt>0</asrwt>
<pdfrwt beam="1">  1        2 0.16625416E-01 0.28996343E+03</pdfrwt>
<pdfrwt beam="2">  1       -2 0.25802266E-01 0.28996343E+03</pdfrwt>
<totfact> 0.46145739E+03</totfact>
</mgrwt>
</event>
<event>
 4    1  0.1351183E-004  0.4332192E+03  0.7818608E-02  0.1032848E+00
         -2   -1    0    0    0  501 -0.00000000000E+00  0.00000000000E+00  0.29700504946E+03  0.29700504947E+03  0.25500000000E-02 0. -1.
          2   -1    0    0  501    0  0.00000000000E+00 -0.00000000000E+00 -0.15797615594E+03  0.15797615596E+03  0.25500000000E-02 0.  1.
    5000001    1    1    2    0    0 -0.61455754497E+02  0.14543382529E+03  0.14993042327E+03  0.25206336331E+03  0.12700000000E+03 0.  0.
   -5000001    1    1    2    0    0  0.61455754497E+02 -0.14543382529E+03 -0.10901529760E+02  0.20291784212E+03  0.12700000000E+03 0.  0.
<mgrwt>
<rscale>  0 0.43321919E+03</rscale>
<asrwt>0</asrwt>
<pdfrwt beam="1">  1        2 0.22568022E-01 0.43321919E+03</pdfrwt>
<pdfrwt beam="2">  1       -2 0.42429293E-01 0.43321919E+03</pdfrwt>
<totfact> 0.12952664E+03</totfact>
</mgrwt>
</event>
<event>
 4    1  0.1351183E-004  0.3896304E+03  0.7818608E-02  0.1047431E+00
          2   -1    0    0  501    0  0.00000000000E+00  0.00000000000E+00  0.37336961106E+03  0.37336961107E+03  0.25500000000E-02 0.  1.
         -2   -1    0    0    0  501 -0.00000000000E+00 -0.00000000000E+00 -0.10164986097E+03  0.10164986101E+03  0.25500000000E-02 0. -1.
    5000001    1    1    2    0    0  0.64918161465E+02  0.89759259731E+02  0.25501853876E+03  0.30567065202E+03  0.12700000000E+03 0.  0.
   -5000001    1    1    2    0    0 -0.64918161465E+02 -0.89759259731E+02  0.16701211333E+02  0.16934882006E+03  0.12700000000E+03 0.  0.
<mgrwt>
<rscale>  0 0.38963044E+03</rscale>
<asrwt>0</asrwt>
<pdfrwt beam="1">  1        2 0.53338515E-01 0.38963044E+03</pdfrwt>
<pdfrwt beam="2">  1       -2 0.14521409E-01 0.38963044E+03</pdfrwt>
<totfact> 0.33958624E+03</totfact>
</mgrwt>
</event>
<event>
 4    1  0.1351183E-004  0.3059509E+03  0.7818608E-02  0.1082303E+00
         -2   -1    0    0    0  501 -0.00000000000E+00  0.00000000000E+00  0.10444230403E+03  0.10444230406E+03  0.25500000000E-02 0. -1.
          2   -1    0    0  501    0  0.00000000000E+00 -0.00000000000E+00 -0.22406132985E+03  0.22406132986E+03  0.25500000000E-02 0.  1.
    5000001    1    1    2    0    0 -0.50227620598E+02  0.19702944260E+02 -0.13071903122E+03  0.19007231520E+03  0.12700000000E+03 0.  0.
   -5000001    1    1    2    0    0  0.50227620598E+02 -0.19702944260E+02  0.11100005397E+02  0.13843131872E+03  0.12700000000E+03 0.  0.
<mgrwt>
<rscale>  0 0.30595086E+03</rscale>
<asrwt>0</asrwt>
<pdfrwt beam="1">  1        2 0.32008761E-01 0.30595086E+03</pdfrwt>
<pdfrwt beam="2">  1       -2 0.14920329E-01 0.30595086E+03</pdfrwt>
<totfact> 0.56251927E+03</totfact>
</mgrwt>
</event>
<event>
 4    1  0.1351183E-004  0.8154587E+03  0.7818608E-02  0.9537907E-01
          2   -1    0    0  501    0  0.00000000000E+00  0.00000000000E+00  0.22396755571E+04  0.22396755571E+04  0.25500000000E-02 0.  1.
         -2   -1    0    0    0  501 -0.00000000000E+00 -0.00000000000E+00 -0.74226477418E+02  0.74226477462E+02  0.25500000000E-02 0. -1.
    5000001    1    1    2    0    0 -0.18195984658E+03 -0.33304506963E+03  0.13040863268E+04  0.13641109016E+04  0.12700000000E+03 0.  0.
   -5000001    1    1    2    0    0  0.18195984658E+03  0.33304506963E+03  0.86136275289E+03  0.94979113295E+03  0.12700000000E+03 0.  0.
<mgrwt>
<rscale>  0 0.81545871E+03</rscale>
<asrwt>0</asrwt>
<pdfrwt beam="1">  1        2 0.31995364E+00 0.81545871E+03</pdfrwt>
<pdfrwt beam="2">  1       -2 0.10603783E-01 0.81545871E+03</pdfrwt>
<totfact> 0.38404279E+02</totfact>
</mgrwt>
</event>
<event>
 4    1  0.1351183E-004  0.3201697E+03  0.7818608E-02  0.1075571E+00
          2   -1    0    0  501    0  0.00000000000E+00  0.00000000000E+00  0.13574020924E+04  0.13574020924E+04  0.25500000000E-02 0.  1.
         -2   -1    0    0    0  501 -0.00000000000E+00 -0.00000000000E+00 -0.18879567094E+02  0.18879567266E+02  0.25500000000E-02 0. -1.
    5000001    1    1    2    0    0 -0.82730500323E+02  0.82235988364E+01  0.88786529483E+03  0.90074732585E+03  0.12700000000E+03 0.  0.
   -5000001    1    1    2    0    0  0.82730500323E+02 -0.82235988364E+01  0.45065723051E+03  0.47553433385E+03  0.12700000000E+03 0.  0.
<mgrwt>
<rscale>  0 0.32016973E+03</rscale>
<asrwt>0</asrwt>
<pdfrwt beam="1">  1        2 0.19391459E+00 0.32016973E+03</pdfrwt>
<pdfrwt beam="2">  1       -2 0.26970810E-02 0.32016973E+03</pdfrwt>
<totfact> 0.91986534E+03</totfact>
</mgrwt>
</event>
<event>
 4    1  0.1351183E-004  0.2671054E+03  0.7818608E-02  0.1102948E+00
         -2   -1    0    0    0  501 -0.00000000000E+00  0.00000000000E+00  0.19972471036E+02  0.19972471199E+02  0.25500000000E-02 0. -1.
          2   -1    0    0  501    0  0.00000000000E+00 -0.00000000000E+00 -0.89304529196E+03  0.89304529197E+03  0.25500000000E-02 0.  1.
    5000001    1    1    2    0    0 -0.40535014608E+02 -0.73562412227E+01 -0.44741013848E+03  0.46690687906E+03  0.12700000000E+03 0.  0.
   -5000001    1    1    2    0    0  0.40535014608E+02  0.73562412227E+01 -0.42566268245E+03  0.44611088411E+03  0.12700000000E+03 0.  0.
<mgrwt>
<rscale>  0 0.26710538E+03</rscale>
<asrwt>0</asrwt>
<pdfrwt beam="1">  1        2 0.12757787E+00 0.26710538E+03</pdfrwt>
<pdfrwt beam="2">  1       -2 0.28532107E-02 0.26710538E+03</pdfrwt>
<totfact> 0.15382311E+04</totfact>
</mgrwt>
</event>
<event>
 4    1  0.1351183E-004  0.3335226E+03  0.7818608E-02  0.1069589E+00
          2   -1    0    0  501    0  0.00000000000E+00  0.00000000000E+00  0.32577366352E+03  0.32577366353E+03  0.25500000000E-02 0.  1.
         -2   -1    0    0    0  501 -0.00000000000E+00 -0.00000000000E+00 -0.85363984429E+02  0.85363984467E+02  0.25500000000E-02 0. -1.
    5000001    1    1    2    0    0 -0.91587217092E+02  0.38618868187E+02  0.67895055561E+02  0.17498106722E+03  0.12700000000E+03 0.  0.
   -5000001    1    1    2    0    0  0.91587217092E+02 -0.38618868187E+02  0.17251462353E+03  0.23615658078E+03  0.12700000000E+03 0.  0.
<mgrwt>
<rscale>  0 0.33352264E+03</rscale>
<asrwt>0</asrwt>
<pdfrwt beam="1">  1        2 0.46539095E-01 0.33352264E+03</pdfrwt>
<pdfrwt beam="2">  1       -2 0.12194855E-01 0.33352264E+03</pdfrwt>
<totfact> 0.52278383E+03</totfact>
</mgrwt>
</event>
<event>
 4    1  0.1351183E-004  0.8989964E+03  0.7818608E-02  0.9426837E-01
          2   -1    0    0  501    0  0.00000000000E+00  0.00000000000E+00  0.42900956137E+03  0.42900956138E+03  0.25500000000E-02 0.  1.
         -2   -1    0    0    0  501 -0.00000000000E+00 -0.00000000000E+00 -0.47096531745E+03  0.47096531745E+03  0.25500000000E-02 0. -1.
    5000001    1    1    2    0    0 -0.41872149201E+03  0.93716536497E+02 -0.63558244253E+02  0.45197248533E+03  0.12700000000E+03 0.  0.
   -5000001    1    1    2    0    0  0.41872149201E+03 -0.93716536497E+02  0.21602488173E+02  0.44800239350E+03  0.12700000000E+03 0.  0.
<mgrwt>
<rscale>  0 0.89899638E+03</rscale>
<asrwt>0</asrwt>
<pdfrwt beam="1">  1        2 0.61287080E-01 0.89899638E+03</pdfrwt>
<pdfrwt beam="2">  1       -2 0.67280760E-01 0.89899638E+03</pdfrwt>
<totfact> 0.16259358E+02</totfact>
</mgrwt>
</event>
<event>
 4    1  0.1351183E-004  0.6508224E+03  0.7818608E-02  0.9805237E-01
         -2   -1    0    0    0  501 -0.00000000000E+00  0.00000000000E+00  0.58505328910E+02  0.58505328966E+02  0.25500000000E-02 0. -1.
          2   -1    0    0  501    0  0.00000000000E+00 -0.00000000000E+00 -0.18099625844E+04  0.18099625844E+04  0.25500000000E-02 0.  1.
    5000001    1    1    2    0    0  0.13196409359E+03  0.26408032413E+03 -0.72904339919E+03  0.79673472216E+03  0.12700000000E+03 0.  0.
   -5000001    1    1    2    0    0 -0.13196409359E+03 -0.26408032413E+03 -0.10224138563E+04  0.10717331912E+04  0.12700000000E+03 0.  0.
<mgrwt>
<rscale>  0 0.65082242E+03</rscale>
<asrwt>0</asrwt>
<pdfrwt beam="1">  1        2 0.25856605E+00 0.65082242E+03</pdfrwt>
<pdfrwt beam="2">  1       -2 0.83579053E-02 0.65082242E+03</pdfrwt>
<totfact> 0.94147682E+02</totfact>
</mgrwt>
</event>
<event>
 4    1  0.1351183E-004  0.4579111E+03  0.7818608E-02  0.1025389E+00
          2   -1    0    0  501    0  0.00000000000E+00  0.00000000000E+00  0.54212828991E+03  0.54212828992E+03  0.25500000000E-02 0.  1.
         -2   -1    0    0    0  501 -0.00000000000E+00 -0.00000000000E+00 -0.96694154364E+02  0.96694154398E+02  0.25500000000E-02 0. -1.
    5000001    1    1    2    0    0 -0.57349989038E+01  0.13765052312E+03  0.39164229266E+02  0.19142464204E+03  0.12700000000E+03 0.  0.
   -5000001    1    1    2    0    0  0.57349989038E+01 -0.13765052312E+03  0.40626990628E+03  0.44739780227E+03  0.12700000000E+03 0.  0.
<mgrwt>
<rscale>  0 0.45791107E+03</rscale>
<asrwt>0</asrwt>
<pdfrwt beam="1">  1        2 0.77446897E-01 0.45791107E+03</pdfrwt>
<pdfrwt beam="2">  1       -2 0.13813451E-01 0.45791107E+03</pdfrwt>
<totfact> 0.24425055E+03</totfact>
</mgrwt>
</event>
<event>
 4    1  0.1351183E-004  0.3586873E+03  0.7818608E-02  0.1059105E+00
          2   -1    0    0  501    0  0.00000000000E+00  0.00000000000E+00  0.12613787877E+02  0.12613788135E+02  0.25500000000E-02 0.  1.
         -2   -1    0    0    0  501 -0.00000000000E+00 -0.00000000000E+00 -0.25499189943E+04  0.25499189943E+04  0.25500000000E-02 0. -1.
    5000001    1    1    2    0    0 -0.40840772586E+02  0.11762078176E+03 -0.11037901744E+04  0.11180269970E+04  0.12700000000E+03 0.  0.
   -5000001    1    1    2    0    0  0.40840772586E+02 -0.11762078176E+03 -0.14335150320E+04  0.14445057854E+04  0.12700000000E+03 0.  0.
<mgrwt>
<rscale>  0 0.35868726E+03</rscale>
<asrwt>0</asrwt>
<pdfrwt beam="1">  1        2 0.18019713E-02 0.35868726E+03</pdfrwt>
<pdfrwt beam="2">  1       -2 0.36427381E+00 0.35868726E+03</pdfrwt>
<totfact> 0.94751737E+01</totfact>
</mgrwt>
</event>
<event>
 4    1  0.1351183E-004  0.5455561E+03  0.7818608E-02  0.1002528E+00
         -2   -1    0    0    0  501 -0.00000000000E+00  0.00000000000E+00  0.25795630158E+03  0.25795630159E+03  0.25500000000E-02 0. -1.
          2   -1    0    0  501    0  0.00000000000E+00 -0.00000000000E+00 -0.28845145161E+03  0.28845145162E+03  0.25500000000E-02 0.  1.
    5000001    1    1    2    0    0 -0.21436939563E+03 -0.10625992051E+03  0.16950099237E+02  0.27140691655E+03  0.12700000000E+03 0.  0.
   -5000001    1    1    2    0    0  0.21436939563E+03  0.10625992051E+03 -0.47445249269E+02  0.27500083666E+03  0.12700000000E+03 0.  0.
<mgrwt>
<rscale>  0 0.54555612E+03</rscale>
<asrwt>0</asrwt>
<pdfrwt beam="1">  1        2 0.41207350E-01 0.54555612E+03</pdfrwt>
<pdfrwt beam="2">  1       -2 0.36850900E-01 0.54555612E+03</pdfrwt>
<totfact> 0.86725980E+02</totfact>
</mgrwt>
</event>
<event>
 4    1  0.1351183E-004  0.5204260E+03  0.7818608E-02  0.1008581E+00
          2   -1    0    0  501    0  0.00000000000E+00  0.00000000000E+00  0.21184384524E+04  0.21184384524E+04  0.25500000000E-02 0.  1.
         -2   -1    0    0    0  501 -0.00000000000E+00 -0.00000000000E+00 -0.31962597285E+02  0.31962597386E+02  0.25500000000E-02 0. -1.
    5000001    1    1    2    0    0  0.10664419385E+03 -0.20051304927E+03  0.10356997416E+04  0.10678864273E+04  0.12700000000E+03 0.  0.
   -5000001    1    1    2    0    0 -0.10664419385E+03  0.20051304927E+03  0.10507761135E+04  0.10825146224E+04  0.12700000000E+03 0.  0.
<mgrwt>
<rscale>  0 0.52042596E+03</rscale>
<asrwt>0</asrwt>
<pdfrwt beam="1">  1        2 0.30263412E+00 0.52042596E+03</pdfrwt>
<pdfrwt beam="2">  1       -2 0.45660844E-02 0.52042596E+03</pdfrwt>
<totfact> 0.17124546E+03</totfact>
</mgrwt>
</event>
<event>
 4    1  0.1351183E-004  0.3459867E+03  0.7818608E-02  0.1064274E+00
          2   -1    0    0  501    0  0.00000000000E+00  0.00000000000E+00  0.23857182745E+03  0.23857182746E+03  0.25500000000E-02 0.  1.
         -2   -1    0    0    0  501 -0.00000000000E+00 -0.00000000000E+00 -0.12544105733E+03  0.12544105736E+03  0.25500000000E-02 0. -1.
    5000001    1    1    2    0    0  0.40540988068E+02 -0.53915297656E+02 -0.44607498423E+02  0.15056314274E+03  0.12700000000E+03 0.  0.
   -5000001    1    1    2    0    0 -0.40540988068E+02  0.53915297656E+02  0.15773826854E+03  0.21344974209E+03  0.12700000000E+03 0.  0.
<mgrwt>
<rscale>  0 0.34598672E+03</rscale>
<asrwt>0</asrwt>
<pdfrwt beam="1">  1        2 0.34081690E-01 0.34598672E+03</pdfrwt>
<pdfrwt beam="2">  1       -2 0.17920151E-01 0.34598672E+03</pdfrwt>
<totfact> 0.38774997E+03</totfact>
</mgrwt>
</event>
<event>
 4    1  0.1351183E-004  0.4860134E+03  0.7818608E-02  0.1017495E+00
         -2   -1    0    0    0  501 -0.00000000000E+00  0.00000000000E+00  0.18708833451E+02  0.18708833625E+02  0.25500000000E-02 0. -1.
          2   -1    0    0  501    0  0.00000000000E+00 -0.00000000000E+00 -0.31563835721E+04  0.31563835721E+04  0.25500000000E-02 0.  1.
    5000001    1    1    2    0    0  0.89289258896E+02  0.15358149035E+03 -0.87243145904E+03  0.89934726144E+03  0.12700000000E+03 0.  0.
   -5000001    1    1    2    0    0 -0.89289258896E+02 -0.15358149035E+03 -0.22652432796E+04  0.22757451443E+04  0.12700000000E+03 0.  0.
<mgrwt>
<rscale>  0 0.48601339E+03</rscale>
<asrwt>0</asrwt>
<pdfrwt beam="1">  1        2 0.45091160E+00 0.48601339E+03</pdfrwt>
<pdfrwt beam="2">  1       -2 0.26726925E-02 0.48601339E+03</pdfrwt>
<totfact> 0.11192280E+03</totfact>
</mgrwt>
</event>
<event>
 4    1  0.1351183E-004  0.2934111E+03  0.7818608E-02  0.1088582E+00
         -2   -1    0    0    0  501 -0.00000000000E+00  0.00000000000E+00  0.15318003703E+02  0.15318003916E+02  0.25500000000E-02 0. -1.
          2   -1    0    0  501    0  0.00000000000E+00 -0.00000000000E+00 -0.14050468913E+04  0.14050468913E+04  0.25500000000E-02 0.  1.
    5000001    1    1    2    0    0  0.43507963026E+02 -0.50716466697E+02 -0.84236495636E+03  0.85450150529E+03  0.12700000000E+03 0.  0.
   -5000001    1    1    2    0    0 -0.43507963026E+02  0.50716466697E+02 -0.54736393124E+03  0.56586338993E+03  0.12700000000E+03 0.  0.
<mgrwt>
<rscale>  0 0.29341107E+03</rscale>
<asrwt>0</asrwt>
<pdfrwt beam="1">  1        2 0.20072090E+00 0.29341107E+03</pdfrwt>
<pdfrwt beam="2">  1       -2 0.21882872E-02 0.29341107E+03</pdfrwt>
<totfact> 0.11825056E+04</totfact>
</mgrwt>
</event>
<event>
 4    1  0.1351183E-004  0.6291362E+03  0.7818608E-02  0.9846736E-01
         -2   -1    0    0    0  501 -0.00000000000E+00  0.00000000000E+00  0.14397384387E+03  0.14397384389E+03  0.25500000000E-02 0. -1.
          2   -1    0    0  501    0  0.00000000000E+00 -0.00000000000E+00 -0.68729906034E+03  0.68729906035E+03  0.25500000000E-02 0.  1.
    5000001    1    1    2    0    0  0.25960505036E+03 -0.80173563900E+02 -0.14630331937E+03  0.33370082975E+03  0.12700000000E+03 0.  0.
   -5000001    1    1    2    0    0 -0.25960505036E+03  0.80173563900E+02 -0.39702189710E+03  0.49757207448E+03  0.12700000000E+03 0.  0.
<mgrwt>
<rscale>  0 0.62913619E+03</rscale>
<asrwt>0</asrwt>
<pdfrwt beam="1">  1        2 0.98185578E-01 0.62913619E+03</pdfrwt>
<pdfrwt beam="2">  1       -2 0.20567692E-01 0.62913619E+03</pdfrwt>
<totfact> 0.93762415E+02</totfact>
</mgrwt>
</event>
<event>
 4    1  0.1351183E-004  0.3812531E+03  0.7818608E-02  0.1050472E+00
          2   -1    0    0  501    0  0.00000000000E+00  0.00000000000E+00  0.94057303545E+03  0.94057303545E+03  0.25500000000E-02 0.  1.
         -2   -1    0    0    0  501 -0.00000000000E+00 -0.00000000000E+00 -0.38634401097E+02  0.38634401181E+02  0.25500000000E-02 0. -1.
    5000001    1    1    2    0    0 -0.10279990072E+03  0.97927464958E+02  0.46946673005E+03  0.50664150896E+03  0.12700000000E+03 0.  0.
   -5000001    1    1    2    0    0  0.10279990072E+03 -0.97927464958E+02  0.43247190430E+03  0.47256592767E+03  0.12700000000E+03 0.  0.
<mgrwt>
<rscale>  0 0.38125307E+03</rscale>
<asrwt>0</asrwt>
<pdfrwt beam="1">  1        2 0.13436755E+00 0.38125307E+03</pdfrwt>
<pdfrwt beam="2">  1       -2 0.55192015E-02 0.38125307E+03</pdfrwt>
<totfact> 0.53562118E+03</totfact>
</mgrwt>
</event>
<event>
 4    1  0.1351183E-004  0.2929019E+03  0.7818608E-02  0.1088844E+00
          2   -1    0    0  501    0  0.00000000000E+00  0.00000000000E+00  0.19866328112E+04  0.19866328112E+04  0.25500000000E-02 0.  1.
         -2   -1    0    0    0  501 -0.00000000000E+00 -0.00000000000E+00 -0.10796094808E+02  0.10796095109E+02  0.25500000000E-02 0. -1.
    5000001    1    1    2    0    0 -0.20517131064E+02 -0.69609694247E+02  0.93854712207E+03  0.94987691968E+03  0.12700000000E+03 0.  0.
   -5000001    1    1    2    0    0  0.20517131064E+02  0.69609694247E+02  0.10372895944E+04  0.10475519867E+04  0.12700000000E+03 0.  0.
<mgrwt>
<rscale>  0 0.29290187E+03</rscale>
<asrwt>0</asrwt>
<pdfrwt beam="1">  1        2 0.28380457E+00 0.29290187E+03</pdfrwt>
<pdfrwt beam="2">  1       -2 0.15422999E-02 0.29290187E+03</pdfrwt>
<totfact> 0.10168943E+04</totfact>
</mgrwt>
</event>
<event>
 4    1  0.1351183E-004  0.3853550E+03  0.7818608E-02  0.1048972E+00
          2   -1    0    0  501    0  0.00000000000E+00  0.00000000000E+00  0.15958011662E+04  0.15958011662E+04  0.25500000000E-02 0.  1.
         -2   -1    0    0    0  501 -0.00000000000E+00 -0.00000000000E+00 -0.23263940607E+02  0.23263940747E+02  0.25500000000E-02 0. -1.
    5000001    1    1    2    0    0 -0.91635979557E+02 -0.92468761916E+02  0.51895351683E+03  0.54989942472E+03  0.12700000000E+03 0.  0.
   -5000001    1    1    2    0    0  0.91635979557E+02  0.92468761916E+02  0.10535837088E+04  0.10691656822E+04  0.12700000000E+03 0.  0.
<mgrwt>
<rscale>  0 0.38535502E+03</rscale>
<asrwt>0</asrwt>
<pdfrwt beam="1">  1        2 0.22797163E+00 0.38535502E+03</pdfrwt>
<pdfrwt beam="2">  1       -2 0.33234197E-02 0.38535502E+03</pdfrwt>
<totfact> 0.50874575E+03</totfact>
</mgrwt>
</event>
<event>
 4    1  0.1351183E-004  0.4737241E+03  0.7818608E-02  0.1020874E+00
          2   -1    0    0  501    0  0.00000000000E+00  0.00000000000E+00  0.69013043853E+02  0.69013043900E+02  0.25500000000E-02 0.  1.
         -2   -1    0    0    0  501 -0.00000000000E+00 -0.00000000000E+00 -0.81294227371E+03  0.81294227371E+03  0.25500000000E-02 0. -1.
    5000001    1    1    2    0    0  0.63200010764E+02  0.14391100280E+03 -0.14190483536E+03  0.24692225575E+03  0.12700000000E+03 0.  0.
   -5000001    1    1    2    0    0 -0.63200010764E+02 -0.14391100280E+03 -0.60202439450E+03  0.63503306186E+03  0.12700000000E+03 0.  0.
<mgrwt>
<rscale>  0 0.47372406E+03</rscale>
<asrwt>0</asrwt>
<pdfrwt beam="1">  1        2 0.98590067E-02 0.47372406E+03</pdfrwt>
<pdfrwt beam="2">  1       -2 0.11613461E+00 0.47372406E+03</pdfrwt>
<totfact> 0.39397120E+02</totfact>
</mgrwt>
</event>
<event>
 4    1  0.1351183E-004  0.4602607E+03  0.7818608E-02  0.1024706E+00
          2   -1    0    0  501    0  0.00000000000E+00  0.00000000000E+00  0.19788890829E+03  0.19788890830E+03  0.25500000000E-02 0.  1.
         -2   -1    0    0    0  501 -0.00000000000E+00 -0.00000000000E+00 -0.26762474611E+03  0.26762474613E+03  0.25500000000E-02 0. -1.
    5000001    1    1    2    0    0 -0.82885143851E+02  0.17265957277E+03 -0.47242495250E+02  0.23461058905E+03  0.12700000000E+03 0.  0.
   -5000001    1    1    2    0    0  0.82885143851E+02 -0.17265957277E+03 -0.22493342578E+02  0.23090306537E+03  0.12700000000E+03 0.  0.
<mgrwt>
<rscale>  0 0.46026066E+03</rscale>
<asrwt>0</asrwt>
<pdfrwt beam="1">  1        2 0.28269844E-01 0.46026066E+03</pdfrwt>
<pdfrwt beam="2">  1       -2 0.38232106E-01 0.46026066E+03</pdfrwt>
<totfact> 0.12276958E+03</totfact>
</mgrwt>
</event>
<event>
 4    1  0.1351183E-004  0.5124604E+03  0.7818608E-02  0.1010577E+00
          2   -1    0    0  501    0  0.00000000000E+00  0.00000000000E+00  0.75905689517E+02  0.75905689559E+02  0.25500000000E-02 0.  1.
         -2   -1    0    0    0  501 -0.00000000000E+00 -0.00000000000E+00 -0.86494053128E+03  0.86494053129E+03  0.25500000000E-02 0. -1.
    5000001    1    1    2    0    0 -0.14047707005E+03 -0.10311413469E+03 -0.64863807630E+03  0.68353982035E+03  0.12700000000E+03 0.  0.
   -5000001    1    1    2    0    0  0.14047707005E+03  0.10311413469E+03 -0.14039676547E+03  0.25730640049E+03  0.12700000000E+03 0.  0.
<mgrwt>
<rscale>  0 0.51246037E+03</rscale>
<asrwt>0</asrwt>
<pdfrwt beam="1">  1        2 0.10843670E-01 0.51246037E+03</pdfrwt>
<pdfrwt beam="2">  1       -2 0.12356293E+00 0.51246037E+03</pdfrwt>
<totfact> 0.29994643E+02</totfact>
</mgrwt>
</event>
<event>
 4    1  0.1351183E-004  0.7296735E+03  0.7818608E-02  0.9667790E-01
          2   -1    0    0  501    0  0.00000000000E+00  0.00000000000E+00  0.24283469199E+04  0.24283469199E+04  0.25500000000E-02 0.  1.
         -2   -1    0    0    0  501 -0.00000000000E+00 -0.00000000000E+00 -0.54813361097E+02  0.54813361156E+02  0.25500000000E-02 0. -1.
    5000001    1    1    2    0    0 -0.13879024312E+03  0.24955488396E+03  0.18273882546E+04  0.18539194170E+04  0.12700000000E+03 0.  0.
   -5000001    1    1    2    0    0  0.13879024312E+03 -0.24955488396E+03  0.54614530420E+03  0.62924086405E+03  0.12700000000E+03 0.  0.
<mgrwt>
<rscale>  0 0.72967351E+03</rscale>
<asrwt>0</asrwt>
<pdfrwt beam="1">  1        2 0.34690666E+00 0.72967351E+03</pdfrwt>
<pdfrwt beam="2">  1       -2 0.78304812E-02 0.72967351E+03</pdfrwt>
<totfact> 0.50537668E+02</totfact>
</mgrwt>
</event>
<event>
 4    1  0.1351183E-004  0.7008234E+03  0.7818608E-02  0.9715825E-01
          2   -1    0    0  501    0  0.00000000000E+00  0.00000000000E+00  0.12585905388E+04  0.12585905388E+04  0.25500000000E-02 0.  1.
         -2   -1    0    0    0  501 -0.00000000000E+00 -0.00000000000E+00 -0.97560198708E+02  0.97560198741E+02  0.25500000000E-02 0. -1.
    5000001    1    1    2    0    0  0.18832136287E+03  0.24183122640E+03  0.36233892803E+03  0.49128991089E+03  0.12700000000E+03 0.  0.
   -5000001    1    1    2    0    0 -0.18832136287E+03 -0.24183122640E+03  0.79869141203E+03  0.86486082662E+03  0.12700000000E+03 0.  0.
<mgrwt>
<rscale>  0 0.70082335E+03</rscale>
<asrwt>0</asrwt>
<pdfrwt beam="1">  1        2 0.17979863E+00 0.70082335E+03</pdfrwt>
<pdfrwt beam="2">  1       -2 0.13937173E-01 0.70082335E+03</pdfrwt>
<totfact> 0.79103654E+02</totfact>
</mgrwt>
</event>
<event>
 4    1  0.1351183E-004  0.7496251E+03  0.7818608E-02  0.9635939E-01
         -2   -1    0    0    0  501 -0.00000000000E+00  0.00000000000E+00  0.44423619995E+02  0.44423620068E+02  0.25500000000E-02 0.  1.
          2   -1    0    0  501    0  0.00000000000E+00 -0.00000000000E+00 -0.31623814767E+04  0.31623814767E+04  0.25500000000E-02 0. -1.
    5000001    1    1    2    0    0 -0.30502338972E+03 -0.17191737947E+03 -0.13794823039E+04  0.14288790293E+04  0.12700000000E+03 0.  0.
   -5000001    1    1    2    0    0  0.30502338972E+03  0.17191737947E+03 -0.17384755528E+04  0.17779260674E+04  0.12700000000E+03 0.  0.
<mgrwt>
<rscale>  0 0.74962506E+03</rscale>
<asrwt>0</asrwt>
<pdfrwt beam="1">  1        2 0.45176864E+00 0.74962506E+03</pdfrwt>
<pdfrwt beam="2">  1       -2 0.63462334E-02 0.74962506E+03</pdfrwt>
<totfact> 0.28552990E+02</totfact>
</mgrwt>
</event>
<event>
 4    1  0.1351183E-004  0.4393532E+03  0.7818608E-02  0.1030945E+00
          2   -1    0    0  501    0  0.00000000000E+00  0.00000000000E+00  0.40798817008E+04  0.40798817008E+04  0.25500000000E-02 0.  1.
         -2   -1    0    0    0  501 -0.00000000000E+00 -0.00000000000E+00 -0.11828237701E+02  0.11828237976E+02  0.25500000000E-02 0. -1.
    5000001    1    1    2    0    0 -0.11610233136E+03 -0.80074048344E+02  0.30642519555E+04  0.30701238821E+04  0.12700000000E+03 0.  0.
   -5000001    1    1    2    0    0  0.11610233136E+03  0.80074048344E+02  0.10038015075E+04  0.10215860566E+04  0.12700000000E+03 0.  0.
<mgrwt>
<rscale>  0 0.43935321E+03</rscale>
<asrwt>0</asrwt>
<pdfrwt beam="1">  1        2 0.58283934E+00 0.43935321E+03</pdfrwt>
<pdfrwt beam="2">  1       -2 0.16897509E-02 0.43935321E+03</pdfrwt>
<totfact> 0.61422960E+02</totfact>
</mgrwt>
</event>
<event>
 4    1  0.1351183E-004  0.4850436E+03  0.7818608E-02  0.1017758E+00
         -2   -1    0    0    0  501 -0.00000000000E+00  0.00000000000E+00  0.37470083351E+02  0.37470083438E+02  0.25500000000E-02 0. -1.
          2   -1    0    0  501    0  0.00000000000E+00 -0.00000000000E+00 -0.15697011254E+04  0.15697011254E+04  0.25500000000E-02 0.  1.
    5000001    1    1    2    0    0 -0.26859210988E+02 -0.13409834035E+03 -0.12792634656E+04  0.12928061713E+04  0.12700000000E+03 0.  0.
   -5000001    1    1    2    0    0  0.26859210988E+02  0.13409834035E+03 -0.25296757642E+03  0.31436503753E+03  0.12700000000E+03 0.  0.
<mgrwt>
<rscale>  0 0.48504364E+03</rscale>
<asrwt>0</asrwt>
<pdfrwt beam="1">  1        2 0.22424298E+00 0.48504364E+03</pdfrwt>
<pdfrwt beam="2">  1       -2 0.53528700E-02 0.48504364E+03</pdfrwt>
<totfact> 0.25308954E+03</totfact>
</mgrwt>
</event>
<event>
 4    1  0.1351183E-004  0.3507572E+03  0.7818608E-02  0.1062305E+00
         -2   -1    0    0    0  501 -0.00000000000E+00  0.00000000000E+00  0.11113246671E+02  0.11113246964E+02  0.25500000000E-02 0. -1.
          2   -1    0    0  501    0  0.00000000000E+00 -0.00000000000E+00 -0.27676567365E+04  0.27676567365E+04  0.25500000000E-02 0.  1.
    5000001    1    1    2    0    0  0.36051295139E+02  0.65257756576E+02 -0.21327709624E+04  0.21378492109E+04  0.12700000000E+03 0.  0.
   -5000001    1    1    2    0    0 -0.36051295139E+02 -0.65257756576E+02 -0.62377252742E+03  0.64092077252E+03  0.12700000000E+03 0.  0.
<mgrwt>
<rscale>  0 0.35075719E+03</rscale>
<asrwt>0</asrwt>
<pdfrwt beam="1">  1        2 0.39537909E+00 0.35075719E+03</pdfrwt>
<pdfrwt beam="2">  1       -2 0.15876085E-02 0.35075719E+03</pdfrwt>
<totfact> 0.39696397E+03</totfact>
</mgrwt>
</event>
<event>
 4    1  0.1351183E-004  0.9358500E+03  0.7818608E-02  0.9381844E-01
         -2   -1    0    0    0  501 -0.00000000000E+00  0.00000000000E+00  0.51556556546E+03  0.51556556547E+03  0.25500000000E-02 0. -1.
          2   -1    0    0  501    0  0.00000000000E+00 -0.00000000000E+00 -0.42468661115E+03  0.42468661116E+03  0.25500000000E-02 0.  1.
    5000001    1    1    2    0    0  0.29958421996E+02  0.43178691882E+03  0.17047302861E+03  0.48221105732E+03  0.12700000000E+03 0.  0.
   -5000001    1    1    2    0    0 -0.29958421996E+02 -0.43178691882E+03 -0.79594074300E+02  0.45804111931E+03  0.12700000000E+03 0.  0.
<mgrwt>
<rscale>  0 0.93584997E+03</rscale>
<asrwt>0</asrwt>
<pdfrwt beam="1">  1        2 0.60669516E-01 0.93584997E+03</pdfrwt>
<pdfrwt beam="2">  1       -2 0.73652224E-01 0.93584997E+03</pdfrwt>
<totfact> 0.13470772E+02</totfact>
</mgrwt>
</event>
<event>
 4    1  0.1351183E-004  0.3595437E+03  0.7818608E-02  0.1058765E+00
         -2   -1    0    0    0  501 -0.00000000000E+00  0.00000000000E+00  0.25586287247E+02  0.25586287374E+02  0.25500000000E-02 0. -1.
          2   -1    0    0  501    0  0.00000000000E+00 -0.00000000000E+00 -0.12630954597E+04  0.12630954597E+04  0.25500000000E-02 0.  1.
    5000001    1    1    2    0    0  0.11009021531E+03 -0.62251034665E+02 -0.56884815036E+03  0.59641618438E+03  0.12700000000E+03 0.  0.
   -5000001    1    1    2    0    0 -0.11009021531E+03  0.62251034665E+02 -0.66866102206E+03  0.69226556267E+03  0.12700000000E+03 0.  0.
<mgrwt>
<rscale>  0 0.35954373E+03</rscale>
<asrwt>0</asrwt>
<pdfrwt beam="1">  1        2 0.18044217E+00 0.35954373E+03</pdfrwt>
<pdfrwt beam="2">  1       -2 0.36551847E-02 0.35954373E+03</pdfrwt>
<totfact> 0.65556629E+03</totfact>
</mgrwt>
</event>
<event>
 4    1  0.1351183E-004  0.4818130E+03  0.7818608E-02  0.1018638E+00
          2   -1    0    0  501    0  0.00000000000E+00  0.00000000000E+00  0.88432237820E+02  0.88432237857E+02  0.25500000000E-02 0.  1.
         -2   -1    0    0    0  501 -0.00000000000E+00 -0.00000000000E+00 -0.65627596915E+03  0.65627596915E+03  0.25500000000E-02 0. -1.
    5000001    1    1    2    0    0 -0.95179097951E+02  0.17806233825E+03 -0.33614738295E+03  0.41217632156E+03  0.12700000000E+03 0.  0.
   -5000001    1    1    2    0    0  0.95179097951E+02 -0.17806233825E+03 -0.23169634838E+03  0.33253188545E+03  0.12700000000E+03 0.  0.
<mgrwt>
<rscale>  0 0.48181305E+03</rscale>
<asrwt>0</asrwt>
<pdfrwt beam="1">  1        2 0.12633177E-01 0.48181305E+03</pdfrwt>
<pdfrwt beam="2">  1       -2 0.93753707E-01 0.48181305E+03</pdfrwt>
<totfact> 0.48041780E+02</totfact>
</mgrwt>
</event>
<event>
 4    1  0.1351183E-004  0.3310712E+03  0.7818608E-02  0.1070664E+00
          2   -1    0    0  501    0  0.00000000000E+00  0.00000000000E+00  0.77675743700E+03  0.77675743701E+03  0.25500000000E-02 0.  1.
         -2   -1    0    0    0  501 -0.00000000000E+00 -0.00000000000E+00 -0.35277461151E+02  0.35277461243E+02  0.25500000000E-02 0. -1.
    5000001    1    1    2    0    0 -0.61114493383E+02  0.56865705522E+02  0.53165873432E+03  0.55295451852E+03  0.12700000000E+03 0.  0.
   -5000001    1    1    2    0    0  0.61114493383E+02 -0.56865705522E+02  0.20982124153E+03  0.25908037973E+03  0.12700000000E+03 0.  0.
<mgrwt>
<rscale>  0 0.33107117E+03</rscale>
<asrwt>0</asrwt>
<pdfrwt beam="1">  1        2 0.11096535E+00 0.33107117E+03</pdfrwt>
<pdfrwt beam="2">  1       -2 0.50396373E-02 0.33107117E+03</pdfrwt>
<totfact> 0.78494254E+03</totfact>
</mgrwt>
</event>
<event>
 4    1  0.1351183E-004  0.4032436E+03  0.7818608E-02  0.1042662E+00
          2   -1    0    0  501    0  0.00000000000E+00  0.00000000000E+00  0.58740634562E+03  0.58740634562E+03  0.25500000000E-02 0.  1.
         -2   -1    0    0    0  501 -0.00000000000E+00 -0.00000000000E+00 -0.69204818630E+02  0.69204818677E+02  0.25500000000E-02 0. -1.
    5000001    1    1    2    0    0 -0.10531613907E+03  0.10979830248E+03  0.31948487061E+03  0.37596108698E+03  0.12700000000E+03 0.  0.
   -5000001    1    1    2    0    0  0.10531613907E+03 -0.10979830248E+03  0.19871665638E+03  0.28065007732E+03  0.12700000000E+03 0.  0.
<mgrwt>
<rscale>  0 0.40324360E+03</rscale>
<asrwt>0</asrwt>
<pdfrwt beam="1">  1        2 0.83915190E-01 0.40324360E+03</pdfrwt>
<pdfrwt beam="2">  1       -2 0.98864029E-02 0.40324360E+03</pdfrwt>
<totfact> 0.38363238E+03</totfact>
</mgrwt>
</event>
<event>
 4    1  0.1351183E-004  0.7659519E+03  0.7818608E-02  0.9610651E-01
         -2   -1    0    0    0  501 -0.00000000000E+00  0.00000000000E+00  0.24517722156E+03  0.24517722157E+03  0.25500000000E-02 0. -1.
          2   -1    0    0  501    0  0.00000000000E+00 -0.00000000000E+00 -0.59822276146E+03  0.59822276146E+03  0.25500000000E-02 0.  1.
    5000001    1    1    2    0    0  0.26377892702E+03 -0.23066766669E+03 -0.79557868727E+02  0.38111067851E+03  0.12700000000E+03 0.  0.
   -5000001    1    1    2    0    0 -0.26377892702E+03  0.23066766669E+03 -0.27348767117E+03  0.46228930453E+03  0.12700000000E+03 0.  0.
<mgrwt>
<rscale>  0 0.76595194E+03</rscale>
<asrwt>0</asrwt>
<pdfrwt beam="1">  1        2 0.85460394E-01 0.76595194E+03</pdfrwt>
<pdfrwt beam="2">  1       -2 0.35025318E-01 0.76595194E+03</pdfrwt>
<totfact> 0.41846645E+02</totfact>
</mgrwt>
</event>
<event>
 4    1  0.1351183E-004  0.4332277E+03  0.7818608E-02  0.1032845E+00
          2   -1    0    0  501    0  0.00000000000E+00  0.00000000000E+00  0.13745599491E+04  0.13745599491E+04  0.25500000000E-02 0.  1.
         -2   -1    0    0    0  501 -0.00000000000E+00 -0.00000000000E+00 -0.34135702998E+02  0.34135703093E+02  0.25500000000E-02 0. -1.
    5000001    1    1    2    0    0  0.15508237410E+03 -0.78054651871E+02  0.58734350640E+03  0.62549537644E+03  0.12700000000E+03 0.  0.
   -5000001    1    1    2    0    0 -0.15508237410E+03  0.78054651871E+02  0.75308073973E+03  0.78320027578E+03  0.12700000000E+03 0.  0.
<mgrwt>
<rscale>  0 0.43322775E+03</rscale>
<asrwt>0</asrwt>
<pdfrwt beam="1">  1        2 0.19636571E+00 0.43322775E+03</pdfrwt>
<pdfrwt beam="2">  1       -2 0.48765288E-02 0.43322775E+03</pdfrwt>
<totfact> 0.36911990E+03</totfact>
</mgrwt>
</event>
<event>
 4    1  0.1351183E-004  0.3549521E+03  0.7818608E-02  0.1060601E+00
         -2   -1    0    0    0  501 -0.00000000000E+00  0.00000000000E+00  0.93797635342E+02  0.93797635377E+02  0.25500000000E-02 0. -1.
          2   -1    0    0  501    0  0.00000000000E+00 -0.00000000000E+00 -0.33580544543E+03  0.33580544544E+03  0.25500000000E-02 0.  1.
    5000001    1    1    2    0    0 -0.90369001564E+02 -0.48864292842E+02 -0.20498321957E+03  0.26210951120E+03  0.12700000000E+03 0.  0.
   -5000001    1    1    2    0    0  0.90369001564E+02  0.48864292842E+02 -0.37024590520E+02  0.16749356961E+03  0.12700000000E+03 0.  0.
<mgrwt>
<rscale>  0 0.35495215E+03</rscale>
<asrwt>0</asrwt>
<pdfrwt beam="1">  1        2 0.47972206E-01 0.35495215E+03</pdfrwt>
<pdfrwt beam="2">  1       -2 0.13399662E-01 0.35495215E+03</pdfrwt>
<totfact> 0.43440097E+03</totfact>
</mgrwt>
</event>
<event>
 4    1  0.1351183E-004  0.3374756E+03  0.7818608E-02  0.1067876E+00
          2   -1    0    0  501    0  0.00000000000E+00  0.00000000000E+00  0.44559993105E+04  0.44559993105E+04  0.25500000000E-02 0.  1.
         -2   -1    0    0    0  501 -0.00000000000E+00 -0.00000000000E+00 -0.63896890128E+01  0.63896895216E+01  0.25500000000E-02 0. -1.
    5000001    1    1    2    0    0 -0.35475554951E+02 -0.89052800171E+02  0.29674693061E+04  0.29717321547E+04  0.12700000000E+03 0.  0.
   -5000001    1    1    2    0    0  0.35475554951E+02  0.89052800171E+02  0.14821403153E+04  0.14906568453E+04  0.12700000000E+03 0.  0.
<mgrwt>
<rscale>  0 0.33747563E+03</rscale>
<asrwt>0</asrwt>
<pdfrwt beam="1">  1        2 0.63657173E+00 0.33747563E+03</pdfrwt>
<pdfrwt beam="2">  1       -2 0.91281217E-03 0.33747563E+03</pdfrwt>
<totfact> 0.83637382E+02</totfact>
</mgrwt>
</event>
<event>
 4    1  0.1351183E-004  0.4205717E+03  0.7818608E-02  0.1036880E+00
         -2   -1    0    0    0  501 -0.00000000000E+00  0.00000000000E+00  0.82425415675E+02  0.82425415714E+02  0.25500000000E-02 0. -1.
          2   -1    0    0  501    0  0.00000000000E+00 -0.00000000000E+00 -0.53648658662E+03  0.53648658663E+03  0.25500000000E-02 0.  1.
    5000001    1    1    2    0    0 -0.58019101515E+02  0.12365967137E+03 -0.36995894556E+03  0.41431455666E+03  0.12700000000E+03 0.  0.
   -5000001    1    1    2    0    0  0.58019101515E+02 -0.12365967137E+03 -0.84102225388E+02  0.20459744568E+03  0.12700000000E+03 0.  0.
<mgrwt>
<rscale>  0 0.42057166E+03</rscale>
<asrwt>0</asrwt>
<pdfrwt beam="1">  1        2 0.76640939E-01 0.42057166E+03</pdfrwt>
<pdfrwt beam="2">  1       -2 0.11775060E-01 0.42057166E+03</pdfrwt>
<totfact> 0.32105106E+03</totfact>
</mgrwt>
</event>
<event>
 4    1  0.1351183E-004  0.2978434E+03  0.7818608E-02  0.1086324E+00
         -2   -1    0    0    0  501 -0.00000000000E+00  0.00000000000E+00  0.39279238047E+03  0.39279238048E+03  0.25500000000E-02 0. -1.
          2   -1    0    0  501    0  0.00000000000E+00 -0.00000000000E+00 -0.56461559183E+02  0.56461559241E+02  0.25500000000E-02 0.  1.
    5000001    1    1    2    0    0  0.42179245363E+02  0.49715176290E+02  0.23212367933E+03  0.27250888059E+03  0.12700000000E+03 0.  0.
   -5000001    1    1    2    0    0 -0.42179245363E+02 -0.49715176290E+02  0.10420714196E+03  0.17674505913E+03  0.12700000000E+03 0.  0.
<mgrwt>
<rscale>  0 0.29784338E+03</rscale>
<asrwt>0</asrwt>
<pdfrwt beam="1">  1        2 0.80659373E-02 0.29784338E+03</pdfrwt>
<pdfrwt beam="2">  1       -2 0.56113195E-01 0.29784338E+03</pdfrwt>
<totfact> 0.25571948E+03</totfact>
</mgrwt>
</event>
<event>
 4    1  0.1351183E-004  0.4227337E+03  0.7818608E-02  0.1036180E+00
          2   -1    0    0  501    0  0.00000000000E+00  0.00000000000E+00  0.17315834486E+04  0.17315834486E+04  0.25500000000E-02 0.  1.
         -2   -1    0    0    0  501 -0.00000000000E+00 -0.00000000000E+00 -0.25800631389E+02  0.25800631515E+02  0.25500000000E-02 0. -1.
    5000001    1    1    2    0    0  0.28447809079E+02 -0.77679062444E+02  0.24044792483E+03  0.28423145346E+03  0.12700000000E+03 0.  0.
   -5000001    1    1    2    0    0 -0.28447809079E+02  0.77679062444E+02  0.14653348924E+04  0.14731526267E+04  0.12700000000E+03 0.  0.
<mgrwt>
<rscale>  0 0.42273371E+03</rscale>
<asrwt>0</asrwt>
<pdfrwt beam="1">  1        2 0.24736911E+00 0.42273371E+03</pdfrwt>
<pdfrwt beam="2">  1       -2 0.36858038E-02 0.42273371E+03</pdfrwt>
<totfact> 0.37171564E+03</totfact>
</mgrwt>
</event>
<event>
 4    1  0.1351183E-004  0.6331220E+03  0.7818608E-02  0.9838975E-01
          2   -1    0    0  501    0  0.00000000000E+00  0.00000000000E+00  0.20440296037E+04  0.20440296037E+04  0.25500000000E-02 0.  1.
         -2   -1    0    0    0  501 -0.00000000000E+00 -0.00000000000E+00 -0.49026131867E+02  0.49026131933E+02  0.25500000000E-02 0. -1.
    5000001    1    1    2    0    0 -0.22433267286E+03  0.11523843996E+03  0.52443257686E+03  0.59562032691E+03  0.12700000000E+03 0.  0.
   -5000001    1    1    2    0    0  0.22433267286E+03 -0.11523843996E+03  0.14705708950E+04  0.14974354087E+04  0.12700000000E+03 0.  0.
<mgrwt>
<rscale>  0 0.63312199E+03</rscale>
<asrwt>0</asrwt>
<pdfrwt beam="1">  1        2 0.29200410E+00 0.63312199E+03</pdfrwt>
<pdfrwt beam="2">  1       -2 0.70037363E-02 0.63312199E+03</pdfrwt>
<totfact> 0.95153901E+02</totfact>
</mgrwt>
</event>
<event>
 4    1  0.1351183E-004  0.3192506E+03  0.7818608E-02  0.1075995E+00
          2   -1    0    0  501    0  0.00000000000E+00  0.00000000000E+00  0.48595907030E+03  0.48595907030E+03  0.25500000000E-02 0.  1.
         -2   -1    0    0    0  501 -0.00000000000E+00 -0.00000000000E+00 -0.52432886342E+02  0.52432886404E+02  0.25500000000E-02 0. -1.
    5000001    1    1    2    0    0 -0.71443766988E+02 -0.59004269536E+02  0.17010301963E+03  0.23162416315E+03  0.12700000000E+03 0.  0.
   -5000001    1    1    2    0    0  0.71443766988E+02  0.59004269536E+02  0.26342316432E+03  0.30676779356E+03  0.12700000000E+03 0.  0.
<mgrwt>
<rscale>  0 0.31925060E+03</rscale>
<asrwt>0</asrwt>
<pdfrwt beam="1">  1        2 0.69422722E-01 0.31925060E+03</pdfrwt>
<pdfrwt beam="2">  1       -2 0.74904126E-02 0.31925060E+03</pdfrwt>
<totfact> 0.73306124E+03</totfact>
</mgrwt>
</event>
<event>
 4    1  0.1351183E-004  0.2949942E+03  0.7818608E-02  0.1087770E+00
         -2   -1    0    0    0  501 -0.00000000000E+00  0.00000000000E+00  0.19525949636E+02  0.19525949803E+02  0.25500000000E-02 0. -1.
          2   -1    0    0  501    0  0.00000000000E+00 -0.00000000000E+00 -0.11141782271E+04  0.11141782271E+04  0.25500000000E-02 0.  1.
    5000001    1    1    2    0    0 -0.41109659524E+02  0.62654084889E+02 -0.55998494842E+03  0.57907484915E+03  0.12700000000E+03 0.  0.
   -5000001    1    1    2    0    0  0.41109659524E+02 -0.62654084889E+02 -0.53466732900E+03  0.55462932771E+03  0.12700000000E+03 0.  0.
<mgrwt>
<rscale>  0 0.29499416E+03</rscale>
<asrwt>0</asrwt>
<pdfrwt beam="1">  1        2 0.15916828E+00 0.29499416E+03</pdfrwt>
<pdfrwt beam="2">  1       -2 0.27894221E-02 0.29499416E+03</pdfrwt>
<totfact> 0.11814568E+04</totfact>
</mgrwt>
</event>
<event>
 4    1  0.1351183E-004  0.4054224E+03  0.7818608E-02  0.1041918E+00
         -2   -1    0    0    0  501 -0.00000000000E+00  0.00000000000E+00  0.34080579529E+02  0.34080579624E+02  0.25500000000E-02 0. -1.
          2   -1    0    0  501    0  0.00000000000E+00 -0.00000000000E+00 -0.12057255919E+04  0.12057255919E+04  0.25500000000E-02 0.  1.
    5000001    1    1    2    0    0 -0.15548393619E+03 -0.26951941156E+02 -0.60973908863E+03  0.64250479978E+03  0.12700000000E+03 0.  0.
   -5000001    1    1    2    0    0  0.15548393619E+03  0.26951941156E+02 -0.56190592371E+03  0.59730137171E+03  0.12700000000E+03 0.  0.
<mgrwt>
<rscale>  0 0.40542238E+03</rscale>
<asrwt>0</asrwt>
<pdfrwt beam="1">  1        2 0.17224649E+00 0.40542238E+03</pdfrwt>
<pdfrwt beam="2">  1       -2 0.48686550E-02 0.40542238E+03</pdfrwt>
<totfact> 0.45600844E+03</totfact>
</mgrwt>
</event>
<event>
 4    1  0.1351183E-004  0.7933578E+03  0.7818608E-02  0.9569681E-01
         -2   -1    0    0    0  501 -0.00000000000E+00  0.00000000000E+00  0.58779338511E+02  0.58779338566E+02  0.25500000000E-02 0. -1.
          2   -1    0    0  501    0  0.00000000000E+00 -0.00000000000E+00 -0.26770318487E+04  0.26770318487E+04  0.25500000000E-02 0.  1.
    5000001    1    1    2    0    0 -0.22256962111E+03 -0.19277612741E+03 -0.50390357218E+03  0.59728358557E+03  0.12700000000E+03 0.  0.
   -5000001    1    1    2    0    0  0.22256962111E+03  0.19277612741E+03 -0.21143489380E+04  0.21385276017E+04  0.12700000000E+03 0.  0.
<mgrwt>
<rscale>  0 0.79335783E+03</rscale>
<asrwt>0</asrwt>
<pdfrwt beam="1">  1        2 0.38243304E+00 0.79335783E+03</pdfrwt>
<pdfrwt beam="2">  1       -2 0.83970500E-02 0.79335783E+03</pdfrwt>
<totfact> 0.33386498E+02</totfact>
</mgrwt>
</event>
<event>
 4    1  0.1351183E-004  0.4860993E+03  0.7818608E-02  0.1017472E+00
          2   -1    0    0  501    0  0.00000000000E+00  0.00000000000E+00  0.76279332514E+02  0.76279332557E+02  0.25500000000E-02 0.  1.
         -2   -1    0    0    0  501 -0.00000000000E+00 -0.00000000000E+00 -0.77443158394E+03  0.77443158394E+03  0.25500000000E-02 0. -1.
    5000001    1    1    2    0    0  0.68902475010E+02 -0.19161206923E+03 -0.41643448151E+03  0.48063438654E+03  0.12700000000E+03 0.  0.
   -5000001    1    1    2    0    0 -0.68902475010E+02  0.19161206923E+03 -0.28171776991E+03  0.37007652996E+03  0.12700000000E+03 0.  0.
<mgrwt>
<rscale>  0 0.48609927E+03</rscale>
<asrwt>0</asrwt>
<pdfrwt beam="1">  1        2 0.10897048E-01 0.48609927E+03</pdfrwt>
<pdfrwt beam="2">  1       -2 0.11063308E+00 0.48609927E+03</pdfrwt>
<totfact> 0.39048358E+02</totfact>
</mgrwt>
</event>
<event>
 4    1  0.1351183E-004  0.3308273E+03  0.7818608E-02  0.1070771E+00
         -2   -1    0    0    0  501 -0.00000000000E+00  0.00000000000E+00  0.68227926186E+01  0.68227930952E+01  0.25500000000E-02 0. -1.
          2   -1    0    0  501    0  0.00000000000E+00 -0.00000000000E+00 -0.40103342497E+04  0.40103342497E+04  0.25500000000E-02 0.  1.
    5000001    1    1    2    0    0  0.95127310492E+02 -0.23610085304E+02 -0.15121090037E+04  0.15205950416E+04  0.12700000000E+03 0.  0.
   -5000001    1    1    2    0    0 -0.95127310492E+02  0.23610085304E+02 -0.24914024534E+04  0.24965620012E+04  0.12700000000E+03 0.  0.
<mgrwt>
<rscale>  0 0.33082733E+03</rscale>
<asrwt>0</asrwt>
<pdfrwt beam="1">  1        2 0.57290338E+00 0.33082733E+03</pdfrwt>
<pdfrwt beam="2">  1       -2 0.97468726E-03 0.33082733E+03</pdfrwt>
<totfact> 0.15634222E+03</totfact>
</mgrwt>
</event>
<event>
 4    1  0.1351183E-004  0.9216291E+03  0.7818608E-02  0.9398941E-01
         -2   -1    0    0    0  501 -0.00000000000E+00  0.00000000000E+00  0.98378878046E+03  0.98378878047E+03  0.25500000000E-02 0. -1.
          2   -1    0    0  501    0  0.00000000000E+00 -0.00000000000E+00 -0.21584924052E+03  0.21584924054E+03  0.25500000000E-02 0.  1.
    5000001    1    1    2    0    0 -0.31121131939E+03  0.16682544630E+03  0.35823327738E+02  0.37695560171E+03  0.12700000000E+03 0.  0.
   -5000001    1    1    2    0    0  0.31121131939E+03 -0.16682544630E+03  0.73211621220E+03  0.82268241930E+03  0.12700000000E+03 0.  0.
<mgrwt>
<rscale>  0 0.92162913E+03</rscale>
<asrwt>0</asrwt>
<pdfrwt beam="1">  1        2 0.30835606E-01 0.92162913E+03</pdfrwt>
<pdfrwt beam="2">  1       -2 0.14054125E+00 0.92162913E+03</pdfrwt>
<totfact> 0.61485266E+01</totfact>
</mgrwt>
</event>
<event>
 4    1  0.1351183E-004  0.1359290E+04  0.7818608E-02  0.8983825E-01
         -2   -1    0    0    0  501 -0.00000000000E+00  0.00000000000E+00  0.92765135168E+03  0.92765135168E+03  0.25500000000E-02 0. -1.
          2   -1    0    0  501    0  0.00000000000E+00 -0.00000000000E+00 -0.49794282611E+03  0.49794282612E+03  0.25500000000E-02 0.  1.
    5000001    1    1    2    0    0 -0.49577485791E+03 -0.44243200792E+03  0.28322259235E+03  0.73340495512E+03  0.12700000000E+03 0.  0.
   -5000001    1    1    2    0    0  0.49577485791E+03  0.44243200792E+03  0.14648593321E+03  0.69218922268E+03  0.12700000000E+03 0.  0.
<mgrwt>
<rscale>  0 0.13592900E+04</rscale>
<asrwt>0</asrwt>
<pdfrwt beam="1">  1        2 0.71134689E-01 0.13592900E+04</pdfrwt>
<pdfrwt beam="2">  1       -2 0.13252162E+00 0.13592900E+04</pdfrwt>
<totfact> 0.27265749E+01</totfact>
</mgrwt>
</event>
<event>
 4    1  0.1351183E-004  0.4857102E+03  0.7818608E-02  0.1017578E+00
          2   -1    0    0  501    0  0.00000000000E+00  0.00000000000E+00  0.41182101735E+04  0.41182101735E+04  0.25500000000E-02 0.  1.
         -2   -1    0    0    0  501 -0.00000000000E+00 -0.00000000000E+00 -0.14321416736E+02  0.14321416963E+02  0.25500000000E-02 0. -1.
    5000001    1    1    2    0    0 -0.10286202748E+02  0.20387728616E+03  0.23439452037E+04  0.23562427446E+04  0.12700000000E+03 0.  0.
   -5000001    1    1    2    0    0  0.10286202748E+02 -0.20387728616E+03  0.17599435530E+04  0.17762888458E+04  0.12700000000E+03 0.  0.
<mgrwt>
<rscale>  0 0.48571022E+03</rscale>
<asrwt>0</asrwt>
<pdfrwt beam="1">  1        2 0.58831638E+00 0.48571022E+03</pdfrwt>
<pdfrwt beam="2">  1       -2 0.20459145E-02 0.48571022E+03</pdfrwt>
<totfact> 0.43163476E+02</totfact>
</mgrwt>
</event>
<event>
 4    1  0.1351183E-004  0.5593130E+03  0.7818608E-02  0.9993610E-01
         -2   -1    0    0    0  501 -0.00000000000E+00  0.00000000000E+00  0.41834269258E+02  0.41834269335E+02  0.25500000000E-02 0. -1.
          2   -1    0    0  501    0  0.00000000000E+00 -0.00000000000E+00 -0.18694664047E+04  0.18694664047E+04  0.25500000000E-02 0.  1.
    5000001    1    1    2    0    0  0.20722281308E+03 -0.13315862615E+03 -0.10419620225E+04  0.10781866120E+04  0.12700000000E+03 0.  0.
   -5000001    1    1    2    0    0 -0.20722281308E+03  0.13315862615E+03 -0.78567011293E+03  0.83311406202E+03  0.12700000000E+03 0.  0.
<mgrwt>
<rscale>  0 0.55931301E+03</rscale>
<asrwt>0</asrwt>
<pdfrwt beam="1">  1        2 0.26706658E+00 0.55931301E+03</pdfrwt>
<pdfrwt beam="2">  1       -2 0.59763254E-02 0.55931301E+03</pdfrwt>
<totfact> 0.15001486E+03</totfact>
</mgrwt>
</event>
<event>
 4    1  0.1351183E-004  0.3153110E+03  0.7818608E-02  0.1077828E+00
          2   -1    0    0  501    0  0.00000000000E+00  0.00000000000E+00  0.74813609191E+03  0.74813609191E+03  0.25500000000E-02 0.  1.
         -2   -1    0    0    0  501 -0.00000000000E+00 -0.00000000000E+00 -0.33222901436E+02  0.33222901534E+02  0.25500000000E-02 0. -1.
    5000001    1    1    2    0    0  0.60714259401E+02  0.61377123822E+02  0.26904583850E+03  0.30978708145E+03  0.12700000000E+03 0.  0.
   -5000001    1    1    2    0    0 -0.60714259401E+02 -0.61377123822E+02  0.44586735198E+03  0.47157191199E+03  0.12700000000E+03 0.  0.
<mgrwt>
<rscale>  0 0.31531097E+03</rscale>
<asrwt>0</asrwt>
<pdfrwt beam="1">  1        2 0.10687659E+00 0.31531097E+03</pdfrwt>
<pdfrwt beam="2">  1       -2 0.47461285E-02 0.31531097E+03</pdfrwt>
<totfact> 0.89936194E+03</totfact>
</mgrwt>
</event>
<event>
 4    1  0.1351183E-004  0.5962220E+03  0.7818608E-02  0.9913275E-01
          2   -1    0    0  501    0  0.00000000000E+00  0.00000000000E+00  0.18508696403E+03  0.18508696405E+03  0.25500000000E-02 0.  1.
         -2   -1    0    0    0  501 -0.00000000000E+00 -0.00000000000E+00 -0.48015354356E+03  0.48015354357E+03  0.25500000000E-02 0. -1.
    5000001    1    1    2    0    0  0.15801630242E+02  0.26471721193E+03 -0.92687506556E+02  0.30829347655E+03  0.12700000000E+03 0.  0.
   -5000001    1    1    2    0    0 -0.15801630242E+02 -0.26471721193E+03 -0.20237907297E+03  0.35694703107E+03  0.12700000000E+03 0.  0.
<mgrwt>
<rscale>  0 0.59622198E+03</rscale>
<asrwt>0</asrwt>
<pdfrwt beam="1">  1        2 0.26440995E-01 0.59622198E+03</pdfrwt>
<pdfrwt beam="2">  1       -2 0.68593363E-01 0.59622198E+03</pdfrwt>
<totfact> 0.40304789E+02</totfact>
</mgrwt>
</event>
<event>
 4    1  0.1351183E-004  0.5617205E+03  0.7818608E-02  0.9988169E-01
         -2   -1    0    0    0  501 -0.00000000000E+00  0.00000000000E+00  0.66834534006E+02  0.66834534054E+02  0.25500000000E-02 0. -1.
          2   -1    0    0  501    0  0.00000000000E+00 -0.00000000000E+00 -0.11802654606E+04  0.11802654606E+04  0.25500000000E-02 0.  1.
    5000001    1    1    2    0    0 -0.94751593299E+02  0.22451948442E+03 -0.42789685995E+03  0.50853867707E+03  0.12700000000E+03 0.  0.
   -5000001    1    1    2    0    0  0.94751593299E+02 -0.22451948442E+03 -0.68553406666E+03  0.73856131761E+03  0.12700000000E+03 0.  0.
<mgrwt>
<rscale>  0 0.56172054E+03</rscale>
<asrwt>0</asrwt>
<pdfrwt beam="1">  1        2 0.16860934E+00 0.56172054E+03</pdfrwt>
<pdfrwt beam="2">  1       -2 0.95477913E-02 0.56172054E+03</pdfrwt>
<totfact> 0.16352278E+03</totfact>
</mgrwt>
</event>
<event>
 4    1  0.1351183E-004  0.3607822E+03  0.7818608E-02  0.1058275E+00
         -2   -1    0    0    0  501 -0.00000000000E+00  0.00000000000E+00  0.14808128057E+03  0.14808128060E+03  0.25500000000E-02 0. -1.
          2   -1    0    0  501    0  0.00000000000E+00 -0.00000000000E+00 -0.21975054758E+03  0.21975054760E+03  0.25500000000E-02 0.  1.
    5000001    1    1    2    0    0  0.39807705325E+02  0.91174230173E+02  0.46455244554E+02  0.16788234987E+03  0.12700000000E+03 0.  0.
   -5000001    1    1    2    0    0 -0.39807705325E+02 -0.91174230173E+02 -0.11812451156E+03  0.19994947832E+03  0.12700000000E+03 0.  0.
<mgrwt>
<rscale>  0 0.36078216E+03</rscale>
<asrwt>0</asrwt>
<pdfrwt beam="1">  1        2 0.31392935E-01 0.36078216E+03</pdfrwt>
<pdfrwt beam="2">  1       -2 0.21154469E-01 0.36078216E+03</pdfrwt>
<totfact> 0.31961788E+03</totfact>
</mgrwt>
</event>
<event>
 4    1  0.1351183E-004  0.1480873E+04  0.7818608E-02  0.8897273E-01
         -2   -1    0    0    0  501 -0.00000000000E+00  0.00000000000E+00  0.52190582387E+03  0.52190582387E+03  0.25500000000E-02 0.  1.
          2   -1    0    0  501    0  0.00000000000E+00 -0.00000000000E+00 -0.10504695570E+04  0.10504695570E+04  0.25500000000E-02 0. -1.
    5000001    1    1    2    0    0  0.70178942033E+03 -0.13099462703E+03 -0.10519334850E+03  0.73270909874E+03  0.12700000000E+03 0.  0.
   -5000001    1    1    2    0    0 -0.70178942033E+03  0.13099462703E+03 -0.42337038467E+03  0.83966628217E+03  0.12700000000E+03 0.  0.
<mgrwt>
<rscale>  0 0.14808730E+04</rscale>
<asrwt>0</asrwt>
<pdfrwt beam="1">  1        2 0.15006708E+00 0.14808730E+04</pdfrwt>
<pdfrwt beam="2">  1       -2 0.74557975E-01 0.14808730E+04</pdfrwt>
<totfact> 0.41025470E+01</totfact>
</mgrwt>
</event>
<event>
 4    1  0.1351183E-004  0.3082556E+03  0.7818608E-02  0.1081185E+00
          2   -1    0    0  501    0  0.00000000000E+00  0.00000000000E+00  0.42773143789E+02  0.42773143865E+02  0.25500000000E-02 0.  1.
         -2   -1    0    0    0  501 -0.00000000000E+00 -0.00000000000E+00 -0.55538079863E+03  0.55538079864E+03  0.25500000000E-02 0. -1.
    5000001    1    1    2    0    0  0.82467232656E+02 -0.16212177262E+02 -0.21027373834E+03  0.25962997552E+03  0.12700000000E+03 0.  0.
   -5000001    1    1    2    0    0 -0.82467232656E+02  0.16212177262E+02 -0.30233391651E+03  0.33852396698E+03  0.12700000000E+03 0.  0.
<mgrwt>
<rscale>  0 0.30825563E+03</rscale>
<asrwt>0</asrwt>
<pdfrwt beam="1">  1        2 0.61104494E-02 0.30825563E+03</pdfrwt>
<pdfrwt beam="2">  1       -2 0.79340110E-01 0.30825563E+03</pdfrwt>
<totfact> 0.17546906E+03</totfact>
</mgrwt>
</event>
<event>
 4    1  0.1351183E-004  0.7725280E+03  0.7818608E-02  0.9600656E-01
         -2   -1    0    0    0  501 -0.00000000000E+00  0.00000000000E+00  0.16776039285E+03  0.16776039287E+03  0.25500000000E-02 0. -1.
          2   -1    0    0  501    0  0.00000000000E+00 -0.00000000000E+00 -0.88936301499E+03  0.88936301499E+03  0.25500000000E-02 0.  1.
    5000001    1    1    2    0    0 -0.10183908915E+03 -0.34352387859E+03 -0.45452421011E+03  0.59253785771E+03  0.12700000000E+03 0.  0.
   -5000001    1    1    2    0    0  0.10183908915E+03  0.34352387859E+03 -0.26707841203E+03  0.46458555015E+03  0.12700000000E+03 0.  0.
<mgrwt>
<rscale>  0 0.77252803E+03</rscale>
<asrwt>0</asrwt>
<pdfrwt beam="1">  1        2 0.12705186E+00 0.77252803E+03</pdfrwt>
<pdfrwt beam="2">  1       -2 0.23965771E-01 0.77252803E+03</pdfrwt>
<totfact> 0.51268785E+02</totfact>
</mgrwt>
</event>
<event>
 4    1  0.1351183E-004  0.4143331E+03  0.7818608E-02  0.1038927E+00
          2   -1    0    0  501    0  0.00000000000E+00  0.00000000000E+00  0.10905422751E+04  0.10905422751E+04  0.25500000000E-02 0.  1.
         -2   -1    0    0    0  501 -0.00000000000E+00 -0.00000000000E+00 -0.39354718910E+02  0.39354718993E+02  0.25500000000E-02 0. -1.
    5000001    1    1    2    0    0 -0.35671233314E+02  0.15941925816E+03  0.55314186319E+03  0.59057756271E+03  0.12700000000E+03 0.  0.
   -5000001    1    1    2    0    0  0.35671233314E+02 -0.15941925816E+03  0.49804569303E+03  0.53931943142E+03  0.12700000000E+03 0.  0.
<mgrwt>
<rscale>  0 0.41433313E+03</rscale>
<asrwt>0</asrwt>
<pdfrwt beam="1">  1        2 0.15579175E+00 0.41433313E+03</pdfrwt>
<pdfrwt beam="2">  1       -2 0.56221029E-02 0.41433313E+03</pdfrwt>
<totfact> 0.42424804E+03</totfact>
</mgrwt>
</event>
<event>
 4    1  0.1351183E-004  0.4354385E+03  0.7818608E-02  0.1032156E+00
         -2   -1    0    0    0  501 -0.00000000000E+00  0.00000000000E+00  0.22512672847E+03  0.22512672848E+03  0.25500000000E-02 0. -1.
          2   -1    0    0  501    0  0.00000000000E+00 -0.00000000000E+00 -0.21055550554E+03  0.21055550556E+03  0.25500000000E-02 0.  1.
    5000001    1    1    2    0    0  0.17297572976E+03 -0.28172699196E+02 -0.16357428100E+02  0.21705038475E+03  0.12700000000E+03 0.  0.
   -5000001    1    1    2    0    0 -0.17297572976E+03  0.28172699196E+02  0.30928651027E+02  0.21863184928E+03  0.12700000000E+03 0.  0.
<mgrwt>
<rscale>  0 0.43543850E+03</rscale>
<asrwt>0</asrwt>
<pdfrwt beam="1">  1        2 0.30079358E-01 0.43543850E+03</pdfrwt>
<pdfrwt beam="2">  1       -2 0.32160961E-01 0.43543850E+03</pdfrwt>
<totfact> 0.15862695E+03</totfact>
</mgrwt>
</event>
<event>
 4    1  0.1351183E-004  0.4425755E+03  0.7818608E-02  0.1029960E+00
          2   -1    0    0  501    0  0.00000000000E+00  0.00000000000E+00  0.97416124115E+03  0.97416124115E+03  0.25500000000E-02 0.  1.
         -2   -1    0    0    0  501 -0.00000000000E+00 -0.00000000000E+00 -0.50267097863E+02  0.50267097928E+02  0.25500000000E-02 0. -1.
    5000001    1    1    2    0    0  0.90870659922E+02 -0.46150537006E+02  0.11511368139E+03  0.19941792433E+03  0.12700000000E+03 0.  0.
   -5000001    1    1    2    0    0 -0.90870659922E+02  0.46150537006E+02  0.80878046190E+03  0.82501041475E+03  0.12700000000E+03 0.  0.
<mgrwt>
<rscale>  0 0.44257546E+03</rscale>
<asrwt>0</asrwt>
<pdfrwt beam="1">  1        2 0.13916590E+00 0.44257546E+03</pdfrwt>
<pdfrwt beam="2">  1       -2 0.71810136E-02 0.44257546E+03</pdfrwt>
<totfact> 0.33973012E+03</totfact>
</mgrwt>
</event>
<event>
 4    1  0.1351183E-004  0.3764164E+03  0.7818608E-02  0.1052266E+00
          2   -1    0    0  501    0  0.00000000000E+00  0.00000000000E+00  0.42937772825E+03  0.42937772826E+03  0.25500000000E-02 0.  1.
         -2   -1    0    0    0  501 -0.00000000000E+00 -0.00000000000E+00 -0.82496889953E+02  0.82496889993E+02  0.25500000000E-02 0. -1.
    5000001    1    1    2    0    0  0.54174491251E+02 -0.86013123230E+02  0.44718125726E+02  0.16870638292E+03  0.12700000000E+03 0.  0.
   -5000001    1    1    2    0    0 -0.54174491251E+02  0.86013123230E+02  0.30216271257E+03  0.34316823533E+03  0.12700000000E+03 0.  0.
<mgrwt>
<rscale>  0 0.37641640E+03</rscale>
<asrwt>0</asrwt>
<pdfrwt beam="1">  1        2 0.61339675E-01 0.37641640E+03</pdfrwt>
<pdfrwt beam="2">  1       -2 0.11785270E-01 0.37641640E+03</pdfrwt>
<totfact> 0.41026513E+03</totfact>
</mgrwt>
</event>
<event>
 4    1  0.1351183E-004  0.6835893E+03  0.7818608E-02  0.9745716E-01
         -2   -1    0    0    0  501 -0.00000000000E+00  0.00000000000E+00  0.29116921254E+03  0.29116921255E+03  0.25500000000E-02 0. -1.
          2   -1    0    0  501    0  0.00000000000E+00 -0.00000000000E+00 -0.40122233719E+03  0.40122233719E+03  0.25500000000E-02 0.  1.
    5000001    1    1    2    0    0  0.30238421548E+03  0.65583173800E+02  0.16287606386E+02  0.33486064650E+03  0.12700000000E+03 0.  0.
   -5000001    1    1    2    0    0 -0.30238421548E+03 -0.65583173800E+02 -0.12634073103E+03  0.35753090324E+03  0.12700000000E+03 0.  0.
<mgrwt>
<rscale>  0 0.68358933E+03</rscale>
<asrwt>0</asrwt>
<pdfrwt beam="1">  1        2 0.57317476E-01 0.68358933E+03</pdfrwt>
<pdfrwt beam="2">  1       -2 0.41595602E-01 0.68358933E+03</pdfrwt>
<totfact> 0.47524946E+02</totfact>
</mgrwt>
</event>
<event>
 4    1  0.1351183E-004  0.4909063E+03  0.7818608E-02  0.1016180E+00
         -2   -1    0    0    0  501 -0.00000000000E+00  0.00000000000E+00  0.18421113064E+03  0.18421113066E+03  0.25500000000E-02 0. -1.
          2   -1    0    0  501    0  0.00000000000E+00 -0.00000000000E+00 -0.32705543502E+03  0.32705543503E+03  0.25500000000E-02 0.  1.
    5000001    1    1    2    0    0 -0.47480821041E+02 -0.19535144580E+03 -0.13478659454E+03  0.27333686508E+03  0.12700000000E+03 0.  0.
   -5000001    1    1    2    0    0  0.47480821041E+02  0.19535144580E+03 -0.80577098315E+01  0.23792970061E+03  0.12700000000E+03 0.  0.
<mgrwt>
<rscale>  0 0.49090631E+03</rscale>
<asrwt>0</asrwt>
<pdfrwt beam="1">  1        2 0.46722205E-01 0.49090631E+03</pdfrwt>
<pdfrwt beam="2">  1       -2 0.26315876E-01 0.49090631E+03</pdfrwt>
<totfact> 0.14101940E+03</totfact>
</mgrwt>
</event>
<event>
 4    1  0.1351183E-004  0.6228104E+03  0.7818608E-02  0.9859180E-01
         -2   -1    0    0    0  501 -0.00000000000E+00  0.00000000000E+00  0.20718982089E+03  0.20718982091E+03  0.25500000000E-02 0. -1.
          2   -1    0    0  501    0  0.00000000000E+00 -0.00000000000E+00 -0.46804028843E+03  0.46804028844E+03  0.25500000000E-02 0.  1.
    5000001    1    1    2    0    0 -0.23173046824E+03 -0.14551592010E+03 -0.21419623645E+03  0.36997691904E+03  0.12700000000E+03 0.  0.
   -5000001    1    1    2    0    0  0.23173046824E+03  0.14551592010E+03 -0.46654231087E+02  0.30525319031E+03  0.12700000000E+03 0.  0.
<mgrwt>
<rscale>  0 0.62281035E+03</rscale>
<asrwt>0</asrwt>
<pdfrwt beam="1">  1        2 0.66862898E-01 0.62281035E+03</pdfrwt>
<pdfrwt beam="2">  1       -2 0.29598546E-01 0.62281035E+03</pdfrwt>
<totfact> 0.76420131E+02</totfact>
</mgrwt>
</event>
<event>
 4    1  0.1351183E-004  0.8903344E+03  0.7818608E-02  0.9437745E-01
          2   -1    0    0  501    0  0.00000000000E+00  0.00000000000E+00  0.11614170037E+04  0.11614170037E+04  0.25500000000E-02 0. -1.
         -2   -1    0    0    0  501 -0.00000000000E+00 -0.00000000000E+00 -0.17063107150E+03  0.17063107152E+03  0.25500000000E-02 0.  1.
    5000001    1    1    2    0    0 -0.26809640245E+03  0.32988101565E+03  0.55031635137E+03  0.70687640509E+03  0.12700000000E+03 0.  0.
   -5000001    1    1    2    0    0  0.26809640245E+03 -0.32988101565E+03  0.44046958083E+03  0.62517167013E+03  0.12700000000E+03 0.  0.
<mgrwt>
<rscale>  0 0.89033438E+03</rscale>
<asrwt>0</asrwt>
<pdfrwt beam="1">  1        2 0.16591672E+00 0.89033438E+03</pdfrwt>
<pdfrwt beam="2">  1       -2 0.24375867E-01 0.89033438E+03</pdfrwt>
<totfact> 0.33755571E+02</totfact>
</mgrwt>
</event>
<event>
 4    1  0.1351183E-004  0.6788508E+03  0.7818608E-02  0.9754100E-01
         -2   -1    0    0    0  501 -0.00000000000E+00  0.00000000000E+00  0.76342645253E+02  0.76342645296E+02  0.25500000000E-02 0. -1.
          2   -1    0    0  501    0  0.00000000000E+00 -0.00000000000E+00 -0.15091121462E+04  0.15091121462E+04  0.25500000000E-02 0.  1.
    5000001    1    1    2    0    0  0.68161182111E+02  0.24383462973E+03 -0.27958205236E+03  0.39799044889E+03  0.12700000000E+03 0.  0.
   -5000001    1    1    2    0    0 -0.68161182111E+02 -0.24383462973E+03 -0.11531874486E+04  0.11874643427E+04  0.12700000000E+03 0.  0.
<mgrwt>
<rscale>  0 0.67885083E+03</rscale>
<asrwt>0</asrwt>
<pdfrwt beam="1">  1        2 0.21558743E+00 0.67885083E+03</pdfrwt>
<pdfrwt beam="2">  1       -2 0.10906093E-01 0.67885083E+03</pdfrwt>
<totfact> 0.87202841E+02</totfact>
</mgrwt>
</event>
<event>
 4    1  0.1351183E-004  0.3057410E+03  0.7818608E-02  0.1082405E+00
         -2   -1    0    0    0  501 -0.00000000000E+00  0.00000000000E+00  0.64640740555E+02  0.64640740606E+02  0.25500000000E-02 0. -1.
          2   -1    0    0  501    0  0.00000000000E+00 -0.00000000000E+00 -0.36152730124E+03  0.36152730124E+03  0.25500000000E-02 0.  1.
    5000001    1    1    2    0    0 -0.58145535493E+02 -0.26944732377E+02 -0.22646939539E+03  0.26744029044E+03  0.12700000000E+03 0.  0.
   -5000001    1    1    2    0    0  0.58145535493E+02  0.26944732377E+02 -0.70417165285E+02  0.15872775141E+03  0.12700000000E+03 0.  0.
<mgrwt>
<rscale>  0 0.30574102E+03</rscale>
<asrwt>0</asrwt>
<pdfrwt beam="1">  1        2 0.51646756E-01 0.30574102E+03</pdfrwt>
<pdfrwt beam="2">  1       -2 0.92343917E-02 0.30574102E+03</pdfrwt>
<totfact> 0.72753178E+03</totfact>
</mgrwt>
</event>
<event>
 4    1  0.1351183E-004  0.3396515E+03  0.7818608E-02  0.1066944E+00
          2   -1    0    0  501    0  0.00000000000E+00  0.00000000000E+00  0.11846613530E+04  0.11846613530E+04  0.25500000000E-02 0.  1.
         -2   -1    0    0    0  501 -0.00000000000E+00 -0.00000000000E+00 -0.24345177534E+02  0.24345177668E+02  0.25500000000E-02 0. -1.
    5000001    1    1    2    0    0 -0.10580074506E+03  0.21528858719E+02  0.46456850551E+03  0.49356882572E+03  0.12700000000E+03 0.  0.
   -5000001    1    1    2    0    0  0.10580074506E+03 -0.21528858719E+02  0.69574766992E+03  0.71543770492E+03  0.12700000000E+03 0.  0.
<mgrwt>
<rscale>  0 0.33965153E+03</rscale>
<asrwt>0</asrwt>
<pdfrwt beam="1">  1        2 0.16923734E+00 0.33965153E+03</pdfrwt>
<pdfrwt beam="2">  1       -2 0.34778824E-02 0.33965153E+03</pdfrwt>
<totfact> 0.77882461E+03</totfact>
</mgrwt>
</event>
<event>
 4    1  0.1351183E-004  0.3451355E+03  0.7818608E-02  0.1064630E+00
          2   -1    0    0  501    0  0.00000000000E+00  0.00000000000E+00  0.54891312257E+03  0.54891312257E+03  0.25500000000E-02 0.  1.
         -2   -1    0    0    0  501 -0.00000000000E+00 -0.00000000000E+00 -0.54251991250E+02  0.54251991310E+02  0.25500000000E-02 0. -1.
    5000001    1    1    2    0    0 -0.11191945882E+03 -0.37364358935E+01  0.30557382699E+03  0.34934837907E+03  0.12700000000E+03 0.  0.
   -5000001    1    1    2    0    0  0.11191945882E+03  0.37364358935E+01  0.18908730432E+03  0.25381673481E+03  0.12700000000E+03 0.  0.
<mgrwt>
<rscale>  0 0.34513551E+03</rscale>
<asrwt>0</asrwt>
<pdfrwt beam="1">  1        2 0.78416163E-01 0.34513551E+03</pdfrwt>
<pdfrwt beam="2">  1       -2 0.77502842E-02 0.34513551E+03</pdfrwt>
<totfact> 0.60776143E+03</totfact>
</mgrwt>
</event>
<event>
 4    1  0.1351183E-004  0.3514041E+03  0.7818608E-02  0.1062040E+00
         -2   -1    0    0    0  501 -0.00000000000E+00  0.00000000000E+00  0.15878612851E+02  0.15878613056E+02  0.25500000000E-02 0. -1.
          2   -1    0    0  501    0  0.00000000000E+00 -0.00000000000E+00 -0.19442010490E+04  0.19442010490E+04  0.25500000000E-02 0.  1.
    5000001    1    1    2    0    0  0.63152249992E+02  0.99633626431E+02 -0.80374106165E+03  0.82221880322E+03  0.12700000000E+03 0.  0.
   -5000001    1    1    2    0    0 -0.63152249992E+02 -0.99633626431E+02 -0.11245813745E+04  0.11378608589E+04  0.12700000000E+03 0.  0.
<mgrwt>
<rscale>  0 0.35140413E+03</rscale>
<asrwt>0</asrwt>
<pdfrwt beam="1">  1        2 0.27774286E+00 0.35140413E+03</pdfrwt>
<pdfrwt beam="2">  1       -2 0.22683745E-02 0.35140413E+03</pdfrwt>
<totfact> 0.60454634E+03</totfact>
</mgrwt>
</event>
<event>
 4    1  0.1351183E-004  0.3823820E+03  0.7818608E-02  0.1050057E+00
          2   -1    0    0  501    0  0.00000000000E+00  0.00000000000E+00  0.33599970786E+04  0.33599970786E+04  0.25500000000E-02 0.  1.
         -2   -1    0    0    0  501 -0.00000000000E+00 -0.00000000000E+00 -0.10879176631E+02  0.10879176930E+02  0.25500000000E-02 0. -1.
    5000001    1    1    2    0    0  0.66412627897E+02 -0.12602504501E+03  0.17758613272E+04  0.17860866168E+04  0.12700000000E+03 0.  0.
   -5000001    1    1    2    0    0 -0.66412627897E+02  0.12602504501E+03  0.15732565748E+04  0.15847896388E+04  0.12700000000E+03 0.  0.
<mgrwt>
<rscale>  0 0.38238202E+03</rscale>
<asrwt>0</asrwt>
<pdfrwt beam="1">  1        2 0.47999994E+00 0.38238202E+03</pdfrwt>
<pdfrwt beam="2">  1       -2 0.15541669E-02 0.38238202E+03</pdfrwt>
<totfact> 0.19517422E+03</totfact>
</mgrwt>
</event>
<event>
 4    1  0.1351183E-004  0.5551887E+03  0.7818608E-02  0.1000300E+00
         -2   -1    0    0    0  501 -0.00000000000E+00  0.00000000000E+00  0.38574435104E+02  0.38574435189E+02  0.25500000000E-02 0. -1.
          2   -1    0    0  501    0  0.00000000000E+00 -0.00000000000E+00 -0.19976601024E+04  0.19976601025E+04  0.25500000000E-02 0.  1.
    5000001    1    1    2    0    0  0.93289392660E+02  0.17063985184E+03 -0.42200370286E+03  0.48170218501E+03  0.12700000000E+03 0.  0.
   -5000001    1    1    2    0    0 -0.93289392660E+02 -0.17063985184E+03 -0.15370819645E+04  0.15545323526E+04  0.12700000000E+03 0.  0.
<mgrwt>
<rscale>  0 0.55518865E+03</rscale>
<asrwt>0</asrwt>
<pdfrwt beam="1">  1        2 0.28537995E+00 0.55518865E+03</pdfrwt>
<pdfrwt beam="2">  1       -2 0.55106349E-02 0.55518865E+03</pdfrwt>
<totfact> 0.14685873E+03</totfact>
</mgrwt>
</event>
<event>
 4    1  0.1351183E-004  0.3664513E+03  0.7818608E-02  0.1056058E+00
          2   -1    0    0  501    0  0.00000000000E+00  0.00000000000E+00  0.13612418937E+03  0.13612418939E+03  0.25500000000E-02 0. -1.
         -2   -1    0    0    0  501 -0.00000000000E+00 -0.00000000000E+00 -0.24662512874E+03  0.24662512876E+03  0.25500000000E-02 0.  1.
    5000001    1    1    2    0    0 -0.12373236131E+03  0.44303182165E+02 -0.41625110128E+02  0.18744097465E+03  0.12700000000E+03 0.  0.
   -5000001    1    1    2    0    0  0.12373236131E+03 -0.44303182165E+02 -0.68875829244E+02  0.19530834350E+03  0.12700000000E+03 0.  0.
<mgrwt>
<rscale>  0 0.36645134E+03</rscale>
<asrwt>0</asrwt>
<pdfrwt beam="1">  1        2 0.19446313E-01 0.36645134E+03</pdfrwt>
<pdfrwt beam="2">  1       -2 0.35232161E-01 0.36645134E+03</pdfrwt>
<totfact> 0.21897370E+03</totfact>
</mgrwt>
</event>
<event>
 4    1  0.1351183E-004  0.2735149E+03  0.7818608E-02  0.1099285E+00
          2   -1    0    0  501    0  0.00000000000E+00  0.00000000000E+00  0.96992447806E+03  0.96992447806E+03  0.25500000000E-02 0.  1.
         -2   -1    0    0    0  501 -0.00000000000E+00 -0.00000000000E+00 -0.19282533883E+02  0.19282534052E+02  0.25500000000E-02 0. -1.
    5000001    1    1    2    0    0 -0.33413994523E+02  0.37886901994E+02  0.45847759423E+03  0.47841678146E+03  0.12700000000E+03 0.  0.
   -5000001    1    1    2    0    0  0.33413994523E+02 -0.37886901994E+02  0.49216434995E+03  0.51079023066E+03  0.12700000000E+03 0.  0.
<mgrwt>
<rscale>  0 0.27351491E+03</rscale>
<asrwt>0</asrwt>
<pdfrwt beam="1">  1        2 0.13856063E+00 0.27351491E+03</pdfrwt>
<pdfrwt beam="2">  1       -2 0.27546478E-02 0.27351491E+03</pdfrwt>
<totfact> 0.14553573E+04</totfact>
</mgrwt>
</event>
<event>
 4    1  0.1351183E-004  0.5660007E+03  0.7818608E-02  0.9978568E-01
         -2   -1    0    0    0  501 -0.00000000000E+00  0.00000000000E+00  0.94730898876E+02  0.94730898911E+02  0.25500000000E-02 0. -1.
          2   -1    0    0  501    0  0.00000000000E+00 -0.00000000000E+00 -0.84543914915E+03  0.84543914915E+03  0.25500000000E-02 0.  1.
    5000001    1    1    2    0    0  0.82429076407E+02 -0.17085914357E+03 -0.65317025983E+03  0.69191602663E+03  0.12700000000E+03 0.  0.
   -5000001    1    1    2    0    0 -0.82429076407E+02  0.17085914357E+03 -0.97537990440E+02  0.24825402143E+03  0.12700000000E+03 0.  0.
<mgrwt>
<rscale>  0 0.56600074E+03</rscale>
<asrwt>0</asrwt>
<pdfrwt beam="1">  1        2 0.12077702E+00 0.56600074E+03</pdfrwt>
<pdfrwt beam="2">  1       -2 0.13532986E-01 0.56600074E+03</pdfrwt>
<totfact> 0.14761889E+03</totfact>
</mgrwt>
</event>
<event>
 4    1  0.1351183E-004  0.3135224E+03  0.7818608E-02  0.1078670E+00
         -2   -1    0    0    0  501 -0.00000000000E+00  0.00000000000E+00  0.32210842320E+02  0.32210842421E+02  0.25500000000E-02 0. -1.
          2   -1    0    0  501    0  0.00000000000E+00 -0.00000000000E+00 -0.76291314526E+03  0.76291314527E+03  0.25500000000E-02 0.  1.
    5000001    1    1    2    0    0  0.72220464092E+02  0.35181047510E+02 -0.47852978404E+03  0.50157078838E+03  0.12700000000E+03 0.  0.
   -5000001    1    1    2    0    0 -0.72220464092E+02 -0.35181047510E+02 -0.25217251890E+03  0.29355319931E+03  0.12700000000E+03 0.  0.
<mgrwt>
<rscale>  0 0.31352241E+03</rscale>
<asrwt>0</asrwt>
<pdfrwt beam="1">  1        2 0.10898758E+00 0.31352241E+03</pdfrwt>
<pdfrwt beam="2">  1       -2 0.46015494E-02 0.31352241E+03</pdfrwt>
<totfact> 0.92025603E+03</totfact>
</mgrwt>
</event>
<event>
 4    1  0.1351183E-004  0.3284140E+03  0.7818608E-02  0.1071841E+00
         -2   -1    0    0    0  501 -0.00000000000E+00  0.00000000000E+00  0.12102067721E+03  0.12102067724E+03  0.25500000000E-02 0. -1.
          2   -1    0    0  501    0  0.00000000000E+00 -0.00000000000E+00 -0.22280442690E+03  0.22280442692E+03  0.25500000000E-02 0.  1.
    5000001    1    1    2    0    0 -0.90068046174E+02 -0.51941910650E+02 -0.45685841010E+02  0.17037139165E+03  0.12700000000E+03 0.  0.
   -5000001    1    1    2    0    0  0.90068046174E+02  0.51941910650E+02 -0.56097908680E+02  0.17345371251E+03  0.12700000000E+03 0.  0.
<mgrwt>
<rscale>  0 0.32841402E+03</rscale>
<asrwt>0</asrwt>
<pdfrwt beam="1">  1        2 0.31829204E-01 0.32841402E+03</pdfrwt>
<pdfrwt beam="2">  1       -2 0.17288668E-01 0.32841402E+03</pdfrwt>
<totfact> 0.44348426E+03</totfact>
</mgrwt>
</event>
<event>
 4    1  0.1351183E-004  0.4361670E+03  0.7818608E-02  0.1031929E+00
          2   -1    0    0  501    0  0.00000000000E+00  0.00000000000E+00  0.57562048303E+03  0.57562048303E+03  0.25500000000E-02 0.  1.
         -2   -1    0    0    0  501 -0.00000000000E+00 -0.00000000000E+00 -0.82624605478E+02  0.82624605517E+02  0.25500000000E-02 0. -1.
    5000001    1    1    2    0    0  0.13919393251E+03  0.10605196611E+03  0.20356125722E+03  0.29696490669E+03  0.12700000000E+03 0.  0.
   -5000001    1    1    2    0    0 -0.13919393251E+03 -0.10605196611E+03  0.28943462033E+03  0.36128018186E+03  0.12700000000E+03 0.  0.
<mgrwt>
<rscale>  0 0.43616701E+03</rscale>
<asrwt>0</asrwt>
<pdfrwt beam="1">  1        2 0.82231499E-01 0.43616701E+03</pdfrwt>
<pdfrwt beam="2">  1       -2 0.11803515E-01 0.43616701E+03</pdfrwt>
<totfact> 0.29515946E+03</totfact>
</mgrwt>
</event>
<event>
 4    1  0.1351183E-004  0.3557406E+03  0.7818608E-02  0.1060283E+00
         -2   -1    0    0    0  501 -0.00000000000E+00  0.00000000000E+00  0.27803968084E+02  0.27803968201E+02  0.25500000000E-02 0. -1.
          2   -1    0    0  501    0  0.00000000000E+00 -0.00000000000E+00 -0.11378896664E+04  0.11378896664E+04  0.25500000000E-02 0.  1.
    5000001    1    1    2    0    0  0.48289563718E+02  0.10544341929E+03 -0.70371936253E+03  0.72443090619E+03  0.12700000000E+03 0.  0.
   -5000001    1    1    2    0    0 -0.48289563718E+02 -0.10544341929E+03 -0.40636633583E+03  0.44126272846E+03  0.12700000000E+03 0.  0.
<mgrwt>
<rscale>  0 0.35574062E+03</rscale>
<asrwt>0</asrwt>
<pdfrwt beam="1">  1        2 0.16255564E+00 0.35574062E+03</pdfrwt>
<pdfrwt beam="2">  1       -2 0.39719962E-02 0.35574062E+03</pdfrwt>
<totfact> 0.67715739E+03</totfact>
</mgrwt>
</event>
<event>
 4    1  0.1351183E-004  0.3039711E+03  0.7818608E-02  0.1083272E+00
          2   -1    0    0  501    0  0.00000000000E+00  0.00000000000E+00  0.17044114491E+03  0.17044114493E+03  0.25500000000E-02 0.  1.
         -2   -1    0    0    0  501 -0.00000000000E+00 -0.00000000000E+00 -0.13552833753E+03  0.13552833755E+03  0.25500000000E-02 0. -1.
    5000001    1    1    2    0    0 -0.62423545188E+02  0.54011250661E+02  0.48564882467E+01  0.15154702132E+03  0.12700000000E+03 0.  0.
   -5000001    1    1    2    0    0  0.62423545188E+02 -0.54011250661E+02  0.30056319138E+02  0.15442246116E+03  0.12700000000E+03 0.  0.
<mgrwt>
<rscale>  0 0.30397108E+03</rscale>
<asrwt>0</asrwt>
<pdfrwt beam="1">  1        2 0.24348735E-01 0.30397108E+03</pdfrwt>
<pdfrwt beam="2">  1       -2 0.19361191E-01 0.30397108E+03</pdfrwt>
<totfact> 0.49165015E+03</totfact>
</mgrwt>
</event>
<event>
 4    1  0.1351183E-004  0.3896358E+03  0.7818608E-02  0.1047429E+00
         -2   -1    0    0    0  501 -0.00000000000E+00  0.00000000000E+00  0.43390040631E+02  0.43390040706E+02  0.25500000000E-02 0. -1.
          2   -1    0    0  501    0  0.00000000000E+00 -0.00000000000E+00 -0.87471709794E+03  0.87471709794E+03  0.25500000000E-02 0.  1.
    5000001    1    1    2    0    0 -0.12880993617E+03  0.48161963476E+02 -0.54284893408E+03  0.57421732786E+03  0.12700000000E+03 0.  0.
   -5000001    1    1    2    0    0  0.12880993617E+03 -0.48161963476E+02 -0.28847812323E+03  0.34388981079E+03  0.12700000000E+03 0.  0.
<mgrwt>
<rscale>  0 0.38963578E+03</rscale>
<asrwt>0</asrwt>
<pdfrwt beam="1">  1        2 0.12495958E+00 0.38963578E+03</pdfrwt>
<pdfrwt beam="2">  1       -2 0.61985778E-02 0.38963578E+03</pdfrwt>
<totfact> 0.49277196E+03</totfact>
</mgrwt>
</event>
<event>
 4    1  0.1351183E-004  0.3410535E+03  0.7818608E-02  0.1066348E+00
         -2   -1    0    0    0  501 -0.00000000000E+00  0.00000000000E+00  0.12169497451E+02  0.12169497718E+02  0.25500000000E-02 0. -1.
          2   -1    0    0  501    0  0.00000000000E+00 -0.00000000000E+00 -0.23895287417E+04  0.23895287417E+04  0.25500000000E-02 0.  1.
    5000001    1    1    2    0    0  0.55591494149E+02 -0.89988688120E+02 -0.14842747164E+04  0.14934486305E+04  0.12700000000E+03 0.  0.
   -5000001    1    1    2    0    0 -0.55591494149E+02  0.89988688120E+02 -0.89308452790E+03  0.90824960897E+03  0.12700000000E+03 0.  0.
<mgrwt>
<rscale>  0 0.34105345E+03</rscale>
<asrwt>0</asrwt>
<pdfrwt beam="1">  1        2 0.34136095E+00 0.34105345E+03</pdfrwt>
<pdfrwt beam="2">  1       -2 0.17385012E-02 0.34105345E+03</pdfrwt>
<totfact> 0.54027076E+03</totfact>
</mgrwt>
</event>
<event>
 4    1  0.1351183E-004  0.7864237E+03  0.7818608E-02  0.9579879E-01
          2   -1    0    0  501    0  0.00000000000E+00  0.00000000000E+00  0.55913789086E+03  0.55913789087E+03  0.25500000000E-02 0.  1.
         -2   -1    0    0    0  501 -0.00000000000E+00 -0.00000000000E+00 -0.27652493193E+03  0.27652493195E+03  0.25500000000E-02 0. -1.
    5000001    1    1    2    0    0  0.30651321864E+03 -0.15770029157E+03  0.29032549208E+03  0.46822817783E+03  0.12700000000E+03 0.  0.
   -5000001    1    1    2    0    0 -0.30651321864E+03  0.15770029157E+03 -0.77125331556E+01  0.36743464498E+03  0.12700000000E+03 0.  0.
<mgrwt>
<rscale>  0 0.78642372E+03</rscale>
<asrwt>0</asrwt>
<pdfrwt beam="1">  1        2 0.79876841E-01 0.78642372E+03</pdfrwt>
<pdfrwt beam="2">  1       -2 0.39503562E-01 0.78642372E+03</pdfrwt>
<totfact> 0.35922163E+02</totfact>
</mgrwt>
</event>
<event>
 4    1  0.1351183E-004  0.3230494E+03  0.7818608E-02  0.1074254E+00
         -2   -1    0    0    0  501 -0.00000000000E+00  0.00000000000E+00  0.75830702545E+02  0.75830702588E+02  0.25500000000E-02 0. -1.
          2   -1    0    0  501    0  0.00000000000E+00 -0.00000000000E+00 -0.34405890121E+03  0.34405890122E+03  0.25500000000E-02 0.  1.
    5000001    1    1    2    0    0  0.74040225416E+02  0.65920429782E+02 -0.11908109379E+03  0.20034162059E+03  0.12700000000E+03 0.  0.
   -5000001    1    1    2    0    0 -0.74040225416E+02 -0.65920429782E+02 -0.14914710487E+03  0.21954798322E+03  0.12700000000E+03 0.  0.
<mgrwt>
<rscale>  0 0.32304940E+03</rscale>
<asrwt>0</asrwt>
<pdfrwt beam="1">  1        2 0.49151271E-01 0.32304940E+03</pdfrwt>
<pdfrwt beam="2">  1       -2 0.10832958E-01 0.32304940E+03</pdfrwt>
<totfact> 0.59610494E+03</totfact>
</mgrwt>
</event>
<event>
 4    1  0.1351183E-004  0.4206922E+03  0.7818608E-02  0.1036841E+00
          2   -1    0    0  501    0  0.00000000000E+00  0.00000000000E+00  0.13911910650E+04  0.13911910650E+04  0.25500000000E-02 0.  1.
         -2   -1    0    0    0  501 -0.00000000000E+00 -0.00000000000E+00 -0.31804032856E+02  0.31804032958E+02  0.25500000000E-02 0. -1.
    5000001    1    1    2    0    0 -0.78940462386E+02  0.14793365618E+03  0.67724690110E+03  0.70916029801E+03  0.12700000000E+03 0.  0.
   -5000001    1    1    2    0    0  0.78940462386E+02 -0.14793365618E+03  0.68214013107E+03  0.71383479998E+03  0.12700000000E+03 0.  0.
<mgrwt>
<rscale>  0 0.42069222E+03</rscale>
<asrwt>0</asrwt>
<pdfrwt beam="1">  1        2 0.19874162E+00 0.42069222E+03</pdfrwt>
<pdfrwt beam="2">  1       -2 0.45434323E-02 0.42069222E+03</pdfrwt>
<totfact> 0.40321384E+03</totfact>
</mgrwt>
</event>
<event>
 4    1  0.1351183E-004  0.6302992E+03  0.7818608E-02  0.9844465E-01
         -2   -1    0    0    0  501 -0.00000000000E+00  0.00000000000E+00  0.45339913382E+03  0.45339913383E+03  0.25500000000E-02 0. -1.
          2   -1    0    0  501    0  0.00000000000E+00 -0.00000000000E+00 -0.21905483145E+03  0.21905483146E+03  0.25500000000E-02 0.  1.
    5000001    1    1    2    0    0  0.21167392042E+03  0.19569673412E+03  0.12713538267E+03  0.33969908133E+03  0.12700000000E+03 0.  0.
   -5000001    1    1    2    0    0 -0.21167392042E+03 -0.19569673412E+03  0.10720891970E+03  0.33275488395E+03  0.12700000000E+03 0.  0.
<mgrwt>
<rscale>  0 0.63029920E+03</rscale>
<asrwt>0</asrwt>
<pdfrwt beam="1">  1        2 0.31293547E-01 0.63029920E+03</pdfrwt>
<pdfrwt beam="2">  1       -2 0.64771305E-01 0.63029920E+03</pdfrwt>
<totfact> 0.37670233E+02</totfact>
</mgrwt>
</event>
<event>
 4    1  0.1351183E-004  0.4521517E+03  0.7818608E-02  0.1027082E+00
          2   -1    0    0  501    0  0.00000000000E+00  0.00000000000E+00  0.87660619605E+03  0.87660619605E+03  0.25500000000E-02 0.  1.
         -2   -1    0    0    0  501 -0.00000000000E+00 -0.00000000000E+00 -0.58304740969E+02  0.58304741025E+02  0.25500000000E-02 0. -1.
    5000001    1    1    2    0    0 -0.17499120375E+03 -0.18315560143E+02  0.54031347322E+03  0.58225855981E+03  0.12700000000E+03 0.  0.
   -5000001    1    1    2    0    0  0.17499120375E+03  0.18315560143E+02  0.27798798186E+03  0.35265237726E+03  0.12700000000E+03 0.  0.
<mgrwt>
<rscale>  0 0.45215173E+03</rscale>
<asrwt>0</asrwt>
<pdfrwt beam="1">  1        2 0.12522945E+00 0.45215173E+03</pdfrwt>
<pdfrwt beam="2">  1       -2 0.83292489E-02 0.45215173E+03</pdfrwt>
<totfact> 0.30959979E+03</totfact>
</mgrwt>
</event>
<event>
 4    1  0.1351183E-004  0.4312694E+03  0.7818608E-02  0.1033460E+00
         -2   -1    0    0    0  501 -0.00000000000E+00  0.00000000000E+00  0.13825981729E+03  0.13825981731E+03  0.25500000000E-02 0. -1.
          2   -1    0    0  501    0  0.00000000000E+00 -0.00000000000E+00 -0.33631115553E+03  0.33631115554E+03  0.25500000000E-02 0.  1.
    5000001    1    1    2    0    0  0.10049947161E+03  0.68119312078E+01 -0.25551073603E+03  0.30259094902E+03  0.12700000000E+03 0.  0.
   -5000001    1    1    2    0    0 -0.10049947161E+03 -0.68119312078E+01  0.57459397797E+02  0.17198002383E+03  0.12700000000E+03 0.  0.
<mgrwt>
<rscale>  0 0.43126938E+03</rscale>
<asrwt>0</asrwt>
<pdfrwt beam="1">  1        2 0.48044451E-01 0.43126938E+03</pdfrwt>
<pdfrwt beam="2">  1       -2 0.19751403E-01 0.43126938E+03</pdfrwt>
<totfact> 0.22657146E+03</totfact>
</mgrwt>
</event>
<event>
 4    1  0.1351183E-004  0.3512619E+03  0.7818608E-02  0.1062098E+00
         -2   -1    0    0    0  501 -0.00000000000E+00  0.00000000000E+00  0.64103965643E+02  0.64103965694E+02  0.25500000000E-02 0. -1.
          2   -1    0    0  501    0  0.00000000000E+00 -0.00000000000E+00 -0.48119077341E+03  0.48119077341E+03  0.25500000000E-02 0.  1.
    5000001    1    1    2    0    0 -0.47687818655E+02 -0.11060032522E+03 -0.18601094381E+03  0.25541266845E+03  0.12700000000E+03 0.  0.
   -5000001    1    1    2    0    0  0.47687818655E+02  0.11060032522E+03 -0.23107586395E+03  0.28988207066E+03  0.12700000000E+03 0.  0.
<mgrwt>
<rscale>  0 0.35126194E+03</rscale>
<asrwt>0</asrwt>
<pdfrwt beam="1">  1        2 0.68741537E-01 0.35126194E+03</pdfrwt>
<pdfrwt beam="2">  1       -2 0.91577096E-02 0.35126194E+03</pdfrwt>
<totfact> 0.54159740E+03</totfact>
</mgrwt>
</event>
<event>
 4    1  0.1351183E-004  0.5321712E+03  0.7818608E-02  0.1005707E+00
          2   -1    0    0  501    0  0.00000000000E+00  0.00000000000E+00  0.10184794544E+04  0.10184794544E+04  0.25500000000E-02 0.  1.
         -2   -1    0    0    0  501 -0.00000000000E+00 -0.00000000000E+00 -0.69516918041E+02  0.69516918088E+02  0.25500000000E-02 0. -1.
    5000001    1    1    2    0    0  0.21582107272E+03  0.65766379806E+02  0.59998773952E+03  0.65346632638E+03  0.12700000000E+03 0.  0.
   -5000001    1    1    2    0    0 -0.21582107272E+03 -0.65766379806E+02  0.34897479686E+03  0.43453004613E+03  0.12700000000E+03 0.  0.
<mgrwt>
<rscale>  0 0.53217122E+03</rscale>
<asrwt>0</asrwt>
<pdfrwt beam="1">  1        2 0.14549706E+00 0.53217122E+03</pdfrwt>
<pdfrwt beam="2">  1       -2 0.99309885E-02 0.53217122E+03</pdfrwt>
<totfact> 0.19059798E+03</totfact>
</mgrwt>
</event>
<event>
 4    1  0.1351183E-004  0.4469207E+03  0.7818608E-02  0.1028644E+00
          2   -1    0    0  501    0  0.00000000000E+00  0.00000000000E+00  0.25196459712E+03  0.25196459714E+03  0.25500000000E-02 0.  1.
         -2   -1    0    0    0  501 -0.00000000000E+00 -0.00000000000E+00 -0.19818076764E+03  0.19818076766E+03  0.25500000000E-02 0. -1.
    5000001    1    1    2    0    0  0.14334642129E+03  0.44119543842E+01  0.14277803334E+03  0.23891887460E+03  0.12700000000E+03 0.  0.
   -5000001    1    1    2    0    0 -0.14334642129E+03 -0.44119543842E+01 -0.88994203853E+02  0.21122649019E+03  0.12700000000E+03 0.  0.
<mgrwt>
<rscale>  0 0.44692074E+03</rscale>
<asrwt>0</asrwt>
<pdfrwt beam="1">  1        2 0.35994943E-01 0.44692074E+03</pdfrwt>
<pdfrwt beam="2">  1       -2 0.28311538E-01 0.44692074E+03</pdfrwt>
<totfact> 0.16439121E+03</totfact>
</mgrwt>
</event>
<event>
 4    1  0.1351183E-004  0.4120212E+03  0.7818608E-02  0.1039695E+00
         -2   -1    0    0    0  501 -0.00000000000E+00  0.00000000000E+00  0.20021342966E+02  0.20021343129E+02  0.25500000000E-02 0. -1.
          2   -1    0    0  501    0  0.00000000000E+00 -0.00000000000E+00 -0.21197566702E+04  0.21197566702E+04  0.25500000000E-02 0.  1.
    5000001    1    1    2    0    0 -0.15018658774E+02 -0.16143114590E+03 -0.10762469565E+04  0.10957746513E+04  0.12700000000E+03 0.  0.
   -5000001    1    1    2    0    0  0.15018658774E+02  0.16143114590E+03 -0.10234883707E+04  0.10440033621E+04  0.12700000000E+03 0.  0.
<mgrwt>
<rscale>  0 0.41202124E+03</rscale>
<asrwt>0</asrwt>
<pdfrwt beam="1">  1        2 0.30282224E+00 0.41202124E+03</pdfrwt>
<pdfrwt beam="2">  1       -2 0.28601932E-02 0.41202124E+03</pdfrwt>
<totfact> 0.34984095E+03</totfact>
</mgrwt>
</event>
<event>
 4    1  0.1351183E-004  0.3934662E+03  0.7818608E-02  0.1046066E+00
          2   -1    0    0  501    0  0.00000000000E+00  0.00000000000E+00  0.15515465634E+04  0.15515465634E+04  0.25500000000E-02 0.  1.
         -2   -1    0    0    0  501 -0.00000000000E+00 -0.00000000000E+00 -0.24945379580E+02  0.24945379710E+02  0.25500000000E-02 0. -1.
    5000001    1    1    2    0    0  0.56220063979E+01 -0.93696708280E+02  0.12333682594E+04  0.12434375510E+04  0.12700000000E+03 0.  0.
   -5000001    1    1    2    0    0 -0.56220063979E+01  0.93696708280E+02  0.29323292441E+03  0.33305439204E+03  0.12700000000E+03 0.  0.
<mgrwt>
<rscale>  0 0.39346623E+03</rscale>
<asrwt>0</asrwt>
<pdfrwt beam="1">  1        2 0.22164944E+00 0.39346623E+03</pdfrwt>
<pdfrwt beam="2">  1       -2 0.35636267E-02 0.39346623E+03</pdfrwt>
<totfact> 0.48216283E+03</totfact>
</mgrwt>
</event>
<event>
 4    1  0.1351183E-004  0.3972389E+03  0.7818608E-02  0.1044740E+00
          2   -1    0    0  501    0  0.00000000000E+00  0.00000000000E+00  0.20126367684E+03  0.20126367686E+03  0.25500000000E-02 0.  1.
         -2   -1    0    0    0  501 -0.00000000000E+00 -0.00000000000E+00 -0.19600998024E+03  0.19600998025E+03  0.25500000000E-02 0. -1.
    5000001    1    1    2    0    0 -0.14903633162E+03 -0.33017572620E+02 -0.16980047618E+01  0.19857963507E+03  0.12700000000E+03 0.  0.
   -5000001    1    1    2    0    0  0.14903633162E+03  0.33017572620E+02  0.69517013668E+01  0.19869402204E+03  0.12700000000E+03 0.  0.
<mgrwt>
<rscale>  0 0.39723892E+03</rscale>
<asrwt>0</asrwt>
<pdfrwt beam="1">  1        2 0.28751954E-01 0.39723892E+03</pdfrwt>
<pdfrwt beam="2">  1       -2 0.28001426E-01 0.39723892E+03</pdfrwt>
<totfact> 0.21479153E+03</totfact>
</mgrwt>
</event>
<event>
 4    1  0.1351183E-004  0.4173638E+03  0.7818608E-02  0.1037928E+00
          2   -1    0    0  501    0  0.00000000000E+00  0.00000000000E+00  0.31813853578E+03  0.31813853579E+03  0.25500000000E-02 0.  1.
         -2   -1    0    0    0  501 -0.00000000000E+00 -0.00000000000E+00 -0.13688420470E+03  0.13688420472E+03  0.25500000000E-02 0. -1.
    5000001    1    1    2    0    0  0.53354467640E+02  0.97791260517E+02  0.22419401166E+03  0.28071655583E+03  0.12700000000E+03 0.  0.
   -5000001    1    1    2    0    0 -0.53354467640E+02 -0.97791260517E+02 -0.42939680586E+02  0.17430618468E+03  0.12700000000E+03 0.  0.
<mgrwt>
<rscale>  0 0.41736382E+03</rscale>
<asrwt>0</asrwt>
<pdfrwt beam="1">  1        2 0.45448363E-01 0.41736382E+03</pdfrwt>
<pdfrwt beam="2">  1       -2 0.19554886E-01 0.41736382E+03</pdfrwt>
<totfact> 0.24482668E+03</totfact>
</mgrwt>
</event>
<event>
 4    1  0.1351183E-004  0.5413810E+03  0.7818608E-02  0.1003509E+00
         -2   -1    0    0    0  501 -0.00000000000E+00  0.00000000000E+00  0.30002798351E+02  0.30002798460E+02  0.25500000000E-02 0.  1.
          2   -1    0    0  501    0  0.00000000000E+00 -0.00000000000E+00 -0.24422172889E+04  0.24422172889E+04  0.25500000000E-02 0. -1.
    5000001    1    1    2    0    0  0.55120045565E+01  0.23314082236E+03 -0.14459826641E+04  0.14701632189E+04  0.12700000000E+03 0.  0.
   -5000001    1    1    2    0    0 -0.55120045565E+01 -0.23314082236E+03 -0.96623182647E+03  0.10020568685E+04  0.12700000000E+03 0.  0.
<mgrwt>
<rscale>  0 0.54138102E+03</rscale>
<asrwt>0</asrwt>
<pdfrwt beam="1">  1        2 0.34888806E+00 0.54138102E+03</pdfrwt>
<pdfrwt beam="2">  1       -2 0.42861156E-02 0.54138102E+03</pdfrwt>
<totfact> 0.12949066E+03</totfact>
</mgrwt>
</event>
<event>
 4    1  0.1351183E-004  0.4094424E+03  0.7818608E-02  0.1040558E+00
          2   -1    0    0  501    0  0.00000000000E+00  0.00000000000E+00  0.22259436065E+04  0.22259436065E+04  0.25500000000E-02 0. -1.
         -2   -1    0    0    0  501 -0.00000000000E+00 -0.00000000000E+00 -0.18828312304E+02  0.18828312477E+02  0.25500000000E-02 0.  1.
    5000001    1    1    2    0    0  0.12223502065E+03 -0.17577242880E+02  0.54092809321E+03  0.56919466069E+03  0.12700000000E+03 0.  0.
   -5000001    1    1    2    0    0 -0.12223502065E+03  0.17577242880E+02  0.16661872010E+04  0.16755772583E+04  0.12700000000E+03 0.  0.
<mgrwt>
<rscale>  0 0.40944236E+03</rscale>
<asrwt>0</asrwt>
<pdfrwt beam="1">  1        2 0.31799185E+00 0.40944236E+03</pdfrwt>
<pdfrwt beam="2">  1       -2 0.26897597E-02 0.40944236E+03</pdfrwt>
<totfact> 0.33981896E+03</totfact>
</mgrwt>
</event>
<event>
 4    1  0.1351183E-004  0.2941731E+03  0.7818608E-02  0.1088190E+00
          2   -1    0    0  501    0  0.00000000000E+00  0.00000000000E+00  0.10098666274E+04  0.10098666274E+04  0.25500000000E-02 0.  1.
         -2   -1    0    0    0  501 -0.00000000000E+00 -0.00000000000E+00 -0.21423085153E+02  0.21423085305E+02  0.25500000000E-02 0. -1.
    5000001    1    1    2    0    0  0.43374543857E+02 -0.38721792636E+02  0.33262614442E+03  0.36076291416E+03  0.12700000000E+03 0.  0.
   -5000001    1    1    2    0    0 -0.43374543857E+02  0.38721792636E+02  0.65581739778E+03  0.67052679850E+03  0.12700000000E+03 0.  0.
<mgrwt>
<rscale>  0 0.29417314E+03</rscale>
<asrwt>0</asrwt>
<pdfrwt beam="1">  1        2 0.14426668E+00 0.29417314E+03</pdfrwt>
<pdfrwt beam="2">  1       -2 0.30604404E-02 0.29417314E+03</pdfrwt>
<totfact> 0.11812270E+04</totfact>
</mgrwt>
</event>
<event>
 4    1  0.1351183E-004  0.7844697E+03  0.7818608E-02  0.9582773E-01
         -2   -1    0    0    0  501 -0.00000000000E+00  0.00000000000E+00  0.96136656461E+02  0.96136656495E+02  0.25500000000E-02 0. -1.
          2   -1    0    0  501    0  0.00000000000E+00 -0.00000000000E+00 -0.16003072500E+04  0.16003072500E+04  0.25500000000E-02 0.  1.
    5000001    1    1    2    0    0  0.19105322668E+03 -0.31807360439E+03 -0.73725415980E+03  0.83507176301E+03  0.12700000000E+03 0.  0.
   -5000001    1    1    2    0    0 -0.19105322668E+03  0.31807360439E+03 -0.76691643373E+03  0.86137214348E+03  0.12700000000E+03 0.  0.
<mgrwt>
<rscale>  0 0.78446973E+03</rscale>
<asrwt>0</asrwt>
<pdfrwt beam="1">  1        2 0.22861531E+00 0.78446973E+03</pdfrwt>
<pdfrwt beam="2">  1       -2 0.13733809E-01 0.78446973E+03</pdfrwt>
<totfact> 0.53091089E+02</totfact>
</mgrwt>
</event>
<event>
 4    1  0.1351183E-004  0.5131078E+03  0.7818608E-02  0.1010413E+00
         -2   -1    0    0    0  501 -0.00000000000E+00  0.00000000000E+00  0.14994337508E+03  0.14994337510E+03  0.25500000000E-02 0. -1.
          2   -1    0    0  501    0  0.00000000000E+00 -0.00000000000E+00 -0.43896503444E+03  0.43896503444E+03  0.25500000000E-02 0.  1.
    5000001    1    1    2    0    0  0.17547911419E+03  0.13026932838E+03 -0.94116774225E+02  0.26972205068E+03  0.12700000000E+03 0.  0.
   -5000001    1    1    2    0    0 -0.17547911419E+03 -0.13026932838E+03 -0.19490488513E+03  0.31918635886E+03  0.12700000000E+03 0.  0.
<mgrwt>
<rscale>  0 0.51310778E+03</rscale>
<asrwt>0</asrwt>
<pdfrwt beam="1">  1        2 0.62709290E-01 0.51310778E+03</pdfrwt>
<pdfrwt beam="2">  1       -2 0.21420482E-01 0.51310778E+03</pdfrwt>
<totfact> 0.14690354E+03</totfact>
</mgrwt>
</event>
<event>
 4    1  0.1351183E-004  0.3740834E+03  0.7818608E-02  0.1053142E+00
         -2   -1    0    0    0  501 -0.00000000000E+00  0.00000000000E+00  0.56408276970E+02  0.56408277027E+02  0.25500000000E-02 0. -1.
          2   -1    0    0  501    0  0.00000000000E+00 -0.00000000000E+00 -0.62020314236E+03  0.62020314237E+03  0.25500000000E-02 0.  1.
    5000001    1    1    2    0    0 -0.37475917289E+02 -0.13192621886E+03 -0.29424702598E+03  0.34859616163E+03  0.12700000000E+03 0.  0.
   -5000001    1    1    2    0    0  0.37475917289E+02  0.13192621886E+03 -0.26954783941E+03  0.32801525777E+03  0.12700000000E+03 0.  0.
<mgrwt>
<rscale>  0 0.37408336E+03</rscale>
<asrwt>0</asrwt>
<pdfrwt beam="1">  1        2 0.88600445E-01 0.37408336E+03</pdfrwt>
<pdfrwt beam="2">  1       -2 0.80583257E-02 0.37408336E+03</pdfrwt>
<totfact> 0.49781713E+03</totfact>
</mgrwt>
</event>
<event>
 4    1  0.1351183E-004  0.3287124E+03  0.7818608E-02  0.1071708E+00
         -2   -1    0    0    0  501 -0.00000000000E+00  0.00000000000E+00  0.60545681572E+02  0.60545681626E+02  0.25500000000E-02 0. -1.
          2   -1    0    0  501    0  0.00000000000E+00 -0.00000000000E+00 -0.44615830830E+03  0.44615830831E+03  0.25500000000E-02 0.  1.
    5000001    1    1    2    0    0  0.92536085682E+02 -0.61077836904E+01 -0.26647116439E+03  0.30941252985E+03  0.12700000000E+03 0.  0.
   -5000001    1    1    2    0    0 -0.92536085682E+02  0.61077836904E+01 -0.11914146234E+03  0.19729146008E+03  0.12700000000E+03 0.  0.
<mgrwt>
<rscale>  0 0.32871239E+03</rscale>
<asrwt>0</asrwt>
<pdfrwt beam="1">  1        2 0.63736899E-01 0.32871239E+03</pdfrwt>
<pdfrwt beam="2">  1       -2 0.86493833E-02 0.32871239E+03</pdfrwt>
<totfact> 0.64326127E+03</totfact>
</mgrwt>
</event>
<event>
 4    1  0.1351183E-004  0.2866947E+03  0.7818608E-02  0.1092088E+00
          2   -1    0    0  501    0  0.00000000000E+00  0.00000000000E+00  0.13416361656E+03  0.13416361658E+03  0.25500000000E-02 0.  1.
         -2   -1    0    0    0  501 -0.00000000000E+00 -0.00000000000E+00 -0.15315968872E+03  0.15315968874E+03  0.25500000000E-02 0. -1.
    5000001    1    1    2    0    0 -0.38900253851E+02  0.47344996486E+02  0.16339870501E+02  0.14195340718E+03  0.12700000000E+03 0.  0.
   -5000001    1    1    2    0    0  0.38900253851E+02 -0.47344996486E+02 -0.35335942663E+02  0.14536989814E+03  0.12700000000E+03 0.  0.
<mgrwt>
<rscale>  0 0.28669467E+03</rscale>
<asrwt>0</asrwt>
<pdfrwt beam="1">  1        2 0.19166231E-01 0.28669467E+03</pdfrwt>
<pdfrwt beam="2">  1       -2 0.21879956E-01 0.28669467E+03</pdfrwt>
<totfact> 0.52206402E+03</totfact>
</mgrwt>
</event>
<event>
 4    1  0.1351183E-004  0.4218243E+03  0.7818608E-02  0.1036474E+00
         -2   -1    0    0    0  501 -0.00000000000E+00  0.00000000000E+00  0.19670789543E+03  0.19670789544E+03  0.25500000000E-02 0. -1.
          2   -1    0    0  501    0  0.00000000000E+00 -0.00000000000E+00 -0.22614204747E+03  0.22614204748E+03  0.25500000000E-02 0.  1.
    5000001    1    1    2    0    0  0.10866284569E+03  0.86114840568E+02 -0.11050855763E+03  0.21809291852E+03  0.12700000000E+03 0.  0.
   -5000001    1    1    2    0    0 -0.10866284569E+03 -0.86114840568E+02  0.81074405589E+02  0.20475702440E+03  0.12700000000E+03 0.  0.
<mgrwt>
<rscale>  0 0.42182426E+03</rscale>
<asrwt>0</asrwt>
<pdfrwt beam="1">  1        2 0.32306006E-01 0.42182426E+03</pdfrwt>
<pdfrwt beam="2">  1       -2 0.28101128E-01 0.42182426E+03</pdfrwt>
<totfact> 0.18765559E+03</totfact>
</mgrwt>
</event>
<event>
 4    1  0.1351183E-004  0.5109501E+03  0.7818608E-02  0.1010960E+00
          2   -1    0    0  501    0  0.00000000000E+00  0.00000000000E+00  0.48932782220E+03  0.48932782221E+03  0.25500000000E-02 0.  1.
         -2   -1    0    0    0  501 -0.00000000000E+00 -0.00000000000E+00 -0.13338194743E+03  0.13338194745E+03  0.25500000000E-02 0. -1.
    5000001    1    1    2    0    0 -0.17153385923E+03 -0.14016753195E+03  0.16794552962E+03  0.30562313851E+03  0.12700000000E+03 0.  0.
   -5000001    1    1    2    0    0  0.17153385923E+03  0.14016753195E+03  0.18800034515E+03  0.31708663115E+03  0.12700000000E+03 0.  0.
<mgrwt>
<rscale>  0 0.51095009E+03</rscale>
<asrwt>0</asrwt>
<pdfrwt beam="1">  1        2 0.69903974E-01 0.51095009E+03</pdfrwt>
<pdfrwt beam="2">  1       -2 0.19054564E-01 0.51095009E+03</pdfrwt>
<totfact> 0.15940639E+03</totfact>
</mgrwt>
</event>
<event>
 4    1  0.1351183E-004  0.6021705E+03  0.7818608E-02  0.9900913E-01
         -2   -1    0    0    0  501 -0.00000000000E+00  0.00000000000E+00  0.68036434332E+02  0.68036434380E+02  0.25500000000E-02 0. -1.
          2   -1    0    0  501    0  0.00000000000E+00 -0.00000000000E+00 -0.13324083701E+04  0.13324083701E+04  0.25500000000E-02 0.  1.
    5000001    1    1    2    0    0 -0.72954238316E+02 -0.23503050369E+03 -0.35738704890E+03  0.45212405518E+03  0.12700000000E+03 0.  0.
   -5000001    1    1    2    0    0  0.72954238316E+02  0.23503050369E+03 -0.90698488688E+03  0.94832074932E+03  0.12700000000E+03 0.  0.
<mgrwt>
<rscale>  0 0.60217046E+03</rscale>
<asrwt>0</asrwt>
<pdfrwt beam="1">  1        2 0.19034404E+00 0.60217046E+03</pdfrwt>
<pdfrwt beam="2">  1       -2 0.97194915E-02 0.60217046E+03</pdfrwt>
<totfact> 0.13088723E+03</totfact>
</mgrwt>
</event>
<event>
 4    1  0.1351183E-004  0.4431310E+03  0.7818608E-02  0.1029790E+00
         -2   -1    0    0    0  501 -0.00000000000E+00  0.00000000000E+00  0.20819416991E+03  0.20819416992E+03  0.25500000000E-02 0. -1.
          2   -1    0    0  501    0  0.00000000000E+00 -0.00000000000E+00 -0.23579560919E+03  0.23579560921E+03  0.25500000000E-02 0.  1.
    5000001    1    1    2    0    0 -0.65394735469E+02  0.16098577943E+03 -0.66527590496E+02  0.22527275224E+03  0.12700000000E+03 0.  0.
   -5000001    1    1    2    0    0  0.65394735469E+02 -0.16098577943E+03  0.38926151211E+02  0.21871702689E+03  0.12700000000E+03 0.  0.
<mgrwt>
<rscale>  0 0.44313100E+03</rscale>
<asrwt>0</asrwt>
<pdfrwt beam="1">  1        2 0.33685087E-01 0.44313100E+03</pdfrwt>
<pdfrwt beam="2">  1       -2 0.29742024E-01 0.44313100E+03</pdfrwt>
<totfact> 0.16163646E+03</totfact>
</mgrwt>
</event>
<event>
 4    1  0.1351183E-004  0.5887983E+03  0.7818608E-02  0.9928923E-01
          2   -1    0    0  501    0  0.00000000000E+00  0.00000000000E+00  0.10259842058E+04  0.10259842058E+04  0.25500000000E-02 0.  1.
         -2   -1    0    0    0  501 -0.00000000000E+00 -0.00000000000E+00 -0.84475812256E+02  0.84475812295E+02  0.25500000000E-02 0. -1.
    5000001    1    1    2    0    0  0.25828910523E+03  0.32513513934E+02  0.57004079034E+03  0.63941058258E+03  0.12700000000E+03 0.  0.
   -5000001    1    1    2    0    0 -0.25828910523E+03 -0.32513513934E+02  0.37146760321E+03  0.47104943552E+03  0.12700000000E+03 0.  0.
<mgrwt>
<rscale>  0 0.58879826E+03</rscale>
<asrwt>0</asrwt>
<pdfrwt beam="1">  1        2 0.14656916E+00 0.58879826E+03</pdfrwt>
<pdfrwt beam="2">  1       -2 0.12067974E-01 0.58879826E+03</pdfrwt>
<totfact> 0.13715860E+03</totfact>
</mgrwt>
</event>
<event>
 4    1  0.1351183E-004  0.5894805E+03  0.7818608E-02  0.9927474E-01
         -2   -1    0    0    0  501 -0.00000000000E+00  0.00000000000E+00  0.11701517287E+03  0.11701517290E+03  0.25500000000E-02 0. -1.
          2   -1    0    0  501    0  0.00000000000E+00 -0.00000000000E+00 -0.74239788246E+03  0.74239788247E+03  0.25500000000E-02 0.  1.
    5000001    1    1    2    0    0  0.41563107081E+02  0.25844698294E+03 -0.38139125393E+03  0.47969847137E+03  0.12700000000E+03 0.  0.
   -5000001    1    1    2    0    0 -0.41563107081E+02 -0.25844698294E+03 -0.24399145566E+03  0.37971458399E+03  0.12700000000E+03 0.  0.
<mgrwt>
<rscale>  0 0.58948051E+03</rscale>
<asrwt>0</asrwt>
<pdfrwt beam="1">  1        2 0.10605684E+00 0.58948051E+03</pdfrwt>
<pdfrwt beam="2">  1       -2 0.16716454E-01 0.58948051E+03</pdfrwt>
<totfact> 0.12201935E+03</totfact>
</mgrwt>
</event>
<event>
 4    1  0.1351183E-004  0.3636134E+03  0.7818608E-02  0.1057162E+00
         -2   -1    0    0    0  501 -0.00000000000E+00  0.00000000000E+00  0.54919108770E+02  0.54919108829E+02  0.25500000000E-02 0. -1.
          2   -1    0    0  501    0  0.00000000000E+00 -0.00000000000E+00 -0.60186122230E+03  0.60186122231E+03  0.25500000000E-02 0.  1.
    5000001    1    1    2    0    0 -0.41193696104E+02 -0.11720579518E+03 -0.20373532239E+03  0.27031685225E+03  0.12700000000E+03 0.  0.
   -5000001    1    1    2    0    0  0.41193696104E+02  0.11720579518E+03 -0.34320679115E+03  0.38646347889E+03  0.12700000000E+03 0.  0.
<mgrwt>
<rscale>  0 0.36361343E+03</rscale>
<asrwt>0</asrwt>
<pdfrwt beam="1">  1        2 0.85980171E-01 0.36361343E+03</pdfrwt>
<pdfrwt beam="2">  1       -2 0.78455873E-02 0.36361343E+03</pdfrwt>
<totfact> 0.53729090E+03</totfact>
</mgrwt>
</event>
<event>
 4    1  0.1351183E-004  0.5203994E+03  0.7818608E-02  0.1008587E+00
         -2   -1    0    0    0  501 -0.00000000000E+00  0.00000000000E+00  0.24372075412E+02  0.24372075546E+02  0.25500000000E-02 0. -1.
          2   -1    0    0  501    0  0.00000000000E+00 -0.00000000000E+00 -0.27779287571E+04  0.27779287571E+04  0.25500000000E-02 0.  1.
    5000001    1    1    2    0    0 -0.20012230405E+03 -0.67529241482E+02 -0.92734837320E+03  0.95953798274E+03  0.12700000000E+03 0.  0.
   -5000001    1    1    2    0    0  0.20012230405E+03  0.67529241482E+02 -0.18262083085E+04  0.18427628499E+04  0.12700000000E+03 0.  0.
<mgrwt>
<rscale>  0 0.52039942E+03</rscale>
<asrwt>0</asrwt>
<pdfrwt beam="1">  1        2 0.39684676E+00 0.52039942E+03</pdfrwt>
<pdfrwt beam="2">  1       -2 0.34817268E-02 0.52039942E+03</pdfrwt>
<totfact> 0.11955167E+03</totfact>
</mgrwt>
</event>
<event>
 4    1  0.1351183E-004  0.3064649E+03  0.7818608E-02  0.1082053E+00
          2   -1    0    0  501    0  0.00000000000E+00  0.00000000000E+00  0.17536544219E+04  0.17536544220E+04  0.25500000000E-02 0.  1.
         -2   -1    0    0    0  501 -0.00000000000E+00 -0.00000000000E+00 -0.13389288246E+02  0.13389288489E+02  0.25500000000E-02 0. -1.
    5000001    1    1    2    0    0 -0.47027571742E+02  0.71328010734E+02  0.82859126731E+03  0.84261009125E+03  0.12700000000E+03 0.  0.
   -5000001    1    1    2    0    0  0.47027571742E+02 -0.71328010734E+02  0.91167386639E+03  0.92443361919E+03  0.12700000000E+03 0.  0.
<mgrwt>
<rscale>  0 0.30646491E+03</rscale>
<asrwt>0</asrwt>
<pdfrwt beam="1">  1        2 0.25052215E+00 0.30646491E+03</pdfrwt>
<pdfrwt beam="2">  1       -2 0.19127548E-02 0.30646491E+03</pdfrwt>
<totfact> 0.96467973E+03</totfact>
</mgrwt>
</event>
<event>
 4    1  0.1351183E-004  0.6664139E+03  0.7818608E-02  0.9776458E-01
          2   -1    0    0  501    0  0.00000000000E+00  0.00000000000E+00  0.76257775789E+03  0.76257775790E+03  0.25500000000E-02 0.  1.
         -2   -1    0    0    0  501 -0.00000000000E+00 -0.00000000000E+00 -0.14559414593E+03  0.14559414596E+03  0.25500000000E-02 0. -1.
    5000001    1    1    2    0    0 -0.11474987375E+03  0.25156493188E+03  0.49357551171E+03  0.57982603791E+03  0.12700000000E+03 0.  0.
   -5000001    1    1    2    0    0  0.11474987375E+03 -0.25156493188E+03  0.12340810025E+03  0.32834586595E+03  0.12700000000E+03 0.  0.
<mgrwt>
<rscale>  0 0.66641386E+03</rscale>
<asrwt>0</asrwt>
<pdfrwt beam="1">  1        2 0.10893968E+00 0.66641386E+03</pdfrwt>
<pdfrwt beam="2">  1       -2 0.20799163E-01 0.66641386E+03</pdfrwt>
<totfact> 0.80762810E+02</totfact>
</mgrwt>
</event>
<event>
 4    1  0.1351183E-004  0.7908552E+03  0.7818608E-02  0.9573349E-01
          2   -1    0    0  501    0  0.00000000000E+00  0.00000000000E+00  0.68935421114E+03  0.68935421114E+03  0.25500000000E-02 0.  1.
         -2   -1    0    0    0  501 -0.00000000000E+00 -0.00000000000E+00 -0.22682532508E+03  0.22682532509E+03  0.25500000000E-02 0. -1.
    5000001    1    1    2    0    0  0.26225285863E+03 -0.23372089405E+03  0.80967156094E+02  0.38221289688E+03  0.12700000000E+03 0.  0.
   -5000001    1    1    2    0    0 -0.26225285863E+03  0.23372089405E+03  0.38156172996E+03  0.53396663936E+03  0.12700000000E+03 0.  0.
<mgrwt>
<rscale>  0 0.79085522E+03</rscale>
<asrwt>0</asrwt>
<pdfrwt beam="1">  1        2 0.98479173E-01 0.79085522E+03</pdfrwt>
<pdfrwt beam="2">  1       -2 0.32403618E-01 0.79085522E+03</pdfrwt>
<totfact> 0.40828682E+02</totfact>
</mgrwt>
</event>
<event>
 4    1  0.1351183E-004  0.4023717E+03  0.7818608E-02  0.1042962E+00
         -2   -1    0    0    0  501 -0.00000000000E+00  0.00000000000E+00  0.83335088983E+02  0.83335089022E+02  0.25500000000E-02 0. -1.
          2   -1    0    0  501    0  0.00000000000E+00 -0.00000000000E+00 -0.48569881316E+03  0.48569881317E+03  0.25500000000E-02 0.  1.
    5000001    1    1    2    0    0  0.13362225623E+03  0.66639583340E+00 -0.87240885223E+02  0.20394931600E+03  0.12700000000E+03 0.  0.
   -5000001    1    1    2    0    0 -0.13362225623E+03 -0.66639583340E+00 -0.31512283896E+03  0.36508458619E+03  0.12700000000E+03 0.  0.
<mgrwt>
<rscale>  0 0.40237174E+03</rscale>
<asrwt>0</asrwt>
<pdfrwt beam="1">  1        2 0.69385544E-01 0.40237174E+03</pdfrwt>
<pdfrwt beam="2">  1       -2 0.11905013E-01 0.40237174E+03</pdfrwt>
<totfact> 0.35251614E+03</totfact>
</mgrwt>
</event>
<event>
 4    1  0.1351183E-004  0.3922050E+03  0.7818608E-02  0.1046513E+00
          2   -1    0    0  501    0  0.00000000000E+00  0.00000000000E+00  0.61933933089E+03  0.61933933090E+03  0.25500000000E-02 0.  1.
         -2   -1    0    0    0  501 -0.00000000000E+00 -0.00000000000E+00 -0.62092269525E+02  0.62092269578E+02  0.25500000000E-02 0. -1.
    5000001    1    1    2    0    0  0.98711279500E+02  0.11069852932E+03  0.24710430904E+03  0.31494066209E+03  0.12700000000E+03 0.  0.
   -5000001    1    1    2    0    0 -0.98711279500E+02 -0.11069852932E+03  0.31014275233E+03  0.36649093838E+03  0.12700000000E+03 0.  0.
<mgrwt>
<rscale>  0 0.39220497E+03</rscale>
<asrwt>0</asrwt>
<pdfrwt beam="1">  1        2 0.88477049E-01 0.39220497E+03</pdfrwt>
<pdfrwt beam="2">  1       -2 0.88703241E-02 0.39220497E+03</pdfrwt>
<totfact> 0.42876004E+03</totfact>
</mgrwt>
</event>
<event>
 4    1  0.1351183E-004  0.3672087E+03  0.7818608E-02  0.1055765E+00
         -2   -1    0    0    0  501 -0.00000000000E+00  0.00000000000E+00  0.39727692055E+02  0.39727692137E+02  0.25500000000E-02 0. -1.
          2   -1    0    0  501    0  0.00000000000E+00 -0.00000000000E+00 -0.84854061950E+03  0.84854061950E+03  0.25500000000E-02 0.  1.
    5000001    1    1    2    0    0  0.41468102198E+02  0.12570856868E+03 -0.42303613226E+03  0.46109740505E+03  0.12700000000E+03 0.  0.
   -5000001    1    1    2    0    0 -0.41468102198E+02 -0.12570856868E+03 -0.38577679518E+03  0.42717090659E+03  0.12700000000E+03 0.  0.
<mgrwt>
<rscale>  0 0.36720872E+03</rscale>
<asrwt>0</asrwt>
<pdfrwt beam="1">  1        2 0.12122008E+00 0.36720872E+03</pdfrwt>
<pdfrwt beam="2">  1       -2 0.56753851E-02 0.36720872E+03</pdfrwt>
<totfact> 0.58673117E+03</totfact>
</mgrwt>
</event>
<event>
 4    1  0.1351183E-004  0.9813299E+03  0.7818608E-02  0.9329262E-01
         -2   -1    0    0    0  501 -0.00000000000E+00  0.00000000000E+00  0.23791723842E+03  0.23791723844E+03  0.25500000000E-02 0. -1.
          2   -1    0    0  501    0  0.00000000000E+00 -0.00000000000E+00 -0.10119152653E+04  0.10119152653E+04  0.25500000000E-02 0.  1.
    5000001    1    1    2    0    0 -0.41857735519E+03  0.18349309864E+03 -0.54681748022E+03  0.72388885625E+03  0.12700000000E+03 0.  0.
   -5000001    1    1    2    0    0  0.41857735519E+03 -0.18349309864E+03 -0.22718054662E+03  0.52594364745E+03  0.12700000000E+03 0.  0.
<mgrwt>
<rscale>  0 0.98132988E+03</rscale>
<asrwt>0</asrwt>
<pdfrwt beam="1">  1        2 0.14455932E+00 0.98132988E+03</pdfrwt>
<pdfrwt beam="2">  1       -2 0.33988177E-01 0.98132988E+03</pdfrwt>
<totfact> 0.22302956E+02</totfact>
</mgrwt>
</event>
<event>
 4    1  0.1351183E-004  0.3817798E+03  0.7818608E-02  0.1050278E+00
         -2   -1    0    0    0  501 -0.00000000000E+00  0.00000000000E+00  0.85623167434E+02  0.85623167472E+02  0.25500000000E-02 0. -1.
          2   -1    0    0  501    0  0.00000000000E+00 -0.00000000000E+00 -0.42557361936E+03  0.42557361937E+03  0.25500000000E-02 0.  1.
    5000001    1    1    2    0    0  0.13370170215E+03 -0.45057904496E+02 -0.19687517376E+03  0.27348710017E+03  0.12700000000E+03 0.  0.
   -5000001    1    1    2    0    0 -0.13370170215E+03  0.45057904496E+02 -0.14307527817E+03  0.23770968667E+03  0.12700000000E+03 0.  0.
<mgrwt>
<rscale>  0 0.38177984E+03</rscale>
<asrwt>0</asrwt>
<pdfrwt beam="1">  1        2 0.60796230E-01 0.38177984E+03</pdfrwt>
<pdfrwt beam="2">  1       -2 0.12231881E-01 0.38177984E+03</pdfrwt>
<totfact> 0.39007063E+03</totfact>
</mgrwt>
</event>
<event>
 4    1  0.1351183E-004  0.4631124E+03  0.7818608E-02  0.1023882E+00
          2   -1    0    0  501    0  0.00000000000E+00  0.00000000000E+00  0.14700171164E+04  0.14700171164E+04  0.25500000000E-02 0.  1.
         -2   -1    0    0    0  501 -0.00000000000E+00 -0.00000000000E+00 -0.36474594662E+02  0.36474594751E+02  0.25500000000E-02 0. -1.
    5000001    1    1    2    0    0  0.14966163504E+03  0.11371348349E+03  0.56558968445E+03  0.60938497889E+03  0.12700000000E+03 0.  0.
   -5000001    1    1    2    0    0 -0.14966163504E+03 -0.11371348349E+03  0.86795283729E+03  0.89710673228E+03  0.12700000000E+03 0.  0.
<mgrwt>
<rscale>  0 0.46311242E+03</rscale>
<asrwt>0</asrwt>
<pdfrwt beam="1">  1        2 0.21000251E+00 0.46311242E+03</pdfrwt>
<pdfrwt beam="2">  1       -2 0.52106547E-02 0.46311242E+03</pdfrwt>
<totfact> 0.29706650E+03</totfact>
</mgrwt>
</event>
<event>
 4    1  0.1351183E-004  0.3569005E+03  0.7818608E-02  0.1059818E+00
         -2   -1    0    0    0  501 -0.00000000000E+00  0.00000000000E+00  0.18838259601E+03  0.18838259602E+03  0.25500000000E-02 0. -1.
          2   -1    0    0  501    0  0.00000000000E+00 -0.00000000000E+00 -0.16904156062E+03  0.16904156064E+03  0.25500000000E-02 0.  1.
    5000001    1    1    2    0    0 -0.52861872648E+02 -0.98155911434E+02 -0.47741843087E+02  0.17560536470E+03  0.12700000000E+03 0.  0.
   -5000001    1    1    2    0    0  0.52861872648E+02  0.98155911434E+02  0.67082878470E+02  0.18181879197E+03  0.12700000000E+03 0.  0.
<mgrwt>
<rscale>  0 0.35690048E+03</rscale>
<asrwt>0</asrwt>
<pdfrwt beam="1">  1        2 0.24148794E-01 0.35690048E+03</pdfrwt>
<pdfrwt beam="2">  1       -2 0.26911800E-01 0.35690048E+03</pdfrwt>
<totfact> 0.28010483E+03</totfact>
</mgrwt>
</event>
<event>
 4    1  0.1351183E-004  0.1409110E+04  0.7818608E-02  0.8947251E-01
          2   -1    0    0  501    0  0.00000000000E+00  0.00000000000E+00  0.57488575511E+03  0.57488575512E+03  0.25500000000E-02 0.  1.
         -2   -1    0    0    0  501 -0.00000000000E+00 -0.00000000000E+00 -0.86347148885E+03  0.86347148885E+03  0.25500000000E-02 0. -1.
    5000001    1    1    2    0    0 -0.47906319781E+03 -0.41098653188E+02 -0.65372873058E+03  0.82138961521E+03  0.12700000000E+03 0.  0.
   -5000001    1    1    2    0    0  0.47906319781E+03  0.41098653188E+02  0.36514299685E+03  0.61696762876E+03  0.12700000000E+03 0.  0.
<mgrwt>
<rscale>  0 0.14091096E+04</rscale>
<asrwt>0</asrwt>
<pdfrwt beam="1">  1        2 0.82126536E-01 0.14091096E+04</pdfrwt>
<pdfrwt beam="2">  1       -2 0.12335307E+00 0.14091096E+04</pdfrwt>
<totfact> 0.27561444E+01</totfact>
</mgrwt>
</event>
<event>
 4    1  0.1351183E-004  0.8082767E+03  0.7818608E-02  0.9548114E-01
         -2   -1    0    0    0  501 -0.00000000000E+00  0.00000000000E+00  0.67503179143E+03  0.67503179143E+03  0.25500000000E-02 0. -1.
          2   -1    0    0  501    0  0.00000000000E+00 -0.00000000000E+00 -0.24195570148E+03  0.24195570149E+03  0.25500000000E-02 0.  1.
    5000001    1    1    2    0    0 -0.29433706408E+03 -0.16147176514E+03  0.58409806633E+01  0.35898545275E+03  0.12700000000E+03 0.  0.
   -5000001    1    1    2    0    0  0.29433706408E+03  0.16147176514E+03  0.42723510928E+03  0.55800204017E+03  0.12700000000E+03 0.  0.
<mgrwt>
<rscale>  0 0.80827666E+03</rscale>
<asrwt>0</asrwt>
<pdfrwt beam="1">  1        2 0.34565100E-01 0.80827666E+03</pdfrwt>
<pdfrwt beam="2">  1       -2 0.96433113E-01 0.80827666E+03</pdfrwt>
<totfact> 0.13745132E+02</totfact>
</mgrwt>
</event>
<event>
 4    1  0.1351183E-004  0.2839064E+03  0.7818608E-02  0.1093574E+00
          2   -1    0    0  501    0  0.00000000000E+00  0.00000000000E+00  0.47822925569E+03  0.47822925570E+03  0.25500000000E-02 0.  1.
         -2   -1    0    0    0  501 -0.00000000000E+00 -0.00000000000E+00 -0.42136086256E+02  0.42136086333E+02  0.25500000000E-02 0. -1.
    5000001    1    1    2    0    0 -0.34969132095E+02 -0.50571796053E+02  0.24652186705E+03  0.28404643580E+03  0.12700000000E+03 0.  0.
   -5000001    1    1    2    0    0  0.34969132095E+02  0.50571796053E+02  0.18957130239E+03  0.23631890624E+03  0.12700000000E+03 0.  0.
<mgrwt>
<rscale>  0 0.28390639E+03</rscale>
<asrwt>0</asrwt>
<pdfrwt beam="1">  1        2 0.68318459E-01 0.28390639E+03</pdfrwt>
<pdfrwt beam="2">  1       -2 0.60194414E-02 0.28390639E+03</pdfrwt>
<totfact> 0.10423836E+04</totfact>
</mgrwt>
</event>
<event>
 4    1  0.1351183E-004  0.3623728E+03  0.7818608E-02  0.1057648E+00
         -2   -1    0    0    0  501 -0.00000000000E+00  0.00000000000E+00  0.89092904533E+02  0.89092904570E+02  0.25500000000E-02 0. -1.
          2   -1    0    0  501    0  0.00000000000E+00 -0.00000000000E+00 -0.36847497801E+03  0.36847497802E+03  0.25500000000E-02 0.  1.
    5000001    1    1    2    0    0  0.68542512183E+02  0.10334621459E+03 -0.18558438493E+03  0.25680552949E+03  0.12700000000E+03 0.  0.
   -5000001    1    1    2    0    0 -0.68542512183E+02 -0.10334621459E+03 -0.93797688550E+02  0.20076235310E+03  0.12700000000E+03 0.  0.
<mgrwt>
<rscale>  0 0.36237277E+03</rscale>
<asrwt>0</asrwt>
<pdfrwt beam="1">  1        2 0.52639282E-01 0.36237277E+03</pdfrwt>
<pdfrwt beam="2">  1       -2 0.12727558E-01 0.36237277E+03</pdfrwt>
<totfact> 0.42747065E+03</totfact>
</mgrwt>
</event>
<event>
 4    1  0.1351183E-004  0.3296537E+03  0.7818608E-02  0.1071290E+00
          2   -1    0    0  501    0  0.00000000000E+00  0.00000000000E+00  0.49542048940E+03  0.49542048941E+03  0.25500000000E-02 0.  1.
         -2   -1    0    0    0  501 -0.00000000000E+00 -0.00000000000E+00 -0.54838038615E+02  0.54838038675E+02  0.25500000000E-02 0. -1.
    5000001    1    1    2    0    0  0.93431040634E+02 -0.19996874819E+02  0.29323464925E+03  0.33353379721E+03  0.12700000000E+03 0.  0.
   -5000001    1    1    2    0    0 -0.93431040634E+02  0.19996874819E+02  0.14734780153E+03  0.21672473087E+03  0.12700000000E+03 0.  0.
<mgrwt>
<rscale>  0 0.32965368E+03</rscale>
<asrwt>0</asrwt>
<pdfrwt beam="1">  1        2 0.70774359E-01 0.32965368E+03</pdfrwt>
<pdfrwt beam="2">  1       -2 0.78340051E-02 0.32965368E+03</pdfrwt>
<totfact> 0.66959410E+03</totfact>
</mgrwt>
</event>
<event>
 4    1  0.1351183E-004  0.3898677E+03  0.7818608E-02  0.1047346E+00
          2   -1    0    0  501    0  0.00000000000E+00  0.00000000000E+00  0.91896272994E+02  0.91896273029E+02  0.25500000000E-02 0.  1.
         -2   -1    0    0    0  501 -0.00000000000E+00 -0.00000000000E+00 -0.41350107182E+03  0.41350107183E+03  0.25500000000E-02 0. -1.
    5000001    1    1    2    0    0 -0.40361886421E+02  0.14066000067E+03 -0.18848109344E+03  0.27031174641E+03  0.12700000000E+03 0.  0.
   -5000001    1    1    2    0    0  0.40361886421E+02 -0.14066000067E+03 -0.13312370539E+03  0.23508559845E+03  0.12700000000E+03 0.  0.
<mgrwt>
<rscale>  0 0.38986771E+03</rscale>
<asrwt>0</asrwt>
<pdfrwt beam="1">  1        2 0.13128039E-01 0.38986771E+03</pdfrwt>
<pdfrwt beam="2">  1       -2 0.59071581E-01 0.38986771E+03</pdfrwt>
<totfact> 0.12600299E+03</totfact>
</mgrwt>
</event>
<event>
 4    1  0.1351183E-004  0.6097293E+03  0.7818608E-02  0.9885424E-01
          2   -1    0    0  501    0  0.00000000000E+00  0.00000000000E+00  0.35742034014E+04  0.35742034014E+04  0.25500000000E-02 0.  1.
         -2   -1    0    0    0  501 -0.00000000000E+00 -0.00000000000E+00 -0.26003687313E+02  0.26003687438E+02  0.25500000000E-02 0. -1.
    5000001    1    1    2    0    0  0.14029891637E+03  0.14537209862E+02  0.31827934637E+04  0.31884476394E+04  0.12700000000E+03 0.  0.
   -5000001    1    1    2    0    0 -0.14029891637E+03 -0.14537209862E+02  0.36540625036E+03  0.41175944944E+03  0.12700000000E+03 0.  0.
<mgrwt>
<rscale>  0 0.60972934E+03</rscale>
<asrwt>0</asrwt>
<pdfrwt beam="1">  1        2 0.51060039E+00 0.60972934E+03</pdfrwt>
<pdfrwt beam="2">  1       -2 0.37148132E-02 0.60972934E+03</pdfrwt>
<totfact> 0.38404126E+02</totfact>
</mgrwt>
</event>
<event>
 4    1  0.1351183E-004  0.5345635E+03  0.7818608E-02  0.1005131E+00
         -2   -1    0    0    0  501 -0.00000000000E+00  0.00000000000E+00  0.88164812743E+02  0.88164812780E+02  0.25500000000E-02 0. -1.
          2   -1    0    0  501    0  0.00000000000E+00 -0.00000000000E+00 -0.81029539744E+03  0.81029539744E+03  0.25500000000E-02 0.  1.
    5000001    1    1    2    0    0  0.17695725796E+03 -0.11781241058E+03 -0.19201209237E+03  0.31335487685E+03  0.12700000000E+03 0.  0.
   -5000001    1    1    2    0    0 -0.17695725796E+03  0.11781241058E+03 -0.53011849233E+03  0.58510533337E+03  0.12700000000E+03 0.  0.
<mgrwt>
<rscale>  0 0.53456353E+03</rscale>
<asrwt>0</asrwt>
<pdfrwt beam="1">  1        2 0.11575648E+00 0.53456353E+03</pdfrwt>
<pdfrwt beam="2">  1       -2 0.12594974E-01 0.53456353E+03</pdfrwt>
<totfact> 0.17567593E+03</totfact>
</mgrwt>
</event>
<event>
 4    1  0.1351183E-004  0.3241930E+03  0.7818608E-02  0.1073736E+00
          2   -1    0    0  501    0  0.00000000000E+00  0.00000000000E+00  0.17024408051E+03  0.17024408053E+03  0.25500000000E-02 0.  1.
         -2   -1    0    0    0  501 -0.00000000000E+00 -0.00000000000E+00 -0.15433881646E+03  0.15433881648E+03  0.25500000000E-02 0. -1.
    5000001    1    1    2    0    0  0.82533156248E+01 -0.91450945691E+02 -0.33508252073E+02  0.16025977550E+03  0.12700000000E+03 0.  0.
   -5000001    1    1    2    0    0 -0.82533156248E+01  0.91450945691E+02  0.49413516132E+02  0.16432312151E+03  0.12700000000E+03 0.  0.
<mgrwt>
<rscale>  0 0.32419297E+03</rscale>
<asrwt>0</asrwt>
<pdfrwt beam="1">  1        2 0.24320583E-01 0.32419297E+03</pdfrwt>
<pdfrwt beam="2">  1       -2 0.22048402E-01 0.32419297E+03</pdfrwt>
<totfact> 0.39425657E+03</totfact>
</mgrwt>
</event>
<event>
 4    1  0.1351183E-004  0.4186832E+03  0.7818608E-02  0.1037496E+00
          2   -1    0    0  501    0  0.00000000000E+00  0.00000000000E+00  0.33676824289E+03  0.33676824289E+03  0.25500000000E-02 0.  1.
         -2   -1    0    0    0  501 -0.00000000000E+00 -0.00000000000E+00 -0.13013073194E+03  0.13013073196E+03  0.25500000000E-02 0. -1.
    5000001    1    1    2    0    0 -0.11201288117E+03 -0.12099316908E+03  0.78167855111E+02  0.22231834401E+03  0.12700000000E+03 0.  0.
   -5000001    1    1    2    0    0  0.11201288117E+03  0.12099316908E+03  0.12846965584E+03  0.24458063084E+03  0.12700000000E+03 0.  0.
<mgrwt>
<rscale>  0 0.41868316E+03</rscale>
<asrwt>0</asrwt>
<pdfrwt beam="1">  1        2 0.48109749E-01 0.41868316E+03</pdfrwt>
<pdfrwt beam="2">  1       -2 0.18590104E-01 0.41868316E+03</pdfrwt>
<totfact> 0.25097745E+03</totfact>
</mgrwt>
</event>
<event>
 4    1  0.1351183E-004  0.4233320E+03  0.7818608E-02  0.1035987E+00
          2   -1    0    0  501    0  0.00000000000E+00  0.00000000000E+00  0.17405152791E+04  0.17405152791E+04  0.25500000000E-02 0.  1.
         -2   -1    0    0    0  501 -0.00000000000E+00 -0.00000000000E+00 -0.25740940265E+02  0.25740940391E+02  0.25500000000E-02 0. -1.
    5000001    1    1    2    0    0  0.26976981308E+02  0.73580848913E+02  0.14836672682E+04  0.14911537351E+04  0.12700000000E+03 0.  0.
   -5000001    1    1    2    0    0 -0.26976981308E+02 -0.73580848913E+02  0.23110707066E+03  0.27510248446E+03  0.12700000000E+03 0.  0.
<mgrwt>
<rscale>  0 0.42333202E+03</rscale>
<asrwt>0</asrwt>
<pdfrwt beam="1">  1        2 0.24864515E+00 0.42333202E+03</pdfrwt>
<pdfrwt beam="2">  1       -2 0.36772756E-02 0.42333202E+03</pdfrwt>
<totfact> 0.36920238E+03</totfact>
</mgrwt>
</event>
<event>
 4    1  0.1351183E-004  0.3426743E+03  0.7818608E-02  0.1065663E+00
         -2   -1    0    0    0  501 -0.00000000000E+00  0.00000000000E+00  0.12712901624E+02  0.12712901879E+02  0.25500000000E-02 0.  1.
          2   -1    0    0  501    0  0.00000000000E+00 -0.00000000000E+00 -0.23091837302E+04  0.23091837302E+04  0.25500000000E-02 0. -1.
    5000001    1    1    2    0    0 -0.30146476744E+02 -0.10978061771E+03 -0.10375526251E+04  0.10514775528E+04  0.12700000000E+03 0.  0.
   -5000001    1    1    2    0    0  0.30146476744E+02  0.10978061771E+03 -0.12589182035E+04  0.12704190793E+04  0.12700000000E+03 0.  0.
<mgrwt>
<rscale>  0 0.34267434E+03</rscale>
<asrwt>0</asrwt>
<pdfrwt beam="1">  1        2 0.32988312E+00 0.34267434E+03</pdfrwt>
<pdfrwt beam="2">  1       -2 0.18161303E-02 0.34267434E+03</pdfrwt>
<totfact> 0.55532836E+03</totfact>
</mgrwt>
</event>
<event>
 4    1  0.1351183E-004  0.9112363E+03  0.7818608E-02  0.9411644E-01
          2   -1    0    0  501    0  0.00000000000E+00  0.00000000000E+00  0.20375592378E+04  0.20375592378E+04  0.25500000000E-02 0.  1.
         -2   -1    0    0    0  501 -0.00000000000E+00 -0.00000000000E+00 -0.10188066570E+03  0.10188066574E+03  0.25500000000E-02 0. -1.
    5000001    1    1    2    0    0 -0.36770664582E+03  0.10972240774E+03  0.47416815535E+03  0.62306630762E+03  0.12700000000E+03 0.  0.
   -5000001    1    1    2    0    0  0.36770664582E+03 -0.10972240774E+03  0.14615104167E+04  0.15163735959E+04  0.12700000000E+03 0.  0.
<mgrwt>
<rscale>  0 0.91123628E+03</rscale>
<asrwt>0</asrwt>
<pdfrwt beam="1">  1        2 0.29107987E+00 0.91123628E+03</pdfrwt>
<pdfrwt beam="2">  1       -2 0.14554382E-01 0.91123628E+03</pdfrwt>
<totfact> 0.28549155E+02</totfact>
</mgrwt>
</event>
<event>
 4    1  0.1351183E-004  0.3524260E+03  0.7818608E-02  0.1061624E+00
          2   -1    0    0  501    0  0.00000000000E+00  0.00000000000E+00  0.18779505580E+03  0.18779505581E+03  0.25500000000E-02 0.  1.
         -2   -1    0    0    0  501 -0.00000000000E+00 -0.00000000000E+00 -0.16534524632E+03  0.16534524634E+03  0.25500000000E-02 0. -1.
    5000001    1    1    2    0    0  0.66472788257E+02  0.10011729409E+03  0.33176282989E+02  0.17796564249E+03  0.12700000000E+03 0.  0.
   -5000001    1    1    2    0    0 -0.66472788257E+02 -0.10011729409E+03 -0.10726473515E+02  0.17517465966E+03  0.12700000000E+03 0.  0.
<mgrwt>
<rscale>  0 0.35242599E+03</rscale>
<asrwt>0</asrwt>
<pdfrwt beam="1">  1        2 0.26827865E-01 0.35242599E+03</pdfrwt>
<pdfrwt beam="2">  1       -2 0.23620749E-01 0.35242599E+03</pdfrwt>
<totfact> 0.31369245E+03</totfact>
</mgrwt>
</event>
<event>
 4    1  0.1351183E-004  0.5990274E+03  0.7818608E-02  0.9907426E-01
          2   -1    0    0  501    0  0.00000000000E+00  0.00000000000E+00  0.20714985983E+04  0.20714985983E+04  0.25500000000E-02 0.  1.
         -2   -1    0    0    0  501 -0.00000000000E+00 -0.00000000000E+00 -0.43306070175E+02  0.43306070250E+02  0.25500000000E-02 0. -1.
    5000001    1    1    2    0    0  0.24549462152E+03  0.47376859786E+01  0.60711315327E+03  0.66708727745E+03  0.12700000000E+03 0.  0.
   -5000001    1    1    2    0    0 -0.24549462152E+03 -0.47376859786E+01  0.14210793749E+04  0.14477173911E+04  0.12700000000E+03 0.  0.
<mgrwt>
<rscale>  0 0.59902742E+03</rscale>
<asrwt>0</asrwt>
<pdfrwt beam="1">  1        2 0.29592842E+00 0.59902742E+03</pdfrwt>
<pdfrwt beam="2">  1       -2 0.61865805E-02 0.59902742E+03</pdfrwt>
<totfact> 0.11229203E+03</totfact>
</mgrwt>
</event>
<event>
 4    1  0.1351183E-004  0.5453552E+03  0.7818608E-02  0.1002575E+00
          2   -1    0    0  501    0  0.00000000000E+00  0.00000000000E+00  0.39072952005E+04  0.39072952005E+04  0.25500000000E-02 0. -1.
         -2   -1    0    0    0  501 -0.00000000000E+00 -0.00000000000E+00 -0.19029295755E+02  0.19029295926E+02  0.25500000000E-02 0.  1.
    5000001    1    1    2    0    0  0.18673763448E+03 -0.15263496035E+03  0.19978656250E+04  0.20163740801E+04  0.12700000000E+03 0.  0.
   -5000001    1    1    2    0    0 -0.18673763448E+03  0.15263496035E+03  0.18904002798E+04  0.19099504164E+04  0.12700000000E+03 0.  0.
<mgrwt>
<rscale>  0 0.54535521E+03</rscale>
<asrwt>0</asrwt>
<pdfrwt beam="1">  1        2 0.55818606E+00 0.54535521E+03</pdfrwt>
<pdfrwt beam="2">  1       -2 0.27184658E-02 0.54535521E+03</pdfrwt>
<totfact> 0.38562875E+02</totfact>
</mgrwt>
</event>
<event>
 4    1  0.1351183E-004  0.4617666E+03  0.7818608E-02  0.1024270E+00
          2   -1    0    0  501    0  0.00000000000E+00  0.00000000000E+00  0.18054017488E+04  0.18054017488E+04  0.25500000000E-02 0.  1.
         -2   -1    0    0    0  501 -0.00000000000E+00 -0.00000000000E+00 -0.29526449130E+02  0.29526449240E+02  0.25500000000E-02 0. -1.
    5000001    1    1    2    0    0 -0.16157684180E+03 -0.10495215629E+03  0.85818196941E+03  0.88866603600E+03  0.12700000000E+03 0.  0.
   -5000001    1    1    2    0    0  0.16157684180E+03  0.10495215629E+03  0.91769333028E+03  0.94626216206E+03  0.12700000000E+03 0.  0.
<mgrwt>
<rscale>  0 0.46176662E+03</rscale>
<asrwt>0</asrwt>
<pdfrwt beam="1">  1        2 0.25791453E+00 0.46176662E+03</pdfrwt>
<pdfrwt beam="2">  1       -2 0.42180642E-02 0.46176662E+03</pdfrwt>
<totfact> 0.27778425E+03</totfact>
</mgrwt>
</event>
<event>
 4    1  0.1351183E-004  0.2932406E+03  0.7818608E-02  0.1088669E+00
         -2   -1    0    0    0  501 -0.00000000000E+00  0.00000000000E+00  0.25332080866E+03  0.25332080867E+03  0.25500000000E-02 0. -1.
          2   -1    0    0  501    0  0.00000000000E+00 -0.00000000000E+00 -0.84862821074E+02  0.84862821113E+02  0.25500000000E-02 0.  1.
    5000001    1    1    2    0    0  0.25618659064E+02 -0.65823080121E+02  0.61761814191E+02  0.15790033331E+03  0.12700000000E+03 0.  0.
   -5000001    1    1    2    0    0 -0.25618659064E+02  0.65823080121E+02  0.10669617339E+03  0.18028329647E+03  0.12700000000E+03 0.  0.
<mgrwt>
<rscale>  0 0.29324064E+03</rscale>
<asrwt>0</asrwt>
<pdfrwt beam="1">  1        2 0.12123260E-01 0.29324064E+03</pdfrwt>
<pdfrwt beam="2">  1       -2 0.36188687E-01 0.29324064E+03</pdfrwt>
<totfact> 0.36320146E+03</totfact>
</mgrwt>
</event>
<event>
 4    1  0.1351183E-004  0.4609532E+03  0.7818608E-02  0.1024505E+00
         -2   -1    0    0    0  501 -0.00000000000E+00  0.00000000000E+00  0.18047088781E+02  0.18047088961E+02  0.25500000000E-02 0. -1.
          2   -1    0    0  501    0  0.00000000000E+00 -0.00000000000E+00 -0.29433808409E+04  0.29433808409E+04  0.25500000000E-02 0.  1.
    5000001    1    1    2    0    0  0.14450462562E+03  0.11054378129E+03 -0.18633121772E+04  0.18764761613E+04  0.12700000000E+03 0.  0.
   -5000001    1    1    2    0    0 -0.14450462562E+03 -0.11054378129E+03 -0.10620215749E+04  0.10849517685E+04  0.12700000000E+03 0.  0.
<mgrwt>
<rscale>  0 0.46095317E+03</rscale>
<asrwt>0</asrwt>
<pdfrwt beam="1">  1        2 0.42048267E+00 0.46095317E+03</pdfrwt>
<pdfrwt beam="2">  1       -2 0.25781574E-02 0.46095317E+03</pdfrwt>
<totfact> 0.15467289E+03</totfact>
</mgrwt>
</event>
<event>
 4    1  0.1351183E-004  0.6762466E+03  0.7818608E-02  0.9758739E-01
         -2   -1    0    0    0  501 -0.00000000000E+00  0.00000000000E+00  0.85466804280E+02  0.85466804318E+02  0.25500000000E-02 0. -1.
          2   -1    0    0  501    0  0.00000000000E+00 -0.00000000000E+00 -0.13376817055E+04  0.13376817055E+04  0.25500000000E-02 0.  1.
    5000001    1    1    2    0    0  0.73741851491E+02  0.29710866933E+03 -0.76707564146E+03  0.83561083153E+03  0.12700000000E+03 0.  0.
   -5000001    1    1    2    0    0 -0.73741851491E+02 -0.29710866933E+03 -0.48513925977E+03  0.58753767829E+03  0.12700000000E+03 0.  0.
<mgrwt>
<rscale>  0 0.67624664E+03</rscale>
<asrwt>0</asrwt>
<pdfrwt beam="1">  1        2 0.19109737E+00 0.67624664E+03</pdfrwt>
<pdfrwt beam="2">  1       -2 0.12209544E-01 0.67624664E+03</pdfrwt>
<totfact> 0.89330834E+02</totfact>
</mgrwt>
</event>
<event>
 4    1  0.1351183E-004  0.6909919E+03  0.7818608E-02  0.9732762E-01
          2   -1    0    0  501    0  0.00000000000E+00  0.00000000000E+00  0.43915452612E+03  0.43915452613E+03  0.25500000000E-02 0.  1.
         -2   -1    0    0    0  501 -0.00000000000E+00 -0.00000000000E+00 -0.27181196241E+03  0.27181196242E+03  0.25500000000E-02 0. -1.
    5000001    1    1    2    0    0 -0.31989666534E+03  0.22819331828E+01  0.11452768710E+03  0.36274601973E+03  0.12700000000E+03 0.  0.
   -5000001    1    1    2    0    0  0.31989666534E+03 -0.22819331828E+01  0.52814876619E+02  0.34822046882E+03  0.12700000000E+03 0.  0.
<mgrwt>
<rscale>  0 0.69099191E+03</rscale>
<asrwt>0</asrwt>
<pdfrwt beam="1">  1        2 0.62736360E-01 0.69099191E+03</pdfrwt>
<pdfrwt beam="2">  1       -2 0.38830281E-01 0.69099191E+03</pdfrwt>
<totfact> 0.49102567E+02</totfact>
</mgrwt>
</event>
<event>
 4    1  0.1351183E-004  0.4346417E+03  0.7818608E-02  0.1032404E+00
         -2   -1    0    0    0  501 -0.00000000000E+00  0.00000000000E+00  0.31924706745E+02  0.31924706847E+02  0.25500000000E-02 0. -1.
          2   -1    0    0  501    0  0.00000000000E+00 -0.00000000000E+00 -0.14793668625E+04  0.14793668625E+04  0.25500000000E-02 0.  1.
    5000001    1    1    2    0    0  0.15769074444E+03  0.66500809836E+02 -0.87167656872E+03  0.89735041597E+03  0.12700000000E+03 0.  0.
   -5000001    1    1    2    0    0 -0.15769074444E+03 -0.66500809836E+02 -0.57576558699E+03  0.61394115333E+03  0.12700000000E+03 0.  0.
<mgrwt>
<rscale>  0 0.43464171E+03</rscale>
<asrwt>0</asrwt>
<pdfrwt beam="1">  1        2 0.21133808E+00 0.43464171E+03</pdfrwt>
<pdfrwt beam="2">  1       -2 0.45606733E-02 0.43464171E+03</pdfrwt>
<totfact> 0.36068551E+03</totfact>
</mgrwt>
</event>
<event>
 4    1  0.1351183E-004  0.3260757E+03  0.7818608E-02  0.1072887E+00
         -2   -1    0    0    0  501 -0.00000000000E+00  0.00000000000E+00  0.25730230992E+03  0.25730230994E+03  0.25500000000E-02 0. -1.
          2   -1    0    0  501    0  0.00000000000E+00 -0.00000000000E+00 -0.10330783996E+03  0.10330783999E+03  0.25500000000E-02 0.  1.
    5000001    1    1    2    0    0 -0.49708881179E+02  0.84616028244E+02  0.45299848740E+02  0.16676906608E+03  0.12700000000E+03 0.  0.
   -5000001    1    1    2    0    0  0.49708881179E+02 -0.84616028244E+02  0.10869462123E+03  0.19384108385E+03  0.12700000000E+03 0.  0.
<mgrwt>
<rscale>  0 0.32607573E+03</rscale>
<asrwt>0</asrwt>
<pdfrwt beam="1">  1        2 0.14758263E-01 0.32607573E+03</pdfrwt>
<pdfrwt beam="2">  1       -2 0.36757472E-01 0.32607573E+03</pdfrwt>
<totfact> 0.27901821E+03</totfact>
</mgrwt>
</event>
<event>
 4    1  0.1351183E-004  0.3985481E+03  0.7818608E-02  0.1044284E+00
         -2   -1    0    0    0  501 -0.00000000000E+00  0.00000000000E+00  0.16432544300E+03  0.16432544302E+03  0.25500000000E-02 0. -1.
          2   -1    0    0  501    0  0.00000000000E+00 -0.00000000000E+00 -0.24165547299E+03  0.24165547301E+03  0.25500000000E-02 0.  1.
    5000001    1    1    2    0    0  0.29340983242E+02  0.91326767117E+02  0.83486645273E+02  0.17972337530E+03  0.12700000000E+03 0.  0.
   -5000001    1    1    2    0    0 -0.29340983242E+02 -0.91326767117E+02 -0.16081667527E+03  0.22625754072E+03  0.12700000000E+03 0.  0.
<mgrwt>
<rscale>  0 0.39854808E+03</rscale>
<asrwt>0</asrwt>
<pdfrwt beam="1">  1        2 0.34522210E-01 0.39854808E+03</pdfrwt>
<pdfrwt beam="2">  1       -2 0.23475063E-01 0.39854808E+03</pdfrwt>
<totfact> 0.24039658E+03</totfact>
</mgrwt>
</event>
<event>
 4    1  0.1351183E-004  0.4523929E+03  0.7818608E-02  0.1027011E+00
          2   -1    0    0  501    0  0.00000000000E+00  0.00000000000E+00  0.15250711254E+03  0.15250711256E+03  0.25500000000E-02 0.  1.
         -2   -1    0    0    0  501 -0.00000000000E+00 -0.00000000000E+00 -0.33549149917E+03  0.33549149918E+03  0.25500000000E-02 0. -1.
    5000001    1    1    2    0    0 -0.18688072733E+03 -0.91992580509E+01 -0.97077265214E+02  0.24609353510E+03  0.12700000000E+03 0.  0.
   -5000001    1    1    2    0    0  0.18688072733E+03  0.91992580509E+01 -0.85907121420E+02  0.24190507664E+03  0.12700000000E+03 0.  0.
<mgrwt>
<rscale>  0 0.45239293E+03</rscale>
<asrwt>0</asrwt>
<pdfrwt beam="1">  1        2 0.21786730E-01 0.45239293E+03</pdfrwt>
<pdfrwt beam="2">  1       -2 0.47927357E-01 0.45239293E+03</pdfrwt>
<totfact> 0.10606715E+03</totfact>
</mgrwt>
</event>
<event>
 4    1  0.1351183E-004  0.5571222E+03  0.7818608E-02  0.9998587E-01
         -2   -1    0    0    0  501 -0.00000000000E+00  0.00000000000E+00  0.11098701207E+03  0.11098701210E+03  0.25500000000E-02 0. -1.
          2   -1    0    0  501    0  0.00000000000E+00 -0.00000000000E+00 -0.69914737203E+03  0.69914737204E+03  0.25500000000E-02 0.  1.
    5000001    1    1    2    0    0 -0.90115513946E+01  0.23278874298E+03 -0.17073100875E+03  0.31551526788E+03  0.12700000000E+03 0.  0.
   -5000001    1    1    2    0    0  0.90115513946E+01 -0.23278874298E+03 -0.41742935121E+03  0.49461911626E+03  0.12700000000E+03 0.  0.
<mgrwt>
<rscale>  0 0.55712217E+03</rscale>
<asrwt>0</asrwt>
<pdfrwt beam="1">  1        2 0.99878194E-01 0.55712217E+03</pdfrwt>
<pdfrwt beam="2">  1       -2 0.15855288E-01 0.55712217E+03</pdfrwt>
<totfact> 0.14377024E+03</totfact>
</mgrwt>
</event>
<event>
 4    1  0.1351183E-004  0.4247343E+03  0.7818608E-02  0.1035536E+00
         -2   -1    0    0    0  501 -0.00000000000E+00  0.00000000000E+00  0.28478187779E+03  0.28478187780E+03  0.25500000000E-02 0. -1.
          2   -1    0    0  501    0  0.00000000000E+00 -0.00000000000E+00 -0.15836615976E+03  0.15836615978E+03  0.25500000000E-02 0.  1.
    5000001    1    1    2    0    0 -0.12800646734E+03  0.10965117781E+03  0.38478491232E+02  0.21451953469E+03  0.12700000000E+03 0.  0.
   -5000001    1    1    2    0    0  0.12800646734E+03 -0.10965117781E+03  0.87937226793E+02  0.22862850289E+03  0.12700000000E+03 0.  0.
<mgrwt>
<rscale>  0 0.42473433E+03</rscale>
<asrwt>0</asrwt>
<pdfrwt beam="1">  1        2 0.22623737E-01 0.42473433E+03</pdfrwt>
<pdfrwt beam="2">  1       -2 0.40683125E-01 0.42473433E+03</pdfrwt>
<totfact> 0.14012365E+03</totfact>
</mgrwt>
</event>
<event>
 4    1  0.1351183E-004  0.4278117E+03  0.7818608E-02  0.1034553E+00
          2   -1    0    0  501    0  0.00000000000E+00  0.00000000000E+00  0.68776195901E+03  0.68776195901E+03  0.25500000000E-02 0. -1.
         -2   -1    0    0    0  501 -0.00000000000E+00 -0.00000000000E+00 -0.66528422253E+02  0.66528422302E+02  0.25500000000E-02 0.  1.
    5000001    1    1    2    0    0  0.14815330046E+03  0.64304475215E+02  0.20568049964E+03  0.29071968269E+03  0.12700000000E+03 0.  0.
   -5000001    1    1    2    0    0 -0.14815330046E+03 -0.64304475215E+02  0.41555303712E+03  0.46357069863E+03  0.12700000000E+03 0.  0.
<mgrwt>
<rscale>  0 0.42781173E+03</rscale>
<asrwt>0</asrwt>
<pdfrwt beam="1">  1        2 0.98251712E-01 0.42781173E+03</pdfrwt>
<pdfrwt beam="2">  1       -2 0.95040599E-02 0.42781173E+03</pdfrwt>
<totfact> 0.33970689E+03</totfact>
</mgrwt>
</event>
<event>
 4    1  0.1351183E-004  0.4399351E+03  0.7818608E-02  0.1030767E+00
         -2   -1    0    0    0  501 -0.00000000000E+00  0.00000000000E+00  0.71135978824E+02  0.71135978870E+02  0.25500000000E-02 0. -1.
          2   -1    0    0  501    0  0.00000000000E+00 -0.00000000000E+00 -0.68018622156E+03  0.68018622156E+03  0.25500000000E-02 0.  1.
    5000001    1    1    2    0    0  0.14335640464E+03 -0.10677119862E+03 -0.33437822618E+03  0.39986115809E+03  0.12700000000E+03 0.  0.
   -5000001    1    1    2    0    0 -0.14335640464E+03  0.10677119862E+03 -0.27467201656E+03  0.35146104234E+03  0.12700000000E+03 0.  0.
<mgrwt>
<rscale>  0 0.43993505E+03</rscale>
<asrwt>0</asrwt>
<pdfrwt beam="1">  1        2 0.97169457E-01 0.43993505E+03</pdfrwt>
<pdfrwt beam="2">  1       -2 0.10162283E-01 0.43993505E+03</pdfrwt>
<totfact> 0.30924904E+03</totfact>
</mgrwt>
</event>
<event>
 4    1  0.1351183E-004  0.3936417E+03  0.7818608E-02  0.1046004E+00
         -2   -1    0    0    0  501 -0.00000000000E+00  0.00000000000E+00  0.22431198893E+03  0.22431198894E+03  0.25500000000E-02 0. -1.
          2   -1    0    0  501    0  0.00000000000E+00 -0.00000000000E+00 -0.17269894679E+03  0.17269894681E+03  0.25500000000E-02 0.  1.
    5000001    1    1    2    0    0 -0.13260622451E+03  0.69769131980E+02  0.38455867368E+02  0.20014993453E+03  0.12700000000E+03 0.  0.
   -5000001    1    1    2    0    0  0.13260622451E+03 -0.69769131980E+02  0.13157174772E+02  0.19686100123E+03  0.12700000000E+03 0.  0.
<mgrwt>
<rscale>  0 0.39364169E+03</rscale>
<asrwt>0</asrwt>
<pdfrwt beam="1">  1        2 0.24671278E-01 0.39364169E+03</pdfrwt>
<pdfrwt beam="2">  1       -2 0.32044570E-01 0.39364169E+03</pdfrwt>
<totfact> 0.19923542E+03</totfact>
</mgrwt>
</event>
<event>
 4    1  0.1351183E-004  0.4758316E+03  0.7818608E-02  0.1020287E+00
         -2   -1    0    0    0  501 -0.00000000000E+00  0.00000000000E+00  0.19752467772E+03  0.19752467774E+03  0.25500000000E-02 0. -1.
          2   -1    0    0  501    0  0.00000000000E+00 -0.00000000000E+00 -0.28656641371E+03  0.28656641372E+03  0.25500000000E-02 0.  1.
    5000001    1    1    2    0    0  0.35123009018E+02  0.19452387799E+03 -0.82611020826E+02  0.24905169269E+03  0.12700000000E+03 0.  0.
   -5000001    1    1    2    0    0 -0.35123009018E+02 -0.19452387799E+03 -0.64307151630E+01  0.23503939876E+03  0.12700000000E+03 0.  0.
<mgrwt>
<rscale>  0 0.47583164E+03</rscale>
<asrwt>0</asrwt>
<pdfrwt beam="1">  1        2 0.40938059E-01 0.47583164E+03</pdfrwt>
<pdfrwt beam="2">  1       -2 0.28217811E-01 0.47583164E+03</pdfrwt>
<totfact> 0.14363495E+03</totfact>
</mgrwt>
</event>
<event>
 4    1  0.1351183E-004  0.3030862E+03  0.7818608E-02  0.1083708E+00
         -2   -1    0    0    0  501 -0.00000000000E+00  0.00000000000E+00  0.55903999900E+02  0.55903999958E+02  0.25500000000E-02 0. -1.
          2   -1    0    0  501    0  0.00000000000E+00 -0.00000000000E+00 -0.41079905041E+03  0.41079905042E+03  0.25500000000E-02 0.  1.
    5000001    1    1    2    0    0 -0.36012153170E+02  0.72827125966E+02 -0.15380993141E+03  0.21537678717E+03  0.12700000000E+03 0.  0.
   -5000001    1    1    2    0    0  0.36012153170E+02 -0.72827125966E+02 -0.20108511911E+03  0.25132626321E+03  0.12700000000E+03 0.  0.
<mgrwt>
<rscale>  0 0.30308619E+03</rscale>
<asrwt>0</asrwt>
<pdfrwt beam="1">  1        2 0.58685577E-01 0.30308619E+03</pdfrwt>
<pdfrwt beam="2">  1       -2 0.79862859E-02 0.30308619E+03</pdfrwt>
<totfact> 0.79587166E+03</totfact>
</mgrwt>
</event>
<event>
 4    1  0.1351183E-004  0.2726163E+03  0.7818608E-02  0.1099791E+00
          2   -1    0    0  501    0  0.00000000000E+00  0.00000000000E+00  0.18236987991E+04  0.18236987991E+04  0.25500000000E-02 0.  1.
         -2   -1    0    0    0  501 -0.00000000000E+00 -0.00000000000E+00 -0.10188038843E+02  0.10188039163E+02  0.25500000000E-02 0. -1.
    5000001    1    1    2    0    0 -0.37977131175E+02  0.22471219276E+02  0.75578037009E+03  0.76764587278E+03  0.12700000000E+03 0.  0.
   -5000001    1    1    2    0    0  0.37977131175E+02 -0.22471219276E+02  0.10577303902E+04  0.10662409655E+04  0.12700000000E+03 0.  0.
<mgrwt>
<rscale>  0 0.27261632E+03</rscale>
<asrwt>0</asrwt>
<pdfrwt beam="1">  1        2 0.26052845E+00 0.27261632E+03</pdfrwt>
<pdfrwt beam="2">  1       -2 0.14554338E-02 0.27261632E+03</pdfrwt>
<totfact> 0.13278646E+04</totfact>
</mgrwt>
</event>
<event>
 4    1  0.1351183E-004  0.2892454E+03  0.7818608E-02  0.1090744E+00
         -2   -1    0    0    0  501 -0.00000000000E+00  0.00000000000E+00  0.42286818545E+02  0.42286818622E+02  0.25500000000E-02 0. -1.
          2   -1    0    0  501    0  0.00000000000E+00 -0.00000000000E+00 -0.49461585812E+03  0.49461585812E+03  0.25500000000E-02 0.  1.
    5000001    1    1    2    0    0 -0.65195197951E+02 -0.19765228753E+02 -0.24856661854E+03  0.28732462817E+03  0.12700000000E+03 0.  0.
   -5000001    1    1    2    0    0  0.65195197951E+02  0.19765228753E+02 -0.20376242103E+03  0.24957804857E+03  0.12700000000E+03 0.  0.
<mgrwt>
<rscale>  0 0.28924544E+03</rscale>
<asrwt>0</asrwt>
<pdfrwt beam="1">  1        2 0.70659405E-01 0.28924544E+03</pdfrwt>
<pdfrwt beam="2">  1       -2 0.60409744E-02 0.28924544E+03</pdfrwt>
<totfact> 0.99956764E+03</totfact>
</mgrwt>
</event>
<event>
 4    1  0.1351183E-004  0.6032187E+03  0.7818608E-02  0.9898751E-01
          2   -1    0    0  501    0  0.00000000000E+00  0.00000000000E+00  0.28608329446E+03  0.28608329447E+03  0.25500000000E-02 0.  1.
         -2   -1    0    0    0  501 -0.00000000000E+00 -0.00000000000E+00 -0.31797797636E+03  0.31797797637E+03  0.25500000000E-02 0. -1.
    5000001    1    1    2    0    0  0.57952209150E+02  0.26735839416E+03 -0.15480238563E+02  0.30200597222E+03  0.12700000000E+03 0.  0.
   -5000001    1    1    2    0    0 -0.57952209150E+02 -0.26735839416E+03 -0.16414443345E+02  0.30205529862E+03  0.12700000000E+03 0.  0.
<mgrwt>
<rscale>  0 0.60321866E+03</rscale>
<asrwt>0</asrwt>
<pdfrwt beam="1">  1        2 0.40869042E-01 0.60321866E+03</pdfrwt>
<pdfrwt beam="2">  1       -2 0.45425425E-01 0.60321866E+03</pdfrwt>
<totfact> 0.58192283E+02</totfact>
</mgrwt>
</event>
<event>
 4    1  0.1351183E-004  0.5370316E+03  0.7818608E-02  0.1004541E+00
         -2   -1    0    0    0  501 -0.00000000000E+00  0.00000000000E+00  0.36111786326E+02  0.36111786416E+02  0.25500000000E-02 0. -1.
          2   -1    0    0  501    0  0.00000000000E+00 -0.00000000000E+00 -0.19965984134E+04  0.19965984134E+04  0.25500000000E-02 0.  1.
    5000001    1    1    2    0    0  0.62023799855E+02  0.20980687145E+03 -0.13210241633E+04  0.13450277748E+04  0.12700000000E+03 0.  0.
   -5000001    1    1    2    0    0 -0.62023799855E+02 -0.20980687145E+03 -0.63946246378E+03  0.68768242499E+03  0.12700000000E+03 0.  0.
<mgrwt>
<rscale>  0 0.53703160E+03</rscale>
<asrwt>0</asrwt>
<pdfrwt beam="1">  1        2 0.28522827E+00 0.53703160E+03</pdfrwt>
<pdfrwt beam="2">  1       -2 0.51588279E-02 0.53703160E+03</pdfrwt>
<totfact> 0.16304449E+03</totfact>
</mgrwt>
</event>
<event>
 4    1  0.1351183E-004  0.5065898E+03  0.7818608E-02  0.1012073E+00
          2   -1    0    0  501    0  0.00000000000E+00  0.00000000000E+00  0.78852034374E+03  0.78852034374E+03  0.25500000000E-02 0.  1.
         -2   -1    0    0    0  501 -0.00000000000E+00 -0.00000000000E+00 -0.81365432965E+02  0.81365433005E+02  0.25500000000E-02 0. -1.
    5000001    1    1    2    0    0  0.24697487693E+02  0.16835272518E+03  0.59074614867E+03  0.62774407058E+03  0.12700000000E+03 0.  0.
   -5000001    1    1    2    0    0 -0.24697487693E+02 -0.16835272518E+03  0.11640876210E+03  0.24214170617E+03  0.12700000000E+03 0.  0.
<mgrwt>
<rscale>  0 0.50658977E+03</rscale>
<asrwt>0</asrwt>
<pdfrwt beam="1">  1        2 0.11264577E+00 0.50658977E+03</pdfrwt>
<pdfrwt beam="2">  1       -2 0.11623633E-01 0.50658977E+03</pdfrwt>
<totfact> 0.20749508E+03</totfact>
</mgrwt>
</event>
<event>
 4    1  0.1351183E-004  0.5305420E+03  0.7818608E-02  0.1006101E+00
         -2   -1    0    0    0  501 -0.00000000000E+00  0.00000000000E+00  0.79131629882E+02  0.79131629923E+02  0.25500000000E-02 0. -1.
          2   -1    0    0  501    0  0.00000000000E+00 -0.00000000000E+00 -0.88926139682E+03  0.88926139683E+03  0.25500000000E-02 0.  1.
    5000001    1    1    2    0    0 -0.17563360647E+03 -0.14699042294E+03 -0.48221131435E+03  0.54873499965E+03  0.12700000000E+03 0.  0.
   -5000001    1    1    2    0    0  0.17563360647E+03  0.14699042294E+03 -0.32791845259E+03  0.41965802710E+03  0.12700000000E+03 0.  0.
<mgrwt>
<rscale>  0 0.53054200E+03</rscale>
<asrwt>0</asrwt>
<pdfrwt beam="1">  1        2 0.12703734E+00 0.53054200E+03</pdfrwt>
<pdfrwt beam="2">  1       -2 0.11304519E-01 0.53054200E+03</pdfrwt>
<totfact> 0.18587315E+03</totfact>
</mgrwt>
</event>
<event>
 4    1  0.1351183E-004  0.5864471E+03  0.7818608E-02  0.9933930E-01
          2   -1    0    0  501    0  0.00000000000E+00  0.00000000000E+00  0.69834974803E+03  0.69834974804E+03  0.25500000000E-02 0.  1.
         -2   -1    0    0    0  501 -0.00000000000E+00 -0.00000000000E+00 -0.12311889751E+03  0.12311889754E+03  0.25500000000E-02 0. -1.
    5000001    1    1    2    0    0  0.16525970853E+03  0.25870381451E+02  0.57424356802E+03  0.61144478354E+03  0.12700000000E+03 0.  0.
   -5000001    1    1    2    0    0 -0.16525970853E+03 -0.25870381451E+02  0.98728249602E+00  0.21002386204E+03  0.12700000000E+03 0.  0.
<mgrwt>
<rscale>  0 0.58644710E+03</rscale>
<asrwt>0</asrwt>
<pdfrwt beam="1">  1        2 0.99764251E-01 0.58644710E+03</pdfrwt>
<pdfrwt beam="2">  1       -2 0.17588414E-01 0.58644710E+03</pdfrwt>
<totfact> 0.12064148E+03</totfact>
</mgrwt>
</event>
<event>
 4    1  0.1351183E-004  0.4465208E+03  0.7818608E-02  0.1028765E+00
         -2   -1    0    0    0  501 -0.00000000000E+00  0.00000000000E+00  0.16546310932E+03  0.16546310934E+03  0.25500000000E-02 0. -1.
          2   -1    0    0  501    0  0.00000000000E+00 -0.00000000000E+00 -0.30124668170E+03  0.30124668171E+03  0.25500000000E-02 0.  1.
    5000001    1    1    2    0    0 -0.48652367291E+02  0.17702283363E+03 -0.64259586724E+02  0.23229815100E+03  0.12700000000E+03 0.  0.
   -5000001    1    1    2    0    0  0.48652367291E+02 -0.17702283363E+03 -0.71523985648E+02  0.23441164005E+03  0.12700000000E+03 0.  0.
<mgrwt>
<rscale>  0 0.44652083E+03</rscale>
<asrwt>0</asrwt>
<pdfrwt beam="1">  1        2 0.43035240E-01 0.44652083E+03</pdfrwt>
<pdfrwt beam="2">  1       -2 0.23637587E-01 0.44652083E+03</pdfrwt>
<totfact> 0.18677214E+03</totfact>
</mgrwt>
</event>
<event>
 4    1  0.1351183E-004  0.4308220E+03  0.7818608E-02  0.1033601E+00
         -2   -1    0    0    0  501 -0.00000000000E+00  0.00000000000E+00  0.23408408536E+02  0.23408408675E+02  0.25500000000E-02 0. -1.
          2   -1    0    0  501    0  0.00000000000E+00 -0.00000000000E+00 -0.19822747180E+04  0.19822747180E+04  0.25500000000E-02 0.  1.
    5000001    1    1    2    0    0  0.12825853920E+03 -0.11082547948E+03 -0.79671776726E+03  0.82439113317E+03  0.12700000000E+03 0.  0.
   -5000001    1    1    2    0    0 -0.12825853920E+03  0.11082547948E+03 -0.11621485422E+04  0.11812919935E+04  0.12700000000E+03 0.  0.
<mgrwt>
<rscale>  0 0.43082199E+03</rscale>
<asrwt>0</asrwt>
<pdfrwt beam="1">  1        2 0.28318200E+00 0.43082199E+03</pdfrwt>
<pdfrwt beam="2">  1       -2 0.33440596E-02 0.43082199E+03</pdfrwt>
<totfact> 0.32316589E+03</totfact>
</mgrwt>
</event>
<event>
 4    1  0.1351183E-004  0.3365808E+03  0.7818608E-02  0.1068262E+00
         -2   -1    0    0    0  501 -0.00000000000E+00  0.00000000000E+00  0.55881316768E+02  0.55881316826E+02  0.25500000000E-02 0. -1.
          2   -1    0    0  501    0  0.00000000000E+00 -0.00000000000E+00 -0.50681813951E+03  0.50681813952E+03  0.25500000000E-02 0.  1.
    5000001    1    1    2    0    0 -0.52457352758E+02  0.12890149375E+02 -0.38647285732E+03  0.41037568063E+03  0.12700000000E+03 0.  0.
   -5000001    1    1    2    0    0  0.52457352758E+02 -0.12890149375E+02 -0.64463965426E+02  0.15232377571E+03  0.12700000000E+03 0.  0.
<mgrwt>
<rscale>  0 0.33658084E+03</rscale>
<asrwt>0</asrwt>
<pdfrwt beam="1">  1        2 0.72402589E-01 0.33658084E+03</pdfrwt>
<pdfrwt beam="2">  1       -2 0.79830455E-02 0.33658084E+03</pdfrwt>
<totfact> 0.63421060E+03</totfact>
</mgrwt>
</event>
<event>
 4    1  0.1351183E-004  0.3608618E+03  0.7818608E-02  0.1058243E+00
         -2   -1    0    0    0  501 -0.00000000000E+00  0.00000000000E+00  0.31173204781E+02  0.31173204886E+02  0.25500000000E-02 0. -1.
          2   -1    0    0  501    0  0.00000000000E+00 -0.00000000000E+00 -0.10443362563E+04  0.10443362563E+04  0.25500000000E-02 0.  1.
    5000001    1    1    2    0    0 -0.40941766137E+02 -0.96189149598E+02 -0.72756761327E+03  0.74593043416E+03  0.12700000000E+03 0.  0.
   -5000001    1    1    2    0    0  0.40941766137E+02  0.96189149598E+02 -0.28559543826E+03  0.32957902704E+03  0.12700000000E+03 0.  0.
<mgrwt>
<rscale>  0 0.36086179E+03</rscale>
<asrwt>0</asrwt>
<pdfrwt beam="1">  1        2 0.14919087E+00 0.36086179E+03</pdfrwt>
<pdfrwt beam="2">  1       -2 0.44533157E-02 0.36086179E+03</pdfrwt>
<totfact> 0.64399481E+03</totfact>
</mgrwt>
</event>
<event>
 4    1  0.1351183E-004  0.1054661E+04  0.7818608E-02  0.9250545E-01
         -2   -1    0    0    0  501 -0.00000000000E+00  0.00000000000E+00  0.39108663321E+03  0.39108663322E+03  0.25500000000E-02 0. -1.
          2   -1    0    0  501    0  0.00000000000E+00 -0.00000000000E+00 -0.71103779990E+03  0.71103779991E+03  0.25500000000E-02 0.  1.
    5000001    1    1    2    0    0  0.24176163542E+03 -0.45058499230E+03 -0.18269944179E+03  0.55765904429E+03  0.12700000000E+03 0.  0.
   -5000001    1    1    2    0    0 -0.24176163542E+03  0.45058499230E+03 -0.13725172490E+03  0.54446538883E+03  0.12700000000E+03 0.  0.
<mgrwt>
<rscale>  0 0.10546609E+04</rscale>
<asrwt>0</asrwt>
<pdfrwt beam="1">  1        2 0.10157683E+00 0.10546609E+04</pdfrwt>
<pdfrwt beam="2">  1       -2 0.55869519E-01 0.10546609E+04</pdfrwt>
<totfact> 0.13226083E+02</totfact>
</mgrwt>
</event>
<event>
 4    1  0.1351183E-004  0.3195876E+03  0.7818608E-02  0.1075839E+00
          2   -1    0    0  501    0  0.00000000000E+00  0.00000000000E+00  0.57416284358E+04  0.57416284358E+04  0.25500000000E-02 0. -1.
         -2   -1    0    0    0  501 -0.00000000000E+00 -0.00000000000E+00 -0.44471793102E+01  0.44471800413E+01  0.25500000000E-02 0.  1.
    5000001    1    1    2    0    0  0.37811294219E+01 -0.92048152902E+02  0.34133161229E+04  0.34169201211E+04  0.12700000000E+03 0.  0.
   -5000001    1    1    2    0    0 -0.37811294219E+01  0.92048152902E+02  0.23238651336E+04  0.23291554947E+04  0.12700000000E+03 0.  0.
<mgrwt>
<rscale>  0 0.31958757E+03</rscale>
<asrwt>0</asrwt>
<pdfrwt beam="1">  1        2 0.82022693E+00 0.31958757E+03</pdfrwt>
<pdfrwt beam="2">  1       -2 0.63531580E-03 0.31958757E+03</pdfrwt>
<totfact> 0.73084974E+01</totfact>
</mgrwt>
</event>
<event>
 4    1  0.1351183E-004  0.3883172E+03  0.7818608E-02  0.1047902E+00
         -2   -1    0    0    0  501 -0.00000000000E+00  0.00000000000E+00  0.22236182800E+03  0.22236182801E+03  0.25500000000E-02 0. -1.
          2   -1    0    0  501    0  0.00000000000E+00 -0.00000000000E+00 -0.16953254449E+03  0.16953254451E+03  0.25500000000E-02 0.  1.
    5000001    1    1    2    0    0  0.39483473835E+02  0.14078053908E+03  0.40342556629E+02  0.19782473750E+03  0.12700000000E+03 0.  0.
   -5000001    1    1    2    0    0 -0.39483473835E+02 -0.14078053908E+03  0.12486726882E+02  0.19406963503E+03  0.12700000000E+03 0.  0.
<mgrwt>
<rscale>  0 0.38831722E+03</rscale>
<asrwt>0</asrwt>
<pdfrwt beam="1">  1        2 0.24218935E-01 0.38831722E+03</pdfrwt>
<pdfrwt beam="2">  1       -2 0.31765975E-01 0.38831722E+03</pdfrwt>
<totfact> 0.20672295E+03</totfact>
</mgrwt>
</event>
<event>
 4    1  0.1351183E-004  0.7046538E+03  0.7818608E-02  0.9709306E-01
         -2   -1    0    0    0  501 -0.00000000000E+00  0.00000000000E+00  0.36118886601E+02  0.36118886691E+02  0.25500000000E-02 0. -1.
          2   -1    0    0  501    0  0.00000000000E+00 -0.00000000000E+00 -0.34368241406E+04  0.34368241406E+04  0.25500000000E-02 0.  1.
    5000001    1    1    2    0    0  0.19841931203E+03  0.22067870420E+03 -0.10044631434E+04  0.10550566432E+04  0.12700000000E+03 0.  0.
   -5000001    1    1    2    0    0 -0.19841931203E+03 -0.22067870420E+03 -0.23962421106E+04  0.24178863841E+04  0.12700000000E+03 0.  0.
<mgrwt>
<rscale>  0 0.70465385E+03</rscale>
<asrwt>0</asrwt>
<pdfrwt beam="1">  1        2 0.49097467E+00 0.70465385E+03</pdfrwt>
<pdfrwt beam="2">  1       -2 0.51598431E-02 0.70465385E+03</pdfrwt>
<totfact> 0.27601006E+02</totfact>
</mgrwt>
</event>
<event>
 4    1  0.1351183E-004  0.3169282E+03  0.7818608E-02  0.1077072E+00
         -2   -1    0    0    0  501 -0.00000000000E+00  0.00000000000E+00  0.83795035158E+02  0.83795035197E+02  0.25500000000E-02 0. -1.
          2   -1    0    0  501    0  0.00000000000E+00 -0.00000000000E+00 -0.29967023186E+03  0.29967023187E+03  0.25500000000E-02 0.  1.
    5000001    1    1    2    0    0 -0.72980642706E+02 -0.45456425448E+02 -0.15617500947E+03  0.21888831491E+03  0.12700000000E+03 0.  0.
   -5000001    1    1    2    0    0  0.72980642706E+02  0.45456425448E+02 -0.59700187237E+02  0.16457695215E+03  0.12700000000E+03 0.  0.
<mgrwt>
<rscale>  0 0.31692824E+03</rscale>
<asrwt>0</asrwt>
<pdfrwt beam="1">  1        2 0.42810032E-01 0.31692824E+03</pdfrwt>
<pdfrwt beam="2">  1       -2 0.11970720E-01 0.31692824E+03</pdfrwt>
<totfact> 0.58877350E+03</totfact>
</mgrwt>
</event>
<event>
 4    1  0.1351183E-004  0.4207549E+03  0.7818608E-02  0.1036821E+00
          2   -1    0    0  501    0  0.00000000000E+00  0.00000000000E+00  0.59898891375E+03  0.59898891376E+03  0.25500000000E-02 0.  1.
         -2   -1    0    0    0  501 -0.00000000000E+00 -0.00000000000E+00 -0.73888955727E+02  0.73888955771E+02  0.25500000000E-02 0. -1.
    5000001    1    1    2    0    0 -0.10593802973E+03  0.10721799275E+03  0.14491135879E+03  0.24463619115E+03  0.12700000000E+03 0.  0.
   -5000001    1    1    2    0    0  0.10593802973E+03 -0.10721799275E+03  0.38018859924E+03  0.42824167838E+03  0.12700000000E+03 0.  0.
<mgrwt>
<rscale>  0 0.42075487E+03</rscale>
<asrwt>0</asrwt>
<pdfrwt beam="1">  1        2 0.85569847E-01 0.42075487E+03</pdfrwt>
<pdfrwt beam="2">  1       -2 0.10555565E-01 0.42075487E+03</pdfrwt>
<totfact> 0.33776486E+03</totfact>
</mgrwt>
</event>
<event>
 4    1  0.1351183E-004  0.4811499E+03  0.7818608E-02  0.1018820E+00
          2   -1    0    0  501    0  0.00000000000E+00  0.00000000000E+00  0.73323192145E+03  0.73323192146E+03  0.25500000000E-02 0.  1.
         -2   -1    0    0    0  501 -0.00000000000E+00 -0.00000000000E+00 -0.78933157404E+02  0.78933157445E+02  0.25500000000E-02 0. -1.
    5000001    1    1    2    0    0 -0.14731507102E+03 -0.13869461257E+03  0.37517151743E+03  0.44477027014E+03  0.12700000000E+03 0.  0.
   -5000001    1    1    2    0    0  0.14731507102E+03  0.13869461257E+03  0.27912724661E+03  0.36739480876E+03  0.12700000000E+03 0.  0.
<mgrwt>
<rscale>  0 0.48114992E+03</rscale>
<asrwt>0</asrwt>
<pdfrwt beam="1">  1        2 0.10474742E+00 0.48114992E+03</pdfrwt>
<pdfrwt beam="2">  1       -2 0.11276165E-01 0.48114992E+03</pdfrwt>
<totfact> 0.23867990E+03</totfact>
</mgrwt>
</event>
<event>
 4    1  0.1351183E-004  0.7909110E+03  0.7818608E-02  0.9573267E-01
         -2   -1    0    0    0  501 -0.00000000000E+00  0.00000000000E+00  0.49506771236E+02  0.49506771302E+02  0.25500000000E-02 0. -1.
          2   -1    0    0  501    0  0.00000000000E+00 -0.00000000000E+00 -0.31588618736E+04  0.31588618736E+04  0.25500000000E-02 0.  1.
    5000001    1    1    2    0    0 -0.32490766810E+02 -0.29141587712E+03 -0.24997504758E+04  0.25200913286E+04  0.12700000000E+03 0.  0.
   -5000001    1    1    2    0    0  0.32490766810E+02  0.29141587712E+03 -0.60960462652E+03  0.68827731623E+03  0.12700000000E+03 0.  0.
<mgrwt>
<rscale>  0 0.79091100E+03</rscale>
<asrwt>0</asrwt>
<pdfrwt beam="1">  1        2 0.45126585E+00 0.79091100E+03</pdfrwt>
<pdfrwt beam="2">  1       -2 0.70723979E-02 0.79091100E+03</pdfrwt>
<totfact> 0.24060430E+02</totfact>
</mgrwt>
</event>
<event>
 4    1  0.1351183E-004  0.3772720E+03  0.7818608E-02  0.1051947E+00
         -2   -1    0    0    0  501 -0.00000000000E+00  0.00000000000E+00  0.19396711728E+02  0.19396711895E+02  0.25500000000E-02 0. -1.
          2   -1    0    0  501    0  0.00000000000E+00 -0.00000000000E+00 -0.18345139763E+04  0.18345139763E+04  0.25500000000E-02 0.  1.
    5000001    1    1    2    0    0 -0.11248960927E+03 -0.65082111473E+02 -0.65868819360E+03  0.68329256532E+03  0.12700000000E+03 0.  0.
   -5000001    1    1    2    0    0  0.11248960927E+03  0.65082111473E+02 -0.11564290709E+04  0.11706181229E+04  0.12700000000E+03 0.  0.
<mgrwt>
<rscale>  0 0.37727199E+03</rscale>
<asrwt>0</asrwt>
<pdfrwt beam="1">  1        2 0.26207331E+00 0.37727199E+03</pdfrwt>
<pdfrwt beam="2">  1       -2 0.27709600E-02 0.37727199E+03</pdfrwt>
<totfact> 0.50805602E+03</totfact>
</mgrwt>
</event>
<event>
 4    1  0.1351183E-004  0.5521501E+03  0.7818608E-02  0.1000997E+00
          2   -1    0    0  501    0  0.00000000000E+00  0.00000000000E+00  0.40721229411E+03  0.40721229412E+03  0.25500000000E-02 0.  1.
         -2   -1    0    0    0  501 -0.00000000000E+00 -0.00000000000E+00 -0.18716880647E+03  0.18716880649E+03  0.25500000000E-02 0. -1.
    5000001    1    1    2    0    0 -0.14121846544E+03  0.10975001472E+03 -0.70432263640E+02  0.23038538251E+03  0.12700000000E+03 0.  0.
   -5000001    1    1    2    0    0  0.14121846544E+03 -0.10975001472E+03  0.29047575128E+03  0.36399571810E+03  0.12700000000E+03 0.  0.
<mgrwt>
<rscale>  0 0.55215012E+03</rscale>
<asrwt>0</asrwt>
<pdfrwt beam="1">  1        2 0.58173185E-01 0.55215012E+03</pdfrwt>
<pdfrwt beam="2">  1       -2 0.26738401E-01 0.55215012E+03</pdfrwt>
<totfact> 0.10760365E+03</totfact>
</mgrwt>
</event>
<event>
 4    1  0.1351183E-004  0.3362620E+03  0.7818608E-02  0.1068399E+00
          2   -1    0    0  501    0  0.00000000000E+00  0.00000000000E+00  0.60554356516E+03  0.60554356516E+03  0.25500000000E-02 0.  1.
         -2   -1    0    0    0  501 -0.00000000000E+00 -0.00000000000E+00 -0.46682090834E+02  0.46682090903E+02  0.25500000000E-02 0. -1.
    5000001    1    1    2    0    0 -0.56728319221E+02 -0.81781553431E+02  0.37108162709E+03  0.40464416300E+03  0.12700000000E+03 0.  0.
   -5000001    1    1    2    0    0  0.56728319221E+02  0.81781553431E+02  0.18777984723E+03  0.24758149307E+03  0.12700000000E+03 0.  0.
<mgrwt>
<rscale>  0 0.33626204E+03</rscale>
<asrwt>0</asrwt>
<pdfrwt beam="1">  1        2 0.86506220E-01 0.33626204E+03</pdfrwt>
<pdfrwt beam="2">  1       -2 0.66688704E-02 0.33626204E+03</pdfrwt>
<totfact> 0.68632445E+03</totfact>
</mgrwt>
</event>
<event>
 4    1  0.1351183E-004  0.4263803E+03  0.7818608E-02  0.1035010E+00
          2   -1    0    0  501    0  0.00000000000E+00  0.00000000000E+00  0.16363225383E+03  0.16363225385E+03  0.25500000000E-02 0.  1.
         -2   -1    0    0    0  501 -0.00000000000E+00 -0.00000000000E+00 -0.27775724167E+03  0.27775724168E+03  0.25500000000E-02 0. -1.
    5000001    1    1    2    0    0 -0.11715394345E+03  0.24158989150E+02 -0.18390039473E+03  0.25348975996E+03  0.12700000000E+03 0.  0.
   -5000001    1    1    2    0    0  0.11715394345E+03 -0.24158989150E+02  0.69775406891E+02  0.18789973557E+03  0.12700000000E+03 0.  0.
<mgrwt>
<rscale>  0 0.42638032E+03</rscale>
<asrwt>0</asrwt>
<pdfrwt beam="1">  1        2 0.23376036E-01 0.42638032E+03</pdfrwt>
<pdfrwt beam="2">  1       -2 0.39679606E-01 0.42638032E+03</pdfrwt>
<totfact> 0.14165298E+03</totfact>
</mgrwt>
</event>
<event>
 4    1  0.1351183E-004  0.3221675E+03  0.7818608E-02  0.1074656E+00
          2   -1    0    0  501    0  0.00000000000E+00  0.00000000000E+00  0.12339220811E+04  0.12339220811E+04  0.25500000000E-02 0.  1.
         -2   -1    0    0    0  501 -0.00000000000E+00 -0.00000000000E+00 -0.21028860751E+02  0.21028860905E+02  0.25500000000E-02 0. -1.
    5000001    1    1    2    0    0 -0.78675822975E+02  0.53928914286E+02  0.50186840250E+03  0.52640203870E+03  0.12700000000E+03 0.  0.
   -5000001    1    1    2    0    0  0.78675822975E+02 -0.53928914286E+02  0.71102481783E+03  0.72854890330E+03  0.12700000000E+03 0.  0.
<mgrwt>
<rscale>  0 0.32216751E+03</rscale>
<asrwt>0</asrwt>
<pdfrwt beam="1">  1        2 0.17627459E+00 0.32216751E+03</pdfrwt>
<pdfrwt beam="2">  1       -2 0.30041228E-02 0.32216751E+03</pdfrwt>
<totfact> 0.91092278E+03</totfact>
</mgrwt>
</event>
<event>
 4    1  0.1351183E-004  0.3046354E+03  0.7818608E-02  0.1082946E+00
         -2   -1    0    0    0  501 -0.00000000000E+00  0.00000000000E+00  0.23612356089E+02  0.23612356226E+02  0.25500000000E-02 0. -1.
          2   -1    0    0  501    0  0.00000000000E+00 -0.00000000000E+00 -0.98256548476E+03  0.98256548476E+03  0.25500000000E-02 0.  1.
    5000001    1    1    2    0    0  0.77415484385E+02 -0.30374848389E+02 -0.43823700942E+03  0.46378493406E+03  0.12700000000E+03 0.  0.
   -5000001    1    1    2    0    0 -0.77415484385E+02  0.30374848389E+02 -0.52071611925E+03  0.54239290692E+03  0.12700000000E+03 0.  0.
<mgrwt>
<rscale>  0 0.30463543E+03</rscale>
<asrwt>0</asrwt>
<pdfrwt beam="1">  1        2 0.14036647E+00 0.30463543E+03</pdfrwt>
<pdfrwt beam="2">  1       -2 0.33731943E-02 0.30463543E+03</pdfrwt>
<totfact> 0.10612555E+04</totfact>
</mgrwt>
</event>
<event>
 4    1  0.1351183E-004  0.4869695E+03  0.7818608E-02  0.1017237E+00
          2   -1    0    0  501    0  0.00000000000E+00  0.00000000000E+00  0.67506634629E+02  0.67506634677E+02  0.25500000000E-02 0.  1.
         -2   -1    0    0    0  501 -0.00000000000E+00 -0.00000000000E+00 -0.87820750739E+03  0.87820750740E+03  0.25500000000E-02 0. -1.
    5000001    1    1    2    0    0 -0.16780475493E+03 -0.12198943307E+03 -0.42626466093E+03  0.49078551193E+03  0.12700000000E+03 0.  0.
   -5000001    1    1    2    0    0  0.16780475493E+03  0.12198943307E+03 -0.38443621184E+03  0.45492863015E+03  0.12700000000E+03 0.  0.
<mgrwt>
<rscale>  0 0.48696954E+03</rscale>
<asrwt>0</asrwt>
<pdfrwt beam="1">  1        2 0.96438055E-02 0.48696954E+03</pdfrwt>
<pdfrwt beam="2">  1       -2 0.12545821E+00 0.48696954E+03</pdfrwt>
<totfact> 0.33499053E+02</totfact>
</mgrwt>
</event>
<event>
 4    1  0.1351183E-004  0.3336371E+03  0.7818608E-02  0.1069539E+00
          2   -1    0    0  501    0  0.00000000000E+00  0.00000000000E+00  0.83346257744E+02  0.83346257783E+02  0.25500000000E-02 0.  1.
         -2   -1    0    0    0  501 -0.00000000000E+00 -0.00000000000E+00 -0.33388933470E+03  0.33388933471E+03  0.25500000000E-02 0. -1.
    5000001    1    1    2    0    0  0.60946228911E+02 -0.14057446498E+02 -0.23562919930E+03  0.27488574751E+03  0.12700000000E+03 0.  0.
   -5000001    1    1    2    0    0 -0.60946228911E+02  0.14057446498E+02 -0.14913877657E+02  0.14234984498E+03  0.12700000000E+03 0.  0.
<mgrwt>
<rscale>  0 0.33363709E+03</rscale>
<asrwt>0</asrwt>
<pdfrwt beam="1">  1        2 0.11906608E-01 0.33363709E+03</pdfrwt>
<pdfrwt beam="2">  1       -2 0.47698476E-01 0.33363709E+03</pdfrwt>
<totfact> 0.21864330E+03</totfact>
</mgrwt>
</event>
<event>
 4    1  0.1351183E-004  0.4169363E+03  0.7818608E-02  0.1038068E+00
          2   -1    0    0  501    0  0.00000000000E+00  0.00000000000E+00  0.17439238593E+04  0.17439238593E+04  0.25500000000E-02 0.  1.
         -2   -1    0    0    0  501 -0.00000000000E+00 -0.00000000000E+00 -0.24920222496E+02  0.24920222626E+02  0.25500000000E-02 0. -1.
    5000001    1    1    2    0    0 -0.16245981735E+03  0.29671110220E+02  0.82763978247E+03  0.85345777667E+03  0.12700000000E+03 0.  0.
   -5000001    1    1    2    0    0  0.16245981735E+03 -0.29671110220E+02  0.89136385433E+03  0.91538630525E+03  0.12700000000E+03 0.  0.
<mgrwt>
<rscale>  0 0.41693631E+03</rscale>
<asrwt>0</asrwt>
<pdfrwt beam="1">  1        2 0.24913206E+00 0.41693631E+03</pdfrwt>
<pdfrwt beam="2">  1       -2 0.35600307E-02 0.41693631E+03</pdfrwt>
<totfact> 0.38630624E+03</totfact>
</mgrwt>
</event>
<event>
 4    1  0.1351183E-004  0.5038003E+03  0.7818608E-02  0.1012792E+00
          2   -1    0    0  501    0  0.00000000000E+00  0.00000000000E+00  0.87374692307E+03  0.87374692307E+03  0.25500000000E-02 0.  1.
         -2   -1    0    0    0  501 -0.00000000000E+00 -0.00000000000E+00 -0.72622497922E+02  0.72622497967E+02  0.25500000000E-02 0. -1.
    5000001    1    1    2    0    0 -0.20502195121E+03 -0.68687401565E+02  0.35560750587E+03  0.43512947251E+03  0.12700000000E+03 0.  0.
   -5000001    1    1    2    0    0  0.20502195121E+03  0.68687401565E+02  0.44551691927E+03  0.51123994853E+03  0.12700000000E+03 0.  0.
<mgrwt>
<rscale>  0 0.50380029E+03</rscale>
<asrwt>0</asrwt>
<pdfrwt beam="1">  1        2 0.12482099E+00 0.50380029E+03</pdfrwt>
<pdfrwt beam="2">  1       -2 0.10374642E-01 0.50380029E+03</pdfrwt>
<totfact> 0.21875325E+03</totfact>
</mgrwt>
</event>
<event>
 4    1  0.1351183E-004  0.3606369E+03  0.7818608E-02  0.1058332E+00
         -2   -1    0    0    0  501 -0.00000000000E+00  0.00000000000E+00  0.38425706603E+02  0.38425706687E+02  0.25500000000E-02 0. -1.
          2   -1    0    0  501    0  0.00000000000E+00 -0.00000000000E+00 -0.84617158527E+03  0.84617158527E+03  0.25500000000E-02 0.  1.
    5000001    1    1    2    0    0  0.10910475211E+03 -0.33653339265E+01 -0.23986803076E+03  0.29254203901E+03  0.12700000000E+03 0.  0.
   -5000001    1    1    2    0    0 -0.10910475211E+03  0.33653339265E+01 -0.56787784791E+03  0.59205525295E+03  0.12700000000E+03 0.  0.
<mgrwt>
<rscale>  0 0.36063689E+03</rscale>
<asrwt>0</asrwt>
<pdfrwt beam="1">  1        2 0.12088164E+00 0.36063689E+03</pdfrwt>
<pdfrwt beam="2">  1       -2 0.54893872E-02 0.36063689E+03</pdfrwt>
<totfact> 0.61960977E+03</totfact>
</mgrwt>
</event>
<event>
 4    1  0.1351183E-004  0.3049711E+03  0.7818608E-02  0.1082782E+00
         -2   -1    0    0    0  501 -0.00000000000E+00  0.00000000000E+00  0.25662627039E+02  0.25662627166E+02  0.25500000000E-02 0. -1.
          2   -1    0    0  501    0  0.00000000000E+00 -0.00000000000E+00 -0.90605859069E+03  0.90605859070E+03  0.25500000000E-02 0.  1.
    5000001    1    1    2    0    0 -0.31158197926E+02 -0.77316944102E+02 -0.39988662340E+03  0.42776986187E+03  0.12700000000E+03 0.  0.
   -5000001    1    1    2    0    0  0.31158197926E+02  0.77316944102E+02 -0.48050934025E+03  0.50395135600E+03  0.12700000000E+03 0.  0.
<mgrwt>
<rscale>  0 0.30497111E+03</rscale>
<asrwt>0</asrwt>
<pdfrwt beam="1">  1        2 0.12943692E+00 0.30497111E+03</pdfrwt>
<pdfrwt beam="2">  1       -2 0.36660901E-02 0.30497111E+03</pdfrwt>
<totfact> 0.10431294E+04</totfact>
</mgrwt>
</event>
<event>
 4    1  0.1351183E-004  0.3608686E+03  0.7818608E-02  0.1058240E+00
          2   -1    0    0  501    0  0.00000000000E+00  0.00000000000E+00  0.10806245027E+03  0.10806245030E+03  0.25500000000E-02 0.  1.
         -2   -1    0    0    0  501 -0.00000000000E+00 -0.00000000000E+00 -0.30127516076E+03  0.30127516077E+03  0.25500000000E-02 0. -1.
    5000001    1    1    2    0    0 -0.98886543268E+02  0.67762073203E+02 -0.45157013268E+02  0.18038404267E+03  0.12700000000E+03 0.  0.
   -5000001    1    1    2    0    0  0.98886543268E+02 -0.67762073203E+02 -0.14805569722E+03  0.22895356840E+03  0.12700000000E+03 0.  0.
<mgrwt>
<rscale>  0 0.36086857E+03</rscale>
<asrwt>0</asrwt>
<pdfrwt beam="1">  1        2 0.15437493E-01 0.36086857E+03</pdfrwt>
<pdfrwt beam="2">  1       -2 0.43039308E-01 0.36086857E+03</pdfrwt>
<totfact> 0.19581848E+03</totfact>
</mgrwt>
</event>
<event>
 4    1  0.1351183E-004  0.5144172E+03  0.7818608E-02  0.1010083E+00
         -2   -1    0    0    0  501 -0.00000000000E+00  0.00000000000E+00  0.39399023907E+02  0.39399023989E+02  0.25500000000E-02 0. -1.
          2   -1    0    0  501    0  0.00000000000E+00 -0.00000000000E+00 -0.16791346122E+04  0.16791346122E+04  0.25500000000E-02 0.  1.
    5000001    1    1    2    0    0 -0.62632379555E+02 -0.21469096362E+03 -0.83155559467E+03  0.87041871065E+03  0.12700000000E+03 0.  0.
   -5000001    1    1    2    0    0  0.62632379555E+02  0.21469096362E+03 -0.80817999367E+03  0.84811492559E+03  0.12700000000E+03 0.  0.
<mgrwt>
<rscale>  0 0.51441720E+03</rscale>
<asrwt>0</asrwt>
<pdfrwt beam="1">  1        2 0.23987633E+00 0.51441720E+03</pdfrwt>
<pdfrwt beam="2">  1       -2 0.56284330E-02 0.51441720E+03</pdfrwt>
<totfact> 0.20578278E+03</totfact>
</mgrwt>
</event>
<event>
 4    1  0.1351183E-004  0.3371073E+03  0.7818608E-02  0.1068035E+00
          2   -1    0    0  501    0  0.00000000000E+00  0.00000000000E+00  0.18807829757E+04  0.18807829757E+04  0.25500000000E-02 0.  1.
         -2   -1    0    0    0  501 -0.00000000000E+00 -0.00000000000E+00 -0.15105589964E+02  0.15105590180E+02  0.25500000000E-02 0. -1.
    5000001    1    1    2    0    0  0.74418817138E+01 -0.91432221266E+02  0.58315016422E+03  0.60382807712E+03  0.12700000000E+03 0.  0.
   -5000001    1    1    2    0    0 -0.74418817138E+01  0.91432221266E+02  0.12825272215E+04  0.12920604887E+04  0.12700000000E+03 0.  0.
<mgrwt>
<rscale>  0 0.33710732E+03</rscale>
<asrwt>0</asrwt>
<pdfrwt beam="1">  1        2 0.26868326E+00 0.33710732E+03</pdfrwt>
<pdfrwt beam="2">  1       -2 0.21579416E-02 0.33710732E+03</pdfrwt>
<totfact> 0.69944756E+03</totfact>
</mgrwt>
</event>
<event>
 4    1  0.1351183E-004  0.4578338E+03  0.7818608E-02  0.1025411E+00
         -2   -1    0    0    0  501 -0.00000000000E+00  0.00000000000E+00  0.21543944926E+03  0.21543944928E+03  0.25500000000E-02 0. -1.
          2   -1    0    0  501    0  0.00000000000E+00 -0.00000000000E+00 -0.24323748170E+03  0.24323748171E+03  0.25500000000E-02 0.  1.
    5000001    1    1    2    0    0  0.54480974262E+01 -0.17031962038E+03  0.71319337365E+02  0.22417382259E+03  0.12700000000E+03 0.  0.
   -5000001    1    1    2    0    0 -0.54480974262E+01  0.17031962038E+03 -0.99117369799E+02  0.23450310840E+03  0.12700000000E+03 0.  0.
<mgrwt>
<rscale>  0 0.45783381E+03</rscale>
<asrwt>0</asrwt>
<pdfrwt beam="1">  1        2 0.34748212E-01 0.45783381E+03</pdfrwt>
<pdfrwt beam="2">  1       -2 0.30777064E-01 0.45783381E+03</pdfrwt>
<totfact> 0.14669679E+03</totfact>
</mgrwt>
</event>
<event>
 4    1  0.1351183E-004  0.3015488E+03  0.7818608E-02  0.1084469E+00
          2   -1    0    0  501    0  0.00000000000E+00  0.00000000000E+00  0.10427384054E+03  0.10427384057E+03  0.25500000000E-02 0.  1.
         -2   -1    0    0    0  501 -0.00000000000E+00 -0.00000000000E+00 -0.21801176836E+03  0.21801176837E+03  0.25500000000E-02 0. -1.
    5000001    1    1    2    0    0  0.47630509779E+02 -0.65839397346E+02 -0.57571975400E+02  0.16139090450E+03  0.12700000000E+03 0.  0.
   -5000001    1    1    2    0    0 -0.47630509779E+02  0.65839397346E+02 -0.56165952420E+02  0.16089470444E+03  0.12700000000E+03 0.  0.
<mgrwt>
<rscale>  0 0.30154883E+03</rscale>
<asrwt>0</asrwt>
<pdfrwt beam="1">  1        2 0.14896263E-01 0.30154883E+03</pdfrwt>
<pdfrwt beam="2">  1       -2 0.31144538E-01 0.30154883E+03</pdfrwt>
<totfact> 0.37469228E+03</totfact>
</mgrwt>
</event>
<event>
 4    1  0.1351183E-004  0.5140795E+03  0.7818608E-02  0.1010168E+00
         -2   -1    0    0    0  501 -0.00000000000E+00  0.00000000000E+00  0.23233105566E+02  0.23233105706E+02  0.25500000000E-02 0. -1.
          2   -1    0    0  501    0  0.00000000000E+00 -0.00000000000E+00 -0.28437622017E+04  0.28437622017E+04  0.25500000000E-02 0.  1.
    5000001    1    1    2    0    0 -0.21872491025E+03 -0.40808402614E+02 -0.15265162654E+04  0.15478652462E+04  0.12700000000E+03 0.  0.
   -5000001    1    1    2    0    0  0.21872491025E+03  0.40808402614E+02 -0.12940128308E+04  0.13191300612E+04  0.12700000000E+03 0.  0.
<mgrwt>
<rscale>  0 0.51407948E+03</rscale>
<asrwt>0</asrwt>
<pdfrwt beam="1">  1        2 0.40625152E+00 0.51407948E+03</pdfrwt>
<pdfrwt beam="2">  1       -2 0.33190169E-02 0.51407948E+03</pdfrwt>
<totfact> 0.11875816E+03</totfact>
</mgrwt>
</event>
<event>
 4    1  0.1351183E-004  0.2822281E+03  0.7818608E-02  0.1094478E+00
         -2   -1    0    0    0  501 -0.00000000000E+00  0.00000000000E+00  0.26180515469E+02  0.26180515594E+02  0.25500000000E-02 0. -1.
          2   -1    0    0  501    0  0.00000000000E+00 -0.00000000000E+00 -0.76061046349E+03  0.76061046349E+03  0.25500000000E-02 0.  1.
    5000001    1    1    2    0    0  0.39379783800E+02 -0.41062087478E+02 -0.43243432608E+03  0.45427448615E+03  0.12700000000E+03 0.  0.
   -5000001    1    1    2    0    0 -0.39379783800E+02  0.41062087478E+02 -0.30199562194E+03  0.33251649293E+03  0.12700000000E+03 0.  0.
<mgrwt>
<rscale>  0 0.28222809E+03</rscale>
<asrwt>0</asrwt>
<pdfrwt beam="1">  1        2 0.10865862E+00 0.28222809E+03</pdfrwt>
<pdfrwt beam="2">  1       -2 0.37400741E-02 0.28222809E+03</pdfrwt>
<totfact> 0.12585088E+04</totfact>
</mgrwt>
</event>
<event>
 4    1  0.1351183E-004  0.3271396E+03  0.7818608E-02  0.1072410E+00
         -2   -1    0    0    0  501 -0.00000000000E+00  0.00000000000E+00  0.29286464079E+02  0.29286464190E+02  0.25500000000E-02 0. -1.
          2   -1    0    0  501    0  0.00000000000E+00 -0.00000000000E+00 -0.91356457475E+03  0.91356457475E+03  0.25500000000E-02 0.  1.
    5000001    1    1    2    0    0 -0.56869726487E+02 -0.25941349560E+02 -0.67838312492E+03  0.69299335032E+03  0.12700000000E+03 0.  0.
   -5000001    1    1    2    0    0  0.56869726487E+02  0.25941349560E+02 -0.20589498574E+03  0.24985768862E+03  0.12700000000E+03 0.  0.
<mgrwt>
<rscale>  0 0.32713958E+03</rscale>
<asrwt>0</asrwt>
<pdfrwt beam="1">  1        2 0.13050921E+00 0.32713958E+03</pdfrwt>
<pdfrwt beam="2">  1       -2 0.41837811E-02 0.32713958E+03</pdfrwt>
<totfact> 0.84720387E+03</totfact>
</mgrwt>
</event>
<event>
 4    1  0.1351183E-004  0.2642799E+03  0.7818608E-02  0.1104599E+00
          2   -1    0    0  501    0  0.00000000000E+00  0.00000000000E+00  0.10280458943E+04  0.10280458944E+04  0.25500000000E-02 0.  1.
         -2   -1    0    0    0  501 -0.00000000000E+00 -0.00000000000E+00 -0.16984617219E+02  0.16984617410E+02  0.25500000000E-02 0. -1.
    5000001    1    1    2    0    0  0.24429605694E+02 -0.26699531999E+02  0.48685940408E+03  0.50445093912E+03  0.12700000000E+03 0.  0.
   -5000001    1    1    2    0    0 -0.24429605694E+02  0.26699531999E+02  0.52420187305E+03  0.54057957264E+03  0.12700000000E+03 0.  0.
<mgrwt>
<rscale>  0 0.26427990E+03</rscale>
<asrwt>0</asrwt>
<pdfrwt beam="1">  1        2 0.14686378E+00 0.26427990E+03</pdfrwt>
<pdfrwt beam="2">  1       -2 0.24263725E-02 0.26427990E+03</pdfrwt>
<totfact> 0.16205239E+04</totfact>
</mgrwt>
</event>
<event>
 4    1  0.1351183E-004  0.3730221E+03  0.7818608E-02  0.1053543E+00
         -2   -1    0    0    0  501 -0.00000000000E+00  0.00000000000E+00  0.19192084367E+03  0.19192084368E+03  0.25500000000E-02 0. -1.
          2   -1    0    0  501    0  0.00000000000E+00 -0.00000000000E+00 -0.18125372304E+03  0.18125372306E+03  0.25500000000E-02 0.  1.
    5000001    1    1    2    0    0 -0.77008997723E+02  0.41881259034E+01  0.11811580440E+03  0.18981114134E+03  0.12700000000E+03 0.  0.
   -5000001    1    1    2    0    0  0.77008997723E+02 -0.41881259034E+01 -0.10744868378E+03  0.18336342540E+03  0.12700000000E+03 0.  0.
<mgrwt>
<rscale>  0 0.37302208E+03</rscale>
<asrwt>0</asrwt>
<pdfrwt beam="1">  1        2 0.25893389E-01 0.37302208E+03</pdfrwt>
<pdfrwt beam="2">  1       -2 0.27417263E-01 0.37302208E+03</pdfrwt>
<totfact> 0.25061075E+03</totfact>
</mgrwt>
</event>
<event>
 4    1  0.1351183E-004  0.4115631E+03  0.7818608E-02  0.1039848E+00
         -2   -1    0    0    0  501 -0.00000000000E+00  0.00000000000E+00  0.26486033986E+03  0.26486033988E+03  0.25500000000E-02 0. -1.
          2   -1    0    0  501    0  0.00000000000E+00 -0.00000000000E+00 -0.15988069353E+03  0.15988069355E+03  0.25500000000E-02 0.  1.
    5000001    1    1    2    0    0 -0.14860849303E+03 -0.57090416577E+02  0.82986904529E+02  0.21990822219E+03  0.12700000000E+03 0.  0.
   -5000001    1    1    2    0    0  0.14860849303E+03  0.57090416577E+02  0.21992741807E+02  0.20483281123E+03  0.12700000000E+03 0.  0.
<mgrwt>
<rscale>  0 0.41156314E+03</rscale>
<asrwt>0</asrwt>
<pdfrwt beam="1">  1        2 0.22840099E-01 0.41156314E+03</pdfrwt>
<pdfrwt beam="2">  1       -2 0.37837192E-01 0.41156314E+03</pdfrwt>
<totfact> 0.15927348E+03</totfact>
</mgrwt>
</event>
<event>
 4    1  0.1351183E-004  0.4486236E+03  0.7818608E-02  0.1028133E+00
         -2   -1    0    0    0  501 -0.00000000000E+00  0.00000000000E+00  0.19863360332E+03  0.19863360334E+03  0.25500000000E-02 0. -1.
          2   -1    0    0  501    0  0.00000000000E+00 -0.00000000000E+00 -0.25330956968E+03  0.25330956969E+03  0.25500000000E-02 0.  1.
    5000001    1    1    2    0    0  0.13383128056E+03 -0.11876549401E+03  0.19597945623E+02  0.22029329018E+03  0.12700000000E+03 0.  0.
   -5000001    1    1    2    0    0 -0.13383128056E+03  0.11876549401E+03 -0.74273911979E+02  0.23164988285E+03  0.12700000000E+03 0.  0.
<mgrwt>
<rscale>  0 0.44862364E+03</rscale>
<asrwt>0</asrwt>
<pdfrwt beam="1">  1        2 0.36187081E-01 0.44862364E+03</pdfrwt>
<pdfrwt beam="2">  1       -2 0.28376229E-01 0.44862364E+03</pdfrwt>
<totfact> 0.16275790E+03</totfact>
</mgrwt>
</event>
<event>
 4    1  0.1351183E-004  0.2926493E+03  0.7818608E-02  0.1088974E+00
          2   -1    0    0  501    0  0.00000000000E+00  0.00000000000E+00  0.55103770020E+03  0.55103770021E+03  0.25500000000E-02 0.  1.
         -2   -1    0    0    0  501 -0.00000000000E+00 -0.00000000000E+00 -0.38855595850E+02  0.38855595934E+02  0.25500000000E-02 0. -1.
    5000001    1    1    2    0    0  0.59281987761E+02 -0.40861361484E+02  0.23614750356E+03  0.27763041688E+03  0.12700000000E+03 0.  0.
   -5000001    1    1    2    0    0 -0.59281987761E+02  0.40861361484E+02  0.27603460079E+03  0.31226287926E+03  0.12700000000E+03 0.  0.
<mgrwt>
<rscale>  0 0.29264927E+03</rscale>
<asrwt>0</asrwt>
<pdfrwt beam="1">  1        2 0.78719669E-01 0.29264927E+03</pdfrwt>
<pdfrwt beam="2">  1       -2 0.55507996E-02 0.29264927E+03</pdfrwt>
<totfact> 0.10092802E+04</totfact>
</mgrwt>
</event>
<event>
 4    1  0.1351183E-004  0.5530349E+03  0.7818608E-02  0.1000794E+00
         -2   -1    0    0    0  501 -0.00000000000E+00  0.00000000000E+00  0.69164545155E+02  0.69164545202E+02  0.25500000000E-02 0. -1.
          2   -1    0    0  501    0  0.00000000000E+00 -0.00000000000E+00 -0.11055073208E+04  0.11055073208E+04  0.25500000000E-02 0.  1.
    5000001    1    1    2    0    0 -0.22342865494E+03 -0.25831653295E+02 -0.72785331500E+03  0.77232576438E+03  0.12700000000E+03 0.  0.
   -5000001    1    1    2    0    0  0.22342865494E+03  0.25831653295E+02 -0.30848946059E+03  0.40234610158E+03  0.12700000000E+03 0.  0.
<mgrwt>
<rscale>  0 0.55303494E+03</rscale>
<asrwt>0</asrwt>
<pdfrwt beam="1">  1        2 0.15792961E+00 0.55303494E+03</pdfrwt>
<pdfrwt beam="2">  1       -2 0.98806500E-02 0.55303494E+03</pdfrwt>
<totfact> 0.17071378E+03</totfact>
</mgrwt>
</event>
<event>
 4    1  0.1351183E-004  0.1085976E+04  0.7818608E-02  0.9218970E-01
         -2   -1    0    0    0  501 -0.00000000000E+00  0.00000000000E+00  0.30353264443E+03  0.30353264445E+03  0.25500000000E-02 0. -1.
          2   -1    0    0  501    0  0.00000000000E+00 -0.00000000000E+00 -0.97134796996E+03  0.97134796997E+03  0.25500000000E-02 0.  1.
    5000001    1    1    2    0    0  0.41005303518E+03 -0.10741333860E+03 -0.70333018000E+03  0.83095334350E+03  0.12700000000E+03 0.  0.
   -5000001    1    1    2    0    0 -0.41005303518E+03  0.10741333860E+03  0.35514854476E+02  0.44392727091E+03  0.12700000000E+03 0.  0.
<mgrwt>
<rscale>  0 0.10859757E+04</rscale>
<asrwt>0</asrwt>
<pdfrwt beam="1">  1        2 0.13876399E+00 0.10859757E+04</pdfrwt>
<pdfrwt beam="2">  1       -2 0.43361807E-01 0.10859757E+04</pdfrwt>
<totfact> 0.14652217E+02</totfact>
</mgrwt>
</event>
<event>
 4    1  0.1351183E-004  0.3987724E+03  0.7818608E-02  0.1044206E+00
          2   -1    0    0  501    0  0.00000000000E+00  0.00000000000E+00  0.25339907787E+04  0.25339907787E+04  0.25500000000E-02 0.  1.
         -2   -1    0    0    0  501 -0.00000000000E+00 -0.00000000000E+00 -0.15688638500E+02  0.15688638707E+02  0.25500000000E-02 0. -1.
    5000001    1    1    2    0    0  0.11452584133E+01 -0.14857325780E+03  0.10073821796E+04  0.10261691773E+04  0.12700000000E+03 0.  0.
   -5000001    1    1    2    0    0 -0.11452584133E+01  0.14857325780E+03  0.15109199606E+04  0.15235102401E+04  0.12700000000E+03 0.  0.
<mgrwt>
<rscale>  0 0.39877244E+03</rscale>
<asrwt>0</asrwt>
<pdfrwt beam="1">  1        2 0.36199851E+00 0.39877244E+03</pdfrwt>
<pdfrwt beam="2">  1       -2 0.22412352E-02 0.39877244E+03</pdfrwt>
<totfact> 0.31288101E+03</totfact>
</mgrwt>
</event>
<event>
 4    1  0.1351183E-004  0.5072537E+03  0.7818608E-02  0.1011903E+00
         -2   -1    0    0    0  501 -0.00000000000E+00  0.00000000000E+00  0.29346896467E+02  0.29346896578E+02  0.25500000000E-02 0. -1.
          2   -1    0    0  501    0  0.00000000000E+00 -0.00000000000E+00 -0.21919379560E+04  0.21919379560E+04  0.25500000000E-02 0.  1.
    5000001    1    1    2    0    0 -0.94197039375E+02  0.15262079912E+03 -0.16357483205E+04  0.16504447154E+04  0.12700000000E+03 0.  0.
   -5000001    1    1    2    0    0  0.94197039375E+02 -0.15262079912E+03 -0.52684273901E+03  0.57084013716E+03  0.12700000000E+03 0.  0.
<mgrwt>
<rscale>  0 0.50725369E+03</rscale>
<asrwt>0</asrwt>
<pdfrwt beam="1">  1        2 0.31313389E+00 0.50725369E+03</pdfrwt>
<pdfrwt beam="2">  1       -2 0.41924152E-02 0.50725369E+03</pdfrwt>
<totfact> 0.17951758E+03</totfact>
</mgrwt>
</event>
<event>
 4    1  0.1351183E-004  0.4072266E+03  0.7818608E-02  0.1041306E+00
         -2   -1    0    0    0  501 -0.00000000000E+00  0.00000000000E+00  0.50181448626E+02  0.50181448691E+02  0.25500000000E-02 0.  1.
          2   -1    0    0  501    0  0.00000000000E+00 -0.00000000000E+00 -0.82616925964E+03  0.82616925965E+03  0.25500000000E-02 0. -1.
    5000001    1    1    2    0    0 -0.10763359148E+03  0.28581471562E+02 -0.14331373950E+03  0.22151685819E+03  0.12700000000E+03 0.  0.
   -5000001    1    1    2    0    0  0.10763359148E+03 -0.28581471562E+02 -0.63267407152E+03  0.65483385015E+03  0.12700000000E+03 0.  0.
<mgrwt>
<rscale>  0 0.40722657E+03</rscale>
<asrwt>0</asrwt>
<pdfrwt beam="1">  1        2 0.11802417E+00 0.40722657E+03</pdfrwt>
<pdfrwt beam="2">  1       -2 0.71687789E-02 0.40722657E+03</pdfrwt>
<totfact> 0.42301284E+03</totfact>
</mgrwt>
</event>
<event>
 4    1  0.1351183E-004  0.5497012E+03  0.7818608E-02  0.1001563E+00
         -2   -1    0    0    0  501 -0.00000000000E+00  0.00000000000E+00  0.76802350129E+03  0.76802350130E+03  0.25500000000E-02 0. -1.
          2   -1    0    0  501    0  0.00000000000E+00 -0.00000000000E+00 -0.98360086692E+02  0.98360086725E+02  0.25500000000E-02 0.  1.
    5000001    1    1    2    0    0  0.18527371963E+03  0.15458881613E+03  0.38919695816E+03  0.47521292648E+03  0.12700000000E+03 0.  0.
   -5000001    1    1    2    0    0 -0.18527371963E+03 -0.15458881613E+03  0.28046645644E+03  0.39117066154E+03  0.12700000000E+03 0.  0.
<mgrwt>
<rscale>  0 0.54970122E+03</rscale>
<asrwt>0</asrwt>
<pdfrwt beam="1">  1        2 0.14051441E-01 0.54970122E+03</pdfrwt>
<pdfrwt beam="2">  1       -2 0.10971764E+00 0.54970122E+03</pdfrwt>
<totfact> 0.29068890E+02</totfact>
</mgrwt>
</event>
<event>
 4    1  0.1351183E-004  0.3813934E+03  0.7818608E-02  0.1050420E+00
          2   -1    0    0  501    0  0.00000000000E+00  0.00000000000E+00  0.29271983826E+03  0.29271983827E+03  0.25500000000E-02 0.  1.
         -2   -1    0    0    0  501 -0.00000000000E+00 -0.00000000000E+00 -0.12423222575E+03  0.12423222578E+03  0.25500000000E-02 0. -1.
    5000001    1    1    2    0    0 -0.97506754424E+01  0.47638571110E+02 -0.61905309785E+02  0.14941812644E+03  0.12700000000E+03 0.  0.
   -5000001    1    1    2    0    0  0.97506754424E+01 -0.47638571110E+02  0.23039292230E+03  0.26753393761E+03  0.12700000000E+03 0.  0.
<mgrwt>
<rscale>  0 0.38139343E+03</rscale>
<asrwt>0</asrwt>
<pdfrwt beam="1">  1        2 0.41817120E-01 0.38139343E+03</pdfrwt>
<pdfrwt beam="2">  1       -2 0.17747461E-01 0.38139343E+03</pdfrwt>
<totfact> 0.31594829E+03</totfact>
</mgrwt>
</event>
<event>
 4    1  0.1351183E-004  0.3412127E+03  0.7818608E-02  0.1066281E+00
         -2   -1    0    0    0  501 -0.00000000000E+00  0.00000000000E+00  0.17074055283E+02  0.17074055473E+02  0.25500000000E-02 0. -1.
          2   -1    0    0  501    0  0.00000000000E+00 -0.00000000000E+00 -0.17047224536E+04  0.17047224536E+04  0.25500000000E-02 0.  1.
    5000001    1    1    2    0    0 -0.93738421042E+02  0.64182913154E+02 -0.88639962525E+03  0.90262928911E+03  0.12700000000E+03 0.  0.
   -5000001    1    1    2    0    0  0.93738421042E+02 -0.64182913154E+02 -0.80124877310E+03  0.81916722000E+03  0.12700000000E+03 0.  0.
<mgrwt>
<rscale>  0 0.34121269E+03</rscale>
<asrwt>0</asrwt>
<pdfrwt beam="1">  1        2 0.24353167E+00 0.34121269E+03</pdfrwt>
<pdfrwt beam="2">  1       -2 0.24391518E-02 0.34121269E+03</pdfrwt>
<totfact> 0.71254300E+03</totfact>
</mgrwt>
</event>
<event>
 4    1  0.1351183E-004  0.6039944E+03  0.7818608E-02  0.9897153E-01
          2   -1    0    0  501    0  0.00000000000E+00  0.00000000000E+00  0.49227552604E+03  0.49227552605E+03  0.25500000000E-02 0.  1.
         -2   -1    0    0    0  501 -0.00000000000E+00 -0.00000000000E+00 -0.18526680582E+03  0.18526680584E+03  0.25500000000E-02 0. -1.
    5000001    1    1    2    0    0  0.12281467271E+03  0.22178776590E+03  0.36926376152E+02  0.28594722274E+03  0.12700000000E+03 0.  0.
   -5000001    1    1    2    0    0 -0.12281467271E+03 -0.22178776590E+03  0.27008234407E+03  0.39159510915E+03  0.12700000000E+03 0.  0.
<mgrwt>
<rscale>  0 0.60399442E+03</rscale>
<asrwt>0</asrwt>
<pdfrwt beam="1">  1        2 0.70325075E-01 0.60399442E+03</pdfrwt>
<pdfrwt beam="2">  1       -2 0.26466687E-01 0.60399442E+03</pdfrwt>
<totfact> 0.88568908E+02</totfact>
</mgrwt>
</event>
<event>
 4    1  0.1351183E-004  0.4182143E+03  0.7818608E-02  0.1037649E+00
         -2   -1    0    0    0  501 -0.00000000000E+00  0.00000000000E+00  0.27777379968E+02  0.27777380085E+02  0.25500000000E-02 0. -1.
          2   -1    0    0  501    0  0.00000000000E+00 -0.00000000000E+00 -0.15741515650E+04  0.15741515650E+04  0.25500000000E-02 0.  1.
    5000001    1    1    2    0    0 -0.11762645884E+03  0.73569829494E+02 -0.11231672575E+04  0.11388073551E+04  0.12700000000E+03 0.  0.
   -5000001    1    1    2    0    0  0.11762645884E+03 -0.73569829494E+02 -0.42320692752E+03  0.46312159001E+03  0.12700000000E+03 0.  0.
<mgrwt>
<rscale>  0 0.41821433E+03</rscale>
<asrwt>0</asrwt>
<pdfrwt beam="1">  1        2 0.22487874E+00 0.41821433E+03</pdfrwt>
<pdfrwt beam="2">  1       -2 0.39681981E-02 0.41821433E+03</pdfrwt>
<totfact> 0.39890969E+03</totfact>
</mgrwt>
</event>
<event>
 4    1  0.1351183E-004  0.4708759E+03  0.7818608E-02  0.1021673E+00
         -2   -1    0    0    0  501 -0.00000000000E+00  0.00000000000E+00  0.28724053304E+02  0.28724053418E+02  0.25500000000E-02 0. -1.
          2   -1    0    0  501    0  0.00000000000E+00 -0.00000000000E+00 -0.19297774143E+04  0.19297774143E+04  0.25500000000E-02 0.  1.
    5000001    1    1    2    0    0  0.16343715090E+03  0.39087919142E+02 -0.13879916921E+04  0.14038837220E+04  0.12700000000E+03 0.  0.
   -5000001    1    1    2    0    0 -0.16343715090E+03 -0.39087919142E+02 -0.51306166894E+03  0.55461774571E+03  0.12700000000E+03 0.  0.
<mgrwt>
<rscale>  0 0.47087590E+03</rscale>
<asrwt>0</asrwt>
<pdfrwt beam="1">  1        2 0.27568241E+00 0.47087590E+03</pdfrwt>
<pdfrwt beam="2">  1       -2 0.41034374E-02 0.47087590E+03</pdfrwt>
<totfact> 0.25109191E+03</totfact>
</mgrwt>
</event>
<event>
 4    1  0.1351183E-004  0.6001795E+03  0.7818608E-02  0.9905034E-01
         -2   -1    0    0    0  501 -0.00000000000E+00  0.00000000000E+00  0.40657107211E+02  0.40657107291E+02  0.25500000000E-02 0. -1.
          2   -1    0    0  501    0  0.00000000000E+00 -0.00000000000E+00 -0.22149599187E+04  0.22149599187E+04  0.25500000000E-02 0.  1.
    5000001    1    1    2    0    0 -0.14655444291E+03 -0.18276857380E+03 -0.16057650904E+04  0.16277263535E+04  0.12700000000E+03 0.  0.
   -5000001    1    1    2    0    0  0.14655444291E+03  0.18276857380E+03 -0.56853772103E+03  0.62789067244E+03  0.12700000000E+03 0.  0.
<mgrwt>
<rscale>  0 0.60017952E+03</rscale>
<asrwt>0</asrwt>
<pdfrwt beam="1">  1        2 0.31642277E+00 0.60017952E+03</pdfrwt>
<pdfrwt beam="2">  1       -2 0.58081596E-02 0.60017952E+03</pdfrwt>
<totfact> 0.10497361E+03</totfact>
</mgrwt>
</event>
<event>
 4    1  0.1351183E-004  0.3519750E+03  0.7818608E-02  0.1061807E+00
          2   -1    0    0  501    0  0.00000000000E+00  0.00000000000E+00  0.85846394922E+03  0.85846394923E+03  0.25500000000E-02 0.  1.
         -2   -1    0    0    0  501 -0.00000000000E+00 -0.00000000000E+00 -0.36077926807E+02  0.36077926897E+02  0.25500000000E-02 0. -1.
    5000001    1    1    2    0    0  0.93315699048E+02 -0.58923777737E+02  0.28004685954E+03  0.32670334373E+03  0.12700000000E+03 0.  0.
   -5000001    1    1    2    0    0 -0.93315699048E+02  0.58923777737E+02  0.54233916288E+03  0.56783853239E+03  0.12700000000E+03 0.  0.
<mgrwt>
<rscale>  0 0.35197500E+03</rscale>
<asrwt>0</asrwt>
<pdfrwt beam="1">  1        2 0.12263769E+00 0.35197500E+03</pdfrwt>
<pdfrwt beam="2">  1       -2 0.51539901E-02 0.35197500E+03</pdfrwt>
<totfact> 0.66972642E+03</totfact>
</mgrwt>
</event>
<event>
 4    1  0.1351183E-004  0.3262629E+03  0.7818608E-02  0.1072802E+00
         -2   -1    0    0    0  501 -0.00000000000E+00  0.00000000000E+00  0.57206948530E+02  0.57206948587E+02  0.25500000000E-02 0. -1.
          2   -1    0    0  501    0  0.00000000000E+00 -0.00000000000E+00 -0.46518605803E+03  0.46518605804E+03  0.25500000000E-02 0.  1.
    5000001    1    1    2    0    0  0.57890579878E+01  0.10193576269E+03 -0.19174715918E+03  0.25163542271E+03  0.12700000000E+03 0.  0.
   -5000001    1    1    2    0    0 -0.57890579878E+01 -0.10193576269E+03 -0.21623195032E+03  0.27075758391E+03  0.12700000000E+03 0.  0.
<mgrwt>
<rscale>  0 0.32626293E+03</rscale>
<asrwt>0</asrwt>
<pdfrwt beam="1">  1        2 0.66455150E-01 0.32626293E+03</pdfrwt>
<pdfrwt beam="2">  1       -2 0.81724214E-02 0.32626293E+03</pdfrwt>
<totfact> 0.67162526E+03</totfact>
</mgrwt>
</event>
<event>
 4    1  0.1351183E-004  0.4249185E+03  0.7818608E-02  0.1035477E+00
         -2   -1    0    0    0  501 -0.00000000000E+00  0.00000000000E+00  0.41570367306E+02  0.41570367384E+02  0.25500000000E-02 0. -1.
          2   -1    0    0  501    0  0.00000000000E+00 -0.00000000000E+00 -0.10858440516E+04  0.10858440516E+04  0.25500000000E-02 0.  1.
    5000001    1    1    2    0    0  0.97146821463E+02  0.54921832437E+02 -0.18074279271E+03  0.24748913050E+03  0.12700000000E+03 0.  0.
   -5000001    1    1    2    0    0 -0.97146821463E+02 -0.54921832437E+02 -0.86353089154E+03  0.87992528844E+03  0.12700000000E+03 0.  0.
<mgrwt>
<rscale>  0 0.42491852E+03</rscale>
<asrwt>0</asrwt>
<pdfrwt beam="1">  1        2 0.15512056E+00 0.42491852E+03</pdfrwt>
<pdfrwt beam="2">  1       -2 0.59386246E-02 0.42491852E+03</pdfrwt>
<totfact> 0.39225769E+03</totfact>
</mgrwt>
</event>
<event>
 4    1  0.1351183E-004  0.3872973E+03  0.7818608E-02  0.1048269E+00
         -2   -1    0    0    0  501 -0.00000000000E+00  0.00000000000E+00  0.82712371191E+02  0.82712371230E+02  0.25500000000E-02 0. -1.
          2   -1    0    0  501    0  0.00000000000E+00 -0.00000000000E+00 -0.45337591657E+03  0.45337591658E+03  0.25500000000E-02 0.  1.
    5000001    1    1    2    0    0  0.20243616625E+02 -0.10028063543E+03 -0.40787641513E+02  0.16810306826E+03  0.12700000000E+03 0.  0.
   -5000001    1    1    2    0    0 -0.20243616625E+02  0.10028063543E+03 -0.32987590387E+03  0.36798521955E+03  0.12700000000E+03 0.  0.
<mgrwt>
<rscale>  0 0.38729729E+03</rscale>
<asrwt>0</asrwt>
<pdfrwt beam="1">  1        2 0.64767987E-01 0.38729729E+03</pdfrwt>
<pdfrwt beam="2">  1       -2 0.11816053E-01 0.38729729E+03</pdfrwt>
<totfact> 0.38496928E+03</totfact>
</mgrwt>
</event>
<event>
 4    1  0.1351183E-004  0.7088917E+03  0.7818608E-02  0.9702146E-01
         -2   -1    0    0    0  501 -0.00000000000E+00  0.00000000000E+00  0.10054471069E+03  0.10054471072E+03  0.25500000000E-02 0. -1.
          2   -1    0    0  501    0  0.00000000000E+00 -0.00000000000E+00 -0.12495124030E+04  0.12495124030E+04  0.25500000000E-02 0.  1.
    5000001    1    1    2    0    0  0.15873415617E+03 -0.15190538812E+02 -0.11266975466E+04  0.11449906752E+04  0.12700000000E+03 0.  0.
   -5000001    1    1    2    0    0 -0.15873415617E+03  0.15190538812E+02 -0.22270145680E+02  0.20506643849E+03  0.12700000000E+03 0.  0.
<mgrwt>
<rscale>  0 0.70889171E+03</rscale>
<asrwt>0</asrwt>
<pdfrwt beam="1">  1        2 0.17850176E+00 0.70889171E+03</pdfrwt>
<pdfrwt beam="2">  1       -2 0.14363531E-01 0.70889171E+03</pdfrwt>
<totfact> 0.76054360E+02</totfact>
</mgrwt>
</event>
<event>
 4    1  0.1351183E-004  0.3310767E+03  0.7818608E-02  0.1070661E+00
         -2   -1    0    0    0  501 -0.00000000000E+00  0.00000000000E+00  0.14141419768E+02  0.14141419998E+02  0.25500000000E-02 0. -1.
          2   -1    0    0  501    0  0.00000000000E+00 -0.00000000000E+00 -0.19377794385E+04  0.19377794385E+04  0.25500000000E-02 0.  1.
    5000001    1    1    2    0    0  0.52114024953E+02  0.92490580255E+02 -0.97296425508E+03  0.98694418317E+03  0.12700000000E+03 0.  0.
   -5000001    1    1    2    0    0 -0.52114024953E+02 -0.92490580255E+02 -0.95067376369E+03  0.96497667537E+03  0.12700000000E+03 0.  0.
<mgrwt>
<rscale>  0 0.33107674E+03</rscale>
<asrwt>0</asrwt>
<pdfrwt beam="1">  1        2 0.27682547E+00 0.33107674E+03</pdfrwt>
<pdfrwt beam="2">  1       -2 0.20202041E-02 0.33107674E+03</pdfrwt>
<totfact> 0.72296464E+03</totfact>
</mgrwt>
</event>
<event>
 4    1  0.1351183E-004  0.5056328E+03  0.7818608E-02  0.1012319E+00
          2   -1    0    0  501    0  0.00000000000E+00  0.00000000000E+00  0.12016984379E+04  0.12016984379E+04  0.25500000000E-02 0.  1.
         -2   -1    0    0    0  501 -0.00000000000E+00 -0.00000000000E+00 -0.53188168523E+02  0.53188168584E+02  0.25500000000E-02 0. -1.
    5000001    1    1    2    0    0 -0.20847294556E+03  0.58898904189E+02  0.64691292983E+03  0.69394192028E+03  0.12700000000E+03 0.  0.
   -5000001    1    1    2    0    0  0.20847294556E+03 -0.58898904189E+02  0.50159733958E+03  0.56094468624E+03  0.12700000000E+03 0.  0.
<mgrwt>
<rscale>  0 0.50563283E+03</rscale>
<asrwt>0</asrwt>
<pdfrwt beam="1">  1        2 0.17167119E+00 0.50563283E+03</pdfrwt>
<pdfrwt beam="2">  1       -2 0.75983104E-02 0.50563283E+03</pdfrwt>
<totfact> 0.22927218E+03</totfact>
</mgrwt>
</event>
<event>
 4    1  0.1351183E-004  0.3581739E+03  0.7818608E-02  0.1059309E+00
          2   -1    0    0  501    0  0.00000000000E+00  0.00000000000E+00  0.78984617360E+03  0.78984617360E+03  0.25500000000E-02 0.  1.
         -2   -1    0    0    0  501 -0.00000000000E+00 -0.00000000000E+00 -0.40605554588E+02  0.40605554668E+02  0.25500000000E-02 0. -1.
    5000001    1    1    2    0    0 -0.93617401769E+02 -0.83588370461E+02  0.40673970516E+03  0.44420425633E+03  0.12700000000E+03 0.  0.
   -5000001    1    1    2    0    0  0.93617401769E+02  0.83588370461E+02  0.34250091385E+03  0.38624747193E+03  0.12700000000E+03 0.  0.
<mgrwt>
<rscale>  0 0.35817394E+03</rscale>
<asrwt>0</asrwt>
<pdfrwt beam="1">  1        2 0.11283516E+00 0.35817394E+03</pdfrwt>
<pdfrwt beam="2">  1       -2 0.58007938E-02 0.35817394E+03</pdfrwt>
<totfact> 0.62073329E+03</totfact>
</mgrwt>
</event>
<event>
 4    1  0.1351183E-004  0.5654117E+03  0.7818608E-02  0.9979884E-01
          2   -1    0    0  501    0  0.00000000000E+00  0.00000000000E+00  0.92567528929E+02  0.92567528965E+02  0.25500000000E-02 0. -1.
         -2   -1    0    0    0  501 -0.00000000000E+00 -0.00000000000E+00 -0.86339782010E+03  0.86339782010E+03  0.25500000000E-02 0.  1.
    5000001    1    1    2    0    0  0.76327707456E+02  0.11790208421E+03 -0.30493067292E+02  0.19179584860E+03  0.12700000000E+03 0.  0.
   -5000001    1    1    2    0    0 -0.76327707456E+02 -0.11790208421E+03 -0.74033722388E+03  0.76416950047E+03  0.12700000000E+03 0.  0.
<mgrwt>
<rscale>  0 0.56541172E+03</rscale>
<asrwt>0</asrwt>
<pdfrwt beam="1">  1        2 0.13223933E-01 0.56541172E+03</pdfrwt>
<pdfrwt beam="2">  1       -2 0.12334254E+00 0.56541172E+03</pdfrwt>
<totfact> 0.23521356E+02</totfact>
</mgrwt>
</event>
<event>
 4    1  0.1351183E-004  0.1167795E+04  0.7818608E-02  0.9141522E-01
         -2   -1    0    0    0  501 -0.00000000000E+00  0.00000000000E+00  0.22783029568E+03  0.22783029570E+03  0.25500000000E-02 0. -1.
          2   -1    0    0  501    0  0.00000000000E+00 -0.00000000000E+00 -0.14964482246E+04  0.14964482246E+04  0.25500000000E-02 0.  1.
    5000001    1    1    2    0    0 -0.39350286421E+03 -0.31581094526E+03 -0.10255914184E+04  0.11500207889E+04  0.12700000000E+03 0.  0.
   -5000001    1    1    2    0    0  0.39350286421E+03  0.31581094526E+03 -0.24302651047E+03  0.57425773141E+03  0.12700000000E+03 0.  0.
<mgrwt>
<rscale>  0 0.11677949E+04</rscale>
<asrwt>0</asrwt>
<pdfrwt beam="1">  1        2 0.21377831E+00 0.11677949E+04</pdfrwt>
<pdfrwt beam="2">  1       -2 0.32547186E-01 0.11677949E+04</pdfrwt>
<totfact> 0.12756585E+02</totfact>
</mgrwt>
</event>
<event>
 4    1  0.1351183E-004  0.7606178E+03  0.7818608E-02  0.9618838E-01
          2   -1    0    0  501    0  0.00000000000E+00  0.00000000000E+00  0.82861016135E+03  0.82861016135E+03  0.25500000000E-02 0.  1.
         -2   -1    0    0    0  501 -0.00000000000E+00 -0.00000000000E+00 -0.17455117061E+03  0.17455117063E+03  0.25500000000E-02 0. -1.
    5000001    1    1    2    0    0  0.10231241256E+03  0.26387947107E+03  0.36859575887E+02  0.31239051418E+03  0.12700000000E+03 0.  0.
   -5000001    1    1    2    0    0 -0.10231241256E+03 -0.26387947107E+03  0.61719941485E+03  0.69077081779E+03  0.12700000000E+03 0.  0.
<mgrwt>
<rscale>  0 0.76061784E+03</rscale>
<asrwt>0</asrwt>
<pdfrwt beam="1">  1        2 0.11837288E+00 0.76061784E+03</pdfrwt>
<pdfrwt beam="2">  1       -2 0.24935881E-01 0.76061784E+03</pdfrwt>
<totfact> 0.52445987E+02</totfact>
</mgrwt>
</event>
<event>
 4    1  0.1351183E-004  0.3713184E+03  0.7818608E-02  0.1054190E+00
         -2   -1    0    0    0  501 -0.00000000000E+00  0.00000000000E+00  0.51615392082E+02  0.51615392145E+02  0.25500000000E-02 0. -1.
          2   -1    0    0  501    0  0.00000000000E+00 -0.00000000000E+00 -0.66781114722E+03  0.66781114722E+03  0.25500000000E-02 0.  1.
    5000001    1    1    2    0    0  0.29256291110E+02  0.10759226821E+03 -0.45702423105E+03  0.48727012479E+03  0.12700000000E+03 0.  0.
   -5000001    1    1    2    0    0 -0.29256291110E+02 -0.10759226821E+03 -0.15917152409E+03  0.23215641458E+03  0.12700000000E+03 0.  0.
<mgrwt>
<rscale>  0 0.37131838E+03</rscale>
<asrwt>0</asrwt>
<pdfrwt beam="1">  1        2 0.95401587E-01 0.37131838E+03</pdfrwt>
<pdfrwt beam="2">  1       -2 0.73736278E-02 0.37131838E+03</pdfrwt>
<totfact> 0.52462065E+03</totfact>
</mgrwt>
</event>
<event>
 4    1  0.1351183E-004  0.4186901E+03  0.7818608E-02  0.1037493E+00
         -2   -1    0    0    0  501 -0.00000000000E+00  0.00000000000E+00  0.29773930644E+02  0.29773930753E+02  0.25500000000E-02 0. -1.
          2   -1    0    0  501    0  0.00000000000E+00 -0.00000000000E+00 -0.14719372125E+04  0.14719372125E+04  0.25500000000E-02 0.  1.
    5000001    1    1    2    0    0  0.11685810899E+03  0.11269107147E+03 -0.85243778195E+03  0.87700300303E+03  0.12700000000E+03 0.  0.
   -5000001    1    1    2    0    0 -0.11685810899E+03 -0.11269107147E+03 -0.58972549990E+03  0.62470814022E+03  0.12700000000E+03 0.  0.
<mgrwt>
<rscale>  0 0.41869013E+03</rscale>
<asrwt>0</asrwt>
<pdfrwt beam="1">  1        2 0.21027670E+00 0.41869013E+03</pdfrwt>
<pdfrwt beam="2">  1       -2 0.42534196E-02 0.41869013E+03</pdfrwt>
<totfact> 0.40485368E+03</totfact>
</mgrwt>
</event>
<event>
 4    1  0.1351183E-004  0.2846192E+03  0.7818608E-02  0.1093192E+00
         -2   -1    0    0    0  501 -0.00000000000E+00  0.00000000000E+00  0.93027615520E+02  0.93027615555E+02  0.25500000000E-02 0. -1.
          2   -1    0    0  501    0  0.00000000000E+00 -0.00000000000E+00 -0.21769901207E+03  0.21769901209E+03  0.25500000000E-02 0.  1.
    5000001    1    1    2    0    0  0.41342033490E+02 -0.45395018757E+02 -0.41819683164E+02  0.14713176870E+03  0.12700000000E+03 0.  0.
   -5000001    1    1    2    0    0 -0.41342033490E+02  0.45395018757E+02 -0.82851713390E+02  0.16359485894E+03  0.12700000000E+03 0.  0.
<mgrwt>
<rscale>  0 0.28461918E+03</rscale>
<asrwt>0</asrwt>
<pdfrwt beam="1">  1        2 0.31099859E-01 0.28461918E+03</pdfrwt>
<pdfrwt beam="2">  1       -2 0.13289659E-01 0.28461918E+03</pdfrwt>
<totfact> 0.70047869E+03</totfact>
</mgrwt>
</event>
<event>
 4    1  0.1351183E-004  0.2997620E+03  0.7818608E-02  0.1085360E+00
         -2   -1    0    0    0  501 -0.00000000000E+00  0.00000000000E+00  0.10764685380E+03  0.10764685383E+03  0.25500000000E-02 0. -1.
          2   -1    0    0  501    0  0.00000000000E+00 -0.00000000000E+00 -0.20868524089E+03  0.20868524091E+03  0.25500000000E-02 0.  1.
    5000001    1    1    2    0    0  0.20476685091E+02 -0.35267292316E+02  0.21612972462E+02  0.13512659664E+03  0.12700000000E+03 0.  0.
   -5000001    1    1    2    0    0 -0.20476685091E+02  0.35267292316E+02 -0.12265135956E+03  0.18120549810E+03  0.12700000000E+03 0.  0.
<mgrwt>
<rscale>  0 0.29976197E+03</rscale>
<asrwt>0</asrwt>
<pdfrwt beam="1">  1        2 0.29812177E-01 0.29976197E+03</pdfrwt>
<pdfrwt beam="2">  1       -2 0.15378122E-01 0.29976197E+03</pdfrwt>
<totfact> 0.57809675E+03</totfact>
</mgrwt>
</event>
<event>
 4    1  0.1351183E-004  0.4397646E+03  0.7818608E-02  0.1030819E+00
         -2   -1    0    0    0  501 -0.00000000000E+00  0.00000000000E+00  0.60055762121E+03  0.60055762122E+03  0.25500000000E-02 0. -1.
          2   -1    0    0  501    0  0.00000000000E+00 -0.00000000000E+00 -0.80505565393E+02  0.80505565433E+02  0.25500000000E-02 0.  1.
    5000001    1    1    2    0    0  0.10432022251E+03  0.11170889819E+03  0.40578195699E+03  0.45182915286E+03  0.12700000000E+03 0.  0.
   -5000001    1    1    2    0    0 -0.10432022251E+03 -0.11170889819E+03  0.11427009883E+03  0.22923403379E+03  0.12700000000E+03 0.  0.
<mgrwt>
<rscale>  0 0.43976462E+03</rscale>
<asrwt>0</asrwt>
<pdfrwt beam="1">  1        2 0.11500795E-01 0.43976462E+03</pdfrwt>
<pdfrwt beam="2">  1       -2 0.85793947E-01 0.43976462E+03</pdfrwt>
<totfact> 0.66073653E+02</totfact>
</mgrwt>
</event>
<event>
 4    1  0.1351183E-004  0.2653931E+03  0.7818608E-02  0.1103946E+00
          2   -1    0    0  501    0  0.00000000000E+00  0.00000000000E+00  0.39180483643E+03  0.39180483644E+03  0.25500000000E-02 0.  1.
         -2   -1    0    0    0  501 -0.00000000000E+00 -0.00000000000E+00 -0.44941693387E+02  0.44941693459E+02  0.25500000000E-02 0. -1.
    5000001    1    1    2    0    0 -0.33067390486E+02  0.19557057385E+02  0.17648471780E+03  0.22079806708E+03  0.12700000000E+03 0.  0.
   -5000001    1    1    2    0    0  0.33067390486E+02 -0.19557057385E+02  0.17037842524E+03  0.21594846282E+03  0.12700000000E+03 0.  0.
<mgrwt>
<rscale>  0 0.26539309E+03</rscale>
<asrwt>0</asrwt>
<pdfrwt beam="1">  1        2 0.55972121E-01 0.26539309E+03</pdfrwt>
<pdfrwt beam="2">  1       -2 0.64202417E-02 0.26539309E+03</pdfrwt>
<totfact> 0.11693001E+04</totfact>
</mgrwt>
</event>
<event>
 4    1  0.1351183E-004  0.3222840E+03  0.7818608E-02  0.1074603E+00
         -2   -1    0    0    0  501 -0.00000000000E+00  0.00000000000E+00  0.43909891220E+02  0.43909891294E+02  0.25500000000E-02 0. -1.
          2   -1    0    0  501    0  0.00000000000E+00 -0.00000000000E+00 -0.59136436198E+03  0.59136436199E+03  0.25500000000E-02 0.  1.
    5000001    1    1    2    0    0  0.80891524396E+02  0.34210387933E+02 -0.36457101753E+03  0.39592274018E+03  0.12700000000E+03 0.  0.
   -5000001    1    1    2    0    0 -0.80891524396E+02 -0.34210387933E+02 -0.18288345323E+03  0.23935151311E+03  0.12700000000E+03 0.  0.
<mgrwt>
<rscale>  0 0.32228400E+03</rscale>
<asrwt>0</asrwt>
<pdfrwt beam="1">  1        2 0.84480618E-01 0.32228400E+03</pdfrwt>
<pdfrwt beam="2">  1       -2 0.62728420E-02 0.32228400E+03</pdfrwt>
<totfact> 0.77441251E+03</totfact>
</mgrwt>
</event>
<event>
 4    1  0.1351183E-004  0.5259603E+03  0.7818608E-02  0.1007217E+00
         -2   -1    0    0    0  501 -0.00000000000E+00  0.00000000000E+00  0.22364194193E+03  0.22364194194E+03  0.25500000000E-02 0. -1.
          2   -1    0    0  501    0  0.00000000000E+00 -0.00000000000E+00 -0.30923782066E+03  0.30923782067E+03  0.25500000000E-02 0.  1.
    5000001    1    1    2    0    0  0.56252476224E+02  0.17977731647E+03 -0.17699931741E+03  0.28799649817E+03  0.12700000000E+03 0.  0.
   -5000001    1    1    2    0    0 -0.56252476224E+02 -0.17977731647E+03  0.91403438682E+02  0.24488326444E+03  0.12700000000E+03 0.  0.
<mgrwt>
<rscale>  0 0.52596025E+03</rscale>
<asrwt>0</asrwt>
<pdfrwt beam="1">  1        2 0.44176831E-01 0.52596025E+03</pdfrwt>
<pdfrwt beam="2">  1       -2 0.31948849E-01 0.52596025E+03</pdfrwt>
<totfact> 0.10514269E+03</totfact>
</mgrwt>
</event>
<event>
 4    1  0.1351183E-004  0.8115854E+03  0.7818608E-02  0.9543397E-01
          2   -1    0    0  501    0  0.00000000000E+00  0.00000000000E+00  0.30547347562E+04  0.30547347562E+04  0.25500000000E-02 0.  1.
         -2   -1    0    0    0  501 -0.00000000000E+00 -0.00000000000E+00 -0.53905732029E+02  0.53905732089E+02  0.25500000000E-02 0. -1.
    5000001    1    1    2    0    0 -0.30276055192E+03 -0.23601376367E+03  0.16315587294E+04  0.16809162192E+04  0.12700000000E+03 0.  0.
   -5000001    1    1    2    0    0  0.30276055192E+03  0.23601376367E+03  0.13692702947E+04  0.14277242690E+04  0.12700000000E+03 0.  0.
<mgrwt>
<rscale>  0 0.81158539E+03</rscale>
<asrwt>0</asrwt>
<pdfrwt beam="1">  1        2 0.43639072E+00 0.81158539E+03</pdfrwt>
<pdfrwt beam="2">  1       -2 0.77008182E-02 0.81158539E+03</pdfrwt>
<totfact> 0.23962704E+02</totfact>
</mgrwt>
</event>
<event>
 4    1  0.1351183E-004  0.4654301E+03  0.7818608E-02  0.1023218E+00
          2   -1    0    0  501    0  0.00000000000E+00  0.00000000000E+00  0.60060642483E+03  0.60060642483E+03  0.25500000000E-02 0.  1.
         -2   -1    0    0    0  501 -0.00000000000E+00 -0.00000000000E+00 -0.90169369067E+02  0.90169369103E+02  0.25500000000E-02 0. -1.
    5000001    1    1    2    0    0 -0.15402843204E+03  0.10661686951E+03  0.33562950596E+03  0.40480622526E+03  0.12700000000E+03 0.  0.
   -5000001    1    1    2    0    0  0.15402843204E+03 -0.10661686951E+03  0.17480754980E+03  0.28596956867E+03  0.12700000000E+03 0.  0.
<mgrwt>
<rscale>  0 0.46543013E+03</rscale>
<asrwt>0</asrwt>
<pdfrwt beam="1">  1        2 0.85800920E-01 0.46543013E+03</pdfrwt>
<pdfrwt beam="2">  1       -2 0.12881338E-01 0.46543013E+03</pdfrwt>
<totfact> 0.24362802E+03</totfact>
</mgrwt>
</event>
<event>
 4    1  0.1351183E-004  0.5567818E+03  0.7818608E-02  0.9999363E-01
         -2   -1    0    0    0  501 -0.00000000000E+00  0.00000000000E+00  0.75662667840E+02  0.75662667883E+02  0.25500000000E-02 0. -1.
          2   -1    0    0  501    0  0.00000000000E+00 -0.00000000000E+00 -0.10243028174E+04  0.10243028174E+04  0.25500000000E-02 0.  1.
    5000001    1    1    2    0    0  0.12858755241E+03 -0.21162749946E+03 -0.46013896472E+03  0.53775256766E+03  0.12700000000E+03 0.  0.
   -5000001    1    1    2    0    0 -0.12858755241E+03  0.21162749946E+03 -0.48850118482E+03  0.56221291762E+03  0.12700000000E+03 0.  0.
<mgrwt>
<rscale>  0 0.55678177E+03</rscale>
<asrwt>0</asrwt>
<pdfrwt beam="1">  1        2 0.14632897E+00 0.55678177E+03</pdfrwt>
<pdfrwt beam="2">  1       -2 0.10808953E-01 0.55678177E+03</pdfrwt>
<totfact> 0.16474560E+03</totfact>
</mgrwt>
</event>
<event>
 4    1  0.1351183E-004  0.3711812E+03  0.7818608E-02  0.1054242E+00
         -2   -1    0    0    0  501 -0.00000000000E+00  0.00000000000E+00  0.88708501568E+02  0.88708501605E+02  0.25500000000E-02 0. -1.
          2   -1    0    0  501    0  0.00000000000E+00 -0.00000000000E+00 -0.38828149616E+03  0.38828149616E+03  0.25500000000E-02 0.  1.
    5000001    1    1    2    0    0  0.12046566429E+03  0.30907473034E+02 -0.81211714021E+02  0.19542668870E+03  0.12700000000E+03 0.  0.
   -5000001    1    1    2    0    0 -0.12046566429E+03 -0.30907473034E+02 -0.21836128057E+03  0.28156330907E+03  0.12700000000E+03 0.  0.
<mgrwt>
<rscale>  0 0.37118119E+03</rscale>
<asrwt>0</asrwt>
<pdfrwt beam="1">  1        2 0.55468784E-01 0.37118119E+03</pdfrwt>
<pdfrwt beam="2">  1       -2 0.12672643E-01 0.37118119E+03</pdfrwt>
<totfact> 0.40682269E+03</totfact>
</mgrwt>
</event>
<event>
 4    1  0.1351183E-004  0.2801479E+03  0.7818608E-02  0.1095608E+00
          2   -1    0    0  501    0  0.00000000000E+00  0.00000000000E+00  0.40276432245E+04  0.40276432245E+04  0.25500000000E-02 0.  1.
         -2   -1    0    0    0  501 -0.00000000000E+00 -0.00000000000E+00 -0.48715099952E+01  0.48715106626E+01  0.25500000000E-02 0. -1.
    5000001    1    1    2    0    0 -0.45249559905E+02 -0.37531843675E+02  0.19255696274E+04  0.19306484796E+04  0.12700000000E+03 0.  0.
   -5000001    1    1    2    0    0  0.45249559905E+02  0.37531843675E+02  0.20972020871E+04  0.21018662556E+04  0.12700000000E+03 0.  0.
<mgrwt>
<rscale>  0 0.28014786E+03</rscale>
<asrwt>0</asrwt>
<pdfrwt beam="1">  1        2 0.57537799E+00 0.28014786E+03</pdfrwt>
<pdfrwt beam="2">  1       -2 0.69592958E-03 0.28014786E+03</pdfrwt>
<totfact> 0.25037605E+03</totfact>
</mgrwt>
</event>
<event>
 4    1  0.1351183E-004  0.3130961E+03  0.7818608E-02  0.1078871E+00
         -2   -1    0    0    0  501 -0.00000000000E+00  0.00000000000E+00  0.82362177622E+01  0.82362181569E+01  0.25500000000E-02 0. -1.
          2   -1    0    0  501    0  0.00000000000E+00 -0.00000000000E+00 -0.29755514884E+04  0.29755514884E+04  0.25500000000E-02 0.  1.
    5000001    1    1    2    0    0 -0.83829469767E+02 -0.46729439609E+01 -0.18310856934E+04  0.18374038840E+04  0.12700000000E+03 0.  0.
   -5000001    1    1    2    0    0  0.83829469767E+02  0.46729439609E+01 -0.11362295773E+04  0.11463838226E+04  0.12700000000E+03 0.  0.
<mgrwt>
<rscale>  0 0.31309609E+03</rscale>
<asrwt>0</asrwt>
<pdfrwt beam="1">  1        2 0.42507810E+00 0.31309609E+03</pdfrwt>
<pdfrwt beam="2">  1       -2 0.11766045E-02 0.31309609E+03</pdfrwt>
<totfact> 0.48045134E+03</totfact>
</mgrwt>
</event>
<event>
 4    1  0.1351183E-004  0.4145308E+03  0.7818608E-02  0.1038861E+00
         -2   -1    0    0    0  501 -0.00000000000E+00  0.00000000000E+00  0.18453867064E+02  0.18453867240E+02  0.25500000000E-02 0. -1.
          2   -1    0    0  501    0  0.00000000000E+00 -0.00000000000E+00 -0.23279101564E+04  0.23279101564E+04  0.25500000000E-02 0.  1.
    5000001    1    1    2    0    0 -0.10599840835E+03 -0.60113142482E+02 -0.17742826937E+04  0.17829911187E+04  0.12700000000E+03 0.  0.
   -5000001    1    1    2    0    0  0.10599840835E+03  0.60113142482E+02 -0.53517359568E+03  0.56337290491E+03  0.12700000000E+03 0.  0.
<mgrwt>
<rscale>  0 0.41453079E+03</rscale>
<asrwt>0</asrwt>
<pdfrwt beam="1">  1        2 0.33255841E+00 0.41453079E+03</pdfrwt>
<pdfrwt beam="2">  1       -2 0.26362682E-02 0.41453079E+03</pdfrwt>
<totfact> 0.31145210E+03</totfact>
</mgrwt>
</event>
<event>
 4    1  0.1351183E-004  0.4240382E+03  0.7818608E-02  0.1035760E+00
         -2   -1    0    0    0  501 -0.00000000000E+00  0.00000000000E+00  0.55363878415E+02  0.55363878474E+02  0.25500000000E-02 0. -1.
          2   -1    0    0  501    0  0.00000000000E+00 -0.00000000000E+00 -0.81193919946E+03  0.81193919946E+03  0.25500000000E-02 0.  1.
    5000001    1    1    2    0    0 -0.64347021122E+02 -0.14536141507E+03 -0.25637734722E+03  0.32730539911E+03  0.12700000000E+03 0.  0.
   -5000001    1    1    2    0    0  0.64347021122E+02  0.14536141507E+03 -0.50019797382E+03  0.53999767882E+03  0.12700000000E+03 0.  0.
<mgrwt>
<rscale>  0 0.42403822E+03</rscale>
<asrwt>0</asrwt>
<pdfrwt beam="1">  1        2 0.11599131E+00 0.42403822E+03</pdfrwt>
<pdfrwt beam="2">  1       -2 0.79091260E-02 0.42403822E+03</pdfrwt>
<totfact> 0.37068269E+03</totfact>
</mgrwt>
</event>
<event>
 4    1  0.1351183E-004  0.6156210E+03  0.7818608E-02  0.9873517E-01
         -2   -1    0    0    0  501 -0.00000000000E+00  0.00000000000E+00  0.52431213284E+02  0.52431213346E+02  0.25500000000E-02 0. -1.
          2   -1    0    0  501    0  0.00000000000E+00 -0.00000000000E+00 -0.18070780840E+04  0.18070780840E+04  0.25500000000E-02 0.  1.
    5000001    1    1    2    0    0 -0.23703311301E+03  0.14560638775E+03 -0.77128648948E+03  0.82969739403E+03  0.12700000000E+03 0.  0.
   -5000001    1    1    2    0    0  0.23703311301E+03 -0.14560638775E+03 -0.98336038122E+03  0.10298119033E+04  0.12700000000E+03 0.  0.
<mgrwt>
<rscale>  0 0.61562098E+03</rscale>
<asrwt>0</asrwt>
<pdfrwt beam="1">  1        2 0.25815397E+00 0.61562098E+03</pdfrwt>
<pdfrwt beam="2">  1       -2 0.74901745E-02 0.61562098E+03</pdfrwt>
<totfact> 0.11270445E+03</totfact>
</mgrwt>
</event>
<event>
 4    1  0.1351183E-004  0.4582483E+03  0.7818608E-02  0.1025290E+00
          2   -1    0    0  501    0  0.00000000000E+00  0.00000000000E+00  0.76948095865E+02  0.76948095908E+02  0.25500000000E-02 0.  1.
         -2   -1    0    0    0  501 -0.00000000000E+00 -0.00000000000E+00 -0.68225045325E+03  0.68225045325E+03  0.25500000000E-02 0. -1.
    5000001    1    1    2    0    0 -0.12857292794E+03  0.13566228432E+03 -0.36538064048E+03  0.42961292534E+03  0.12700000000E+03 0.  0.
   -5000001    1    1    2    0    0  0.12857292794E+03 -0.13566228432E+03 -0.23992171690E+03  0.32958562381E+03  0.12700000000E+03 0.  0.
<mgrwt>
<rscale>  0 0.45824829E+03</rscale>
<asrwt>0</asrwt>
<pdfrwt beam="1">  1        2 0.10992586E-01 0.45824829E+03</pdfrwt>
<pdfrwt beam="2">  1       -2 0.97464347E-01 0.45824829E+03</pdfrwt>
<totfact> 0.52168458E+02</totfact>
</mgrwt>
</event>
<event>
 4    1  0.1351183E-004  0.7410183E+03  0.7818608E-02  0.9649547E-01
         -2   -1    0    0    0  501 -0.00000000000E+00  0.00000000000E+00  0.21744282420E+03  0.21744282422E+03  0.25500000000E-02 0. -1.
          2   -1    0    0  501    0  0.00000000000E+00 -0.00000000000E+00 -0.63132476215E+03  0.63132476215E+03  0.25500000000E-02 0.  1.
    5000001    1    1    2    0    0  0.19108516604E+02  0.29897405344E+03 -0.40989926792E+03  0.52335172674E+03  0.12700000000E+03 0.  0.
   -5000001    1    1    2    0    0 -0.19108516604E+02 -0.29897405344E+03 -0.39826700209E+01  0.32541585963E+03  0.12700000000E+03 0.  0.
<mgrwt>
<rscale>  0 0.74101832E+03</rscale>
<asrwt>0</asrwt>
<pdfrwt beam="1">  1        2 0.90189251E-01 0.74101832E+03</pdfrwt>
<pdfrwt beam="2">  1       -2 0.31063261E-01 0.74101832E+03</pdfrwt>
<totfact> 0.49242757E+02</totfact>
</mgrwt>
</event>
<event>
 4    1  0.1351183E-004  0.9872748E+03  0.7818608E-02  0.9322613E-01
         -2   -1    0    0    0  501 -0.00000000000E+00  0.00000000000E+00  0.34132012478E+03  0.34132012479E+03  0.25500000000E-02 0. -1.
          2   -1    0    0  501    0  0.00000000000E+00 -0.00000000000E+00 -0.71392774553E+03  0.71392774553E+03  0.25500000000E-02 0.  1.
    5000001    1    1    2    0    0  0.19902995103E+02 -0.46059371108E+03 -0.55369960041E+02  0.48139124252E+03  0.12700000000E+03 0.  0.
   -5000001    1    1    2    0    0 -0.19902995103E+02  0.46059371108E+03 -0.31723766070E+03  0.57385662780E+03  0.12700000000E+03 0.  0.
<mgrwt>
<rscale>  0 0.98727485E+03</rscale>
<asrwt>0</asrwt>
<pdfrwt beam="1">  1        2 0.10198968E+00 0.98727485E+03</pdfrwt>
<pdfrwt beam="2">  1       -2 0.48760018E-01 0.98727485E+03</pdfrwt>
<totfact> 0.17469516E+02</totfact>
</mgrwt>
</event>
<event>
 4    1  0.1351183E-004  0.3964782E+03  0.7818608E-02  0.1045006E+00
         -2   -1    0    0    0  501 -0.00000000000E+00  0.00000000000E+00  0.13744917301E+04  0.13744917301E+04  0.25500000000E-02 0. -1.
          2   -1    0    0  501    0  0.00000000000E+00 -0.00000000000E+00 -0.28591476065E+02  0.28591476179E+02  0.25500000000E-02 0.  1.
    5000001    1    1    2    0    0  0.13459476779E+03 -0.28440778299E+02  0.90352340019E+03  0.92271781390E+03  0.12700000000E+03 0.  0.
   -5000001    1    1    2    0    0 -0.13459476779E+03  0.28440778299E+02  0.44237685388E+03  0.48036539242E+03  0.12700000000E+03 0.  0.
<mgrwt>
<rscale>  0 0.39647823E+03</rscale>
<asrwt>0</asrwt>
<pdfrwt beam="1">  1        2 0.40844965E-02 0.39647823E+03</pdfrwt>
<pdfrwt beam="2">  1       -2 0.19635597E+00 0.39647823E+03</pdfrwt>
<totfact> 0.31393422E+02</totfact>
</mgrwt>
</event>
<event>
 4    1  0.1351183E-004  0.4028096E+03  0.7818608E-02  0.1042811E+00
          2   -1    0    0  501    0  0.00000000000E+00  0.00000000000E+00  0.79323613127E+03  0.79323613127E+03  0.25500000000E-02 0.  1.
         -2   -1    0    0    0  501 -0.00000000000E+00 -0.00000000000E+00 -0.51137212897E+02  0.51137212960E+02  0.25500000000E-02 0. -1.
    5000001    1    1    2    0    0  0.29091464592E+02 -0.13163275671E+03  0.20517860129E+03  0.27640686384E+03  0.12700000000E+03 0.  0.
   -5000001    1    1    2    0    0 -0.29091464592E+02  0.13163275671E+03  0.53692031708E+03  0.56796648039E+03  0.12700000000E+03 0.  0.
<mgrwt>
<rscale>  0 0.40280956E+03</rscale>
<asrwt>0</asrwt>
<pdfrwt beam="1">  1        2 0.11331945E+00 0.40280956E+03</pdfrwt>
<pdfrwt beam="2">  1       -2 0.73053161E-02 0.40280956E+03</pdfrwt>
<totfact> 0.43227454E+03</totfact>
</mgrwt>
</event>
<event>
 4    1  0.1351183E-004  0.3143067E+03  0.7818608E-02  0.1078300E+00
          2   -1    0    0  501    0  0.00000000000E+00  0.00000000000E+00  0.55029196884E+03  0.55029196885E+03  0.25500000000E-02 0.  1.
         -2   -1    0    0    0  501 -0.00000000000E+00 -0.00000000000E+00 -0.44880117054E+02  0.44880117126E+02  0.25500000000E-02 0. -1.
    5000001    1    1    2    0    0 -0.82992030391E+02 -0.32457520582E+02  0.30012169909E+03  0.33785085765E+03  0.12700000000E+03 0.  0.
   -5000001    1    1    2    0    0  0.82992030391E+02  0.32457520582E+02  0.20529015270E+03  0.25732122832E+03  0.12700000000E+03 0.  0.
<mgrwt>
<rscale>  0 0.31430665E+03</rscale>
<asrwt>0</asrwt>
<pdfrwt beam="1">  1        2 0.78613142E-01 0.31430665E+03</pdfrwt>
<pdfrwt beam="2">  1       -2 0.64114450E-02 0.31430665E+03</pdfrwt>
<totfact> 0.81189627E+03</totfact>
</mgrwt>
</event>
<event>
 4    1  0.1351183E-004  0.5090391E+03  0.7818608E-02  0.1011446E+00
         -2   -1    0    0    0  501 -0.00000000000E+00  0.00000000000E+00  0.51094665714E+02  0.51094665778E+02  0.25500000000E-02 0. -1.
          2   -1    0    0  501    0  0.00000000000E+00 -0.00000000000E+00 -0.12678465424E+04  0.12678465424E+04  0.25500000000E-02 0.  1.
    5000001    1    1    2    0    0 -0.10455904957E+03 -0.17997825009E+03 -0.79747632853E+03  0.83391981624E+03  0.12700000000E+03 0.  0.
   -5000001    1    1    2    0    0  0.10455904957E+03  0.17997825009E+03 -0.41927554812E+03  0.48502139190E+03  0.12700000000E+03 0.  0.
<mgrwt>
<rscale>  0 0.50903908E+03</rscale>
<asrwt>0</asrwt>
<pdfrwt beam="1">  1        2 0.18112092E+00 0.50903908E+03</pdfrwt>
<pdfrwt beam="2">  1       -2 0.72992387E-02 0.50903908E+03</pdfrwt>
<totfact> 0.22462658E+03</totfact>
</mgrwt>
</event>
<event>
 4    1  0.1351183E-004  0.6557312E+03  0.7818608E-02  0.9796084E-01
         -2   -1    0    0    0  501 -0.00000000000E+00  0.00000000000E+00  0.27162506281E+03  0.27162506282E+03  0.25500000000E-02 0. -1.
          2   -1    0    0  501    0  0.00000000000E+00 -0.00000000000E+00 -0.39575080947E+03  0.39575080948E+03  0.25500000000E-02 0.  1.
    5000001    1    1    2    0    0 -0.26613632857E+03  0.92929860400E+02 -0.17309809127E+03  0.35433946088E+03  0.12700000000E+03 0.  0.
   -5000001    1    1    2    0    0  0.26613632857E+03 -0.92929860400E+02  0.48972344601E+02  0.31303641142E+03  0.12700000000E+03 0.  0.
<mgrwt>
<rscale>  0 0.65573116E+03</rscale>
<asrwt>0</asrwt>
<pdfrwt beam="1">  1        2 0.56535829E-01 0.65573116E+03</pdfrwt>
<pdfrwt beam="2">  1       -2 0.38803581E-01 0.65573116E+03</pdfrwt>
<totfact> 0.55281039E+02</totfact>
</mgrwt>
</event>
<event>
 4    1  0.1351183E-004  0.5918973E+03  0.7818608E-02  0.9922361E-01
         -2   -1    0    0    0  501 -0.00000000000E+00  0.00000000000E+00  0.28126887026E+03  0.28126887027E+03  0.25500000000E-02 0. -1.
          2   -1    0    0  501    0  0.00000000000E+00 -0.00000000000E+00 -0.31139458460E+03  0.31139458461E+03  0.25500000000E-02 0.  1.
    5000001    1    1    2    0    0 -0.18470242181E+03  0.19212610424E+03  0.56805815948E+01  0.29527731637E+03  0.12700000000E+03 0.  0.
   -5000001    1    1    2    0    0  0.18470242181E+03 -0.19212610424E+03 -0.35806295938E+02  0.29738613852E+03  0.12700000000E+03 0.  0.
<mgrwt>
<rscale>  0 0.59189730E+03</rscale>
<asrwt>0</asrwt>
<pdfrwt beam="1">  1        2 0.44484941E-01 0.59189730E+03</pdfrwt>
<pdfrwt beam="2">  1       -2 0.40181267E-01 0.59189730E+03</pdfrwt>
<totfact> 0.67451529E+02</totfact>
</mgrwt>
</event>
<event>
 4    1  0.1351183E-004  0.5610215E+03  0.7818608E-02  0.9989746E-01
          2   -1    0    0  501    0  0.00000000000E+00  0.00000000000E+00  0.48940968305E+03  0.48940968306E+03  0.25500000000E-02 0.  1.
         -2   -1    0    0    0  501 -0.00000000000E+00 -0.00000000000E+00 -0.16077793709E+03  0.16077793711E+03  0.25500000000E-02 0. -1.
    5000001    1    1    2    0    0 -0.85254612166E+02 -0.85087289581E+02 -0.89723919721E+02  0.19669157967E+03  0.12700000000E+03 0.  0.
   -5000001    1    1    2    0    0  0.85254612166E+02  0.85087289581E+02  0.41835566568E+03  0.45349604050E+03  0.12700000000E+03 0.  0.
<mgrwt>
<rscale>  0 0.56102149E+03</rscale>
<asrwt>0</asrwt>
<pdfrwt beam="1">  1        2 0.69915669E-01 0.56102149E+03</pdfrwt>
<pdfrwt beam="2">  1       -2 0.22968277E-01 0.56102149E+03</pdfrwt>
<totfact> 0.11497300E+03</totfact>
</mgrwt>
</event>
<event>
 4    1  0.1351183E-004  0.4279416E+03  0.7818608E-02  0.1034512E+00
          2   -1    0    0  501    0  0.00000000000E+00  0.00000000000E+00  0.13446457560E+03  0.13446457562E+03  0.25500000000E-02 0.  1.
         -2   -1    0    0    0  501 -0.00000000000E+00 -0.00000000000E+00 -0.34048749078E+03  0.34048749079E+03  0.25500000000E-02 0. -1.
    5000001    1    1    2    0    0 -0.36187926139E+02 -0.97865418555E+02  0.49031447307E+02  0.17152343564E+03  0.12700000000E+03 0.  0.
   -5000001    1    1    2    0    0  0.36187926139E+02  0.97865418555E+02 -0.25505436249E+03  0.30342863077E+03  0.12700000000E+03 0.  0.
<mgrwt>
<rscale>  0 0.42794161E+03</rscale>
<asrwt>0</asrwt>
<pdfrwt beam="1">  1        2 0.19209225E-01 0.42794161E+03</pdfrwt>
<pdfrwt beam="2">  1       -2 0.48641070E-01 0.42794161E+03</pdfrwt>
<totfact> 0.11910788E+03</totfact>
</mgrwt>
</event>
<event>
 4    1  0.1351183E-004  0.5050746E+03  0.7818608E-02  0.1012463E+00
         -2   -1    0    0    0  501 -0.00000000000E+00  0.00000000000E+00  0.84468250289E+02  0.84468250328E+02  0.25500000000E-02 0. -1.
          2   -1    0    0  501    0  0.00000000000E+00 -0.00000000000E+00 -0.75501848781E+03  0.75501848781E+03  0.25500000000E-02 0.  1.
    5000001    1    1    2    0    0  0.69114014194E+02  0.20138381173E+03 -0.25532281657E+03  0.35588049574E+03  0.12700000000E+03 0.  0.
   -5000001    1    1    2    0    0 -0.69114014194E+02 -0.20138381173E+03 -0.41522742095E+03  0.48360624240E+03  0.12700000000E+03 0.  0.
<mgrwt>
<rscale>  0 0.50507461E+03</rscale>
<asrwt>0</asrwt>
<pdfrwt beam="1">  1        2 0.10785978E+00 0.50507461E+03</pdfrwt>
<pdfrwt beam="2">  1       -2 0.12066893E-01 0.50507461E+03</pdfrwt>
<totfact> 0.20607640E+03</totfact>
</mgrwt>
</event>
<event>
 4    1  0.1351183E-004  0.3031934E+03  0.7818608E-02  0.1083655E+00
         -2   -1    0    0    0  501 -0.00000000000E+00  0.00000000000E+00  0.13286609757E+02  0.13286610001E+02  0.25500000000E-02 0. -1.
          2   -1    0    0  501    0  0.00000000000E+00 -0.00000000000E+00 -0.17296783062E+04  0.17296783062E+04  0.25500000000E-02 0.  1.
    5000001    1    1    2    0    0 -0.47984499913E+02  0.61000893850E+02 -0.10237081697E+04  0.10344713810E+04  0.12700000000E+03 0.  0.
   -5000001    1    1    2    0    0  0.47984499913E+02 -0.61000893850E+02 -0.69268352673E+03  0.70849353525E+03  0.12700000000E+03 0.  0.
<mgrwt>
<rscale>  0 0.30319341E+03</rscale>
<asrwt>0</asrwt>
<pdfrwt beam="1">  1        2 0.24709676E+00 0.30319341E+03</pdfrwt>
<pdfrwt beam="2">  1       -2 0.18980882E-02 0.30319341E+03</pdfrwt>
<totfact> 0.10024666E+04</totfact>
</mgrwt>
</event>
<event>
 4    1  0.1351183E-004  0.3736820E+03  0.7818608E-02  0.1053294E+00
          2   -1    0    0  501    0  0.00000000000E+00  0.00000000000E+00  0.22019247679E+03  0.22019247680E+03  0.25500000000E-02 0.  1.
         -2   -1    0    0    0  501 -0.00000000000E+00 -0.00000000000E+00 -0.15854112458E+03  0.15854112460E+03  0.25500000000E-02 0. -1.
    5000001    1    1    2    0    0  0.30141739306E+02  0.12858691439E+03  0.67891138593E+02  0.19540042401E+03  0.12700000000E+03 0.  0.
   -5000001    1    1    2    0    0 -0.30141739306E+02 -0.12858691439E+03 -0.62397863900E+01  0.18333317740E+03  0.12700000000E+03 0.  0.
<mgrwt>
<rscale>  0 0.37368202E+03</rscale>
<asrwt>0</asrwt>
<pdfrwt beam="1">  1        2 0.31456068E-01 0.37368202E+03</pdfrwt>
<pdfrwt beam="2">  1       -2 0.22648732E-01 0.37368202E+03</pdfrwt>
<totfact> 0.28333807E+03</totfact>
</mgrwt>
</event>
<event>
 4    1  0.1351183E-004  0.5264014E+03  0.7818608E-02  0.1007109E+00
          2   -1    0    0  501    0  0.00000000000E+00  0.00000000000E+00  0.29113813227E+04  0.29113813227E+04  0.25500000000E-02 0.  1.
         -2   -1    0    0    0  501 -0.00000000000E+00 -0.00000000000E+00 -0.23794415071E+02  0.23794415207E+02  0.25500000000E-02 0. -1.
    5000001    1    1    2    0    0 -0.22511445736E+03  0.40485772411E+02  0.16044342588E+04  0.16256241594E+04  0.12700000000E+03 0.  0.
   -5000001    1    1    2    0    0  0.22511445736E+03 -0.40485772411E+02  0.12831526488E+04  0.13095515785E+04  0.12700000000E+03 0.  0.
<mgrwt>
<rscale>  0 0.52640143E+03</rscale>
<asrwt>0</asrwt>
<pdfrwt beam="1">  1        2 0.41591145E+00 0.52640143E+03</pdfrwt>
<pdfrwt beam="2">  1       -2 0.33992035E-02 0.52640143E+03</pdfrwt>
<totfact> 0.10530158E+03</totfact>
</mgrwt>
</event>
<event>
 4    1  0.1351183E-004  0.6415795E+03  0.7818608E-02  0.9822709E-01
         -2   -1    0    0    0  501 -0.00000000000E+00  0.00000000000E+00  0.13350902867E+03  0.13350902870E+03  0.25500000000E-02 0. -1.
          2   -1    0    0  501    0  0.00000000000E+00 -0.00000000000E+00 -0.77077991243E+03  0.77077991244E+03  0.25500000000E-02 0.  1.
    5000001    1    1    2    0    0 -0.10052055812E+03 -0.21059748648E+03 -0.65238277596E+02  0.27357031414E+03  0.12700000000E+03 0.  0.
   -5000001    1    1    2    0    0  0.10052055812E+03  0.21059748648E+03 -0.57203260616E+03  0.63071862699E+03  0.12700000000E+03 0.  0.
<mgrwt>
<rscale>  0 0.64157954E+03</rscale>
<asrwt>0</asrwt>
<pdfrwt beam="1">  1        2 0.11011141E+00 0.64157954E+03</pdfrwt>
<pdfrwt beam="2">  1       -2 0.19072719E-01 0.64157954E+03</pdfrwt>
<totfact> 0.92728852E+02</totfact>
</mgrwt>
</event>
<event>
 4    1  0.1351183E-004  0.3631551E+03  0.7818608E-02  0.1057342E+00
         -2   -1    0    0    0  501 -0.00000000000E+00  0.00000000000E+00  0.65531823894E+02  0.65531823944E+02  0.25500000000E-02 0. -1.
          2   -1    0    0  501    0  0.00000000000E+00 -0.00000000000E+00 -0.50312050318E+03  0.50312050319E+03  0.25500000000E-02 0.  1.
    5000001    1    1    2    0    0 -0.38750637367E+02 -0.10623913698E+03 -0.11910584620E+03  0.20761398971E+03  0.12700000000E+03 0.  0.
   -5000001    1    1    2    0    0  0.38750637367E+02  0.10623913698E+03 -0.31848283309E+03  0.36103833743E+03  0.12700000000E+03 0.  0.
<mgrwt>
<rscale>  0 0.36315509E+03</rscale>
<asrwt>0</asrwt>
<pdfrwt beam="1">  1        2 0.71874356E-01 0.36315509E+03</pdfrwt>
<pdfrwt beam="2">  1       -2 0.93616894E-02 0.36315509E+03</pdfrwt>
<totfact> 0.49800685E+03</totfact>
</mgrwt>
</event>
<event>
 4    1  0.1351183E-004  0.3018046E+03  0.7818608E-02  0.1084342E+00
          2   -1    0    0  501    0  0.00000000000E+00  0.00000000000E+00  0.12519374630E+03  0.12519374633E+03  0.25500000000E-02 0.  1.
         -2   -1    0    0    0  501 -0.00000000000E+00 -0.00000000000E+00 -0.18189013706E+03  0.18189013707E+03  0.25500000000E-02 0. -1.
    5000001    1    1    2    0    0  0.76404564334E+02  0.25991982299E+02 -0.39916643773E+02  0.15567780524E+03  0.12700000000E+03 0.  0.
   -5000001    1    1    2    0    0 -0.76404564334E+02 -0.25991982299E+02 -0.16779746980E+02  0.15140607816E+03  0.12700000000E+03 0.  0.
<mgrwt>
<rscale>  0 0.30180462E+03</rscale>
<asrwt>0</asrwt>
<pdfrwt beam="1">  1        2 0.17884821E-01 0.30180462E+03</pdfrwt>
<pdfrwt beam="2">  1       -2 0.25984305E-01 0.30180462E+03</pdfrwt>
<totfact> 0.41897870E+03</totfact>
</mgrwt>
</event>
<event>
 4    1  0.1351183E-004  0.4747860E+03  0.7818608E-02  0.1020578E+00
         -2   -1    0    0    0  501 -0.00000000000E+00  0.00000000000E+00  0.21326534231E+02  0.21326534384E+02  0.25500000000E-02 0. -1.
          2   -1    0    0  501    0  0.00000000000E+00 -0.00000000000E+00 -0.26425036474E+04  0.26425036474E+04  0.25500000000E-02 0.  1.
    5000001    1    1    2    0    0  0.17528552760E+03 -0.63335858673E+02 -0.89487453502E+03  0.92285745412E+03  0.12700000000E+03 0.  0.
   -5000001    1    1    2    0    0 -0.17528552760E+03  0.63335858673E+02 -0.17263025781E+04  0.17409727277E+04  0.12700000000E+03 0.  0.
<mgrwt>
<rscale>  0 0.47478603E+03</rscale>
<asrwt>0</asrwt>
<pdfrwt beam="1">  1        2 0.37750031E+00 0.47478603E+03</pdfrwt>
<pdfrwt beam="2">  1       -2 0.30466494E-02 0.47478603E+03</pdfrwt>
<totfact> 0.17281432E+03</totfact>
</mgrwt>
</event>
<event>
 4    1  0.1351183E-004  0.9512408E+03  0.7818608E-02  0.9363701E-01
          2   -1    0    0  501    0  0.00000000000E+00  0.00000000000E+00  0.18382934547E+04  0.18382934547E+04  0.25500000000E-02 0.  1.
         -2   -1    0    0    0  501 -0.00000000000E+00 -0.00000000000E+00 -0.12305694034E+03  0.12305694036E+03  0.25500000000E-02 0. -1.
    5000001    1    1    2    0    0  0.34930953589E+03 -0.27829579721E+03  0.64513324092E+03  0.79485319471E+03  0.12700000000E+03 0.  0.
   -5000001    1    1    2    0    0 -0.34930953589E+03  0.27829579721E+03  0.10701032735E+04  0.11664972004E+04  0.12700000000E+03 0.  0.
<mgrwt>
<rscale>  0 0.95124081E+03</rscale>
<asrwt>0</asrwt>
<pdfrwt beam="1">  1        2 0.26261335E+00 0.95124081E+03</pdfrwt>
<pdfrwt beam="2">  1       -2 0.17579563E-01 0.95124081E+03</pdfrwt>
<totfact> 0.26058410E+02</totfact>
</mgrwt>
</event>
<event>
 4    1  0.1351183E-004  0.3831936E+03  0.7818608E-02  0.1049760E+00
          2   -1    0    0  501    0  0.00000000000E+00  0.00000000000E+00  0.13916035767E+03  0.13916035770E+03  0.25500000000E-02 0.  1.
         -2   -1    0    0    0  501 -0.00000000000E+00 -0.00000000000E+00 -0.26379157380E+03  0.26379157381E+03  0.25500000000E-02 0. -1.
    5000001    1    1    2    0    0 -0.12887761955E+03 -0.62992707167E+02 -0.60553561309E+02  0.20093097264E+03  0.12700000000E+03 0.  0.
   -5000001    1    1    2    0    0  0.12887761955E+03  0.62992707167E+02 -0.64077654815E+02  0.20202095887E+03  0.12700000000E+03 0.  0.
<mgrwt>
<rscale>  0 0.38319358E+03</rscale>
<asrwt>0</asrwt>
<pdfrwt beam="1">  1        2 0.19880051E-01 0.38319358E+03</pdfrwt>
<pdfrwt beam="2">  1       -2 0.37684511E-01 0.38319358E+03</pdfrwt>
<totfact> 0.18809154E+03</totfact>
</mgrwt>
</event>
<event>
 4    1  0.1351183E-004  0.2829149E+03  0.7818608E-02  0.1094107E+00
          2   -1    0    0  501    0  0.00000000000E+00  0.00000000000E+00  0.78629088533E+02  0.78629088574E+02  0.25500000000E-02 0.  1.
         -2   -1    0    0    0  501 -0.00000000000E+00 -0.00000000000E+00 -0.25448859492E+03  0.25448859493E+03  0.25500000000E-02 0. -1.
    5000001    1    1    2    0    0 -0.61618874629E+02  0.47472726685E+01 -0.97184824827E+02  0.17144477970E+03  0.12700000000E+03 0.  0.
   -5000001    1    1    2    0    0  0.61618874629E+02 -0.47472726685E+01 -0.78674681562E+02  0.16167290381E+03  0.12700000000E+03 0.  0.
<mgrwt>
<rscale>  0 0.28291487E+03</rscale>
<asrwt>0</asrwt>
<pdfrwt beam="1">  1        2 0.11232727E-01 0.28291487E+03</pdfrwt>
<pdfrwt beam="2">  1       -2 0.36355513E-01 0.28291487E+03</pdfrwt>
<totfact> 0.39486137E+03</totfact>
</mgrwt>
</event>
<event>
 4    1  0.1351183E-004  0.4388665E+03  0.7818608E-02  0.1031095E+00
          2   -1    0    0  501    0  0.00000000000E+00  0.00000000000E+00  0.23681833514E+04  0.23681833514E+04  0.25500000000E-02 0.  1.
         -2   -1    0    0    0  501 -0.00000000000E+00 -0.00000000000E+00 -0.20332445545E+02  0.20332445705E+02  0.25500000000E-02 0. -1.
    5000001    1    1    2    0    0 -0.27434251791E+02 -0.90937831594E+02  0.34854136373E+03  0.38292611509E+03  0.12700000000E+03 0.  0.
   -5000001    1    1    2    0    0  0.27434251791E+02  0.90937831594E+02  0.19993095422E+04  0.20055896821E+04  0.12700000000E+03 0.  0.
<mgrwt>
<rscale>  0 0.43886654E+03</rscale>
<asrwt>0</asrwt>
<pdfrwt beam="1">  1        2 0.33831193E+00 0.43886654E+03</pdfrwt>
<pdfrwt beam="2">  1       -2 0.29046349E-02 0.43886654E+03</pdfrwt>
<totfact> 0.25670004E+03</totfact>
</mgrwt>
</event>
<event>
 4    1  0.1351183E-004  0.3876324E+03  0.7818608E-02  0.1048148E+00
          2   -1    0    0  501    0  0.00000000000E+00  0.00000000000E+00  0.85734094733E+03  0.85734094733E+03  0.25500000000E-02 0.  1.
         -2   -1    0    0    0  501 -0.00000000000E+00 -0.00000000000E+00 -0.43815374132E+02  0.43815374206E+02  0.25500000000E-02 0. -1.
    5000001    1    1    2    0    0  0.12022842475E+03  0.83442008356E+02  0.41670006592E+03  0.45954911360E+03  0.12700000000E+03 0.  0.
   -5000001    1    1    2    0    0 -0.12022842475E+03 -0.83442008356E+02  0.39682550728E+03  0.44160720794E+03  0.12700000000E+03 0.  0.
<mgrwt>
<rscale>  0 0.38763237E+03</rscale>
<asrwt>0</asrwt>
<pdfrwt beam="1">  1        2 0.12247728E+00 0.38763237E+03</pdfrwt>
<pdfrwt beam="2">  1       -2 0.62593390E-02 0.38763237E+03</pdfrwt>
<totfact> 0.49809663E+03</totfact>
</mgrwt>
</event>
<event>
 4    1  0.1351183E-004  0.6141741E+03  0.7818608E-02  0.9876428E-01
          2   -1    0    0  501    0  0.00000000000E+00  0.00000000000E+00  0.39618154838E+03  0.39618154839E+03  0.25500000000E-02 0. -1.
         -2   -1    0    0    0  501 -0.00000000000E+00 -0.00000000000E+00 -0.23802837161E+03  0.23802837162E+03  0.25500000000E-02 0.  1.
    5000001    1    1    2    0    0  0.10993763574E+03 -0.18261697718E+03  0.26591621036E+03  0.36369722990E+03  0.12700000000E+03 0.  0.
   -5000001    1    1    2    0    0 -0.10993763574E+03  0.18261697718E+03 -0.10776303358E+03  0.27051269011E+03  0.12700000000E+03 0.  0.
<mgrwt>
<rscale>  0 0.61417408E+03</rscale>
<asrwt>0</asrwt>
<pdfrwt beam="1">  1        2 0.56597364E-01 0.61417408E+03</pdfrwt>
<pdfrwt beam="2">  1       -2 0.34004053E-01 0.61417408E+03</pdfrwt>
<totfact> 0.71102438E+02</totfact>
</mgrwt>
</event>
<event>
 4    1  0.1351183E-004  0.4340545E+03  0.7818608E-02  0.1032587E+00
         -2   -1    0    0    0  501 -0.00000000000E+00  0.00000000000E+00  0.12811676510E+02  0.12811676764E+02  0.25500000000E-02 0. -1.
          2   -1    0    0  501    0  0.00000000000E+00 -0.00000000000E+00 -0.36763990069E+04  0.36763990069E+04  0.25500000000E-02 0.  1.
    5000001    1    1    2    0    0 -0.47040734934E+02 -0.16894310000E+03 -0.19570652422E+04  0.19690068471E+04  0.12700000000E+03 0.  0.
   -5000001    1    1    2    0    0  0.47040734934E+02  0.16894310000E+03 -0.17065220882E+04  0.17202038365E+04  0.12700000000E+03 0.  0.
<mgrwt>
<rscale>  0 0.43405454E+03</rscale>
<asrwt>0</asrwt>
<pdfrwt beam="1">  1        2 0.52519918E+00 0.43405454E+03</pdfrwt>
<pdfrwt beam="2">  1       -2 0.18302419E-02 0.43405454E+03</pdfrwt>
<totfact> 0.99067662E+02</totfact>
</mgrwt>
</event>
<event>
 4    1  0.1351183E-004  0.9980634E+03  0.7818608E-02  0.9310671E-01
         -2   -1    0    0    0  501 -0.00000000000E+00  0.00000000000E+00  0.13403832838E+03  0.13403832841E+03  0.25500000000E-02 0. -1.
          2   -1    0    0  501    0  0.00000000000E+00 -0.00000000000E+00 -0.18579210555E+04  0.18579210555E+04  0.25500000000E-02 0.  1.
    5000001    1    1    2    0    0 -0.31396454012E+03 -0.36464642666E+03 -0.78826100296E+03  0.93221518852E+03  0.12700000000E+03 0.  0.
   -5000001    1    1    2    0    0  0.31396454012E+03  0.36464642666E+03 -0.93562172415E+03  0.10597441954E+04  0.12700000000E+03 0.  0.
<mgrwt>
<rscale>  0 0.99806339E+03</rscale>
<asrwt>0</asrwt>
<pdfrwt beam="1">  1        2 0.26541728E+00 0.99806339E+03</pdfrwt>
<pdfrwt beam="2">  1       -2 0.19148334E-01 0.99806339E+03</pdfrwt>
<totfact> 0.21884398E+02</totfact>
</mgrwt>
</event>
<event>
 4    1  0.1351183E-004  0.3824643E+03  0.7818608E-02  0.1050027E+00
          2   -1    0    0  501    0  0.00000000000E+00  0.00000000000E+00  0.78664891106E+03  0.78664891106E+03  0.25500000000E-02 0.  1.
         -2   -1    0    0    0  501 -0.00000000000E+00 -0.00000000000E+00 -0.46488005193E+02  0.46488005263E+02  0.25500000000E-02 0. -1.
    5000001    1    1    2    0    0  0.99012653176E+02  0.41926750937E+02  0.57534634645E+03  0.59892718781E+03  0.12700000000E+03 0.  0.
   -5000001    1    1    2    0    0 -0.99012653176E+02 -0.41926750937E+02  0.16481455942E+03  0.23420972851E+03  0.12700000000E+03 0.  0.
<mgrwt>
<rscale>  0 0.38246432E+03</rscale>
<asrwt>0</asrwt>
<pdfrwt beam="1">  1        2 0.11237842E+00 0.38246432E+03</pdfrwt>
<pdfrwt beam="2">  1       -2 0.66411434E-02 0.38246432E+03</pdfrwt>
<totfact> 0.50654151E+03</totfact>
</mgrwt>
</event>
<event>
 4    1  0.1351183E-004  0.3832472E+03  0.7818608E-02  0.1049740E+00
          2   -1    0    0  501    0  0.00000000000E+00  0.00000000000E+00  0.12112091987E+04  0.12112091987E+04  0.25500000000E-02 0.  1.
         -2   -1    0    0    0  501 -0.00000000000E+00 -0.00000000000E+00 -0.30316477385E+02  0.30316477492E+02  0.25500000000E-02 0. -1.
    5000001    1    1    2    0    0  0.10089914928E+03 -0.28166025203E+02  0.90812519686E+03  0.92292704829E+03  0.12700000000E+03 0.  0.
   -5000001    1    1    2    0    0 -0.10089914928E+03  0.28166025203E+02  0.27276752444E+03  0.31859862789E+03  0.12700000000E+03 0.  0.
<mgrwt>
<rscale>  0 0.38324716E+03</rscale>
<asrwt>0</asrwt>
<pdfrwt beam="1">  1        2 0.17302987E+00 0.38324716E+03</pdfrwt>
<pdfrwt beam="2">  1       -2 0.43309258E-02 0.38324716E+03</pdfrwt>
<totfact> 0.54128094E+03</totfact>
</mgrwt>
</event>
<event>
 4    1  0.1351183E-004  0.2982061E+03  0.7818608E-02  0.1086141E+00
          2   -1    0    0  501    0  0.00000000000E+00  0.00000000000E+00  0.80628872996E+03  0.80628872997E+03  0.25500000000E-02 0.  1.
         -2   -1    0    0    0  501 -0.00000000000E+00 -0.00000000000E+00 -0.27572892740E+02  0.27572892858E+02  0.25500000000E-02 0. -1.
    5000001    1    1    2    0    0 -0.19031215336E+02 -0.45757186087E+02  0.55822065770E+03  0.57462614796E+03  0.12700000000E+03 0.  0.
   -5000001    1    1    2    0    0  0.19031215336E+02  0.45757186087E+02  0.22049517953E+03  0.25923547487E+03  0.12700000000E+03 0.  0.
<mgrwt>
<rscale>  0 0.29820605E+03</rscale>
<asrwt>0</asrwt>
<pdfrwt beam="1">  1        2 0.11518410E+00 0.29820605E+03</pdfrwt>
<pdfrwt beam="2">  1       -2 0.39389847E-02 0.29820605E+03</pdfrwt>
<totfact> 0.10856051E+04</totfact>
</mgrwt>
</event>
<event>
 4    1  0.1351183E-004  0.3526969E+03  0.7818608E-02  0.1061514E+00
         -2   -1    0    0    0  501 -0.00000000000E+00  0.00000000000E+00  0.26823356364E+02  0.26823356486E+02  0.25500000000E-02 0. -1.
          2   -1    0    0  501    0  0.00000000000E+00 -0.00000000000E+00 -0.11593915567E+04  0.11593915567E+04  0.25500000000E-02 0.  1.
    5000001    1    1    2    0    0  0.11754299914E+03 -0.10909974627E+02 -0.45811489062E+03  0.48983021263E+03  0.12700000000E+03 0.  0.
   -5000001    1    1    2    0    0 -0.11754299914E+03  0.10909974627E+02 -0.67445330976E+03  0.69638470061E+03  0.12700000000E+03 0.  0.
<mgrwt>
<rscale>  0 0.35269688E+03</rscale>
<asrwt>0</asrwt>
<pdfrwt beam="1">  1        2 0.16562733E+00 0.35269688E+03</pdfrwt>
<pdfrwt beam="2">  1       -2 0.38319088E-02 0.35269688E+03</pdfrwt>
<totfact> 0.69536357E+03</totfact>
</mgrwt>
</event>
<event>
 4    1  0.1351183E-004  0.6299237E+03  0.7818608E-02  0.9845198E-01
          2   -1    0    0  501    0  0.00000000000E+00  0.00000000000E+00  0.89615277742E+03  0.89615277742E+03  0.25500000000E-02 0.  1.
         -2   -1    0    0    0  501 -0.00000000000E+00 -0.00000000000E+00 -0.11069647834E+03  0.11069647837E+03  0.25500000000E-02 0. -1.
    5000001    1    1    2    0    0  0.28461198244E+03 -0.32776620776E+02  0.44311270395E+03  0.54273027907E+03  0.12700000000E+03 0.  0.
   -5000001    1    1    2    0    0 -0.28461198244E+03  0.32776620776E+02  0.34234359513E+03  0.46411897671E+03  0.12700000000E+03 0.  0.
<mgrwt>
<rscale>  0 0.62992367E+03</rscale>
<asrwt>0</asrwt>
<pdfrwt beam="1">  1        2 0.12802183E+00 0.62992367E+03</pdfrwt>
<pdfrwt beam="2">  1       -2 0.15813782E-01 0.62992367E+03</pdfrwt>
<totfact> 0.10512719E+03</totfact>
</mgrwt>
</event>
<event>
 4    1  0.1351183E-004  0.4726657E+03  0.7818608E-02  0.1021171E+00
          2   -1    0    0  501    0  0.00000000000E+00  0.00000000000E+00  0.44743767321E+03  0.44743767322E+03  0.25500000000E-02 0.  1.
         -2   -1    0    0    0  501 -0.00000000000E+00 -0.00000000000E+00 -0.12482901808E+03  0.12482901811E+03  0.25500000000E-02 0. -1.
    5000001    1    1    2    0    0 -0.16214318902E+03 -0.21419517760E+02  0.23393604065E+02  0.20838778802E+03  0.12700000000E+03 0.  0.
   -5000001    1    1    2    0    0  0.16214318902E+03  0.21419517760E+02  0.29921505106E+03  0.36387890330E+03  0.12700000000E+03 0.  0.
<mgrwt>
<rscale>  0 0.47266566E+03</rscale>
<asrwt>0</asrwt>
<pdfrwt beam="1">  1        2 0.63919670E-01 0.47266566E+03</pdfrwt>
<pdfrwt beam="2">  1       -2 0.17832716E-01 0.47266566E+03</pdfrwt>
<totfact> 0.19736834E+03</totfact>
</mgrwt>
</event>
<event>
 4    1  0.1351183E-004  0.1291074E+04  0.7818608E-02  0.9036674E-01
          2   -1    0    0  501    0  0.00000000000E+00  0.00000000000E+00  0.14181270877E+04  0.14181270878E+04  0.25500000000E-02 0.  1.
         -2   -1    0    0    0  501 -0.00000000000E+00 -0.00000000000E+00 -0.29385092794E+03  0.29385092795E+03  0.25500000000E-02 0. -1.
    5000001    1    1    2    0    0  0.53185957769E+03  0.25526887560E+03  0.25815995731E+03  0.65636298859E+03  0.12700000000E+03 0.  0.
   -5000001    1    1    2    0    0 -0.53185957769E+03 -0.25526887560E+03  0.86611620250E+03  0.10556150271E+04  0.12700000000E+03 0.  0.
<mgrwt>
<rscale>  0 0.12910739E+04</rscale>
<asrwt>0</asrwt>
<pdfrwt beam="1">  1        2 0.20258958E+00 0.12910739E+04</pdfrwt>
<pdfrwt beam="2">  1       -2 0.41978704E-01 0.12910739E+04</pdfrwt>
<totfact> 0.85309543E+01</totfact>
</mgrwt>
</event>
<event>
 4    1  0.1351183E-004  0.4265741E+03  0.7818608E-02  0.1034948E+00
          2   -1    0    0  501    0  0.00000000000E+00  0.00000000000E+00  0.15014369326E+04  0.15014369326E+04  0.25500000000E-02 0.  1.
         -2   -1    0    0    0  501 -0.00000000000E+00 -0.00000000000E+00 -0.30298556987E+02  0.30298557095E+02  0.25500000000E-02 0. -1.
    5000001    1    1    2    0    0 -0.15307234323E+03  0.71147721065E+02  0.84143534061E+03  0.86754571805E+03  0.12700000000E+03 0.  0.
   -5000001    1    1    2    0    0  0.15307234323E+03 -0.71147721065E+02  0.62970303501E+03  0.66418977166E+03  0.12700000000E+03 0.  0.
<mgrwt>
<rscale>  0 0.42657413E+03</rscale>
<asrwt>0</asrwt>
<pdfrwt beam="1">  1        2 0.21449104E+00 0.42657413E+03</pdfrwt>
<pdfrwt beam="2">  1       -2 0.43283642E-02 0.42657413E+03</pdfrwt>
<totfact> 0.38063675E+03</totfact>
</mgrwt>
</event>
<event>
 4    1  0.1351183E-004  0.3660838E+03  0.7818608E-02  0.1056201E+00
         -2   -1    0    0    0  501 -0.00000000000E+00  0.00000000000E+00  0.52553617083E+02  0.52553617145E+02  0.25500000000E-02 0. -1.
          2   -1    0    0  501    0  0.00000000000E+00 -0.00000000000E+00 -0.63752682952E+03  0.63752682952E+03  0.25500000000E-02 0.  1.
    5000001    1    1    2    0    0  0.59450559581E+02 -0.11045408861E+03 -0.21612839108E+03  0.28031224761E+03  0.12700000000E+03 0.  0.
   -5000001    1    1    2    0    0 -0.59450559581E+02  0.11045408861E+03 -0.36884482135E+03  0.40976819906E+03  0.12700000000E+03 0.  0.
<mgrwt>
<rscale>  0 0.36608382E+03</rscale>
<asrwt>0</asrwt>
<pdfrwt beam="1">  1        2 0.91075257E-01 0.36608382E+03</pdfrwt>
<pdfrwt beam="2">  1       -2 0.75076600E-02 0.36608382E+03</pdfrwt>
<totfact> 0.53852567E+03</totfact>
</mgrwt>
</event>
<event>
 4    1  0.1351183E-004  0.3239857E+03  0.7818608E-02  0.1073829E+00
         -2   -1    0    0    0  501 -0.00000000000E+00  0.00000000000E+00  0.18639641184E+02  0.18639641359E+02  0.25500000000E-02 0. -1.
          2   -1    0    0  501    0  0.00000000000E+00 -0.00000000000E+00 -0.14078425883E+04  0.14078425883E+04  0.25500000000E-02 0.  1.
    5000001    1    1    2    0    0 -0.96068161416E+02 -0.53755963901E+01 -0.82332128688E+03  0.83859700101E+03  0.12700000000E+03 0.  0.
   -5000001    1    1    2    0    0  0.96068161416E+02  0.53755963901E+01 -0.56588166025E+03  0.58788522866E+03  0.12700000000E+03 0.  0.
<mgrwt>
<rscale>  0 0.32398568E+03</rscale>
<asrwt>0</asrwt>
<pdfrwt beam="1">  1        2 0.20112030E+00 0.32398568E+03</pdfrwt>
<pdfrwt beam="2">  1       -2 0.26628068E-02 0.32398568E+03</pdfrwt>
<totfact> 0.88283896E+03</totfact>
</mgrwt>
</event>
<event>
 4    1  0.1351183E-004  0.3292805E+03  0.7818608E-02  0.1071456E+00
         -2   -1    0    0    0  501 -0.00000000000E+00  0.00000000000E+00  0.13887438776E+03  0.13887438779E+03  0.25500000000E-02 0. -1.
          2   -1    0    0  501    0  0.00000000000E+00 -0.00000000000E+00 -0.19518657987E+03  0.19518657989E+03  0.25500000000E-02 0.  1.
    5000001    1    1    2    0    0 -0.83316813068E+02  0.62092126199E+02 -0.14533825875E+02  0.16473419672E+03  0.12700000000E+03 0.  0.
   -5000001    1    1    2    0    0  0.83316813068E+02 -0.62092126199E+02 -0.41778366230E+02  0.16932677095E+03  0.12700000000E+03 0.  0.
<mgrwt>
<rscale>  0 0.32928053E+03</rscale>
<asrwt>0</asrwt>
<pdfrwt beam="1">  1        2 0.27883797E-01 0.32928053E+03</pdfrwt>
<pdfrwt beam="2">  1       -2 0.19839198E-01 0.32928053E+03</pdfrwt>
<totfact> 0.40621623E+03</totfact>
</mgrwt>
</event>
<event>
 4    1  0.1351183E-004  0.4581895E+03  0.7818608E-02  0.1025308E+00
          2   -1    0    0  501    0  0.00000000000E+00  0.00000000000E+00  0.11320961629E+04  0.11320961629E+04  0.25500000000E-02 0.  1.
         -2   -1    0    0    0  501 -0.00000000000E+00 -0.00000000000E+00 -0.46360373898E+02  0.46360373968E+02  0.25500000000E-02 0. -1.
    5000001    1    1    2    0    0  0.16084331851E+03  0.42450477728E+02  0.30320655611E+03  0.36842344094E+03  0.12700000000E+03 0.  0.
   -5000001    1    1    2    0    0 -0.16084331851E+03 -0.42450477728E+02  0.78252923289E+03  0.81003309593E+03  0.12700000000E+03 0.  0.
<mgrwt>
<rscale>  0 0.45818949E+03</rscale>
<asrwt>0</asrwt>
<pdfrwt beam="1">  1        2 0.16172806E+00 0.45818949E+03</pdfrwt>
<pdfrwt beam="2">  1       -2 0.66229092E-02 0.45818949E+03</pdfrwt>
<totfact> 0.31147829E+03</totfact>
</mgrwt>
</event>
<event>
 4    1  0.1351183E-004  0.4345594E+03  0.7818608E-02  0.1032429E+00
         -2   -1    0    0    0  501 -0.00000000000E+00  0.00000000000E+00  0.35631353647E+03  0.35631353648E+03  0.25500000000E-02 0. -1.
          2   -1    0    0  501    0  0.00000000000E+00 -0.00000000000E+00 -0.13249700770E+03  0.13249700772E+03  0.25500000000E-02 0.  1.
    5000001    1    1    2    0    0 -0.26410089134E+02  0.32204047765E+02 -0.80787589709E+02  0.15617371146E+03  0.12700000000E+03 0.  0.
   -5000001    1    1    2    0    0  0.26410089134E+02 -0.32204047765E+02  0.30460411848E+03  0.33263683274E+03  0.12700000000E+03 0.  0.
<mgrwt>
<rscale>  0 0.43455944E+03</rscale>
<asrwt>0</asrwt>
<pdfrwt beam="1">  1        2 0.18928144E-01 0.43455944E+03</pdfrwt>
<pdfrwt beam="2">  1       -2 0.50901934E-01 0.43455944E+03</pdfrwt>
<totfact> 0.11060215E+03</totfact>
</mgrwt>
</event>
<event>
 4    1  0.1351183E-004  0.4342161E+03  0.7818608E-02  0.1032536E+00
          2   -1    0    0  501    0  0.00000000000E+00  0.00000000000E+00  0.18334899935E+03  0.18334899936E+03  0.25500000000E-02 0.  1.
         -2   -1    0    0    0  501 -0.00000000000E+00 -0.00000000000E+00 -0.25708291757E+03  0.25708291758E+03  0.25500000000E-02 0. -1.
    5000001    1    1    2    0    0 -0.10716672382E+03 -0.13971088820E+03 -0.35093584838E+02  0.21991907301E+03  0.12700000000E+03 0.  0.
   -5000001    1    1    2    0    0  0.10716672382E+03  0.13971088820E+03 -0.38640333381E+02  0.22051284393E+03  0.12700000000E+03 0.  0.
<mgrwt>
<rscale>  0 0.43421606E+03</rscale>
<asrwt>0</asrwt>
<pdfrwt beam="1">  1        2 0.26192714E-01 0.43421606E+03</pdfrwt>
<pdfrwt beam="2">  1       -2 0.36726131E-01 0.43421606E+03</pdfrwt>
<totfact> 0.14436806E+03</totfact>
</mgrwt>
</event>
<event>
 4    1  0.1351183E-004  0.3873832E+03  0.7818608E-02  0.1048238E+00
          2   -1    0    0  501    0  0.00000000000E+00  0.00000000000E+00  0.18389853468E+03  0.18389853470E+03  0.25500000000E-02 0.  1.
         -2   -1    0    0    0  501 -0.00000000000E+00 -0.00000000000E+00 -0.20400614767E+03  0.20400614768E+03  0.25500000000E-02 0. -1.
    5000001    1    1    2    0    0 -0.41321858600E+02  0.13299521068E+03  0.34640455956E+02  0.19163554799E+03  0.12700000000E+03 0.  0.
   -5000001    1    1    2    0    0  0.41321858600E+02 -0.13299521068E+03 -0.54748068942E+02  0.19626913439E+03  0.12700000000E+03 0.  0.
<mgrwt>
<rscale>  0 0.38738318E+03</rscale>
<asrwt>0</asrwt>
<pdfrwt beam="1">  1        2 0.26271220E-01 0.38738318E+03</pdfrwt>
<pdfrwt beam="2">  1       -2 0.29143735E-01 0.38738318E+03</pdfrwt>
<totfact> 0.22087690E+03</totfact>
</mgrwt>
</event>
<event>
 4    1  0.1351183E-004  0.4423189E+03  0.7818608E-02  0.1030038E+00
         -2   -1    0    0    0  501 -0.00000000000E+00  0.00000000000E+00  0.11933112350E+03  0.11933112353E+03  0.25500000000E-02 0. -1.
          2   -1    0    0  501    0  0.00000000000E+00 -0.00000000000E+00 -0.40988058543E+03  0.40988058544E+03  0.25500000000E-02 0.  1.
    5000001    1    1    2    0    0  0.19174554757E+02  0.17985451289E+03 -0.13546667094E+03  0.25922100280E+03  0.12700000000E+03 0.  0.
   -5000001    1    1    2    0    0 -0.19174554757E+02 -0.17985451289E+03 -0.15508279098E+03  0.26999070617E+03  0.12700000000E+03 0.  0.
<mgrwt>
<rscale>  0 0.44231894E+03</rscale>
<asrwt>0</asrwt>
<pdfrwt beam="1">  1        2 0.58554369E-01 0.44231894E+03</pdfrwt>
<pdfrwt beam="2">  1       -2 0.17047304E-01 0.44231894E+03</pdfrwt>
<totfact> 0.23466484E+03</totfact>
</mgrwt>
</event>
<event>
 4    1  0.1351183E-004  0.3132976E+03  0.7818608E-02  0.1078776E+00
         -2   -1    0    0    0  501 -0.00000000000E+00  0.00000000000E+00  0.59291378432E+01  0.59291383916E+01  0.25500000000E-02 0. -1.
          2   -1    0    0  501    0  0.00000000000E+00 -0.00000000000E+00 -0.41386871279E+04  0.41386871279E+04  0.25500000000E-02 0.  1.
    5000001    1    1    2    0    0  0.84594827668E+02 -0.30712412332E+02 -0.18333416819E+04  0.18399375696E+04  0.12700000000E+03 0.  0.
   -5000001    1    1    2    0    0 -0.84594827668E+02  0.30712412332E+02 -0.22994163082E+04  0.23046786968E+04  0.12700000000E+03 0.  0.
<mgrwt>
<rscale>  0 0.31329761E+03</rscale>
<asrwt>0</asrwt>
<pdfrwt beam="1">  1        2 0.59123917E+00 0.31329761E+03</pdfrwt>
<pdfrwt beam="2">  1       -2 0.84702238E-03 0.31329761E+03</pdfrwt>
<totfact> 0.15790370E+03</totfact>
</mgrwt>
</event>
<event>
 4    1  0.1351183E-004  0.4637973E+03  0.7818608E-02  0.1023686E+00
         -2   -1    0    0    0  501 -0.00000000000E+00  0.00000000000E+00  0.30661009956E+02  0.30661010062E+02  0.25500000000E-02 0. -1.
          2   -1    0    0  501    0  0.00000000000E+00 -0.00000000000E+00 -0.17539211844E+04  0.17539211844E+04  0.25500000000E-02 0.  1.
    5000001    1    1    2    0    0  0.18214768319E+03 -0.52505297692E+02 -0.10209019175E+04  0.10460900104E+04  0.12700000000E+03 0.  0.
   -5000001    1    1    2    0    0 -0.18214768319E+03  0.52505297692E+02 -0.70235825697E+03  0.73849218406E+03  0.12700000000E+03 0.  0.
<mgrwt>
<rscale>  0 0.46379735E+03</rscale>
<asrwt>0</asrwt>
<pdfrwt beam="1">  1        2 0.25056011E+00 0.46379735E+03</pdfrwt>
<pdfrwt beam="2">  1       -2 0.43801454E-02 0.46379735E+03</pdfrwt>
<totfact> 0.27822293E+03</totfact>
</mgrwt>
</event>
<event>
 4    1  0.1351183E-004  0.5483223E+03  0.7818608E-02  0.1001883E+00
         -2   -1    0    0    0  501 -0.00000000000E+00  0.00000000000E+00  0.58316236692E+03  0.58316236693E+03  0.25500000000E-02 0. -1.
          2   -1    0    0  501    0  0.00000000000E+00 -0.00000000000E+00 -0.12889093575E+03  0.12889093578E+03  0.25500000000E-02 0.  1.
    5000001    1    1    2    0    0 -0.19017501084E+02 -0.22947218996E+03  0.12641068333E+03  0.29176670848E+03  0.12700000000E+03 0.  0.
   -5000001    1    1    2    0    0  0.19017501084E+02  0.22947218996E+03  0.32786074784E+03  0.42028659423E+03  0.12700000000E+03 0.  0.
<mgrwt>
<rscale>  0 0.54832233E+03</rscale>
<asrwt>0</asrwt>
<pdfrwt beam="1">  1        2 0.18412991E-01 0.54832233E+03</pdfrwt>
<pdfrwt beam="2">  1       -2 0.83308911E-01 0.54832233E+03</pdfrwt>
<totfact> 0.39917097E+02</totfact>
</mgrwt>
</event>
<event>
 4    1  0.1351183E-004  0.2885653E+03  0.7818608E-02  0.1091101E+00
          2   -1    0    0  501    0  0.00000000000E+00  0.00000000000E+00  0.34523851226E+04  0.34523851226E+04  0.25500000000E-02 0.  1.
         -2   -1    0    0    0  501 -0.00000000000E+00 -0.00000000000E+00 -0.60298850555E+01  0.60298855947E+01  0.25500000000E-02 0. -1.
    5000001    1    1    2    0    0  0.67665706915E+02 -0.71540326476E+01  0.18149681239E+04  0.18206779284E+04  0.12700000000E+03 0.  0.
   -5000001    1    1    2    0    0 -0.67665706915E+02  0.71540326476E+01  0.16313871136E+04  0.16377370798E+04  0.12700000000E+03 0.  0.
<mgrwt>
<rscale>  0 0.28856532E+03</rscale>
<asrwt>0</asrwt>
<pdfrwt beam="1">  1        2 0.49319778E+00 0.28856532E+03</pdfrwt>
<pdfrwt beam="2">  1       -2 0.86141235E-03 0.28856532E+03</pdfrwt>
<totfact> 0.41369370E+03</totfact>
</mgrwt>
</event>
<event>
 4    1  0.1351183E-004  0.4039141E+03  0.7818608E-02  0.1042433E+00
          2   -1    0    0  501    0  0.00000000000E+00  0.00000000000E+00  0.18832500214E+03  0.18832500216E+03  0.25500000000E-02 0.  1.
         -2   -1    0    0    0  501 -0.00000000000E+00 -0.00000000000E+00 -0.21657587737E+03  0.21657587739E+03  0.25500000000E-02 0. -1.
    5000001    1    1    2    0    0 -0.13306278721E+03 -0.83004355550E+02 -0.22032940223E+02  0.20300216461E+03  0.12700000000E+03 0.  0.
   -5000001    1    1    2    0    0  0.13306278721E+03  0.83004355550E+02 -0.62179350078E+01  0.20189871494E+03  0.12700000000E+03 0.  0.
<mgrwt>
<rscale>  0 0.40391411E+03</rscale>
<asrwt>0</asrwt>
<pdfrwt beam="1">  1        2 0.26903572E-01 0.40391411E+03</pdfrwt>
<pdfrwt beam="2">  1       -2 0.30939411E-01 0.40391411E+03</pdfrwt>
<totfact> 0.19287120E+03</totfact>
</mgrwt>
</event>
<event>
 4    1  0.1351183E-004  0.3626752E+03  0.7818608E-02  0.1057530E+00
         -2   -1    0    0    0  501 -0.00000000000E+00  0.00000000000E+00  0.42332197470E+02  0.42332197547E+02  0.25500000000E-02 0. -1.
          2   -1    0    0  501    0  0.00000000000E+00 -0.00000000000E+00 -0.77679248034E+03  0.77679248035E+03  0.25500000000E-02 0.  1.
    5000001    1    1    2    0    0  0.36129879789E+02  0.11800291450E+03 -0.45540890426E+03  0.48862698055E+03  0.12700000000E+03 0.  0.
   -5000001    1    1    2    0    0 -0.36129879789E+02 -0.11800291450E+03 -0.27905137861E+03  0.33049769734E+03  0.12700000000E+03 0.  0.
<mgrwt>
<rscale>  0 0.36267524E+03</rscale>
<asrwt>0</asrwt>
<pdfrwt beam="1">  1        2 0.11097035E+00 0.36267524E+03</pdfrwt>
<pdfrwt beam="2">  1       -2 0.60474573E-02 0.36267524E+03</pdfrwt>
<totfact> 0.59441442E+03</totfact>
</mgrwt>
</event>
<event>
 4    1  0.1351183E-004  0.5135410E+03  0.7818608E-02  0.1010304E+00
         -2   -1    0    0    0  501 -0.00000000000E+00  0.00000000000E+00  0.41908563627E+02  0.41908563705E+02  0.25500000000E-02 0. -1.
          2   -1    0    0  501    0  0.00000000000E+00 -0.00000000000E+00 -0.15732129655E+04  0.15732129655E+04  0.25500000000E-02 0.  1.
    5000001    1    1    2    0    0  0.37931396065E+02 -0.21362918595E+03 -0.92985596126E+03  0.96324313057E+03  0.12700000000E+03 0.  0.
   -5000001    1    1    2    0    0 -0.37931396065E+02  0.21362918595E+03 -0.60144844060E+03  0.65187839862E+03  0.12700000000E+03 0.  0.
<mgrwt>
<rscale>  0 0.51354102E+03</rscale>
<asrwt>0</asrwt>
<pdfrwt beam="1">  1        2 0.22474467E+00 0.51354102E+03</pdfrwt>
<pdfrwt beam="2">  1       -2 0.59869386E-02 0.51354102E+03</pdfrwt>
<totfact> 0.21165208E+03</totfact>
</mgrwt>
</event>
<event>
 4    1  0.1351183E-004  0.4347206E+03  0.7818608E-02  0.1032379E+00
         -2   -1    0    0    0  501 -0.00000000000E+00  0.00000000000E+00  0.25048165319E+02  0.25048165449E+02  0.25500000000E-02 0. -1.
          2   -1    0    0  501    0  0.00000000000E+00 -0.00000000000E+00 -0.18861860232E+04  0.18861860232E+04  0.25500000000E-02 0.  1.
    5000001    1    1    2    0    0  0.90358835878E+02  0.34271644170E+02 -0.15793602817E+04  0.15874026472E+04  0.12700000000E+03 0.  0.
   -5000001    1    1    2    0    0 -0.90358835878E+02 -0.34271644170E+02 -0.28177757609E+03  0.32383154140E+03  0.12700000000E+03 0.  0.
<mgrwt>
<rscale>  0 0.43472060E+03</rscale>
<asrwt>0</asrwt>
<pdfrwt beam="1">  1        2 0.26945506E+00 0.43472060E+03</pdfrwt>
<pdfrwt beam="2">  1       -2 0.35783105E-02 0.43472060E+03</pdfrwt>
<totfact> 0.32549287E+03</totfact>
</mgrwt>
</event>
<event>
 4    1  0.1351183E-004  0.2810912E+03  0.7818608E-02  0.1095094E+00
         -2   -1    0    0    0  501 -0.00000000000E+00  0.00000000000E+00  0.34016916065E+03  0.34016916066E+03  0.25500000000E-02 0. -1.
          2   -1    0    0  501    0  0.00000000000E+00 -0.00000000000E+00 -0.58068371410E+02  0.58068371466E+02  0.25500000000E-02 0.  1.
    5000001    1    1    2    0    0 -0.44519652504E+02 -0.35179959696E+02  0.16954233538E+03  0.21930169290E+03  0.12700000000E+03 0.  0.
   -5000001    1    1    2    0    0  0.44519652504E+02  0.35179959696E+02  0.11255845386E+03  0.17893583923E+03  0.12700000000E+03 0.  0.
<mgrwt>
<rscale>  0 0.28109122E+03</rscale>
<asrwt>0</asrwt>
<pdfrwt beam="1">  1        2 0.82954815E-02 0.28109122E+03</pdfrwt>
<pdfrwt beam="2">  1       -2 0.48595595E-01 0.28109122E+03</pdfrwt>
<totfact> 0.32918336E+03</totfact>
</mgrwt>
</event>
<event>
 4    1  0.1351183E-004  0.3807660E+03  0.7818608E-02  0.1050651E+00
          2   -1    0    0  501    0  0.00000000000E+00  0.00000000000E+00  0.13741126125E+04  0.13741126125E+04  0.25500000000E-02 0.  1.
         -2   -1    0    0    0  501 -0.00000000000E+00 -0.00000000000E+00 -0.26377519104E+02  0.26377519227E+02  0.25500000000E-02 0. -1.
    5000001    1    1    2    0    0  0.13832985717E+03 -0.30991420177E+02  0.69074842638E+03  0.71649005998E+03  0.12700000000E+03 0.  0.
   -5000001    1    1    2    0    0 -0.13832985717E+03  0.30991420177E+02  0.65698666702E+03  0.68400007175E+03  0.12700000000E+03 0.  0.
<mgrwt>
<rscale>  0 0.38076597E+03</rscale>
<asrwt>0</asrwt>
<pdfrwt beam="1">  1        2 0.19630187E+00 0.38076597E+03</pdfrwt>
<pdfrwt beam="2">  1       -2 0.37682157E-02 0.38076597E+03</pdfrwt>
<totfact> 0.54695457E+03</totfact>
</mgrwt>
</event>
<event>
 4    1  0.1351183E-004  0.3586862E+03  0.7818608E-02  0.1059105E+00
         -2   -1    0    0    0  501 -0.00000000000E+00  0.00000000000E+00  0.28458519013E+03  0.28458519015E+03  0.25500000000E-02 0. -1.
          2   -1    0    0  501    0  0.00000000000E+00 -0.00000000000E+00 -0.11302047612E+03  0.11302047615E+03  0.25500000000E-02 0.  1.
    5000001    1    1    2    0    0  0.11987687678E+03 -0.32465750285E+02  0.11317081535E+03  0.21062080613E+03  0.12700000000E+03 0.  0.
   -5000001    1    1    2    0    0 -0.11987687678E+03  0.32465750285E+02  0.58393898664E+02  0.18698486016E+03  0.12700000000E+03 0.  0.
<mgrwt>
<rscale>  0 0.35868623E+03</rscale>
<asrwt>0</asrwt>
<pdfrwt beam="1">  1        2 0.16145782E-01 0.35868623E+03</pdfrwt>
<pdfrwt beam="2">  1       -2 0.40655028E-01 0.35868623E+03</pdfrwt>
<totfact> 0.20731007E+03</totfact>
</mgrwt>
</event>
<event>
 4    1  0.1351183E-004  0.4836980E+03  0.7818608E-02  0.1018124E+00
          2   -1    0    0  501    0  0.00000000000E+00  0.00000000000E+00  0.26508928295E+03  0.26508928296E+03  0.25500000000E-02 0.  1.
         -2   -1    0    0    0  501 -0.00000000000E+00 -0.00000000000E+00 -0.22064617381E+03  0.22064617383E+03  0.25500000000E-02 0. -1.
    5000001    1    1    2    0    0 -0.99636649584E+02  0.16186673386E+03  0.10150749717E+03  0.25012211708E+03  0.12700000000E+03 0.  0.
   -5000001    1    1    2    0    0  0.99636649584E+02 -0.16186673386E+03 -0.57064388033E+02  0.23561333971E+03  0.12700000000E+03 0.  0.
<mgrwt>
<rscale>  0 0.48369799E+03</rscale>
<asrwt>0</asrwt>
<pdfrwt beam="1">  1        2 0.37869898E-01 0.48369799E+03</pdfrwt>
<pdfrwt beam="2">  1       -2 0.31520882E-01 0.48369799E+03</pdfrwt>
<totfact> 0.12769375E+03</totfact>
</mgrwt>
</event>
<event>
 4    1  0.1351183E-004  0.4162811E+03  0.7818608E-02  0.1038284E+00
         -2   -1    0    0    0  501 -0.00000000000E+00  0.00000000000E+00  0.41928283779E+02  0.41928283857E+02  0.25500000000E-02 0. -1.
          2   -1    0    0  501    0  0.00000000000E+00 -0.00000000000E+00 -0.10332522824E+04  0.10332522824E+04  0.25500000000E-02 0.  1.
    5000001    1    1    2    0    0 -0.15674820411E+03  0.12183402105E+02 -0.62415739373E+03  0.65606393509E+03  0.12700000000E+03 0.  0.
   -5000001    1    1    2    0    0  0.15674820411E+03 -0.12183402105E+02 -0.36716660491E+03  0.41911663119E+03  0.12700000000E+03 0.  0.
<mgrwt>
<rscale>  0 0.41628113E+03</rscale>
<asrwt>0</asrwt>
<pdfrwt beam="1">  1        2 0.14760745E+00 0.41628113E+03</pdfrwt>
<pdfrwt beam="2">  1       -2 0.59897555E-02 0.41628113E+03</pdfrwt>
<totfact> 0.41537008E+03</totfact>
</mgrwt>
</event>
<event>
 4    1  0.1351183E-004  0.3327176E+03  0.7818608E-02  0.1069941E+00
          2   -1    0    0  501    0  0.00000000000E+00  0.00000000000E+00  0.20685725935E+04  0.20685725935E+04  0.25500000000E-02 0.  1.
         -2   -1    0    0    0  501 -0.00000000000E+00 -0.00000000000E+00 -0.13378912823E+02  0.13378913066E+02  0.25500000000E-02 0. -1.
    5000001    1    1    2    0    0 -0.10551885556E+03  0.90568415543E+01  0.91392573812E+03  0.92876558402E+03  0.12700000000E+03 0.  0.
   -5000001    1    1    2    0    0  0.10551885556E+03 -0.90568415543E+01  0.11412679426E+04  0.11531859225E+04  0.12700000000E+03 0.  0.
<mgrwt>
<rscale>  0 0.33271761E+03</rscale>
<asrwt>0</asrwt>
<pdfrwt beam="1">  1        2 0.29551029E+00 0.33271761E+03</pdfrwt>
<pdfrwt beam="2">  1       -2 0.19112738E-02 0.33271761E+03</pdfrwt>
<totfact> 0.67684553E+03</totfact>
</mgrwt>
</event>
<event>
 4    1  0.1351183E-004  0.4252930E+03  0.7818608E-02  0.1035357E+00
         -2   -1    0    0    0  501 -0.00000000000E+00  0.00000000000E+00  0.10960749348E+03  0.10960749351E+03  0.25500000000E-02 0. -1.
          2   -1    0    0  501    0  0.00000000000E+00 -0.00000000000E+00 -0.41254959688E+03  0.41254959689E+03  0.25500000000E-02 0.  1.
    5000001    1    1    2    0    0  0.14147538522E+03 -0.95252112368E+02 -0.15285886772E+03  0.26188372033E+03  0.12700000000E+03 0.  0.
   -5000001    1    1    2    0    0 -0.14147538522E+03  0.95252112368E+02 -0.15008323568E+03  0.26027337007E+03  0.12700000000E+03 0.  0.
<mgrwt>
<rscale>  0 0.42529297E+03</rscale>
<asrwt>0</asrwt>
<pdfrwt beam="1">  1        2 0.58935656E-01 0.42529297E+03</pdfrwt>
<pdfrwt beam="2">  1       -2 0.15658214E-01 0.42529297E+03</pdfrwt>
<totfact> 0.26878072E+03</totfact>
</mgrwt>
</event>
<event>
 4    1  0.1351183E-004  0.3227918E+03  0.7818608E-02  0.1074372E+00
          2   -1    0    0  501    0  0.00000000000E+00  0.00000000000E+00  0.39858891313E+03  0.39858891314E+03  0.25500000000E-02 0.  1.
         -2   -1    0    0    0  501 -0.00000000000E+00 -0.00000000000E+00 -0.65352127613E+02  0.65352127663E+02  0.25500000000E-02 0. -1.
    5000001    1    1    2    0    0 -0.43541823781E+02  0.57833627430E+02  0.26493288178E+03  0.30258726134E+03  0.12700000000E+03 0.  0.
   -5000001    1    1    2    0    0  0.43541823781E+02 -0.57833627430E+02  0.68303903740E+02  0.16135377946E+03  0.12700000000E+03 0.  0.
<mgrwt>
<rscale>  0 0.32279178E+03</rscale>
<asrwt>0</asrwt>
<pdfrwt beam="1">  1        2 0.56941270E-01 0.32279178E+03</pdfrwt>
<pdfrwt beam="2">  1       -2 0.93360187E-02 0.32279178E+03</pdfrwt>
<totfact> 0.64432897E+03</totfact>
</mgrwt>
</event>
<event>
 4    1  0.1351183E-004  0.3780449E+03  0.7818608E-02  0.1051659E+00
         -2   -1    0    0    0  501 -0.00000000000E+00  0.00000000000E+00  0.10842750532E+03  0.10842750535E+03  0.25500000000E-02 0. -1.
          2   -1    0    0  501    0  0.00000000000E+00 -0.00000000000E+00 -0.32952414506E+03  0.32952414507E+03  0.25500000000E-02 0.  1.
    5000001    1    1    2    0    0  0.11489451232E+03  0.72692601584E+01 -0.18256480850E+02  0.17238297537E+03  0.12700000000E+03 0.  0.
   -5000001    1    1    2    0    0 -0.11489451232E+03 -0.72692601584E+01 -0.20284015889E+03  0.26556867505E+03  0.12700000000E+03 0.  0.
<mgrwt>
<rscale>  0 0.37804487E+03</rscale>
<asrwt>0</asrwt>
<pdfrwt beam="1">  1        2 0.47074877E-01 0.37804487E+03</pdfrwt>
<pdfrwt beam="2">  1       -2 0.15489644E-01 0.37804487E+03</pdfrwt>
<totfact> 0.34922860E+03</totfact>
</mgrwt>
</event>
<event>
 4    1  0.1351183E-004  0.3805815E+03  0.7818608E-02  0.1050719E+00
         -2   -1    0    0    0  501 -0.00000000000E+00  0.00000000000E+00  0.22409867331E+02  0.22409867476E+02  0.25500000000E-02 0. -1.
          2   -1    0    0  501    0  0.00000000000E+00 -0.00000000000E+00 -0.16158315717E+04  0.16158315717E+04  0.25500000000E-02 0.  1.
    5000001    1    1    2    0    0  0.13176031146E+03  0.11705998921E+02 -0.57790627233E+03  0.60630229233E+03  0.12700000000E+03 0.  0.
   -5000001    1    1    2    0    0 -0.13176031146E+03 -0.11705998921E+02 -0.10155154320E+04  0.10319391468E+04  0.12700000000E+03 0.  0.
<mgrwt>
<rscale>  0 0.38058151E+03</rscale>
<asrwt>0</asrwt>
<pdfrwt beam="1">  1        2 0.23083301E+00 0.38058151E+03</pdfrwt>
<pdfrwt beam="2">  1       -2 0.32014106E-02 0.38058151E+03</pdfrwt>
<totfact> 0.52583625E+03</totfact>
</mgrwt>
</event>
<event>
 4    1  0.1351183E-004  0.5355918E+03  0.7818608E-02  0.1004885E+00
          2   -1    0    0  501    0  0.00000000000E+00  0.00000000000E+00  0.91457602535E+03  0.91457602535E+03  0.25500000000E-02 0.  1.
         -2   -1    0    0    0  501 -0.00000000000E+00 -0.00000000000E+00 -0.78412987955E+02  0.78412987996E+02  0.25500000000E-02 0. -1.
    5000001    1    1    2    0    0 -0.79045500386E+02  0.22006722364E+03  0.36221891993E+03  0.44945446934E+03  0.12700000000E+03 0.  0.
   -5000001    1    1    2    0    0  0.79045500386E+02 -0.22006722364E+03  0.47394411746E+03  0.54353454401E+03  0.12700000000E+03 0.  0.
<mgrwt>
<rscale>  0 0.53559178E+03</rscale>
<asrwt>0</asrwt>
<pdfrwt beam="1">  1        2 0.13065372E+00 0.53559178E+03</pdfrwt>
<pdfrwt beam="2">  1       -2 0.11201855E-01 0.53559178E+03</pdfrwt>
<totfact> 0.18172633E+03</totfact>
</mgrwt>
</event>
<event>
 4    1  0.1351183E-004  0.3189023E+03  0.7818608E-02  0.1076156E+00
          2   -1    0    0  501    0  0.00000000000E+00  0.00000000000E+00  0.22911851003E+04  0.22911851003E+04  0.25500000000E-02 0.  1.
         -2   -1    0    0    0  501 -0.00000000000E+00 -0.00000000000E+00 -0.11096731100E+02  0.11096731393E+02  0.25500000000E-02 0. -1.
    5000001    1    1    2    0    0  0.26744719376E+02 -0.92628064423E+02  0.11353268547E+04  0.11464690599E+04  0.12700000000E+03 0.  0.
   -5000001    1    1    2    0    0 -0.26744719376E+02  0.92628064423E+02  0.11447615145E+04  0.11558127718E+04  0.12700000000E+03 0.  0.
<mgrwt>
<rscale>  0 0.31890228E+03</rscale>
<asrwt>0</asrwt>
<pdfrwt beam="1">  1        2 0.32731282E+00 0.31890228E+03</pdfrwt>
<pdfrwt beam="2">  1       -2 0.15852441E-02 0.31890228E+03</pdfrwt>
<totfact> 0.69274639E+03</totfact>
</mgrwt>
</event>
<event>
 4    1  0.1351183E-004  0.5464147E+03  0.7818608E-02  0.1002327E+00
          2   -1    0    0  501    0  0.00000000000E+00  0.00000000000E+00  0.23836799072E+03  0.23836799073E+03  0.25500000000E-02 0.  1.
         -2   -1    0    0    0  501 -0.00000000000E+00 -0.00000000000E+00 -0.31313874589E+03  0.31313874590E+03  0.25500000000E-02 0. -1.
    5000001    1    1    2    0    0  0.14711116178E+03  0.17944000413E+03  0.31609861992E+02  0.26639931002E+03  0.12700000000E+03 0.  0.
   -5000001    1    1    2    0    0 -0.14711116178E+03 -0.17944000413E+03 -0.10638061717E+03  0.28510742662E+03  0.12700000000E+03 0.  0.
<mgrwt>
<rscale>  0 0.54641469E+03</rscale>
<asrwt>0</asrwt>
<pdfrwt beam="1">  1        2 0.34052570E-01 0.54641469E+03</pdfrwt>
<pdfrwt beam="2">  1       -2 0.44734106E-01 0.54641469E+03</pdfrwt>
<totfact> 0.73478955E+02</totfact>
</mgrwt>
</event>
<event>
 4    1  0.1351183E-004  0.6337561E+03  0.7818608E-02  0.9837746E-01
          2   -1    0    0  501    0  0.00000000000E+00  0.00000000000E+00  0.16090950125E+03  0.16090950127E+03  0.25500000000E-02 0.  1.
         -2   -1    0    0    0  501 -0.00000000000E+00 -0.00000000000E+00 -0.62402597772E+03  0.62402597772E+03  0.25500000000E-02 0. -1.
    5000001    1    1    2    0    0  0.85070987068E+02 -0.27299117898E+03 -0.29375061513E+03  0.42916160189E+03  0.12700000000E+03 0.  0.
   -5000001    1    1    2    0    0 -0.85070987068E+02  0.27299117898E+03 -0.16936586134E+03  0.35577387710E+03  0.12700000000E+03 0.  0.
<mgrwt>
<rscale>  0 0.63375613E+03</rscale>
<asrwt>0</asrwt>
<pdfrwt beam="1">  1        2 0.22987072E-01 0.63375613E+03</pdfrwt>
<pdfrwt beam="2">  1       -2 0.89146567E-01 0.63375613E+03</pdfrwt>
<totfact> 0.26365680E+02</totfact>
</mgrwt>
</event>
<event>
 4    1  0.1351183E-004  0.3374281E+03  0.7818608E-02  0.1067897E+00
          2   -1    0    0  501    0  0.00000000000E+00  0.00000000000E+00  0.86431946189E+03  0.86431946189E+03  0.25500000000E-02 0.  1.
         -2   -1    0    0    0  501 -0.00000000000E+00 -0.00000000000E+00 -0.32932769603E+02  0.32932769701E+02  0.25500000000E-02 0. -1.
    5000001    1    1    2    0    0  0.82741102885E+02 -0.72053945433E+02  0.46156345159E+03  0.49112898611E+03  0.12700000000E+03 0.  0.
   -5000001    1    1    2    0    0 -0.82741102885E+02  0.72053945433E+02  0.36982324070E+03  0.40612324548E+03  0.12700000000E+03 0.  0.
<mgrwt>
<rscale>  0 0.33742812E+03</rscale>
<asrwt>0</asrwt>
<pdfrwt beam="1">  1        2 0.12347419E+00 0.33742812E+03</pdfrwt>
<pdfrwt beam="2">  1       -2 0.47046820E-02 0.33742812E+03</pdfrwt>
<totfact> 0.76243683E+03</totfact>
</mgrwt>
</event>
<event>
 4    1  0.1351183E-004  0.3845101E+03  0.7818608E-02  0.1049279E+00
          2   -1    0    0  501    0  0.00000000000E+00  0.00000000000E+00  0.26958003979E+04  0.26958003979E+04  0.25500000000E-02 0.  1.
         -2   -1    0    0    0  501 -0.00000000000E+00 -0.00000000000E+00 -0.13710957755E+02  0.13710957992E+02  0.25500000000E-02 0. -1.
    5000001    1    1    2    0    0  0.11752497599E+03  0.82770687005E+02  0.14328946304E+04  0.14456760109E+04  0.12700000000E+03 0.  0.
   -5000001    1    1    2    0    0 -0.11752497599E+03 -0.82770687005E+02  0.12491948097E+04  0.12638353450E+04  0.12700000000E+03 0.  0.
<mgrwt>
<rscale>  0 0.38451011E+03</rscale>
<asrwt>0</asrwt>
<pdfrwt beam="1">  1        2 0.38511412E+00 0.38451011E+03</pdfrwt>
<pdfrwt beam="2">  1       -2 0.19587094E-02 0.38451011E+03</pdfrwt>
<totfact> 0.31629903E+03</totfact>
</mgrwt>
</event>
<event>
 4    1  0.1351183E-004  0.3497823E+03  0.7818608E-02  0.1062704E+00
          2   -1    0    0  501    0  0.00000000000E+00  0.00000000000E+00  0.91880124983E+03  0.91880124983E+03  0.25500000000E-02 0.  1.
         -2   -1    0    0    0  501 -0.00000000000E+00 -0.00000000000E+00 -0.33290021877E+02  0.33290021975E+02  0.25500000000E-02 0. -1.
    5000001    1    1    2    0    0 -0.10121410353E+03 -0.42640170137E+02  0.30953453566E+03  0.35214074974E+03  0.12700000000E+03 0.  0.
   -5000001    1    1    2    0    0  0.10121410353E+03  0.42640170137E+02  0.57597669229E+03  0.59995052206E+03  0.12700000000E+03 0.  0.
<mgrwt>
<rscale>  0 0.34978230E+03</rscale>
<asrwt>0</asrwt>
<pdfrwt beam="1">  1        2 0.13125733E+00 0.34978230E+03</pdfrwt>
<pdfrwt beam="2">  1       -2 0.47557171E-02 0.34978230E+03</pdfrwt>
<totfact> 0.69314994E+03</totfact>
</mgrwt>
</event>
<event>
 4    1  0.1351183E-004  0.6829511E+03  0.7818608E-02  0.9746841E-01
          2   -1    0    0  501    0  0.00000000000E+00  0.00000000000E+00  0.48209357395E+03  0.48209357396E+03  0.25500000000E-02 0.  1.
         -2   -1    0    0    0  501 -0.00000000000E+00 -0.00000000000E+00 -0.24187328969E+03  0.24187328970E+03  0.25500000000E-02 0. -1.
    5000001    1    1    2    0    0  0.24267631549E+03  0.23661107506E+02  0.33482046220E+03  0.43322671203E+03  0.12700000000E+03 0.  0.
   -5000001    1    1    2    0    0 -0.24267631549E+03 -0.23661107506E+02 -0.94600177936E+02  0.29074015163E+03  0.12700000000E+03 0.  0.
<mgrwt>
<rscale>  0 0.68295112E+03</rscale>
<asrwt>0</asrwt>
<pdfrwt beam="1">  1        2 0.68870509E-01 0.68295112E+03</pdfrwt>
<pdfrwt beam="2">  1       -2 0.34553328E-01 0.68295112E+03</pdfrwt>
<totfact> 0.55265810E+02</totfact>
</mgrwt>
</event>
<event>
 4    1  0.1351183E-004  0.3752886E+03  0.7818608E-02  0.1052689E+00
         -2   -1    0    0    0  501 -0.00000000000E+00  0.00000000000E+00  0.70590210226E+02  0.70590210272E+02  0.25500000000E-02 0. -1.
          2   -1    0    0  501    0  0.00000000000E+00 -0.00000000000E+00 -0.49879986404E+03  0.49879986405E+03  0.25500000000E-02 0.  1.
    5000001    1    1    2    0    0  0.12631832398E+03 -0.46667604848E+02 -0.16741029570E+03  0.24957842740E+03  0.12700000000E+03 0.  0.
   -5000001    1    1    2    0    0 -0.12631832398E+03  0.46667604848E+02 -0.26079935811E+03  0.31981164692E+03  0.12700000000E+03 0.  0.
<mgrwt>
<rscale>  0 0.37528862E+03</rscale>
<asrwt>0</asrwt>
<pdfrwt beam="1">  1        2 0.71257122E-01 0.37528862E+03</pdfrwt>
<pdfrwt beam="2">  1       -2 0.10084316E-01 0.37528862E+03</pdfrwt>
<totfact> 0.44683403E+03</totfact>
</mgrwt>
</event>
<event>
 4    1  0.1351183E-004  0.3173903E+03  0.7818608E-02  0.1076857E+00
         -2   -1    0    0    0  501 -0.00000000000E+00  0.00000000000E+00  0.39788833756E+03  0.39788833757E+03  0.25500000000E-02 0. -1.
          2   -1    0    0  501    0  0.00000000000E+00 -0.00000000000E+00 -0.63294530921E+02  0.63294530972E+02  0.25500000000E-02 0.  1.
    5000001    1    1    2    0    0  0.57838241878E+02  0.74667338846E+02  0.18415987949E+03  0.24282572954E+03  0.12700000000E+03 0.  0.
   -5000001    1    1    2    0    0 -0.57838241878E+02 -0.74667338846E+02  0.15043392715E+03  0.21835713900E+03  0.12700000000E+03 0.  0.
<mgrwt>
<rscale>  0 0.31739033E+03</rscale>
<asrwt>0</asrwt>
<pdfrwt beam="1">  1        2 0.90420755E-02 0.31739033E+03</pdfrwt>
<pdfrwt beam="2">  1       -2 0.56841193E-01 0.31739033E+03</pdfrwt>
<totfact> 0.21582937E+03</totfact>
</mgrwt>
</event>
<event>
 4    1  0.1351183E-004  0.3415073E+03  0.7818608E-02  0.1066156E+00
         -2   -1    0    0    0  501 -0.00000000000E+00  0.00000000000E+00  0.25994128732E+02  0.25994128857E+02  0.25500000000E-02 0. -1.
          2   -1    0    0  501    0  0.00000000000E+00 -0.00000000000E+00 -0.11216688784E+04  0.11216688784E+04  0.25500000000E-02 0.  1.
    5000001    1    1    2    0    0  0.68926109477E+02 -0.90311692739E+02 -0.51090232545E+03  0.53856958377E+03  0.12700000000E+03 0.  0.
   -5000001    1    1    2    0    0 -0.68926109477E+02  0.90311692739E+02 -0.58477242423E+03  0.60909342350E+03  0.12700000000E+03 0.  0.
<mgrwt>
<rscale>  0 0.34150728E+03</rscale>
<asrwt>0</asrwt>
<pdfrwt beam="1">  1        2 0.16023838E+00 0.34150728E+03</pdfrwt>
<pdfrwt beam="2">  1       -2 0.37134477E-02 0.34150728E+03</pdfrwt>
<totfact> 0.76502303E+03</totfact>
</mgrwt>
</event>
<event>
 4    1  0.1351183E-004  0.3178833E+03  0.7818608E-02  0.1076628E+00
          2   -1    0    0  501    0  0.00000000000E+00  0.00000000000E+00  0.48009098796E+03  0.48009098797E+03  0.25500000000E-02 0.  1.
         -2   -1    0    0    0  501 -0.00000000000E+00 -0.00000000000E+00 -0.52620127675E+02  0.52620127737E+02  0.25500000000E-02 0. -1.
    5000001    1    1    2    0    0  0.15960866103E+02 -0.81084123509E+02  0.29417530369E+03  0.33090405502E+03  0.12700000000E+03 0.  0.
   -5000001    1    1    2    0    0 -0.15960866103E+02  0.81084123509E+02  0.13329555660E+03  0.20180706069E+03  0.12700000000E+03 0.  0.
<mgrwt>
<rscale>  0 0.31788331E+03</rscale>
<asrwt>0</asrwt>
<pdfrwt beam="1">  1        2 0.68584430E-01 0.31788331E+03</pdfrwt>
<pdfrwt beam="2">  1       -2 0.75171608E-02 0.31788331E+03</pdfrwt>
<totfact> 0.73875788E+03</totfact>
</mgrwt>
</event>
<event>
 4    1  0.1351183E-004  0.3699153E+03  0.7818608E-02  0.1054725E+00
          2   -1    0    0  501    0  0.00000000000E+00  0.00000000000E+00  0.15727591043E+02  0.15727591250E+02  0.25500000000E-02 0.  1.
         -2   -1    0    0    0  501 -0.00000000000E+00 -0.00000000000E+00 -0.21751153488E+04  0.21751153488E+04  0.25500000000E-02 0. -1.
    5000001    1    1    2    0    0 -0.12190035192E+03 -0.29461422633E+02 -0.79242538451E+03  0.81227745336E+03  0.12700000000E+03 0.  0.
   -5000001    1    1    2    0    0  0.12190035192E+03  0.29461422633E+02 -0.13669623733E+04  0.13785654867E+04  0.12700000000E+03 0.  0.
<mgrwt>
<rscale>  0 0.36991526E+03</rscale>
<asrwt>0</asrwt>
<pdfrwt beam="1">  1        2 0.22468001E-02 0.36991526E+03</pdfrwt>
<pdfrwt beam="2">  1       -2 0.31073057E+00 0.36991526E+03</pdfrwt>
<totfact> 0.14662458E+02</totfact>
</mgrwt>
</event>
<event>
 4    1  0.1351183E-004  0.4066939E+03  0.7818608E-02  0.1041486E+00
          2   -1    0    0  501    0  0.00000000000E+00  0.00000000000E+00  0.36946952831E+02  0.36946952919E+02  0.25500000000E-02 0.  1.
         -2   -1    0    0    0  501 -0.00000000000E+00 -0.00000000000E+00 -0.11191716529E+04  0.11191716529E+04  0.25500000000E-02 0. -1.
    5000001    1    1    2    0    0  0.14343368715E+03 -0.67325661117E+02 -0.57159916827E+03  0.60659754073E+03  0.12700000000E+03 0.  0.
   -5000001    1    1    2    0    0 -0.14343368715E+03  0.67325661117E+02 -0.51062553179E+03  0.54952106508E+03  0.12700000000E+03 0.  0.
<mgrwt>
<rscale>  0 0.40669390E+03</rscale>
<asrwt>0</asrwt>
<pdfrwt beam="1">  1        2 0.52781368E-02 0.40669390E+03</pdfrwt>
<pdfrwt beam="2">  1       -2 0.15988164E+00 0.40669390E+03</pdfrwt>
<totfact> 0.39410029E+02</totfact>
</mgrwt>
</event>
<event>
 4    1  0.1351183E-004  0.5596887E+03  0.7818608E-02  0.9992759E-01
          2   -1    0    0  501    0  0.00000000000E+00  0.00000000000E+00  0.87309593916E+03  0.87309593916E+03  0.25500000000E-02 0.  1.
         -2   -1    0    0    0  501 -0.00000000000E+00 -0.00000000000E+00 -0.89695582196E+02  0.89695582232E+02  0.25500000000E-02 0. -1.
    5000001    1    1    2    0    0  0.21755347677E+03 -0.95685237000E+02  0.26184105786E+03  0.37573251046E+03  0.12700000000E+03 0.  0.
   -5000001    1    1    2    0    0 -0.21755347677E+03  0.95685237000E+02  0.52155929911E+03  0.58705901093E+03  0.12700000000E+03 0.  0.
<mgrwt>
<rscale>  0 0.55968866E+03</rscale>
<asrwt>0</asrwt>
<pdfrwt beam="1">  1        2 0.12472799E+00 0.55968866E+03</pdfrwt>
<pdfrwt beam="2">  1       -2 0.12813654E-01 0.55968866E+03</pdfrwt>
<totfact> 0.15495808E+03</totfact>
</mgrwt>
</event>
<event>
 4    1  0.1351183E-004  0.3301693E+03  0.7818608E-02  0.1071062E+00
          2   -1    0    0  501    0  0.00000000000E+00  0.00000000000E+00  0.40908189321E+04  0.40908189321E+04  0.25500000000E-02 0.  1.
         -2   -1    0    0    0  501 -0.00000000000E+00 -0.00000000000E+00 -0.66619787581E+01  0.66619792461E+01  0.25500000000E-02 0. -1.
    5000001    1    1    2    0    0  0.10152017227E+03  0.17125287633E+02  0.17579059331E+04  0.17654919684E+04  0.12700000000E+03 0.  0.
   -5000001    1    1    2    0    0 -0.10152017227E+03 -0.17125287633E+02  0.23262510203E+04  0.23319889430E+04  0.12700000000E+03 0.  0.
<mgrwt>
<rscale>  0 0.33016935E+03</rscale>
<asrwt>0</asrwt>
<pdfrwt beam="1">  1        2 0.58440229E+00 0.33016935E+03</pdfrwt>
<pdfrwt beam="2">  1       -2 0.95171196E-03 0.33016935E+03</pdfrwt>
<totfact> 0.14313621E+03</totfact>
</mgrwt>
</event>
<event>
 4    1  0.1351183E-004  0.3081010E+03  0.7818608E-02  0.1081260E+00
          2   -1    0    0  501    0  0.00000000000E+00  0.00000000000E+00  0.71839902009E+02  0.71839902054E+02  0.25500000000E-02 0.  1.
         -2   -1    0    0    0  501 -0.00000000000E+00 -0.00000000000E+00 -0.33033952327E+03  0.33033952328E+03  0.25500000000E-02 0. -1.
    5000001    1    1    2    0    0  0.84899056364E+02  0.99586635130E+01 -0.10680940916E+03  0.18666621182E+03  0.12700000000E+03 0.  0.
   -5000001    1    1    2    0    0 -0.84899056364E+02 -0.99586635130E+01 -0.15169021210E+03  0.21551321351E+03  0.12700000000E+03 0.  0.
<mgrwt>
<rscale>  0 0.30810102E+03</rscale>
<asrwt>0</asrwt>
<pdfrwt beam="1">  1        2 0.10262843E-01 0.30810102E+03</pdfrwt>
<pdfrwt beam="2">  1       -2 0.47191360E-01 0.30810102E+03</pdfrwt>
<totfact> 0.26775555E+03</totfact>
</mgrwt>
</event>
<event>
 4    1  0.1351183E-004  0.3924405E+03  0.7818608E-02  0.1046429E+00
         -2   -1    0    0    0  501 -0.00000000000E+00  0.00000000000E+00  0.74032006324E+02  0.74032006368E+02  0.25500000000E-02 0. -1.
          2   -1    0    0  501    0  0.00000000000E+00 -0.00000000000E+00 -0.52007761508E+03  0.52007761508E+03  0.25500000000E-02 0.  1.
    5000001    1    1    2    0    0 -0.13576380856E+03 -0.12609997915E+02 -0.31613058624E+03  0.36695826918E+03  0.12700000000E+03 0.  0.
   -5000001    1    1    2    0    0  0.13576380856E+03  0.12609997915E+02 -0.12991502251E+03  0.22715135227E+03  0.12700000000E+03 0.  0.
<mgrwt>
<rscale>  0 0.39244051E+03</rscale>
<asrwt>0</asrwt>
<pdfrwt beam="1">  1        2 0.74296800E-01 0.39244051E+03</pdfrwt>
<pdfrwt beam="2">  1       -2 0.10576001E-01 0.39244051E+03</pdfrwt>
<totfact> 0.39530222E+03</totfact>
</mgrwt>
</event>
<event>
 4    1  0.1351183E-004  0.3857174E+03  0.7818608E-02  0.1048841E+00
         -2   -1    0    0    0  501 -0.00000000000E+00  0.00000000000E+00  0.65574934518E+03  0.65574934518E+03  0.25500000000E-02 0. -1.
          2   -1    0    0  501    0  0.00000000000E+00 -0.00000000000E+00 -0.56720579818E+02  0.56720579875E+02  0.25500000000E-02 0.  1.
    5000001    1    1    2    0    0  0.19729162879E+02  0.11831641909E+03  0.45045398150E+03  0.48314159865E+03  0.12700000000E+03 0.  0.
   -5000001    1    1    2    0    0 -0.19729162879E+02 -0.11831641909E+03  0.14857478386E+03  0.22932832641E+03  0.12700000000E+03 0.  0.
<mgrwt>
<rscale>  0 0.38571743E+03</rscale>
<asrwt>0</asrwt>
<pdfrwt beam="1">  1        2 0.81029395E-02 0.38571743E+03</pdfrwt>
<pdfrwt beam="2">  1       -2 0.93678484E-01 0.38571743E+03</pdfrwt>
<totfact> 0.84058054E+02</totfact>
</mgrwt>
</event>
<event>
 4    1  0.1351183E-004  0.7189704E+03  0.7818608E-02  0.9685329E-01
         -2   -1    0    0    0  501 -0.00000000000E+00  0.00000000000E+00  0.33641401705E+03  0.33641401706E+03  0.25500000000E-02 0. -1.
          2   -1    0    0  501    0  0.00000000000E+00 -0.00000000000E+00 -0.38413859506E+03  0.38413859507E+03  0.25500000000E-02 0.  1.
    5000001    1    1    2    0    0 -0.25969902292E+03  0.18869807064E+03  0.76608333017E+02  0.35362180512E+03  0.12700000000E+03 0.  0.
   -5000001    1    1    2    0    0  0.25969902292E+03 -0.18869807064E+03 -0.12433291103E+03  0.36693080701E+03  0.12700000000E+03 0.  0.
<mgrwt>
<rscale>  0 0.71897040E+03</rscale>
<asrwt>0</asrwt>
<pdfrwt beam="1">  1        2 0.54876942E-01 0.71897040E+03</pdfrwt>
<pdfrwt beam="2">  1       -2 0.48059145E-01 0.71897040E+03</pdfrwt>
<totfact> 0.37406445E+02</totfact>
</mgrwt>
</event>
<event>
 4    1  0.1351183E-004  0.4382630E+03  0.7818608E-02  0.1031281E+00
          2   -1    0    0  501    0  0.00000000000E+00  0.00000000000E+00  0.30768232047E+03  0.30768232048E+03  0.25500000000E-02 0.  1.
         -2   -1    0    0    0  501 -0.00000000000E+00 -0.00000000000E+00 -0.15606559719E+03  0.15606559721E+03  0.25500000000E-02 0. -1.
    5000001    1    1    2    0    0  0.65024682956E+02 -0.10973530511E+03  0.20805412619E+03  0.27511009797E+03  0.12700000000E+03 0.  0.
   -5000001    1    1    2    0    0 -0.65024682956E+02  0.10973530511E+03 -0.56437402906E+02  0.18863781972E+03  0.12700000000E+03 0.  0.
<mgrwt>
<rscale>  0 0.43826305E+03</rscale>
<asrwt>0</asrwt>
<pdfrwt beam="1">  1        2 0.43954616E-01 0.43826305E+03</pdfrwt>
<pdfrwt beam="2">  1       -2 0.22295086E-01 0.43826305E+03</pdfrwt>
<totfact> 0.20227612E+03</totfact>
</mgrwt>
</event>
<event>
 4    1  0.1351183E-004  0.3864697E+03  0.7818608E-02  0.1048568E+00
          2   -1    0    0  501    0  0.00000000000E+00  0.00000000000E+00  0.24742230336E+03  0.24742230337E+03  0.25500000000E-02 0.  1.
         -2   -1    0    0    0  501 -0.00000000000E+00 -0.00000000000E+00 -0.15091484641E+03  0.15091484643E+03  0.25500000000E-02 0. -1.
    5000001    1    1    2    0    0 -0.12644498174E+03 -0.39151467274E+02  0.11086042986E+03  0.21433666440E+03  0.12700000000E+03 0.  0.
   -5000001    1    1    2    0    0  0.12644498174E+03  0.39151467274E+02 -0.14352972914E+02  0.18400048540E+03  0.12700000000E+03 0.  0.
<mgrwt>
<rscale>  0 0.38646966E+03</rscale>
<asrwt>0</asrwt>
<pdfrwt beam="1">  1        2 0.35346043E-01 0.38646966E+03</pdfrwt>
<pdfrwt beam="2">  1       -2 0.21559264E-01 0.38646966E+03</pdfrwt>
<totfact> 0.27179211E+03</totfact>
</mgrwt>
</event>
<event>
 4    1  0.1351183E-004  0.3478584E+03  0.7818608E-02  0.1063497E+00
         -2   -1    0    0    0  501 -0.00000000000E+00  0.00000000000E+00  0.28192146657E+02  0.28192146772E+02  0.25500000000E-02 0. -1.
          2   -1    0    0  501    0  0.00000000000E+00 -0.00000000000E+00 -0.10730422762E+04  0.10730422762E+04  0.25500000000E-02 0.  1.
    5000001    1    1    2    0    0 -0.55911210745E+02  0.97000604255E+02 -0.39630301815E+03  0.43095273860E+03  0.12700000000E+03 0.  0.
   -5000001    1    1    2    0    0  0.55911210745E+02 -0.97000604255E+02 -0.64854711144E+03  0.67028168442E+03  0.12700000000E+03 0.  0.
<mgrwt>
<rscale>  0 0.34785839E+03</rscale>
<asrwt>0</asrwt>
<pdfrwt beam="1">  1        2 0.15329173E+00 0.34785839E+03</pdfrwt>
<pdfrwt beam="2">  1       -2 0.40274502E-02 0.34785839E+03</pdfrwt>
<totfact> 0.72149692E+03</totfact>
</mgrwt>
</event>
<event>
 4    1  0.1351183E-004  0.4457384E+03  0.7818608E-02  0.1029001E+00
         -2   -1    0    0    0  501 -0.00000000000E+00  0.00000000000E+00  0.15584902043E+03  0.15584902045E+03  0.25500000000E-02 0. -1.
          2   -1    0    0  501    0  0.00000000000E+00 -0.00000000000E+00 -0.31871019559E+03  0.31871019560E+03  0.25500000000E-02 0.  1.
    5000001    1    1    2    0    0 -0.74830141454E+02  0.16347992243E+03 -0.11856316998E+03  0.25002291972E+03  0.12700000000E+03 0.  0.
   -5000001    1    1    2    0    0  0.74830141454E+02 -0.16347992243E+03 -0.44298005175E+02  0.22453629633E+03  0.12700000000E+03 0.  0.
<mgrwt>
<rscale>  0 0.44573836E+03</rscale>
<asrwt>0</asrwt>
<pdfrwt beam="1">  1        2 0.45530028E-01 0.44573836E+03</pdfrwt>
<pdfrwt beam="2">  1       -2 0.22264146E-01 0.44573836E+03</pdfrwt>
<totfact> 0.19514617E+03</totfact>
</mgrwt>
</event>
<event>
 4    1  0.1351183E-004  0.3079799E+03  0.7818608E-02  0.1081318E+00
          2   -1    0    0  501    0  0.00000000000E+00  0.00000000000E+00  0.11194036464E+04  0.11194036464E+04  0.25500000000E-02 0.  1.
         -2   -1    0    0    0  501 -0.00000000000E+00 -0.00000000000E+00 -0.21183519266E+02  0.21183519420E+02  0.25500000000E-02 0. -1.
    5000001    1    1    2    0    0 -0.77586536276E+02  0.38002831485E+02  0.50853695500E+03  0.53122755992E+03  0.12700000000E+03 0.  0.
   -5000001    1    1    2    0    0  0.77586536276E+02 -0.38002831485E+02  0.58968317208E+03  0.60935960586E+03  0.12700000000E+03 0.  0.
<mgrwt>
<rscale>  0 0.30797993E+03</rscale>
<asrwt>0</asrwt>
<pdfrwt beam="1">  1        2 0.15991479E+00 0.30797993E+03</pdfrwt>
<pdfrwt beam="2">  1       -2 0.30262174E-02 0.30797993E+03</pdfrwt>
<totfact> 0.10405885E+04</totfact>
</mgrwt>
</event>
<event>
 4    1  0.1351183E-004  0.3791916E+03  0.7818608E-02  0.1051233E+00
          2   -1    0    0  501    0  0.00000000000E+00  0.00000000000E+00  0.35791188765E+03  0.35791188766E+03  0.25500000000E-02 0.  1.
         -2   -1    0    0    0  501 -0.00000000000E+00 -0.00000000000E+00 -0.10043410435E+03  0.10043410439E+03  0.25500000000E-02 0. -1.
    5000001    1    1    2    0    0 -0.11872609669E+03  0.61594612236E+02  0.18181062095E+03  0.25898626254E+03  0.12700000000E+03 0.  0.
   -5000001    1    1    2    0    0  0.11872609669E+03 -0.61594612236E+02  0.75667162348E+02  0.19935972951E+03  0.12700000000E+03 0.  0.
<mgrwt>
<rscale>  0 0.37919156E+03</rscale>
<asrwt>0</asrwt>
<pdfrwt beam="1">  1        2 0.51130271E-01 0.37919156E+03</pdfrwt>
<pdfrwt beam="2">  1       -2 0.14347729E-01 0.37919156E+03</pdfrwt>
<totfact> 0.36259356E+03</totfact>
</mgrwt>
</event>
<event>
 4    1  0.1351183E-004  0.4431671E+03  0.7818608E-02  0.1029779E+00
         -2   -1    0    0    0  501 -0.00000000000E+00  0.00000000000E+00  0.16649756735E+03  0.16649756737E+03  0.25500000000E-02 0. -1.
          2   -1    0    0  501    0  0.00000000000E+00 -0.00000000000E+00 -0.29489477194E+03  0.29489477196E+03  0.25500000000E-02 0.  1.
    5000001    1    1    2    0    0  0.11941468808E+03  0.13626044912E+03 -0.76669717809E+02  0.23416665722E+03  0.12700000000E+03 0.  0.
   -5000001    1    1    2    0    0 -0.11941468808E+03 -0.13626044912E+03 -0.51727486782E+02  0.22722568211E+03  0.12700000000E+03 0.  0.
<mgrwt>
<rscale>  0 0.44316707E+03</rscale>
<asrwt>0</asrwt>
<pdfrwt beam="1">  1        2 0.42127824E-01 0.44316707E+03</pdfrwt>
<pdfrwt beam="2">  1       -2 0.23785367E-01 0.44316707E+03</pdfrwt>
<totfact> 0.18906510E+03</totfact>
</mgrwt>
</event>
<event>
 4    1  0.1351183E-004  0.3919667E+03  0.7818608E-02  0.1046597E+00
         -2   -1    0    0    0  501 -0.00000000000E+00  0.00000000000E+00  0.50236054618E+03  0.50236054618E+03  0.25500000000E-02 0. -1.
          2   -1    0    0  501    0  0.00000000000E+00 -0.00000000000E+00 -0.76457992901E+02  0.76457992944E+02  0.25500000000E-02 0.  1.
    5000001    1    1    2    0    0  0.15225943513E+02  0.13281402139E+03  0.31100576694E+03  0.36155909711E+03  0.12700000000E+03 0.  0.
   -5000001    1    1    2    0    0 -0.15225943513E+02 -0.13281402139E+03  0.11489678633E+03  0.21725944201E+03  0.12700000000E+03 0.  0.
<mgrwt>
<rscale>  0 0.39196673E+03</rscale>
<asrwt>0</asrwt>
<pdfrwt beam="1">  1        2 0.10922570E-01 0.39196673E+03</pdfrwt>
<pdfrwt beam="2">  1       -2 0.71765796E-01 0.39196673E+03</pdfrwt>
<totfact> 0.10452560E+03</totfact>
</mgrwt>
</event>
<event>
 4    1  0.1351183E-004  0.2915011E+03  0.7818608E-02  0.1089568E+00
         -2   -1    0    0    0  501 -0.00000000000E+00  0.00000000000E+00  0.18322480729E+03  0.18322480731E+03  0.25500000000E-02 0. -1.
          2   -1    0    0  501    0  0.00000000000E+00 -0.00000000000E+00 -0.11594072078E+03  0.11594072081E+03  0.25500000000E-02 0.  1.
    5000001    1    1    2    0    0 -0.29043252470E+02 -0.50081621878E+02  0.76728474491E+02  0.15927315581E+03  0.12700000000E+03 0.  0.
   -5000001    1    1    2    0    0  0.29043252470E+02  0.50081621878E+02 -0.94443879821E+01  0.13989237230E+03  0.12700000000E+03 0.  0.
<mgrwt>
<rscale>  0 0.29150105E+03</rscale>
<asrwt>0</asrwt>
<pdfrwt beam="1">  1        2 0.16562960E-01 0.29150105E+03</pdfrwt>
<pdfrwt beam="2">  1       -2 0.26174973E-01 0.29150105E+03</pdfrwt>
<totfact> 0.45191369E+03</totfact>
</mgrwt>
</event>
<event>
 4    1  0.1351183E-004  0.8504928E+03  0.7818608E-02  0.9489676E-01
          2   -1    0    0  501    0  0.00000000000E+00  0.00000000000E+00  0.15360951121E+04  0.15360951121E+04  0.25500000000E-02 0.  1.
         -2   -1    0    0    0  501 -0.00000000000E+00 -0.00000000000E+00 -0.11772351373E+03  0.11772351376E+03  0.25500000000E-02 0. -1.
    5000001    1    1    2    0    0 -0.14284852463E+03 -0.24198161636E+03  0.12785902931E+04  0.13152501440E+04  0.12700000000E+03 0.  0.
   -5000001    1    1    2    0    0  0.14284852463E+03  0.24198161636E+03  0.13978130533E+03  0.33856848194E+03  0.12700000000E+03 0.  0.
<mgrwt>
<rscale>  0 0.85049283E+03</rscale>
<asrwt>0</asrwt>
<pdfrwt beam="1">  1        2 0.21944215E+00 0.85049283E+03</pdfrwt>
<pdfrwt beam="2">  1       -2 0.16817646E-01 0.85049283E+03</pdfrwt>
<totfact> 0.40532375E+02</totfact>
</mgrwt>
</event>
<event>
 4    1  0.1351183E-004  0.9003983E+03  0.7818608E-02  0.9425084E-01
         -2   -1    0    0    0  501 -0.00000000000E+00  0.00000000000E+00  0.15346714712E+03  0.15346714714E+03  0.25500000000E-02 0. -1.
          2   -1    0    0  501    0  0.00000000000E+00 -0.00000000000E+00 -0.13206687726E+04  0.13206687726E+04  0.25500000000E-02 0.  1.
    5000001    1    1    2    0    0 -0.32015198825E+03 -0.28199518267E+03 -0.69381385112E+03  0.82433320850E+03  0.12700000000E+03 0.  0.
   -5000001    1    1    2    0    0  0.32015198825E+03  0.28199518267E+03 -0.47338777441E+03  0.64980271128E+03  0.12700000000E+03 0.  0.
<mgrwt>
<rscale>  0 0.90039829E+03</rscale>
<asrwt>0</asrwt>
<pdfrwt beam="1">  1        2 0.18866696E+00 0.90039829E+03</pdfrwt>
<pdfrwt beam="2">  1       -2 0.21923879E-01 0.90039829E+03</pdfrwt>
<totfact> 0.33197977E+02</totfact>
</mgrwt>
</event>
<event>
 4    1  0.1351183E-004  0.3596714E+03  0.7818608E-02  0.1058714E+00
         -2   -1    0    0    0  501 -0.00000000000E+00  0.00000000000E+00  0.10710680378E+02  0.10710680681E+02  0.25500000000E-02 0. -1.
          2   -1    0    0  501    0  0.00000000000E+00 -0.00000000000E+00 -0.30194983942E+04  0.30194983942E+04  0.25500000000E-02 0.  1.
    5000001    1    1    2    0    0  0.10155825984E+03 -0.75793443457E+02 -0.16086578393E+04  0.16186314498E+04  0.12700000000E+03 0.  0.
   -5000001    1    1    2    0    0 -0.10155825984E+03  0.75793443457E+02 -0.14001298745E+04  0.14115776251E+04  0.12700000000E+03 0.  0.
<mgrwt>
<rscale>  0 0.35967142E+03</rscale>
<asrwt>0</asrwt>
<pdfrwt beam="1">  1        2 0.43135637E+00 0.35967142E+03</pdfrwt>
<pdfrwt beam="2">  1       -2 0.15300991E-02 0.35967142E+03</pdfrwt>
<totfact> 0.30863002E+03</totfact>
</mgrwt>
</event>
<event>
 4    1  0.1351183E-004  0.8180178E+03  0.7818608E-02  0.9534297E-01
         -2   -1    0    0    0  501 -0.00000000000E+00  0.00000000000E+00  0.21575494416E+03  0.21575494417E+03  0.25500000000E-02 0. -1.
          2   -1    0    0  501    0  0.00000000000E+00 -0.00000000000E+00 -0.77536248290E+03  0.77536248290E+03  0.25500000000E-02 0.  1.
    5000001    1    1    2    0    0  0.43261064025E+02 -0.38521705350E+03 -0.31606288991E+03  0.51603144123E+03  0.12700000000E+03 0.  0.
   -5000001    1    1    2    0    0 -0.43261064025E+02  0.38521705350E+03 -0.24354464883E+03  0.47508598584E+03  0.12700000000E+03 0.  0.
<mgrwt>
<rscale>  0 0.81801782E+03</rscale>
<asrwt>0</asrwt>
<pdfrwt beam="1">  1        2 0.11076607E+00 0.81801782E+03</pdfrwt>
<pdfrwt beam="2">  1       -2 0.30822135E-01 0.81801782E+03</pdfrwt>
<totfact> 0.38664648E+02</totfact>
</mgrwt>
</event>
<event>
 4    1  0.1351183E-004  0.3909949E+03  0.7818608E-02  0.1046943E+00
          2   -1    0    0  501    0  0.00000000000E+00  0.00000000000E+00  0.11340347074E+04  0.11340347074E+04  0.25500000000E-02 0.  1.
         -2   -1    0    0    0  501 -0.00000000000E+00 -0.00000000000E+00 -0.33702012866E+02  0.33702012963E+02  0.25500000000E-02 0. -1.
    5000001    1    1    2    0    0 -0.73662195700E+02  0.11121090104E+03  0.35440832475E+03  0.39940986998E+03  0.12700000000E+03 0.  0.
   -5000001    1    1    2    0    0  0.73662195700E+02 -0.11121090104E+03  0.74592436978E+03  0.76832685038E+03  0.12700000000E+03 0.  0.
<mgrwt>
<rscale>  0 0.39099490E+03</rscale>
<asrwt>0</asrwt>
<pdfrwt beam="1">  1        2 0.16200497E+00 0.39099490E+03</pdfrwt>
<pdfrwt beam="2">  1       -2 0.48145730E-02 0.39099490E+03</pdfrwt>
<totfact> 0.50839142E+03</totfact>
</mgrwt>
</event>
<event>
 4    1  0.1351183E-004  0.7866326E+03  0.7818608E-02  0.9579570E-01
         -2   -1    0    0    0  501 -0.00000000000E+00  0.00000000000E+00  0.23256196268E+04  0.23256196268E+04  0.25500000000E-02 0. -1.
          2   -1    0    0  501    0  0.00000000000E+00 -0.00000000000E+00 -0.66518920069E+02  0.66518920118E+02  0.25500000000E-02 0.  1.
    5000001    1    1    2    0    0  0.26950262917E+03  0.45873046233E+02  0.18978595168E+04  0.19216492263E+04  0.12700000000E+03 0.  0.
   -5000001    1    1    2    0    0 -0.26950262917E+03 -0.45873046233E+02  0.36124118993E+03  0.47048932060E+03  0.12700000000E+03 0.  0.
<mgrwt>
<rscale>  0 0.78663259E+03</rscale>
<asrwt>0</asrwt>
<pdfrwt beam="1">  1        2 0.95027038E-02 0.78663259E+03</pdfrwt>
<pdfrwt beam="2">  1       -2 0.33223134E+00 0.78663259E+03</pdfrwt>
<totfact> 0.14920997E+01</totfact>
</mgrwt>
</event>
<event>
 4    1  0.1351183E-004  0.3423078E+03  0.7818608E-02  0.1065817E+00
         -2   -1    0    0    0  501 -0.00000000000E+00  0.00000000000E+00  0.28861337753E+02  0.28861337865E+02  0.25500000000E-02 0. -1.
          2   -1    0    0  501    0  0.00000000000E+00 -0.00000000000E+00 -0.10149789784E+04  0.10149789784E+04  0.25500000000E-02 0.  1.
    5000001    1    1    2    0    0 -0.17502381346E+02  0.41648800518E+01 -0.14750455288E+03  0.19547448094E+03  0.12700000000E+03 0.  0.
   -5000001    1    1    2    0    0  0.17502381346E+02 -0.41648800518E+01 -0.83861308771E+03  0.84836583527E+03  0.12700000000E+03 0.  0.
<mgrwt>
<rscale>  0 0.34230776E+03</rscale>
<asrwt>0</asrwt>
<pdfrwt beam="1">  1        2 0.14499697E+00 0.34230776E+03</pdfrwt>
<pdfrwt beam="2">  1       -2 0.41230489E-02 0.34230776E+03</pdfrwt>
<totfact> 0.75252847E+03</totfact>
</mgrwt>
</event>
<event>
 4    1  0.1351183E-004  0.5529734E+03  0.7818608E-02  0.1000808E+00
         -2   -1    0    0    0  501 -0.00000000000E+00  0.00000000000E+00  0.40327558508E+02  0.40327558588E+02  0.25500000000E-02 0. -1.
          2   -1    0    0  501    0  0.00000000000E+00 -0.00000000000E+00 -0.18955995538E+04  0.18955995538E+04  0.25500000000E-02 0.  1.
    5000001    1    1    2    0    0  0.23254050732E+03  0.24830629894E+02 -0.11901891370E+04  0.12195781359E+04  0.12700000000E+03 0.  0.
   -5000001    1    1    2    0    0 -0.23254050732E+03 -0.24830629894E+02 -0.66508285825E+03  0.71634897645E+03  0.12700000000E+03 0.  0.
<mgrwt>
<rscale>  0 0.55297342E+03</rscale>
<asrwt>0</asrwt>
<pdfrwt beam="1">  1        2 0.27079988E+00 0.55297342E+03</pdfrwt>
<pdfrwt beam="2">  1       -2 0.57610810E-02 0.55297342E+03</pdfrwt>
<totfact> 0.15417535E+03</totfact>
</mgrwt>
</event>
<event>
 4    1  0.1351183E-004  0.5166876E+03  0.7818608E-02  0.1009513E+00
          2   -1    0    0  501    0  0.00000000000E+00  0.00000000000E+00  0.25456360086E+03  0.25456360087E+03  0.25500000000E-02 0.  1.
         -2   -1    0    0    0  501 -0.00000000000E+00 -0.00000000000E+00 -0.26218017446E+03  0.26218017447E+03  0.25500000000E-02 0. -1.
    5000001    1    1    2    0    0  0.81323911170E+02 -0.20764473040E+03 -0.33520380163E+02  0.25880983072E+03  0.12700000000E+03 0.  0.
   -5000001    1    1    2    0    0 -0.81323911170E+02  0.20764473040E+03  0.25903806563E+02  0.25793394462E+03  0.12700000000E+03 0.  0.
<mgrwt>
<rscale>  0 0.51668764E+03</rscale>
<asrwt>0</asrwt>
<pdfrwt beam="1">  1        2 0.36366229E-01 0.51668764E+03</pdfrwt>
<pdfrwt beam="2">  1       -2 0.37454310E-01 0.51668764E+03</pdfrwt>
<totfact> 0.96519830E+02</totfact>
</mgrwt>
</event>
<event>
 4    1  0.1351183E-004  0.6655662E+03  0.7818608E-02  0.9778001E-01
          2   -1    0    0  501    0  0.00000000000E+00  0.00000000000E+00  0.11896201558E+03  0.11896201561E+03  0.25500000000E-02 0.  1.
         -2   -1    0    0    0  501 -0.00000000000E+00 -0.00000000000E+00 -0.93092407909E+03  0.93092407909E+03  0.25500000000E-02 0. -1.
    5000001    1    1    2    0    0  0.25315847912E+03 -0.17434674006E+03 -0.42393908491E+03  0.53883146626E+03  0.12700000000E+03 0.  0.
   -5000001    1    1    2    0    0 -0.25315847912E+03  0.17434674006E+03 -0.38802297860E+03  0.51105462843E+03  0.12700000000E+03 0.  0.
<mgrwt>
<rscale>  0 0.66556624E+03</rscale>
<asrwt>0</asrwt>
<pdfrwt beam="1">  1        2 0.16994574E-01 0.66556624E+03</pdfrwt>
<pdfrwt beam="2">  1       -2 0.13298915E+00 0.66556624E+03</pdfrwt>
<totfact> 0.14317290E+02</totfact>
</mgrwt>
</event>
<event>
 4    1  0.1351183E-004  0.2681641E+03  0.7818608E-02  0.1102335E+00
         -2   -1    0    0    0  501 -0.00000000000E+00  0.00000000000E+00  0.14262783091E+02  0.14262783319E+02  0.25500000000E-02 0. -1.
          2   -1    0    0  501    0  0.00000000000E+00 -0.00000000000E+00 -0.12604831972E+04  0.12604831972E+04  0.25500000000E-02 0.  1.
    5000001    1    1    2    0    0  0.41977656836E+02 -0.49077142868E+01 -0.58544280951E+03  0.60054849308E+03  0.12700000000E+03 0.  0.
   -5000001    1    1    2    0    0 -0.41977656836E+02  0.49077142868E+01 -0.66077760459E+03  0.67419748743E+03  0.12700000000E+03 0.  0.
<mgrwt>
<rscale>  0 0.26816412E+03</rscale>
<asrwt>0</asrwt>
<pdfrwt beam="1">  1        2 0.18006896E+00 0.26816412E+03</pdfrwt>
<pdfrwt beam="2">  1       -2 0.20375413E-02 0.26816412E+03</pdfrwt>
<totfact> 0.15592467E+04</totfact>
</mgrwt>
</event>
<event>
 4    1  0.1351183E-004  0.3323077E+03  0.7818608E-02  0.1070120E+00
         -2   -1    0    0    0  501 -0.00000000000E+00  0.00000000000E+00  0.32258818661E+02  0.32258818762E+02  0.25500000000E-02 0. -1.
          2   -1    0    0  501    0  0.00000000000E+00 -0.00000000000E+00 -0.85580037861E+03  0.85580037861E+03  0.25500000000E-02 0.  1.
    5000001    1    1    2    0    0 -0.97330990035E+02  0.28794457228E+02 -0.50340202677E+03  0.52900382129E+03  0.12700000000E+03 0.  0.
   -5000001    1    1    2    0    0  0.97330990035E+02 -0.28794457228E+02 -0.32013953318E+03  0.35905537608E+03  0.12700000000E+03 0.  0.
<mgrwt>
<rscale>  0 0.33230774E+03</rscale>
<asrwt>0</asrwt>
<pdfrwt beam="1">  1        2 0.12225718E+00 0.33230774E+03</pdfrwt>
<pdfrwt beam="2">  1       -2 0.46084032E-02 0.33230774E+03</pdfrwt>
<totfact> 0.79656449E+03</totfact>
</mgrwt>
</event>
<event>
 4    1  0.1351183E-004  0.3773971E+03  0.7818608E-02  0.1051900E+00
          2   -1    0    0  501    0  0.00000000000E+00  0.00000000000E+00  0.14285068241E+03  0.14285068243E+03  0.25500000000E-02 0.  1.
         -2   -1    0    0    0  501 -0.00000000000E+00 -0.00000000000E+00 -0.24926133115E+03  0.24926133116E+03  0.25500000000E-02 0. -1.
    5000001    1    1    2    0    0 -0.26923278075E+02  0.12244230714E+03 -0.11692491942E+03  0.21334811520E+03  0.12700000000E+03 0.  0.
   -5000001    1    1    2    0    0  0.26923278075E+02 -0.12244230714E+03  0.10514270675E+02  0.17876389839E+03  0.12700000000E+03 0.  0.
<mgrwt>
<rscale>  0 0.37739714E+03</rscale>
<asrwt>0</asrwt>
<pdfrwt beam="1">  1        2 0.20407240E-01 0.37739714E+03</pdfrwt>
<pdfrwt beam="2">  1       -2 0.35608762E-01 0.37739714E+03</pdfrwt>
<totfact> 0.20309802E+03</totfact>
</mgrwt>
</event>
<event>
 4    1  0.1351183E-004  0.4029140E+03  0.7818608E-02  0.1042775E+00
         -2   -1    0    0    0  501 -0.00000000000E+00  0.00000000000E+00  0.66944489389E+02  0.66944489438E+02  0.25500000000E-02 0. -1.
          2   -1    0    0  501    0  0.00000000000E+00 -0.00000000000E+00 -0.60624734553E+03  0.60624734554E+03  0.25500000000E-02 0.  1.
    5000001    1    1    2    0    0  0.68513100029E+02 -0.97298478172E+02 -0.43917775508E+03  0.47240569354E+03  0.12700000000E+03 0.  0.
   -5000001    1    1    2    0    0 -0.68513100029E+02  0.97298478172E+02 -0.10012510106E+03  0.20078614144E+03  0.12700000000E+03 0.  0.
<mgrwt>
<rscale>  0 0.40291398E+03</rscale>
<asrwt>0</asrwt>
<pdfrwt beam="1">  1        2 0.86606761E-01 0.40291398E+03</pdfrwt>
<pdfrwt beam="2">  1       -2 0.95634988E-02 0.40291398E+03</pdfrwt>
<totfact> 0.39005798E+03</totfact>
</mgrwt>
</event>
<event>
 4    1  0.1351183E-004  0.8682504E+03  0.7818608E-02  0.9466164E-01
          2   -1    0    0  501    0  0.00000000000E+00  0.00000000000E+00  0.11925148718E+04  0.11925148718E+04  0.25500000000E-02 0.  1.
         -2   -1    0    0    0  501 -0.00000000000E+00 -0.00000000000E+00 -0.15803970303E+03  0.15803970305E+03  0.25500000000E-02 0. -1.
    5000001    1    1    2    0    0 -0.31846984676E+03  0.31834582577E+02  0.92848509217E+03  0.99027776423E+03  0.12700000000E+03 0.  0.
   -5000001    1    1    2    0    0  0.31846984676E+03 -0.31834582577E+02  0.10599007662E+03  0.36027681064E+03  0.12700000000E+03 0.  0.
<mgrwt>
<rscale>  0 0.86825042E+03</rscale>
<asrwt>0</asrwt>
<pdfrwt beam="1">  1        2 0.17035927E+00 0.86825042E+03</pdfrwt>
<pdfrwt beam="2">  1       -2 0.22577101E-01 0.86825042E+03</pdfrwt>
<totfact> 0.37207555E+02</totfact>
</mgrwt>
</event>
<event>
 4    1  0.1351183E-004  0.3824053E+03  0.7818608E-02  0.1050048E+00
          2   -1    0    0  501    0  0.00000000000E+00  0.00000000000E+00  0.16941669187E+03  0.16941669189E+03  0.25500000000E-02 0.  1.
         -2   -1    0    0    0  501 -0.00000000000E+00 -0.00000000000E+00 -0.21579017719E+03  0.21579017720E+03  0.25500000000E-02 0. -1.
    5000001    1    1    2    0    0 -0.34805948330E+02  0.80938163418E+02  0.90185641656E+02  0.17895499517E+03  0.12700000000E+03 0.  0.
   -5000001    1    1    2    0    0  0.34805948330E+02 -0.80938163418E+02 -0.13655912697E+03  0.20625187392E+03  0.12700000000E+03 0.  0.
<mgrwt>
<rscale>  0 0.38240532E+03</rscale>
<asrwt>0</asrwt>
<pdfrwt beam="1">  1        2 0.24202385E-01 0.38240532E+03</pdfrwt>
<pdfrwt beam="2">  1       -2 0.30827168E-01 0.38240532E+03</pdfrwt>
<totfact> 0.21858790E+03</totfact>
</mgrwt>
</event>
<event>
 4    1  0.1351183E-004  0.4556360E+03  0.7818608E-02  0.1026055E+00
         -2   -1    0    0    0  501 -0.00000000000E+00  0.00000000000E+00  0.34059422900E+02  0.34059422995E+02  0.25500000000E-02 0. -1.
          2   -1    0    0  501    0  0.00000000000E+00 -0.00000000000E+00 -0.15238382002E+04  0.15238382002E+04  0.25500000000E-02 0.  1.
    5000001    1    1    2    0    0  0.17476581619E+03 -0.20077041815E+02 -0.98241406321E+03  0.10060877545E+04  0.12700000000E+03 0.  0.
   -5000001    1    1    2    0    0 -0.17476581619E+03  0.20077041815E+02 -0.50736471411E+03  0.55180986874E+03  0.12700000000E+03 0.  0.
<mgrwt>
<rscale>  0 0.45563604E+03</rscale>
<asrwt>0</asrwt>
<pdfrwt beam="1">  1        2 0.21769113E+00 0.45563604E+03</pdfrwt>
<pdfrwt beam="2">  1       -2 0.48656328E-02 0.45563604E+03</pdfrwt>
<totfact> 0.30972833E+03</totfact>
</mgrwt>
</event>
<event>
 4    1  0.1351183E-004  0.3149083E+03  0.7818608E-02  0.1078017E+00
         -2   -1    0    0    0  501 -0.00000000000E+00  0.00000000000E+00  0.96872175868E+01  0.96872179225E+01  0.25500000000E-02 0. -1.
          2   -1    0    0  501    0  0.00000000000E+00 -0.00000000000E+00 -0.25592290056E+04  0.25592290056E+04  0.25500000000E-02 0.  1.
    5000001    1    1    2    0    0 -0.49402619199E+02 -0.37081470081E+02 -0.18427198029E+04  0.18481236231E+04  0.12700000000E+03 0.  0.
   -5000001    1    1    2    0    0  0.49402619199E+02  0.37081470081E+02 -0.70682198511E+03  0.72079260043E+03  0.12700000000E+03 0.  0.
<mgrwt>
<rscale>  0 0.31490830E+03</rscale>
<asrwt>0</asrwt>
<pdfrwt beam="1">  1        2 0.36560371E+00 0.31490830E+03</pdfrwt>
<pdfrwt beam="2">  1       -2 0.13838899E-02 0.31490830E+03</pdfrwt>
<totfact> 0.62156382E+03</totfact>
</mgrwt>
</event>
<event>
 4    1  0.1351183E-004  0.3535989E+03  0.7818608E-02  0.1061148E+00
          2   -1    0    0  501    0  0.00000000000E+00  0.00000000000E+00  0.13709506431E+04  0.13709506432E+04  0.25500000000E-02 0.  1.
         -2   -1    0    0    0  501 -0.00000000000E+00 -0.00000000000E+00 -0.22800269632E+02  0.22800269774E+02  0.25500000000E-02 0. -1.
    5000001    1    1    2    0    0  0.22614055529E+02  0.11159477346E+03  0.85744528880E+03  0.87424608221E+03  0.12700000000E+03 0.  0.
   -5000001    1    1    2    0    0 -0.22614055529E+02 -0.11159477346E+03  0.49070508472E+03  0.51950483072E+03  0.12700000000E+03 0.  0.
<mgrwt>
<rscale>  0 0.35359889E+03</rscale>
<asrwt>0</asrwt>
<pdfrwt beam="1">  1        2 0.19585017E+00 0.35359889E+03</pdfrwt>
<pdfrwt beam="2">  1       -2 0.32571802E-02 0.35359889E+03</pdfrwt>
<totfact> 0.68351786E+03</totfact>
</mgrwt>
</event>
<event>
 4    1  0.1351183E-004  0.7130466E+03  0.7818608E-02  0.9695177E-01
         -2   -1    0    0    0  501 -0.00000000000E+00  0.00000000000E+00  0.42232875622E+03  0.42232875623E+03  0.25500000000E-02 0. -1.
          2   -1    0    0  501    0  0.00000000000E+00 -0.00000000000E+00 -0.30097138462E+03  0.30097138463E+03  0.25500000000E-02 0.  1.
    5000001    1    1    2    0    0 -0.13593324649E+03  0.28069808897E+03 -0.58097383156E+02  0.34172148101E+03  0.12700000000E+03 0.  0.
   -5000001    1    1    2    0    0  0.13593324649E+03 -0.28069808897E+03  0.17945475476E+03  0.38157865986E+03  0.12700000000E+03 0.  0.
<mgrwt>
<rscale>  0 0.71304662E+03</rscale>
<asrwt>0</asrwt>
<pdfrwt beam="1">  1        2 0.42995912E-01 0.71304662E+03</pdfrwt>
<pdfrwt beam="2">  1       -2 0.60332679E-01 0.71304662E+03</pdfrwt>
<totfact> 0.30684722E+02</totfact>
</mgrwt>
</event>
<event>
 4    1  0.1351183E-004  0.2718047E+03  0.7818608E-02  0.1100251E+00
          2   -1    0    0  501    0  0.00000000000E+00  0.00000000000E+00  0.99145449869E+02  0.99145449902E+02  0.25500000000E-02 0.  1.
         -2   -1    0    0    0  501 -0.00000000000E+00 -0.00000000000E+00 -0.18628644254E+03  0.18628644256E+03  0.25500000000E-02 0. -1.
    5000001    1    1    2    0    0  0.35972335163E+02  0.18861169526E+02 -0.71169307954E+02  0.15114173152E+03  0.12700000000E+03 0.  0.
   -5000001    1    1    2    0    0 -0.35972335163E+02 -0.18861169526E+02 -0.15971684722E+02  0.13429016094E+03  0.12700000000E+03 0.  0.
<mgrwt>
<rscale>  0 0.27180473E+03</rscale>
<asrwt>0</asrwt>
<pdfrwt beam="1">  1        2 0.14163636E-01 0.27180473E+03</pdfrwt>
<pdfrwt beam="2">  1       -2 0.26612349E-01 0.27180473E+03</pdfrwt>
<totfact> 0.52676330E+03</totfact>
</mgrwt>
</event>
<event>
 4    1  0.1351183E-004  0.2741233E+03  0.7818608E-02  0.1098943E+00
          2   -1    0    0  501    0  0.00000000000E+00  0.00000000000E+00  0.29310838147E+03  0.29310838148E+03  0.25500000000E-02 0.  1.
         -2   -1    0    0    0  501 -0.00000000000E+00 -0.00000000000E+00 -0.64091975606E+02  0.64091975656E+02  0.25500000000E-02 0. -1.
    5000001    1    1    2    0    0 -0.15180646675E+02  0.59035900215E+01  0.50783270880E+02  0.13774340278E+03  0.12700000000E+03 0.  0.
   -5000001    1    1    2    0    0  0.15180646675E+02 -0.59035900215E+01  0.17823313498E+03  0.21945695435E+03  0.12700000000E+03 0.  0.
<mgrwt>
<rscale>  0 0.27412330E+03</rscale>
<asrwt>0</asrwt>
<pdfrwt beam="1">  1        2 0.41872626E-01 0.27412330E+03</pdfrwt>
<pdfrwt beam="2">  1       -2 0.91559965E-02 0.27412330E+03</pdfrwt>
<totfact> 0.92067351E+03</totfact>
</mgrwt>
</event>
<event>
 4    1  0.1351183E-004  0.6204233E+03  0.7818608E-02  0.9863917E-01
         -2   -1    0    0    0  501 -0.00000000000E+00  0.00000000000E+00  0.56631407019E+02  0.56631407076E+02  0.25500000000E-02 0. -1.
          2   -1    0    0  501    0  0.00000000000E+00 -0.00000000000E+00 -0.16992561187E+04  0.16992561187E+04  0.25500000000E-02 0.  1.
    5000001    1    1    2    0    0 -0.17848204205E+03  0.20436834604E+03 -0.59349003990E+03  0.66481703321E+03  0.12700000000E+03 0.  0.
   -5000001    1    1    2    0    0  0.17848204205E+03 -0.20436834604E+03 -0.10491346718E+04  0.10910704925E+04  0.12700000000E+03 0.  0.
<mgrwt>
<rscale>  0 0.62042329E+03</rscale>
<asrwt>0</asrwt>
<pdfrwt beam="1">  1        2 0.24275084E+00 0.62042329E+03</pdfrwt>
<pdfrwt beam="2">  1       -2 0.80902021E-02 0.62042329E+03</pdfrwt>
<totfact> 0.11304314E+03</totfact>
</mgrwt>
</event>
<event>
 4    1  0.1351183E-004  0.3252819E+03  0.7818608E-02  0.1073244E+00
          2   -1    0    0  501    0  0.00000000000E+00  0.00000000000E+00  0.48553783248E+02  0.48553783315E+02  0.25500000000E-02 0.  1.
         -2   -1    0    0    0  501 -0.00000000000E+00 -0.00000000000E+00 -0.54479967280E+03  0.54479967280E+03  0.25500000000E-02 0. -1.
    5000001    1    1    2    0    0  0.18619206922E+02  0.93446902369E+02 -0.31246262060E+03  0.35048664411E+03  0.12700000000E+03 0.  0.
   -5000001    1    1    2    0    0 -0.18619206922E+02 -0.93446902369E+02 -0.18378326895E+03  0.24286681201E+03  0.12700000000E+03 0.  0.
<mgrwt>
<rscale>  0 0.32528194E+03</rscale>
<asrwt>0</asrwt>
<pdfrwt beam="1">  1        2 0.69362551E-02 0.32528194E+03</pdfrwt>
<pdfrwt beam="2">  1       -2 0.77828521E-01 0.32528194E+03</pdfrwt>
<totfact> 0.15542597E+03</totfact>
</mgrwt>
</event>
<event>
 4    1  0.1351183E-004  0.3568175E+03  0.7818608E-02  0.1059851E+00
          2   -1    0    0  501    0  0.00000000000E+00  0.00000000000E+00  0.13590293419E+04  0.13590293419E+04  0.25500000000E-02 0.  1.
         -2   -1    0    0    0  501 -0.00000000000E+00 -0.00000000000E+00 -0.23420889433E+02  0.23420889571E+02  0.25500000000E-02 0. -1.
    5000001    1    1    2    0    0  0.16506067105E+02 -0.82945456572E+02  0.10260183412E+04  0.10373018054E+04  0.12700000000E+03 0.  0.
   -5000001    1    1    2    0    0 -0.16506067105E+02  0.82945456572E+02  0.30959011118E+03  0.34514842598E+03  0.12700000000E+03 0.  0.
<mgrwt>
<rscale>  0 0.35681747E+03</rscale>
<asrwt>0</asrwt>
<pdfrwt beam="1">  1        2 0.19414711E+00 0.35681747E+03</pdfrwt>
<pdfrwt beam="2">  1       -2 0.33458403E-02 0.35681747E+03</pdfrwt>
<totfact> 0.66604610E+03</totfact>
</mgrwt>
</event>
<event>
 4    1  0.1351183E-004  0.3525825E+03  0.7818608E-02  0.1061560E+00
         -2   -1    0    0    0  501 -0.00000000000E+00  0.00000000000E+00  0.32199554782E+02  0.32199554883E+02  0.25500000000E-02 0.  1.
          2   -1    0    0  501    0  0.00000000000E+00 -0.00000000000E+00 -0.96518748084E+03  0.96518748084E+03  0.25500000000E-02 0. -1.
    5000001    1    1    2    0    0 -0.75980727367E+02 -0.84741179273E+02 -0.34012936434E+03  0.38048800623E+03  0.12700000000E+03 0.  0.
   -5000001    1    1    2    0    0  0.75980727367E+02  0.84741179273E+02 -0.59285856172E+03  0.61689902950E+03  0.12700000000E+03 0.  0.
<mgrwt>
<rscale>  0 0.35258251E+03</rscale>
<asrwt>0</asrwt>
<pdfrwt beam="1">  1        2 0.13788391E+00 0.35258251E+03</pdfrwt>
<pdfrwt beam="2">  1       -2 0.45999370E-02 0.35258251E+03</pdfrwt>
<totfact> 0.68295516E+03</totfact>
</mgrwt>
</event>
<event>
 4    1  0.1351183E-004  0.3540190E+03  0.7818608E-02  0.1060977E+00
          2   -1    0    0  501    0  0.00000000000E+00  0.00000000000E+00  0.44824229080E+03  0.44824229081E+03  0.25500000000E-02 0.  1.
         -2   -1    0    0    0  501 -0.00000000000E+00 -0.00000000000E+00 -0.69900523600E+02  0.69900523647E+02  0.25500000000E-02 0. -1.
    5000001    1    1    2    0    0  0.11355324732E+02  0.12213405450E+03  0.17079116153E+03  0.24565075112E+03  0.12700000000E+03 0.  0.
   -5000001    1    1    2    0    0 -0.11355324732E+02 -0.12213405450E+03  0.20755060567E+03  0.27249206334E+03  0.12700000000E+03 0.  0.
<mgrwt>
<rscale>  0 0.35401904E+03</rscale>
<asrwt>0</asrwt>
<pdfrwt beam="1">  1        2 0.64034612E-01 0.35401904E+03</pdfrwt>
<pdfrwt beam="2">  1       -2 0.99857892E-02 0.35401904E+03</pdfrwt>
<totfact> 0.51038933E+03</totfact>
</mgrwt>
</event>
<event>
 4    1  0.1351183E-004  0.2836970E+03  0.7818608E-02  0.1093687E+00
          2   -1    0    0  501    0  0.00000000000E+00  0.00000000000E+00  0.10363310750E+04  0.10363310750E+04  0.25500000000E-02 0.  1.
         -2   -1    0    0    0  501 -0.00000000000E+00 -0.00000000000E+00 -0.19415601145E+02  0.19415601312E+02  0.25500000000E-02 0. -1.
    5000001    1    1    2    0    0  0.40686284263E+02  0.32657363766E+02  0.64108302963E+03  0.65562056710E+03  0.12700000000E+03 0.  0.
   -5000001    1    1    2    0    0 -0.40686284263E+02 -0.32657363766E+02  0.37583244419E+03  0.40012610917E+03  0.12700000000E+03 0.  0.
<mgrwt>
<rscale>  0 0.28369696E+03</rscale>
<asrwt>0</asrwt>
<pdfrwt beam="1">  1        2 0.14804730E+00 0.28369696E+03</pdfrwt>
<pdfrwt beam="2">  1       -2 0.27736572E-02 0.28369696E+03</pdfrwt>
<totfact> 0.13181411E+04</totfact>
</mgrwt>
</event>
<event>
 4    1  0.1351183E-004  0.4906810E+03  0.7818608E-02  0.1016240E+00
          2   -1    0    0  501    0  0.00000000000E+00  0.00000000000E+00  0.13072058122E+04  0.13072058122E+04  0.25500000000E-02 0.  1.
         -2   -1    0    0    0  501 -0.00000000000E+00 -0.00000000000E+00 -0.46046285484E+02  0.46046285554E+02  0.25500000000E-02 0. -1.
    5000001    1    1    2    0    0  0.19989308194E+03  0.48778662099E+02  0.74516966993E+03  0.78341779344E+03  0.12700000000E+03 0.  0.
   -5000001    1    1    2    0    0 -0.19989308194E+03 -0.48778662099E+02  0.51598985682E+03  0.56983430436E+03  0.12700000000E+03 0.  0.
<mgrwt>
<rscale>  0 0.49068105E+03</rscale>
<asrwt>0</asrwt>
<pdfrwt beam="1">  1        2 0.18674371E+00 0.49068105E+03</pdfrwt>
<pdfrwt beam="2">  1       -2 0.65780400E-02 0.49068105E+03</pdfrwt>
<totfact> 0.25193052E+03</totfact>
</mgrwt>
</event>
<event>
 4    1  0.1351183E-004  0.4200507E+03  0.7818608E-02  0.1037050E+00
          2   -1    0    0  501    0  0.00000000000E+00  0.00000000000E+00  0.25220353387E+03  0.25220353389E+03  0.25500000000E-02 0.  1.
         -2   -1    0    0    0  501 -0.00000000000E+00 -0.00000000000E+00 -0.17490103065E+03  0.17490103067E+03  0.25500000000E-02 0. -1.
    5000001    1    1    2    0    0  0.80705554164E+02 -0.12400964103E+03 -0.40696903454E+02  0.19919090213E+03  0.12700000000E+03 0.  0.
   -5000001    1    1    2    0    0 -0.80705554164E+02  0.12400964103E+03  0.11799940668E+03  0.22791366242E+03  0.12700000000E+03 0.  0.
<mgrwt>
<rscale>  0 0.42005075E+03</rscale>
<asrwt>0</asrwt>
<pdfrwt beam="1">  1        2 0.36029076E-01 0.42005075E+03</pdfrwt>
<pdfrwt beam="2">  1       -2 0.24985862E-01 0.42005075E+03</pdfrwt>
<totfact> 0.20550967E+03</totfact>
</mgrwt>
</event>
<event>
 4    1  0.1351183E-004  0.3850462E+03  0.7818608E-02  0.1049084E+00
         -2   -1    0    0    0  501 -0.00000000000E+00  0.00000000000E+00  0.46421097443E+02  0.46421097513E+02  0.25500000000E-02 0. -1.
          2   -1    0    0  501    0  0.00000000000E+00 -0.00000000000E+00 -0.79845487211E+03  0.79845487212E+03  0.25500000000E-02 0.  1.
    5000001    1    1    2    0    0  0.13854867789E+03  0.21991668724E+02 -0.45380442365E+03  0.49167756158E+03  0.12700000000E+03 0.  0.
   -5000001    1    1    2    0    0 -0.13854867789E+03 -0.21991668724E+02 -0.29822935102E+03  0.35319840805E+03  0.12700000000E+03 0.  0.
<mgrwt>
<rscale>  0 0.38504624E+03</rscale>
<asrwt>0</asrwt>
<pdfrwt beam="1">  1        2 0.11406497E+00 0.38504624E+03</pdfrwt>
<pdfrwt beam="2">  1       -2 0.66315859E-02 0.38504624E+03</pdfrwt>
<totfact> 0.49836355E+03</totfact>
</mgrwt>
</event>
<event>
 4    1  0.1351183E-004  0.5780152E+03  0.7818608E-02  0.9952097E-01
         -2   -1    0    0    0  501 -0.00000000000E+00  0.00000000000E+00  0.37523816054E+02  0.37523816141E+02  0.25500000000E-02 0. -1.
          2   -1    0    0  501    0  0.00000000000E+00 -0.00000000000E+00 -0.22259300118E+04  0.22259300118E+04  0.25500000000E-02 0.  1.
    5000001    1    1    2    0    0 -0.96655217818E+02 -0.54029056539E+02 -0.17471491141E+03  0.24272550412E+03  0.12700000000E+03 0.  0.
   -5000001    1    1    2    0    0  0.96655217818E+02  0.54029056539E+02 -0.20136912843E+04  0.20207283238E+04  0.12700000000E+03 0.  0.
<mgrwt>
<rscale>  0 0.57801518E+03</rscale>
<asrwt>0</asrwt>
<pdfrwt beam="1">  1        2 0.31798992E+00 0.57801518E+03</pdfrwt>
<pdfrwt beam="2">  1       -2 0.53605466E-02 0.57801518E+03</pdfrwt>
<totfact> 0.11761435E+03</totfact>
</mgrwt>
</event>
<event>
 4    1  0.1351183E-004  0.6207770E+03  0.7818608E-02  0.9863214E-01
          2   -1    0    0  501    0  0.00000000000E+00  0.00000000000E+00  0.19060513316E+04  0.19060513316E+04  0.25500000000E-02 0.  1.
         -2   -1    0    0    0  501 -0.00000000000E+00 -0.00000000000E+00 -0.50544826827E+02  0.50544826892E+02  0.25500000000E-02 0. -1.
    5000001    1    1    2    0    0  0.11656566114E+03 -0.24468178146E+03  0.66870056998E+03  0.73262963347E+03  0.12700000000E+03 0.  0.
   -5000001    1    1    2    0    0 -0.11656566114E+03  0.24468178146E+03  0.11868059348E+04  0.12239665250E+04  0.12700000000E+03 0.  0.
<mgrwt>
<rscale>  0 0.62077704E+03</rscale>
<asrwt>0</asrwt>
<pdfrwt beam="1">  1        2 0.27229298E+00 0.62077704E+03</pdfrwt>
<pdfrwt beam="2">  1       -2 0.72206914E-02 0.62077704E+03</pdfrwt>
<totfact> 0.10645328E+03</totfact>
</mgrwt>
</event>
<event>
 4    1  0.1351183E-004  0.3266848E+03  0.7818608E-02  0.1072613E+00
          2   -1    0    0  501    0  0.00000000000E+00  0.00000000000E+00  0.25491643293E+04  0.25491643293E+04  0.25500000000E-02 0.  1.
         -2   -1    0    0    0  501 -0.00000000000E+00 -0.00000000000E+00 -0.10466462214E+02  0.10466462525E+02  0.25500000000E-02 0. -1.
    5000001    1    1    2    0    0 -0.48973767462E+01  0.10260456280E+03  0.12711343059E+04  0.12815861673E+04  0.12700000000E+03 0.  0.
   -5000001    1    1    2    0    0  0.48973767462E+01 -0.10260456280E+03  0.12675635611E+04  0.12780446245E+04  0.12700000000E+03 0.  0.
<mgrwt>
<rscale>  0 0.32668476E+03</rscale>
<asrwt>0</asrwt>
<pdfrwt beam="1">  1        2 0.36416653E+00 0.32668476E+03</pdfrwt>
<pdfrwt beam="2">  1       -2 0.14952081E-02 0.32668476E+03</pdfrwt>
<totfact> 0.56121621E+03</totfact>
</mgrwt>
</event>
<event>
 4    1  0.1351183E-004  0.4266062E+03  0.7818608E-02  0.1034937E+00
          2   -1    0    0  501    0  0.00000000000E+00  0.00000000000E+00  0.12707787779E+04  0.12707787779E+04  0.25500000000E-02 0. -1.
         -2   -1    0    0    0  501 -0.00000000000E+00 -0.00000000000E+00 -0.35803402245E+02  0.35803402336E+02  0.25500000000E-02 0.  1.
    5000001    1    1    2    0    0 -0.70493457199E+02  0.15350026221E+03  0.52885092376E+03  0.56951203462E+03  0.12700000000E+03 0.  0.
   -5000001    1    1    2    0    0  0.70493457199E+02 -0.15350026221E+03  0.70612445187E+03  0.73707014560E+03  0.12700000000E+03 0.  0.
<mgrwt>
<rscale>  0 0.42660616E+03</rscale>
<asrwt>0</asrwt>
<pdfrwt beam="1">  1        2 0.18153983E+00 0.42660616E+03</pdfrwt>
<pdfrwt beam="2">  1       -2 0.51147717E-02 0.42660616E+03</pdfrwt>
<totfact> 0.38965618E+03</totfact>
</mgrwt>
</event>
<event>
 4    1  0.1351183E-004  0.4026650E+03  0.7818608E-02  0.1042861E+00
          2   -1    0    0  501    0  0.00000000000E+00  0.00000000000E+00  0.16721480799E+04  0.16721480799E+04  0.25500000000E-02 0.  1.
         -2   -1    0    0    0  501 -0.00000000000E+00 -0.00000000000E+00 -0.24241144988E+02  0.24241145122E+02  0.25500000000E-02 0. -1.
    5000001    1    1    2    0    0  0.65809200352E+02 -0.13328634126E+03  0.62148475951E+03  0.65151239890E+03  0.12700000000E+03 0.  0.
   -5000001    1    1    2    0    0 -0.65809200352E+02  0.13328634126E+03  0.10264221754E+04  0.10448768261E+04  0.12700000000E+03 0.  0.
<mgrwt>
<rscale>  0 0.40266504E+03</rscale>
<asrwt>0</asrwt>
<pdfrwt beam="1">  1        2 0.23887823E+00 0.40266504E+03</pdfrwt>
<pdfrwt beam="2">  1       -2 0.34630217E-02 0.40266504E+03</pdfrwt>
<totfact> 0.43761290E+03</totfact>
</mgrwt>
</event>
<event>
 4    1  0.1351183E-004  0.3102238E+03  0.7818608E-02  0.1080239E+00
          2   -1    0    0  501    0  0.00000000000E+00  0.00000000000E+00  0.42967379549E+02  0.42967379625E+02  0.25500000000E-02 0. -1.
         -2   -1    0    0    0  501 -0.00000000000E+00 -0.00000000000E+00 -0.55995263520E+03  0.55995263520E+03  0.25500000000E-02 0.  1.
    5000001    1    1    2    0    0  0.82010491782E+02  0.34140813616E+02 -0.24629625115E+03  0.29100199183E+03  0.12700000000E+03 0.  0.
   -5000001    1    1    2    0    0 -0.82010491782E+02 -0.34140813616E+02 -0.27068900450E+03  0.31191802300E+03  0.12700000000E+03 0.  0.
<mgrwt>
<rscale>  0 0.31022377E+03</rscale>
<asrwt>0</asrwt>
<pdfrwt beam="1">  1        2 0.61381974E-02 0.31022377E+03</pdfrwt>
<pdfrwt beam="2">  1       -2 0.79993229E-01 0.31022377E+03</pdfrwt>
<totfact> 0.17132852E+03</totfact>
</mgrwt>
</event>
<event>
 4    1  0.1351183E-004  0.3678302E+03  0.7818608E-02  0.1055526E+00
          2   -1    0    0  501    0  0.00000000000E+00  0.00000000000E+00  0.43291592298E+03  0.43291592299E+03  0.25500000000E-02 0.  1.
         -2   -1    0    0    0  501 -0.00000000000E+00 -0.00000000000E+00 -0.78132390926E+02  0.78132390968E+02  0.25500000000E-02 0. -1.
    5000001    1    1    2    0    0  0.21604822654E+02  0.13036449401E+03  0.19864880632E+03  0.27028136805E+03  0.12700000000E+03 0.  0.
   -5000001    1    1    2    0    0 -0.21604822654E+02 -0.13036449401E+03  0.15613472573E+03  0.24076694591E+03  0.12700000000E+03 0.  0.
<mgrwt>
<rscale>  0 0.36783016E+03</rscale>
<asrwt>0</asrwt>
<pdfrwt beam="1">  1        2 0.61845133E-01 0.36783016E+03</pdfrwt>
<pdfrwt beam="2">  1       -2 0.11161770E-01 0.36783016E+03</pdfrwt>
<totfact> 0.44379484E+03</totfact>
</mgrwt>
</event>
<event>
 4    1  0.1351183E-004  0.3846983E+03  0.7818608E-02  0.1049211E+00
         -2   -1    0    0    0  501 -0.00000000000E+00  0.00000000000E+00  0.30178685626E+03  0.30178685627E+03  0.25500000000E-02 0. -1.
          2   -1    0    0  501    0  0.00000000000E+00 -0.00000000000E+00 -0.12259712088E+03  0.12259712091E+03  0.25500000000E-02 0.  1.
    5000001    1    1    2    0    0  0.19863304252E+02 -0.14208606143E+03  0.70932209671E+02  0.20431196264E+03  0.12700000000E+03 0.  0.
   -5000001    1    1    2    0    0 -0.19863304252E+02  0.14208606143E+03  0.10825752571E+03  0.22007201454E+03  0.12700000000E+03 0.  0.
<mgrwt>
<rscale>  0 0.38469832E+03</rscale>
<asrwt>0</asrwt>
<pdfrwt beam="1">  1        2 0.17513875E-01 0.38469832E+03</pdfrwt>
<pdfrwt beam="2">  1       -2 0.43112407E-01 0.38469832E+03</pdfrwt>
<totfact> 0.16826571E+03</totfact>
</mgrwt>
</event>
<event>
 4    1  0.1351183E-004  0.3711567E+03  0.7818608E-02  0.1054252E+00
         -2   -1    0    0    0  501 -0.00000000000E+00  0.00000000000E+00  0.19753257924E+02  0.19753258089E+02  0.25500000000E-02 0. -1.
          2   -1    0    0  501    0  0.00000000000E+00 -0.00000000000E+00 -0.17434759392E+04  0.17434759392E+04  0.25500000000E-02 0.  1.
    5000001    1    1    2    0    0  0.61483707395E+02 -0.25653630974E+02 -0.30233495105E+03  0.33462483124E+03  0.12700000000E+03 0.  0.
   -5000001    1    1    2    0    0 -0.61483707395E+02  0.25653630974E+02 -0.14213877302E+04  0.14286043660E+04  0.12700000000E+03 0.  0.
<mgrwt>
<rscale>  0 0.37115673E+03</rscale>
<asrwt>0</asrwt>
<pdfrwt beam="1">  1        2 0.24906789E+00 0.37115673E+03</pdfrwt>
<pdfrwt beam="2">  1       -2 0.28218951E-02 0.37115673E+03</pdfrwt>
<totfact> 0.54857507E+03</totfact>
</mgrwt>
</event>
<event>
 4    1  0.1351183E-004  0.6823288E+03  0.7818608E-02  0.9747939E-01
         -2   -1    0    0    0  501 -0.00000000000E+00  0.00000000000E+00  0.77121152986E+02  0.77121153028E+02  0.25500000000E-02 0. -1.
          2   -1    0    0  501    0  0.00000000000E+00 -0.00000000000E+00 -0.15092248872E+04  0.15092248872E+04  0.25500000000E-02 0.  1.
    5000001    1    1    2    0    0  0.80716027291E+02 -0.29337600744E+03 -0.91979061292E+03  0.97710200615E+03  0.12700000000E+03 0.  0.
   -5000001    1    1    2    0    0 -0.80716027291E+02  0.29337600744E+03 -0.51231312125E+03  0.60924403404E+03  0.12700000000E+03 0.  0.
<mgrwt>
<rscale>  0 0.68232885E+03</rscale>
<asrwt>0</asrwt>
<pdfrwt beam="1">  1        2 0.21560354E+00 0.68232885E+03</pdfrwt>
<pdfrwt beam="2">  1       -2 0.11017309E-01 0.68232885E+03</pdfrwt>
<totfact> 0.85741361E+02</totfact>
</mgrwt>
</event>
<event>
 4    1  0.1351183E-004  0.6093429E+03  0.7818608E-02  0.9886210E-01
          2   -1    0    0  501    0  0.00000000000E+00  0.00000000000E+00  0.14451251545E+04  0.14451251545E+04  0.25500000000E-02 0.  1.
         -2   -1    0    0    0  501 -0.00000000000E+00 -0.00000000000E+00 -0.64232985857E+02  0.64232985908E+02  0.25500000000E-02 0. -1.
    5000001    1    1    2    0    0 -0.23188451214E+03  0.14611090202E+03  0.78880867960E+03  0.84466973171E+03  0.12700000000E+03 0.  0.
   -5000001    1    1    2    0    0  0.23188451214E+03 -0.14611090202E+03  0.59208348903E+03  0.66468840869E+03  0.12700000000E+03 0.  0.
<mgrwt>
<rscale>  0 0.60934294E+03</rscale>
<asrwt>0</asrwt>
<pdfrwt beam="1">  1        2 0.20644644E+00 0.60934294E+03</pdfrwt>
<pdfrwt beam="2">  1       -2 0.91761415E-02 0.60934294E+03</pdfrwt>
<totfact> 0.12504716E+03</totfact>
</mgrwt>
</event>
<event>
 4    1  0.1351183E-004  0.4199399E+03  0.7818608E-02  0.1037086E+00
          2   -1    0    0  501    0  0.00000000000E+00  0.00000000000E+00  0.21379801128E+03  0.21379801129E+03  0.25500000000E-02 0.  1.
         -2   -1    0    0    0  501 -0.00000000000E+00 -0.00000000000E+00 -0.20621043778E+03  0.20621043779E+03  0.25500000000E-02 0. -1.
    5000001    1    1    2    0    0  0.11222724368E+03 -0.15542052402E+02 -0.11919730478E+03  0.20778235508E+03  0.12700000000E+03 0.  0.
   -5000001    1    1    2    0    0 -0.11222724368E+03  0.15542052402E+02  0.12678487828E+03  0.21222609400E+03  0.12700000000E+03 0.  0.
<mgrwt>
<rscale>  0 0.41993991E+03</rscale>
<asrwt>0</asrwt>
<pdfrwt beam="1">  1        2 0.30542573E-01 0.41993991E+03</pdfrwt>
<pdfrwt beam="2">  1       -2 0.29458634E-01 0.41993991E+03</pdfrwt>
<totfact> 0.18325308E+03</totfact>
</mgrwt>
</event>
<event>
 4    1  0.1351183E-004  0.1105567E+04  0.7818608E-02  0.9199783E-01
          2   -1    0    0  501    0  0.00000000000E+00  0.00000000000E+00  0.14303038534E+04  0.14303038534E+04  0.25500000000E-02 0. -1.
         -2   -1    0    0    0  501 -0.00000000000E+00 -0.00000000000E+00 -0.21363969114E+03  0.21363969116E+03  0.25500000000E-02 0.  1.
    5000001    1    1    2    0    0 -0.29722577378E+03  0.38942442148E+03  0.93898163732E+03  0.10666817969E+04  0.12700000000E+03 0.  0.
   -5000001    1    1    2    0    0  0.29722577378E+03 -0.38942442148E+03  0.27768252496E+03  0.57726174766E+03  0.12700000000E+03 0.  0.
<mgrwt>
<rscale>  0 0.11055671E+04</rscale>
<asrwt>0</asrwt>
<pdfrwt beam="1">  1        2 0.20432911E+00 0.11055671E+04</pdfrwt>
<pdfrwt beam="2">  1       -2 0.30519957E-01 0.11055671E+04</pdfrwt>
<totfact> 0.15674966E+02</totfact>
</mgrwt>
</event>
<event>
 4    1  0.1351183E-004  0.3273220E+03  0.7818608E-02  0.1072328E+00
          2   -1    0    0  501    0  0.00000000000E+00  0.00000000000E+00  0.46795254840E+02  0.46795254910E+02  0.25500000000E-02 0.  1.
         -2   -1    0    0    0  501 -0.00000000000E+00 -0.00000000000E+00 -0.57238529037E+03  0.57238529037E+03  0.25500000000E-02 0. -1.
    5000001    1    1    2    0    0  0.61696475935E+02  0.66965007878E+00 -0.10624391586E+03  0.17670221626E+03  0.12700000000E+03 0.  0.
   -5000001    1    1    2    0    0 -0.61696475935E+02 -0.66965007878E+00 -0.41934611967E+03  0.44247832902E+03  0.12700000000E+03 0.  0.
<mgrwt>
<rscale>  0 0.32732195E+03</rscale>
<asrwt>0</asrwt>
<pdfrwt beam="1">  1        2 0.66850367E-02 0.32732195E+03</pdfrwt>
<pdfrwt beam="2">  1       -2 0.81769323E-01 0.32732195E+03</pdfrwt>
<totfact> 0.14618542E+03</totfact>
</mgrwt>
</event>
<event>
 4    1  0.1351183E-004  0.4145485E+03  0.7818608E-02  0.1038855E+00
         -2   -1    0    0    0  501 -0.00000000000E+00  0.00000000000E+00  0.11398423689E+03  0.11398423692E+03  0.25500000000E-02 0. -1.
          2   -1    0    0  501    0  0.00000000000E+00 -0.00000000000E+00 -0.37691717286E+03  0.37691717287E+03  0.25500000000E-02 0.  1.
    5000001    1    1    2    0    0  0.19429790930E+02  0.16218970052E+03 -0.14599869834E+03  0.25323434927E+03  0.12700000000E+03 0.  0.
   -5000001    1    1    2    0    0 -0.19429790930E+02 -0.16218970052E+03 -0.11693423763E+03  0.23766706053E+03  0.12700000000E+03 0.  0.
<mgrwt>
<rscale>  0 0.41454851E+03</rscale>
<asrwt>0</asrwt>
<pdfrwt beam="1">  1        2 0.53845310E-01 0.41454851E+03</pdfrwt>
<pdfrwt beam="2">  1       -2 0.16283463E-01 0.41454851E+03</pdfrwt>
<totfact> 0.27781089E+03</totfact>
</mgrwt>
</event>
<event>
 4    1  0.1351183E-004  0.3011793E+03  0.7818608E-02  0.1084653E+00
         -2   -1    0    0    0  501 -0.00000000000E+00  0.00000000000E+00  0.34113414063E+02  0.34113414158E+02  0.25500000000E-02 0. -1.
          2   -1    0    0  501    0  0.00000000000E+00 -0.00000000000E+00 -0.66476007134E+03  0.66476007135E+03  0.25500000000E-02 0.  1.
    5000001    1    1    2    0    0  0.82254779205E+01  0.71226538168E+02 -0.22827193886E+03  0.27088365823E+03  0.12700000000E+03 0.  0.
   -5000001    1    1    2    0    0 -0.82254779205E+01 -0.71226538168E+02 -0.40237471842E+03  0.42798982727E+03  0.12700000000E+03 0.  0.
<mgrwt>
<rscale>  0 0.30117925E+03</rscale>
<asrwt>0</asrwt>
<pdfrwt beam="1">  1        2 0.94965717E-01 0.30117925E+03</pdfrwt>
<pdfrwt beam="2">  1       -2 0.48733453E-02 0.30117925E+03</pdfrwt>
<totfact> 0.99341495E+03</totfact>
</mgrwt>
</event>
<event>
 4    1  0.1351183E-004  0.4648548E+03  0.7818608E-02  0.1023383E+00
          2   -1    0    0  501    0  0.00000000000E+00  0.00000000000E+00  0.40878249745E+03  0.40878249746E+03  0.25500000000E-02 0.  1.
         -2   -1    0    0    0  501 -0.00000000000E+00 -0.00000000000E+00 -0.13215463411E+03  0.13215463414E+03  0.25500000000E-02 0. -1.
    5000001    1    1    2    0    0 -0.14424390938E+03 -0.92634554829E+02  0.24563699060E+03  0.32535211279E+03  0.12700000000E+03 0.  0.
   -5000001    1    1    2    0    0  0.14424390938E+03  0.92634554829E+02  0.30990872738E+02  0.21558501881E+03  0.12700000000E+03 0.  0.
<mgrwt>
<rscale>  0 0.46485482E+03</rscale>
<asrwt>0</asrwt>
<pdfrwt beam="1">  1        2 0.58397501E-01 0.46485482E+03</pdfrwt>
<pdfrwt beam="2">  1       -2 0.18879233E-01 0.46485482E+03</pdfrwt>
<totfact> 0.19782281E+03</totfact>
</mgrwt>
</event>
<event>
 4    1  0.1351183E-004  0.6336126E+03  0.7818608E-02  0.9838024E-01
         -2   -1    0    0    0  501 -0.00000000000E+00  0.00000000000E+00  0.53733669340E+02  0.53733669400E+02  0.25500000000E-02 0.  1.
          2   -1    0    0  501    0  0.00000000000E+00 -0.00000000000E+00 -0.18678463321E+04  0.18678463321E+04  0.25500000000E-02 0. -1.
    5000001    1    1    2    0    0 -0.19774615726E+03  0.20159922303E+03 -0.11103050573E+04  0.11526717268E+04  0.12700000000E+03 0.  0.
   -5000001    1    1    2    0    0  0.19774615726E+03 -0.20159922303E+03 -0.70380760544E+03  0.76890827471E+03  0.12700000000E+03 0.  0.
<mgrwt>
<rscale>  0 0.63361262E+03</rscale>
<asrwt>0</asrwt>
<pdfrwt beam="1">  1        2 0.26683515E+00 0.63361262E+03</pdfrwt>
<pdfrwt beam="2">  1       -2 0.76762396E-02 0.63361262E+03</pdfrwt>
<totfact> 0.10090915E+03</totfact>
</mgrwt>
</event>
<event>
 4    1  0.1351183E-004  0.3342650E+03  0.7818608E-02  0.1069265E+00
         -2   -1    0    0    0  501 -0.00000000000E+00  0.00000000000E+00  0.93495263851E+01  0.93495267329E+01  0.25500000000E-02 0. -1.
          2   -1    0    0  501    0  0.00000000000E+00 -0.00000000000E+00 -0.29876678647E+04  0.29876678647E+04  0.25500000000E-02 0.  1.
    5000001    1    1    2    0    0  0.91045023464E+02  0.27144125696E+02 -0.10165672174E+04  0.10288653494E+04  0.12700000000E+03 0.  0.
   -5000001    1    1    2    0    0 -0.91045023464E+02 -0.27144125696E+02 -0.19617511210E+04  0.19681520420E+04  0.12700000000E+03 0.  0.
<mgrwt>
<rscale>  0 0.33426504E+03</rscale>
<asrwt>0</asrwt>
<pdfrwt beam="1">  1        2 0.42680908E+00 0.33426504E+03</pdfrwt>
<pdfrwt beam="2">  1       -2 0.13356486E-02 0.33426504E+03</pdfrwt>
<totfact> 0.39266409E+03</totfact>
</mgrwt>
</event>
<event>
 4    1  0.1351183E-004  0.3596269E+03  0.7818608E-02  0.1058732E+00
         -2   -1    0    0    0  501 -0.00000000000E+00  0.00000000000E+00  0.37754696137E+02  0.37754696223E+02  0.25500000000E-02 0. -1.
          2   -1    0    0  501    0  0.00000000000E+00 -0.00000000000E+00 -0.85639333481E+03  0.85639333481E+03  0.25500000000E-02 0.  1.
    5000001    1    1    2    0    0  0.58002620635E+02 -0.10317963879E+03 -0.29287215390E+03  0.34046062973E+03  0.12700000000E+03 0.  0.
   -5000001    1    1    2    0    0 -0.58002620635E+02  0.10317963879E+03 -0.52576648476E+03  0.55368740130E+03  0.12700000000E+03 0.  0.
<mgrwt>
<rscale>  0 0.35962686E+03</rscale>
<asrwt>0</asrwt>
<pdfrwt beam="1">  1        2 0.12234189E+00 0.35962686E+03</pdfrwt>
<pdfrwt beam="2">  1       -2 0.53935286E-02 0.35962686E+03</pdfrwt>
<totfact> 0.62686095E+03</totfact>
</mgrwt>
</event>
<event>
 4    1  0.1351183E-004  0.3467519E+03  0.7818608E-02  0.1063956E+00
          2   -1    0    0  501    0  0.00000000000E+00  0.00000000000E+00  0.19291497672E+03  0.19291497674E+03  0.25500000000E-02 0.  1.
         -2   -1    0    0    0  501 -0.00000000000E+00 -0.00000000000E+00 -0.15581593392E+03  0.15581593394E+03  0.25500000000E-02 0. -1.
    5000001    1    1    2    0    0  0.96062797645E+02  0.65111704758E+02  0.40181159895E+02  0.17666669408E+03  0.12700000000E+03 0.  0.
   -5000001    1    1    2    0    0 -0.96062797645E+02 -0.65111704758E+02 -0.30821170975E+01  0.17206421660E+03  0.12700000000E+03 0.  0.
<mgrwt>
<rscale>  0 0.34675194E+03</rscale>
<asrwt>0</asrwt>
<pdfrwt beam="1">  1        2 0.27559283E-01 0.34675194E+03</pdfrwt>
<pdfrwt beam="2">  1       -2 0.22259419E-01 0.34675194E+03</pdfrwt>
<totfact> 0.33766539E+03</totfact>
</mgrwt>
</event>
<event>
 4    1  0.1351183E-004  0.4193752E+03  0.7818608E-02  0.1037270E+00
         -2   -1    0    0    0  501 -0.00000000000E+00  0.00000000000E+00  0.54612628079E+02  0.54612628138E+02  0.25500000000E-02 0. -1.
          2   -1    0    0  501    0  0.00000000000E+00 -0.00000000000E+00 -0.80510483020E+03  0.80510483021E+03  0.25500000000E-02 0.  1.
    5000001    1    1    2    0    0  0.11185627894E+03 -0.12296812329E+03 -0.40473358044E+03  0.45559988764E+03  0.12700000000E+03 0.  0.
   -5000001    1    1    2    0    0 -0.11185627894E+03  0.12296812329E+03 -0.34575862168E+03  0.40411757070E+03  0.12700000000E+03 0.  0.
<mgrwt>
<rscale>  0 0.41937521E+03</rscale>
<asrwt>0</asrwt>
<pdfrwt beam="1">  1        2 0.11501497E+00 0.41937521E+03</pdfrwt>
<pdfrwt beam="2">  1       -2 0.78018045E-02 0.41937521E+03</pdfrwt>
<totfact> 0.38278687E+03</totfact>
</mgrwt>
</event>
<event>
 4    1  0.1351183E-004  0.3615655E+03  0.7818608E-02  0.1057966E+00
          2   -1    0    0  501    0  0.00000000000E+00  0.00000000000E+00  0.18488237997E+04  0.18488237997E+04  0.25500000000E-02 0.  1.
         -2   -1    0    0    0  501 -0.00000000000E+00 -0.00000000000E+00 -0.17677406540E+02  0.17677406724E+02  0.25500000000E-02 0. -1.
    5000001    1    1    2    0    0  0.12668336572E+03 -0.18328976988E+02  0.98263979942E+03  0.99904684672E+03  0.12700000000E+03 0.  0.
   -5000001    1    1    2    0    0 -0.12668336572E+03  0.18328976988E+02  0.84850659377E+03  0.86745435973E+03  0.12700000000E+03 0.  0.
<mgrwt>
<rscale>  0 0.36156554E+03</rscale>
<asrwt>0</asrwt>
<pdfrwt beam="1">  1        2 0.26411763E+00 0.36156554E+03</pdfrwt>
<pdfrwt beam="2">  1       -2 0.25253443E-02 0.36156554E+03</pdfrwt>
<totfact> 0.57422047E+03</totfact>
</mgrwt>
</event>
<event>
 4    1  0.1351183E-004  0.7794163E+03  0.7818608E-02  0.9590299E-01
         -2   -1    0    0    0  501 -0.00000000000E+00  0.00000000000E+00  0.24618084006E+03  0.24618084008E+03  0.25500000000E-02 0. -1.
          2   -1    0    0  501    0  0.00000000000E+00 -0.00000000000E+00 -0.61691407166E+03  0.61691407167E+03  0.25500000000E-02 0.  1.
    5000001    1    1    2    0    0  0.68693118972E+02  0.29184779603E+03  0.51747062104E+02  0.32969779963E+03  0.12700000000E+03 0.  0.
   -5000001    1    1    2    0    0 -0.68693118972E+02 -0.29184779603E+03 -0.42248029371E+03  0.53339711212E+03  0.12700000000E+03 0.  0.
<mgrwt>
<rscale>  0 0.77941625E+03</rscale>
<asrwt>0</asrwt>
<pdfrwt beam="1">  1        2 0.88130581E-01 0.77941625E+03</pdfrwt>
<pdfrwt beam="2">  1       -2 0.35168692E-01 0.77941625E+03</pdfrwt>
<totfact> 0.40013561E+02</totfact>
</mgrwt>
</event>
<event>
 4    1  0.1351183E-004  0.3988800E+03  0.7818608E-02  0.1044168E+00
         -2   -1    0    0    0  501 -0.00000000000E+00  0.00000000000E+00  0.54843654278E+03  0.54843654279E+03  0.25500000000E-02 0. -1.
          2   -1    0    0  501    0  0.00000000000E+00 -0.00000000000E+00 -0.72526742351E+02  0.72526742396E+02  0.25500000000E-02 0.  1.
    5000001    1    1    2    0    0 -0.67942497993E+02  0.11497332863E+03  0.11926974288E+03  0.21952066166E+03  0.12700000000E+03 0.  0.
   -5000001    1    1    2    0    0  0.67942497993E+02 -0.11497332863E+03  0.35664005755E+03  0.40144262352E+03  0.12700000000E+03 0.  0.
<mgrwt>
<rscale>  0 0.39888001E+03</rscale>
<asrwt>0</asrwt>
<pdfrwt beam="1">  1        2 0.10360964E-01 0.39888001E+03</pdfrwt>
<pdfrwt beam="2">  1       -2 0.78348075E-01 0.39888001E+03</pdfrwt>
<totfact> 0.92135939E+02</totfact>
</mgrwt>
</event>
<event>
 4    1  0.1351183E-004  0.3382506E+03  0.7818608E-02  0.1067543E+00
          2   -1    0    0  501    0  0.00000000000E+00  0.00000000000E+00  0.14034952938E+04  0.14034952938E+04  0.25500000000E-02 0.  1.
         -2   -1    0    0    0  501 -0.00000000000E+00 -0.00000000000E+00 -0.20380096962E+02  0.20380097122E+02  0.25500000000E-02 0. -1.
    5000001    1    1    2    0    0  0.27612442448E+01 -0.11079029714E+03  0.63318981544E+03  0.65524076246E+03  0.12700000000E+03 0.  0.
   -5000001    1    1    2    0    0 -0.27612442448E+01  0.11079029714E+03  0.74992538139E+03  0.76863462846E+03  0.12700000000E+03 0.  0.
<mgrwt>
<rscale>  0 0.33825062E+03</rscale>
<asrwt>0</asrwt>
<pdfrwt beam="1">  1        2 0.20049933E+00 0.33825062E+03</pdfrwt>
<pdfrwt beam="2">  1       -2 0.29114424E-02 0.33825062E+03</pdfrwt>
<totfact> 0.77731580E+03</totfact>
</mgrwt>
</event>
<event>
 4    1  0.1351183E-004  0.3988790E+03  0.7818608E-02  0.1044169E+00
         -2   -1    0    0    0  501 -0.00000000000E+00  0.00000000000E+00  0.44181100020E+03  0.44181100020E+03  0.25500000000E-02 0. -1.
          2   -1    0    0  501    0  0.00000000000E+00 -0.00000000000E+00 -0.90029708240E+02  0.90029708276E+02  0.25500000000E-02 0.  1.
    5000001    1    1    2    0    0 -0.66711597898E+02  0.70601501107E+02  0.33484397171E+03  0.37105861349E+03  0.12700000000E+03 0.  0.
   -5000001    1    1    2    0    0  0.66711597898E+02 -0.70601501107E+02  0.16937320245E+02  0.16078209499E+03  0.12700000000E+03 0.  0.
<mgrwt>
<rscale>  0 0.39887901E+03</rscale>
<asrwt>0</asrwt>
<pdfrwt beam="1">  1        2 0.12861387E-01 0.39887901E+03</pdfrwt>
<pdfrwt beam="2">  1       -2 0.63115857E-01 0.39887901E+03</pdfrwt>
<totfact> 0.11249586E+03</totfact>
</mgrwt>
</event>
<event>
 4    1  0.1351183E-004  0.6153883E+03  0.7818608E-02  0.9873985E-01
         -2   -1    0    0    0  501 -0.00000000000E+00  0.00000000000E+00  0.65292127075E+02  0.65292127125E+02  0.25500000000E-02 0. -1.
          2   -1    0    0  501    0  0.00000000000E+00 -0.00000000000E+00 -0.14500323464E+04  0.14500323464E+04  0.25500000000E-02 0.  1.
    5000001    1    1    2    0    0 -0.10079840949E+03  0.22568735325E+03 -0.10176625397E+04  0.10549223410E+04  0.12700000000E+03 0.  0.
   -5000001    1    1    2    0    0  0.10079840949E+03 -0.22568735325E+03 -0.36707767957E+03  0.46040213250E+03  0.12700000000E+03 0.  0.
<mgrwt>
<rscale>  0 0.61538832E+03</rscale>
<asrwt>0</asrwt>
<pdfrwt beam="1">  1        2 0.20714746E+00 0.61538832E+03</pdfrwt>
<pdfrwt beam="2">  1       -2 0.93274476E-02 0.61538832E+03</pdfrwt>
<totfact> 0.12104527E+03</totfact>
</mgrwt>
</event>
<event>
 4    1  0.1351183E-004  0.6786230E+03  0.7818608E-02  0.9754505E-01
          2   -1    0    0  501    0  0.00000000000E+00  0.00000000000E+00  0.48183033826E+03  0.48183033826E+03  0.25500000000E-02 0.  1.
         -2   -1    0    0    0  501 -0.00000000000E+00 -0.00000000000E+00 -0.23894780265E+03  0.23894780267E+03  0.25500000000E-02 0. -1.
    5000001    1    1    2    0    0  0.12196971222E+03 -0.28629638082E+03  0.17081633053E+03  0.37702711725E+03  0.12700000000E+03 0.  0.
   -5000001    1    1    2    0    0 -0.12196971222E+03  0.28629638082E+03  0.72066205073E+02  0.34375102368E+03  0.12700000000E+03 0.  0.
<mgrwt>
<rscale>  0 0.67862302E+03</rscale>
<asrwt>0</asrwt>
<pdfrwt beam="1">  1        2 0.68832905E-01 0.67862302E+03</pdfrwt>
<pdfrwt beam="2">  1       -2 0.34135401E-01 0.67862302E+03</pdfrwt>
<totfact> 0.56594655E+02</totfact>
</mgrwt>
</event>
<event>
 4    1  0.1351183E-004  0.4411580E+03  0.7818608E-02  0.1030392E+00
          2   -1    0    0  501    0  0.00000000000E+00  0.00000000000E+00  0.18239703802E+03  0.18239703803E+03  0.25500000000E-02 0.  1.
         -2   -1    0    0    0  501 -0.00000000000E+00 -0.00000000000E+00 -0.26675375103E+03  0.26675375104E+03  0.25500000000E-02 0. -1.
    5000001    1    1    2    0    0 -0.10015576584E+03 -0.11788734895E+02 -0.19440634326E+03  0.25316591003E+03  0.12700000000E+03 0.  0.
   -5000001    1    1    2    0    0  0.10015576584E+03  0.11788734895E+02  0.11004963024E+03  0.19598487905E+03  0.12700000000E+03 0.  0.
<mgrwt>
<rscale>  0 0.44115799E+03</rscale>
<asrwt>0</asrwt>
<pdfrwt beam="1">  1        2 0.26056720E-01 0.44115799E+03</pdfrwt>
<pdfrwt beam="2">  1       -2 0.38107678E-01 0.44115799E+03</pdfrwt>
<totfact> 0.13536802E+03</totfact>
</mgrwt>
</event>
<event>
 4    1  0.1351183E-004  0.8470055E+03  0.7818608E-02  0.9494365E-01
          2   -1    0    0  501    0  0.00000000000E+00  0.00000000000E+00  0.16596675500E+04  0.16596675500E+04  0.25500000000E-02 0.  1.
         -2   -1    0    0    0  501 -0.00000000000E+00 -0.00000000000E+00 -0.10806655902E+03  0.10806655905E+03  0.25500000000E-02 0. -1.
    5000001    1    1    2    0    0 -0.15704645744E+03 -0.36080769779E+03  0.58475053340E+03  0.71617593571E+03  0.12700000000E+03 0.  0.
   -5000001    1    1    2    0    0  0.15704645744E+03  0.36080769779E+03  0.96685045758E+03  0.10515581733E+04  0.12700000000E+03 0.  0.
<mgrwt>
<rscale>  0 0.84700546E+03</rscale>
<asrwt>0</asrwt>
<pdfrwt beam="1">  1        2 0.23709536E+00 0.84700546E+03</pdfrwt>
<pdfrwt beam="2">  1       -2 0.15438080E-01 0.84700546E+03</pdfrwt>
<totfact> 0.40463323E+02</totfact>
</mgrwt>
</event>
<event>
 4    1  0.1351183E-004  0.4413997E+03  0.7818608E-02  0.1030318E+00
         -2   -1    0    0    0  501 -0.00000000000E+00  0.00000000000E+00  0.31599340939E+02  0.31599341042E+02  0.25500000000E-02 0. -1.
          2   -1    0    0  501    0  0.00000000000E+00 -0.00000000000E+00 -0.15414377861E+04  0.15414377861E+04  0.25500000000E-02 0.  1.
    5000001    1    1    2    0    0  0.10245842798E+03  0.14027793661E+03 -0.58019417829E+03  0.61881331069E+03  0.12700000000E+03 0.  0.
   -5000001    1    1    2    0    0 -0.10245842798E+03 -0.14027793661E+03 -0.92964426682E+03  0.95422381641E+03  0.12700000000E+03 0.  0.
<mgrwt>
<rscale>  0 0.44139967E+03</rscale>
<asrwt>0</asrwt>
<pdfrwt beam="1">  1        2 0.22020535E+00 0.44139967E+03</pdfrwt>
<pdfrwt beam="2">  1       -2 0.45141925E-02 0.44139967E+03</pdfrwt>
<totfact> 0.34042210E+03</totfact>
</mgrwt>
</event>
<event>
 4    1  0.1351183E-004  0.4756687E+03  0.7818608E-02  0.1020332E+00
          2   -1    0    0  501    0  0.00000000000E+00  0.00000000000E+00  0.23485757930E+04  0.23485757930E+04  0.25500000000E-02 0.  1.
         -2   -1    0    0    0  501 -0.00000000000E+00 -0.00000000000E+00 -0.24084880302E+02  0.24084880437E+02  0.25500000000E-02 0. -1.
    5000001    1    1    2    0    0  0.18068670401E+03  0.83758111362E+01  0.72402493730E+03  0.75700657134E+03  0.12700000000E+03 0.  0.
   -5000001    1    1    2    0    0 -0.18068670401E+03 -0.83758111362E+01  0.16004659754E+04  0.16156541021E+04  0.12700000000E+03 0.  0.
<mgrwt>
<rscale>  0 0.47566865E+03</rscale>
<asrwt>0</asrwt>
<pdfrwt beam="1">  1        2 0.33551064E+00 0.47566865E+03</pdfrwt>
<pdfrwt beam="2">  1       -2 0.34406991E-02 0.47566865E+03</pdfrwt>
<totfact> 0.20284501E+03</totfact>
</mgrwt>
</event>
<event>
 4    1  0.1351183E-004  0.3558325E+03  0.7818608E-02  0.1060246E+00
         -2   -1    0    0    0  501 -0.00000000000E+00  0.00000000000E+00  0.13493528852E+02  0.13493529093E+02  0.25500000000E-02 0. -1.
          2   -1    0    0  501    0  0.00000000000E+00 -0.00000000000E+00 -0.23458799158E+04  0.23458799158E+04  0.25500000000E-02 0.  1.
    5000001    1    1    2    0    0 -0.10571020341E+03  0.79514902693E+01 -0.73203875146E+03  0.75049823914E+03  0.12700000000E+03 0.  0.
   -5000001    1    1    2    0    0  0.10571020341E+03 -0.79514902693E+01 -0.16003476355E+04  0.16088752057E+04  0.12700000000E+03 0.  0.
<mgrwt>
<rscale>  0 0.35583254E+03</rscale>
<asrwt>0</asrwt>
<pdfrwt beam="1">  1        2 0.33512544E+00 0.35583254E+03</pdfrwt>
<pdfrwt beam="2">  1       -2 0.19276485E-02 0.35583254E+03</pdfrwt>
<totfact> 0.48744217E+03</totfact>
</mgrwt>
</event>
<event>
 4    1  0.1351183E-004  0.5022805E+03  0.7818608E-02  0.1013185E+00
          2   -1    0    0  501    0  0.00000000000E+00  0.00000000000E+00  0.24335695224E+04  0.24335695224E+04  0.25500000000E-02 0.  1.
         -2   -1    0    0    0  501 -0.00000000000E+00 -0.00000000000E+00 -0.25917246697E+02  0.25917246823E+02  0.25500000000E-02 0. -1.
    5000001    1    1    2    0    0 -0.92628284570E+02  0.12848781030E+03  0.19276897589E+04  0.19383513415E+04  0.12700000000E+03 0.  0.
   -5000001    1    1    2    0    0  0.92628284570E+02 -0.12848781030E+03  0.47996251676E+03  0.52113542769E+03  0.12700000000E+03 0.  0.
<mgrwt>
<rscale>  0 0.50228049E+03</rscale>
<asrwt>0</asrwt>
<pdfrwt beam="1">  1        2 0.34765268E+00 0.50228049E+03</pdfrwt>
<pdfrwt beam="2">  1       -2 0.37024650E-02 0.50228049E+03</pdfrwt>
<totfact> 0.16407928E+03</totfact>
</mgrwt>
</event>
<event>
 4    1  0.1351183E-004  0.3513025E+03  0.7818608E-02  0.1062082E+00
         -2   -1    0    0    0  501 -0.00000000000E+00  0.00000000000E+00  0.42244406281E+02  0.42244406358E+02  0.25500000000E-02 0. -1.
          2   -1    0    0  501    0  0.00000000000E+00 -0.00000000000E+00 -0.73035374894E+03  0.73035374894E+03  0.25500000000E-02 0.  1.
    5000001    1    1    2    0    0  0.51383229732E+02 -0.59134886319E+02 -0.54785175099E+03  0.56780957384E+03  0.12700000000E+03 0.  0.
   -5000001    1    1    2    0    0 -0.51383229732E+02  0.59134886319E+02 -0.14025759167E+03  0.20478858146E+03  0.12700000000E+03 0.  0.
<mgrwt>
<rscale>  0 0.35130249E+03</rscale>
<asrwt>0</asrwt>
<pdfrwt beam="1">  1        2 0.10433624E+00 0.35130249E+03</pdfrwt>
<pdfrwt beam="2">  1       -2 0.60349156E-02 0.35130249E+03</pdfrwt>
<totfact> 0.64270781E+03</totfact>
</mgrwt>
</event>
<event>
 4    1  0.1351183E-004  0.2838876E+03  0.7818608E-02  0.1093584E+00
         -2   -1    0    0    0  501 -0.00000000000E+00  0.00000000000E+00  0.49301005038E+02  0.49301005104E+02  0.25500000000E-02 0. -1.
          2   -1    0    0  501    0  0.00000000000E+00 -0.00000000000E+00 -0.40867418523E+03  0.40867418524E+03  0.25500000000E-02 0.  1.
    5000001    1    1    2    0    0 -0.52598225990E+00  0.53204996584E+02 -0.23529028399E+03  0.27261981964E+03  0.12700000000E+03 0.  0.
   -5000001    1    1    2    0    0  0.52598225990E+00 -0.53204996584E+02 -0.12408289620E+03  0.18535537070E+03  0.12700000000E+03 0.  0.
<mgrwt>
<rscale>  0 0.28388764E+03</rscale>
<asrwt>0</asrwt>
<pdfrwt beam="1">  1        2 0.58382025E-01 0.28388764E+03</pdfrwt>
<pdfrwt beam="2">  1       -2 0.70430009E-02 0.28388764E+03</pdfrwt>
<totfact> 0.97114650E+03</totfact>
</mgrwt>
</event>
<event>
 4    1  0.1351183E-004  0.6750384E+03  0.7818608E-02  0.9760898E-01
          2   -1    0    0  501    0  0.00000000000E+00  0.00000000000E+00  0.24205205021E+03  0.24205205022E+03  0.25500000000E-02 0.  1.
         -2   -1    0    0    0  501 -0.00000000000E+00 -0.00000000000E+00 -0.47063936000E+03  0.47063936001E+03  0.25500000000E-02 0. -1.
    5000001    1    1    2    0    0 -0.14496618902E+02 -0.30946055814E+03 -0.69323999960E+02  0.34192222211E+03  0.12700000000E+03 0.  0.
   -5000001    1    1    2    0    0  0.14496618902E+02  0.30946055814E+03 -0.15926330983E+03  0.37076918812E+03  0.12700000000E+03 0.  0.
<mgrwt>
<rscale>  0 0.67503843E+03</rscale>
<asrwt>0</asrwt>
<pdfrwt beam="1">  1        2 0.34578864E-01 0.67503843E+03</pdfrwt>
<pdfrwt beam="2">  1       -2 0.67234195E-01 0.67503843E+03</pdfrwt>
<totfact> 0.31058800E+02</totfact>
</mgrwt>
</event>
<event>
 4    1  0.1351183E-004  0.3154119E+03  0.7818608E-02  0.1077780E+00
          2   -1    0    0  501    0  0.00000000000E+00  0.00000000000E+00  0.85160087978E+03  0.85160087978E+03  0.25500000000E-02 0.  1.
         -2   -1    0    0    0  501 -0.00000000000E+00 -0.00000000000E+00 -0.29205199953E+02  0.29205200065E+02  0.25500000000E-02 0. -1.
    5000001    1    1    2    0    0 -0.16038104443E+02 -0.71011654885E+02  0.57504027862E+03  0.59338031477E+03  0.12700000000E+03 0.  0.
   -5000001    1    1    2    0    0  0.16038104443E+02  0.71011654885E+02  0.24735540120E+03  0.28742576507E+03  0.12700000000E+03 0.  0.
<mgrwt>
<rscale>  0 0.31541195E+03</rscale>
<asrwt>0</asrwt>
<pdfrwt beam="1">  1        2 0.12165726E+00 0.31541195E+03</pdfrwt>
<pdfrwt beam="2">  1       -2 0.41721717E-02 0.31541195E+03</pdfrwt>
<totfact> 0.93073983E+03</totfact>
</mgrwt>
</event>
<event>
 4    1  0.1351183E-004  0.5415146E+03  0.7818608E-02  0.1003477E+00
          2   -1    0    0  501    0  0.00000000000E+00  0.00000000000E+00  0.12369822598E+04  0.12369822598E+04  0.25500000000E-02 0.  1.
         -2   -1    0    0    0  501 -0.00000000000E+00 -0.00000000000E+00 -0.59264807782E+02  0.59264807837E+02  0.25500000000E-02 0. -1.
    5000001    1    1    2    0    0 -0.77702389446E+02 -0.16758669191E+03  0.22537560821E+03  0.31787753209E+03  0.12700000000E+03 0.  0.
   -5000001    1    1    2    0    0  0.77702389446E+02  0.16758669191E+03  0.95234184383E+03  0.97836953558E+03  0.12700000000E+03 0.  0.
<mgrwt>
<rscale>  0 0.54151460E+03</rscale>
<asrwt>0</asrwt>
<pdfrwt beam="1">  1        2 0.17671175E+00 0.54151460E+03</pdfrwt>
<pdfrwt beam="2">  1       -2 0.84664014E-02 0.54151460E+03</pdfrwt>
<totfact> 0.18446237E+03</totfact>
</mgrwt>
</event>
<event>
 4    1  0.1351183E-004  0.4809402E+03  0.7818608E-02  0.1018877E+00
         -2   -1    0    0    0  501 -0.00000000000E+00  0.00000000000E+00  0.92714733139E+02  0.92714733174E+02  0.25500000000E-02 0. -1.
          2   -1    0    0  501    0  0.00000000000E+00 -0.00000000000E+00 -0.62369664604E+03  0.62369664604E+03  0.25500000000E-02 0.  1.
    5000001    1    1    2    0    0  0.15977812282E+03 -0.88955354977E+02 -0.40083019862E+03  0.45851494178E+03  0.12700000000E+03 0.  0.
   -5000001    1    1    2    0    0 -0.15977812282E+03  0.88955354977E+02 -0.13015171428E+03  0.25789643744E+03  0.12700000000E+03 0.  0.
<mgrwt>
<rscale>  0 0.48094020E+03</rscale>
<asrwt>0</asrwt>
<pdfrwt beam="1">  1        2 0.89099518E-01 0.48094020E+03</pdfrwt>
<pdfrwt beam="2">  1       -2 0.13244962E-01 0.48094020E+03</pdfrwt>
<totfact> 0.22267515E+03</totfact>
</mgrwt>
</event>
<event>
 4    1  0.1351183E-004  0.4426695E+03  0.7818608E-02  0.1029931E+00
         -2   -1    0    0    0  501 -0.00000000000E+00  0.00000000000E+00  0.83745913376E+02  0.83745913415E+02  0.25500000000E-02 0. -1.
          2   -1    0    0  501    0  0.00000000000E+00 -0.00000000000E+00 -0.58497263537E+03  0.58497263538E+03  0.25500000000E-02 0.  1.
    5000001    1    1    2    0    0  0.37416815138E+02  0.13859953994E+03 -0.83413589212E+02  0.20903750236E+03  0.12700000000E+03 0.  0.
   -5000001    1    1    2    0    0 -0.37416815138E+02 -0.13859953994E+03 -0.41781313278E+03  0.45968104644E+03  0.12700000000E+03 0.  0.
<mgrwt>
<rscale>  0 0.44266948E+03</rscale>
<asrwt>0</asrwt>
<pdfrwt beam="1">  1        2 0.83567517E-01 0.44266948E+03</pdfrwt>
<pdfrwt beam="2">  1       -2 0.11963702E-01 0.44266948E+03</pdfrwt>
<totfact> 0.28345473E+03</totfact>
</mgrwt>
</event>
<event>
 4    1  0.1351183E-004  0.5796834E+03  0.7818608E-02  0.9948477E-01
          2   -1    0    0  501    0  0.00000000000E+00  0.00000000000E+00  0.21519330247E+04  0.21519330247E+04  0.25500000000E-02 0.  1.
         -2   -1    0    0    0  501 -0.00000000000E+00 -0.00000000000E+00 -0.39038491993E+02  0.39038492076E+02  0.25500000000E-02 0. -1.
    5000001    1    1    2    0    0  0.20583407249E+03 -0.15800428620E+03  0.96811449693E+03  0.10103007963E+04  0.12700000000E+03 0.  0.
   -5000001    1    1    2    0    0 -0.20583407249E+03  0.15800428620E+03  0.11447800358E+04  0.11806707204E+04  0.12700000000E+03 0.  0.
<mgrwt>
<rscale>  0 0.57968343E+03</rscale>
<asrwt>0</asrwt>
<pdfrwt beam="1">  1        2 0.30741912E+00 0.57968343E+03</pdfrwt>
<pdfrwt beam="2">  1       -2 0.55769253E-02 0.57968343E+03</pdfrwt>
<totfact> 0.12047017E+03</totfact>
</mgrwt>
</event>
<event>
 4    1  0.1351183E-004  0.5367594E+03  0.7818608E-02  0.1004606E+00
         -2   -1    0    0    0  501 -0.00000000000E+00  0.00000000000E+00  0.11031545154E+03  0.11031545157E+03  0.25500000000E-02 0. -1.
          2   -1    0    0  501    0  0.00000000000E+00 -0.00000000000E+00 -0.65292445662E+03  0.65292445662E+03  0.25500000000E-02 0.  1.
    5000001    1    1    2    0    0 -0.17649737416E+03 -0.15664284470E+03 -0.25068134518E+03  0.36695836372E+03  0.12700000000E+03 0.  0.
   -5000001    1    1    2    0    0  0.17649737416E+03  0.15664284470E+03 -0.29192765989E+03  0.39628154447E+03  0.12700000000E+03 0.  0.
<mgrwt>
<rscale>  0 0.53675937E+03</rscale>
<asrwt>0</asrwt>
<pdfrwt beam="1">  1        2 0.93274920E-01 0.53675937E+03</pdfrwt>
<pdfrwt beam="2">  1       -2 0.15759351E-01 0.53675937E+03</pdfrwt>
<totfact> 0.15777661E+03</totfact>
</mgrwt>
</event>
<event>
 4    1  0.1351183E-004  0.9090243E+03  0.7818608E-02  0.9414370E-01
         -2   -1    0    0    0  501 -0.00000000000E+00  0.00000000000E+00  0.31843849564E+03  0.31843849565E+03  0.25500000000E-02 0. -1.
          2   -1    0    0  501    0  0.00000000000E+00 -0.00000000000E+00 -0.64873218683E+03  0.64873218683E+03  0.25500000000E-02 0.  1.
    5000001    1    1    2    0    0  0.37790725521E+03 -0.53221269333E+02  0.60067083801E+02  0.40667364262E+03  0.12700000000E+03 0.  0.
   -5000001    1    1    2    0    0 -0.37790725521E+03  0.53221269333E+02 -0.39036077499E+03  0.56049703986E+03  0.12700000000E+03 0.  0.
<mgrwt>
<rscale>  0 0.90902432E+03</rscale>
<asrwt>0</asrwt>
<pdfrwt beam="1">  1        2 0.92676026E-01 0.90902432E+03</pdfrwt>
<pdfrwt beam="2">  1       -2 0.45491214E-01 0.90902432E+03</pdfrwt>
<totfact> 0.22680534E+02</totfact>
</mgrwt>
</event>
<event>
 4    1  0.1351183E-004  0.6072189E+03  0.7818608E-02  0.9890541E-01
          2   -1    0    0  501    0  0.00000000000E+00  0.00000000000E+00  0.14860362782E+04  0.14860362782E+04  0.25500000000E-02 0.  1.
         -2   -1    0    0    0  501 -0.00000000000E+00 -0.00000000000E+00 -0.62029903844E+02  0.62029903896E+02  0.25500000000E-02 0. -1.
    5000001    1    1    2    0    0  0.19456134051E+03  0.27588849536E+02  0.12052676939E+04  0.12277680863E+04  0.12700000000E+03 0.  0.
   -5000001    1    1    2    0    0 -0.19456134051E+03 -0.27588849536E+02  0.21873868050E+03  0.32029809582E+03  0.12700000000E+03 0.  0.
<mgrwt>
<rscale>  0 0.60721886E+03</rscale>
<asrwt>0</asrwt>
<pdfrwt beam="1">  1        2 0.21229092E+00 0.60721886E+03</pdfrwt>
<pdfrwt beam="2">  1       -2 0.88614140E-02 0.60721886E+03</pdfrwt>
<totfact> 0.12589924E+03</totfact>
</mgrwt>
</event>
<event>
 4    1  0.1351183E-004  0.3662243E+03  0.7818608E-02  0.1056146E+00
          2   -1    0    0  501    0  0.00000000000E+00  0.00000000000E+00  0.21565405425E+04  0.21565405425E+04  0.25500000000E-02 0.  1.
         -2   -1    0    0    0  501 -0.00000000000E+00 -0.00000000000E+00 -0.15548079656E+02  0.15548079866E+02  0.25500000000E-02 0. -1.
    5000001    1    1    2    0    0  0.12815659476E+03  0.62624397090E+01  0.88887356311E+03  0.90702179804E+03  0.12700000000E+03 0.  0.
   -5000001    1    1    2    0    0 -0.12815659476E+03 -0.62624397090E+01  0.12521188998E+04  0.12650668244E+04  0.12700000000E+03 0.  0.
<mgrwt>
<rscale>  0 0.36622433E+03</rscale>
<asrwt>0</asrwt>
<pdfrwt beam="1">  1        2 0.30807701E+00 0.36622433E+03</pdfrwt>
<pdfrwt beam="2">  1       -2 0.22211558E-02 0.36622433E+03</pdfrwt>
<totfact> 0.49016441E+03</totfact>
</mgrwt>
</event>
<event>
 4    1  0.1351183E-004  0.2655315E+03  0.7818608E-02  0.1103865E+00
         -2   -1    0    0    0  501 -0.00000000000E+00  0.00000000000E+00  0.89422567303E+01  0.89422570939E+01  0.25500000000E-02 0. -1.
          2   -1    0    0  501    0  0.00000000000E+00 -0.00000000000E+00 -0.19711734054E+04  0.19711734054E+04  0.25500000000E-02 0.  1.
    5000001    1    1    2    0    0  0.12809155790E+02  0.18665284696E+02 -0.12151892516E+04  0.12220173421E+04  0.12700000000E+03 0.  0.
   -5000001    1    1    2    0    0 -0.12809155790E+02 -0.18665284696E+02 -0.74704189709E+03  0.75809832036E+03  0.12700000000E+03 0.  0.
<mgrwt>
<rscale>  0 0.26553146E+03</rscale>
<asrwt>0</asrwt>
<pdfrwt beam="1">  1        2 0.28159592E+00 0.26553146E+03</pdfrwt>
<pdfrwt beam="2">  1       -2 0.12774665E-02 0.26553146E+03</pdfrwt>
<totfact> 0.13602100E+04</totfact>
</mgrwt>
</event>
<event>
 4    1  0.1351183E-004  0.4552923E+03  0.7818608E-02  0.1026155E+00
          2   -1    0    0  501    0  0.00000000000E+00  0.00000000000E+00  0.10281988723E+04  0.10281988723E+04  0.25500000000E-02 0.  1.
         -2   -1    0    0    0  501 -0.00000000000E+00 -0.00000000000E+00 -0.50401505869E+02  0.50401505933E+02  0.25500000000E-02 0. -1.
    5000001    1    1    2    0    0 -0.10391419965E+03 -0.47431548737E+02  0.13239448169E+03  0.21611388546E+03  0.12700000000E+03 0.  0.
   -5000001    1    1    2    0    0  0.10391419965E+03  0.47431548737E+02  0.84540288478E+03  0.86248649282E+03  0.12700000000E+03 0.  0.
<mgrwt>
<rscale>  0 0.45529231E+03</rscale>
<asrwt>0</asrwt>
<pdfrwt beam="1">  1        2 0.14688555E+00 0.45529231E+03</pdfrwt>
<pdfrwt beam="2">  1       -2 0.72002152E-02 0.45529231E+03</pdfrwt>
<totfact> 0.31392708E+03</totfact>
</mgrwt>
</event>
<event>
 4    1  0.1351183E-004  0.6071267E+03  0.7818608E-02  0.9890730E-01
         -2   -1    0    0    0  501 -0.00000000000E+00  0.00000000000E+00  0.62278467450E+02  0.62278467502E+02  0.25500000000E-02 0. -1.
          2   -1    0    0  501    0  0.00000000000E+00 -0.00000000000E+00 -0.14796561728E+04  0.14796561728E+04  0.25500000000E-02 0.  1.
    5000001    1    1    2    0    0  0.18383290481E+03 -0.16405207456E+03 -0.39439757545E+03  0.48206438116E+03  0.12700000000E+03 0.  0.
   -5000001    1    1    2    0    0 -0.18383290481E+03  0.16405207456E+03 -0.10229801299E+04  0.10598702591E+04  0.12700000000E+03 0.  0.
<mgrwt>
<rscale>  0 0.60712674E+03</rscale>
<asrwt>0</asrwt>
<pdfrwt beam="1">  1        2 0.21137943E+00 0.60712674E+03</pdfrwt>
<pdfrwt beam="2">  1       -2 0.88969249E-02 0.60712674E+03</pdfrwt>
<totfact> 0.12605841E+03</totfact>
</mgrwt>
</event>
<event>
 4    1  0.1351183E-004  0.3590511E+03  0.7818608E-02  0.1058960E+00
          2   -1    0    0  501    0  0.00000000000E+00  0.00000000000E+00  0.24492564505E+03  0.24492564506E+03  0.25500000000E-02 0.  1.
         -2   -1    0    0    0  501 -0.00000000000E+00 -0.00000000000E+00 -0.13158858628E+03  0.13158858631E+03  0.25500000000E-02 0. -1.
    5000001    1    1    2    0    0 -0.66317227796E+02 -0.10810165837E+03  0.60925031651E+02  0.18953839381E+03  0.12700000000E+03 0.  0.
   -5000001    1    1    2    0    0  0.66317227796E+02  0.10810165837E+03  0.52412027116E+02  0.18697583756E+03  0.12700000000E+03 0.  0.
<mgrwt>
<rscale>  0 0.35905108E+03</rscale>
<asrwt>0</asrwt>
<pdfrwt beam="1">  1        2 0.34989378E-01 0.35905108E+03</pdfrwt>
<pdfrwt beam="2">  1       -2 0.18798370E-01 0.35905108E+03</pdfrwt>
<totfact> 0.34758504E+03</totfact>
</mgrwt>
</event>
<event>
 4    1  0.1351183E-004  0.4509962E+03  0.7818608E-02  0.1027425E+00
         -2   -1    0    0    0  501 -0.00000000000E+00  0.00000000000E+00  0.22234065385E+03  0.22234065386E+03  0.25500000000E-02 0. -1.
          2   -1    0    0  501    0  0.00000000000E+00 -0.00000000000E+00 -0.22870035539E+03  0.22870035540E+03  0.25500000000E-02 0.  1.
    5000001    1    1    2    0    0  0.10354787089E+03 -0.12295723861E+03  0.91061903313E+02  0.22419169103E+03  0.12700000000E+03 0.  0.
   -5000001    1    1    2    0    0 -0.10354787089E+03  0.12295723861E+03 -0.97421604854E+02  0.22684931824E+03  0.12700000000E+03 0.  0.
<mgrwt>
<rscale>  0 0.45099617E+03</rscale>
<asrwt>0</asrwt>
<pdfrwt beam="1">  1        2 0.32671479E-01 0.45099617E+03</pdfrwt>
<pdfrwt beam="2">  1       -2 0.31762951E-01 0.45099617E+03</pdfrwt>
<totfact> 0.14813536E+03</totfact>
</mgrwt>
</event>
<event>
 4    1  0.1351183E-004  0.3604288E+03  0.7818608E-02  0.1058414E+00
         -2   -1    0    0    0  501 -0.00000000000E+00  0.00000000000E+00  0.63991104753E+02  0.63991104804E+02  0.25500000000E-02 0. -1.
          2   -1    0    0  501    0  0.00000000000E+00 -0.00000000000E+00 -0.50752718411E+03  0.50752718411E+03  0.25500000000E-02 0.  1.
    5000001    1    1    2    0    0 -0.74076924056E+02 -0.10239133366E+03 -0.25254987805E+03  0.30964789163E+03  0.12700000000E+03 0.  0.
   -5000001    1    1    2    0    0  0.74076924056E+02  0.10239133366E+03 -0.19098620130E+03  0.26187039729E+03  0.12700000000E+03 0.  0.
<mgrwt>
<rscale>  0 0.36042877E+03</rscale>
<asrwt>0</asrwt>
<pdfrwt beam="1">  1        2 0.72503881E-01 0.36042877E+03</pdfrwt>
<pdfrwt beam="2">  1       -2 0.91415867E-02 0.36042877E+03</pdfrwt>
<totfact> 0.51210325E+03</totfact>
</mgrwt>
</event>
<event>
 4    1  0.1351183E-004  0.3594663E+03  0.7818608E-02  0.1058795E+00
          2   -1    0    0  501    0  0.00000000000E+00  0.00000000000E+00  0.11472644290E+04  0.11472644290E+04  0.25500000000E-02 0.  1.
         -2   -1    0    0    0  501 -0.00000000000E+00 -0.00000000000E+00 -0.28157415929E+02  0.28157416044E+02  0.25500000000E-02 0. -1.
    5000001    1    1    2    0    0 -0.45274188145E+02  0.10865290568E+03  0.71704622297E+03  0.73765811315E+03  0.12700000000E+03 0.  0.
   -5000001    1    1    2    0    0  0.45274188145E+02 -0.10865290568E+03  0.40206079012E+03  0.43776373191E+03  0.12700000000E+03 0.  0.
<mgrwt>
<rscale>  0 0.35946628E+03</rscale>
<asrwt>0</asrwt>
<pdfrwt beam="1">  1        2 0.16389491E+00 0.35946628E+03</pdfrwt>
<pdfrwt beam="2">  1       -2 0.40224881E-02 0.35946628E+03</pdfrwt>
<totfact> 0.65644940E+03</totfact>
</mgrwt>
</event>
<event>
 4    1  0.1351183E-004  0.2959480E+03  0.7818608E-02  0.1087284E+00
         -2   -1    0    0    0  501 -0.00000000000E+00  0.00000000000E+00  0.70795023142E+02  0.70795023188E+02  0.25500000000E-02 0. -1.
          2   -1    0    0  501    0  0.00000000000E+00 -0.00000000000E+00 -0.30929162495E+03  0.30929162496E+03  0.25500000000E-02 0.  1.
    5000001    1    1    2    0    0 -0.57415115612E+02  0.17349144197E+02 -0.59423815319E+02  0.15250468233E+03  0.12700000000E+03 0.  0.
   -5000001    1    1    2    0    0  0.57415115612E+02 -0.17349144197E+02 -0.17907278649E+03  0.22758196582E+03  0.12700000000E+03 0.  0.
<mgrwt>
<rscale>  0 0.29594802E+03</rscale>
<asrwt>0</asrwt>
<pdfrwt beam="1">  1        2 0.44184517E-01 0.29594802E+03</pdfrwt>
<pdfrwt beam="2">  1       -2 0.10113575E-01 0.29594802E+03</pdfrwt>
<totfact> 0.74431497E+03</totfact>
</mgrwt>
</event>
<event>
 4    1  0.1351183E-004  0.3107713E+03  0.7818608E-02  0.1079977E+00
         -2   -1    0    0    0  501 -0.00000000000E+00  0.00000000000E+00  0.17124468024E+02  0.17124468214E+02  0.25500000000E-02 0. -1.
          2   -1    0    0  501    0  0.00000000000E+00 -0.00000000000E+00 -0.14099530183E+04  0.14099530183E+04  0.25500000000E-02 0.  1.
    5000001    1    1    2    0    0 -0.80839714473E+02  0.23095481571E+02 -0.83774465217E+03  0.85147728269E+03  0.12700000000E+03 0.  0.
   -5000001    1    1    2    0    0  0.80839714473E+02 -0.23095481571E+02 -0.55508389816E+03  0.57560020387E+03  0.12700000000E+03 0.  0.
<mgrwt>
<rscale>  0 0.31077127E+03</rscale>
<asrwt>0</asrwt>
<pdfrwt beam="1">  1        2 0.20142178E+00 0.31077127E+03</pdfrwt>
<pdfrwt beam="2">  1       -2 0.24463535E-02 0.31077127E+03</pdfrwt>
<totfact> 0.99809679E+03</totfact>
</mgrwt>
</event>
<event>
 4    1  0.1351183E-004  0.2995648E+03  0.7818608E-02  0.1085458E+00
          2   -1    0    0  501    0  0.00000000000E+00  0.00000000000E+00  0.60551523663E+03  0.60551523664E+03  0.25500000000E-02 0.  1.
         -2   -1    0    0    0  501 -0.00000000000E+00 -0.00000000000E+00 -0.37050715879E+02  0.37050715967E+02  0.25500000000E-02 0. -1.
    5000001    1    1    2    0    0 -0.76027973557E+02 -0.66840899047E-01  0.33340447403E+03  0.36478459471E+03  0.12700000000E+03 0.  0.
   -5000001    1    1    2    0    0  0.76027973557E+02  0.66840899047E-01  0.23506004672E+03  0.27778135790E+03  0.12700000000E+03 0.  0.
<mgrwt>
<rscale>  0 0.29956484E+03</rscale>
<asrwt>0</asrwt>
<pdfrwt beam="1">  1        2 0.86502171E-01 0.29956484E+03</pdfrwt>
<pdfrwt beam="2">  1       -2 0.52929597E-02 0.29956484E+03</pdfrwt>
<totfact> 0.97593892E+03</totfact>
</mgrwt>
</event>
<event>
 4    1  0.1351183E-004  0.3619982E+03  0.7818608E-02  0.1057795E+00
         -2   -1    0    0    0  501 -0.00000000000E+00  0.00000000000E+00  0.34209663110E+02  0.34209663205E+02  0.25500000000E-02 0. -1.
          2   -1    0    0  501    0  0.00000000000E+00 -0.00000000000E+00 -0.95764409201E+03  0.95764409201E+03  0.25500000000E-02 0.  1.
    5000001    1    1    2    0    0  0.10235166067E+03  0.70257459302E+02 -0.36602661913E+03  0.40683714056E+03  0.12700000000E+03 0.  0.
   -5000001    1    1    2    0    0 -0.10235166067E+03 -0.70257459302E+02 -0.55740780977E+03  0.58501661465E+03  0.12700000000E+03 0.  0.
<mgrwt>
<rscale>  0 0.36199824E+03</rscale>
<asrwt>0</asrwt>
<pdfrwt beam="1">  1        2 0.13680628E+00 0.36199824E+03</pdfrwt>
<pdfrwt beam="2">  1       -2 0.48870953E-02 0.36199824E+03</pdfrwt>
<totfact> 0.62959458E+03</totfact>
</mgrwt>
</event>
<event>
 4    1  0.1351183E-004  0.2929622E+03  0.7818608E-02  0.1088813E+00
         -2   -1    0    0    0  501 -0.00000000000E+00  0.00000000000E+00  0.19853563608E+03  0.19853563610E+03  0.25500000000E-02 0. -1.
          2   -1    0    0  501    0  0.00000000000E+00 -0.00000000000E+00 -0.10807485710E+03  0.10807485713E+03  0.25500000000E-02 0.  1.
    5000001    1    1    2    0    0  0.33868339581E+02 -0.21732027227E+02  0.10896373090E+03  0.17210880304E+03  0.12700000000E+03 0.  0.
   -5000001    1    1    2    0    0 -0.33868339581E+02  0.21732027227E+02 -0.18502951911E+02  0.13450169019E+03  0.12700000000E+03 0.  0.
<mgrwt>
<rscale>  0 0.29296219E+03</rscale>
<asrwt>0</asrwt>
<pdfrwt beam="1">  1        2 0.15439265E-01 0.29296219E+03</pdfrwt>
<pdfrwt beam="2">  1       -2 0.28362234E-01 0.29296219E+03</pdfrwt>
<totfact> 0.42528155E+03</totfact>
</mgrwt>
</event>
<event>
 4    1  0.1351183E-004  0.2928351E+03  0.7818608E-02  0.1088878E+00
         -2   -1    0    0    0  501 -0.00000000000E+00  0.00000000000E+00  0.94482667102E+01  0.94482670543E+01  0.25500000000E-02 0. -1.
          2   -1    0    0  501    0  0.00000000000E+00 -0.00000000000E+00 -0.22689983334E+04  0.22689983334E+04  0.25500000000E-02 0.  1.
    5000001    1    1    2    0    0  0.50484675764E+02  0.31696630879E+02 -0.14557946130E+04  0.14625390027E+04  0.12700000000E+03 0.  0.
   -5000001    1    1    2    0    0 -0.50484675764E+02 -0.31696630879E+02 -0.80375545363E+03  0.81590759780E+03  0.12700000000E+03 0.  0.
<mgrwt>
<rscale>  0 0.29283512E+03</rscale>
<asrwt>0</asrwt>
<pdfrwt beam="1">  1        2 0.32414227E+00 0.29283512E+03</pdfrwt>
<pdfrwt beam="2">  1       -2 0.13497539E-02 0.29283512E+03</pdfrwt>
<totfact> 0.89903676E+03</totfact>
</mgrwt>
</event>
<event>
 4    1  0.1351183E-004  0.2895194E+03  0.7818608E-02  0.1090600E+00
         -2   -1    0    0    0  501 -0.00000000000E+00  0.00000000000E+00  0.53982506479E+02  0.53982506539E+02  0.25500000000E-02 0. -1.
          2   -1    0    0  501    0  0.00000000000E+00 -0.00000000000E+00 -0.38818811145E+03  0.38818811146E+03  0.25500000000E-02 0.  1.
    5000001    1    1    2    0    0 -0.26494184830E+02 -0.62570992536E+02 -0.18919775348E+03  0.23778532515E+03  0.12700000000E+03 0.  0.
   -5000001    1    1    2    0    0  0.26494184830E+02  0.62570992536E+02 -0.14500785149E+03  0.20438529285E+03  0.12700000000E+03 0.  0.
<mgrwt>
<rscale>  0 0.28951938E+03</rscale>
<asrwt>0</asrwt>
<pdfrwt beam="1">  1        2 0.55455443E-01 0.28951938E+03</pdfrwt>
<pdfrwt beam="2">  1       -2 0.77117869E-02 0.28951938E+03</pdfrwt>
<totfact> 0.89235057E+03</totfact>
</mgrwt>
</event>
<event>
 4    1  0.1351183E-004  0.2906521E+03  0.7818608E-02  0.1090009E+00
          2   -1    0    0  501    0  0.00000000000E+00  0.00000000000E+00  0.65234548726E+02  0.65234548776E+02  0.25500000000E-02 0.  1.
         -2   -1    0    0    0  501 -0.00000000000E+00 -0.00000000000E+00 -0.32374956231E+03  0.32374956232E+03  0.25500000000E-02 0. -1.
    5000001    1    1    2    0    0  0.69928094443E+01  0.70162627185E+02 -0.13508540071E+03  0.19836521651E+03  0.12700000000E+03 0.  0.
   -5000001    1    1    2    0    0 -0.69928094443E+01 -0.70162627185E+02 -0.12342961287E+03  0.19061889458E+03  0.12700000000E+03 0.  0.
<mgrwt>
<rscale>  0 0.29065207E+03</rscale>
<asrwt>0</asrwt>
<pdfrwt beam="1">  1        2 0.93192214E-02 0.29065207E+03</pdfrwt>
<pdfrwt beam="2">  1       -2 0.46249937E-01 0.29065207E+03</pdfrwt>
<totfact> 0.31375757E+03</totfact>
</mgrwt>
</event>
<event>
 4    1  0.1351183E-004  0.4399881E+03  0.7818608E-02  0.1030750E+00
          2   -1    0    0  501    0  0.00000000000E+00  0.00000000000E+00  0.15051454106E+04  0.15051454106E+04  0.25500000000E-02 0.  1.
         -2   -1    0    0    0  501 -0.00000000000E+00 -0.00000000000E+00 -0.32154618478E+02  0.32154618580E+02  0.25500000000E-02 0. -1.
    5000001    1    1    2    0    0 -0.13599216709E+03  0.11210476408E+03  0.61510717177E+03  0.65233977374E+03  0.12700000000E+03 0.  0.
   -5000001    1    1    2    0    0  0.13599216709E+03 -0.11210476408E+03  0.85788362031E+03  0.88496025540E+03  0.12700000000E+03 0.  0.
<mgrwt>
<rscale>  0 0.43998807E+03</rscale>
<asrwt>0</asrwt>
<pdfrwt beam="1">  1        2 0.21502078E+00 0.43998807E+03</pdfrwt>
<pdfrwt beam="2">  1       -2 0.45935167E-02 0.43998807E+03</pdfrwt>
<totfact> 0.34597897E+03</totfact>
</mgrwt>
</event>
<event>
 4    1  0.1351183E-004  0.3565785E+03  0.7818608E-02  0.1059947E+00
         -2   -1    0    0    0  501 -0.00000000000E+00  0.00000000000E+00  0.26670053958E+02  0.26670054080E+02  0.25500000000E-02 0. -1.
          2   -1    0    0  501    0  0.00000000000E+00 -0.00000000000E+00 -0.11918628946E+04  0.11918628946E+04  0.25500000000E-02 0.  1.
    5000001    1    1    2    0    0 -0.10290387130E+03 -0.60599400190E+02 -0.45489050564E+03  0.48715076327E+03  0.12700000000E+03 0.  0.
   -5000001    1    1    2    0    0  0.10290387130E+03  0.60599400190E+02 -0.71030233504E+03  0.73138218545E+03  0.12700000000E+03 0.  0.
<mgrwt>
<rscale>  0 0.35657845E+03</rscale>
<asrwt>0</asrwt>
<pdfrwt beam="1">  1        2 0.17026609E+00 0.35657845E+03</pdfrwt>
<pdfrwt beam="2">  1       -2 0.38100085E-02 0.35657845E+03</pdfrwt>
<totfact> 0.67311598E+03</totfact>
</mgrwt>
</event>
<event>
 4    1  0.1351183E-004  0.6483215E+03  0.7818608E-02  0.9809934E-01
          2   -1    0    0  501    0  0.00000000000E+00  0.00000000000E+00  0.96146539195E+03  0.96146539195E+03  0.25500000000E-02 0.  1.
         -2   -1    0    0    0  501 -0.00000000000E+00 -0.00000000000E+00 -0.10929170641E+03  0.10929170644E+03  0.25500000000E-02 0. -1.
    5000001    1    1    2    0    0 -0.17228944544E+02  0.29142046435E+03  0.52693450815E+03  0.61563926081E+03  0.12700000000E+03 0.  0.
   -5000001    1    1    2    0    0  0.17228944544E+02 -0.29142046435E+03  0.32523917739E+03  0.45511783758E+03  0.12700000000E+03 0.  0.
<mgrwt>
<rscale>  0 0.64832150E+03</rscale>
<asrwt>0</asrwt>
<pdfrwt beam="1">  1        2 0.13735219E+00 0.64832150E+03</pdfrwt>
<pdfrwt beam="2">  1       -2 0.15613102E-01 0.64832150E+03</pdfrwt>
<totfact> 0.97588362E+02</totfact>
</mgrwt>
</event>
<event>
 4    1  0.1351183E-004  0.3127385E+03  0.7818608E-02  0.1079041E+00
         -2   -1    0    0    0  501 -0.00000000000E+00  0.00000000000E+00  0.33145791891E+02  0.33145791989E+02  0.25500000000E-02 0. -1.
          2   -1    0    0  501    0  0.00000000000E+00 -0.00000000000E+00 -0.73769066223E+03  0.73769066223E+03  0.25500000000E-02 0.  1.
    5000001    1    1    2    0    0  0.47235897036E+02 -0.30722183832E+01 -0.54448971576E+03  0.56110490914E+03  0.12700000000E+03 0.  0.
   -5000001    1    1    2    0    0 -0.47235897036E+02  0.30722183832E+01 -0.16005515457E+03  0.20973154508E+03  0.12700000000E+03 0.  0.
<mgrwt>
<rscale>  0 0.31273849E+03</rscale>
<asrwt>0</asrwt>
<pdfrwt beam="1">  1        2 0.10538437E+00 0.31273849E+03</pdfrwt>
<pdfrwt beam="2">  1       -2 0.47351136E-02 0.31273849E+03</pdfrwt>
<totfact> 0.91785571E+03</totfact>
</mgrwt>
</event>
<event>
 4    1  0.1351183E-004  0.4291479E+03  0.7818608E-02  0.1034129E+00
          2   -1    0    0  501    0  0.00000000000E+00  0.00000000000E+00  0.60121956088E+03  0.60121956089E+03  0.25500000000E-02 0.  1.
         -2   -1    0    0    0  501 -0.00000000000E+00 -0.00000000000E+00 -0.76580959034E+02  0.76580959077E+02  0.25500000000E-02 0. -1.
    5000001    1    1    2    0    0  0.61998261155E+02 -0.15983143384E+03  0.29844255568E+03  0.36686077832E+03  0.12700000000E+03 0.  0.
   -5000001    1    1    2    0    0 -0.61998261155E+02  0.15983143384E+03  0.22619604617E+03  0.31093974164E+03  0.12700000000E+03 0.  0.
<mgrwt>
<rscale>  0 0.42914786E+03</rscale>
<asrwt>0</asrwt>
<pdfrwt beam="1">  1        2 0.85888509E-01 0.42914786E+03</pdfrwt>
<pdfrwt beam="2">  1       -2 0.10940137E-01 0.42914786E+03</pdfrwt>
<totfact> 0.31748126E+03</totfact>
</mgrwt>
</event>
<event>
 4    1  0.1351183E-004  0.2899654E+03  0.7818608E-02  0.1090367E+00
         -2   -1    0    0    0  501 -0.00000000000E+00  0.00000000000E+00  0.50743831217E+01  0.50743837624E+01  0.25500000000E-02 0. -1.
          2   -1    0    0  501    0  0.00000000000E+00 -0.00000000000E+00 -0.41423711486E+04  0.41423711486E+04  0.25500000000E-02 0.  1.
    5000001    1    1    2    0    0  0.26634321489E+02  0.60953306833E+02 -0.17597887531E+04  0.17656189136E+04  0.12700000000E+03 0.  0.
   -5000001    1    1    2    0    0 -0.26634321489E+02 -0.60953306833E+02 -0.23775080124E+04  0.23818266187E+04  0.12700000000E+03 0.  0.
<mgrwt>
<rscale>  0 0.28996537E+03</rscale>
<asrwt>0</asrwt>
<pdfrwt beam="1">  1        2 0.59176514E+00 0.28996537E+03</pdfrwt>
<pdfrwt beam="2">  1       -2 0.72491457E-03 0.28996537E+03</pdfrwt>
<totfact> 0.19755446E+03</totfact>
</mgrwt>
</event>
<event>
 4    1  0.1351183E-004  0.4007969E+03  0.7818608E-02  0.1043504E+00
          2   -1    0    0  501    0  0.00000000000E+00  0.00000000000E+00  0.12689729308E+04  0.12689729308E+04  0.25500000000E-02 0.  1.
         -2   -1    0    0    0  501 -0.00000000000E+00 -0.00000000000E+00 -0.31647272510E+02  0.31647272613E+02  0.25500000000E-02 0. -1.
    5000001    1    1    2    0    0 -0.72211562350E+02 -0.11333280270E+03  0.86943255608E+03  0.88887614631E+03  0.12700000000E+03 0.  0.
   -5000001    1    1    2    0    0  0.72211562350E+02  0.11333280270E+03  0.36789310217E+03  0.41174405706E+03  0.12700000000E+03 0.  0.
<mgrwt>
<rscale>  0 0.40079687E+03</rscale>
<asrwt>0</asrwt>
<pdfrwt beam="1">  1        2 0.18128188E+00 0.40079687E+03</pdfrwt>
<pdfrwt beam="2">  1       -2 0.45210382E-02 0.40079687E+03</pdfrwt>
<totfact> 0.47175463E+03</totfact>
</mgrwt>
</event>
<event>
 4    1  0.1351183E-004  0.5955006E+03  0.7818608E-02  0.9914785E-01
          2   -1    0    0  501    0  0.00000000000E+00  0.00000000000E+00  0.27937097951E+03  0.27937097952E+03  0.25500000000E-02 0.  1.
         -2   -1    0    0    0  501 -0.00000000000E+00 -0.00000000000E+00 -0.31733880612E+03  0.31733880613E+03  0.25500000000E-02 0. -1.
    5000001    1    1    2    0    0  0.19150646581E+03  0.10917843776E+03  0.13602859836E+03  0.28849165896E+03  0.12700000000E+03 0.  0.
   -5000001    1    1    2    0    0 -0.19150646581E+03 -0.10917843776E+03 -0.17399642497E+03  0.30821812669E+03  0.12700000000E+03 0.  0.
<mgrwt>
<rscale>  0 0.59550064E+03</rscale>
<asrwt>0</asrwt>
<pdfrwt beam="1">  1        2 0.39910140E-01 0.59550064E+03</pdfrwt>
<pdfrwt beam="2">  1       -2 0.45334115E-01 0.59550064E+03</pdfrwt>
<totfact> 0.59985776E+02</totfact>
</mgrwt>
</event>
<event>
 4    1  0.1351183E-004  0.4530421E+03  0.7818608E-02  0.1026819E+00
         -2   -1    0    0    0  501 -0.00000000000E+00  0.00000000000E+00  0.93285353460E+02  0.93285353495E+02  0.25500000000E-02 0. -1.
          2   -1    0    0  501    0  0.00000000000E+00 -0.00000000000E+00 -0.55005181549E+03  0.55005181550E+03  0.25500000000E-02 0.  1.
    5000001    1    1    2    0    0  0.72154986218E+02  0.15916492742E+03 -0.32514363551E+03  0.39036803131E+03  0.12700000000E+03 0.  0.
   -5000001    1    1    2    0    0 -0.72154986218E+02 -0.15916492742E+03 -0.13162282652E+03  0.25296913768E+03  0.12700000000E+03 0.  0.
<mgrwt>
<rscale>  0 0.45304206E+03</rscale>
<asrwt>0</asrwt>
<pdfrwt beam="1">  1        2 0.78578829E-01 0.45304206E+03</pdfrwt>
<pdfrwt beam="2">  1       -2 0.13326479E-01 0.45304206E+03</pdfrwt>
<totfact> 0.25491195E+03</totfact>
</mgrwt>
</event>
<event>
 4    1  0.1351183E-004  0.3824925E+03  0.7818608E-02  0.1050016E+00
          2   -1    0    0  501    0  0.00000000000E+00  0.00000000000E+00  0.21786710301E+04  0.21786710301E+04  0.25500000000E-02 0.  1.
         -2   -1    0    0    0  501 -0.00000000000E+00 -0.00000000000E+00 -0.16787814373E+02  0.16787814567E+02  0.25500000000E-02 0. -1.
    5000001    1    1    2    0    0 -0.43601367968E+02  0.67411299069E+02  0.40177200623E+03  0.42894650893E+03  0.12700000000E+03 0.  0.
   -5000001    1    1    2    0    0  0.43601367968E+02 -0.67411299069E+02  0.17601112095E+04  0.17665123357E+04  0.12700000000E+03 0.  0.
<mgrwt>
<rscale>  0 0.38249248E+03</rscale>
<asrwt>0</asrwt>
<pdfrwt beam="1">  1        2 0.31123854E+00 0.38249248E+03</pdfrwt>
<pdfrwt beam="2">  1       -2 0.23982606E-02 0.38249248E+03</pdfrwt>
<totfact> 0.42619768E+03</totfact>
</mgrwt>
</event>
<event>
 4    1  0.1351183E-004  0.3505147E+03  0.7818608E-02  0.1062404E+00
         -2   -1    0    0    0  501 -0.00000000000E+00  0.00000000000E+00  0.90514104372E+01  0.90514107964E+01  0.25500000000E-02 0. -1.
          2   -1    0    0  501    0  0.00000000000E+00 -0.00000000000E+00 -0.33934099699E+04  0.33934099699E+04  0.25500000000E-02 0.  1.
    5000001    1    1    2    0    0  0.11035713499E+03  0.57611637033E+01 -0.12191903937E+04  0.12307583453E+04  0.12700000000E+03 0.  0.
   -5000001    1    1    2    0    0 -0.11035713499E+03 -0.57611637033E+01 -0.21651681657E+04  0.21717030354E+04  0.12700000000E+03 0.  0.
<mgrwt>
<rscale>  0 0.35051475E+03</rscale>
<asrwt>0</asrwt>
<pdfrwt beam="1">  1        2 0.48477204E+00 0.35051475E+03</pdfrwt>
<pdfrwt beam="2">  1       -2 0.12930608E-02 0.35051475E+03</pdfrwt>
<totfact> 0.24571479E+03</totfact>
</mgrwt>
</event>
<event>
 4    1  0.1351183E-004  0.5490713E+03  0.7818608E-02  0.1001709E+00
          2   -1    0    0  501    0  0.00000000000E+00  0.00000000000E+00  0.31330544663E+04  0.31330544663E+04  0.25500000000E-02 0.  1.
         -2   -1    0    0    0  501 -0.00000000000E+00 -0.00000000000E+00 -0.24056337224E+02  0.24056337359E+02  0.25500000000E-02 0. -1.
    5000001    1    1    2    0    0  0.10604492619E+03  0.12568739712E+03  0.52274704311E+03  0.56252672759E+03  0.12700000000E+03 0.  0.
   -5000001    1    1    2    0    0 -0.10604492619E+03 -0.12568739712E+03  0.25862510860E+04  0.25945840761E+04  0.12700000000E+03 0.  0.
<mgrwt>
<rscale>  0 0.54907127E+03</rscale>
<asrwt>0</asrwt>
<pdfrwt beam="1">  1        2 0.44757921E+00 0.54907127E+03</pdfrwt>
<pdfrwt beam="2">  1       -2 0.34366196E-02 0.54907127E+03</pdfrwt>
<totfact> 0.78278191E+02</totfact>
</mgrwt>
</event>
<event>
 4    1  0.1351183E-004  0.5036327E+03  0.7818608E-02  0.1012835E+00
          2   -1    0    0  501    0  0.00000000000E+00  0.00000000000E+00  0.71631258851E+03  0.71631258851E+03  0.25500000000E-02 0.  1.
         -2   -1    0    0    0  501 -0.00000000000E+00 -0.00000000000E+00 -0.88524870681E+02  0.88524870717E+02  0.25500000000E-02 0. -1.
    5000001    1    1    2    0    0 -0.17024586845E+03 -0.13244312722E+03  0.35788104208E+03  0.43672952494E+03  0.12700000000E+03 0.  0.
   -5000001    1    1    2    0    0  0.17024586845E+03  0.13244312722E+03  0.26990667574E+03  0.36810793428E+03  0.12700000000E+03 0.  0.
<mgrwt>
<rscale>  0 0.50363272E+03</rscale>
<asrwt>0</asrwt>
<pdfrwt beam="1">  1        2 0.10233037E+00 0.50363272E+03</pdfrwt>
<pdfrwt beam="2">  1       -2 0.12646410E-01 0.50363272E+03</pdfrwt>
<totfact> 0.20358593E+03</totfact>
</mgrwt>
</event>
<event>
 4    1  0.1351183E-004  0.6314155E+03  0.7818608E-02  0.9842290E-01
         -2   -1    0    0    0  501 -0.00000000000E+00  0.00000000000E+00  0.21782920438E+03  0.21782920439E+03  0.25500000000E-02 0.  1.
          2   -1    0    0  501    0  0.00000000000E+00 -0.00000000000E+00 -0.45756667402E+03  0.45756667403E+03  0.25500000000E-02 0. -1.
    5000001    1    1    2    0    0 -0.15976448519E+03  0.21175851001E+03  0.29134641888E+01  0.29411536098E+03  0.12700000000E+03 0.  0.
   -5000001    1    1    2    0    0  0.15976448519E+03 -0.21175851001E+03 -0.24265093383E+03  0.38128051744E+03  0.12700000000E+03 0.  0.
<mgrwt>
<rscale>  0 0.63141550E+03</rscale>
<asrwt>0</asrwt>
<pdfrwt beam="1">  1        2 0.65366667E-01 0.63141550E+03</pdfrwt>
<pdfrwt beam="2">  1       -2 0.31118458E-01 0.63141550E+03</pdfrwt>
<totfact> 0.71440956E+02</totfact>
</mgrwt>
</event>
<event>
 4    1  0.1351183E-004  0.3892723E+03  0.7818608E-02  0.1047559E+00
          2   -1    0    0  501    0  0.00000000000E+00  0.00000000000E+00  0.14508912194E+04  0.14508912194E+04  0.25500000000E-02 0.  1.
         -2   -1    0    0    0  501 -0.00000000000E+00 -0.00000000000E+00 -0.26110314987E+02  0.26110315112E+02  0.25500000000E-02 0. -1.
    5000001    1    1    2    0    0  0.55254154288E+02 -0.12169201889E+03  0.47567409527E+03  0.51015371599E+03  0.12700000000E+03 0.  0.
   -5000001    1    1    2    0    0 -0.55254154288E+02  0.12169201889E+03  0.94910680917E+03  0.96684781855E+03  0.12700000000E+03 0.  0.
<mgrwt>
<rscale>  0 0.38927228E+03</rscale>
<asrwt>0</asrwt>
<pdfrwt beam="1">  1        2 0.20727023E+00 0.38927228E+03</pdfrwt>
<pdfrwt beam="2">  1       -2 0.37300440E-02 0.38927228E+03</pdfrwt>
<totfact> 0.50670736E+03</totfact>
</mgrwt>
</event>
<event>
 4    1  0.1351183E-004  0.3478040E+03  0.7818608E-02  0.1063520E+00
         -2   -1    0    0    0  501 -0.00000000000E+00  0.00000000000E+00  0.90330578468E+01  0.90330582068E+01  0.25500000000E-02 0. -1.
          2   -1    0    0  501    0  0.00000000000E+00 -0.00000000000E+00 -0.33479139901E+04  0.33479139901E+04  0.25500000000E-02 0.  1.
    5000001    1    1    2    0    0  0.95656314664E+02  0.63423976969E+02 -0.13734940172E+04  0.13841197733E+04  0.12700000000E+03 0.  0.
   -5000001    1    1    2    0    0 -0.95656314664E+02 -0.63423976969E+02 -0.19653869150E+04  0.19728272750E+04  0.12700000000E+03 0.  0.
<mgrwt>
<rscale>  0 0.34780398E+03</rscale>
<asrwt>0</asrwt>
<pdfrwt beam="1">  1        2 0.47827264E+00 0.34780398E+03</pdfrwt>
<pdfrwt beam="2">  1       -2 0.12904390E-02 0.34780398E+03</pdfrwt>
<totfact> 0.26166240E+03</totfact>
</mgrwt>
</event>
<event>
 4    1  0.1351183E-004  0.4312829E+03  0.7818608E-02  0.1033455E+00
          2   -1    0    0  501    0  0.00000000000E+00  0.00000000000E+00  0.28382985884E+03  0.28382985885E+03  0.25500000000E-02 0.  1.
         -2   -1    0    0    0  501 -0.00000000000E+00 -0.00000000000E+00 -0.16383490193E+03  0.16383490195E+03  0.25500000000E-02 0. -1.
    5000001    1    1    2    0    0 -0.73386175478E+01  0.14534562336E+03 -0.39524737050E+02  0.19715580229E+03  0.12700000000E+03 0.  0.
   -5000001    1    1    2    0    0  0.73386175478E+01 -0.14534562336E+03  0.15951969395E+03  0.25050895851E+03  0.12700000000E+03 0.  0.
<mgrwt>
<rscale>  0 0.43128291E+03</rscale>
<asrwt>0</asrwt>
<pdfrwt beam="1">  1        2 0.40547122E-01 0.43128291E+03</pdfrwt>
<pdfrwt beam="2">  1       -2 0.23404986E-01 0.43128291E+03</pdfrwt>
<totfact> 0.20278554E+03</totfact>
</mgrwt>
</event>
<event>
 4    1  0.1351183E-004  0.3094389E+03  0.7818608E-02  0.1080615E+00
         -2   -1    0    0    0  501 -0.00000000000E+00  0.00000000000E+00  0.17722524110E+02  0.17722524294E+02  0.25500000000E-02 0. -1.
          2   -1    0    0  501    0  0.00000000000E+00 -0.00000000000E+00 -0.13507164588E+04  0.13507164588E+04  0.25500000000E-02 0.  1.
    5000001    1    1    2    0    0 -0.74903711807E+02  0.30910419402E+02 -0.82241666401E+03  0.83610058564E+03  0.12700000000E+03 0.  0.
   -5000001    1    1    2    0    0  0.74903711807E+02 -0.30910419402E+02 -0.51057727070E+03  0.53233839747E+03  0.12700000000E+03 0.  0.
<mgrwt>
<rscale>  0 0.30943888E+03</rscale>
<asrwt>0</asrwt>
<pdfrwt beam="1">  1        2 0.19295943E+00 0.30943888E+03</pdfrwt>
<pdfrwt beam="2">  1       -2 0.25317900E-02 0.30943888E+03</pdfrwt>
<totfact> 0.10180092E+04</totfact>
</mgrwt>
</event>
<event>
 4    1  0.1351183E-004  0.1930687E+04  0.7818608E-02  0.8639731E-01
         -2   -1    0    0    0  501 -0.00000000000E+00  0.00000000000E+00  0.39265701094E+03  0.39265701095E+03  0.25500000000E-02 0. -1.
          2   -1    0    0  501    0  0.00000000000E+00 -0.00000000000E+00 -0.23732865561E+04  0.23732865561E+04  0.25500000000E-02 0.  1.
    5000001    1    1    2    0    0  0.30105601418E+02 -0.84621368341E+03 -0.16290370464E+04  0.18403463380E+04  0.12700000000E+03 0.  0.
   -5000001    1    1    2    0    0 -0.30105601418E+02  0.84621368341E+03 -0.35159249873E+03  0.92559722903E+03  0.12700000000E+03 0.  0.
<mgrwt>
<rscale>  0 0.19306865E+04</rscale>
<asrwt>0</asrwt>
<pdfrwt beam="1">  1        2 0.33904093E+00 0.19306865E+04</pdfrwt>
<pdfrwt beam="2">  1       -2 0.56093860E-01 0.19306865E+04</pdfrwt>
<totfact> 0.14374230E+01</totfact>
</mgrwt>
</event>
<event>
 4    1  0.1351183E-004  0.4487980E+03  0.7818608E-02  0.1028081E+00
          2   -1    0    0  501    0  0.00000000000E+00  0.00000000000E+00  0.16774964207E+03  0.16774964209E+03  0.25500000000E-02 0.  1.
         -2   -1    0    0    0  501 -0.00000000000E+00 -0.00000000000E+00 -0.30017892168E+03  0.30017892169E+03  0.25500000000E-02 0. -1.
    5000001    1    1    2    0    0 -0.53234013910E+02  0.17281871076E+03 -0.25488909630E+02  0.22243842190E+03  0.12700000000E+03 0.  0.
   -5000001    1    1    2    0    0  0.53234013910E+02 -0.17281871076E+03 -0.10694036998E+03  0.24549014187E+03  0.12700000000E+03 0.  0.
<mgrwt>
<rscale>  0 0.44879798E+03</rscale>
<asrwt>0</asrwt>
<pdfrwt beam="1">  1        2 0.23964235E-01 0.44879798E+03</pdfrwt>
<pdfrwt beam="2">  1       -2 0.42882703E-01 0.44879798E+03</pdfrwt>
<totfact> 0.11848548E+03</totfact>
</mgrwt>
</event>
<event>
 4    1  0.1351183E-004  0.5362315E+03  0.7818608E-02  0.1004732E+00
          2   -1    0    0  501    0  0.00000000000E+00  0.00000000000E+00  0.21869857618E+04  0.21869857618E+04  0.25500000000E-02 0.  1.
         -2   -1    0    0    0  501 -0.00000000000E+00 -0.00000000000E+00 -0.32869919797E+02  0.32869919896E+02  0.25500000000E-02 0. -1.
    5000001    1    1    2    0    0 -0.71434513301E+02  0.19848398545E+03  0.15163042790E+04  0.15361661527E+04  0.12700000000E+03 0.  0.
   -5000001    1    1    2    0    0  0.71434513301E+02 -0.19848398545E+03  0.63781156304E+03  0.68368952904E+03  0.12700000000E+03 0.  0.
<mgrwt>
<rscale>  0 0.53623147E+03</rscale>
<asrwt>0</asrwt>
<pdfrwt beam="1">  1        2 0.31242662E+00 0.53623147E+03</pdfrwt>
<pdfrwt beam="2">  1       -2 0.46957017E-02 0.53623147E+03</pdfrwt>
<totfact> 0.15142171E+03</totfact>
</mgrwt>
</event>
<event>
 4    1  0.1351183E-004  0.5707329E+03  0.7818608E-02  0.9968058E-01
         -2   -1    0    0    0  501 -0.00000000000E+00  0.00000000000E+00  0.89571444556E+02  0.89571444592E+02  0.25500000000E-02 0.  1.
          2   -1    0    0  501    0  0.00000000000E+00 -0.00000000000E+00 -0.90915155186E+03  0.90915155186E+03  0.25500000000E-02 0. -1.
    5000001    1    1    2    0    0 -0.46705443463E+01  0.22314502180E+03 -0.19200359857E+03  0.32063982379E+03  0.12700000000E+03 0.  0.
   -5000001    1    1    2    0    0  0.46705443463E+01 -0.22314502180E+03 -0.62757650872E+03  0.67808317266E+03  0.12700000000E+03 0.  0.
<mgrwt>
<rscale>  0 0.57073292E+03</rscale>
<asrwt>0</asrwt>
<pdfrwt beam="1">  1        2 0.12987879E+00 0.57073292E+03</pdfrwt>
<pdfrwt beam="2">  1       -2 0.12795921E-01 0.57073292E+03</pdfrwt>
<totfact> 0.14715970E+03</totfact>
</mgrwt>
</event>
<event>
 4    1  0.1351183E-004  0.3914447E+03  0.7818608E-02  0.1046783E+00
          2   -1    0    0  501    0  0.00000000000E+00  0.00000000000E+00  0.61951015207E+03  0.61951015208E+03  0.25500000000E-02 0.  1.
         -2   -1    0    0    0  501 -0.00000000000E+00 -0.00000000000E+00 -0.61834723377E+02  0.61834723429E+02  0.25500000000E-02 0. -1.
    5000001    1    1    2    0    0  0.14120258507E+03  0.17611532712E+02  0.35530299551E+03  0.40325866976E+03  0.12700000000E+03 0.  0.
   -5000001    1    1    2    0    0 -0.14120258507E+03 -0.17611532712E+02  0.20237243318E+03  0.27808620575E+03  0.12700000000E+03 0.  0.
<mgrwt>
<rscale>  0 0.39144470E+03</rscale>
<asrwt>0</asrwt>
<pdfrwt beam="1">  1        2 0.88501450E-01 0.39144470E+03</pdfrwt>
<pdfrwt beam="2">  1       -2 0.88335319E-02 0.39144470E+03</pdfrwt>
<totfact> 0.43144564E+03</totfact>
</mgrwt>
</event>
<event>
 4    1  0.1351183E-004  0.3273365E+03  0.7818608E-02  0.1072321E+00
         -2   -1    0    0    0  501 -0.00000000000E+00  0.00000000000E+00  0.93035247401E+01  0.93035250895E+01  0.25500000000E-02 0. -1.
          2   -1    0    0  501    0  0.00000000000E+00 -0.00000000000E+00 -0.28792634799E+04  0.28792634799E+04  0.25500000000E-02 0.  1.
    5000001    1    1    2    0    0 -0.96006818843E+02 -0.27035212286E+02 -0.11998305451E+04  0.12106488132E+04  0.12700000000E+03 0.  0.
   -5000001    1    1    2    0    0  0.96006818843E+02  0.27035212286E+02 -0.16701294101E+04  0.16779181918E+04  0.12700000000E+03 0.  0.
<mgrwt>
<rscale>  0 0.32733652E+03</rscale>
<asrwt>0</asrwt>
<pdfrwt beam="1">  1        2 0.41132278E+00 0.32733652E+03</pdfrwt>
<pdfrwt beam="2">  1       -2 0.13290768E-02 0.32733652E+03</pdfrwt>
<totfact> 0.45146983E+03</totfact>
</mgrwt>
</event>
<event>
 4    1  0.1351183E-004  0.5728288E+03  0.7818608E-02  0.9963438E-01
          2   -1    0    0  501    0  0.00000000000E+00  0.00000000000E+00  0.13566103700E+04  0.13566103700E+04  0.25500000000E-02 0.  1.
         -2   -1    0    0    0  501 -0.00000000000E+00 -0.00000000000E+00 -0.60469243584E+02  0.60469243638E+02  0.25500000000E-02 0. -1.
    5000001    1    1    2    0    0  0.14601363993E+03  0.13610420999E+03  0.10474222214E+04  0.10738094099E+04  0.12700000000E+03 0.  0.
   -5000001    1    1    2    0    0 -0.14601363993E+03 -0.13610420999E+03  0.24871890499E+03  0.34327020366E+03  0.12700000000E+03 0.  0.
<mgrwt>
<rscale>  0 0.57282878E+03</rscale>
<asrwt>0</asrwt>
<pdfrwt beam="1">  1        2 0.19380150E+00 0.57282878E+03</pdfrwt>
<pdfrwt beam="2">  1       -2 0.86384625E-02 0.57282878E+03</pdfrwt>
<totfact> 0.15369551E+03</totfact>
</mgrwt>
</event>
<event>
 4    1  0.1351183E-004  0.3535871E+03  0.7818608E-02  0.1061152E+00
         -2   -1    0    0    0  501 -0.00000000000E+00  0.00000000000E+00  0.18268782692E+03  0.18268782694E+03  0.25500000000E-02 0. -1.
          2   -1    0    0  501    0  0.00000000000E+00 -0.00000000000E+00 -0.17108943895E+03  0.17108943897E+03  0.25500000000E-02 0.  1.
    5000001    1    1    2    0    0  0.97096747479E+02  0.34326882630E+02  0.73072583178E+02  0.17909415304E+03  0.12700000000E+03 0.  0.
   -5000001    1    1    2    0    0 -0.97096747479E+02 -0.34326882630E+02 -0.61474195207E+02  0.17468311286E+03  0.12700000000E+03 0.  0.
<mgrwt>
<rscale>  0 0.35358709E+03</rscale>
<asrwt>0</asrwt>
<pdfrwt beam="1">  1        2 0.24441348E-01 0.35358709E+03</pdfrwt>
<pdfrwt beam="2">  1       -2 0.26098261E-01 0.35358709E+03</pdfrwt>
<totfact> 0.29187590E+03</totfact>
</mgrwt>
</event>
<event>
 4    1  0.1351183E-004  0.6638836E+03  0.7818608E-02  0.9781071E-01
          2   -1    0    0  501    0  0.00000000000E+00  0.00000000000E+00  0.10838489048E+04  0.10838489048E+04  0.25500000000E-02 0.  1.
         -2   -1    0    0    0  501 -0.00000000000E+00 -0.00000000000E+00 -0.10166118341E+03  0.10166118344E+03  0.25500000000E-02 0. -1.
    5000001    1    1    2    0    0 -0.18905253630E+02  0.28554926280E+03  0.68801408050E+03  0.75590221924E+03  0.12700000000E+03 0.  0.
   -5000001    1    1    2    0    0  0.18905253630E+02 -0.28554926280E+03  0.29417364086E+03  0.42960786896E+03  0.12700000000E+03 0.  0.
<mgrwt>
<rscale>  0 0.66388361E+03</rscale>
<asrwt>0</asrwt>
<pdfrwt beam="1">  1        2 0.15483556E+00 0.66388361E+03</pdfrwt>
<pdfrwt beam="2">  1       -2 0.14523026E-01 0.66388361E+03</pdfrwt>
<totfact> 0.92941325E+02</totfact>
</mgrwt>
</event>
<event>
 4    1  0.1351183E-004  0.3272248E+03  0.7818608E-02  0.1072371E+00
         -2   -1    0    0    0  501 -0.00000000000E+00  0.00000000000E+00  0.18572914149E+02  0.18572914325E+02  0.25500000000E-02 0. -1.
          2   -1    0    0  501    0  0.00000000000E+00 -0.00000000000E+00 -0.14412930378E+04  0.14412930378E+04  0.25500000000E-02 0.  1.
    5000001    1    1    2    0    0  0.14925463222E+02 -0.61590793117E+02 -0.34826447774E+03  0.37607624454E+03  0.12700000000E+03 0.  0.
   -5000001    1    1    2    0    0 -0.14925463222E+02  0.61590793117E+02 -0.10744556459E+04  0.10837897075E+04  0.12700000000E+03 0.  0.
<mgrwt>
<rscale>  0 0.32722477E+03</rscale>
<asrwt>0</asrwt>
<pdfrwt beam="1">  1        2 0.20589893E+00 0.32722477E+03</pdfrwt>
<pdfrwt beam="2">  1       -2 0.26532744E-02 0.32722477E+03</pdfrwt>
<totfact> 0.85317046E+03</totfact>
</mgrwt>
</event>
<event>
 4    1  0.1351183E-004  0.2759404E+03  0.7818608E-02  0.1097927E+00
          2   -1    0    0  501    0  0.00000000000E+00  0.00000000000E+00  0.88025271262E+03  0.88025271262E+03  0.25500000000E-02 0.  1.
         -2   -1    0    0    0  501 -0.00000000000E+00 -0.00000000000E+00 -0.21625359996E+02  0.21625360146E+02  0.25500000000E-02 0. -1.
    5000001    1    1    2    0    0  0.16452950033E+02  0.49560874604E+02  0.38548788715E+03  0.40921496918E+03  0.12700000000E+03 0.  0.
   -5000001    1    1    2    0    0 -0.16452950033E+02 -0.49560874604E+02  0.47313946547E+03  0.49266310359E+03  0.12700000000E+03 0.  0.
<mgrwt>
<rscale>  0 0.27594044E+03</rscale>
<asrwt>0</asrwt>
<pdfrwt beam="1">  1        2 0.12575042E+00 0.27594044E+03</pdfrwt>
<pdfrwt beam="2">  1       -2 0.30893364E-02 0.27594044E+03</pdfrwt>
<totfact> 0.13941542E+04</totfact>
</mgrwt>
</event>
<event>
 4    1  0.1351183E-004  0.5884711E+03  0.7818608E-02  0.9929618E-01
          2   -1    0    0  501    0  0.00000000000E+00  0.00000000000E+00  0.66311063010E+03  0.66311063010E+03  0.25500000000E-02 0.  1.
         -2   -1    0    0    0  501 -0.00000000000E+00 -0.00000000000E+00 -0.13055822427E+03  0.13055822429E+03  0.25500000000E-02 0. -1.
    5000001    1    1    2    0    0 -0.15173959462E+03 -0.10997718751E+03  0.12787054568E+02  0.22674301557E+03  0.12700000000E+03 0.  0.
   -5000001    1    1    2    0    0  0.15173959462E+03  0.10997718751E+03  0.51976535126E+03  0.56692583882E+03  0.12700000000E+03 0.  0.
<mgrwt>
<rscale>  0 0.58847106E+03</rscale>
<asrwt>0</asrwt>
<pdfrwt beam="1">  1        2 0.94730091E-01 0.58847106E+03</pdfrwt>
<pdfrwt beam="2">  1       -2 0.18651175E-01 0.58847106E+03</pdfrwt>
<totfact> 0.11613833E+03</totfact>
</mgrwt>
</event>
<event>
 4    1  0.1351183E-004  0.3576919E+03  0.7818608E-02  0.1059502E+00
          2   -1    0    0  501    0  0.00000000000E+00  0.00000000000E+00  0.20346927772E+04  0.20346927772E+04  0.25500000000E-02 0.  1.
         -2   -1    0    0    0  501 -0.00000000000E+00 -0.00000000000E+00 -0.15720249304E+02  0.15720249511E+02  0.25500000000E-02 0. -1.
    5000001    1    1    2    0    0  0.25135196447E+02  0.11037828647E+03  0.13256359930E+04  0.13365084849E+04  0.12700000000E+03 0.  0.
   -5000001    1    1    2    0    0 -0.25135196447E+02 -0.11037828647E+03  0.69333653491E+03  0.71390454185E+03  0.12700000000E+03 0.  0.
<mgrwt>
<rscale>  0 0.35769192E+03</rscale>
<asrwt>0</asrwt>
<pdfrwt beam="1">  1        2 0.29067050E+00 0.35769192E+03</pdfrwt>
<pdfrwt beam="2">  1       -2 0.22457491E-02 0.35769192E+03</pdfrwt>
<totfact> 0.55379885E+03</totfact>
</mgrwt>
</event>
<event>
 4    1  0.1351183E-004  0.3296504E+03  0.7818608E-02  0.1071292E+00
         -2   -1    0    0    0  501 -0.00000000000E+00  0.00000000000E+00  0.56244715897E+03  0.56244715898E+03  0.25500000000E-02 0. -1.
          2   -1    0    0  501    0  0.00000000000E+00 -0.00000000000E+00 -0.48302044812E+02  0.48302044880E+02  0.25500000000E-02 0.  1.
    5000001    1    1    2    0    0  0.17835457949E+02  0.83059261718E+02  0.14254216867E+03  0.20895983912E+03  0.12700000000E+03 0.  0.
   -5000001    1    1    2    0    0 -0.17835457949E+02 -0.83059261718E+02  0.37160294549E+03  0.40178936474E+03  0.12700000000E+03 0.  0.
<mgrwt>
<rscale>  0 0.32965041E+03</rscale>
<asrwt>0</asrwt>
<pdfrwt beam="1">  1        2 0.69002925E-02 0.32965041E+03</pdfrwt>
<pdfrwt beam="2">  1       -2 0.80349589E-01 0.32965041E+03</pdfrwt>
<totfact> 0.14588091E+03</totfact>
</mgrwt>
</event>
<event>
 4    1  0.1351183E-004  0.3465877E+03  0.7818608E-02  0.1064024E+00
         -2   -1    0    0    0  501 -0.00000000000E+00  0.00000000000E+00  0.22834307437E+02  0.22834307579E+02  0.25500000000E-02 0. -1.
          2   -1    0    0  501    0  0.00000000000E+00 -0.00000000000E+00 -0.13151597858E+04  0.13151597858E+04  0.25500000000E-02 0.  1.
    5000001    1    1    2    0    0 -0.40598965980E+02  0.10796879680E+03 -0.55189861884E+03  0.57795036343E+03  0.12700000000E+03 0.  0.
   -5000001    1    1    2    0    0  0.40598965980E+02 -0.10796879680E+03 -0.74042685956E+03  0.76004372998E+03  0.12700000000E+03 0.  0.
<mgrwt>
<rscale>  0 0.34658773E+03</rscale>
<asrwt>0</asrwt>
<pdfrwt beam="1">  1        2 0.18787992E+00 0.34658773E+03</pdfrwt>
<pdfrwt beam="2">  1       -2 0.32620448E-02 0.34658773E+03</pdfrwt>
<totfact> 0.72949101E+03</totfact>
</mgrwt>
</event>
<event>
 4    1  0.1351183E-004  0.3559009E+03  0.7818608E-02  0.1060219E+00
          2   -1    0    0  501    0  0.00000000000E+00  0.00000000000E+00  0.45023125248E+03  0.45023125249E+03  0.25500000000E-02 0.  1.
         -2   -1    0    0    0  501 -0.00000000000E+00 -0.00000000000E+00 -0.70333568821E+02  0.70333568868E+02  0.25500000000E-02 0. -1.
    5000001    1    1    2    0    0  0.27768491184E+02 -0.11936561563E+03  0.15665486514E+03  0.23598513951E+03  0.12700000000E+03 0.  0.
   -5000001    1    1    2    0    0 -0.27768491184E+02  0.11936561563E+03  0.22324281852E+03  0.28457968184E+03  0.12700000000E+03 0.  0.
<mgrwt>
<rscale>  0 0.35590095E+03</rscale>
<asrwt>0</asrwt>
<pdfrwt beam="1">  1        2 0.64318749E-01 0.35590095E+03</pdfrwt>
<pdfrwt beam="2">  1       -2 0.10047653E-01 0.35590095E+03</pdfrwt>
<totfact> 0.50297570E+03</totfact>
</mgrwt>
</event>
<event>
 4    1  0.1351183E-004  0.4097672E+03  0.7818608E-02  0.1040449E+00
         -2   -1    0    0    0  501 -0.00000000000E+00  0.00000000000E+00  0.47113326278E+02  0.47113326347E+02  0.25500000000E-02 0. -1.
          2   -1    0    0  501    0  0.00000000000E+00 -0.00000000000E+00 -0.89098549112E+03  0.89098549113E+03  0.25500000000E-02 0.  1.
    5000001    1    1    2    0    0  0.42810891872E+02 -0.12720015259E+03 -0.62458701188E+03  0.65134521315E+03  0.12700000000E+03 0.  0.
   -5000001    1    1    2    0    0 -0.42810891872E+02  0.12720015259E+03 -0.21928515296E+03  0.28675360432E+03  0.12700000000E+03 0.  0.
<mgrwt>
<rscale>  0 0.40976720E+03</rscale>
<asrwt>0</asrwt>
<pdfrwt beam="1">  1        2 0.12728363E+00 0.40976720E+03</pdfrwt>
<pdfrwt beam="2">  1       -2 0.67304758E-02 0.40976720E+03</pdfrwt>
<totfact> 0.42350084E+03</totfact>
</mgrwt>
</event>
<event>
 4    1  0.1351183E-004  0.4195766E+03  0.7818608E-02  0.1037204E+00
          2   -1    0    0  501    0  0.00000000000E+00  0.00000000000E+00  0.32459511397E+02  0.32459511497E+02  0.25500000000E-02 0.  1.
         -2   -1    0    0    0  501 -0.00000000000E+00 -0.00000000000E+00 -0.13558780636E+04  0.13558780636E+04  0.25500000000E-02 0. -1.
    5000001    1    1    2    0    0 -0.78236426937E+02  0.14751253977E+03 -0.66541116583E+03  0.69769757596E+03  0.12700000000E+03 0.  0.
   -5000001    1    1    2    0    0  0.78236426937E+02 -0.14751253977E+03 -0.65800738636E+03  0.69063999913E+03  0.12700000000E+03 0.  0.
<mgrwt>
<rscale>  0 0.41957664E+03</rscale>
<asrwt>0</asrwt>
<pdfrwt beam="1">  1        2 0.46370739E-02 0.41957664E+03</pdfrwt>
<pdfrwt beam="2">  1       -2 0.19369683E+00 0.41957664E+03</pdfrwt>
<totfact> 0.27509237E+02</totfact>
</mgrwt>
</event>
<event>
 4    1  0.1351183E-004  0.5569616E+03  0.7818608E-02  0.9998953E-01
          2   -1    0    0  501    0  0.00000000000E+00  0.00000000000E+00  0.97249862448E+03  0.97249862448E+03  0.25500000000E-02 0.  1.
         -2   -1    0    0    0  501 -0.00000000000E+00 -0.00000000000E+00 -0.79744656235E+02  0.79744656276E+02  0.25500000000E-02 0. -1.
    5000001    1    1    2    0    0 -0.93776531231E+02  0.17791751233E+03  0.17276799568E+03  0.29398377393E+03  0.12700000000E+03 0.  0.
   -5000001    1    1    2    0    0  0.93776531231E+02 -0.17791751233E+03  0.71998597257E+03  0.75825950683E+03  0.12700000000E+03 0.  0.
<mgrwt>
<rscale>  0 0.55696165E+03</rscale>
<asrwt>0</asrwt>
<pdfrwt beam="1">  1        2 0.13892836E+00 0.55696165E+03</pdfrwt>
<pdfrwt beam="2">  1       -2 0.11392095E-01 0.55696165E+03</pdfrwt>
<totfact> 0.16258507E+03</totfact>
</mgrwt>
</event>
<event>
 4    1  0.1351183E-004  0.3743111E+03  0.7818608E-02  0.1053057E+00
         -2   -1    0    0    0  501 -0.00000000000E+00  0.00000000000E+00  0.15226266874E+04  0.15226266874E+04  0.25500000000E-02 0. -1.
          2   -1    0    0  501    0  0.00000000000E+00 -0.00000000000E+00 -0.23004454828E+02  0.23004454969E+02  0.25500000000E-02 0.  1.
    5000001    1    1    2    0    0  0.70229008710E+02 -0.10712523692E+03  0.95587226701E+03  0.97274288529E+03  0.12700000000E+03 0.  0.
   -5000001    1    1    2    0    0 -0.70229008710E+02  0.10712523692E+03  0.54374996554E+03  0.57288825705E+03  0.12700000000E+03 0.  0.
<mgrwt>
<rscale>  0 0.37431108E+03</rscale>
<asrwt>0</asrwt>
<pdfrwt beam="1">  1        2 0.32863498E-02 0.37431108E+03</pdfrwt>
<pdfrwt beam="2">  1       -2 0.21751816E+00 0.37431108E+03</pdfrwt>
<totfact> 0.31066635E+02</totfact>
</mgrwt>
</event>
<event>
 4    1  0.1351183E-004  0.5128705E+03  0.7818608E-02  0.1010473E+00
          2   -1    0    0  501    0  0.00000000000E+00  0.00000000000E+00  0.28140025626E+04  0.28140025626E+04  0.25500000000E-02 0.  1.
         -2   -1    0    0    0  501 -0.00000000000E+00 -0.00000000000E+00 -0.23368504539E+02  0.23368504678E+02  0.25500000000E-02 0. -1.
    5000001    1    1    2    0    0  0.37143332892E+02 -0.21939436307E+03  0.14550350196E+04  0.14774198530E+04  0.12700000000E+03 0.  0.
   -5000001    1    1    2    0    0 -0.37143332892E+02  0.21939436307E+03  0.13355990385E+04  0.13599512143E+04  0.12700000000E+03 0.  0.
<mgrwt>
<rscale>  0 0.51287048E+03</rscale>
<asrwt>0</asrwt>
<pdfrwt beam="1">  1        2 0.40200067E+00 0.51287048E+03</pdfrwt>
<pdfrwt beam="2">  1       -2 0.33383553E-02 0.51287048E+03</pdfrwt>
<totfact> 0.12206925E+03</totfact>
</mgrwt>
</event>
<event>
 4    1  0.1351183E-004  0.4755580E+03  0.7818608E-02  0.1020363E+00
         -2   -1    0    0    0  501 -0.00000000000E+00  0.00000000000E+00  0.13108128215E+03  0.13108128217E+03  0.25500000000E-02 0. -1.
          2   -1    0    0  501    0  0.00000000000E+00 -0.00000000000E+00 -0.43132673643E+03  0.43132673643E+03  0.25500000000E-02 0.  1.
    5000001    1    1    2    0    0 -0.80189156722E+02  0.12535580652E+03 -0.30995466078E+03  0.36653140496E+03  0.12700000000E+03 0.  0.
   -5000001    1    1    2    0    0  0.80189156722E+02 -0.12535580652E+03  0.97092064999E+01  0.19587661365E+03  0.12700000000E+03 0.  0.
<mgrwt>
<rscale>  0 0.47555804E+03</rscale>
<asrwt>0</asrwt>
<pdfrwt beam="1">  1        2 0.61618104E-01 0.47555804E+03</pdfrwt>
<pdfrwt beam="2">  1       -2 0.18725898E-01 0.47555804E+03</pdfrwt>
<totfact> 0.18908148E+03</totfact>
</mgrwt>
</event>
<event>
 4    1  0.1351183E-004  0.3318666E+03  0.7818608E-02  0.1070314E+00
         -2   -1    0    0    0  501 -0.00000000000E+00  0.00000000000E+00  0.47613285275E+02  0.47613285344E+02  0.25500000000E-02 0. -1.
          2   -1    0    0  501    0  0.00000000000E+00 -0.00000000000E+00 -0.57828109210E+03  0.57828109210E+03  0.25500000000E-02 0.  1.
    5000001    1    1    2    0    0  0.85575052652E+01 -0.96500138905E+02 -0.18058310214E+03  0.24109078059E+03  0.12700000000E+03 0.  0.
   -5000001    1    1    2    0    0 -0.85575052652E+01  0.96500138905E+02 -0.35008470468E+03  0.38480359686E+03  0.12700000000E+03 0.  0.
<mgrwt>
<rscale>  0 0.33186662E+03</rscale>
<asrwt>0</asrwt>
<pdfrwt beam="1">  1        2 0.82611580E-01 0.33186662E+03</pdfrwt>
<pdfrwt beam="2">  1       -2 0.68018983E-02 0.33186662E+03</pdfrwt>
<totfact> 0.70144631E+03</totfact>
</mgrwt>
</event>
<event>
 4    1  0.1351183E-004  0.3357761E+03  0.7818608E-02  0.1068609E+00
          2   -1    0    0  501    0  0.00000000000E+00  0.00000000000E+00  0.93451986661E+03  0.93451986662E+03  0.25500000000E-02 0.  1.
         -2   -1    0    0    0  501 -0.00000000000E+00 -0.00000000000E+00 -0.30161361043E+02  0.30161361150E+02  0.25500000000E-02 0. -1.
    5000001    1    1    2    0    0  0.52526234778E+01 -0.10630472137E+03  0.52975568845E+03  0.55506609812E+03  0.12700000000E+03 0.  0.
   -5000001    1    1    2    0    0 -0.52526234778E+01  0.10630472137E+03  0.37460281712E+03  0.40961512964E+03  0.12700000000E+03 0.  0.
<mgrwt>
<rscale>  0 0.33577606E+03</rscale>
<asrwt>0</asrwt>
<pdfrwt beam="1">  1        2 0.13350285E+00 0.33577606E+03</pdfrwt>
<pdfrwt beam="2">  1       -2 0.43087654E-02 0.33577606E+03</pdfrwt>
<totfact> 0.78685044E+03</totfact>
</mgrwt>
</event>
<event>
 4    1  0.1351183E-004  0.1144168E+04  0.7818608E-02  0.9163180E-01
          2   -1    0    0  501    0  0.00000000000E+00  0.00000000000E+00  0.29003295775E+03  0.29003295776E+03  0.25500000000E-02 0.  1.
         -2   -1    0    0    0  501 -0.00000000000E+00 -0.00000000000E+00 -0.11284243012E+04  0.11284243012E+04  0.25500000000E-02 0. -1.
    5000001    1    1    2    0    0  0.47756408337E+03 -0.16849857395E+03 -0.70912244880E+03  0.88059234073E+03  0.12700000000E+03 0.  0.
   -5000001    1    1    2    0    0 -0.47756408337E+03  0.16849857395E+03 -0.12926889464E+03  0.53786491824E+03  0.12700000000E+03 0.  0.
<mgrwt>
<rscale>  0 0.11441682E+04</rscale>
<asrwt>0</asrwt>
<pdfrwt beam="1">  1        2 0.41433280E-01 0.11441682E+04</pdfrwt>
<pdfrwt beam="2">  1       -2 0.16120347E+00 0.11441682E+04</pdfrwt>
<totfact> 0.30261094E+01</totfact>
</mgrwt>
</event>
<event>
 4    1  0.1351183E-004  0.3365918E+03  0.7818608E-02  0.1068257E+00
          2   -1    0    0  501    0  0.00000000000E+00  0.00000000000E+00  0.92221934956E+03  0.92221934957E+03  0.25500000000E-02 0.  1.
         -2   -1    0    0    0  501 -0.00000000000E+00 -0.00000000000E+00 -0.30712342007E+02  0.30712342112E+02  0.25500000000E-02 0. -1.
    5000001    1    1    2    0    0 -0.10693313549E+03  0.15438780642E+02  0.51040381982E+03  0.53694889021E+03  0.12700000000E+03 0.  0.
   -5000001    1    1    2    0    0  0.10693313549E+03 -0.15438780642E+02  0.38110318774E+03  0.41598280147E+03  0.12700000000E+03 0.  0.
<mgrwt>
<rscale>  0 0.33659184E+03</rscale>
<asrwt>0</asrwt>
<pdfrwt beam="1">  1        2 0.13174565E+00 0.33659184E+03</pdfrwt>
<pdfrwt beam="2">  1       -2 0.43874764E-02 0.33659184E+03</pdfrwt>
<totfact> 0.77911936E+03</totfact>
</mgrwt>
</event>
<event>
 4    1  0.1351183E-004  0.6937962E+03  0.7818608E-02  0.9727901E-01
         -2   -1    0    0    0  501 -0.00000000000E+00  0.00000000000E+00  0.22927381367E+03  0.22927381369E+03  0.25500000000E-02 0. -1.
          2   -1    0    0  501    0  0.00000000000E+00 -0.00000000000E+00 -0.52486715185E+03  0.52486715186E+03  0.25500000000E-02 0.  1.
    5000001    1    1    2    0    0  0.24683217431E+03 -0.14167783451E+03  0.17804517964E+02  0.31216138763E+03  0.12700000000E+03 0.  0.
   -5000001    1    1    2    0    0 -0.24683217431E+03  0.14167783451E+03 -0.31339785614E+03  0.44197957792E+03  0.12700000000E+03 0.  0.
<mgrwt>
<rscale>  0 0.69379621E+03</rscale>
<asrwt>0</asrwt>
<pdfrwt beam="1">  1        2 0.74981022E-01 0.69379621E+03</pdfrwt>
<pdfrwt beam="2">  1       -2 0.32753402E-01 0.69379621E+03</pdfrwt>
<totfact> 0.55457250E+02</totfact>
</mgrwt>
</event>
<event>
 4    1  0.1351183E-004  0.3335698E+03  0.7818608E-02  0.1069568E+00
         -2   -1    0    0    0  501 -0.00000000000E+00  0.00000000000E+00  0.38251341688E+02  0.38251341773E+02  0.25500000000E-02 0. -1.
          2   -1    0    0  501    0  0.00000000000E+00 -0.00000000000E+00 -0.72722169050E+03  0.72722169050E+03  0.25500000000E-02 0.  1.
    5000001    1    1    2    0    0 -0.96995400069E+02 -0.34497076665E+02 -0.26872058844E+03  0.31454397241E+03  0.12700000000E+03 0.  0.
   -5000001    1    1    2    0    0  0.96995400069E+02  0.34497076665E+02 -0.42024976037E+03  0.45092905986E+03  0.12700000000E+03 0.  0.
<mgrwt>
<rscale>  0 0.33356982E+03</rscale>
<asrwt>0</asrwt>
<pdfrwt beam="1">  1        2 0.10388880E+00 0.33356982E+03</pdfrwt>
<pdfrwt beam="2">  1       -2 0.54644778E-02 0.33356982E+03</pdfrwt>
<totfact> 0.75177818E+03</totfact>
</mgrwt>
</event>
<event>
 4    1  0.1351183E-004  0.6817513E+03  0.7818608E-02  0.9748959E-01
         -2   -1    0    0    0  501 -0.00000000000E+00  0.00000000000E+00  0.10815441795E+03  0.10815441798E+03  0.25500000000E-02 0. -1.
          2   -1    0    0  501    0  0.00000000000E+00 -0.00000000000E+00 -0.10743547838E+04  0.10743547838E+04  0.25500000000E-02 0.  1.
    5000001    1    1    2    0    0 -0.46953386570E+02  0.21751823052E+03 -0.87307118293E+03  0.90989070309E+03  0.12700000000E+03 0.  0.
   -5000001    1    1    2    0    0  0.46953386570E+02 -0.21751823052E+03 -0.93129182934E+02  0.27261849870E+03  0.12700000000E+03 0.  0.
<mgrwt>
<rscale>  0 0.68175132E+03</rscale>
<asrwt>0</asrwt>
<pdfrwt beam="1">  1        2 0.15347925E+00 0.68175132E+03</pdfrwt>
<pdfrwt beam="2">  1       -2 0.15450632E-01 0.68175132E+03</pdfrwt>
<totfact> 0.84761222E+02</totfact>
</mgrwt>
</event>
<event>
 4    1  0.1351183E-004  0.6424623E+03  0.7818608E-02  0.9821027E-01
         -2   -1    0    0    0  501 -0.00000000000E+00  0.00000000000E+00  0.58788999255E+02  0.58788999310E+02  0.25500000000E-02 0. -1.
          2   -1    0    0  501    0  0.00000000000E+00 -0.00000000000E+00 -0.17552508370E+04  0.17552508370E+04  0.25500000000E-02 0.  1.
    5000001    1    1    2    0    0 -0.20917738492E+03  0.14100956611E+03 -0.41610815706E+03  0.50290543293E+03  0.12700000000E+03 0.  0.
   -5000001    1    1    2    0    0  0.20917738492E+03 -0.14100956611E+03 -0.12803536807E+04  0.13111344034E+04  0.12700000000E+03 0.  0.
<mgrwt>
<rscale>  0 0.64246226E+03</rscale>
<asrwt>0</asrwt>
<pdfrwt beam="1">  1        2 0.25075009E+00 0.64246226E+03</pdfrwt>
<pdfrwt beam="2">  1       -2 0.83984296E-02 0.64246226E+03</pdfrwt>
<totfact> 0.99623395E+02</totfact>
</mgrwt>
</event>
<event>
 4    1  0.1351183E-004  0.7529601E+03  0.7818608E-02  0.9630718E-01
          2   -1    0    0  501    0  0.00000000000E+00  0.00000000000E+00  0.22742577978E+04  0.22742577978E+04  0.25500000000E-02 0.  1.
         -2   -1    0    0    0  501 -0.00000000000E+00 -0.00000000000E+00 -0.62322402604E+02  0.62322402656E+02  0.25500000000E-02 0. -1.
    5000001    1    1    2    0    0  0.68207185078E+02  0.34514140104E+03  0.12388410117E+04  0.12940752911E+04  0.12700000000E+03 0.  0.
   -5000001    1    1    2    0    0 -0.68207185078E+02 -0.34514140104E+03  0.97309438348E+03  0.10425049093E+04  0.12700000000E+03 0.  0.
<mgrwt>
<rscale>  0 0.75296005E+03</rscale>
<asrwt>0</asrwt>
<pdfrwt beam="1">  1        2 0.32489396E+00 0.75296005E+03</pdfrwt>
<pdfrwt beam="2">  1       -2 0.89032007E-02 0.75296005E+03</pdfrwt>
<totfact> 0.49217764E+02</totfact>
</mgrwt>
</event>
<event>
 4    1  0.1351183E-004  0.4968716E+03  0.7818608E-02  0.1014599E+00
          2   -1    0    0  501    0  0.00000000000E+00  0.00000000000E+00  0.17870597937E+04  0.17870597937E+04  0.25500000000E-02 0.  1.
         -2   -1    0    0    0  501 -0.00000000000E+00 -0.00000000000E+00 -0.34537376530E+02  0.34537376624E+02  0.25500000000E-02 0. -1.
    5000001    1    1    2    0    0 -0.20905621432E+03 -0.50513306494E+00  0.10354997464E+04  0.10639988162E+04  0.12700000000E+03 0.  0.
   -5000001    1    1    2    0    0  0.20905621432E+03  0.50513306494E+00  0.71702267075E+03  0.75759835419E+03  0.12700000000E+03 0.  0.
<mgrwt>
<rscale>  0 0.49687164E+03</rscale>
<asrwt>0</asrwt>
<pdfrwt beam="1">  1        2 0.25529434E+00 0.49687164E+03</pdfrwt>
<pdfrwt beam="2">  1       -2 0.49339093E-02 0.49687164E+03</pdfrwt>
<totfact> 0.22276117E+03</totfact>
</mgrwt>
</event>
<event>
 4    1  0.1351183E-004  0.5580116E+03  0.7818608E-02  0.9996564E-01
          2   -1    0    0  501    0  0.00000000000E+00  0.00000000000E+00  0.11258545014E+04  0.11258545015E+04  0.25500000000E-02 0.  1.
         -2   -1    0    0    0  501 -0.00000000000E+00 -0.00000000000E+00 -0.69142358494E+02  0.69142358541E+02  0.25500000000E-02 0. -1.
    5000001    1    1    2    0    0  0.17273870987E+03 -0.16497769988E+03  0.67452892869E+03  0.72675620326E+03  0.12700000000E+03 0.  0.
   -5000001    1    1    2    0    0 -0.17273870987E+03  0.16497769988E+03  0.38218321427E+03  0.46824065673E+03  0.12700000000E+03 0.  0.
<mgrwt>
<rscale>  0 0.55801160E+03</rscale>
<asrwt>0</asrwt>
<pdfrwt beam="1">  1        2 0.16083635E+00 0.55801160E+03</pdfrwt>
<pdfrwt beam="2">  1       -2 0.98774800E-02 0.55801160E+03</pdfrwt>
<totfact> 0.16623752E+03</totfact>
</mgrwt>
</event>
<event>
 4    1  0.1351183E-004  0.3158483E+03  0.7818608E-02  0.1077576E+00
          2   -1    0    0  501    0  0.00000000000E+00  0.00000000000E+00  0.17475403471E+04  0.17475403471E+04  0.25500000000E-02 0.  1.
         -2   -1    0    0    0  501 -0.00000000000E+00 -0.00000000000E+00 -0.14271511081E+02  0.14271511309E+02  0.25500000000E-02 0. -1.
    5000001    1    1    2    0    0 -0.21962170810E+02  0.47981484153E+02  0.43360951506E+03  0.45489644022E+03  0.12700000000E+03 0.  0.
   -5000001    1    1    2    0    0  0.21962170810E+02 -0.47981484153E+02  0.12996593210E+04  0.13069154182E+04  0.12700000000E+03 0.  0.
<mgrwt>
<rscale>  0 0.31584833E+03</rscale>
<asrwt>0</asrwt>
<pdfrwt beam="1">  1        2 0.24964849E+00 0.31584833E+03</pdfrwt>
<pdfrwt beam="2">  1       -2 0.20387884E-02 0.31584833E+03</pdfrwt>
<totfact> 0.88447763E+03</totfact>
</mgrwt>
</event>
<event>
 4    1  0.1351183E-004  0.6709118E+03  0.7818608E-02  0.9768312E-01
         -2   -1    0    0    0  501 -0.00000000000E+00  0.00000000000E+00  0.78879444138E+03  0.78879444138E+03  0.25500000000E-02 0. -1.
          2   -1    0    0  501    0  0.00000000000E+00 -0.00000000000E+00 -0.14266157314E+03  0.14266157316E+03  0.25500000000E-02 0.  1.
    5000001    1    1    2    0    0  0.27350416200E+03  0.14695486519E+03  0.32470730534E+03  0.46686624763E+03  0.12700000000E+03 0.  0.
   -5000001    1    1    2    0    0 -0.27350416200E+03 -0.14695486519E+03  0.32142556289E+03  0.46458976691E+03  0.12700000000E+03 0.  0.
<mgrwt>
<rscale>  0 0.67091179E+03</rscale>
<asrwt>0</asrwt>
<pdfrwt beam="1">  1        2 0.20380224E-01 0.67091179E+03</pdfrwt>
<pdfrwt beam="2">  1       -2 0.11268492E+00 0.67091179E+03</pdfrwt>
<totfact> 0.17416433E+02</totfact>
</mgrwt>
</event>
<event>
 4    1  0.1351183E-004  0.8078097E+03  0.7818608E-02  0.9548781E-01
         -2   -1    0    0    0  501 -0.00000000000E+00  0.00000000000E+00  0.44208933420E+02  0.44208933494E+02  0.25500000000E-02 0. -1.
          2   -1    0    0  501    0  0.00000000000E+00 -0.00000000000E+00 -0.36901847282E+04  0.36901847282E+04  0.25500000000E-02 0.  1.
    5000001    1    1    2    0    0 -0.37004656595E+03 -0.62557372761E+02 -0.14600932870E+04  0.15128943429E+04  0.12700000000E+03 0.  0.
   -5000001    1    1    2    0    0  0.37004656595E+03  0.62557372761E+02 -0.21858825077E+04  0.22214993188E+04  0.12700000000E+03 0.  0.
<mgrwt>
<rscale>  0 0.80780971E+03</rscale>
<asrwt>0</asrwt>
<pdfrwt beam="1">  1        2 0.52716905E+00 0.80780971E+03</pdfrwt>
<pdfrwt beam="2">  1       -2 0.63155643E-02 0.80780971E+03</pdfrwt>
<totfact> 0.13949477E+02</totfact>
</mgrwt>
</event>
<event>
 4    1  0.1351183E-004  0.4078637E+03  0.7818608E-02  0.1041090E+00
         -2   -1    0    0    0  501 -0.00000000000E+00  0.00000000000E+00  0.24641315644E+04  0.24641315644E+04  0.25500000000E-02 0. -1.
          2   -1    0    0  501    0  0.00000000000E+00 -0.00000000000E+00 -0.16877423540E+02  0.16877423733E+02  0.25500000000E-02 0.  1.
    5000001    1    1    2    0    0  0.72962282012E+02 -0.13434873170E+03  0.15014592511E+04  0.15145566873E+04  0.12700000000E+03 0.  0.
   -5000001    1    1    2    0    0 -0.72962282012E+02  0.13434873170E+03  0.94579488972E+03  0.96645230080E+03  0.12700000000E+03 0.  0.
<mgrwt>
<rscale>  0 0.40786367E+03</rscale>
<asrwt>0</asrwt>
<pdfrwt beam="1">  1        2 0.24110600E-02 0.40786367E+03</pdfrwt>
<pdfrwt beam="2">  1       -2 0.35201887E+00 0.40786367E+03</pdfrwt>
<totfact> 0.74702994E+01</totfact>
</mgrwt>
</event>
<event>
 4    1  0.1351183E-004  0.5496229E+03  0.7818608E-02  0.1001581E+00
         -2   -1    0    0    0  501 -0.00000000000E+00  0.00000000000E+00  0.64099248351E+02  0.64099248402E+02  0.25500000000E-02 0. -1.
          2   -1    0    0  501    0  0.00000000000E+00 -0.00000000000E+00 -0.11781939163E+04  0.11781939163E+04  0.25500000000E-02 0.  1.
    5000001    1    1    2    0    0 -0.19841350587E+03  0.71744532570E+02 -0.28135856523E+03  0.37390752800E+03  0.12700000000E+03 0.  0.
   -5000001    1    1    2    0    0  0.19841350587E+03 -0.71744532570E+02 -0.83273610268E+03  0.86838563667E+03  0.12700000000E+03 0.  0.
<mgrwt>
<rscale>  0 0.54962294E+03</rscale>
<asrwt>0</asrwt>
<pdfrwt beam="1">  1        2 0.16831340E+00 0.54962294E+03</pdfrwt>
<pdfrwt beam="2">  1       -2 0.91570362E-02 0.54962294E+03</pdfrwt>
<totfact> 0.17541069E+03</totfact>
</mgrwt>
</event>
<event>
 4    1  0.1351183E-004  0.3764410E+03  0.7818608E-02  0.1052257E+00
          2   -1    0    0  501    0  0.00000000000E+00  0.00000000000E+00  0.32658591432E+03  0.32658591433E+03  0.25500000000E-02 0.  1.
         -2   -1    0    0    0  501 -0.00000000000E+00 -0.00000000000E+00 -0.10847669613E+03  0.10847669616E+03  0.25500000000E-02 0. -1.
    5000001    1    1    2    0    0 -0.35991192452E+02 -0.90981132594E+02 -0.49179393120E+01  0.16039363625E+03  0.12700000000E+03 0.  0.
   -5000001    1    1    2    0    0  0.35991192452E+02  0.90981132594E+02  0.22302715751E+03  0.27466897424E+03  0.12700000000E+03 0.  0.
<mgrwt>
<rscale>  0 0.37644102E+03</rscale>
<asrwt>0</asrwt>
<pdfrwt beam="1">  1        2 0.46655130E-01 0.37644102E+03</pdfrwt>
<pdfrwt beam="2">  1       -2 0.15496671E-01 0.37644102E+03</pdfrwt>
<totfact> 0.35234861E+03</totfact>
</mgrwt>
</event>
<event>
 4    1  0.1351183E-004  0.4825436E+03  0.7818608E-02  0.1018438E+00
         -2   -1    0    0    0  501 -0.00000000000E+00  0.00000000000E+00  0.26732330871E+02  0.26732330993E+02  0.25500000000E-02 0. -1.
          2   -1    0    0  501    0  0.00000000000E+00 -0.00000000000E+00 -0.21775906135E+04  0.21775906135E+04  0.25500000000E-02 0.  1.
    5000001    1    1    2    0    0  0.16020659665E+03 -0.78444097384E+02 -0.61263779635E+03  0.65059488128E+03  0.12700000000E+03 0.  0.
   -5000001    1    1    2    0    0 -0.16020659665E+03  0.78444097384E+02 -0.15382204862E+04  0.15537280632E+04  0.12700000000E+03 0.  0.
<mgrwt>
<rscale>  0 0.48254356E+03</rscale>
<asrwt>0</asrwt>
<pdfrwt beam="1">  1        2 0.31108426E+00 0.48254356E+03</pdfrwt>
<pdfrwt beam="2">  1       -2 0.38189058E-02 0.48254356E+03</pdfrwt>
<totfact> 0.21075878E+03</totfact>
</mgrwt>
</event>
<event>
 4    1  0.1351183E-004  0.3091507E+03  0.7818608E-02  0.1080754E+00
         -2   -1    0    0    0  501 -0.00000000000E+00  0.00000000000E+00  0.40307287790E+02  0.40307287871E+02  0.25500000000E-02 0. -1.
          2   -1    0    0  501    0  0.00000000000E+00 -0.00000000000E+00 -0.59278456544E+03  0.59278456544E+03  0.25500000000E-02 0.  1.
    5000001    1    1    2    0    0 -0.77757666520E+02  0.37938911585E+02 -0.24203768756E+03  0.28669994405E+03  0.12700000000E+03 0.  0.
   -5000001    1    1    2    0    0  0.77757666520E+02 -0.37938911585E+02 -0.31043959008E+03  0.34639190927E+03  0.12700000000E+03 0.  0.
<mgrwt>
<rscale>  0 0.30915070E+03</rscale>
<asrwt>0</asrwt>
<pdfrwt beam="1">  1        2 0.84683504E-01 0.30915070E+03</pdfrwt>
<pdfrwt beam="2">  1       -2 0.57581843E-02 0.30915070E+03</pdfrwt>
<totfact> 0.87992473E+03</totfact>
</mgrwt>
</event>
<event>
 4    1  0.1351183E-004  0.2883128E+03  0.7818608E-02  0.1091233E+00
         -2   -1    0    0    0  501 -0.00000000000E+00  0.00000000000E+00  0.57408585074E+02  0.57408585131E+02  0.25500000000E-02 0. -1.
          2   -1    0    0  501    0  0.00000000000E+00 -0.00000000000E+00 -0.36198536175E+03  0.36198536176E+03  0.25500000000E-02 0.  1.
    5000001    1    1    2    0    0 -0.44333057394E+01 -0.64749859377E+02 -0.18279682086E+03  0.23185313499E+03  0.12700000000E+03 0.  0.
   -5000001    1    1    2    0    0  0.44333057394E+01  0.64749859377E+02 -0.12177995582E+03  0.18754081190E+03  0.12700000000E+03 0.  0.
<mgrwt>
<rscale>  0 0.28831280E+03</rscale>
<asrwt>0</asrwt>
<pdfrwt beam="1">  1        2 0.51712193E-01 0.28831280E+03</pdfrwt>
<pdfrwt beam="2">  1       -2 0.82012266E-02 0.28831280E+03</pdfrwt>
<totfact> 0.87396542E+03</totfact>
</mgrwt>
</event>
<event>
 4    1  0.1351183E-004  0.3298331E+03  0.7818608E-02  0.1071211E+00
         -2   -1    0    0    0  501 -0.00000000000E+00  0.00000000000E+00  0.15013071494E+02  0.15013071710E+02  0.25500000000E-02 0. -1.
          2   -1    0    0  501    0  0.00000000000E+00 -0.00000000000E+00 -0.18115854444E+04  0.18115854444E+04  0.25500000000E-02 0.  1.
    5000001    1    1    2    0    0 -0.23523698296E+02 -0.17720646014E+02 -0.33895129202E+03  0.36315886887E+03  0.12700000000E+03 0.  0.
   -5000001    1    1    2    0    0  0.23523698296E+02  0.17720646014E+02 -0.14576210809E+04  0.14634396473E+04  0.12700000000E+03 0.  0.
<mgrwt>
<rscale>  0 0.32983306E+03</rscale>
<asrwt>0</asrwt>
<pdfrwt beam="1">  1        2 0.25879778E+00 0.32983306E+03</pdfrwt>
<pdfrwt beam="2">  1       -2 0.21447257E-02 0.32983306E+03</pdfrwt>
<totfact> 0.76336131E+03</totfact>
</mgrwt>
</event>
<event>
 4    1  0.1351183E-004  0.4392518E+03  0.7818608E-02  0.1030977E+00
         -2   -1    0    0    0  501 -0.00000000000E+00  0.00000000000E+00  0.20672788503E+03  0.20672788505E+03  0.25500000000E-02 0. -1.
          2   -1    0    0  501    0  0.00000000000E+00 -0.00000000000E+00 -0.23332868835E+03  0.23332868837E+03  0.25500000000E-02 0.  1.
    5000001    1    1    2    0    0  0.45412495638E+02  0.17237203212E+03 -0.31558334968E+02  0.22113195320E+03  0.12700000000E+03 0.  0.
   -5000001    1    1    2    0    0 -0.45412495638E+02 -0.17237203212E+03  0.49575316481E+01  0.21892462022E+03  0.12700000000E+03 0.  0.
<mgrwt>
<rscale>  0 0.43925185E+03</rscale>
<asrwt>0</asrwt>
<pdfrwt beam="1">  1        2 0.33332670E-01 0.43925185E+03</pdfrwt>
<pdfrwt beam="2">  1       -2 0.29532555E-01 0.43925185E+03</pdfrwt>
<totfact> 0.16564509E+03</totfact>
</mgrwt>
</event>
<event>
 4    1  0.1351183E-004  0.2618424E+03  0.7818608E-02  0.1106041E+00
         -2   -1    0    0    0  501 -0.00000000000E+00  0.00000000000E+00  0.55239663420E+01  0.55239669305E+01  0.25500000000E-02 0. -1.
          2   -1    0    0  501    0  0.00000000000E+00 -0.00000000000E+00 -0.31029079470E+04  0.31029079470E+04  0.25500000000E-02 0.  1.
    5000001    1    1    2    0    0  0.16312962035E+01  0.31330494830E+02 -0.16104904400E+04  0.16157947637E+04  0.12700000000E+03 0.  0.
   -5000001    1    1    2    0    0 -0.16312962035E+01 -0.31330494830E+02 -0.14868935406E+04  0.14926371502E+04  0.12700000000E+03 0.  0.
<mgrwt>
<rscale>  0 0.26184240E+03</rscale>
<asrwt>0</asrwt>
<pdfrwt beam="1">  1        2 0.44327145E+00 0.26184240E+03</pdfrwt>
<pdfrwt beam="2">  1       -2 0.78914008E-03 0.26184240E+03</pdfrwt>
<totfact> 0.73562576E+03</totfact>
</mgrwt>
</event>
<event>
 4    1  0.1351183E-004  0.3404963E+03  0.7818608E-02  0.1066585E+00
          2   -1    0    0  501    0  0.00000000000E+00  0.00000000000E+00  0.12360335108E+03  0.12360335111E+03  0.25500000000E-02 0.  1.
         -2   -1    0    0    0  501 -0.00000000000E+00 -0.00000000000E+00 -0.23449553789E+03  0.23449553790E+03  0.25500000000E-02 0. -1.
    5000001    1    1    2    0    0 -0.38372493966E+02  0.10667984642E+03 -0.53818041450E+02  0.17854528700E+03  0.12700000000E+03 0.  0.
   -5000001    1    1    2    0    0  0.38372493966E+02 -0.10667984642E+03 -0.57074145360E+02  0.17955360201E+03  0.12700000000E+03 0.  0.
<mgrwt>
<rscale>  0 0.34049631E+03</rscale>
<asrwt>0</asrwt>
<pdfrwt beam="1">  1        2 0.17657622E-01 0.34049631E+03</pdfrwt>
<pdfrwt beam="2">  1       -2 0.33499363E-01 0.34049631E+03</pdfrwt>
<totfact> 0.26885053E+03</totfact>
</mgrwt>
</event>
<event>
 4    1  0.1351183E-004  0.4567824E+03  0.7818608E-02  0.1025719E+00
          2   -1    0    0  501    0  0.00000000000E+00  0.00000000000E+00  0.78745195923E+03  0.78745195924E+03  0.25500000000E-02 0.  1.
         -2   -1    0    0    0  501 -0.00000000000E+00 -0.00000000000E+00 -0.66242198285E+02  0.66242198334E+02  0.25500000000E-02 0. -1.
    5000001    1    1    2    0    0  0.82030743764E+02 -0.16719173702E+03  0.29189969321E+03  0.36880421736E+03  0.12700000000E+03 0.  0.
   -5000001    1    1    2    0    0 -0.82030743764E+02  0.16719173702E+03  0.42931006774E+03  0.48488994021E+03  0.12700000000E+03 0.  0.
<mgrwt>
<rscale>  0 0.45678244E+03</rscale>
<asrwt>0</asrwt>
<pdfrwt beam="1">  1        2 0.11249313E+00 0.45678244E+03</pdfrwt>
<pdfrwt beam="2">  1       -2 0.94631718E-02 0.45678244E+03</pdfrwt>
<totfact> 0.28982716E+03</totfact>
</mgrwt>
</event>
<event>
 4    1  0.1351183E-004  0.4635964E+03  0.7818608E-02  0.1023743E+00
         -2   -1    0    0    0  501 -0.00000000000E+00  0.00000000000E+00  0.48125282894E+02  0.48125282961E+02  0.25500000000E-02 0. -1.
          2   -1    0    0  501    0  0.00000000000E+00 -0.00000000000E+00 -0.11164694155E+04  0.11164694155E+04  0.25500000000E-02 0.  1.
    5000001    1    1    2    0    0 -0.84796142082E+02  0.15989764166E+03 -0.35933791021E+03  0.42191275784E+03  0.12700000000E+03 0.  0.
   -5000001    1    1    2    0    0  0.84796142082E+02 -0.15989764166E+03 -0.70900622237E+03  0.74268194059E+03  0.12700000000E+03 0.  0.
<mgrwt>
<rscale>  0 0.46359640E+03</rscale>
<asrwt>0</asrwt>
<pdfrwt beam="1">  1        2 0.15949561E+00 0.46359640E+03</pdfrwt>
<pdfrwt beam="2">  1       -2 0.68750411E-02 0.46359640E+03</pdfrwt>
<totfact> 0.29986431E+03</totfact>
</mgrwt>
</event>
<event>
 4    1  0.1351183E-004  0.4308181E+03  0.7818608E-02  0.1033602E+00
         -2   -1    0    0    0  501 -0.00000000000E+00  0.00000000000E+00  0.34143994310E+03  0.34143994311E+03  0.25500000000E-02 0. -1.
          2   -1    0    0  501    0  0.00000000000E+00 -0.00000000000E+00 -0.13589814646E+03  0.13589814649E+03  0.25500000000E-02 0.  1.
    5000001    1    1    2    0    0 -0.10880012190E+03 -0.13237893890E+03  0.69339881857E+02  0.22427364804E+03  0.12700000000E+03 0.  0.
   -5000001    1    1    2    0    0  0.10880012190E+03  0.13237893890E+03  0.13620191478E+03  0.25306444156E+03  0.12700000000E+03 0.  0.
<mgrwt>
<rscale>  0 0.43081808E+03</rscale>
<asrwt>0</asrwt>
<pdfrwt beam="1">  1        2 0.19414021E-01 0.43081808E+03</pdfrwt>
<pdfrwt beam="2">  1       -2 0.48777134E-01 0.43081808E+03</pdfrwt>
<totfact> 0.11699411E+03</totfact>
</mgrwt>
</event>
<event>
 4    1  0.1351183E-004  0.2695298E+03  0.7818608E-02  0.1101549E+00
          2   -1    0    0  501    0  0.00000000000E+00  0.00000000000E+00  0.15456223663E+04  0.15456223663E+04  0.25500000000E-02 0.  1.
         -2   -1    0    0    0  501 -0.00000000000E+00 -0.00000000000E+00 -0.11750336474E+02  0.11750336751E+02  0.25500000000E-02 0. -1.
    5000001    1    1    2    0    0  0.24739928313E+02  0.37254501232E+02  0.73393437910E+03  0.74618270869E+03  0.12700000000E+03 0.  0.
   -5000001    1    1    2    0    0 -0.24739928313E+02 -0.37254501232E+02  0.79993765076E+03  0.81118999440E+03  0.12700000000E+03 0.  0.
<mgrwt>
<rscale>  0 0.26952984E+03</rscale>
<asrwt>0</asrwt>
<pdfrwt beam="1">  1        2 0.22080307E+00 0.26952984E+03</pdfrwt>
<pdfrwt beam="2">  1       -2 0.16786204E-02 0.26952984E+03</pdfrwt>
<totfact> 0.14782967E+04</totfact>
</mgrwt>
</event>
<event>
 4    1  0.1351183E-004  0.3519943E+03  0.7818608E-02  0.1061799E+00
         -2   -1    0    0    0  501 -0.00000000000E+00  0.00000000000E+00  0.62522307543E+02  0.62522307595E+02  0.25500000000E-02 0. -1.
          2   -1    0    0  501    0  0.00000000000E+00 -0.00000000000E+00 -0.49542325493E+03  0.49542325494E+03  0.25500000000E-02 0.  1.
    5000001    1    1    2    0    0  0.64391733267E+02 -0.91677338649E+02 -0.14051492154E+03  0.22005561322E+03  0.12700000000E+03 0.  0.
   -5000001    1    1    2    0    0 -0.64391733267E+02  0.91677338649E+02 -0.29238602585E+03  0.33788994932E+03  0.12700000000E+03 0.  0.
<mgrwt>
<rscale>  0 0.35199435E+03</rscale>
<asrwt>0</asrwt>
<pdfrwt beam="1">  1        2 0.70774749E-01 0.35199435E+03</pdfrwt>
<pdfrwt beam="2">  1       -2 0.89317585E-02 0.35199435E+03</pdfrwt>
<totfact> 0.54554584E+03</totfact>
</mgrwt>
</event>
<event>
 4    1  0.1351183E-004  0.3078983E+03  0.7818608E-02  0.1081358E+00
          2   -1    0    0  501    0  0.00000000000E+00  0.00000000000E+00  0.40534591608E+03  0.40534591609E+03  0.25500000000E-02 0.  1.
         -2   -1    0    0    0  501 -0.00000000000E+00 -0.00000000000E+00 -0.58469403352E+02  0.58469403408E+02  0.25500000000E-02 0. -1.
    5000001    1    1    2    0    0  0.28924720303E+02  0.82040172437E+02  0.17038635725E+03  0.22962521655E+03  0.12700000000E+03 0.  0.
   -5000001    1    1    2    0    0 -0.28924720303E+02 -0.82040172437E+02  0.17649015548E+03  0.23419010295E+03  0.12700000000E+03 0.  0.
<mgrwt>
<rscale>  0 0.30789826E+03</rscale>
<asrwt>0</asrwt>
<pdfrwt beam="1">  1        2 0.57906558E-01 0.30789826E+03</pdfrwt>
<pdfrwt beam="2">  1       -2 0.83527721E-02 0.30789826E+03</pdfrwt>
<totfact> 0.75304047E+03</totfact>
</mgrwt>
</event>
<event>
 4    1  0.1351183E-004  0.3392899E+03  0.7818608E-02  0.1067099E+00
          2   -1    0    0  501    0  0.00000000000E+00  0.00000000000E+00  0.27516871060E+04  0.27516871060E+04  0.25500000000E-02 0. -1.
         -2   -1    0    0    0  501 -0.00000000000E+00 -0.00000000000E+00 -0.10458825230E+02  0.10458825541E+02  0.25500000000E-02 0.  1.
    5000001    1    1    2    0    0 -0.66653883783E+02 -0.23158820851E+02  0.20836499898E+04  0.20887090155E+04  0.12700000000E+03 0.  0.
   -5000001    1    1    2    0    0  0.66653883783E+02  0.23158820851E+02  0.65757829093E+03  0.67343691605E+03  0.12700000000E+03 0.  0.
<mgrwt>
<rscale>  0 0.33928993E+03</rscale>
<asrwt>0</asrwt>
<pdfrwt beam="1">  1        2 0.39309871E+00 0.33928993E+03</pdfrwt>
<pdfrwt beam="2">  1       -2 0.14941158E-02 0.33928993E+03</pdfrwt>
<totfact> 0.44264577E+03</totfact>
</mgrwt>
</event>
<event>
 4    1  0.1351183E-004  0.4941452E+03  0.7818608E-02  0.1015318E+00
          2   -1    0    0  501    0  0.00000000000E+00  0.00000000000E+00  0.17327369548E+03  0.17327369550E+03  0.25500000000E-02 0.  1.
         -2   -1    0    0    0  501 -0.00000000000E+00 -0.00000000000E+00 -0.35230318177E+03  0.35230318178E+03  0.25500000000E-02 0. -1.
    5000001    1    1    2    0    0  0.19891432572E+03 -0.72111325767E+02 -0.76535151561E+02  0.25836714517E+03  0.12700000000E+03 0.  0.
   -5000001    1    1    2    0    0 -0.19891432572E+03  0.72111325767E+02 -0.10249433473E+03  0.26720973210E+03  0.12700000000E+03 0.  0.
<mgrwt>
<rscale>  0 0.49414522E+03</rscale>
<asrwt>0</asrwt>
<pdfrwt beam="1">  1        2 0.24753385E-01 0.49414522E+03</pdfrwt>
<pdfrwt beam="2">  1       -2 0.50329025E-01 0.49414522E+03</pdfrwt>
<totfact> 0.83087931E+02</totfact>
</mgrwt>
</event>
<event>
 4    1  0.1351183E-004  0.8617716E+03  0.7818608E-02  0.9474672E-01
          2   -1    0    0  501    0  0.00000000000E+00  0.00000000000E+00  0.11545646363E+03  0.11545646366E+03  0.25500000000E-02 0.  1.
         -2   -1    0    0    0  501 -0.00000000000E+00 -0.00000000000E+00 -0.16080742358E+04  0.16080742358E+04  0.25500000000E-02 0. -1.
    5000001    1    1    2    0    0 -0.27944891811E+03 -0.26708328024E+03 -0.10299149321E+04  0.11073747983E+04  0.12700000000E+03 0.  0.
   -5000001    1    1    2    0    0  0.27944891811E+03  0.26708328024E+03 -0.46270284008E+03  0.61615590124E+03  0.12700000000E+03 0.  0.
<mgrwt>
<rscale>  0 0.86177158E+03</rscale>
<asrwt>0</asrwt>
<pdfrwt beam="1">  1        2 0.16493781E-01 0.86177158E+03</pdfrwt>
<pdfrwt beam="2">  1       -2 0.22972488E+00 0.86177158E+03</pdfrwt>
<totfact> 0.31151018E+01</totfact>
</mgrwt>
</event>
<event>
 4    1  0.1351183E-004  0.5371290E+03  0.7818608E-02  0.1004518E+00
         -2   -1    0    0    0  501 -0.00000000000E+00  0.00000000000E+00  0.14272197945E+03  0.14272197947E+03  0.25500000000E-02 0. -1.
          2   -1    0    0  501    0  0.00000000000E+00 -0.00000000000E+00 -0.50536633991E+03  0.50536633991E+03  0.25500000000E-02 0.  1.
    5000001    1    1    2    0    0 -0.19534918092E+01  0.15976007808E+03 -0.39194112794E+03  0.44189811772E+03  0.12700000000E+03 0.  0.
   -5000001    1    1    2    0    0  0.19534918092E+01 -0.15976007808E+03  0.29296767483E+02  0.20619020166E+03  0.12700000000E+03 0.  0.
<mgrwt>
<rscale>  0 0.53712898E+03</rscale>
<asrwt>0</asrwt>
<pdfrwt beam="1">  1        2 0.72195191E-01 0.53712898E+03</pdfrwt>
<pdfrwt beam="2">  1       -2 0.20388854E-01 0.53712898E+03</pdfrwt>
<totfact> 0.13668123E+03</totfact>
</mgrwt>
</event>
<event>
 4    1  0.1351183E-004  0.4358812E+03  0.7818608E-02  0.1032018E+00
          2   -1    0    0  501    0  0.00000000000E+00  0.00000000000E+00  0.36529033747E+02  0.36529033836E+02  0.25500000000E-02 0.  1.
         -2   -1    0    0    0  501 -0.00000000000E+00 -0.00000000000E+00 -0.13002839110E+04  0.13002839110E+04  0.25500000000E-02 0. -1.
    5000001    1    1    2    0    0 -0.91175508578E+02 -0.14466978435E+03 -0.77331516967E+03  0.80211450025E+03  0.12700000000E+03 0.  0.
   -5000001    1    1    2    0    0  0.91175508578E+02  0.14466978435E+03 -0.49043970755E+03  0.53469844455E+03  0.12700000000E+03 0.  0.
<mgrwt>
<rscale>  0 0.43588124E+03</rscale>
<asrwt>0</asrwt>
<pdfrwt beam="1">  1        2 0.52184342E-02 0.43588124E+03</pdfrwt>
<pdfrwt beam="2">  1       -2 0.18575482E+00 0.43588124E+03</pdfrwt>
<totfact> 0.26467369E+02</totfact>
</mgrwt>
</event>
<event>
 4    1  0.1351183E-004  0.2805959E+03  0.7818608E-02  0.1095364E+00
          2   -1    0    0  501    0  0.00000000000E+00  0.00000000000E+00  0.14504188072E+02  0.14504188296E+02  0.25500000000E-02 0.  1.
         -2   -1    0    0    0  501 -0.00000000000E+00 -0.00000000000E+00 -0.13570916266E+04  0.13570916266E+04  0.25500000000E-02 0. -1.
    5000001    1    1    2    0    0 -0.30412318191E+02 -0.17297841036E+02 -0.90726490177E+03  0.91677845001E+03  0.12700000000E+03 0.  0.
   -5000001    1    1    2    0    0  0.30412318191E+02  0.17297841036E+02 -0.43532253674E+03  0.45481736488E+03  0.12700000000E+03 0.  0.
<mgrwt>
<rscale>  0 0.28059588E+03</rscale>
<asrwt>0</asrwt>
<pdfrwt beam="1">  1        2 0.20720277E-02 0.28059588E+03</pdfrwt>
<pdfrwt beam="2">  1       -2 0.19387015E+00 0.28059588E+03</pdfrwt>
<totfact> 0.82393369E+02</totfact>
</mgrwt>
</event>
<event>
 4    1  0.1351183E-004  0.4954426E+03  0.7818608E-02  0.1014975E+00
         -2   -1    0    0    0  501 -0.00000000000E+00  0.00000000000E+00  0.13656455905E+03  0.13656455907E+03  0.25500000000E-02 0. -1.
          2   -1    0    0  501    0  0.00000000000E+00 -0.00000000000E+00 -0.44935408799E+03  0.44935408799E+03  0.25500000000E-02 0.  1.
    5000001    1    1    2    0    0  0.86369449978E+02 -0.85086120701E+02 -0.36305684874E+03  0.40328476942E+03  0.12700000000E+03 0.  0.
   -5000001    1    1    2    0    0 -0.86369449978E+02  0.85086120701E+02  0.50267319806E+02  0.18263387765E+03  0.12700000000E+03 0.  0.
<mgrwt>
<rscale>  0 0.49544260E+03</rscale>
<asrwt>0</asrwt>
<pdfrwt beam="1">  1        2 0.64193440E-01 0.49544260E+03</pdfrwt>
<pdfrwt beam="2">  1       -2 0.19509223E-01 0.49544260E+03</pdfrwt>
<totfact> 0.16838389E+03</totfact>
</mgrwt>
</event>
<event>
 4    1  0.1351183E-004  0.3775755E+03  0.7818608E-02  0.1051834E+00
         -2   -1    0    0    0  501 -0.00000000000E+00  0.00000000000E+00  0.16203914393E+03  0.16203914395E+03  0.25500000000E-02 0. -1.
          2   -1    0    0  501    0  0.00000000000E+00 -0.00000000000E+00 -0.21995182356E+03  0.21995182357E+03  0.25500000000E-02 0.  1.
    5000001    1    1    2    0    0  0.69802295234E+02  0.54228472006E+02  0.80469143479E+02  0.17440576438E+03  0.12700000000E+03 0.  0.
   -5000001    1    1    2    0    0 -0.69802295234E+02 -0.54228472006E+02 -0.13838182311E+03  0.20758520314E+03  0.12700000000E+03 0.  0.
<mgrwt>
<rscale>  0 0.37757545E+03</rscale>
<asrwt>0</asrwt>
<pdfrwt beam="1">  1        2 0.31421689E-01 0.37757545E+03</pdfrwt>
<pdfrwt beam="2">  1       -2 0.23148449E-01 0.37757545E+03</pdfrwt>
<totfact> 0.27307490E+03</totfact>
</mgrwt>
</event>
<event>
 4    1  0.1351183E-004  0.3375952E+03  0.7818608E-02  0.1067825E+00
         -2   -1    0    0    0  501 -0.00000000000E+00  0.00000000000E+00  0.53404349559E+02  0.53404349620E+02  0.25500000000E-02 0. -1.
          2   -1    0    0  501    0  0.00000000000E+00 -0.00000000000E+00 -0.53352631657E+03  0.53352631658E+03  0.25500000000E-02 0.  1.
    5000001    1    1    2    0    0 -0.83741848417E+02 -0.64221082982E+02 -0.30094996770E+03  0.34327383782E+03  0.12700000000E+03 0.  0.
   -5000001    1    1    2    0    0  0.83741848417E+02  0.64221082982E+02 -0.17917199931E+03  0.24365682838E+03  0.12700000000E+03 0.  0.
<mgrwt>
<rscale>  0 0.33759518E+03</rscale>
<asrwt>0</asrwt>
<pdfrwt beam="1">  1        2 0.76218042E-01 0.33759518E+03</pdfrwt>
<pdfrwt beam="2">  1       -2 0.76291931E-02 0.33759518E+03</pdfrwt>
<totfact> 0.64289032E+03</totfact>
</mgrwt>
</event>
<event>
 4    1  0.1351183E-004  0.5082556E+03  0.7818608E-02  0.1011646E+00
         -2   -1    0    0    0  501 -0.00000000000E+00  0.00000000000E+00  0.16931517987E+02  0.16931518179E+02  0.25500000000E-02 0. -1.
          2   -1    0    0  501    0  0.00000000000E+00 -0.00000000000E+00 -0.38142432699E+04  0.38142432699E+04  0.25500000000E-02 0.  1.
    5000001    1    1    2    0    0  0.17644594408E+03  0.44015980550E+02 -0.28335169364E+04  0.28421853927E+04  0.12700000000E+03 0.  0.
   -5000001    1    1    2    0    0 -0.17644594408E+03 -0.44015980550E+02 -0.96379481553E+03  0.98898939537E+03  0.12700000000E+03 0.  0.
<mgrwt>
<rscale>  0 0.50825556E+03</rscale>
<asrwt>0</asrwt>
<pdfrwt beam="1">  1        2 0.54489135E+00 0.50825556E+03</pdfrwt>
<pdfrwt beam="2">  1       -2 0.24187907E-02 0.50825556E+03</pdfrwt>
<totfact> 0.53042549E+02</totfact>
</mgrwt>
</event>
<event>
 4    1  0.1351183E-004  0.3473300E+03  0.7818608E-02  0.1063716E+00
         -2   -1    0    0    0  501 -0.00000000000E+00  0.00000000000E+00  0.27862779291E+02  0.27862779407E+02  0.25500000000E-02 0. -1.
          2   -1    0    0  501    0  0.00000000000E+00 -0.00000000000E+00 -0.10824307909E+04  0.10824307909E+04  0.25500000000E-02 0.  1.
    5000001    1    1    2    0    0 -0.10751664210E+03 -0.20170566619E+02 -0.38206126504E+03  0.41721276386E+03  0.12700000000E+03 0.  0.
   -5000001    1    1    2    0    0  0.10751664210E+03  0.20170566619E+02 -0.67250674660E+03  0.69308080648E+03  0.12700000000E+03 0.  0.
<mgrwt>
<rscale>  0 0.34732999E+03</rscale>
<asrwt>0</asrwt>
<pdfrwt beam="1">  1        2 0.15463294E+00 0.34732999E+03</pdfrwt>
<pdfrwt beam="2">  1       -2 0.39803977E-02 0.34732999E+03</pdfrwt>
<totfact> 0.72536366E+03</totfact>
</mgrwt>
</event>
<event>
 4    1  0.1351183E-004  0.3511302E+03  0.7818608E-02  0.1062152E+00
         -2   -1    0    0    0  501 -0.00000000000E+00  0.00000000000E+00  0.11210225747E+03  0.11210225750E+03  0.25500000000E-02 0. -1.
          2   -1    0    0  501    0  0.00000000000E+00 -0.00000000000E+00 -0.27495522814E+03  0.27495522816E+03  0.25500000000E-02 0.  1.
    5000001    1    1    2    0    0  0.10768475482E+03 -0.25804313755E+02 -0.27062677106E+02  0.17065537648E+03  0.12700000000E+03 0.  0.
   -5000001    1    1    2    0    0 -0.10768475482E+03  0.25804313755E+02 -0.13579029357E+03  0.21640210918E+03  0.12700000000E+03 0.  0.
<mgrwt>
<rscale>  0 0.35113019E+03</rscale>
<asrwt>0</asrwt>
<pdfrwt beam="1">  1        2 0.39279318E-01 0.35113019E+03</pdfrwt>
<pdfrwt beam="2">  1       -2 0.16014608E-01 0.35113019E+03</pdfrwt>
<totfact> 0.40145299E+03</totfact>
</mgrwt>
</event>
<event>
 4    1  0.1351183E-004  0.1115280E+04  0.7818608E-02  0.9190426E-01
         -2   -1    0    0    0  501 -0.00000000000E+00  0.00000000000E+00  0.16981206617E+03  0.16981206619E+03  0.25500000000E-02 0. -1.
          2   -1    0    0  501    0  0.00000000000E+00 -0.00000000000E+00 -0.18312132785E+04  0.18312132785E+04  0.25500000000E-02 0.  1.
    5000001    1    1    2    0    0  0.82866234139E+02  0.43964274194E+03 -0.13827771030E+04  0.14588879566E+04  0.12700000000E+03 0.  0.
   -5000001    1    1    2    0    0 -0.82866234139E+02 -0.43964274194E+03 -0.27862410938E+03  0.54213738815E+03  0.12700000000E+03 0.  0.
<mgrwt>
<rscale>  0 0.11152795E+04</rscale>
<asrwt>0</asrwt>
<pdfrwt beam="1">  1        2 0.26160189E+00 0.11152795E+04</pdfrwt>
<pdfrwt beam="2">  1       -2 0.24258868E-01 0.11152795E+04</pdfrwt>
<totfact> 0.14729169E+02</totfact>
</mgrwt>
</event>
<event>
 4    1  0.1351183E-004  0.5813400E+03  0.7818608E-02  0.9944894E-01
          2   -1    0    0  501    0  0.00000000000E+00  0.00000000000E+00  0.44760581276E+03  0.44760581277E+03  0.25500000000E-02 0.  1.
         -2   -1    0    0    0  501 -0.00000000000E+00 -0.00000000000E+00 -0.18875773117E+03  0.18875773118E+03  0.25500000000E-02 0. -1.
    5000001    1    1    2    0    0 -0.20083199424E+03  0.11168954498E+03 -0.70871869440E+01  0.26265428340E+03  0.12700000000E+03 0.  0.
   -5000001    1    1    2    0    0  0.20083199424E+03 -0.11168954498E+03  0.26593526854E+03  0.37370926055E+03  0.12700000000E+03 0.  0.
<mgrwt>
<rscale>  0 0.58134003E+03</rscale>
<asrwt>0</asrwt>
<pdfrwt beam="1">  1        2 0.63943687E-01 0.58134003E+03</pdfrwt>
<pdfrwt beam="2">  1       -2 0.26965391E-01 0.58134003E+03</pdfrwt>
<totfact> 0.95344356E+02</totfact>
</mgrwt>
</event>
<event>
 4    1  0.1351183E-004  0.3553374E+03  0.7818608E-02  0.1060445E+00
         -2   -1    0    0    0  501 -0.00000000000E+00  0.00000000000E+00  0.73746993145E+02  0.73746993189E+02  0.25500000000E-02 0. -1.
          2   -1    0    0  501    0  0.00000000000E+00 -0.00000000000E+00 -0.42803337473E+03  0.42803337474E+03  0.25500000000E-02 0.  1.
    5000001    1    1    2    0    0  0.82100271062E+01 -0.75127555542E+02 -0.31640478024E+03  0.34921703725E+03  0.12700000000E+03 0.  0.
   -5000001    1    1    2    0    0 -0.82100271062E+01  0.75127555542E+02 -0.37881601346E+02  0.15256333068E+03  0.12700000000E+03 0.  0.
<mgrwt>
<rscale>  0 0.35533744E+03</rscale>
<asrwt>0</asrwt>
<pdfrwt beam="1">  1        2 0.61147624E-01 0.35533744E+03</pdfrwt>
<pdfrwt beam="2">  1       -2 0.10535285E-01 0.35533744E+03</pdfrwt>
<totfact> 0.49279600E+03</totfact>
</mgrwt>
</event>
<event>
 4    1  0.1351183E-004  0.3395626E+03  0.7818608E-02  0.1066982E+00
          2   -1    0    0  501    0  0.00000000000E+00  0.00000000000E+00  0.14047337204E+04  0.14047337204E+04  0.25500000000E-02 0.  1.
         -2   -1    0    0    0  501 -0.00000000000E+00 -0.00000000000E+00 -0.20520389383E+02  0.20520389542E+02  0.25500000000E-02 0. -1.
    5000001    1    1    2    0    0 -0.74646768196E+02  0.83542598506E+02  0.74268002641E+03  0.76174413513E+03  0.12700000000E+03 0.  0.
   -5000001    1    1    2    0    0  0.74646768196E+02 -0.83542598506E+02  0.64153330462E+03  0.66350997483E+03  0.12700000000E+03 0.  0.
<mgrwt>
<rscale>  0 0.33956256E+03</rscale>
<asrwt>0</asrwt>
<pdfrwt beam="1">  1        2 0.20067625E+00 0.33956256E+03</pdfrwt>
<pdfrwt beam="2">  1       -2 0.29314841E-02 0.33956256E+03</pdfrwt>
<totfact> 0.76828966E+03</totfact>
</mgrwt>
</event>
<event>
 4    1  0.1351183E-004  0.2816470E+03  0.7818608E-02  0.1094793E+00
          2   -1    0    0  501    0  0.00000000000E+00  0.00000000000E+00  0.19123738101E+04  0.19123738101E+04  0.25500000000E-02 0.  1.
         -2   -1    0    0    0  501 -0.00000000000E+00 -0.00000000000E+00 -0.10369966445E+02  0.10369966758E+02  0.25500000000E-02 0. -1.
    5000001    1    1    2    0    0  0.17854105891E+00  0.55606933274E+02  0.11196235082E+04  0.11281746155E+04  0.12700000000E+03 0.  0.
   -5000001    1    1    2    0    0 -0.17854105891E+00 -0.55606933274E+02  0.78238033542E+03  0.79456916135E+03  0.12700000000E+03 0.  0.
<mgrwt>
<rscale>  0 0.28164696E+03</rscale>
<asrwt>0</asrwt>
<pdfrwt beam="1">  1        2 0.27319631E+00 0.28164696E+03</pdfrwt>
<pdfrwt beam="2">  1       -2 0.14814235E-02 0.28164696E+03</pdfrwt>
<totfact> 0.11718652E+04</totfact>
</mgrwt>
</event>
<event>
 4    1  0.1351183E-004  0.4202198E+03  0.7818608E-02  0.1036995E+00
          2   -1    0    0  501    0  0.00000000000E+00  0.00000000000E+00  0.78236689687E+03  0.78236689687E+03  0.25500000000E-02 0.  1.
         -2   -1    0    0    0  501 -0.00000000000E+00 -0.00000000000E+00 -0.56426417043E+02  0.56426417101E+02  0.25500000000E-02 0. -1.
    5000001    1    1    2    0    0  0.10086223113E+03  0.10183035371E+03  0.53554251556E+03  0.56875073326E+03  0.12700000000E+03 0.  0.
   -5000001    1    1    2    0    0 -0.10086223113E+03 -0.10183035371E+03  0.19039796426E+03  0.27004258072E+03  0.12700000000E+03 0.  0.
<mgrwt>
<rscale>  0 0.42021976E+03</rscale>
<asrwt>0</asrwt>
<pdfrwt beam="1">  1        2 0.11176670E+00 0.42021976E+03</pdfrwt>
<pdfrwt beam="2">  1       -2 0.80609167E-02 0.42021976E+03</pdfrwt>
<totfact> 0.37687522E+03</totfact>
</mgrwt>
</event>
<event>
 4    1  0.1351183E-004  0.3456307E+03  0.7818608E-02  0.1064423E+00
          2   -1    0    0  501    0  0.00000000000E+00  0.00000000000E+00  0.32746275036E+03  0.32746275037E+03  0.25500000000E-02 0.  1.
         -2   -1    0    0    0  501 -0.00000000000E+00 -0.00000000000E+00 -0.91201640075E+02  0.91201640111E+02  0.25500000000E-02 0. -1.
    5000001    1    1    2    0    0  0.60070542290E+02  0.72360026062E+02  0.33411032067E+02  0.16152318870E+03  0.12700000000E+03 0.  0.
   -5000001    1    1    2    0    0 -0.60070542290E+02 -0.72360026062E+02  0.20285007822E+03  0.25714120179E+03  0.12700000000E+03 0.  0.
<mgrwt>
<rscale>  0 0.34563067E+03</rscale>
<asrwt>0</asrwt>
<pdfrwt beam="1">  1        2 0.46780393E-01 0.34563067E+03</pdfrwt>
<pdfrwt beam="2">  1       -2 0.13028806E-01 0.34563067E+03</pdfrwt>
<totfact> 0.46714919E+03</totfact>
</mgrwt>
</event>
<event>
 4    1  0.1351183E-004  0.4342800E+03  0.7818608E-02  0.1032516E+00
         -2   -1    0    0    0  501 -0.00000000000E+00  0.00000000000E+00  0.13711570735E+02  0.13711570972E+02  0.25500000000E-02 0. -1.
          2   -1    0    0  501    0  0.00000000000E+00 -0.00000000000E+00 -0.34386852586E+04  0.34386852586E+04  0.25500000000E-02 0.  1.
    5000001    1    1    2    0    0  0.15870105379E+03  0.72664980042E+02 -0.15252797363E+04  0.15404783341E+04  0.12700000000E+03 0.  0.
   -5000001    1    1    2    0    0 -0.15870105379E+03 -0.72664980042E+02 -0.18996939515E+04  0.19119184955E+04  0.12700000000E+03 0.  0.
<mgrwt>
<rscale>  0 0.43427999E+03</rscale>
<asrwt>0</asrwt>
<pdfrwt beam="1">  1        2 0.49124020E+00 0.43427999E+03</pdfrwt>
<pdfrwt beam="2">  1       -2 0.19587980E-02 0.43427999E+03</pdfrwt>
<totfact> 0.12403841E+03</totfact>
</mgrwt>
</event>
<event>
 4    1  0.1351183E-004  0.4088620E+03  0.7818608E-02  0.1040754E+00
         -2   -1    0    0    0  501 -0.00000000000E+00  0.00000000000E+00  0.25889409024E+02  0.25889409149E+02  0.25500000000E-02 0. -1.
          2   -1    0    0  501    0  0.00000000000E+00 -0.00000000000E+00 -0.16142520853E+04  0.16142520853E+04  0.25500000000E-02 0.  1.
    5000001    1    1    2    0    0 -0.12855776032E+03 -0.69119673715E+02 -0.52935059809E+03  0.56360064118E+03  0.12700000000E+03 0.  0.
   -5000001    1    1    2    0    0  0.12855776032E+03  0.69119673715E+02 -0.10590120782E+04  0.10765408533E+04  0.12700000000E+03 0.  0.
<mgrwt>
<rscale>  0 0.40886199E+03</rscale>
<asrwt>0</asrwt>
<pdfrwt beam="1">  1        2 0.23060738E+00 0.40886199E+03</pdfrwt>
<pdfrwt beam="2">  1       -2 0.36984880E-02 0.40886199E+03</pdfrwt>
<totfact> 0.42363205E+03</totfact>
</mgrwt>
</event>
<event>
 4    1  0.1351183E-004  0.8011787E+03  0.7818608E-02  0.9558312E-01
         -2   -1    0    0    0  501 -0.00000000000E+00  0.00000000000E+00  0.62970861505E+02  0.62970861556E+02  0.25500000000E-02 0. -1.
          2   -1    0    0  501    0  0.00000000000E+00 -0.00000000000E+00 -0.25483507662E+04  0.25483507662E+04  0.25500000000E-02 0.  1.
    5000001    1    1    2    0    0 -0.96231031666E+02 -0.36329356187E+03 -0.14241692894E+04  0.14783875637E+04  0.12700000000E+03 0.  0.
   -5000001    1    1    2    0    0  0.96231031666E+02  0.36329356187E+03 -0.10612106153E+04  0.11329340641E+04  0.12700000000E+03 0.  0.
<mgrwt>
<rscale>  0 0.80117874E+03</rscale>
<asrwt>0</asrwt>
<pdfrwt beam="1">  1        2 0.36405004E+00 0.80117874E+03</pdfrwt>
<pdfrwt beam="2">  1       -2 0.89958390E-02 0.80117874E+03</pdfrwt>
<totfact> 0.34864041E+02</totfact>
</mgrwt>
</event>
<event>
 4    1  0.1351183E-004  0.3584457E+03  0.7818608E-02  0.1059201E+00
         -2   -1    0    0    0  501 -0.00000000000E+00  0.00000000000E+00  0.34575984879E+03  0.34575984880E+03  0.25500000000E-02 0. -1.
          2   -1    0    0  501    0  0.00000000000E+00 -0.00000000000E+00 -0.92899268832E+02  0.92899268867E+02  0.25500000000E-02 0.  1.
    5000001    1    1    2    0    0  0.84662586212E+02  0.92418164004E+02  0.10584432002E+03  0.20746298615E+03  0.12700000000E+03 0.  0.
   -5000001    1    1    2    0    0 -0.84662586212E+02 -0.92418164004E+02  0.14701625994E+03  0.23119613152E+03  0.12700000000E+03 0.  0.
<mgrwt>
<rscale>  0 0.35844574E+03</rscale>
<asrwt>0</asrwt>
<pdfrwt beam="1">  1        2 0.13271324E-01 0.35844574E+03</pdfrwt>
<pdfrwt beam="2">  1       -2 0.49394266E-01 0.35844574E+03</pdfrwt>
<totfact> 0.17890924E+03</totfact>
</mgrwt>
</event>
<event>
 4    1  0.1351183E-004  0.2666974E+03  0.7818608E-02  0.1103185E+00
          2   -1    0    0  501    0  0.00000000000E+00  0.00000000000E+00  0.34466910678E+04  0.34466910678E+04  0.25500000000E-02 0.  1.
         -2   -1    0    0    0  501 -0.00000000000E+00 -0.00000000000E+00 -0.51591150600E+01  0.51591156901E+01  0.25500000000E-02 0. -1.
    5000001    1    1    2    0    0 -0.10474136197E+02  0.28526562705E+02  0.20703224784E+04  0.20744367035E+04  0.12700000000E+03 0.  0.
   -5000001    1    1    2    0    0  0.10474136197E+02 -0.28526562705E+02  0.13712094744E+04  0.13774134800E+04  0.12700000000E+03 0.  0.
<mgrwt>
<rscale>  0 0.26669741E+03</rscale>
<asrwt>0</asrwt>
<pdfrwt beam="1">  1        2 0.49238460E+00 0.26669741E+03</pdfrwt>
<pdfrwt beam="2">  1       -2 0.73701624E-03 0.26669741E+03</pdfrwt>
<totfact> 0.52335900E+03</totfact>
</mgrwt>
</event>
<event>
 4    1  0.1351183E-004  0.5587825E+03  0.7818608E-02  0.9994813E-01
         -2   -1    0    0    0  501 -0.00000000000E+00  0.00000000000E+00  0.26987761116E+03  0.26987761117E+03  0.25500000000E-02 0. -1.
          2   -1    0    0  501    0  0.00000000000E+00 -0.00000000000E+00 -0.28924021612E+03  0.28924021613E+03  0.25500000000E-02 0.  1.
    5000001    1    1    2    0    0  0.12077036288E+03  0.19449743974E+03  0.87925816595E+02  0.27617871721E+03  0.12700000000E+03 0.  0.
   -5000001    1    1    2    0    0 -0.12077036288E+03 -0.19449743974E+03 -0.10728842155E+03  0.28293911009E+03  0.12700000000E+03 0.  0.
<mgrwt>
<rscale>  0 0.55878246E+03</rscale>
<asrwt>0</asrwt>
<pdfrwt beam="1">  1        2 0.41320030E-01 0.55878246E+03</pdfrwt>
<pdfrwt beam="2">  1       -2 0.38553945E-01 0.55878246E+03</pdfrwt>
<totfact> 0.79284741E+02</totfact>
</mgrwt>
</event>
<event>
 4    1  0.1351183E-004  0.7554355E+03  0.7818608E-02  0.9626861E-01
          2   -1    0    0  501    0  0.00000000000E+00  0.00000000000E+00  0.39311774359E+03  0.39311774360E+03  0.25500000000E-02 0.  1.
         -2   -1    0    0    0  501 -0.00000000000E+00 -0.00000000000E+00 -0.36292102192E+03  0.36292102193E+03  0.25500000000E-02 0. -1.
    5000001    1    1    2    0    0 -0.65575722388E+02 -0.34827490194E+03  0.45881834696E+02  0.37924889643E+03  0.12700000000E+03 0.  0.
   -5000001    1    1    2    0    0  0.65575722388E+02  0.34827490194E+03 -0.15685113025E+02  0.37678986910E+03  0.12700000000E+03 0.  0.
<mgrwt>
<rscale>  0 0.75543549E+03</rscale>
<asrwt>0</asrwt>
<pdfrwt beam="1">  1        2 0.56159678E-01 0.75543549E+03</pdfrwt>
<pdfrwt beam="2">  1       -2 0.51845860E-01 0.75543549E+03</pdfrwt>
<totfact> 0.31212605E+02</totfact>
</mgrwt>
</event>
<event>
 4    1  0.1351183E-004  0.4984813E+03  0.7818608E-02  0.1014176E+00
         -2   -1    0    0    0  501 -0.00000000000E+00  0.00000000000E+00  0.52637240214E+02  0.52637240276E+02  0.25500000000E-02 0. -1.
          2   -1    0    0  501    0  0.00000000000E+00 -0.00000000000E+00 -0.11801701421E+04  0.11801701421E+04  0.25500000000E-02 0.  1.
    5000001    1    1    2    0    0 -0.21127459030E+03  0.35856975025E+02 -0.58434312352E+03  0.63522323727E+03  0.12700000000E+03 0.  0.
   -5000001    1    1    2    0    0  0.21127459030E+03 -0.35856975025E+02 -0.54318977836E+03  0.59758414510E+03  0.12700000000E+03 0.  0.
<mgrwt>
<rscale>  0 0.49848129E+03</rscale>
<asrwt>0</asrwt>
<pdfrwt beam="1">  1        2 0.16859572E+00 0.49848129E+03</pdfrwt>
<pdfrwt beam="2">  1       -2 0.75196064E-02 0.49848129E+03</pdfrwt>
<totfact> 0.23963672E+03</totfact>
</mgrwt>
</event>
<event>
 4    1  0.1351183E-004  0.4938241E+03  0.7818608E-02  0.1015404E+00
         -2   -1    0    0    0  501 -0.00000000000E+00  0.00000000000E+00  0.85676023132E+02  0.85676023170E+02  0.25500000000E-02 0. -1.
          2   -1    0    0  501    0  0.00000000000E+00 -0.00000000000E+00 -0.71158259887E+03  0.71158259887E+03  0.25500000000E-02 0.  1.
    5000001    1    1    2    0    0  0.13811914863E+03 -0.15451283266E+03 -0.24285059150E+03  0.34359354544E+03  0.12700000000E+03 0.  0.
   -5000001    1    1    2    0    0 -0.13811914863E+03  0.15451283266E+03 -0.38305598424E+03  0.45366507661E+03  0.12700000000E+03 0.  0.
<mgrwt>
<rscale>  0 0.49382413E+03</rscale>
<asrwt>0</asrwt>
<pdfrwt beam="1">  1        2 0.10165465E+00 0.49382413E+03</pdfrwt>
<pdfrwt beam="2">  1       -2 0.12239432E-01 0.49382413E+03</pdfrwt>
<totfact> 0.21657735E+03</totfact>
</mgrwt>
</event>
<event>
 4    1  0.1351183E-004  0.1065148E+04  0.7818608E-02  0.9239843E-01
         -2   -1    0    0    0  501 -0.00000000000E+00  0.00000000000E+00  0.10844114993E+04  0.10844114993E+04  0.25500000000E-02 0. -1.
          2   -1    0    0  501    0  0.00000000000E+00 -0.00000000000E+00 -0.26155654752E+03  0.26155654753E+03  0.25500000000E-02 0.  1.
    5000001    1    1    2    0    0 -0.21452134384E+03  0.30831598600E+03 -0.37882585826E+02  0.39829918968E+03  0.12700000000E+03 0.  0.
   -5000001    1    1    2    0    0  0.21452134384E+03 -0.30831598600E+03  0.86073753763E+03  0.94766885719E+03  0.12700000000E+03 0.  0.
<mgrwt>
<rscale>  0 0.10651477E+04</rscale>
<asrwt>0</asrwt>
<pdfrwt beam="1">  1        2 0.37365221E-01 0.10651477E+04</pdfrwt>
<pdfrwt beam="2">  1       -2 0.15491593E+00 0.10651477E+04</pdfrwt>
<totfact> 0.38012422E+01</totfact>
</mgrwt>
</event>
<event>
 4    1  0.1351183E-004  0.3646829E+03  0.7818608E-02  0.1056745E+00
          2   -1    0    0  501    0  0.00000000000E+00  0.00000000000E+00  0.44964868039E+03  0.44964868039E+03  0.25500000000E-02 0.  1.
         -2   -1    0    0    0  501 -0.00000000000E+00 -0.00000000000E+00 -0.73943056941E+02  0.73943056985E+02  0.25500000000E-02 0. -1.
    5000001    1    1    2    0    0 -0.12580823027E+03  0.33550017766E+02  0.16934987499E+03  0.24851900260E+03  0.12700000000E+03 0.  0.
   -5000001    1    1    2    0    0  0.12580823027E+03 -0.33550017766E+02  0.20635574846E+03  0.27507273478E+03  0.12700000000E+03 0.  0.
<mgrwt>
<rscale>  0 0.36468286E+03</rscale>
<asrwt>0</asrwt>
<pdfrwt beam="1">  1        2 0.64235527E-01 0.36468286E+03</pdfrwt>
<pdfrwt beam="2">  1       -2 0.10563294E-01 0.36468286E+03</pdfrwt>
<totfact> 0.46509933E+03</totfact>
</mgrwt>
</event>
<event>
 4    1  0.1351183E-004  0.3641833E+03  0.7818608E-02  0.1056940E+00
          2   -1    0    0  501    0  0.00000000000E+00  0.00000000000E+00  0.23457766359E+04  0.23457766359E+04  0.25500000000E-02 0.  1.
         -2   -1    0    0    0  501 -0.00000000000E+00 -0.00000000000E+00 -0.14134922017E+02  0.14134922247E+02  0.25500000000E-02 0. -1.
    5000001    1    1    2    0    0  0.97484306377E+02 -0.65740312808E+02  0.79906192942E+03  0.81759032882E+03  0.12700000000E+03 0.  0.
   -5000001    1    1    2    0    0 -0.97484306377E+02  0.65740312808E+02  0.15325797845E+04  0.15423212294E+04  0.12700000000E+03 0.  0.
<mgrwt>
<rscale>  0 0.36418331E+03</rscale>
<asrwt>0</asrwt>
<pdfrwt beam="1">  1        2 0.33511062E+00 0.36418331E+03</pdfrwt>
<pdfrwt beam="2">  1       -2 0.20192766E-02 0.36418331E+03</pdfrwt>
<totfact> 0.45497673E+03</totfact>
</mgrwt>
</event>
<event>
 4    1  0.1351183E-004  0.6339799E+03  0.7818608E-02  0.9837313E-01
         -2   -1    0    0    0  501 -0.00000000000E+00  0.00000000000E+00  0.17782766575E+03  0.17782766577E+03  0.25500000000E-02 0. -1.
          2   -1    0    0  501    0  0.00000000000E+00 -0.00000000000E+00 -0.56505613331E+03  0.56505613332E+03  0.25500000000E-02 0.  1.
    5000001    1    1    2    0    0  0.17105823273E+03  0.20912419101E+03 -0.68723521579E+02  0.30634256751E+03  0.12700000000E+03 0.  0.
   -5000001    1    1    2    0    0 -0.17105823273E+03 -0.20912419101E+03 -0.31850494598E+03  0.43654123158E+03  0.12700000000E+03 0.  0.
<mgrwt>
<rscale>  0 0.63397985E+03</rscale>
<asrwt>0</asrwt>
<pdfrwt beam="1">  1        2 0.80722304E-01 0.63397985E+03</pdfrwt>
<pdfrwt beam="2">  1       -2 0.25403952E-01 0.63397985E+03</pdfrwt>
<totfact> 0.81357226E+02</totfact>
</mgrwt>
</event>
<event>
 4    1  0.1351183E-004  0.7992162E+03  0.7818608E-02  0.9561152E-01
          2   -1    0    0  501    0  0.00000000000E+00  0.00000000000E+00  0.70554866778E+03  0.70554866779E+03  0.25500000000E-02 0.  1.
         -2   -1    0    0    0  501 -0.00000000000E+00 -0.00000000000E+00 -0.22632974274E+03  0.22632974275E+03  0.25500000000E-02 0. -1.
    5000001    1    1    2    0    0  0.35918056524E+03  0.50486027383E+02  0.11189156735E+03  0.40026021567E+03  0.12700000000E+03 0.  0.
   -5000001    1    1    2    0    0 -0.35918056524E+03 -0.50486027383E+02  0.36732735769E+03  0.53161819487E+03  0.12700000000E+03 0.  0.
<mgrwt>
<rscale>  0 0.79921624E+03</rscale>
<asrwt>0</asrwt>
<pdfrwt beam="1">  1        2 0.10079267E+00 0.79921624E+03</pdfrwt>
<pdfrwt beam="2">  1       -2 0.32332821E-01 0.79921624E+03</pdfrwt>
<totfact> 0.39827946E+02</totfact>
</mgrwt>
</event>
<event>
 4    1  0.1351183E-004  0.4345682E+03  0.7818608E-02  0.1032427E+00
         -2   -1    0    0    0  501 -0.00000000000E+00  0.00000000000E+00  0.13925337576E+02  0.13925337809E+02  0.25500000000E-02 0. -1.
          2   -1    0    0  501    0  0.00000000000E+00 -0.00000000000E+00 -0.33903937143E+04  0.33903937143E+04  0.25500000000E-02 0.  1.
    5000001    1    1    2    0    0  0.17206110520E+03 -0.14456272228E+02 -0.19673383942E+04  0.19789803852E+04  0.12700000000E+03 0.  0.
   -5000001    1    1    2    0    0 -0.17206110520E+03  0.14456272228E+02 -0.14091299826E+04  0.14253386669E+04  0.12700000000E+03 0.  0.
<mgrwt>
<rscale>  0 0.43456819E+03</rscale>
<asrwt>0</asrwt>
<pdfrwt beam="1">  1        2 0.48434143E+00 0.43456819E+03</pdfrwt>
<pdfrwt beam="2">  1       -2 0.19893361E-02 0.43456819E+03</pdfrwt>
<totfact> 0.12925580E+03</totfact>
</mgrwt>
</event>
<event>
 4    1  0.1351183E-004  0.4714901E+03  0.7818608E-02  0.1021500E+00
         -2   -1    0    0    0  501 -0.00000000000E+00  0.00000000000E+00  0.25500726018E+02  0.25500726146E+02  0.25500000000E-02 0. -1.
          2   -1    0    0  501    0  0.00000000000E+00 -0.00000000000E+00 -0.21793785167E+04  0.21793785167E+04  0.25500000000E-02 0.  1.
    5000001    1    1    2    0    0  0.19601390892E+03 -0.23028691356E+02 -0.11809783108E+04  0.12040724827E+04  0.12700000000E+03 0.  0.
   -5000001    1    1    2    0    0 -0.19601390892E+03  0.23028691356E+02 -0.97289947985E+03  0.10008067601E+04  0.12700000000E+03 0.  0.
<mgrwt>
<rscale>  0 0.47149013E+03</rscale>
<asrwt>0</asrwt>
<pdfrwt beam="1">  1        2 0.31133967E+00 0.47149013E+03</pdfrwt>
<pdfrwt beam="2">  1       -2 0.36429622E-02 0.47149013E+03</pdfrwt>
<totfact> 0.22611463E+03</totfact>
</mgrwt>
</event>
<event>
 4    1  0.1351183E-004  0.3277252E+03  0.7818608E-02  0.1072148E+00
         -2   -1    0    0    0  501 -0.00000000000E+00  0.00000000000E+00  0.65618416905E+02  0.65618416955E+02  0.25500000000E-02 0. -1.
          2   -1    0    0  501    0  0.00000000000E+00 -0.00000000000E+00 -0.40919849932E+03  0.40919849933E+03  0.25500000000E-02 0.  1.
    5000001    1    1    2    0    0 -0.10049188369E+03 -0.14238637188E+02 -0.14207672897E+03  0.21590774509E+03  0.12700000000E+03 0.  0.
   -5000001    1    1    2    0    0  0.10049188369E+03  0.14238637188E+02 -0.20150335345E+03  0.25890917119E+03  0.12700000000E+03 0.  0.
<mgrwt>
<rscale>  0 0.32772524E+03</rscale>
<asrwt>0</asrwt>
<pdfrwt beam="1">  1        2 0.58456927E-01 0.32772524E+03</pdfrwt>
<pdfrwt beam="2">  1       -2 0.93740597E-02 0.32772524E+03</pdfrwt>
<totfact> 0.62242850E+03</totfact>
</mgrwt>
</event>
<event>
 4    1  0.1351183E-004  0.3796795E+03  0.7818608E-02  0.1051052E+00
         -2   -1    0    0    0  501 -0.00000000000E+00  0.00000000000E+00  0.14914082136E+02  0.14914082354E+02  0.25500000000E-02 0. -1.
          2   -1    0    0  501    0  0.00000000000E+00 -0.00000000000E+00 -0.24164493335E+04  0.24164493335E+04  0.25500000000E-02 0.  1.
    5000001    1    1    2    0    0 -0.78240720938E+02 -0.11295927732E+03 -0.14061581390E+04  0.14185524737E+04  0.12700000000E+03 0.  0.
   -5000001    1    1    2    0    0  0.78240720938E+02  0.11295927732E+03 -0.99537711239E+03  0.10128109422E+04  0.12700000000E+03 0.  0.
<mgrwt>
<rscale>  0 0.37967947E+03</rscale>
<asrwt>0</asrwt>
<pdfrwt beam="1">  1        2 0.34520680E+00 0.37967947E+03</pdfrwt>
<pdfrwt beam="2">  1       -2 0.21305847E-02 0.37967947E+03</pdfrwt>
<totfact> 0.38708882E+03</totfact>
</mgrwt>
</event>
<event>
 4    1  0.1351183E-004  0.4307013E+03  0.7818608E-02  0.1033639E+00
          2   -1    0    0  501    0  0.00000000000E+00  0.00000000000E+00  0.10113546707E+04  0.10113546707E+04  0.25500000000E-02 0.  1.
         -2   -1    0    0    0  501 -0.00000000000E+00 -0.00000000000E+00 -0.45855229002E+02  0.45855229073E+02  0.25500000000E-02 0. -1.
    5000001    1    1    2    0    0 -0.93104042252E+02 -0.48431667034E+02  0.14233560472E+03  0.21772095312E+03  0.12700000000E+03 0.  0.
   -5000001    1    1    2    0    0  0.93104042252E+02  0.48431667034E+02  0.82316383702E+03  0.83948894670E+03  0.12700000000E+03 0.  0.
<mgrwt>
<rscale>  0 0.43070129E+03</rscale>
<asrwt>0</asrwt>
<pdfrwt beam="1">  1        2 0.14447922E+00 0.43070129E+03</pdfrwt>
<pdfrwt beam="2">  1       -2 0.65507478E-02 0.43070129E+03</pdfrwt>
<totfact> 0.37244135E+03</totfact>
</mgrwt>
</event>
<event>
 4    1  0.1351183E-004  0.3972388E+03  0.7818608E-02  0.1044740E+00
          2   -1    0    0  501    0  0.00000000000E+00  0.00000000000E+00  0.42982245921E+04  0.42982245921E+04  0.25500000000E-02 0.  1.
         -2   -1    0    0    0  501 -0.00000000000E+00 -0.00000000000E+00 -0.91781312008E+01  0.91781315550E+01  0.25500000000E-02 0. -1.
    5000001    1    1    2    0    0 -0.84245342026E+02  0.12384158106E+03  0.24674032459E+04  0.24752054041E+04  0.12700000000E+03 0.  0.
   -5000001    1    1    2    0    0  0.84245342026E+02 -0.12384158106E+03  0.18216432150E+04  0.18321973195E+04  0.12700000000E+03 0.  0.
<mgrwt>
<rscale>  0 0.39723882E+03</rscale>
<asrwt>0</asrwt>
<pdfrwt beam="1">  1        2 0.61403220E+00 0.39723882E+03</pdfrwt>
<pdfrwt beam="2">  1       -2 0.13111614E-02 0.39723882E+03</pdfrwt>
<totfact> 0.63465960E+02</totfact>
</mgrwt>
</event>
<event>
 4    1  0.1351183E-004  0.9193931E+03  0.7818608E-02  0.9401659E-01
          2   -1    0    0  501    0  0.00000000000E+00  0.00000000000E+00  0.10737712466E+04  0.10737712466E+04  0.25500000000E-02 0.  1.
         -2   -1    0    0    0  501 -0.00000000000E+00 -0.00000000000E+00 -0.19680253683E+03  0.19680253685E+03  0.25500000000E-02 0. -1.
    5000001    1    1    2    0    0 -0.10971817378E+03  0.42489881624E+03  0.50915187704E+03  0.68406265473E+03  0.12700000000E+03 0.  0.
   -5000001    1    1    2    0    0  0.10971817378E+03 -0.42489881624E+03  0.36781683276E+03  0.58651112876E+03  0.12700000000E+03 0.  0.
<mgrwt>
<rscale>  0 0.91939307E+03</rscale>
<asrwt>0</asrwt>
<pdfrwt beam="1">  1        2 0.15339589E+00 0.91939307E+03</pdfrwt>
<pdfrwt beam="2">  1       -2 0.28114649E-01 0.91939307E+03</pdfrwt>
<totfact> 0.29259110E+02</totfact>
</mgrwt>
</event>
<event>
 4    1  0.1351183E-004  0.2716650E+03  0.7818608E-02  0.1100330E+00
          2   -1    0    0  501    0  0.00000000000E+00  0.00000000000E+00  0.40787361859E+03  0.40787361860E+03  0.25500000000E-02 0.  1.
         -2   -1    0    0    0  501 -0.00000000000E+00 -0.00000000000E+00 -0.45235739602E+02  0.45235739674E+02  0.25500000000E-02 0. -1.
    5000001    1    1    2    0    0 -0.31053969785E+02  0.17931949680E+02  0.23499210569E+03  0.26951102685E+03  0.12700000000E+03 0.  0.
   -5000001    1    1    2    0    0  0.31053969785E+02 -0.17931949680E+02  0.12764577330E+03  0.18359833142E+03  0.12700000000E+03 0.  0.
<mgrwt>
<rscale>  0 0.27166498E+03</rscale>
<asrwt>0</asrwt>
<pdfrwt beam="1">  1        2 0.58267659E-01 0.27166498E+03</pdfrwt>
<pdfrwt beam="2">  1       -2 0.64622486E-02 0.27166498E+03</pdfrwt>
<totfact> 0.11095647E+04</totfact>
</mgrwt>
</event>
<event>
 4    1  0.1351183E-004  0.3422643E+03  0.7818608E-02  0.1065836E+00
         -2   -1    0    0    0  501 -0.00000000000E+00  0.00000000000E+00  0.24117355321E+04  0.24117355321E+04  0.25500000000E-02 0. -1.
          2   -1    0    0  501    0  0.00000000000E+00 -0.00000000000E+00 -0.12143212201E+02  0.12143212469E+02  0.25500000000E-02 0.  1.
    5000001    1    1    2    0    0  0.68526974197E+02 -0.80647690540E+02  0.15131024654E+04  0.15221064572E+04  0.12700000000E+03 0.  0.
   -5000001    1    1    2    0    0 -0.68526974197E+02  0.80647690540E+02  0.88648985455E+03  0.90177228745E+03  0.12700000000E+03 0.  0.
<mgrwt>
<rscale>  0 0.34226432E+03</rscale>
<asrwt>0</asrwt>
<pdfrwt beam="1">  1        2 0.17347447E-02 0.34226432E+03</pdfrwt>
<pdfrwt beam="2">  1       -2 0.34453362E+00 0.34226432E+03</pdfrwt>
<totfact> 0.13221817E+02</totfact>
</mgrwt>
</event>
<event>
 4    1  0.1351183E-004  0.3951255E+03  0.7818608E-02  0.1045481E+00
          2   -1    0    0  501    0  0.00000000000E+00  0.00000000000E+00  0.99439278661E+02  0.99439278693E+02  0.25500000000E-02 0. -1.
         -2   -1    0    0    0  501 -0.00000000000E+00 -0.00000000000E+00 -0.39251138825E+03  0.39251138826E+03  0.25500000000E-02 0.  1.
    5000001    1    1    2    0    0 -0.11151121516E+03  0.10214925536E+03 -0.15366963659E+03  0.25022505607E+03  0.12700000000E+03 0.  0.
   -5000001    1    1    2    0    0  0.11151121516E+03 -0.10214925536E+03 -0.13940247300E+03  0.24172561088E+03  0.12700000000E+03 0.  0.
<mgrwt>
<rscale>  0 0.39512555E+03</rscale>
<asrwt>0</asrwt>
<pdfrwt beam="1">  1        2 0.14205611E-01 0.39512555E+03</pdfrwt>
<pdfrwt beam="2">  1       -2 0.56073055E-01 0.39512555E+03</pdfrwt>
<totfact> 0.12756465E+03</totfact>
</mgrwt>
</event>
<event>
 4    1  0.1351183E-004  0.4115959E+03  0.7818608E-02  0.1039837E+00
          2   -1    0    0  501    0  0.00000000000E+00  0.00000000000E+00  0.25447166647E+02  0.25447166775E+02  0.25500000000E-02 0.  1.
         -2   -1    0    0    0  501 -0.00000000000E+00 -0.00000000000E+00 -0.16643427097E+04  0.16643427097E+04  0.25500000000E-02 0. -1.
    5000001    1    1    2    0    0  0.14999168272E+03 -0.14699975902E+02 -0.10626840213E+04  0.10808052199E+04  0.12700000000E+03 0.  0.
   -5000001    1    1    2    0    0 -0.14999168272E+03  0.14699975902E+02 -0.57621152170E+03  0.60898465655E+03  0.12700000000E+03 0.  0.
<mgrwt>
<rscale>  0 0.41159595E+03</rscale>
<asrwt>0</asrwt>
<pdfrwt beam="1">  1        2 0.36353106E-02 0.41159595E+03</pdfrwt>
<pdfrwt beam="2">  1       -2 0.23776318E+00 0.41159595E+03</pdfrwt>
<totfact> 0.20358873E+02</totfact>
</mgrwt>
</event>
<event>
 4    1  0.1351183E-004  0.8026873E+03  0.7818608E-02  0.9556135E-01
         -2   -1    0    0    0  501 -0.00000000000E+00  0.00000000000E+00  0.68735090157E+03  0.68735090158E+03  0.25500000000E-02 0.  1.
          2   -1    0    0  501    0  0.00000000000E+00 -0.00000000000E+00 -0.23434426370E+03  0.23434426371E+03  0.25500000000E-02 0. -1.
    5000001    1    1    2    0    0  0.20714605388E+03 -0.27704210137E+03  0.40909472789E+03  0.55058996537E+03  0.12700000000E+03 0.  0.
   -5000001    1    1    2    0    0 -0.20714605388E+03  0.27704210137E+03  0.43911909984E+02  0.37110519993E+03  0.12700000000E+03 0.  0.
<mgrwt>
<rscale>  0 0.80268734E+03</rscale>
<asrwt>0</asrwt>
<pdfrwt beam="1">  1        2 0.33477751E-01 0.80268734E+03</pdfrwt>
<pdfrwt beam="2">  1       -2 0.98192988E-01 0.80268734E+03</pdfrwt>
<totfact> 0.13657010E+02</totfact>
</mgrwt>
</event>
<event>
 4    1  0.1351183E-004  0.4206631E+03  0.7818608E-02  0.1036851E+00
          2   -1    0    0  501    0  0.00000000000E+00  0.00000000000E+00  0.48376204437E+03  0.48376204438E+03  0.25500000000E-02 0.  1.
         -2   -1    0    0    0  501 -0.00000000000E+00 -0.00000000000E+00 -0.91448619110E+02  0.91448619145E+02  0.25500000000E-02 0. -1.
    5000001    1    1    2    0    0  0.11303562733E+03 -0.11032316178E+03  0.27304877137E+03  0.34004835630E+03  0.12700000000E+03 0.  0.
   -5000001    1    1    2    0    0 -0.11303562733E+03  0.11032316178E+03  0.11926465389E+03  0.23516230723E+03  0.12700000000E+03 0.  0.
<mgrwt>
<rscale>  0 0.42066315E+03</rscale>
<asrwt>0</asrwt>
<pdfrwt beam="1">  1        2 0.69108864E-01 0.42066315E+03</pdfrwt>
<pdfrwt beam="2">  1       -2 0.13064088E-01 0.42066315E+03</pdfrwt>
<totfact> 0.30433590E+03</totfact>
</mgrwt>
</event>
<event>
 4    1  0.1351183E-004  0.6204436E+03  0.7818608E-02  0.9863877E-01
          2   -1    0    0  501    0  0.00000000000E+00  0.00000000000E+00  0.68112372088E+03  0.68112372088E+03  0.25500000000E-02 0.  1.
         -2   -1    0    0    0  501 -0.00000000000E+00 -0.00000000000E+00 -0.14129232900E+03  0.14129232902E+03  0.25500000000E-02 0. -1.
    5000001    1    1    2    0    0 -0.12609094797E+03 -0.22302360776E+03  0.42936589086E+03  0.51587064756E+03  0.12700000000E+03 0.  0.
   -5000001    1    1    2    0    0  0.12609094797E+03  0.22302360776E+03  0.11046550102E+03  0.30654540234E+03  0.12700000000E+03 0.  0.
<mgrwt>
<rscale>  0 0.62044357E+03</rscale>
<asrwt>0</asrwt>
<pdfrwt beam="1">  1        2 0.97303389E-01 0.62044357E+03</pdfrwt>
<pdfrwt beam="2">  1       -2 0.20184618E-01 0.62044357E+03</pdfrwt>
<totfact> 0.97979815E+02</totfact>
</mgrwt>
</event>
<event>
 4    1  0.1351183E-004  0.4352681E+03  0.7818608E-02  0.1032209E+00
         -2   -1    0    0    0  501 -0.00000000000E+00  0.00000000000E+00  0.37618459299E+02  0.37618459386E+02  0.25500000000E-02 0. -1.
          2   -1    0    0  501    0  0.00000000000E+00 -0.00000000000E+00 -0.12590783961E+04  0.12590783961E+04  0.25500000000E-02 0.  1.
    5000001    1    1    2    0    0 -0.15389013686E+03  0.61680758777E+02 -0.42832634686E+03  0.47652822543E+03  0.12700000000E+03 0.  0.
   -5000001    1    1    2    0    0  0.15389013686E+03 -0.61680758777E+02 -0.79313358993E+03  0.82016863004E+03  0.12700000000E+03 0.  0.
<mgrwt>
<rscale>  0 0.43526814E+03</rscale>
<asrwt>0</asrwt>
<pdfrwt beam="1">  1        2 0.17986832E+00 0.43526814E+03</pdfrwt>
<pdfrwt beam="2">  1       -2 0.53740664E-02 0.43526814E+03</pdfrwt>
<totfact> 0.36637894E+03</totfact>
</mgrwt>
</event>
<event>
 4    1  0.1351183E-004  0.4359092E+03  0.7818608E-02  0.1032009E+00
          2   -1    0    0  501    0  0.00000000000E+00  0.00000000000E+00  0.31646751114E+03  0.31646751115E+03  0.25500000000E-02 0.  1.
         -2   -1    0    0    0  501 -0.00000000000E+00 -0.00000000000E+00 -0.15010766482E+03  0.15010766484E+03  0.25500000000E-02 0. -1.
    5000001    1    1    2    0    0  0.17035048673E+03 -0.62429196432E+01  0.31659108822E+02  0.21491756919E+03  0.12700000000E+03 0.  0.
   -5000001    1    1    2    0    0 -0.17035048673E+03  0.62429196432E+01  0.13470073750E+03  0.25165760680E+03  0.12700000000E+03 0.  0.
<mgrwt>
<rscale>  0 0.43590916E+03</rscale>
<asrwt>0</asrwt>
<pdfrwt beam="1">  1        2 0.45209644E-01 0.43590916E+03</pdfrwt>
<pdfrwt beam="2">  1       -2 0.21443952E-01 0.43590916E+03</pdfrwt>
<totfact> 0.20996258E+03</totfact>
</mgrwt>
</event>
<event>
 4    1  0.1351183E-004  0.5629825E+03  0.7818608E-02  0.9985329E-01
         -2   -1    0    0    0  501 -0.00000000000E+00  0.00000000000E+00  0.10243385684E+03  0.10243385688E+03  0.25500000000E-02 0. -1.
          2   -1    0    0  501    0  0.00000000000E+00 -0.00000000000E+00 -0.77354626434E+03  0.77354626434E+03  0.25500000000E-02 0.  1.
    5000001    1    1    2    0    0 -0.47574490717E+02 -0.15128201688E+03 -0.63870460156E+03  0.67024036648E+03  0.12700000000E+03 0.  0.
   -5000001    1    1    2    0    0  0.47574490717E+02  0.15128201688E+03 -0.32407805933E+02  0.20573975475E+03  0.12700000000E+03 0.  0.
<mgrwt>
<rscale>  0 0.56298251E+03</rscale>
<asrwt>0</asrwt>
<pdfrwt beam="1">  1        2 0.11050661E+00 0.56298251E+03</pdfrwt>
<pdfrwt beam="2">  1       -2 0.14633409E-01 0.56298251E+03</pdfrwt>
<totfact> 0.14516303E+03</totfact>
</mgrwt>
</event>
<event>
 4    1  0.1351183E-004  0.7143909E+03  0.7818608E-02  0.9692933E-01
          2   -1    0    0  501    0  0.00000000000E+00  0.00000000000E+00  0.59603047554E+03  0.59603047555E+03  0.25500000000E-02 0.  1.
         -2   -1    0    0    0  501 -0.00000000000E+00 -0.00000000000E+00 -0.21406388509E+03  0.21406388510E+03  0.25500000000E-02 0. -1.
    5000001    1    1    2    0    0  0.16413825179E+03  0.29068472331E+03  0.19613319075E+03  0.40747540120E+03  0.12700000000E+03 0.  0.
   -5000001    1    1    2    0    0 -0.16413825179E+03 -0.29068472331E+03  0.18583339970E+03  0.40261895945E+03  0.12700000000E+03 0.  0.
<mgrwt>
<rscale>  0 0.71439093E+03</rscale>
<asrwt>0</asrwt>
<pdfrwt beam="1">  1        2 0.85147210E-01 0.71439093E+03</pdfrwt>
<pdfrwt beam="2">  1       -2 0.30580555E-01 0.71439093E+03</pdfrwt>
<totfact> 0.54332552E+02</totfact>
</mgrwt>
</event>
<event>
 4    1  0.1351183E-004  0.3329090E+03  0.7818608E-02  0.1069857E+00
          2   -1    0    0  501    0  0.00000000000E+00  0.00000000000E+00  0.13637780444E+03  0.13637780447E+03  0.25500000000E-02 0.  1.
         -2   -1    0    0    0  501 -0.00000000000E+00 -0.00000000000E+00 -0.20316427098E+03  0.20316427100E+03  0.25500000000E-02 0. -1.
    5000001    1    1    2    0    0 -0.99906951778E+02  0.39896459686E+02 -0.35667165680E+02  0.17021831046E+03  0.12700000000E+03 0.  0.
   -5000001    1    1    2    0    0  0.99906951778E+02 -0.39896459686E+02 -0.31119300856E+02  0.16932376500E+03  0.12700000000E+03 0.  0.
<mgrwt>
<rscale>  0 0.33290898E+03</rscale>
<asrwt>0</asrwt>
<pdfrwt beam="1">  1        2 0.19482544E-01 0.33290898E+03</pdfrwt>
<pdfrwt beam="2">  1       -2 0.29023467E-01 0.33290898E+03</pdfrwt>
<totfact> 0.31188199E+03</totfact>
</mgrwt>
</event>
<event>
 4    1  0.1351183E-004  0.9574127E+03  0.7818608E-02  0.9356528E-01
          2   -1    0    0  501    0  0.00000000000E+00  0.00000000000E+00  0.24009907099E+04  0.24009907099E+04  0.25500000000E-02 0.  1.
         -2   -1    0    0    0  501 -0.00000000000E+00 -0.00000000000E+00 -0.95443829050E+02  0.95443829084E+02  0.25500000000E-02 0. -1.
    5000001    1    1    2    0    0  0.10306472984E+03 -0.41989387088E+03  0.73154192913E+03  0.85919485299E+03  0.12700000000E+03 0.  0.
   -5000001    1    1    2    0    0 -0.10306472984E+03  0.41989387088E+03  0.15740049517E+04  0.16372396860E+04  0.12700000000E+03 0.  0.
<mgrwt>
<rscale>  0 0.95741265E+03</rscale>
<asrwt>0</asrwt>
<pdfrwt beam="1">  1        2 0.34299869E+00 0.95741265E+03</pdfrwt>
<pdfrwt beam="2">  1       -2 0.13634832E-01 0.95741265E+03</pdfrwt>
<totfact> 0.20699208E+02</totfact>
</mgrwt>
</event>
<event>
 4    1  0.1351183E-004  0.3048893E+03  0.7818608E-02  0.1082822E+00
          2   -1    0    0  501    0  0.00000000000E+00  0.00000000000E+00  0.11796039502E+04  0.11796039502E+04  0.25500000000E-02 0.  1.
         -2   -1    0    0    0  501 -0.00000000000E+00 -0.00000000000E+00 -0.19700989039E+02  0.19700989204E+02  0.25500000000E-02 0. -1.
    5000001    1    1    2    0    0 -0.47341767633E+02  0.65446448633E+02  0.48473912317E+03  0.50756822018E+03  0.12700000000E+03 0.  0.
   -5000001    1    1    2    0    0  0.47341767633E+02 -0.65446448633E+02  0.67516383798E+03  0.69173671922E+03  0.12700000000E+03 0.  0.
<mgrwt>
<rscale>  0 0.30488926E+03</rscale>
<asrwt>0</asrwt>
<pdfrwt beam="1">  1        2 0.16851483E+00 0.30488926E+03</pdfrwt>
<pdfrwt beam="2">  1       -2 0.28144274E-02 0.30488926E+03</pdfrwt>
<totfact> 0.10733446E+04</totfact>
</mgrwt>
</event>
<event>
 4    1  0.1351183E-004  0.4457081E+03  0.7818608E-02  0.1029010E+00
         -2   -1    0    0    0  501 -0.00000000000E+00  0.00000000000E+00  0.22761459432E+02  0.22761459575E+02  0.25500000000E-02 0. -1.
          2   -1    0    0  501    0  0.00000000000E+00 -0.00000000000E+00 -0.21819311505E+04  0.21819311505E+04  0.25500000000E-02 0.  1.
    5000001    1    1    2    0    0  0.30294605212E+02 -0.31735965307E+02 -0.19590319924E+04  0.19636344573E+04  0.12700000000E+03 0.  0.
   -5000001    1    1    2    0    0 -0.30294605212E+02  0.31735965307E+02 -0.20013769868E+03  0.24105815280E+03  0.12700000000E+03 0.  0.
<mgrwt>
<rscale>  0 0.44570814E+03</rscale>
<asrwt>0</asrwt>
<pdfrwt beam="1">  1        2 0.31170432E+00 0.44570814E+03</pdfrwt>
<pdfrwt beam="2">  1       -2 0.32516385E-02 0.44570814E+03</pdfrwt>
<totfact> 0.26818552E+03</totfact>
</mgrwt>
</event>
<event>
 4    1  0.1351183E-004  0.3879787E+03  0.7818608E-02  0.1048024E+00
          2   -1    0    0  501    0  0.00000000000E+00  0.00000000000E+00  0.34792107250E+04  0.34792107250E+04  0.25500000000E-02 0.  1.
         -2   -1    0    0    0  501 -0.00000000000E+00 -0.00000000000E+00 -0.10816210761E+02  0.10816211062E+02  0.25500000000E-02 0. -1.
    5000001    1    1    2    0    0 -0.12217636962E+03 -0.63240202656E+02  0.12775982678E+04  0.12912446408E+04  0.12700000000E+03 0.  0.
   -5000001    1    1    2    0    0  0.12217636962E+03  0.63240202656E+02  0.21907962464E+04  0.21987822953E+04  0.12700000000E+03 0.  0.
<mgrwt>
<rscale>  0 0.38797875E+03</rscale>
<asrwt>0</asrwt>
<pdfrwt beam="1">  1        2 0.49703041E+00 0.38797875E+03</pdfrwt>
<pdfrwt beam="2">  1       -2 0.15451720E-02 0.38797875E+03</pdfrwt>
<totfact> 0.16793308E+03</totfact>
</mgrwt>
</event>
<event>
 4    1  0.1351183E-004  0.4033262E+03  0.7818608E-02  0.1042634E+00
          2   -1    0    0  501    0  0.00000000000E+00  0.00000000000E+00  0.52020215775E+03  0.52020215776E+03  0.25500000000E-02 0.  1.
         -2   -1    0    0    0  501 -0.00000000000E+00 -0.00000000000E+00 -0.78177298474E+02  0.78177298516E+02  0.25500000000E-02 0. -1.
    5000001    1    1    2    0    0 -0.57937302089E+02 -0.89388684415E+02  0.39141434370E+03  0.42506617876E+03  0.12700000000E+03 0.  0.
   -5000001    1    1    2    0    0  0.57937302089E+02  0.89388684415E+02  0.50610515581E+02  0.17331327751E+03  0.12700000000E+03 0.  0.
<mgrwt>
<rscale>  0 0.40332617E+03</rscale>
<asrwt>0</asrwt>
<pdfrwt beam="1">  1        2 0.74314594E-01 0.40332617E+03</pdfrwt>
<pdfrwt beam="2">  1       -2 0.11168186E-01 0.40332617E+03</pdfrwt>
<totfact> 0.36207597E+03</totfact>
</mgrwt>
</event>
<event>
 4    1  0.1351183E-004  0.3615269E+03  0.7818608E-02  0.1057981E+00
         -2   -1    0    0    0  501 -0.00000000000E+00  0.00000000000E+00  0.96713438014E+01  0.96713441376E+01  0.25500000000E-02 0. -1.
          2   -1    0    0  501    0  0.00000000000E+00 -0.00000000000E+00 -0.33785821099E+04  0.33785821099E+04  0.25500000000E-02 0.  1.
    5000001    1    1    2    0    0 -0.73877817529E+01 -0.12259456545E+03 -0.20428584627E+04  0.20504837735E+04  0.12700000000E+03 0.  0.
   -5000001    1    1    2    0    0  0.73877817529E+01  0.12259456545E+03 -0.13260523033E+04  0.13377696805E+04  0.12700000000E+03 0.  0.
<mgrwt>
<rscale>  0 0.36152693E+03</rscale>
<asrwt>0</asrwt>
<pdfrwt beam="1">  1        2 0.48265383E+00 0.36152693E+03</pdfrwt>
<pdfrwt beam="2">  1       -2 0.13816227E-02 0.36152693E+03</pdfrwt>
<totfact> 0.22705633E+03</totfact>
</mgrwt>
</event>
<event>
 4    1  0.1351183E-004  0.6718931E+03  0.7818608E-02  0.9766544E-01
         -2   -1    0    0    0  501 -0.00000000000E+00  0.00000000000E+00  0.86431202945E+02  0.86431202983E+02  0.25500000000E-02 0. -1.
          2   -1    0    0  501    0  0.00000000000E+00 -0.00000000000E+00 -0.13057795869E+04  0.13057795869E+04  0.25500000000E-02 0.  1.
    5000001    1    1    2    0    0 -0.29595304694E+03 -0.94685365814E+02 -0.63728613229E+03  0.72028892738E+03  0.12700000000E+03 0.  0.
   -5000001    1    1    2    0    0  0.29595304694E+03  0.94685365814E+02 -0.58206225163E+03  0.67192186247E+03  0.12700000000E+03 0.  0.
<mgrwt>
<rscale>  0 0.67189315E+03</rscale>
<asrwt>0</asrwt>
<pdfrwt beam="1">  1        2 0.18653993E+00 0.67189315E+03</pdfrwt>
<pdfrwt beam="2">  1       -2 0.12347315E-01 0.67189315E+03</pdfrwt>
<totfact> 0.91272684E+02</totfact>
</mgrwt>
</event>
<event>
 4    1  0.1351183E-004  0.4332570E+03  0.7818608E-02  0.1032836E+00
          2   -1    0    0  501    0  0.00000000000E+00  0.00000000000E+00  0.21063883989E+04  0.21063883989E+04  0.25500000000E-02 0.  1.
         -2   -1    0    0    0  501 -0.00000000000E+00 -0.00000000000E+00 -0.22278849535E+02  0.22278849681E+02  0.25500000000E-02 0. -1.
    5000001    1    1    2    0    0 -0.10593321605E+03 -0.13552888520E+03  0.12128881406E+04  0.12315910711E+04  0.12700000000E+03 0.  0.
   -5000001    1    1    2    0    0  0.10593321605E+03  0.13552888520E+03  0.87122140878E+03  0.89707617742E+03  0.12700000000E+03 0.  0.
<mgrwt>
<rscale>  0 0.43325702E+03</rscale>
<asrwt>0</asrwt>
<pdfrwt beam="1">  1        2 0.30091259E+00 0.43325702E+03</pdfrwt>
<pdfrwt beam="2">  1       -2 0.31826932E-02 0.43325702E+03</pdfrwt>
<totfact> 0.30219188E+03</totfact>
</mgrwt>
</event>
<event>
 4    1  0.1351183E-004  0.7842144E+03  0.7818608E-02  0.9583151E-01
         -2   -1    0    0    0  501 -0.00000000000E+00  0.00000000000E+00  0.20302299967E+03  0.20302299969E+03  0.25500000000E-02 0. -1.
          2   -1    0    0  501    0  0.00000000000E+00 -0.00000000000E+00 -0.75729371253E+03  0.75729371254E+03  0.25500000000E-02 0.  1.
    5000001    1    1    2    0    0  0.31515739582E+03  0.60708549681E+01 -0.51665483462E+03  0.61840298960E+03  0.12700000000E+03 0.  0.
   -5000001    1    1    2    0    0 -0.31515739582E+03 -0.60708549681E+01 -0.37615878248E+02  0.34191372262E+03  0.12700000000E+03 0.  0.
<mgrwt>
<rscale>  0 0.78421436E+03</rscale>
<asrwt>0</asrwt>
<pdfrwt beam="1">  1        2 0.10818481E+00 0.78421436E+03</pdfrwt>
<pdfrwt beam="2">  1       -2 0.29003286E-01 0.78421436E+03</pdfrwt>
<totfact> 0.44654084E+02</totfact>
</mgrwt>
</event>
<event>
 4    1  0.1351183E-004  0.3169748E+03  0.7818608E-02  0.1077050E+00
          2   -1    0    0  501    0  0.00000000000E+00  0.00000000000E+00  0.32393295780E+03  0.32393295781E+03  0.25500000000E-02 0.  1.
         -2   -1    0    0    0  501 -0.00000000000E+00 -0.00000000000E+00 -0.77541520936E+02  0.77541520978E+02  0.25500000000E-02 0. -1.
    5000001    1    1    2    0    0 -0.48028798240E+01  0.89066415376E+02  0.82480282001E+02  0.17574951187E+03  0.12700000000E+03 0.  0.
   -5000001    1    1    2    0    0  0.48028798240E+01 -0.89066415376E+02  0.16391115486E+03  0.22572496692E+03  0.12700000000E+03 0.  0.
<mgrwt>
<rscale>  0 0.31697479E+03</rscale>
<asrwt>0</asrwt>
<pdfrwt beam="1">  1        2 0.46276137E-01 0.31697479E+03</pdfrwt>
<pdfrwt beam="2">  1       -2 0.11077360E-01 0.31697479E+03</pdfrwt>
<totfact> 0.61346653E+03</totfact>
</mgrwt>
</event>
<event>
 4    1  0.1351183E-004  0.3728311E+03  0.7818608E-02  0.1053616E+00
          2   -1    0    0  501    0  0.00000000000E+00  0.00000000000E+00  0.19205001518E+03  0.19205001519E+03  0.25500000000E-02 0.  1.
         -2   -1    0    0    0  501 -0.00000000000E+00 -0.00000000000E+00 -0.18094637904E+03  0.18094637906E+03  0.25500000000E-02 0. -1.
    5000001    1    1    2    0    0 -0.86645646326E+02 -0.97885741545E+02 -0.33614849445E+02  0.18533225442E+03  0.12700000000E+03 0.  0.
   -5000001    1    1    2    0    0  0.86645646326E+02  0.97885741545E+02  0.44718485585E+02  0.18766413983E+03  0.12700000000E+03 0.  0.
<mgrwt>
<rscale>  0 0.37283109E+03</rscale>
<asrwt>0</asrwt>
<pdfrwt beam="1">  1        2 0.27435716E-01 0.37283109E+03</pdfrwt>
<pdfrwt beam="2">  1       -2 0.25849483E-01 0.37283109E+03</pdfrwt>
<totfact> 0.26103592E+03</totfact>
</mgrwt>
</event>
<event>
 4    1  0.1351183E-004  0.3495521E+03  0.7818608E-02  0.1062799E+00
         -2   -1    0    0    0  501 -0.00000000000E+00  0.00000000000E+00  0.24196410991E+02  0.24196411125E+02  0.25500000000E-02 0. -1.
          2   -1    0    0  501    0  0.00000000000E+00 -0.00000000000E+00 -0.12624465537E+04  0.12624465537E+04  0.25500000000E-02 0.  1.
    5000001    1    1    2    0    0 -0.30681334319E+02 -0.83984348442E+02 -0.91411942856E+03  0.92722060198E+03  0.12700000000E+03 0.  0.
   -5000001    1    1    2    0    0  0.30681334319E+02  0.83984348442E+02 -0.32413071410E+03  0.35942236280E+03  0.12700000000E+03 0.  0.
<mgrwt>
<rscale>  0 0.34955215E+03</rscale>
<asrwt>0</asrwt>
<pdfrwt beam="1">  1        2 0.18034947E+00 0.34955215E+03</pdfrwt>
<pdfrwt beam="2">  1       -2 0.34566309E-02 0.34955215E+03</pdfrwt>
<totfact> 0.71344471E+03</totfact>
</mgrwt>
</event>
<event>
 4    1  0.1351183E-004  0.4910123E+03  0.7818608E-02  0.1016152E+00
          2   -1    0    0  501    0  0.00000000000E+00  0.00000000000E+00  0.53811951236E+03  0.53811951237E+03  0.25500000000E-02 0.  1.
         -2   -1    0    0    0  501 -0.00000000000E+00 -0.00000000000E+00 -0.11200721508E+03  0.11200721511E+03  0.25500000000E-02 0. -1.
    5000001    1    1    2    0    0 -0.16645828128E+03  0.10203486516E+03  0.31582861701E+03  0.39242348099E+03  0.12700000000E+03 0.  0.
   -5000001    1    1    2    0    0  0.16645828128E+03 -0.10203486516E+03  0.11028368027E+03  0.25770324648E+03  0.12700000000E+03 0.  0.
<mgrwt>
<rscale>  0 0.49101229E+03</rscale>
<asrwt>0</asrwt>
<pdfrwt beam="1">  1        2 0.76874217E-01 0.49101229E+03</pdfrwt>
<pdfrwt beam="2">  1       -2 0.16001030E-01 0.49101229E+03</pdfrwt>
<totfact> 0.19272223E+03</totfact>
</mgrwt>
</event>
<event>
 4    1  0.1351183E-004  0.3100768E+03  0.7818608E-02  0.1080309E+00
          2   -1    0    0  501    0  0.00000000000E+00  0.00000000000E+00  0.13892439764E+04  0.13892439764E+04  0.25500000000E-02 0.  1.
         -2   -1    0    0    0  501 -0.00000000000E+00 -0.00000000000E+00 -0.17302147167E+02  0.17302147355E+02  0.25500000000E-02 0. -1.
    5000001    1    1    2    0    0  0.40198355053E+02 -0.73358871428E+02  0.82284399458E+03  0.83677874685E+03  0.12700000000E+03 0.  0.
   -5000001    1    1    2    0    0 -0.40198355053E+02  0.73358871428E+02  0.54909783465E+03  0.56976737690E+03  0.12700000000E+03 0.  0.
<mgrwt>
<rscale>  0 0.31007679E+03</rscale>
<asrwt>0</asrwt>
<pdfrwt beam="1">  1        2 0.19846347E+00 0.31007679E+03</pdfrwt>
<pdfrwt beam="2">  1       -2 0.24717348E-02 0.31007679E+03</pdfrwt>
<totfact> 0.10074075E+04</totfact>
</mgrwt>
</event>
<event>
 4    1  0.1351183E-004  0.3237956E+03  0.7818608E-02  0.1073916E+00
          2   -1    0    0  501    0  0.00000000000E+00  0.00000000000E+00  0.10617250851E+04  0.10617250851E+04  0.25500000000E-02 0.  1.
         -2   -1    0    0    0  501 -0.00000000000E+00 -0.00000000000E+00 -0.24687083163E+02  0.24687083294E+02  0.25500000000E-02 0. -1.
    5000001    1    1    2    0    0  0.47476729261E+02 -0.61687682078E+02  0.73131866848E+03  0.74633464666E+03  0.12700000000E+03 0.  0.
   -5000001    1    1    2    0    0 -0.47476729261E+02  0.61687682078E+02  0.30571933349E+03  0.34007752176E+03  0.12700000000E+03 0.  0.
<mgrwt>
<rscale>  0 0.32379559E+03</rscale>
<asrwt>0</asrwt>
<pdfrwt beam="1">  1        2 0.15167503E+00 0.32379559E+03</pdfrwt>
<pdfrwt beam="2">  1       -2 0.35267259E-02 0.32379559E+03</pdfrwt>
<totfact> 0.89343171E+03</totfact>
</mgrwt>
</event>
<event>
 4    1  0.1351183E-004  0.3864553E+03  0.7818608E-02  0.1048573E+00
         -2   -1    0    0    0  501 -0.00000000000E+00  0.00000000000E+00  0.15842756482E+03  0.15842756484E+03  0.25500000000E-02 0. -1.
          2   -1    0    0  501    0  0.00000000000E+00 -0.00000000000E+00 -0.23567194878E+03  0.23567194880E+03  0.25500000000E-02 0.  1.
    5000001    1    1    2    0    0 -0.12714354066E+03  0.71009653085E+02 -0.38329842017E+02  0.19699245557E+03  0.12700000000E+03 0.  0.
   -5000001    1    1    2    0    0  0.12714354066E+03 -0.71009653085E+02 -0.38914541945E+02  0.19710705806E+03  0.12700000000E+03 0.  0.
<mgrwt>
<rscale>  0 0.38645534E+03</rscale>
<asrwt>0</asrwt>
<pdfrwt beam="1">  1        2 0.33667421E-01 0.38645534E+03</pdfrwt>
<pdfrwt beam="2">  1       -2 0.22632509E-01 0.38645534E+03</pdfrwt>
<totfact> 0.26338592E+03</totfact>
</mgrwt>
</event>
<event>
 4    1  0.1351183E-004  0.5355677E+03  0.7818608E-02  0.1004891E+00
         -2   -1    0    0    0  501 -0.00000000000E+00  0.00000000000E+00  0.10172874339E+04  0.10172874339E+04  0.25500000000E-02 0. -1.
          2   -1    0    0  501    0  0.00000000000E+00 -0.00000000000E+00 -0.70489611453E+02  0.70489611499E+02  0.25500000000E-02 0.  1.
    5000001    1    1    2    0    0 -0.56245247965E+02  0.20684652176E+03  0.67271520351E+03  0.71737281556E+03  0.12700000000E+03 0.  0.
   -5000001    1    1    2    0    0  0.56245247965E+02 -0.20684652176E+03  0.27408261896E+03  0.37040422986E+03  0.12700000000E+03 0.  0.
<mgrwt>
<rscale>  0 0.53556772E+03</rscale>
<asrwt>0</asrwt>
<pdfrwt beam="1">  1        2 0.10069944E-01 0.53556772E+03</pdfrwt>
<pdfrwt beam="2">  1       -2 0.14532678E+00 0.53556772E+03</pdfrwt>
<totfact> 0.21809601E+02</totfact>
</mgrwt>
</event>
<event>
 4    1  0.1351183E-004  0.3873137E+03  0.7818608E-02  0.1048263E+00
         -2   -1    0    0    0  501 -0.00000000000E+00  0.00000000000E+00  0.34756994057E+03  0.34756994058E+03  0.25500000000E-02 0. -1.
          2   -1    0    0  501    0  0.00000000000E+00 -0.00000000000E+00 -0.10790053665E+03  0.10790053668E+03  0.25500000000E-02 0.  1.
    5000001    1    1    2    0    0 -0.88836949123E+02 -0.11162312849E+03  0.15743379146E+03  0.24751994877E+03  0.12700000000E+03 0.  0.
   -5000001    1    1    2    0    0  0.88836949123E+02  0.11162312849E+03  0.82235612459E+02  0.20795052849E+03  0.12700000000E+03 0.  0.
<mgrwt>
<rscale>  0 0.38731374E+03</rscale>
<asrwt>0</asrwt>
<pdfrwt beam="1">  1        2 0.15414363E-01 0.38731374E+03</pdfrwt>
<pdfrwt beam="2">  1       -2 0.49652848E-01 0.38731374E+03</pdfrwt>
<totfact> 0.14803668E+03</totfact>
</mgrwt>
</event>
<event>
 4    1  0.1351183E-004  0.6138910E+03  0.7818608E-02  0.9876999E-01
          2   -1    0    0  501    0  0.00000000000E+00  0.00000000000E+00  0.25330217786E+04  0.25330217786E+04  0.25500000000E-02 0.  1.
         -2   -1    0    0    0  501 -0.00000000000E+00 -0.00000000000E+00 -0.37194916451E+02  0.37194916539E+02  0.25500000000E-02 0. -1.
    5000001    1    1    2    0    0  0.12847492490E+03 -0.15270324880E+03  0.20668774998E+04  0.20803691229E+04  0.12700000000E+03 0.  0.
   -5000001    1    1    2    0    0 -0.12847492490E+03  0.15270324880E+03  0.42894936233E+03  0.48984757217E+03  0.12700000000E+03 0.  0.
<mgrwt>
<rscale>  0 0.61389098E+03</rscale>
<asrwt>0</asrwt>
<pdfrwt beam="1">  1        2 0.36186029E+00 0.61389098E+03</pdfrwt>
<pdfrwt beam="2">  1       -2 0.53135590E-02 0.61389098E+03</pdfrwt>
<totfact> 0.83007821E+02</totfact>
</mgrwt>
</event>
<event>
 4    1  0.1351183E-004  0.5192184E+03  0.7818608E-02  0.1008881E+00
         -2   -1    0    0    0  501 -0.00000000000E+00  0.00000000000E+00  0.44754364405E+03  0.44754364406E+03  0.25500000000E-02 0. -1.
          2   -1    0    0  501    0  0.00000000000E+00 -0.00000000000E+00 -0.15059301127E+03  0.15059301129E+03  0.25500000000E-02 0.  1.
    5000001    1    1    2    0    0 -0.52874510484E+02  0.14106337590E+03  0.34320445210E+03  0.39574345961E+03  0.12700000000E+03 0.  0.
   -5000001    1    1    2    0    0  0.52874510484E+02 -0.14106337590E+03 -0.46253819319E+02  0.20239319574E+03  0.12700000000E+03 0.  0.
<mgrwt>
<rscale>  0 0.51921843E+03</rscale>
<asrwt>0</asrwt>
<pdfrwt beam="1">  1        2 0.21513287E-01 0.51921843E+03</pdfrwt>
<pdfrwt beam="2">  1       -2 0.63934807E-01 0.51921843E+03</pdfrwt>
<totfact> 0.59433901E+02</totfact>
</mgrwt>
</event>
<event>
 4    1  0.1351183E-004  0.6189137E+03  0.7818608E-02  0.9866925E-01
          2   -1    0    0  501    0  0.00000000000E+00  0.00000000000E+00  0.38665922164E+03  0.38665922164E+03  0.25500000000E-02 0.  1.
         -2   -1    0    0    0  501 -0.00000000000E+00 -0.00000000000E+00 -0.24766909762E+03  0.24766909763E+03  0.25500000000E-02 0. -1.
    5000001    1    1    2    0    0  0.11122387014E+03 -0.21605655901E+03 -0.77547169600E+02  0.28494516927E+03  0.12700000000E+03 0.  0.
   -5000001    1    1    2    0    0 -0.11122387014E+03  0.21605655901E+03  0.21653729362E+03  0.34938315000E+03  0.12700000000E+03 0.  0.
<mgrwt>
<rscale>  0 0.61891370E+03</rscale>
<asrwt>0</asrwt>
<pdfrwt beam="1">  1        2 0.55237032E-01 0.61891370E+03</pdfrwt>
<pdfrwt beam="2">  1       -2 0.35381300E-01 0.61891370E+03</pdfrwt>
<totfact> 0.67756926E+02</totfact>
</mgrwt>
</event>
<event>
 4    1  0.1351183E-004  0.4744200E+03  0.7818608E-02  0.1020680E+00
          2   -1    0    0  501    0  0.00000000000E+00  0.00000000000E+00  0.14471795353E+04  0.14471795353E+04  0.25500000000E-02 0.  1.
         -2   -1    0    0    0  501 -0.00000000000E+00 -0.00000000000E+00 -0.38881542960E+02  0.38881543044E+02  0.25500000000E-02 0. -1.
    5000001    1    1    2    0    0 -0.75713126404E+01 -0.19260851772E+03  0.53303394238E+03  0.58086964940E+03  0.12700000000E+03 0.  0.
   -5000001    1    1    2    0    0  0.75713126404E+01  0.19260851772E+03  0.87526404993E+03  0.90519142891E+03  0.12700000000E+03 0.  0.
<mgrwt>
<rscale>  0 0.47441995E+03</rscale>
<asrwt>0</asrwt>
<pdfrwt beam="1">  1        2 0.20673989E+00 0.47441995E+03</pdfrwt>
<pdfrwt beam="2">  1       -2 0.55545072E-02 0.47441995E+03</pdfrwt>
<totfact> 0.27651694E+03</totfact>
</mgrwt>
</event>
<event>
 4    1  0.1351183E-004  0.5054611E+03  0.7818608E-02  0.1012363E+00
         -2   -1    0    0    0  501 -0.00000000000E+00  0.00000000000E+00  0.44639037893E+02  0.44639037966E+02  0.25500000000E-02 0. -1.
          2   -1    0    0  501    0  0.00000000000E+00 -0.00000000000E+00 -0.14308717967E+04  0.14308717967E+04  0.25500000000E-02 0.  1.
    5000001    1    1    2    0    0  0.16593841856E+03  0.48956927514E+02 -0.10827026755E+04  0.11037691892E+04  0.12700000000E+03 0.  0.
   -5000001    1    1    2    0    0 -0.16593841856E+03 -0.48956927514E+02 -0.30353008338E+03  0.37174164553E+03  0.12700000000E+03 0.  0.
<mgrwt>
<rscale>  0 0.50546114E+03</rscale>
<asrwt>0</asrwt>
<pdfrwt beam="1">  1        2 0.20441023E+00 0.50546114E+03</pdfrwt>
<pdfrwt beam="2">  1       -2 0.63770063E-02 0.50546114E+03</pdfrwt>
<totfact> 0.22730787E+03</totfact>
</mgrwt>
</event>
<event>
 4    1  0.1351183E-004  0.5811182E+03  0.7818608E-02  0.9945373E-01
          2   -1    0    0  501    0  0.00000000000E+00  0.00000000000E+00  0.74980166558E+03  0.74980166559E+03  0.25500000000E-02 0.  1.
         -2   -1    0    0    0  501 -0.00000000000E+00 -0.00000000000E+00 -0.11259588461E+03  0.11259588464E+03  0.25500000000E-02 0. -1.
    5000001    1    1    2    0    0  0.21360967975E+02 -0.15103442612E+03  0.63351101987E+03  0.66387717322E+03  0.12700000000E+03 0.  0.
   -5000001    1    1    2    0    0 -0.21360967975E+02  0.15103442612E+03  0.36947611002E+01  0.19852037700E+03  0.12700000000E+03 0.  0.
<mgrwt>
<rscale>  0 0.58111817E+03</rscale>
<asrwt>0</asrwt>
<pdfrwt beam="1">  1        2 0.10711453E+00 0.58111817E+03</pdfrwt>
<pdfrwt beam="2">  1       -2 0.16085126E-01 0.58111817E+03</pdfrwt>
<totfact> 0.12867808E+03</totfact>
</mgrwt>
</event>
<event>
 4    1  0.1351183E-004  0.8118913E+03  0.7818608E-02  0.9542963E-01
          2   -1    0    0  501    0  0.00000000000E+00  0.00000000000E+00  0.42222851676E+03  0.42222851677E+03  0.25500000000E-02 0.  1.
         -2   -1    0    0    0  501 -0.00000000000E+00 -0.00000000000E+00 -0.39029069192E+03  0.39029069193E+03  0.25500000000E-02 0. -1.
    5000001    1    1    2    0    0  0.13672499641E+03 -0.33569104804E+03  0.14752649079E+03  0.41143075950E+03  0.12700000000E+03 0.  0.
   -5000001    1    1    2    0    0 -0.13672499641E+03  0.33569104804E+03 -0.11558866595E+03  0.40108844919E+03  0.12700000000E+03 0.  0.
<mgrwt>
<rscale>  0 0.81189127E+03</rscale>
<asrwt>0</asrwt>
<pdfrwt beam="1">  1        2 0.60318360E-01 0.81189127E+03</pdfrwt>
<pdfrwt beam="2">  1       -2 0.55755813E-01 0.81189127E+03</pdfrwt>
<totfact> 0.24748609E+02</totfact>
</mgrwt>
</event>
<event>
 4    1  0.1351183E-004  0.4143084E+03  0.7818608E-02  0.1038935E+00
          2   -1    0    0  501    0  0.00000000000E+00  0.00000000000E+00  0.55341211554E+02  0.55341211612E+02  0.25500000000E-02 0.  1.
         -2   -1    0    0    0  501 -0.00000000000E+00 -0.00000000000E+00 -0.77542328131E+03  0.77542328132E+03  0.25500000000E-02 0. -1.
    5000001    1    1    2    0    0  0.10686928184E+03  0.51258373793E+02 -0.58632848534E+03  0.61152150985E+03  0.12700000000E+03 0.  0.
   -5000001    1    1    2    0    0 -0.10686928184E+03 -0.51258373793E+02 -0.13375358442E+03  0.21924298308E+03  0.12700000000E+03 0.  0.
<mgrwt>
<rscale>  0 0.41430841E+03</rscale>
<asrwt>0</asrwt>
<pdfrwt beam="1">  1        2 0.79058878E-02 0.41430841E+03</pdfrwt>
<pdfrwt beam="2">  1       -2 0.11077475E+00 0.41430841E+03</pdfrwt>
<totfact> 0.58526901E+02</totfact>
</mgrwt>
</event>
<event>
 4    1  0.1351183E-004  0.4548600E+03  0.7818608E-02  0.1026283E+00
         -2   -1    0    0    0  501 -0.00000000000E+00  0.00000000000E+00  0.72827851073E+02  0.72827851118E+02  0.25500000000E-02 0. -1.
          2   -1    0    0  501    0  0.00000000000E+00 -0.00000000000E+00 -0.71022829276E+03  0.71022829277E+03  0.25500000000E-02 0.  1.
    5000001    1    1    2    0    0 -0.17476311800E+03  0.26771798527E+02 -0.20533338175E+03  0.29924851590E+03  0.12700000000E+03 0.  0.
   -5000001    1    1    2    0    0  0.17476311800E+03 -0.26771798527E+02 -0.43206705994E+03  0.48380762798E+03  0.12700000000E+03 0.  0.
<mgrwt>
<rscale>  0 0.45485998E+03</rscale>
<asrwt>0</asrwt>
<pdfrwt beam="1">  1        2 0.10146118E+00 0.45485998E+03</pdfrwt>
<pdfrwt beam="2">  1       -2 0.10403979E-01 0.45485998E+03</pdfrwt>
<totfact> 0.28268288E+03</totfact>
</mgrwt>
</event>
<event>
 4    1  0.1351183E-004  0.4563648E+03  0.7818608E-02  0.1025841E+00
         -2   -1    0    0    0  501 -0.00000000000E+00  0.00000000000E+00  0.32215386178E+02  0.32215386279E+02  0.25500000000E-02 0. -1.
          2   -1    0    0  501    0  0.00000000000E+00 -0.00000000000E+00 -0.16162220228E+04  0.16162220228E+04  0.25500000000E-02 0.  1.
    5000001    1    1    2    0    0 -0.11132391948E+03  0.55870019589E+01 -0.13458931879E+04  0.13564592522E+04  0.12700000000E+03 0.  0.
   -5000001    1    1    2    0    0  0.11132391948E+03 -0.55870019589E+01 -0.23811344877E+03  0.29197815693E+03  0.12700000000E+03 0.  0.
<mgrwt>
<rscale>  0 0.45636484E+03</rscale>
<asrwt>0</asrwt>
<pdfrwt beam="1">  1        2 0.23088881E+00 0.45636484E+03</pdfrwt>
<pdfrwt beam="2">  1       -2 0.46021990E-02 0.45636484E+03</pdfrwt>
<totfact> 0.30266651E+03</totfact>
</mgrwt>
</event>
<event>
 4    1  0.1351183E-004  0.3823602E+03  0.7818608E-02  0.1050065E+00
         -2   -1    0    0    0  501 -0.00000000000E+00  0.00000000000E+00  0.39979464844E+02  0.39979464925E+02  0.25500000000E-02 0. -1.
          2   -1    0    0  501    0  0.00000000000E+00 -0.00000000000E+00 -0.91421530839E+03  0.91421530839E+03  0.25500000000E-02 0.  1.
    5000001    1    1    2    0    0 -0.13331730288E+03 -0.25906724642E+02 -0.32618071012E+03  0.37545641197E+03  0.12700000000E+03 0.  0.
   -5000001    1    1    2    0    0  0.13331730288E+03  0.25906724642E+02 -0.54805513342E+03  0.57873836135E+03  0.12700000000E+03 0.  0.
<mgrwt>
<rscale>  0 0.38236024E+03</rscale>
<asrwt>0</asrwt>
<pdfrwt beam="1">  1        2 0.13060217E+00 0.38236024E+03</pdfrwt>
<pdfrwt beam="2">  1       -2 0.57113527E-02 0.38236024E+03</pdfrwt>
<totfact> 0.52769818E+03</totfact>
</mgrwt>
</event>
<event>
 4    1  0.1351183E-004  0.7010861E+03  0.7818608E-02  0.9715377E-01
         -2   -1    0    0    0  501 -0.00000000000E+00  0.00000000000E+00  0.46508695144E+02  0.46508695213E+02  0.25500000000E-02 0. -1.
          2   -1    0    0  501    0  0.00000000000E+00 -0.00000000000E+00 -0.26420961942E+04  0.26420961942E+04  0.25500000000E-02 0.  1.
    5000001    1    1    2    0    0  0.17606285787E+02 -0.24083898116E+03 -0.21418063402E+04  0.21591148175E+04  0.12700000000E+03 0.  0.
   -5000001    1    1    2    0    0 -0.17606285787E+02  0.24083898116E+03 -0.45378115886E+03  0.52949007193E+03  0.12700000000E+03 0.  0.
<mgrwt>
<rscale>  0 0.70108615E+03</rscale>
<asrwt>0</asrwt>
<pdfrwt beam="1">  1        2 0.37744222E+00 0.70108615E+03</pdfrwt>
<pdfrwt beam="2">  1       -2 0.66441010E-02 0.70108615E+03</pdfrwt>
<totfact> 0.50970388E+02</totfact>
</mgrwt>
</event>
<event>
 4    1  0.1351183E-004  0.2899165E+03  0.7818608E-02  0.1090393E+00
          2   -1    0    0  501    0  0.00000000000E+00  0.00000000000E+00  0.54364628952E+03  0.54364628953E+03  0.25500000000E-02 0.  1.
         -2   -1    0    0    0  501 -0.00000000000E+00 -0.00000000000E+00 -0.38651762541E+02  0.38651762625E+02  0.25500000000E-02 0. -1.
    5000001    1    1    2    0    0  0.43362444831E+02 -0.15429476997E+02  0.14687374343E+03  0.19954765569E+03  0.12700000000E+03 0.  0.
   -5000001    1    1    2    0    0 -0.43362444831E+02  0.15429476997E+02  0.35812078355E+03  0.38275039646E+03  0.12700000000E+03 0.  0.
<mgrwt>
<rscale>  0 0.28991645E+03</rscale>
<asrwt>0</asrwt>
<pdfrwt beam="1">  1        2 0.77663754E-01 0.28991645E+03</pdfrwt>
<pdfrwt beam="2">  1       -2 0.55216805E-02 0.28991645E+03</pdfrwt>
<totfact> 0.10326387E+04</totfact>
</mgrwt>
</event>
<event>
 4    1  0.1351183E-004  0.2573369E+03  0.7818608E-02  0.1108754E+00
          2   -1    0    0  501    0  0.00000000000E+00  0.00000000000E+00  0.23756396466E+04  0.23756396466E+04  0.25500000000E-02 0.  1.
         -2   -1    0    0    0  501 -0.00000000000E+00 -0.00000000000E+00 -0.69688893990E+01  0.69688898655E+01  0.25500000000E-02 0. -1.
    5000001    1    1    2    0    0  0.12506506801E+02  0.16411742762E+02  0.11926810370E+04  0.11996011062E+04  0.12700000000E+03 0.  0.
   -5000001    1    1    2    0    0 -0.12506506801E+02 -0.16411742762E+02  0.11759897202E+04  0.11830074303E+04  0.12700000000E+03 0.  0.
<mgrwt>
<rscale>  0 0.25733690E+03</rscale>
<asrwt>0</asrwt>
<pdfrwt beam="1">  1        2 0.33937732E+00 0.25733690E+03</pdfrwt>
<pdfrwt beam="2">  1       -2 0.99555498E-03 0.25733690E+03</pdfrwt>
<totfact> 0.12390431E+04</totfact>
</mgrwt>
</event>
<event>
 4    1  0.1351183E-004  0.3404251E+03  0.7818608E-02  0.1066615E+00
         -2   -1    0    0    0  501 -0.00000000000E+00  0.00000000000E+00  0.44300687137E+02  0.44300687211E+02  0.25500000000E-02 0. -1.
          2   -1    0    0  501    0  0.00000000000E+00 -0.00000000000E+00 -0.65399227767E+03  0.65399227768E+03  0.25500000000E-02 0.  1.
    5000001    1    1    2    0    0  0.61699656679E+02 -0.94674800457E+02 -0.28730298950E+03  0.33382955719E+03  0.12700000000E+03 0.  0.
   -5000001    1    1    2    0    0 -0.61699656679E+02  0.94674800457E+02 -0.32238860103E+03  0.36446340770E+03  0.12700000000E+03 0.  0.
<mgrwt>
<rscale>  0 0.34042507E+03</rscale>
<asrwt>0</asrwt>
<pdfrwt beam="1">  1        2 0.93427463E-01 0.34042507E+03</pdfrwt>
<pdfrwt beam="2">  1       -2 0.63286700E-02 0.34042507E+03</pdfrwt>
<totfact> 0.68079994E+03</totfact>
</mgrwt>
</event>
<event>
 4    1  0.1351183E-004  0.4402324E+03  0.7818608E-02  0.1030676E+00
         -2   -1    0    0    0  501 -0.00000000000E+00  0.00000000000E+00  0.10210156509E+03  0.10210156513E+03  0.25500000000E-02 0. -1.
          2   -1    0    0  501    0  0.00000000000E+00 -0.00000000000E+00 -0.47453868203E+03  0.47453868204E+03  0.25500000000E-02 0.  1.
    5000001    1    1    2    0    0  0.58179963986E+02 -0.68527744395E+02  0.17720234050E+02  0.15660129839E+03  0.12700000000E+03 0.  0.
   -5000001    1    1    2    0    0 -0.58179963986E+02  0.68527744395E+02 -0.39015735099E+03  0.42003894878E+03  0.12700000000E+03 0.  0.
<mgrwt>
<rscale>  0 0.44023240E+03</rscale>
<asrwt>0</asrwt>
<pdfrwt beam="1">  1        2 0.67791239E-01 0.44023240E+03</pdfrwt>
<pdfrwt beam="2">  1       -2 0.14585938E-01 0.44023240E+03</pdfrwt>
<totfact> 0.25923269E+03</totfact>
</mgrwt>
</event>
<event>
 4    1  0.1351183E-004  0.3494539E+03  0.7818608E-02  0.1062839E+00
          2   -1    0    0  501    0  0.00000000000E+00  0.00000000000E+00  0.10785184195E+04  0.10785184195E+04  0.25500000000E-02 0.  1.
         -2   -1    0    0    0  501 -0.00000000000E+00 -0.00000000000E+00 -0.28306888413E+02  0.28306888528E+02  0.25500000000E-02 0. -1.
    5000001    1    1    2    0    0  0.79936085620E+02  0.97724768353E+01  0.80689264791E+03  0.82078622329E+03  0.12700000000E+03 0.  0.
   -5000001    1    1    2    0    0 -0.79936085620E+02 -0.97724768353E+01  0.24331888315E+03  0.28603908472E+03  0.12700000000E+03 0.  0.
<mgrwt>
<rscale>  0 0.34945386E+03</rscale>
<asrwt>0</asrwt>
<pdfrwt beam="1">  1        2 0.15407406E+00 0.34945386E+03</pdfrwt>
<pdfrwt beam="2">  1       -2 0.40438412E-02 0.34945386E+03</pdfrwt>
<totfact> 0.71195387E+03</totfact>
</mgrwt>
</event>
<event>
 4    1  0.1351183E-004  0.1135774E+04  0.7818608E-02  0.9171009E-01
         -2   -1    0    0    0  501 -0.00000000000E+00  0.00000000000E+00  0.12055777279E+03  0.12055777282E+03  0.25500000000E-02 0. -1.
          2   -1    0    0  501    0  0.00000000000E+00 -0.00000000000E+00 -0.26750282354E+04  0.26750282354E+04  0.25500000000E-02 0.  1.
    5000001    1    1    2    0    0 -0.29042283209E+03 -0.21748720269E+03 -0.23060869897E+04  0.23379076776E+04  0.12700000000E+03 0.  0.
   -5000001    1    1    2    0    0  0.29042283209E+03  0.21748720269E+03 -0.24838347288E+03  0.45767833064E+03  0.12700000000E+03 0.  0.
<mgrwt>
<rscale>  0 0.11357737E+04</rscale>
<asrwt>0</asrwt>
<pdfrwt beam="1">  1        2 0.38214685E+00 0.11357737E+04</pdfrwt>
<pdfrwt beam="2">  1       -2 0.17222541E-01 0.11357737E+04</pdfrwt>
<totfact> 0.98521684E+01</totfact>
</mgrwt>
</event>
<event>
 4    1  0.1351183E-004  0.5202667E+03  0.7818608E-02  0.1008620E+00
         -2   -1    0    0    0  501 -0.00000000000E+00  0.00000000000E+00  0.17189870232E+03  0.17189870234E+03  0.25500000000E-02 0. -1.
          2   -1    0    0  501    0  0.00000000000E+00 -0.00000000000E+00 -0.39365828810E+03  0.39365828811E+03  0.25500000000E-02 0.  1.
    5000001    1    1    2    0    0  0.18103741135E+03 -0.23834376318E+01 -0.25977071867E+03  0.34115986189E+03  0.12700000000E+03 0.  0.
   -5000001    1    1    2    0    0 -0.18103741135E+03  0.23834376318E+01  0.38011132896E+02  0.22439712856E+03  0.12700000000E+03 0.  0.
<mgrwt>
<rscale>  0 0.52026666E+03</rscale>
<asrwt>0</asrwt>
<pdfrwt beam="1">  1        2 0.56236898E-01 0.52026666E+03</pdfrwt>
<pdfrwt beam="2">  1       -2 0.24556958E-01 0.52026666E+03</pdfrwt>
<totfact> 0.13019306E+03</totfact>
</mgrwt>
</event>
<event>
 4    1  0.1351183E-004  0.3080440E+03  0.7818608E-02  0.1081287E+00
         -2   -1    0    0    0  501 -0.00000000000E+00  0.00000000000E+00  0.36328187968E+02  0.36328188058E+02  0.25500000000E-02 0. -1.
          2   -1    0    0  501    0  0.00000000000E+00 -0.00000000000E+00 -0.65301299601E+03  0.65301299602E+03  0.25500000000E-02 0.  1.
    5000001    1    1    2    0    0  0.65381859081E+01 -0.80168288621E+02 -0.23331509188E+03  0.27755113849E+03  0.12700000000E+03 0.  0.
   -5000001    1    1    2    0    0 -0.65381859081E+01  0.80168288621E+02 -0.38336971616E+03  0.41179004559E+03  0.12700000000E+03 0.  0.
<mgrwt>
<rscale>  0 0.30804402E+03</rscale>
<asrwt>0</asrwt>
<pdfrwt beam="1">  1        2 0.93287564E-01 0.30804402E+03</pdfrwt>
<pdfrwt beam="2">  1       -2 0.51897415E-02 0.30804402E+03</pdfrwt>
<totfact> 0.92236450E+03</totfact>
</mgrwt>
</event>
<event>
 4    1  0.1351183E-004  0.3150748E+03  0.7818608E-02  0.1077939E+00
          2   -1    0    0  501    0  0.00000000000E+00  0.00000000000E+00  0.82543480345E+03  0.82543480346E+03  0.25500000000E-02 0.  1.
         -2   -1    0    0    0  501 -0.00000000000E+00 -0.00000000000E+00 -0.30066614432E+02  0.30066614540E+02  0.25500000000E-02 0. -1.
    5000001    1    1    2    0    0  0.82590620018E+02 -0.42496502478E+02  0.37632731048E+03  0.40789509417E+03  0.12700000000E+03 0.  0.
   -5000001    1    1    2    0    0 -0.82590620018E+02  0.42496502478E+02  0.41904087854E+03  0.44760632383E+03  0.12700000000E+03 0.  0.
<mgrwt>
<rscale>  0 0.31507478E+03</rscale>
<asrwt>0</asrwt>
<pdfrwt beam="1">  1        2 0.11791926E+00 0.31507478E+03</pdfrwt>
<pdfrwt beam="2">  1       -2 0.42952305E-02 0.31507478E+03</pdfrwt>
<totfact> 0.92657197E+03</totfact>
</mgrwt>
</event>
<event>
 4    1  0.1351183E-004  0.4338001E+03  0.7818608E-02  0.1032666E+00
          2   -1    0    0  501    0  0.00000000000E+00  0.00000000000E+00  0.26199328239E+03  0.26199328240E+03  0.25500000000E-02 0. -1.
         -2   -1    0    0    0  501 -0.00000000000E+00 -0.00000000000E+00 -0.17956808881E+03  0.17956808883E+03  0.25500000000E-02 0.  1.
    5000001    1    1    2    0    0  0.11252774101E+03  0.37132160242E+01 -0.96260600495E+02  0.19511889626E+03  0.12700000000E+03 0.  0.
   -5000001    1    1    2    0    0 -0.11252774101E+03 -0.37132160242E+01  0.17868579407E+03  0.24644247497E+03  0.12700000000E+03 0.  0.
<mgrwt>
<rscale>  0 0.43380011E+03</rscale>
<asrwt>0</asrwt>
<pdfrwt beam="1">  1        2 0.37427612E-01 0.43380011E+03</pdfrwt>
<pdfrwt beam="2">  1       -2 0.25652584E-01 0.43380011E+03</pdfrwt>
<totfact> 0.18809909E+03</totfact>
</mgrwt>
</event>
<event>
 4    1  0.1351183E-004  0.5195901E+03  0.7818608E-02  0.1008788E+00
         -2   -1    0    0    0  501 -0.00000000000E+00  0.00000000000E+00  0.42229398051E+03  0.42229398052E+03  0.25500000000E-02 0. -1.
          2   -1    0    0  501    0  0.00000000000E+00 -0.00000000000E+00 -0.15982580676E+03  0.15982580678E+03  0.25500000000E-02 0.  1.
    5000001    1    1    2    0    0  0.10293608195E+03 -0.12020902527E+03 -0.50518856398E+02  0.20911050087E+03  0.12700000000E+03 0.  0.
   -5000001    1    1    2    0    0 -0.10293608195E+03  0.12020902527E+03  0.31298703015E+03  0.37300928643E+03  0.12700000000E+03 0.  0.
<mgrwt>
<rscale>  0 0.51959013E+03</rscale>
<asrwt>0</asrwt>
<pdfrwt beam="1">  1        2 0.22832258E-01 0.51959013E+03</pdfrwt>
<pdfrwt beam="2">  1       -2 0.60327711E-01 0.51959013E+03</pdfrwt>
<totfact> 0.62733356E+02</totfact>
</mgrwt>
</event>
<event>
 4    1  0.1351183E-004  0.3816810E+03  0.7818608E-02  0.1050314E+00
          2   -1    0    0  501    0  0.00000000000E+00  0.00000000000E+00  0.11551594051E+04  0.11551594051E+04  0.25500000000E-02 0.  1.
         -2   -1    0    0    0  501 -0.00000000000E+00 -0.00000000000E+00 -0.31528203097E+02  0.31528203200E+02  0.25500000000E-02 0. -1.
    5000001    1    1    2    0    0 -0.12135916047E+03  0.31098832661E+02  0.77259197982E+03  0.79292026744E+03  0.12700000000E+03 0.  0.
   -5000001    1    1    2    0    0  0.12135916047E+03 -0.31098832661E+02  0.35103922215E+03  0.39376734083E+03  0.12700000000E+03 0.  0.
<mgrwt>
<rscale>  0 0.38168102E+03</rscale>
<asrwt>0</asrwt>
<pdfrwt beam="1">  1        2 0.16502273E+00 0.38168102E+03</pdfrwt>
<pdfrwt beam="2">  1       -2 0.45040303E-02 0.38168102E+03</pdfrwt>
<totfact> 0.54761824E+03</totfact>
</mgrwt>
</event>
<event>
 4    1  0.1351183E-004  0.3289339E+03  0.7818608E-02  0.1071610E+00
          2   -1    0    0  501    0  0.00000000000E+00  0.00000000000E+00  0.18797507201E+04  0.18797507201E+04  0.25500000000E-02 0.  1.
         -2   -1    0    0    0  501 -0.00000000000E+00 -0.00000000000E+00 -0.14389878274E+02  0.14389878499E+02  0.25500000000E-02 0. -1.
    5000001    1    1    2    0    0  0.12151758765E+02 -0.81061727373E+02  0.55941578955E+03  0.57947708711E+03  0.12700000000E+03 0.  0.
   -5000001    1    1    2    0    0 -0.12151758765E+02  0.81061727373E+02  0.13059450523E+04  0.13146635115E+04  0.12700000000E+03 0.  0.
<mgrwt>
<rscale>  0 0.32893394E+03</rscale>
<asrwt>0</asrwt>
<pdfrwt beam="1">  1        2 0.26853570E+00 0.32893394E+03</pdfrwt>
<pdfrwt beam="2">  1       -2 0.20556978E-02 0.32893394E+03</pdfrwt>
<totfact> 0.75235391E+03</totfact>
</mgrwt>
</event>
<event>
 4    1  0.1351183E-004  0.3277951E+03  0.7818608E-02  0.1072117E+00
          2   -1    0    0  501    0  0.00000000000E+00  0.00000000000E+00  0.33204487808E+03  0.33204487809E+03  0.25500000000E-02 0.  1.
         -2   -1    0    0    0  501 -0.00000000000E+00 -0.00000000000E+00 -0.80899910088E+02  0.80899910128E+02  0.25500000000E-02 0. -1.
    5000001    1    1    2    0    0 -0.10279218751E+03  0.56169637379E+01  0.11090194186E+03  0.19755005645E+03  0.12700000000E+03 0.  0.
   -5000001    1    1    2    0    0  0.10279218751E+03 -0.56169637379E+01  0.14024302614E+03  0.21539473177E+03  0.12700000000E+03 0.  0.
<mgrwt>
<rscale>  0 0.32779506E+03</rscale>
<asrwt>0</asrwt>
<pdfrwt beam="1">  1        2 0.47434981E-01 0.32779506E+03</pdfrwt>
<pdfrwt beam="2">  1       -2 0.11557130E-01 0.32779506E+03</pdfrwt>
<totfact> 0.55839012E+03</totfact>
</mgrwt>
</event>
<event>
 4    1  0.1351183E-004  0.3548431E+03  0.7818608E-02  0.1060645E+00
         -2   -1    0    0    0  501 -0.00000000000E+00  0.00000000000E+00  0.30132668704E+02  0.30132668812E+02  0.25500000000E-02 0. -1.
          2   -1    0    0  501    0  0.00000000000E+00 -0.00000000000E+00 -0.10446606623E+04  0.10446606623E+04  0.25500000000E-02 0.  1.
    5000001    1    1    2    0    0  0.87061811057E+02  0.71552292647E+02 -0.66318523381E+03  0.68457515575E+03  0.12700000000E+03 0.  0.
   -5000001    1    1    2    0    0 -0.87061811057E+02 -0.71552292647E+02 -0.35134275975E+03  0.39021817532E+03  0.12700000000E+03 0.  0.
<mgrwt>
<rscale>  0 0.35484314E+03</rscale>
<asrwt>0</asrwt>
<pdfrwt beam="1">  1        2 0.14923721E+00 0.35484314E+03</pdfrwt>
<pdfrwt beam="2">  1       -2 0.43046676E-02 0.35484314E+03</pdfrwt>
<totfact> 0.67762729E+03</totfact>
</mgrwt>
</event>
<event>
 4    1  0.1351183E-004  0.5215718E+03  0.7818608E-02  0.1008297E+00
         -2   -1    0    0    0  501 -0.00000000000E+00  0.00000000000E+00  0.18691296016E+03  0.18691296018E+03  0.25500000000E-02 0. -1.
          2   -1    0    0  501    0  0.00000000000E+00 -0.00000000000E+00 -0.36385541466E+03  0.36385541467E+03  0.25500000000E-02 0.  1.
    5000001    1    1    2    0    0  0.10726499089E+03 -0.14895234541E+03 -0.23088235273E+03  0.32113585953E+03  0.12700000000E+03 0.  0.
   -5000001    1    1    2    0    0 -0.10726499089E+03  0.14895234541E+03  0.53939898230E+02  0.22963251532E+03  0.12700000000E+03 0.  0.
<mgrwt>
<rscale>  0 0.52157183E+03</rscale>
<asrwt>0</asrwt>
<pdfrwt beam="1">  1        2 0.51979345E-01 0.52157183E+03</pdfrwt>
<pdfrwt beam="2">  1       -2 0.26701852E-01 0.52157183E+03</pdfrwt>
<totfact> 0.12218223E+03</totfact>
</mgrwt>
</event>
<event>
 4    1  0.1351183E-004  0.3063557E+03  0.7818608E-02  0.1082106E+00
          2   -1    0    0  501    0  0.00000000000E+00  0.00000000000E+00  0.29350436012E+04  0.29350436012E+04  0.25500000000E-02 0.  1.
         -2   -1    0    0    0  501 -0.00000000000E+00 -0.00000000000E+00 -0.79942428290E+01  0.79942432357E+01  0.25500000000E-02 0. -1.
    5000001    1    1    2    0    0 -0.30637441067E+02 -0.38474912541E+02  0.21370483649E+04  0.21413835914E+04  0.12700000000E+03 0.  0.
   -5000001    1    1    2    0    0  0.30637441067E+02  0.38474912541E+02  0.79000099342E+03  0.80165425296E+03  0.12700000000E+03 0.  0.
<mgrwt>
<rscale>  0 0.30635569E+03</rscale>
<asrwt>0</asrwt>
<pdfrwt beam="1">  1        2 0.41929222E+00 0.30635569E+03</pdfrwt>
<pdfrwt beam="2">  1       -2 0.11420340E-02 0.30635569E+03</pdfrwt>
<totfact> 0.52738412E+03</totfact>
</mgrwt>
</event>
<event>
 4    1  0.1351183E-004  0.7903057E+03  0.7818608E-02  0.9574156E-01
         -2   -1    0    0    0  501 -0.00000000000E+00  0.00000000000E+00  0.99088530428E+02  0.99088530461E+02  0.25500000000E-02 0. -1.
          2   -1    0    0  501    0  0.00000000000E+00 -0.00000000000E+00 -0.15758210537E+04  0.15758210537E+04  0.25500000000E-02 0.  1.
    5000001    1    1    2    0    0  0.25222671990E+01  0.35352841117E+03 -0.47856086511E+03  0.60838984291E+03  0.12700000000E+03 0.  0.
   -5000001    1    1    2    0    0 -0.25222671990E+01 -0.35352841117E+03 -0.99817165818E+03  0.10665197413E+04  0.12700000000E+03 0.  0.
<mgrwt>
<rscale>  0 0.79030574E+03</rscale>
<asrwt>0</asrwt>
<pdfrwt beam="1">  1        2 0.22511728E+00 0.79030574E+03</pdfrwt>
<pdfrwt beam="2">  1       -2 0.14155505E-01 0.79030574E+03</pdfrwt>
<totfact> 0.51945884E+02</totfact>
</mgrwt>
</event>
<event>
 4    1  0.1351183E-004  0.3357930E+03  0.7818608E-02  0.1068602E+00
         -2   -1    0    0    0  501 -0.00000000000E+00  0.00000000000E+00  0.14883766632E+04  0.14883766632E+04  0.25500000000E-02 0. -1.
          2   -1    0    0  501    0  0.00000000000E+00 -0.00000000000E+00 -0.18939579909E+02  0.18939580080E+02  0.25500000000E-02 0.  1.
    5000001    1    1    2    0    0  0.78097480726E+02 -0.74858020654E+02  0.81956675165E+03  0.83637407908E+03  0.12700000000E+03 0.  0.
   -5000001    1    1    2    0    0 -0.78097480726E+02  0.74858020654E+02  0.64987033162E+03  0.67094216417E+03  0.12700000000E+03 0.  0.
<mgrwt>
<rscale>  0 0.33579297E+03</rscale>
<asrwt>0</asrwt>
<pdfrwt beam="1">  1        2 0.27056538E-02 0.33579297E+03</pdfrwt>
<pdfrwt beam="2">  1       -2 0.21262528E+00 0.33579297E+03</pdfrwt>
<totfact> 0.43507767E+02</totfact>
</mgrwt>
</event>
<event>
 4    1  0.1351183E-004  0.3656126E+03  0.7818608E-02  0.1056383E+00
          2   -1    0    0  501    0  0.00000000000E+00  0.00000000000E+00  0.93430709045E+03  0.93430709046E+03  0.25500000000E-02 0.  1.
         -2   -1    0    0    0  501 -0.00000000000E+00 -0.00000000000E+00 -0.35767834221E+02  0.35767834312E+02  0.25500000000E-02 0. -1.
    5000001    1    1    2    0    0 -0.10229024677E+03 -0.71006894757E+02  0.33720580545E+03  0.38123749673E+03  0.12700000000E+03 0.  0.
   -5000001    1    1    2    0    0  0.10229024677E+03  0.71006894757E+02  0.56133345078E+03  0.58883742804E+03  0.12700000000E+03 0.  0.
<mgrwt>
<rscale>  0 0.36561259E+03</rscale>
<asrwt>0</asrwt>
<pdfrwt beam="1">  1        2 0.13347245E+00 0.36561259E+03</pdfrwt>
<pdfrwt beam="2">  1       -2 0.51096901E-02 0.36561259E+03</pdfrwt>
<totfact> 0.60796513E+03</totfact>
</mgrwt>
</event>
<event>
 4    1  0.1351183E-004  0.3508527E+03  0.7818608E-02  0.1062266E+00
          2   -1    0    0  501    0  0.00000000000E+00  0.00000000000E+00  0.41536306482E+03  0.41536306483E+03  0.25500000000E-02 0.  1.
         -2   -1    0    0    0  501 -0.00000000000E+00 -0.00000000000E+00 -0.74090382126E+02  0.74090382170E+02  0.25500000000E-02 0. -1.
    5000001    1    1    2    0    0  0.71074736142E+02  0.86042703495E+02  0.23592722479E+03  0.29025096096E+03  0.12700000000E+03 0.  0.
   -5000001    1    1    2    0    0 -0.71074736142E+02 -0.86042703495E+02  0.10534545791E+03  0.19920248604E+03  0.12700000000E+03 0.  0.
<mgrwt>
<rscale>  0 0.35085272E+03</rscale>
<asrwt>0</asrwt>
<pdfrwt beam="1">  1        2 0.59337581E-01 0.35085272E+03</pdfrwt>
<pdfrwt beam="2">  1       -2 0.10584340E-01 0.35085272E+03</pdfrwt>
<totfact> 0.50533824E+03</totfact>
</mgrwt>
</event>
<event>
 4    1  0.1351183E-004  0.3601472E+03  0.7818608E-02  0.1058526E+00
          2   -1    0    0  501    0  0.00000000000E+00  0.00000000000E+00  0.18329648548E+03  0.18329648550E+03  0.25500000000E-02 0.  1.
         -2   -1    0    0    0  501 -0.00000000000E+00 -0.00000000000E+00 -0.17690736276E+03  0.17690736277E+03  0.25500000000E-02 0. -1.
    5000001    1    1    2    0    0  0.46329913925E+02  0.11339747684E+03 -0.32756180073E+02  0.17946424717E+03  0.12700000000E+03 0.  0.
   -5000001    1    1    2    0    0 -0.46329913925E+02 -0.11339747684E+03  0.39145302799E+02  0.18073960111E+03  0.12700000000E+03 0.  0.
<mgrwt>
<rscale>  0 0.36014718E+03</rscale>
<asrwt>0</asrwt>
<pdfrwt beam="1">  1        2 0.26185212E-01 0.36014718E+03</pdfrwt>
<pdfrwt beam="2">  1       -2 0.25272480E-01 0.36014718E+03</pdfrwt>
<totfact> 0.28613096E+03</totfact>
</mgrwt>
</event>
<event>
 4    1  0.1351183E-004  0.5730496E+03  0.7818608E-02  0.9962953E-01
         -2   -1    0    0    0  501 -0.00000000000E+00  0.00000000000E+00  0.17584592350E+03  0.17584592352E+03  0.25500000000E-02 0. -1.
          2   -1    0    0  501    0  0.00000000000E+00 -0.00000000000E+00 -0.46686584462E+03  0.46686584463E+03  0.25500000000E-02 0.  1.
    5000001    1    1    2    0    0 -0.18219489385E+03 -0.10490853771E+03 -0.31098027750E+03  0.39628085195E+03  0.12700000000E+03 0.  0.
   -5000001    1    1    2    0    0  0.18219489385E+03  0.10490853771E+03  0.19960356385E+02  0.24643091619E+03  0.12700000000E+03 0.  0.
<mgrwt>
<rscale>  0 0.57304958E+03</rscale>
<asrwt>0</asrwt>
<pdfrwt beam="1">  1        2 0.66695120E-01 0.57304958E+03</pdfrwt>
<pdfrwt beam="2">  1       -2 0.25120846E-01 0.57304958E+03</pdfrwt>
<totfact> 0.10334910E+03</totfact>
</mgrwt>
</event>
<event>
 4    1  0.1351183E-004  0.4084993E+03  0.7818608E-02  0.1040876E+00
          2   -1    0    0  501    0  0.00000000000E+00  0.00000000000E+00  0.93201528937E+03  0.93201528937E+03  0.25500000000E-02 0.  1.
         -2   -1    0    0    0  501 -0.00000000000E+00 -0.00000000000E+00 -0.44760972830E+02  0.44760972903E+02  0.25500000000E-02 0. -1.
    5000001    1    1    2    0    0 -0.63403622127E+02  0.13661289891E+03  0.31473180702E+03  0.37130609179E+03  0.12700000000E+03 0.  0.
   -5000001    1    1    2    0    0  0.63403622127E+02 -0.13661289891E+03  0.57252250952E+03  0.60547017049E+03  0.12700000000E+03 0.  0.
<mgrwt>
<rscale>  0 0.40849926E+03</rscale>
<asrwt>0</asrwt>
<pdfrwt beam="1">  1        2 0.13314504E+00 0.40849926E+03</pdfrwt>
<pdfrwt beam="2">  1       -2 0.63944248E-02 0.40849926E+03</pdfrwt>
<totfact> 0.43212848E+03</totfact>
</mgrwt>
</event>
<event>
 4    1  0.1351183E-004  0.4081843E+03  0.7818608E-02  0.1040982E+00
          2   -1    0    0  501    0  0.00000000000E+00  0.00000000000E+00  0.67787707327E+03  0.67787707327E+03  0.25500000000E-02 0.  1.
         -2   -1    0    0    0  501 -0.00000000000E+00 -0.00000000000E+00 -0.61447134243E+02  0.61447134296E+02  0.25500000000E-02 0. -1.
    5000001    1    1    2    0    0  0.12718441395E+03 -0.96036078633E+02  0.32853006876E+03  0.38660032285E+03  0.12700000000E+03 0.  0.
   -5000001    1    1    2    0    0 -0.12718441395E+03  0.96036078633E+02  0.28789987027E+03  0.35272388472E+03  0.12700000000E+03 0.  0.
<mgrwt>
<rscale>  0 0.40818429E+03</rscale>
<asrwt>0</asrwt>
<pdfrwt beam="1">  1        2 0.96839573E-01 0.40818429E+03</pdfrwt>
<pdfrwt beam="2">  1       -2 0.87781628E-02 0.40818429E+03</pdfrwt>
<totfact> 0.39212337E+03</totfact>
</mgrwt>
</event>
<event>
 4    1  0.1351183E-004  0.4965326E+03  0.7818608E-02  0.1014688E+00
         -2   -1    0    0    0  501 -0.00000000000E+00  0.00000000000E+00  0.12460596515E+03  0.12460596518E+03  0.25500000000E-02 0. -1.
          2   -1    0    0  501    0  0.00000000000E+00 -0.00000000000E+00 -0.49464859500E+03  0.49464859500E+03  0.25500000000E-02 0.  1.
    5000001    1    1    2    0    0 -0.21247432034E+02  0.21167404128E+03 -0.20473321445E+03  0.32140635062E+03  0.12700000000E+03 0.  0.
   -5000001    1    1    2    0    0  0.21247432034E+02 -0.21167404128E+03 -0.16530941540E+03  0.29784820956E+03  0.12700000000E+03 0.  0.
<mgrwt>
<rscale>  0 0.49653264E+03</rscale>
<asrwt>0</asrwt>
<pdfrwt beam="1">  1        2 0.70664084E-01 0.49653264E+03</pdfrwt>
<pdfrwt beam="2">  1       -2 0.17800852E-01 0.49653264E+03</pdfrwt>
<totfact> 0.17697507E+03</totfact>
</mgrwt>
</event>
<event>
 4    1  0.1351183E-004  0.4632839E+03  0.7818608E-02  0.1023833E+00
          2   -1    0    0  501    0  0.00000000000E+00  0.00000000000E+00  0.12935450840E+04  0.12935450840E+04  0.25500000000E-02 0.  1.
         -2   -1    0    0    0  501 -0.00000000000E+00 -0.00000000000E+00 -0.41481352440E+02  0.41481352519E+02  0.25500000000E-02 0. -1.
    5000001    1    1    2    0    0 -0.17729477317E+03 -0.68235078576E+02  0.73536556763E+03  0.77005258301E+03  0.12700000000E+03 0.  0.
   -5000001    1    1    2    0    0  0.17729477317E+03  0.68235078576E+02  0.51669816393E+03  0.56497385351E+03  0.12700000000E+03 0.  0.
<mgrwt>
<rscale>  0 0.46328393E+03</rscale>
<asrwt>0</asrwt>
<pdfrwt beam="1">  1        2 0.18479215E+00 0.46328393E+03</pdfrwt>
<pdfrwt beam="2">  1       -2 0.59259075E-02 0.46328393E+03</pdfrwt>
<totfact> 0.30164982E+03</totfact>
</mgrwt>
</event>
<event>
 4    1  0.1351183E-004  0.6918707E+03  0.7818608E-02  0.9731236E-01
          2   -1    0    0  501    0  0.00000000000E+00  0.00000000000E+00  0.15397576746E+03  0.15397576748E+03  0.25500000000E-02 0.  1.
         -2   -1    0    0    0  501 -0.00000000000E+00 -0.00000000000E+00 -0.77720843650E+03  0.77720843651E+03  0.25500000000E-02 0. -1.
    5000001    1    1    2    0    0 -0.15463791983E+03 -0.22659837724E+03 -0.53796085254E+03  0.61708232002E+03  0.12700000000E+03 0.  0.
   -5000001    1    1    2    0    0  0.15463791983E+03  0.22659837724E+03 -0.85271816502E+02  0.31410188396E+03  0.12700000000E+03 0.  0.
<mgrwt>
<rscale>  0 0.69187070E+03</rscale>
<asrwt>0</asrwt>
<pdfrwt beam="1">  1        2 0.21996539E-01 0.69187070E+03</pdfrwt>
<pdfrwt beam="2">  1       -2 0.11102978E+00 0.69187070E+03</pdfrwt>
<totfact> 0.16501999E+02</totfact>
</mgrwt>
</event>
<event>
 4    1  0.1351183E-004  0.3255636E+03  0.7818608E-02  0.1073117E+00
         -2   -1    0    0    0  501 -0.00000000000E+00  0.00000000000E+00  0.37341693511E+03  0.37341693512E+03  0.25500000000E-02 0. -1.
          2   -1    0    0  501    0  0.00000000000E+00 -0.00000000000E+00 -0.70960647047E+02  0.70960647093E+02  0.25500000000E-02 0.  1.
    5000001    1    1    2    0    0  0.95967319328E+02  0.69609234451E+01  0.19671856194E+03  0.25315089067E+03  0.12700000000E+03 0.  0.
   -5000001    1    1    2    0    0 -0.95967319328E+02 -0.69609234451E+01  0.10573772613E+03  0.19122669155E+03  0.12700000000E+03 0.  0.
<mgrwt>
<rscale>  0 0.32556356E+03</rscale>
<asrwt>0</asrwt>
<pdfrwt beam="1">  1        2 0.10137235E-01 0.32556356E+03</pdfrwt>
<pdfrwt beam="2">  1       -2 0.53345278E-01 0.32556356E+03</pdfrwt>
<totfact> 0.21300308E+03</totfact>
</mgrwt>
</event>
<event>
 4    1  0.1351183E-004  0.4380272E+03  0.7818608E-02  0.1031354E+00
          2   -1    0    0  501    0  0.00000000000E+00  0.00000000000E+00  0.14315664011E+04  0.14315664011E+04  0.25500000000E-02 0.  1.
         -2   -1    0    0    0  501 -0.00000000000E+00 -0.00000000000E+00 -0.33506616862E+02  0.33506616959E+02  0.25500000000E-02 0. -1.
    5000001    1    1    2    0    0  0.49893552831E+00 -0.44744724134E+02  0.12129888102E+03  0.18123122747E+03  0.12700000000E+03 0.  0.
   -5000001    1    1    2    0    0 -0.49893552831E+00  0.44744724134E+02  0.12767609032E+04  0.12838417906E+04  0.12700000000E+03 0.  0.
<mgrwt>
<rscale>  0 0.43802715E+03</rscale>
<asrwt>0</asrwt>
<pdfrwt beam="1">  1        2 0.20450948E+00 0.43802715E+03</pdfrwt>
<pdfrwt beam="2">  1       -2 0.47866598E-02 0.43802715E+03</pdfrwt>
<totfact> 0.35456778E+03</totfact>
</mgrwt>
</event>
<event>
 4    1  0.1351183E-004  0.6305504E+03  0.7818608E-02  0.9843975E-01
          2   -1    0    0  501    0  0.00000000000E+00  0.00000000000E+00  0.77466171959E+03  0.77466171960E+03  0.25500000000E-02 0.  1.
         -2   -1    0    0    0  501 -0.00000000000E+00 -0.00000000000E+00 -0.12831205584E+03  0.12831205587E+03  0.25500000000E-02 0. -1.
    5000001    1    1    2    0    0 -0.21079644620E+03 -0.16729832783E+03  0.17403918397E+03  0.34473541997E+03  0.12700000000E+03 0.  0.
   -5000001    1    1    2    0    0  0.21079644620E+03  0.16729832783E+03  0.47231047978E+03  0.55823835549E+03  0.12700000000E+03 0.  0.
<mgrwt>
<rscale>  0 0.63055036E+03</rscale>
<asrwt>0</asrwt>
<pdfrwt beam="1">  1        2 0.11066596E+00 0.63055036E+03</pdfrwt>
<pdfrwt beam="2">  1       -2 0.18330293E-01 0.63055036E+03</pdfrwt>
<totfact> 0.98710136E+02</totfact>
</mgrwt>
</event>
<event>
 4    1  0.1351183E-004  0.3556826E+03  0.7818608E-02  0.1060307E+00
          2   -1    0    0  501    0  0.00000000000E+00  0.00000000000E+00  0.11517271269E+04  0.11517271269E+04  0.25500000000E-02 0.  1.
         -2   -1    0    0    0  501 -0.00000000000E+00 -0.00000000000E+00 -0.27460949421E+02  0.27460949539E+02  0.25500000000E-02 0. -1.
    5000001    1    1    2    0    0 -0.86599907767E+02 -0.56702850302E+02  0.33283240628E+03  0.37097327118E+03  0.12700000000E+03 0.  0.
   -5000001    1    1    2    0    0  0.86599907767E+02  0.56702850302E+02  0.79143377124E+03  0.80821480531E+03  0.12700000000E+03 0.  0.
<mgrwt>
<rscale>  0 0.35568256E+03</rscale>
<asrwt>0</asrwt>
<pdfrwt beam="1">  1        2 0.16453244E+00 0.35568256E+03</pdfrwt>
<pdfrwt beam="2">  1       -2 0.39229929E-02 0.35568256E+03</pdfrwt>
<totfact> 0.67781172E+03</totfact>
</mgrwt>
</event>
<event>
 4    1  0.1351183E-004  0.5630965E+03  0.7818608E-02  0.9985073E-01
         -2   -1    0    0    0  501 -0.00000000000E+00  0.00000000000E+00  0.33285746328E+03  0.33285746329E+03  0.25500000000E-02 0.  1.
          2   -1    0    0  501    0  0.00000000000E+00 -0.00000000000E+00 -0.23814821832E+03  0.23814821833E+03  0.25500000000E-02 0. -1.
    5000001    1    1    2    0    0 -0.80849613583E+02 -0.19509812460E+03 -0.90721323654E+02  0.26260102210E+03  0.12700000000E+03 0.  0.
   -5000001    1    1    2    0    0  0.80849613583E+02  0.19509812460E+03  0.18543056861E+03  0.30840465952E+03  0.12700000000E+03 0.  0.
<mgrwt>
<rscale>  0 0.56309648E+03</rscale>
<asrwt>0</asrwt>
<pdfrwt beam="1">  1        2 0.34021174E-01 0.56309648E+03</pdfrwt>
<pdfrwt beam="2">  1       -2 0.47551066E-01 0.56309648E+03</pdfrwt>
<totfact> 0.65122543E+02</totfact>
</mgrwt>
</event>
<event>
 4    1  0.1351183E-004  0.3526773E+03  0.7818608E-02  0.1061522E+00
         -2   -1    0    0    0  501 -0.00000000000E+00  0.00000000000E+00  0.61743432464E+02  0.61743432517E+02  0.25500000000E-02 0. -1.
          2   -1    0    0  501    0  0.00000000000E+00 -0.00000000000E+00 -0.50362150708E+03  0.50362150709E+03  0.25500000000E-02 0.  1.
    5000001    1    1    2    0    0 -0.10419220333E+03 -0.64094876579E+02 -0.22329073470E+03  0.28452051005E+03  0.12700000000E+03 0.  0.
   -5000001    1    1    2    0    0  0.10419220333E+03  0.64094876579E+02 -0.21858733992E+03  0.28084442955E+03  0.12700000000E+03 0.  0.
<mgrwt>
<rscale>  0 0.35267731E+03</rscale>
<asrwt>0</asrwt>
<pdfrwt beam="1">  1        2 0.71945927E-01 0.35267731E+03</pdfrwt>
<pdfrwt beam="2">  1       -2 0.88204907E-02 0.35267731E+03</pdfrwt>
<totfact> 0.54641248E+03</totfact>
</mgrwt>
</event>
<event>
 4    1  0.1351183E-004  0.5395917E+03  0.7818608E-02  0.1003932E+00
          2   -1    0    0  501    0  0.00000000000E+00  0.00000000000E+00  0.12361694494E+04  0.12361694494E+04  0.25500000000E-02 0.  1.
         -2   -1    0    0    0  501 -0.00000000000E+00 -0.00000000000E+00 -0.58883345441E+02  0.58883345497E+02  0.25500000000E-02 0. -1.
    5000001    1    1    2    0    0 -0.21877215053E+03 -0.79528078203E+02  0.70804031401E+03  0.75606617127E+03  0.12700000000E+03 0.  0.
   -5000001    1    1    2    0    0  0.21877215053E+03  0.79528078203E+02  0.46924578993E+03  0.53898662361E+03  0.12700000000E+03 0.  0.
<mgrwt>
<rscale>  0 0.53959167E+03</rscale>
<asrwt>0</asrwt>
<pdfrwt beam="1">  1        2 0.17659563E+00 0.53959167E+03</pdfrwt>
<pdfrwt beam="2">  1       -2 0.84119066E-02 0.53959167E+03</pdfrwt>
<totfact> 0.18657239E+03</totfact>
</mgrwt>
</event>
<event>
 4    1  0.1351183E-004  0.4080210E+03  0.7818608E-02  0.1041037E+00
          2   -1    0    0  501    0  0.00000000000E+00  0.00000000000E+00  0.17710641815E+03  0.17710641817E+03  0.25500000000E-02 0.  1.
         -2   -1    0    0    0  501 -0.00000000000E+00 -0.00000000000E+00 -0.23500153754E+03  0.23500153755E+03  0.25500000000E-02 0. -1.
    5000001    1    1    2    0    0 -0.11792777857E+03  0.45178012213E+02  0.69720601500E+02  0.19219254933E+03  0.12700000000E+03 0.  0.
   -5000001    1    1    2    0    0  0.11792777857E+03 -0.45178012213E+02 -0.12761572089E+03  0.21991540638E+03  0.12700000000E+03 0.  0.
<mgrwt>
<rscale>  0 0.40802098E+03</rscale>
<asrwt>0</asrwt>
<pdfrwt beam="1">  1        2 0.25300917E-01 0.40802098E+03</pdfrwt>
<pdfrwt beam="2">  1       -2 0.33571648E-01 0.40802098E+03</pdfrwt>
<totfact> 0.17767619E+03</totfact>
</mgrwt>
</event>
<event>
 4    1  0.1351183E-004  0.4046891E+03  0.7818608E-02  0.1042168E+00
          2   -1    0    0  501    0  0.00000000000E+00  0.00000000000E+00  0.16479581235E+04  0.16479581235E+04  0.25500000000E-02 0. -1.
         -2   -1    0    0    0  501 -0.00000000000E+00 -0.00000000000E+00 -0.24844872340E+02  0.24844872471E+02  0.25500000000E-02 0.  1.
    5000001    1    1    2    0    0 -0.57922137422E+02 -0.13623586951E+03  0.10341215204E+04  0.10523552181E+04  0.12700000000E+03 0.  0.
   -5000001    1    1    2    0    0  0.57922137422E+02  0.13623586951E+03  0.58899173081E+03  0.62044777791E+03  0.12700000000E+03 0.  0.
<mgrwt>
<rscale>  0 0.40468906E+03</rscale>
<asrwt>0</asrwt>
<pdfrwt beam="1">  1        2 0.23542256E+00 0.40468906E+03</pdfrwt>
<pdfrwt beam="2">  1       -2 0.35492679E-02 0.40468906E+03</pdfrwt>
<totfact> 0.43359749E+03</totfact>
</mgrwt>
</event>
<event>
 4    1  0.1351183E-004  0.4442193E+03  0.7818608E-02  0.1029460E+00
         -2   -1    0    0    0  501 -0.00000000000E+00  0.00000000000E+00  0.93956565113E+02  0.93956565148E+02  0.25500000000E-02 0. -1.
          2   -1    0    0  501    0  0.00000000000E+00 -0.00000000000E+00 -0.52505864235E+03  0.52505864236E+03  0.25500000000E-02 0.  1.
    5000001    1    1    2    0    0 -0.17821348397E+03  0.23702611079E+02 -0.17417008971E+03  0.28068858151E+03  0.12700000000E+03 0.  0.
   -5000001    1    1    2    0    0  0.17821348397E+03 -0.23702611079E+02 -0.25693198753E+03  0.33832662600E+03  0.12700000000E+03 0.  0.
<mgrwt>
<rscale>  0 0.44421934E+03</rscale>
<asrwt>0</asrwt>
<pdfrwt beam="1">  1        2 0.75008376E-01 0.44421934E+03</pdfrwt>
<pdfrwt beam="2">  1       -2 0.13422367E-01 0.44421934E+03</pdfrwt>
<totfact> 0.26556929E+03</totfact>
</mgrwt>
</event>
<event>
 4    1  0.1351183E-004  0.4545321E+03  0.7818608E-02  0.1026379E+00
         -2   -1    0    0    0  501 -0.00000000000E+00  0.00000000000E+00  0.25931967828E+02  0.25931967954E+02  0.25500000000E-02 0. -1.
          2   -1    0    0  501    0  0.00000000000E+00 -0.00000000000E+00 -0.19917442108E+04  0.19917442108E+04  0.25500000000E-02 0.  1.
    5000001    1    1    2    0    0 -0.10504012811E+03  0.15646471955E+03 -0.97184419357E+03  0.99806050596E+03  0.12700000000E+03 0.  0.
   -5000001    1    1    2    0    0  0.10504012811E+03 -0.15646471955E+03 -0.99396804937E+03  0.10196156728E+04  0.12700000000E+03 0.  0.
<mgrwt>
<rscale>  0 0.45453205E+03</rscale>
<asrwt>0</asrwt>
<pdfrwt beam="1">  1        2 0.28453479E+00 0.45453205E+03</pdfrwt>
<pdfrwt beam="2">  1       -2 0.37045681E-02 0.45453205E+03</pdfrwt>
<totfact> 0.27349836E+03</totfact>
</mgrwt>
</event>
<event>
 4    1  0.1351183E-004  0.4967355E+03  0.7818608E-02  0.1014635E+00
         -2   -1    0    0    0  501 -0.00000000000E+00  0.00000000000E+00  0.88463780737E+02  0.88463780773E+02  0.25500000000E-02 0. -1.
          2   -1    0    0  501    0  0.00000000000E+00 -0.00000000000E+00 -0.69730845915E+03  0.69730845916E+03  0.25500000000E-02 0.  1.
    5000001    1    1    2    0    0 -0.76134487051E+02 -0.19865193655E+03 -0.33175216290E+03  0.41406225329E+03  0.12700000000E+03 0.  0.
   -5000001    1    1    2    0    0  0.76134487051E+02  0.19865193655E+03 -0.27709251551E+03  0.37170998664E+03  0.12700000000E+03 0.  0.
<mgrwt>
<rscale>  0 0.49673551E+03</rscale>
<asrwt>0</asrwt>
<pdfrwt beam="1">  1        2 0.99615491E-01 0.49673551E+03</pdfrwt>
<pdfrwt beam="2">  1       -2 0.12637683E-01 0.49673551E+03</pdfrwt>
<totfact> 0.21060493E+03</totfact>
</mgrwt>
</event>
<event>
 4    1  0.1351183E-004  0.3787768E+03  0.7818608E-02  0.1051387E+00
         -2   -1    0    0    0  501 -0.00000000000E+00  0.00000000000E+00  0.25979550493E+02  0.25979550618E+02  0.25500000000E-02 0. -1.
          2   -1    0    0  501    0  0.00000000000E+00 -0.00000000000E+00 -0.13806229437E+04  0.13806229437E+04  0.25500000000E-02 0.  1.
    5000001    1    1    2    0    0  0.22634976792E+02  0.13533172388E+03 -0.56517859433E+03  0.59530064770E+03  0.12700000000E+03 0.  0.
   -5000001    1    1    2    0    0 -0.22634976792E+02 -0.13533172388E+03 -0.78946479888E+03  0.81130184662E+03  0.12700000000E+03 0.  0.
<mgrwt>
<rscale>  0 0.37877679E+03</rscale>
<asrwt>0</asrwt>
<pdfrwt beam="1">  1        2 0.19723180E+00 0.37877679E+03</pdfrwt>
<pdfrwt beam="2">  1       -2 0.37113652E-02 0.37877679E+03</pdfrwt>
<totfact> 0.55528370E+03</totfact>
</mgrwt>
</event>
<event>
 4    1  0.1351183E-004  0.5125003E+03  0.7818608E-02  0.1010567E+00
         -2   -1    0    0    0  501 -0.00000000000E+00  0.00000000000E+00  0.18617847156E+02  0.18617847330E+02  0.25500000000E-02 0. -1.
          2   -1    0    0  501    0  0.00000000000E+00 -0.00000000000E+00 -0.35269463527E+04  0.35269463527E+04  0.25500000000E-02 0.  1.
    5000001    1    1    2    0    0  0.18485149417E+03 -0.38449102682E+02 -0.25694152759E+04  0.25794713156E+04  0.12700000000E+03 0.  0.
   -5000001    1    1    2    0    0 -0.18485149417E+03  0.38449102682E+02 -0.93891322967E+03  0.96609288438E+03  0.12700000000E+03 0.  0.
<mgrwt>
<rscale>  0 0.51250034E+03</rscale>
<asrwt>0</asrwt>
<pdfrwt beam="1">  1        2 0.50384905E+00 0.51250034E+03</pdfrwt>
<pdfrwt beam="2">  1       -2 0.26596947E-02 0.51250034E+03</pdfrwt>
<totfact> 0.68937127E+02</totfact>
</mgrwt>
</event>
<event>
 4    1  0.1351183E-004  0.3490368E+03  0.7818608E-02  0.1063011E+00
         -2   -1    0    0    0  501 -0.00000000000E+00  0.00000000000E+00  0.42332754982E+02  0.42332755059E+02  0.25500000000E-02 0. -1.
          2   -1    0    0  501    0  0.00000000000E+00 -0.00000000000E+00 -0.71945860020E+03  0.71945860020E+03  0.25500000000E-02 0.  1.
    5000001    1    1    2    0    0 -0.11336176252E+01  0.11966571085E+03 -0.33299966700E+03  0.37595072239E+03  0.12700000000E+03 0.  0.
   -5000001    1    1    2    0    0  0.11336176252E+01 -0.11966571085E+03 -0.34412617821E+03  0.38584063287E+03  0.12700000000E+03 0.  0.
<mgrwt>
<rscale>  0 0.34903676E+03</rscale>
<asrwt>0</asrwt>
<pdfrwt beam="1">  1        2 0.10277979E+00 0.34903676E+03</pdfrwt>
<pdfrwt beam="2">  1       -2 0.60475369E-02 0.34903676E+03</pdfrwt>
<totfact> 0.65230454E+03</totfact>
</mgrwt>
</event>
<event>
 4    1  0.1351183E-004  0.3356527E+03  0.7818608E-02  0.1068663E+00
          2   -1    0    0  501    0  0.00000000000E+00  0.00000000000E+00  0.15181287702E+04  0.15181287702E+04  0.25500000000E-02 0.  1.
         -2   -1    0    0    0  501 -0.00000000000E+00 -0.00000000000E+00 -0.18552894178E+02  0.18552894353E+02  0.25500000000E-02 0. -1.
    5000001    1    1    2    0    0  0.84931112896E+02 -0.48790843516E+02  0.97606549509E+03  0.98915453346E+03  0.12700000000E+03 0.  0.
   -5000001    1    1    2    0    0 -0.84931112896E+02  0.48790843516E+02  0.52351038096E+03  0.54752713112E+03  0.12700000000E+03 0.  0.
<mgrwt>
<rscale>  0 0.33565269E+03</rscale>
<asrwt>0</asrwt>
<pdfrwt beam="1">  1        2 0.21687551E+00 0.33565269E+03</pdfrwt>
<pdfrwt beam="2">  1       -2 0.26504138E-02 0.33565269E+03</pdfrwt>
<totfact> 0.78102355E+03</totfact>
</mgrwt>
</event>
<event>
 4    1  0.1351183E-004  0.6665205E+03  0.7818608E-02  0.9776264E-01
          2   -1    0    0  501    0  0.00000000000E+00  0.00000000000E+00  0.25068710138E+04  0.25068710138E+04  0.25500000000E-02 0.  1.
         -2   -1    0    0    0  501 -0.00000000000E+00 -0.00000000000E+00 -0.44303197346E+02  0.44303197419E+02  0.25500000000E-02 0. -1.
    5000001    1    1    2    0    0  0.29388517998E+03 -0.81196933989E+02  0.14012552364E+04  0.14396550554E+04  0.12700000000E+03 0.  0.
   -5000001    1    1    2    0    0 -0.29388517998E+03  0.81196933989E+02  0.10613125801E+04  0.11115191558E+04  0.12700000000E+03 0.  0.
<mgrwt>
<rscale>  0 0.66652052E+03</rscale>
<asrwt>0</asrwt>
<pdfrwt beam="1">  1        2 0.35812445E+00 0.66652052E+03</pdfrwt>
<pdfrwt beam="2">  1       -2 0.63290279E-02 0.66652052E+03</pdfrwt>
<totfact> 0.64857743E+02</totfact>
</mgrwt>
</event>
<event>
 4    1  0.1351183E-004  0.3618785E+03  0.7818608E-02  0.1057843E+00
         -2   -1    0    0    0  501 -0.00000000000E+00  0.00000000000E+00  0.24203374383E+02  0.24203374517E+02  0.25500000000E-02 0. -1.
          2   -1    0    0  501    0  0.00000000000E+00 -0.00000000000E+00 -0.13526627646E+04  0.13526627646E+04  0.25500000000E-02 0.  1.
    5000001    1    1    2    0    0 -0.43729056471E+02  0.78987950650E+02 -0.31430047512E+03  0.35080637877E+03  0.12700000000E+03 0.  0.
   -5000001    1    1    2    0    0  0.43729056471E+02 -0.78987950650E+02 -0.10141589151E+04  0.10260597603E+04  0.12700000000E+03 0.  0.
<mgrwt>
<rscale>  0 0.36187845E+03</rscale>
<asrwt>0</asrwt>
<pdfrwt beam="1">  1        2 0.19323749E+00 0.36187845E+03</pdfrwt>
<pdfrwt beam="2">  1       -2 0.34576258E-02 0.36187845E+03</pdfrwt>
<totfact> 0.63889287E+03</totfact>
</mgrwt>
</event>
<event>
 4    1  0.1351183E-004  0.4326145E+03  0.7818608E-02  0.1033037E+00
         -2   -1    0    0    0  501 -0.00000000000E+00  0.00000000000E+00  0.18024639363E+02  0.18024639543E+02  0.25500000000E-02 0. -1.
          2   -1    0    0  501    0  0.00000000000E+00 -0.00000000000E+00 -0.25958253997E+04  0.25958253997E+04  0.25500000000E-02 0.  1.
    5000001    1    1    2    0    0 -0.71459850805E+02  0.15970234507E+03 -0.13309638867E+04  0.13484084014E+04  0.12700000000E+03 0.  0.
   -5000001    1    1    2    0    0  0.71459850805E+02 -0.15970234507E+03 -0.12468368736E+04  0.12654416378E+04  0.12700000000E+03 0.  0.
<mgrwt>
<rscale>  0 0.43261446E+03</rscale>
<asrwt>0</asrwt>
<pdfrwt beam="1">  1        2 0.37083196E+00 0.43261446E+03</pdfrwt>
<pdfrwt beam="2">  1       -2 0.25749501E-02 0.43261446E+03</pdfrwt>
<totfact> 0.23596452E+03</totfact>
</mgrwt>
</event>
<event>
 4    1  0.1351183E-004  0.5241061E+03  0.7818608E-02  0.1007672E+00
          2   -1    0    0  501    0  0.00000000000E+00  0.00000000000E+00  0.78743328629E+02  0.78743328671E+02  0.25500000000E-02 0.  1.
         -2   -1    0    0    0  501 -0.00000000000E+00 -0.00000000000E+00 -0.87209670501E+03  0.87209670502E+03  0.25500000000E-02 0. -1.
    5000001    1    1    2    0    0 -0.18902718223E+03 -0.28287112266E+02 -0.62623994735E+03  0.66696094938E+03  0.12700000000E+03 0.  0.
   -5000001    1    1    2    0    0  0.18902718223E+03  0.28287112266E+02 -0.16711342903E+03  0.28387908430E+03  0.12700000000E+03 0.  0.
<mgrwt>
<rscale>  0 0.52410609E+03</rscale>
<asrwt>0</asrwt>
<pdfrwt beam="1">  1        2 0.11249047E-01 0.52410609E+03</pdfrwt>
<pdfrwt beam="2">  1       -2 0.12458524E+00 0.52410609E+03</pdfrwt>
<totfact> 0.28060901E+02</totfact>
</mgrwt>
</event>
<event>
 4    1  0.1351183E-004  0.2954711E+03  0.7818608E-02  0.1087527E+00
         -2   -1    0    0    0  501 -0.00000000000E+00  0.00000000000E+00  0.97691385404E+02  0.97691385437E+02  0.25500000000E-02 0. -1.
          2   -1    0    0  501    0  0.00000000000E+00 -0.00000000000E+00 -0.22341580571E+03  0.22341580573E+03  0.25500000000E-02 0.  1.
    5000001    1    1    2    0    0 -0.23044015625E+02 -0.70656846362E+02 -0.48552257236E+02  0.15495076081E+03  0.12700000000E+03 0.  0.
   -5000001    1    1    2    0    0  0.23044015625E+02  0.70656846362E+02 -0.77172163075E+02  0.16615643035E+03  0.12700000000E+03 0.  0.
<mgrwt>
<rscale>  0 0.29547115E+03</rscale>
<asrwt>0</asrwt>
<pdfrwt beam="1">  1        2 0.31916543E-01 0.29547115E+03</pdfrwt>
<pdfrwt beam="2">  1       -2 0.13955912E-01 0.29547115E+03</pdfrwt>
<totfact> 0.62929342E+03</totfact>
</mgrwt>
</event>
<event>
 4    1  0.1351183E-004  0.4774487E+03  0.7818608E-02  0.1019839E+00
         -2   -1    0    0    0  501 -0.00000000000E+00  0.00000000000E+00  0.72272629007E+02  0.72272629052E+02  0.25500000000E-02 0. -1.
          2   -1    0    0  501    0  0.00000000000E+00 -0.00000000000E+00 -0.78853256877E+03  0.78853256878E+03  0.25500000000E-02 0.  1.
    5000001    1    1    2    0    0  0.46861781529E+02  0.19636793029E+03 -0.37651020787E+03  0.44569645191E+03  0.12700000000E+03 0.  0.
   -5000001    1    1    2    0    0 -0.46861781529E+02 -0.19636793029E+03 -0.33974973189E+03  0.41510874591E+03  0.12700000000E+03 0.  0.
<mgrwt>
<rscale>  0 0.47744873E+03</rscale>
<asrwt>0</asrwt>
<pdfrwt beam="1">  1        2 0.11264750E+00 0.47744873E+03</pdfrwt>
<pdfrwt beam="2">  1       -2 0.10324662E-01 0.47744873E+03</pdfrwt>
<totfact> 0.25153148E+03</totfact>
</mgrwt>
</event>
<event>
 4    1  0.1351183E-004  0.3022239E+03  0.7818608E-02  0.1084134E+00
         -2   -1    0    0    0  501 -0.00000000000E+00  0.00000000000E+00  0.12341732904E+02  0.12341733167E+02  0.25500000000E-02 0. -1.
          2   -1    0    0  501    0  0.00000000000E+00 -0.00000000000E+00 -0.18502116632E+04  0.18502116632E+04  0.25500000000E-02 0.  1.
    5000001    1    1    2    0    0 -0.24952309870E+02 -0.75057135272E+02 -0.10496140812E+04  0.10602239909E+04  0.12700000000E+03 0.  0.
   -5000001    1    1    2    0    0  0.24952309870E+02  0.75057135272E+02 -0.78825584905E+03  0.80232940548E+03  0.12700000000E+03 0.  0.
<mgrwt>
<rscale>  0 0.30222388E+03</rscale>
<asrwt>0</asrwt>
<pdfrwt beam="1">  1        2 0.26431578E+00 0.30222388E+03</pdfrwt>
<pdfrwt beam="2">  1       -2 0.17631059E-02 0.30222388E+03</pdfrwt>
<totfact> 0.97477938E+03</totfact>
</mgrwt>
</event>
<event>
 4    1  0.1351183E-004  0.3496550E+03  0.7818608E-02  0.1062757E+00
          2   -1    0    0  501    0  0.00000000000E+00  0.00000000000E+00  0.16258715620E+03  0.16258715622E+03  0.25500000000E-02 0.  1.
         -2   -1    0    0    0  501 -0.00000000000E+00 -0.00000000000E+00 -0.18798931475E+03  0.18798931476E+03  0.25500000000E-02 0. -1.
    5000001    1    1    2    0    0 -0.10304711263E+03  0.14212595493E+02  0.47581771790E+02  0.17092024543E+03  0.12700000000E+03 0.  0.
   -5000001    1    1    2    0    0  0.10304711263E+03 -0.14212595493E+02 -0.72983930335E+02  0.17965622555E+03  0.12700000000E+03 0.  0.
<mgrwt>
<rscale>  0 0.34965496E+03</rscale>
<asrwt>0</asrwt>
<pdfrwt beam="1">  1        2 0.23226737E-01 0.34965496E+03</pdfrwt>
<pdfrwt beam="2">  1       -2 0.26855616E-01 0.34965496E+03</pdfrwt>
<totfact> 0.29370693E+03</totfact>
</mgrwt>
</event>
<event>
 4    1  0.1351183E-004  0.2742929E+03  0.7818608E-02  0.1098848E+00
          2   -1    0    0  501    0  0.00000000000E+00  0.00000000000E+00  0.88047810893E+02  0.88047810930E+02  0.25500000000E-02 0.  1.
         -2   -1    0    0    0  501 -0.00000000000E+00 -0.00000000000E+00 -0.21362422383E+03  0.21362422385E+03  0.25500000000E-02 0. -1.
    5000001    1    1    2    0    0 -0.40585378370E+02 -0.22712486991E+02 -0.87798236119E+02  0.16124689228E+03  0.12700000000E+03 0.  0.
   -5000001    1    1    2    0    0  0.40585378370E+02  0.22712486991E+02 -0.37778176819E+02  0.14042514250E+03  0.12700000000E+03 0.  0.
<mgrwt>
<rscale>  0 0.27429287E+03</rscale>
<asrwt>0</asrwt>
<pdfrwt beam="1">  1        2 0.12578259E-01 0.27429287E+03</pdfrwt>
<pdfrwt beam="2">  1       -2 0.30517746E-01 0.27429287E+03</pdfrwt>
<totfact> 0.47492950E+03</totfact>
</mgrwt>
</event>
<event>
 4    1  0.1351183E-004  0.2888658E+03  0.7818608E-02  0.1090943E+00
         -2   -1    0    0    0  501 -0.00000000000E+00  0.00000000000E+00  0.14543620380E+02  0.14543620603E+02  0.25500000000E-02 0. -1.
          2   -1    0    0  501    0  0.00000000000E+00 -0.00000000000E+00 -0.14343653003E+04  0.14343653003E+04  0.25500000000E-02 0.  1.
    5000001    1    1    2    0    0  0.44050368696E+02 -0.51640462157E+02 -0.76592072649E+03  0.77933993327E+03  0.12700000000E+03 0.  0.
   -5000001    1    1    2    0    0 -0.44050368696E+02  0.51640462157E+02 -0.65390095344E+03  0.66956898765E+03  0.12700000000E+03 0.  0.
<mgrwt>
<rscale>  0 0.28886581E+03</rscale>
<asrwt>0</asrwt>
<pdfrwt beam="1">  1        2 0.20490924E+00 0.28886581E+03</pdfrwt>
<pdfrwt beam="2">  1       -2 0.20776610E-02 0.28886581E+03</pdfrwt>
<totfact> 0.12326087E+04</totfact>
</mgrwt>
</event>
<event>
 4    1  0.1351183E-004  0.4573432E+03  0.7818608E-02  0.1025555E+00
          2   -1    0    0  501    0  0.00000000000E+00  0.00000000000E+00  0.47648410831E+03  0.47648410832E+03  0.25500000000E-02 0.  1.
         -2   -1    0    0    0  501 -0.00000000000E+00 -0.00000000000E+00 -0.10974280780E+03  0.10974280783E+03  0.25500000000E-02 0. -1.
    5000001    1    1    2    0    0 -0.35070042680E+02 -0.16966980014E+03  0.82898076729E+02  0.23025820311E+03  0.12700000000E+03 0.  0.
   -5000001    1    1    2    0    0  0.35070042680E+02  0.16966980014E+03  0.28384322378E+03  0.35596871304E+03  0.12700000000E+03 0.  0.
<mgrwt>
<rscale>  0 0.45734321E+03</rscale>
<asrwt>0</asrwt>
<pdfrwt beam="1">  1        2 0.68069160E-01 0.45734321E+03</pdfrwt>
<pdfrwt beam="2">  1       -2 0.15677544E-01 0.45734321E+03</pdfrwt>
<totfact> 0.22877737E+03</totfact>
</mgrwt>
</event>
<event>
 4    1  0.1351183E-004  0.3729307E+03  0.7818608E-02  0.1053578E+00
         -2   -1    0    0    0  501 -0.00000000000E+00  0.00000000000E+00  0.41704303414E+02  0.41704303492E+02  0.25500000000E-02 0. -1.
          2   -1    0    0  501    0  0.00000000000E+00 -0.00000000000E+00 -0.83371067288E+03  0.83371067289E+03  0.25500000000E-02 0.  1.
    5000001    1    1    2    0    0  0.11999463274E+03 -0.49603690576E+02 -0.29693637682E+03  0.34807966026E+03  0.12700000000E+03 0.  0.
   -5000001    1    1    2    0    0 -0.11999463274E+03  0.49603690576E+02 -0.49506999265E+03  0.52733531612E+03  0.12700000000E+03 0.  0.
<mgrwt>
<rscale>  0 0.37293068E+03</rscale>
<asrwt>0</asrwt>
<pdfrwt beam="1">  1        2 0.11910151E+00 0.37293068E+03</pdfrwt>
<pdfrwt beam="2">  1       -2 0.59577581E-02 0.37293068E+03</pdfrwt>
<totfact> 0.55692006E+03</totfact>
</mgrwt>
</event>
<event>
 4    1  0.1351183E-004  0.3354251E+03  0.7818608E-02  0.1068761E+00
          2   -1    0    0  501    0  0.00000000000E+00  0.00000000000E+00  0.11279206058E+04  0.11279206058E+04  0.25500000000E-02 0.  1.
         -2   -1    0    0    0  501 -0.00000000000E+00 -0.00000000000E+00 -0.24937488624E+02  0.24937488754E+02  0.25500000000E-02 0. -1.
    5000001    1    1    2    0    0 -0.46441749073E+02 -0.33046579980E+02  0.87298654585E+03  0.88401550990E+03  0.12700000000E+03 0.  0.
   -5000001    1    1    2    0    0  0.46441749073E+02  0.33046579980E+02  0.22999657134E+03  0.26884258467E+03  0.12700000000E+03 0.  0.
<mgrwt>
<rscale>  0 0.33542515E+03</rscale>
<asrwt>0</asrwt>
<pdfrwt beam="1">  1        2 0.16113155E+00 0.33542515E+03</pdfrwt>
<pdfrwt beam="2">  1       -2 0.35624976E-02 0.33542515E+03</pdfrwt>
<totfact> 0.80752890E+03</totfact>
</mgrwt>
</event>
<event>
 4    1  0.1351183E-004  0.3658533E+03  0.7818608E-02  0.1056290E+00
         -2   -1    0    0    0  501 -0.00000000000E+00  0.00000000000E+00  0.11977124785E+03  0.11977124788E+03  0.25500000000E-02 0. -1.
          2   -1    0    0  501    0  0.00000000000E+00 -0.00000000000E+00 -0.27938383375E+03  0.27938383376E+03  0.25500000000E-02 0.  1.
    5000001    1    1    2    0    0 -0.45759317913E+02 -0.12265152884E+03 -0.95074319149E+02  0.20568285992E+03  0.12700000000E+03 0.  0.
   -5000001    1    1    2    0    0  0.45759317913E+02  0.12265152884E+03 -0.64538266745E+02  0.19347222172E+03  0.12700000000E+03 0.  0.
<mgrwt>
<rscale>  0 0.36585325E+03</rscale>
<asrwt>0</asrwt>
<pdfrwt beam="1">  1        2 0.39911976E-01 0.36585325E+03</pdfrwt>
<pdfrwt beam="2">  1       -2 0.17110178E-01 0.36585325E+03</pdfrwt>
<totfact> 0.35332186E+03</totfact>
</mgrwt>
</event>
<event>
 4    1  0.1351183E-004  0.5633290E+03  0.7818608E-02  0.9984550E-01
         -2   -1    0    0    0  501 -0.00000000000E+00  0.00000000000E+00  0.20112905988E+03  0.20112905990E+03  0.25500000000E-02 0. -1.
          2   -1    0    0  501    0  0.00000000000E+00 -0.00000000000E+00 -0.39444766366E+03  0.39444766367E+03  0.25500000000E-02 0.  1.
    5000001    1    1    2    0    0  0.17045213216E+02  0.25082373798E+03 -0.94889895368E+02  0.29721402906E+03  0.12700000000E+03 0.  0.
   -5000001    1    1    2    0    0 -0.17045213216E+02 -0.25082373798E+03 -0.98428708410E+02  0.29836269450E+03  0.12700000000E+03 0.  0.
<mgrwt>
<rscale>  0 0.56332899E+03</rscale>
<asrwt>0</asrwt>
<pdfrwt beam="1">  1        2 0.56349666E-01 0.56332899E+03</pdfrwt>
<pdfrwt beam="2">  1       -2 0.28732723E-01 0.56332899E+03</pdfrwt>
<totfact> 0.97778010E+02</totfact>
</mgrwt>
</event>
<event>
 4    1  0.1351183E-004  0.1029293E+04  0.7818608E-02  0.9276987E-01
          2   -1    0    0  501    0  0.00000000000E+00  0.00000000000E+00  0.27309520628E+04  0.27309520628E+04  0.25500000000E-02 0.  1.
         -2   -1    0    0    0  501 -0.00000000000E+00 -0.00000000000E+00 -0.96984939757E+02  0.96984939791E+02  0.25500000000E-02 0. -1.
    5000001    1    1    2    0    0 -0.44441713251E+03  0.22331224646E+03  0.12157640232E+04  0.13196916712E+04  0.12700000000E+03 0.  0.
   -5000001    1    1    2    0    0  0.44441713251E+03 -0.22331224646E+03  0.14182030999E+04  0.15082453314E+04  0.12700000000E+03 0.  0.
<mgrwt>
<rscale>  0 0.10292934E+04</rscale>
<asrwt>0</asrwt>
<pdfrwt beam="1">  1        2 0.39013607E+00 0.10292934E+04</pdfrwt>
<pdfrwt beam="2">  1       -2 0.13854989E-01 0.10292934E+04</pdfrwt>
<totfact> 0.13449595E+02</totfact>
</mgrwt>
</event>
<event>
 4    1  0.1351183E-004  0.2877638E+03  0.7818608E-02  0.1091522E+00
         -2   -1    0    0    0  501 -0.00000000000E+00  0.00000000000E+00  0.20696278236E+02  0.20696278393E+02  0.25500000000E-02 0. -1.
          2   -1    0    0  501    0  0.00000000000E+00 -0.00000000000E+00 -0.10002767804E+04  0.10002767804E+04  0.25500000000E-02 0.  1.
    5000001    1    1    2    0    0 -0.54426179284E+02 -0.12722744344E+02 -0.62484245657E+03  0.64006341306E+03  0.12700000000E+03 0.  0.
   -5000001    1    1    2    0    0  0.54426179284E+02  0.12722744344E+02 -0.35473804556E+03  0.38090964569E+03  0.12700000000E+03 0.  0.
<mgrwt>
<rscale>  0 0.28776384E+03</rscale>
<asrwt>0</asrwt>
<pdfrwt beam="1">  1        2 0.14289665E+00 0.28776384E+03</pdfrwt>
<pdfrwt beam="2">  1       -2 0.29566118E-02 0.28776384E+03</pdfrwt>
<totfact> 0.12589964E+04</totfact>
</mgrwt>
</event>
<event>
 4    1  0.1351183E-004  0.8290183E+03  0.7818608E-02  0.9518939E-01
          2   -1    0    0  501    0  0.00000000000E+00  0.00000000000E+00  0.86026230693E+03  0.86026230693E+03  0.25500000000E-02 0.  1.
         -2   -1    0    0    0  501 -0.00000000000E+00 -0.00000000000E+00 -0.19972725189E+03  0.19972725191E+03  0.25500000000E-02 0. -1.
    5000001    1    1    2    0    0 -0.37512876764E+03 -0.12216378422E+03  0.33867567621E+03  0.53523433760E+03  0.12700000000E+03 0.  0.
   -5000001    1    1    2    0    0  0.37512876764E+03  0.12216378422E+03  0.32185937882E+03  0.52475522124E+03  0.12700000000E+03 0.  0.
<mgrwt>
<rscale>  0 0.82901828E+03</rscale>
<asrwt>0</asrwt>
<pdfrwt beam="1">  1        2 0.12289461E+00 0.82901828E+03</pdfrwt>
<pdfrwt beam="2">  1       -2 0.28532465E-01 0.82901828E+03</pdfrwt>
<totfact> 0.38956772E+02</totfact>
</mgrwt>
</event>
<event>
 4    1  0.1351183E-004  0.5304262E+03  0.7818608E-02  0.1006129E+00
          2   -1    0    0  501    0  0.00000000000E+00  0.00000000000E+00  0.19199361225E+04  0.19199361225E+04  0.25500000000E-02 0.  1.
         -2   -1    0    0    0  501 -0.00000000000E+00 -0.00000000000E+00 -0.36635585768E+02  0.36635585856E+02  0.25500000000E-02 0. -1.
    5000001    1    1    2    0    0  0.19543484951E+03 -0.12290073019E+03  0.10529001473E+04  0.10853695638E+04  0.12700000000E+03 0.  0.
   -5000001    1    1    2    0    0 -0.19543484951E+03  0.12290073019E+03  0.83040038946E+03  0.87120214457E+03  0.12700000000E+03 0.  0.
<mgrwt>
<rscale>  0 0.53042619E+03</rscale>
<asrwt>0</asrwt>
<pdfrwt beam="1">  1        2 0.27427664E+00 0.53042619E+03</pdfrwt>
<pdfrwt beam="2">  1       -2 0.52336541E-02 0.53042619E+03</pdfrwt>
<totfact> 0.17421814E+03</totfact>
</mgrwt>
</event>
<event>
 4    1  0.1351183E-004  0.6649867E+03  0.7818608E-02  0.9779057E-01
          2   -1    0    0  501    0  0.00000000000E+00  0.00000000000E+00  0.21245113281E+04  0.21245113281E+04  0.25500000000E-02 0.  1.
         -2   -1    0    0    0  501 -0.00000000000E+00 -0.00000000000E+00 -0.52036362295E+02  0.52036362358E+02  0.25500000000E-02 0. -1.
    5000001    1    1    2    0    0  0.23963634624E+03  0.19068453309E+03  0.11188247232E+04  0.11669121350E+04  0.12700000000E+03 0.  0.
   -5000001    1    1    2    0    0 -0.23963634624E+03 -0.19068453309E+03  0.95365024263E+03  0.10096355555E+04  0.12700000000E+03 0.  0.
<mgrwt>
<rscale>  0 0.66498674E+03</rscale>
<asrwt>0</asrwt>
<pdfrwt beam="1">  1        2 0.30350167E+00 0.66498674E+03</pdfrwt>
<pdfrwt beam="2">  1       -2 0.74337648E-02 0.66498674E+03</pdfrwt>
<totfact> 0.78705358E+02</totfact>
</mgrwt>
</event>
<event>
 4    1  0.1351183E-004  0.3671051E+03  0.7818608E-02  0.1055805E+00
          2   -1    0    0  501    0  0.00000000000E+00  0.00000000000E+00  0.12203499153E+03  0.12203499156E+03  0.25500000000E-02 0. -1.
         -2   -1    0    0    0  501 -0.00000000000E+00 -0.00000000000E+00 -0.27608102314E+03  0.27608102315E+03  0.25500000000E-02 0.  1.
    5000001    1    1    2    0    0 -0.21888083180E+01 -0.12111783539E+03 -0.18740988121E+02  0.17650650290E+03  0.12700000000E+03 0.  0.
   -5000001    1    1    2    0    0  0.21888083180E+01  0.12111783539E+03 -0.13530504348E+03  0.22160951181E+03  0.12700000000E+03 0.  0.
<mgrwt>
<rscale>  0 0.36710514E+03</rscale>
<asrwt>0</asrwt>
<pdfrwt beam="1">  1        2 0.17433570E-01 0.36710514E+03</pdfrwt>
<pdfrwt beam="2">  1       -2 0.39440146E-01 0.36710514E+03</pdfrwt>
<totfact> 0.20081867E+03</totfact>
</mgrwt>
</event>
<event>
 4    1  0.1351183E-004  0.3394807E+03  0.7818608E-02  0.1067017E+00
         -2   -1    0    0    0  501 -0.00000000000E+00  0.00000000000E+00  0.10577285646E+02  0.10577285953E+02  0.25500000000E-02 0. -1.
          2   -1    0    0  501    0  0.00000000000E+00 -0.00000000000E+00 -0.27239299723E+04  0.27239299723E+04  0.25500000000E-02 0.  1.
    5000001    1    1    2    0    0  0.47343464994E+02 -0.91802600360E+02 -0.17181341219E+04  0.17259151144E+04  0.12700000000E+03 0.  0.
   -5000001    1    1    2    0    0 -0.47343464994E+02  0.91802600360E+02 -0.99521856475E+03  0.10085921439E+04  0.12700000000E+03 0.  0.
<mgrwt>
<rscale>  0 0.33948070E+03</rscale>
<asrwt>0</asrwt>
<pdfrwt beam="1">  1        2 0.38913240E+00 0.33948070E+03</pdfrwt>
<pdfrwt beam="2">  1       -2 0.15110426E-02 0.33948070E+03</pdfrwt>
<totfact> 0.44995385E+03</totfact>
</mgrwt>
</event>
<event>
 4    1  0.1351183E-004  0.3797546E+03  0.7818608E-02  0.1051025E+00
         -2   -1    0    0    0  501 -0.00000000000E+00  0.00000000000E+00  0.16146871208E+02  0.16146871410E+02  0.25500000000E-02 0. -1.
          2   -1    0    0  501    0  0.00000000000E+00 -0.00000000000E+00 -0.22328402031E+04  0.22328402031E+04  0.25500000000E-02 0.  1.
    5000001    1    1    2    0    0 -0.13320479642E+03 -0.46537022719E+02 -0.10852795602E+04  0.11017576576E+04  0.12700000000E+03 0.  0.
   -5000001    1    1    2    0    0  0.13320479642E+03  0.46537022719E+02 -0.11314137717E+04  0.11472294170E+04  0.12700000000E+03 0.  0.
<mgrwt>
<rscale>  0 0.37975457E+03</rscale>
<asrwt>0</asrwt>
<pdfrwt beam="1">  1        2 0.31897697E+00 0.37975457E+03</pdfrwt>
<pdfrwt beam="2">  1       -2 0.23066973E-02 0.37975457E+03</pdfrwt>
<totfact> 0.42462556E+03</totfact>
</mgrwt>
</event>
<event>
 4    1  0.1351183E-004  0.4651431E+03  0.7818608E-02  0.1023300E+00
          2   -1    0    0  501    0  0.00000000000E+00  0.00000000000E+00  0.20202567378E+04  0.20202567378E+04  0.25500000000E-02 0.  1.
         -2   -1    0    0    0  501 -0.00000000000E+00 -0.00000000000E+00 -0.26773588669E+02  0.26773588791E+02  0.25500000000E-02 0. -1.
    5000001    1    1    2    0    0  0.72261341276E+02 -0.17632550579E+03  0.81807865030E+03  0.84952578743E+03  0.12700000000E+03 0.  0.
   -5000001    1    1    2    0    0 -0.72261341276E+02  0.17632550579E+03  0.11754044988E+04  0.11975045391E+04  0.12700000000E+03 0.  0.
<mgrwt>
<rscale>  0 0.46514309E+03</rscale>
<asrwt>0</asrwt>
<pdfrwt beam="1">  1        2 0.28860800E+00 0.46514309E+03</pdfrwt>
<pdfrwt beam="2">  1       -2 0.38247998E-02 0.46514309E+03</pdfrwt>
<totfact> 0.25205465E+03</totfact>
</mgrwt>
</event>
<event>
 4    1  0.1351183E-004  0.3925885E+03  0.7818608E-02  0.1046377E+00
          2   -1    0    0  501    0  0.00000000000E+00  0.00000000000E+00  0.51127117798E+03  0.51127117799E+03  0.25500000000E-02 0.  1.
         -2   -1    0    0    0  501 -0.00000000000E+00 -0.00000000000E+00 -0.75363998460E+02  0.75363998503E+02  0.25500000000E-02 0. -1.
    5000001    1    1    2    0    0 -0.97365341320E+02  0.47137003303E+02  0.63380745026E+02  0.17846015132E+03  0.12700000000E+03 0.  0.
   -5000001    1    1    2    0    0  0.97365341320E+02 -0.47137003303E+02  0.37252643450E+03  0.40817502517E+03  0.12700000000E+03 0.  0.
<mgrwt>
<rscale>  0 0.39258854E+03</rscale>
<asrwt>0</asrwt>
<pdfrwt beam="1">  1        2 0.73038738E-01 0.39258854E+03</pdfrwt>
<pdfrwt beam="2">  1       -2 0.10766286E-01 0.39258854E+03</pdfrwt>
<totfact> 0.39155904E+03</totfact>
</mgrwt>
</event>
<event>
 4    1  0.1351183E-004  0.3175732E+03  0.7818608E-02  0.1076772E+00
          2   -1    0    0  501    0  0.00000000000E+00  0.00000000000E+00  0.55546641467E+02  0.55546641526E+02  0.25500000000E-02 0.  1.
         -2   -1    0    0    0  501 -0.00000000000E+00 -0.00000000000E+00 -0.45391007393E+03  0.45391007393E+03  0.25500000000E-02 0. -1.
    5000001    1    1    2    0    0 -0.36934982034E+01  0.76783026757E+02 -0.28957347805E+03  0.32540908764E+03  0.12700000000E+03 0.  0.
   -5000001    1    1    2    0    0  0.36934982034E+01 -0.76783026757E+02 -0.10878995441E+03  0.18404762782E+03  0.12700000000E+03 0.  0.
<mgrwt>
<rscale>  0 0.31757317E+03</rscale>
<asrwt>0</asrwt>
<pdfrwt beam="1">  1        2 0.79352347E-02 0.31757317E+03</pdfrwt>
<pdfrwt beam="2">  1       -2 0.64844294E-01 0.31757317E+03</pdfrwt>
<totfact> 0.19363245E+03</totfact>
</mgrwt>
</event>
<event>
 4    1  0.1351183E-004  0.4616097E+03  0.7818608E-02  0.1024315E+00
         -2   -1    0    0    0  501 -0.00000000000E+00  0.00000000000E+00  0.29366371543E+02  0.29366371654E+02  0.25500000000E-02 0. -1.
          2   -1    0    0  501    0  0.00000000000E+00 -0.00000000000E+00 -0.18140097750E+04  0.18140097750E+04  0.25500000000E-02 0.  1.
    5000001    1    1    2    0    0 -0.10529740886E+03  0.74006530225E+02 -0.14651625644E+04  0.14762773625E+04  0.12700000000E+03 0.  0.
   -5000001    1    1    2    0    0  0.10529740886E+03 -0.74006530225E+02 -0.31948083909E+03  0.36709878421E+03  0.12700000000E+03 0.  0.
<mgrwt>
<rscale>  0 0.46160973E+03</rscale>
<asrwt>0</asrwt>
<pdfrwt beam="1">  1        2 0.25914418E+00 0.46160973E+03</pdfrwt>
<pdfrwt beam="2">  1       -2 0.41951971E-02 0.46160973E+03</pdfrwt>
<totfact> 0.27734289E+03</totfact>
</mgrwt>
</event>
<event>
 4    1  0.1351183E-004  0.4842320E+03  0.7818608E-02  0.1017979E+00
         -2   -1    0    0    0  501 -0.00000000000E+00  0.00000000000E+00  0.52988122042E+02  0.52988122103E+02  0.25500000000E-02 0. -1.
          2   -1    0    0  501    0  0.00000000000E+00 -0.00000000000E+00 -0.11062888012E+04  0.11062888012E+04  0.25500000000E-02 0.  1.
    5000001    1    1    2    0    0 -0.17385118418E+02  0.16469922690E+03 -0.82047665222E+03  0.84660440262E+03  0.12700000000E+03 0.  0.
   -5000001    1    1    2    0    0  0.17385118418E+02 -0.16469922690E+03 -0.23282402697E+03  0.31267252073E+03  0.12700000000E+03 0.  0.
<mgrwt>
<rscale>  0 0.48423204E+03</rscale>
<asrwt>0</asrwt>
<pdfrwt beam="1">  1        2 0.15804124E+00 0.48423204E+03</pdfrwt>
<pdfrwt beam="2">  1       -2 0.75697325E-02 0.48423204E+03</pdfrwt>
<totfact> 0.26119285E+03</totfact>
</mgrwt>
</event>
<event>
 4    1  0.1351183E-004  0.4626956E+03  0.7818608E-02  0.1024002E+00
          2   -1    0    0  501    0  0.00000000000E+00  0.00000000000E+00  0.36654357627E+03  0.36654357628E+03  0.25500000000E-02 0.  1.
         -2   -1    0    0    0  501 -0.00000000000E+00 -0.00000000000E+00 -0.14601760727E+03  0.14601760729E+03  0.25500000000E-02 0. -1.
    5000001    1    1    2    0    0 -0.18796159470E+03  0.29437419130E+02  0.14858441551E+03  0.27276812728E+03  0.12700000000E+03 0.  0.
   -5000001    1    1    2    0    0  0.18796159470E+03 -0.29437419130E+02  0.71941553486E+02  0.23979305629E+03  0.12700000000E+03 0.  0.
<mgrwt>
<rscale>  0 0.46269565E+03</rscale>
<asrwt>0</asrwt>
<pdfrwt beam="1">  1        2 0.52363368E-01 0.46269565E+03</pdfrwt>
<pdfrwt beam="2">  1       -2 0.20859658E-01 0.46269565E+03</pdfrwt>
<totfact> 0.18769723E+03</totfact>
</mgrwt>
</event>
<event>
 4    1  0.1351183E-004  0.3134727E+03  0.7818608E-02  0.1078693E+00
         -2   -1    0    0    0  501 -0.00000000000E+00  0.00000000000E+00  0.36250590147E+02  0.36250590237E+02  0.25500000000E-02 0. -1.
          2   -1    0    0  501    0  0.00000000000E+00 -0.00000000000E+00 -0.67767933675E+03  0.67767933676E+03  0.25500000000E-02 0.  1.
    5000001    1    1    2    0    0 -0.12296769529E+02  0.87597661640E+02 -0.26433954853E+03  0.30631512823E+03  0.12700000000E+03 0.  0.
   -5000001    1    1    2    0    0  0.12296769529E+02 -0.87597661640E+02 -0.37708919808E+03  0.40761479877E+03  0.12700000000E+03 0.  0.
<mgrwt>
<rscale>  0 0.31347265E+03</rscale>
<asrwt>0</asrwt>
<pdfrwt beam="1">  1        2 0.96811327E-01 0.31347265E+03</pdfrwt>
<pdfrwt beam="2">  1       -2 0.51786561E-02 0.31347265E+03</pdfrwt>
<totfact> 0.88640618E+03</totfact>
</mgrwt>
</event>
<event>
 4    1  0.1351183E-004  0.3149886E+03  0.7818608E-02  0.1077979E+00
         -2   -1    0    0    0  501 -0.00000000000E+00  0.00000000000E+00  0.25131047294E+03  0.25131047296E+03  0.25500000000E-02 0. -1.
          2   -1    0    0  501    0  0.00000000000E+00 -0.00000000000E+00 -0.98700442869E+02  0.98700442902E+02  0.25500000000E-02 0.  1.
    5000001    1    1    2    0    0  0.61094123521E+02  0.43301860935E+02  0.13785219951E+03  0.20184095719E+03  0.12700000000E+03 0.  0.
   -5000001    1    1    2    0    0 -0.61094123521E+02 -0.43301860935E+02  0.14757830565E+02  0.14816995867E+03  0.12700000000E+03 0.  0.
<mgrwt>
<rscale>  0 0.31498860E+03</rscale>
<asrwt>0</asrwt>
<pdfrwt beam="1">  1        2 0.14100063E-01 0.31498860E+03</pdfrwt>
<pdfrwt beam="2">  1       -2 0.35901496E-01 0.31498860E+03</pdfrwt>
<totfact> 0.30776814E+03</totfact>
</mgrwt>
</event>
<event>
 4    1  0.1351183E-004  0.3057107E+03  0.7818608E-02  0.1082420E+00
         -2   -1    0    0    0  501 -0.00000000000E+00  0.00000000000E+00  0.17925375706E+03  0.17925375708E+03  0.25500000000E-02 0. -1.
          2   -1    0    0  501    0  0.00000000000E+00 -0.00000000000E+00 -0.13034456913E+03  0.13034456915E+03  0.25500000000E-02 0.  1.
    5000001    1    1    2    0    0 -0.54851140113E+01  0.76281714123E+02  0.62167483458E+02  0.16075690463E+03  0.12700000000E+03 0.  0.
   -5000001    1    1    2    0    0  0.54851140113E+01 -0.76281714123E+02 -0.13258295522E+02  0.14884142160E+03  0.12700000000E+03 0.  0.
<mgrwt>
<rscale>  0 0.30571067E+03</rscale>
<asrwt>0</asrwt>
<pdfrwt beam="1">  1        2 0.18620653E-01 0.30571067E+03</pdfrwt>
<pdfrwt beam="2">  1       -2 0.25607679E-01 0.30571067E+03</pdfrwt>
<totfact> 0.41047337E+03</totfact>
</mgrwt>
</event>
<event>
 4    1  0.1351183E-004  0.3166094E+03  0.7818608E-02  0.1077220E+00
          2   -1    0    0  501    0  0.00000000000E+00  0.00000000000E+00  0.12703431417E+04  0.12703431417E+04  0.25500000000E-02 0.  1.
         -2   -1    0    0    0  501 -0.00000000000E+00 -0.00000000000E+00 -0.19727252394E+02  0.19727252559E+02  0.25500000000E-02 0. -1.
    5000001    1    1    2    0    0 -0.88728054246E+02 -0.29569938037E+02  0.56998709639E+03  0.59140623847E+03  0.12700000000E+03 0.  0.
   -5000001    1    1    2    0    0  0.88728054246E+02  0.29569938037E+02  0.68062879291E+03  0.69866415579E+03  0.12700000000E+03 0.  0.
<mgrwt>
<rscale>  0 0.31660941E+03</rscale>
<asrwt>0</asrwt>
<pdfrwt beam="1">  1        2 0.18147770E+00 0.31660941E+03</pdfrwt>
<pdfrwt beam="2">  1       -2 0.28181773E-02 0.31660941E+03</pdfrwt>
<totfact> 0.95757789E+03</totfact>
</mgrwt>
</event>
<event>
 4    1  0.1351183E-004  0.3782915E+03  0.7818608E-02  0.1051567E+00
         -2   -1    0    0    0  501 -0.00000000000E+00  0.00000000000E+00  0.76091095890E+02  0.76091095932E+02  0.25500000000E-02 0.  1.
          2   -1    0    0  501    0  0.00000000000E+00 -0.00000000000E+00 -0.47017490688E+03  0.47017490689E+03  0.25500000000E-02 0. -1.
    5000001    1    1    2    0    0 -0.13919197905E+03 -0.47716790054E+01 -0.21987171848E+03  0.28960274263E+03  0.12700000000E+03 0.  0.
   -5000001    1    1    2    0    0  0.13919197905E+03  0.47716790054E+01 -0.17421209251E+03  0.25666326019E+03  0.12700000000E+03 0.  0.
<mgrwt>
<rscale>  0 0.37829155E+03</rscale>
<asrwt>0</asrwt>
<pdfrwt beam="1">  1        2 0.67167842E-01 0.37829155E+03</pdfrwt>
<pdfrwt beam="2">  1       -2 0.10870157E-01 0.37829155E+03</pdfrwt>
<totfact> 0.42306481E+03</totfact>
</mgrwt>
</event>
<event>
 4    1  0.1351183E-004  0.3508047E+03  0.7818608E-02  0.1062285E+00
          2   -1    0    0  501    0  0.00000000000E+00  0.00000000000E+00  0.80584948494E+03  0.80584948494E+03  0.25500000000E-02 0. -1.
         -2   -1    0    0    0  501 -0.00000000000E+00 -0.00000000000E+00 -0.38178320893E+02  0.38178320979E+02  0.25500000000E-02 0.  1.
    5000001    1    1    2    0    0 -0.89781770658E+02 -0.65621963306E+02  0.26920470467E+03  0.31775333425E+03  0.12700000000E+03 0.  0.
   -5000001    1    1    2    0    0  0.89781770658E+02  0.65621963306E+02  0.49846645937E+03  0.52627447167E+03  0.12700000000E+03 0.  0.
<mgrwt>
<rscale>  0 0.35080468E+03</rscale>
<asrwt>0</asrwt>
<pdfrwt beam="1">  1        2 0.11512135E+00 0.35080468E+03</pdfrwt>
<pdfrwt beam="2">  1       -2 0.54540460E-02 0.35080468E+03</pdfrwt>
<totfact> 0.66530246E+03</totfact>
</mgrwt>
</event>
<event>
 4    1  0.1351183E-004  0.3485107E+03  0.7818608E-02  0.1063228E+00
         -2   -1    0    0    0  501 -0.00000000000E+00  0.00000000000E+00  0.31496054298E+02  0.31496054401E+02  0.25500000000E-02 0. -1.
          2   -1    0    0  501    0  0.00000000000E+00 -0.00000000000E+00 -0.96408693181E+03  0.96408693181E+03  0.25500000000E-02 0.  1.
    5000001    1    1    2    0    0  0.72956436094E+02  0.81083228587E+01 -0.19759228786E+03  0.24608961516E+03  0.12700000000E+03 0.  0.
   -5000001    1    1    2    0    0 -0.72956436094E+02 -0.81083228587E+01 -0.73499858965E+03  0.74949337105E+03  0.12700000000E+03 0.  0.
<mgrwt>
<rscale>  0 0.34851074E+03</rscale>
<asrwt>0</asrwt>
<pdfrwt beam="1">  1        2 0.13772669E+00 0.34851074E+03</pdfrwt>
<pdfrwt beam="2">  1       -2 0.44994369E-02 0.34851074E+03</pdfrwt>
<totfact> 0.70724361E+03</totfact>
</mgrwt>
</event>
<event>
 4    1  0.1351183E-004  0.4542898E+03  0.7818608E-02  0.1026450E+00
          2   -1    0    0  501    0  0.00000000000E+00  0.00000000000E+00  0.11134426664E+03  0.11134426667E+03  0.25500000000E-02 0.  1.
         -2   -1    0    0    0  501 -0.00000000000E+00 -0.00000000000E+00 -0.46338095560E+03  0.46338095561E+03  0.25500000000E-02 0. -1.
    5000001    1    1    2    0    0 -0.17739298690E+03  0.37349547294E+02 -0.24055804797E+03  0.32689514363E+03  0.12700000000E+03 0.  0.
   -5000001    1    1    2    0    0  0.17739298690E+03 -0.37349547294E+02 -0.11147864098E+03  0.24783007864E+03  0.12700000000E+03 0.  0.
<mgrwt>
<rscale>  0 0.45428983E+03</rscale>
<asrwt>0</asrwt>
<pdfrwt beam="1">  1        2 0.15906324E-01 0.45428983E+03</pdfrwt>
<pdfrwt beam="2">  1       -2 0.66197278E-01 0.45428983E+03</pdfrwt>
<totfact> 0.78717300E+02</totfact>
</mgrwt>
</event>
<event>
 4    1  0.1351183E-004  0.4426918E+03  0.7818608E-02  0.1029924E+00
         -2   -1    0    0    0  501 -0.00000000000E+00  0.00000000000E+00  0.44740825205E+02  0.44740825278E+02  0.25500000000E-02 0. -1.
          2   -1    0    0  501    0  0.00000000000E+00 -0.00000000000E+00 -0.10950626067E+04  0.10950626067E+04  0.25500000000E-02 0.  1.
    5000001    1    1    2    0    0  0.12329381466E+03 -0.12349901826E+03 -0.39872101614E+03  0.45338815705E+03  0.12700000000E+03 0.  0.
   -5000001    1    1    2    0    0 -0.12329381466E+03  0.12349901826E+03 -0.65160076539E+03  0.68641527496E+03  0.12700000000E+03 0.  0.
<mgrwt>
<rscale>  0 0.44269179E+03</rscale>
<asrwt>0</asrwt>
<pdfrwt beam="1">  1        2 0.15643750E+00 0.44269179E+03</pdfrwt>
<pdfrwt beam="2">  1       -2 0.63915471E-02 0.44269179E+03</pdfrwt>
<totfact> 0.34569678E+03</totfact>
</mgrwt>
</event>
<event>
 4    1  0.1351183E-004  0.5795419E+03  0.7818608E-02  0.9948783E-01
          2   -1    0    0  501    0  0.00000000000E+00  0.00000000000E+00  0.16175530173E+04  0.16175530173E+04  0.25500000000E-02 0.  1.
         -2   -1    0    0    0  501 -0.00000000000E+00 -0.00000000000E+00 -0.51910009398E+02  0.51910009461E+02  0.25500000000E-02 0. -1.
    5000001    1    1    2    0    0 -0.72457904955E+02 -0.20402590166E+03  0.36575729461E+03  0.44360355623E+03  0.12700000000E+03 0.  0.
   -5000001    1    1    2    0    0  0.72457904955E+02  0.20402590166E+03  0.11998857133E+04  0.12258594705E+04  0.12700000000E+03 0.  0.
<mgrwt>
<rscale>  0 0.57954186E+03</rscale>
<asrwt>0</asrwt>
<pdfrwt beam="1">  1        2 0.23107902E+00 0.57954186E+03</pdfrwt>
<pdfrwt beam="2">  1       -2 0.74157151E-02 0.57954186E+03</pdfrwt>
<totfact> 0.14316371E+03</totfact>
</mgrwt>
</event>
<event>
 4    1  0.1351183E-004  0.7016530E+03  0.7818608E-02  0.9714410E-01
         -2   -1    0    0    0  501 -0.00000000000E+00  0.00000000000E+00  0.12377660239E+03  0.12377660241E+03  0.25500000000E-02 0. -1.
          2   -1    0    0  501    0  0.00000000000E+00 -0.00000000000E+00 -0.99436581916E+03  0.99436581917E+03  0.25500000000E-02 0.  1.
    5000001    1    1    2    0    0  0.21429848853E+02  0.15083805050E+03  0.25851232705E+02  0.20002160417E+03  0.12700000000E+03 0.  0.
   -5000001    1    1    2    0    0 -0.21429848853E+02 -0.15083805050E+03 -0.89644044948E+03  0.91812081741E+03  0.12700000000E+03 0.  0.
<mgrwt>
<rscale>  0 0.70165297E+03</rscale>
<asrwt>0</asrwt>
<pdfrwt beam="1">  1        2 0.14205226E+00 0.70165297E+03</pdfrwt>
<pdfrwt beam="2">  1       -2 0.17682372E-01 0.70165297E+03</pdfrwt>
<totfact> 0.75183583E+02</totfact>
</mgrwt>
</event>
<event>
 4    1  0.1351183E-004  0.4348864E+03  0.7818608E-02  0.1032327E+00
          2   -1    0    0  501    0  0.00000000000E+00  0.00000000000E+00  0.22986150400E+03  0.22986150401E+03  0.25500000000E-02 0.  1.
         -2   -1    0    0    0  501 -0.00000000000E+00 -0.00000000000E+00 -0.20569582332E+03  0.20569582333E+03  0.25500000000E-02 0. -1.
    5000001    1    1    2    0    0 -0.14444572851E+03 -0.26214295005E+02 -0.86051958337E+02  0.21233392871E+03  0.12700000000E+03 0.  0.
   -5000001    1    1    2    0    0  0.14444572851E+03  0.26214295005E+02  0.11021763902E+03  0.22322339864E+03  0.12700000000E+03 0.  0.
<mgrwt>
<rscale>  0 0.43488643E+03</rscale>
<asrwt>0</asrwt>
<pdfrwt beam="1">  1        2 0.32837358E-01 0.43488643E+03</pdfrwt>
<pdfrwt beam="2">  1       -2 0.29385117E-01 0.43488643E+03</pdfrwt>
<totfact> 0.16994477E+03</totfact>
</mgrwt>
</event>
<event>
 4    1  0.1351183E-004  0.5263046E+03  0.7818608E-02  0.1007132E+00
          2   -1    0    0  501    0  0.00000000000E+00  0.00000000000E+00  0.19083488108E+03  0.19083488109E+03  0.25500000000E-02 0.  1.
         -2   -1    0    0    0  501 -0.00000000000E+00 -0.00000000000E+00 -0.36287456179E+03  0.36287456180E+03  0.25500000000E-02 0. -1.
    5000001    1    1    2    0    0  0.19564334850E+03 -0.11660456527E+03 -0.12317415520E+03  0.28839871179E+03  0.12700000000E+03 0.  0.
   -5000001    1    1    2    0    0 -0.19564334850E+03  0.11660456527E+03 -0.48865525520E+02  0.26531073110E+03  0.12700000000E+03 0.  0.
<mgrwt>
<rscale>  0 0.52630457E+03</rscale>
<asrwt>0</asrwt>
<pdfrwt beam="1">  1        2 0.27262126E-01 0.52630457E+03</pdfrwt>
<pdfrwt beam="2">  1       -2 0.51839223E-01 0.52630457E+03</pdfrwt>
<totfact> 0.70124434E+02</totfact>
</mgrwt>
</event>
<event>
 4    1  0.1351183E-004  0.4620058E+03  0.7818608E-02  0.1024201E+00
          2   -1    0    0  501    0  0.00000000000E+00  0.00000000000E+00  0.26002540724E+04  0.26002540724E+04  0.25500000000E-02 0.  1.
         -2   -1    0    0    0  501 -0.00000000000E+00 -0.00000000000E+00 -0.20521972658E+02  0.20521972817E+02  0.25500000000E-02 0. -1.
    5000001    1    1    2    0    0 -0.68499413223E+02  0.17781981788E+03  0.14620448558E+04  0.14798703381E+04  0.12700000000E+03 0.  0.
   -5000001    1    1    2    0    0  0.68499413223E+02 -0.17781981788E+03  0.11176872439E+04  0.11409057071E+04  0.12700000000E+03 0.  0.
<mgrwt>
<rscale>  0 0.46200581E+03</rscale>
<asrwt>0</asrwt>
<pdfrwt beam="1">  1        2 0.37146430E+00 0.46200581E+03</pdfrwt>
<pdfrwt beam="2">  1       -2 0.29317149E-02 0.46200581E+03</pdfrwt>
<totfact> 0.19273040E+03</totfact>
</mgrwt>
</event>
<event>
 4    1  0.1351183E-004  0.5654682E+03  0.7818608E-02  0.9979757E-01
         -2   -1    0    0    0  501 -0.00000000000E+00  0.00000000000E+00  0.19519403344E+02  0.19519403510E+02  0.25500000000E-02 0. -1.
          2   -1    0    0  501    0  0.00000000000E+00 -0.00000000000E+00 -0.40953385998E+04  0.40953385998E+04  0.25500000000E-02 0.  1.
    5000001    1    1    2    0    0  0.12003953949E+03 -0.22211355279E+03 -0.19789509829E+04  0.19990297432E+04  0.12700000000E+03 0.  0.
   -5000001    1    1    2    0    0 -0.12003953949E+03  0.22211355279E+03 -0.20968682135E+04  0.21158282601E+04  0.12700000000E+03 0.  0.
<mgrwt>
<rscale>  0 0.56546818E+03</rscale>
<asrwt>0</asrwt>
<pdfrwt beam="1">  1        2 0.58504782E+00 0.56546818E+03</pdfrwt>
<pdfrwt beam="2">  1       -2 0.27884888E-02 0.56546818E+03</pdfrwt>
<totfact> 0.27728623E+02</totfact>
</mgrwt>
</event>
<event>
 4    1  0.1351183E-004  0.3448538E+03  0.7818608E-02  0.1064747E+00
          2   -1    0    0  501    0  0.00000000000E+00  0.00000000000E+00  0.67914862966E+02  0.67914863014E+02  0.25500000000E-02 0.  1.
         -2   -1    0    0    0  501 -0.00000000000E+00 -0.00000000000E+00 -0.43776930769E+03  0.43776930770E+03  0.25500000000E-02 0. -1.
    5000001    1    1    2    0    0 -0.92722052607E+02  0.59475754192E+02 -0.12875734395E+03  0.21175976482E+03  0.12700000000E+03 0.  0.
   -5000001    1    1    2    0    0  0.92722052607E+02 -0.59475754192E+02 -0.24109710077E+03  0.29392440589E+03  0.12700000000E+03 0.  0.
<mgrwt>
<rscale>  0 0.34485384E+03</rscale>
<asrwt>0</asrwt>
<pdfrwt beam="1">  1        2 0.97021236E-02 0.34485384E+03</pdfrwt>
<pdfrwt beam="2">  1       -2 0.62538471E-01 0.34485384E+03</pdfrwt>
<totfact> 0.16227559E+03</totfact>
</mgrwt>
</event>
<event>
 4    1  0.1351183E-004  0.7281150E+03  0.7818608E-02  0.9670324E-01
         -2   -1    0    0    0  501 -0.00000000000E+00  0.00000000000E+00  0.60280254482E+02  0.60280254536E+02  0.25500000000E-02 0.  1.
          2   -1    0    0  501    0  0.00000000000E+00 -0.00000000000E+00 -0.21986942057E+04  0.21986942057E+04  0.25500000000E-02 0. -1.
    5000001    1    1    2    0    0  0.33168842257E+03  0.36771862084E+02 -0.84896318922E+03  0.92099776121E+03  0.12700000000E+03 0.  0.
   -5000001    1    1    2    0    0 -0.33168842257E+03 -0.36771862084E+02 -0.12894507620E+04  0.13379766990E+04  0.12700000000E+03 0.  0.
<mgrwt>
<rscale>  0 0.72811495E+03</rscale>
<asrwt>0</asrwt>
<pdfrwt beam="1">  1        2 0.31409912E+00 0.72811495E+03</pdfrwt>
<pdfrwt beam="2">  1       -2 0.86114663E-02 0.72811495E+03</pdfrwt>
<totfact> 0.56827955E+02</totfact>
</mgrwt>
</event>
<event>
 4    1  0.1351183E-004  0.9043396E+03  0.7818608E-02  0.9420173E-01
         -2   -1    0    0    0  501 -0.00000000000E+00  0.00000000000E+00  0.14677132374E+04  0.14677132374E+04  0.25500000000E-02 0. -1.
          2   -1    0    0  501    0  0.00000000000E+00 -0.00000000000E+00 -0.13930347139E+03  0.13930347142E+03  0.25500000000E-02 0.  1.
    5000001    1    1    2    0    0  0.14274527817E+03  0.40713260490E+03  0.74746621144E+03  0.87233474633E+03  0.12700000000E+03 0.  0.
   -5000001    1    1    2    0    0 -0.14274527817E+03 -0.40713260490E+03  0.58094355456E+03  0.73468196248E+03  0.12700000000E+03 0.  0.
<mgrwt>
<rscale>  0 0.90433965E+03</rscale>
<asrwt>0</asrwt>
<pdfrwt beam="1">  1        2 0.19900496E-01 0.90433965E+03</pdfrwt>
<pdfrwt beam="2">  1       -2 0.20967332E+00 0.90433965E+03</pdfrwt>
<totfact> 0.33180043E+01</totfact>
</mgrwt>
</event>
<event>
 4    1  0.1351183E-004  0.3873272E+03  0.7818608E-02  0.1048258E+00
          2   -1    0    0  501    0  0.00000000000E+00  0.00000000000E+00  0.11948402814E+04  0.11948402814E+04  0.25500000000E-02 0.  1.
         -2   -1    0    0    0  501 -0.00000000000E+00 -0.00000000000E+00 -0.31389627411E+02  0.31389627515E+02  0.25500000000E-02 0. -1.
    5000001    1    1    2    0    0 -0.10760863832E+03 -0.20273958327E+02  0.88843873509E+03  0.90412556563E+03  0.12700000000E+03 0.  0.
   -5000001    1    1    2    0    0  0.10760863832E+03  0.20273958327E+02  0.27501191892E+03  0.32210434330E+03  0.12700000000E+03 0.  0.
<mgrwt>
<rscale>  0 0.38732721E+03</rscale>
<asrwt>0</asrwt>
<pdfrwt beam="1">  1        2 0.17069155E+00 0.38732721E+03</pdfrwt>
<pdfrwt beam="2">  1       -2 0.44842305E-02 0.38732721E+03</pdfrwt>
<totfact> 0.52413006E+03</totfact>
</mgrwt>
</event>
<event>
 4    1  0.1351183E-004  0.8892113E+03  0.7818608E-02  0.9439169E-01
         -2   -1    0    0    0  501 -0.00000000000E+00  0.00000000000E+00  0.19270073800E+03  0.19270073802E+03  0.25500000000E-02 0. -1.
          2   -1    0    0  501    0  0.00000000000E+00 -0.00000000000E+00 -0.10258091460E+04  0.10258091460E+04  0.25500000000E-02 0.  1.
    5000001    1    1    2    0    0 -0.17761214068E+03 -0.50345915084E+02  0.10966619089E+03  0.24947235740E+03  0.12700000000E+03 0.  0.
   -5000001    1    1    2    0    0  0.17761214068E+03  0.50345915084E+02 -0.94277459886E+03  0.96903752659E+03  0.12700000000E+03 0.  0.
<mgrwt>
<rscale>  0 0.88921129E+03</rscale>
<asrwt>0</asrwt>
<pdfrwt beam="1">  1        2 0.14654416E+00 0.88921129E+03</pdfrwt>
<pdfrwt beam="2">  1       -2 0.27528677E-01 0.88921129E+03</pdfrwt>
<totfact> 0.32552443E+02</totfact>
</mgrwt>
</event>
<event>
 4    1  0.1351183E-004  0.3302491E+03  0.7818608E-02  0.1071027E+00
         -2   -1    0    0    0  501 -0.00000000000E+00  0.00000000000E+00  0.19699340413E+02  0.19699340578E+02  0.25500000000E-02 0. -1.
          2   -1    0    0  501    0  0.00000000000E+00 -0.00000000000E+00 -0.13841129340E+04  0.13841129340E+04  0.25500000000E-02 0.  1.
    5000001    1    1    2    0    0  0.41532211306E+02 -0.83104371096E+02 -0.89499377462E+03  0.90872114407E+03  0.12700000000E+03 0.  0.
   -5000001    1    1    2    0    0 -0.41532211306E+02  0.83104371096E+02 -0.46941981898E+03  0.49509113052E+03  0.12700000000E+03 0.  0.
<mgrwt>
<rscale>  0 0.33024907E+03</rscale>
<asrwt>0</asrwt>
<pdfrwt beam="1">  1        2 0.19773036E+00 0.33024907E+03</pdfrwt>
<pdfrwt beam="2">  1       -2 0.28141924E-02 0.33024907E+03</pdfrwt>
<totfact> 0.83662641E+03</totfact>
</mgrwt>
</event>
<event>
 4    1  0.1351183E-004  0.4571956E+03  0.7818608E-02  0.1025598E+00
         -2   -1    0    0    0  501 -0.00000000000E+00  0.00000000000E+00  0.10192483000E+03  0.10192483004E+03  0.25500000000E-02 0. -1.
          2   -1    0    0  501    0  0.00000000000E+00 -0.00000000000E+00 -0.51270096177E+03  0.51270096178E+03  0.25500000000E-02 0.  1.
    5000001    1    1    2    0    0  0.14778295284E+03  0.97009744140E+02 -0.11150290027E+03  0.24456612271E+03  0.12700000000E+03 0.  0.
   -5000001    1    1    2    0    0 -0.14778295284E+03 -0.97009744140E+02 -0.29927323150E+03  0.37005966910E+03  0.12700000000E+03 0.  0.
<mgrwt>
<rscale>  0 0.45719562E+03</rscale>
<asrwt>0</asrwt>
<pdfrwt beam="1">  1        2 0.73242993E-01 0.45719562E+03</pdfrwt>
<pdfrwt beam="2">  1       -2 0.14560690E-01 0.45719562E+03</pdfrwt>
<totfact> 0.23841497E+03</totfact>
</mgrwt>
</event>
<event>
 4    1  0.1351183E-004  0.4507931E+03  0.7818608E-02  0.1027486E+00
         -2   -1    0    0    0  501 -0.00000000000E+00  0.00000000000E+00  0.25851353828E+03  0.25851353830E+03  0.25500000000E-02 0. -1.
          2   -1    0    0  501    0  0.00000000000E+00 -0.00000000000E+00 -0.19652200544E+03  0.19652200546E+03  0.25500000000E-02 0.  1.
    5000001    1    1    2    0    0 -0.18124843045E+03 -0.48863353226E+01  0.73818231540E+02  0.23335166835E+03  0.12700000000E+03 0.  0.
   -5000001    1    1    2    0    0  0.18124843045E+03  0.48863353226E+01 -0.11826698700E+02  0.22168387541E+03  0.12700000000E+03 0.  0.
<mgrwt>
<rscale>  0 0.45079307E+03</rscale>
<asrwt>0</asrwt>
<pdfrwt beam="1">  1        2 0.28074572E-01 0.45079307E+03</pdfrwt>
<pdfrwt beam="2">  1       -2 0.36930506E-01 0.45079307E+03</pdfrwt>
<totfact> 0.13216670E+03</totfact>
</mgrwt>
</event>
<event>
 4    1  0.1351183E-004  0.6544899E+03  0.7818608E-02  0.9798390E-01
         -2   -1    0    0    0  501 -0.00000000000E+00  0.00000000000E+00  0.93160883111E+03  0.93160883111E+03  0.25500000000E-02 0. -1.
          2   -1    0    0  501    0  0.00000000000E+00 -0.00000000000E+00 -0.11495088440E+03  0.11495088443E+03  0.25500000000E-02 0.  1.
    5000001    1    1    2    0    0  0.53910500711E+02 -0.22654222632E+03  0.10185999426E+03  0.28413408951E+03  0.12700000000E+03 0.  0.
   -5000001    1    1    2    0    0 -0.53910500711E+02  0.22654222632E+03  0.71479795245E+03  0.76242562603E+03  0.12700000000E+03 0.  0.
<mgrwt>
<rscale>  0 0.65448991E+03</rscale>
<asrwt>0</asrwt>
<pdfrwt beam="1">  1        2 0.16421555E-01 0.65448991E+03</pdfrwt>
<pdfrwt beam="2">  1       -2 0.13308697E+00 0.65448991E+03</pdfrwt>
<totfact> 0.14896820E+02</totfact>
</mgrwt>
</event>
<event>
 4    1  0.1351183E-004  0.6113878E+03  0.7818608E-02  0.9882058E-01
         -2   -1    0    0    0  501 -0.00000000000E+00  0.00000000000E+00  0.12081415977E+03  0.12081415979E+03  0.25500000000E-02 0. -1.
          2   -1    0    0  501    0  0.00000000000E+00 -0.00000000000E+00 -0.77349188919E+03  0.77349188920E+03  0.25500000000E-02 0.  1.
    5000001    1    1    2    0    0  0.24359252864E+03 -0.66026013048E+02 -0.49706737129E+03  0.57175320376E+03  0.12700000000E+03 0.  0.
   -5000001    1    1    2    0    0 -0.24359252864E+03  0.66026013048E+02 -0.15561035813E+03  0.32255284523E+03  0.12700000000E+03 0.  0.
<mgrwt>
<rscale>  0 0.61138784E+03</rscale>
<asrwt>0</asrwt>
<pdfrwt beam="1">  1        2 0.11049884E+00 0.61138784E+03</pdfrwt>
<pdfrwt beam="2">  1       -2 0.17259166E-01 0.61138784E+03</pdfrwt>
<totfact> 0.10971096E+03</totfact>
</mgrwt>
</event>
<event>
 4    1  0.1351183E-004  0.3426964E+03  0.7818608E-02  0.1065653E+00
          2   -1    0    0  501    0  0.00000000000E+00  0.00000000000E+00  0.19361567018E+02  0.19361567186E+02  0.25500000000E-02 0.  1.
         -2   -1    0    0    0  501 -0.00000000000E+00 -0.00000000000E+00 -0.15164171413E+04  0.15164171413E+04  0.25500000000E-02 0. -1.
    5000001    1    1    2    0    0  0.46972459442E+02 -0.90073058676E+02 -0.99034556036E+03  0.10036099326E+04  0.12700000000E+03 0.  0.
   -5000001    1    1    2    0    0 -0.46972459442E+02  0.90073058676E+02 -0.50671001394E+03  0.53216877593E+03  0.12700000000E+03 0.  0.
<mgrwt>
<rscale>  0 0.34269644E+03</rscale>
<asrwt>0</asrwt>
<pdfrwt beam="1">  1        2 0.27659391E-02 0.34269644E+03</pdfrwt>
<pdfrwt beam="2">  1       -2 0.21663094E+00 0.34269644E+03</pdfrwt>
<totfact> 0.39869757E+02</totfact>
</mgrwt>
</event>
<event>
 4    1  0.1351183E-004  0.2856203E+03  0.7818608E-02  0.1092658E+00
         -2   -1    0    0    0  501 -0.00000000000E+00  0.00000000000E+00  0.83885723350E+01  0.83885727226E+01  0.25500000000E-02 0. -1.
          2   -1    0    0  501    0  0.00000000000E+00 -0.00000000000E+00 -0.24312519324E+04  0.24312519324E+04  0.25500000000E-02 0.  1.
    5000001    1    1    2    0    0  0.35525925462E+02  0.45358527538E+02 -0.94868405318E+03  0.95887951285E+03  0.12700000000E+03 0.  0.
   -5000001    1    1    2    0    0 -0.35525925462E+02 -0.45358527538E+02 -0.14741793069E+04  0.14807609923E+04  0.12700000000E+03 0.  0.
<mgrwt>
<rscale>  0 0.28562026E+03</rscale>
<asrwt>0</asrwt>
<pdfrwt beam="1">  1        2 0.34732125E+00 0.28562026E+03</pdfrwt>
<pdfrwt beam="2">  1       -2 0.11983691E-02 0.28562026E+03</pdfrwt>
<totfact> 0.88904326E+03</totfact>
</mgrwt>
</event>
<event>
 4    1  0.1351183E-004  0.4830291E+03  0.7818608E-02  0.1018306E+00
          2   -1    0    0  501    0  0.00000000000E+00  0.00000000000E+00  0.29808615299E+04  0.29808615299E+04  0.25500000000E-02 0.  1.
         -2   -1    0    0    0  501 -0.00000000000E+00 -0.00000000000E+00 -0.19567923624E+02  0.19567923790E+02  0.25500000000E-02 0. -1.
    5000001    1    1    2    0    0 -0.19161831140E+03  0.49262626270E+02  0.18240298291E+04  0.18391188654E+04  0.12700000000E+03 0.  0.
   -5000001    1    1    2    0    0  0.19161831140E+03 -0.49262626270E+02  0.11372637772E+04  0.11613105884E+04  0.12700000000E+03 0.  0.
<mgrwt>
<rscale>  0 0.48302907E+03</rscale>
<asrwt>0</asrwt>
<pdfrwt beam="1">  1        2 0.42583714E+00 0.48302907E+03</pdfrwt>
<pdfrwt beam="2">  1       -2 0.27954191E-02 0.48302907E+03</pdfrwt>
<totfact> 0.13046939E+03</totfact>
</mgrwt>
</event>
<event>
 4    1  0.1351183E-004  0.4841427E+03  0.7818608E-02  0.1018003E+00
         -2   -1    0    0    0  501 -0.00000000000E+00  0.00000000000E+00  0.29443944449E+03  0.29443944451E+03  0.25500000000E-02 0. -1.
          2   -1    0    0  501    0  0.00000000000E+00 -0.00000000000E+00 -0.19901727973E+03  0.19901727975E+03  0.25500000000E-02 0.  1.
    5000001    1    1    2    0    0 -0.80405088666E+02 -0.18502556779E+03  0.48291470253E+01  0.23843607042E+03  0.12700000000E+03 0.  0.
   -5000001    1    1    2    0    0  0.80405088666E+02  0.18502556779E+03  0.90593017736E+02  0.25502065383E+03  0.12700000000E+03 0.  0.
<mgrwt>
<rscale>  0 0.48414270E+03</rscale>
<asrwt>0</asrwt>
<pdfrwt beam="1">  1        2 0.28431040E-01 0.48414270E+03</pdfrwt>
<pdfrwt beam="2">  1       -2 0.42062778E-01 0.48414270E+03</pdfrwt>
<totfact> 0.10145004E+03</totfact>
</mgrwt>
</event>
<event>
 4    1  0.1351183E-004  0.3766773E+03  0.7818608E-02  0.1052169E+00
         -2   -1    0    0    0  501 -0.00000000000E+00  0.00000000000E+00  0.42165166540E+02  0.42165166617E+02  0.25500000000E-02 0. -1.
          2   -1    0    0  501    0  0.00000000000E+00 -0.00000000000E+00 -0.84124997221E+03  0.84124997221E+03  0.25500000000E-02 0.  1.
    5000001    1    1    2    0    0 -0.81699084089E+02  0.89022387438E+02 -0.56105600971E+03  0.58780317440E+03  0.12700000000E+03 0.  0.
   -5000001    1    1    2    0    0  0.81699084089E+02 -0.89022387438E+02 -0.23802879596E+03  0.29561196443E+03  0.12700000000E+03 0.  0.
<mgrwt>
<rscale>  0 0.37667729E+03</rscale>
<asrwt>0</asrwt>
<pdfrwt beam="1">  1        2 0.12017856E+00 0.37667729E+03</pdfrwt>
<pdfrwt beam="2">  1       -2 0.60235957E-02 0.37667729E+03</pdfrwt>
<totfact> 0.54138070E+03</totfact>
</mgrwt>
</event>
<event>
 4    1  0.1351183E-004  0.4022869E+03  0.7818608E-02  0.1042991E+00
          2   -1    0    0  501    0  0.00000000000E+00  0.00000000000E+00  0.13065295529E+03  0.13065295531E+03  0.25500000000E-02 0.  1.
         -2   -1    0    0    0  501 -0.00000000000E+00 -0.00000000000E+00 -0.30966528371E+03  0.30966528372E+03  0.25500000000E-02 0. -1.
    5000001    1    1    2    0    0  0.55092481740E+02 -0.12595596054E+03 -0.17015807785E+03  0.25294832871E+03  0.12700000000E+03 0.  0.
   -5000001    1    1    2    0    0 -0.55092481740E+02  0.12595596054E+03 -0.88542505734E+01  0.18736991032E+03  0.12700000000E+03 0.  0.
<mgrwt>
<rscale>  0 0.40228689E+03</rscale>
<asrwt>0</asrwt>
<pdfrwt beam="1">  1        2 0.18664708E-01 0.40228689E+03</pdfrwt>
<pdfrwt beam="2">  1       -2 0.44237897E-01 0.40228689E+03</pdfrwt>
<totfact> 0.14857889E+03</totfact>
</mgrwt>
</event>
<event>
 4    1  0.1351183E-004  0.8975958E+03  0.7818608E-02  0.9428592E-01
         -2   -1    0    0    0  501 -0.00000000000E+00  0.00000000000E+00  0.73227942525E+02  0.73227942569E+02  0.25500000000E-02 0. -1.
          2   -1    0    0  501    0  0.00000000000E+00 -0.00000000000E+00 -0.27505830934E+04  0.27505830934E+04  0.25500000000E-02 0.  1.
    5000001    1    1    2    0    0  0.30481599948E+03 -0.18550395068E+03 -0.58124911628E+03  0.69376079770E+03  0.12700000000E+03 0.  0.
   -5000001    1    1    2    0    0 -0.30481599948E+03  0.18550395068E+03 -0.20961060346E+04  0.21300502383E+04  0.12700000000E+03 0.  0.
<mgrwt>
<rscale>  0 0.89759577E+03</rscale>
<asrwt>0</asrwt>
<pdfrwt beam="1">  1        2 0.39294038E+00 0.89759577E+03</pdfrwt>
<pdfrwt beam="2">  1       -2 0.10461136E-01 0.89759577E+03</pdfrwt>
<totfact> 0.21174177E+02</totfact>
</mgrwt>
</event>
<event>
 4    1  0.1351183E-004  0.1022293E+04  0.7818608E-02  0.9284427E-01
          2   -1    0    0  501    0  0.00000000000E+00  0.00000000000E+00  0.12125280853E+04  0.12125280853E+04  0.25500000000E-02 0.  1.
         -2   -1    0    0    0  501 -0.00000000000E+00 -0.00000000000E+00 -0.21547588069E+03  0.21547588071E+03  0.25500000000E-02 0. -1.
    5000001    1    1    2    0    0  0.16279823134E+02 -0.42407649585E+03  0.85475563830E+03  0.96272639321E+03  0.12700000000E+03 0.  0.
   -5000001    1    1    2    0    0 -0.16279823134E+02  0.42407649585E+03  0.14229656631E+03  0.46527757280E+03  0.12700000000E+03 0.  0.
<mgrwt>
<rscale>  0 0.10222926E+04</rscale>
<asrwt>0</asrwt>
<pdfrwt beam="1">  1        2 0.17321830E+00 0.10222926E+04</pdfrwt>
<pdfrwt beam="2">  1       -2 0.30782269E-01 0.10222926E+04</pdfrwt>
<totfact> 0.20433386E+02</totfact>
</mgrwt>
</event>
<event>
 4    1  0.1351183E-004  0.5236713E+03  0.7818608E-02  0.1007779E+00
          2   -1    0    0  501    0  0.00000000000E+00  0.00000000000E+00  0.70325908480E+03  0.70325908480E+03  0.25500000000E-02 0.  1.
         -2   -1    0    0    0  501 -0.00000000000E+00 -0.00000000000E+00 -0.97485999381E+02  0.97485999414E+02  0.25500000000E-02 0. -1.
    5000001    1    1    2    0    0  0.49456081950E+01 -0.16152878887E+03  0.55092549791E+03  0.58801693251E+03  0.12700000000E+03 0.  0.
   -5000001    1    1    2    0    0 -0.49456081950E+01  0.16152878887E+03  0.54847587508E+02  0.21272815171E+03  0.12700000000E+03 0.  0.
<mgrwt>
<rscale>  0 0.52367133E+03</rscale>
<asrwt>0</asrwt>
<pdfrwt beam="1">  1        2 0.10046558E+00 0.52367133E+03</pdfrwt>
<pdfrwt beam="2">  1       -2 0.13926572E-01 0.52367133E+03</pdfrwt>
<totfact> 0.17747613E+03</totfact>
</mgrwt>
</event>
<event>
 4    1  0.1351183E-004  0.5421088E+03  0.7818608E-02  0.1003337E+00
          2   -1    0    0  501    0  0.00000000000E+00  0.00000000000E+00  0.92371899971E+03  0.92371899971E+03  0.25500000000E-02 0.  1.
         -2   -1    0    0    0  501 -0.00000000000E+00 -0.00000000000E+00 -0.79537698270E+02  0.79537698311E+02  0.25500000000E-02 0. -1.
    5000001    1    1    2    0    0  0.19863012029E+03 -0.38985835563E+02  0.18532485501E+03  0.30240390530E+03  0.12700000000E+03 0.  0.
   -5000001    1    1    2    0    0 -0.19863012029E+03  0.38985835563E+02  0.65885644643E+03  0.70085279272E+03  0.12700000000E+03 0.  0.
<mgrwt>
<rscale>  0 0.54210878E+03</rscale>
<asrwt>0</asrwt>
<pdfrwt beam="1">  1        2 0.13195985E+00 0.54210878E+03</pdfrwt>
<pdfrwt beam="2">  1       -2 0.11362529E-01 0.54210878E+03</pdfrwt>
<totfact> 0.17517964E+03</totfact>
</mgrwt>
</event>
<event>
 4    1  0.1351183E-004  0.3092792E+03  0.7818608E-02  0.1080692E+00
          2   -1    0    0  501    0  0.00000000000E+00  0.00000000000E+00  0.74992438229E+03  0.74992438230E+03  0.25500000000E-02 0.  1.
         -2   -1    0    0    0  501 -0.00000000000E+00 -0.00000000000E+00 -0.31887762664E+02  0.31887762766E+02  0.25500000000E-02 0. -1.
    5000001    1    1    2    0    0 -0.49126394688E+02 -0.25718624489E+02  0.18554133367E+03  0.23158030313E+03  0.12700000000E+03 0.  0.
   -5000001    1    1    2    0    0  0.49126394688E+02  0.25718624489E+02  0.53249528596E+03  0.55023184193E+03  0.12700000000E+03 0.  0.
<mgrwt>
<rscale>  0 0.30927923E+03</rscale>
<asrwt>0</asrwt>
<pdfrwt beam="1">  1        2 0.10713204E+00 0.30927923E+03</pdfrwt>
<pdfrwt beam="2">  1       -2 0.45553952E-02 0.30927923E+03</pdfrwt>
<totfact> 0.95383862E+03</totfact>
</mgrwt>
</event>
<event>
 4    1  0.1351183E-004  0.4947267E+03  0.7818608E-02  0.1015165E+00
          2   -1    0    0  501    0  0.00000000000E+00  0.00000000000E+00  0.19048154540E+04  0.19048154540E+04  0.25500000000E-02 0.  1.
         -2   -1    0    0    0  501 -0.00000000000E+00 -0.00000000000E+00 -0.32123128855E+02  0.32123128956E+02  0.25500000000E-02 0. -1.
    5000001    1    1    2    0    0  0.20741488824E+03 -0.69972487930E+01  0.11109879242E+04  0.11373183657E+04  0.12700000000E+03 0.  0.
   -5000001    1    1    2    0    0 -0.20741488824E+03  0.69972487930E+01  0.76170440101E+03  0.79962021727E+03  0.12700000000E+03 0.  0.
<mgrwt>
<rscale>  0 0.49472672E+03</rscale>
<asrwt>0</asrwt>
<pdfrwt beam="1">  1        2 0.27211651E+00 0.49472672E+03</pdfrwt>
<pdfrwt beam="2">  1       -2 0.45890182E-02 0.49472672E+03</pdfrwt>
<totfact> 0.21748389E+03</totfact>
</mgrwt>
</event>
<event>
 4    1  0.1351183E-004  0.4243065E+03  0.7818608E-02  0.1035674E+00
          2   -1    0    0  501    0  0.00000000000E+00  0.00000000000E+00  0.25509582066E+04  0.25509582066E+04  0.25500000000E-02 0.  1.
         -2   -1    0    0    0  501 -0.00000000000E+00 -0.00000000000E+00 -0.17643958872E+02  0.17643959056E+02  0.25500000000E-02 0. -1.
    5000001    1    1    2    0    0 -0.85488605280E+02 -0.13497000715E+03  0.91602612411E+03  0.93848711473E+03  0.12700000000E+03 0.  0.
   -5000001    1    1    2    0    0  0.85488605280E+02  0.13497000715E+03  0.16172881237E+04  0.16301150510E+04  0.12700000000E+03 0.  0.
<mgrwt>
<rscale>  0 0.42430650E+03</rscale>
<asrwt>0</asrwt>
<pdfrwt beam="1">  1        2 0.36442245E+00 0.42430650E+03</pdfrwt>
<pdfrwt beam="2">  1       -2 0.25205666E-02 0.42430650E+03</pdfrwt>
<totfact> 0.25696562E+03</totfact>
</mgrwt>
</event>
<event>
 4    1  0.1351183E-004  0.4308215E+03  0.7818608E-02  0.1033601E+00
          2   -1    0    0  501    0  0.00000000000E+00  0.00000000000E+00  0.31483867210E+04  0.31483867210E+04  0.25500000000E-02 0.  1.
         -2   -1    0    0    0  501 -0.00000000000E+00 -0.00000000000E+00 -0.14738274262E+02  0.14738274482E+02  0.25500000000E-02 0. -1.
    5000001    1    1    2    0    0  0.27841053110E+02 -0.15713067827E+03  0.10577468956E+04  0.10772291629E+04  0.12700000000E+03 0.  0.
   -5000001    1    1    2    0    0 -0.27841053110E+02  0.15713067827E+03  0.20759015511E+04  0.20858958326E+04  0.12700000000E+03 0.  0.
<mgrwt>
<rscale>  0 0.43082148E+03</rscale>
<asrwt>0</asrwt>
<pdfrwt beam="1">  1        2 0.44976972E+00 0.43082148E+03</pdfrwt>
<pdfrwt beam="2">  1       -2 0.21054669E-02 0.43082148E+03</pdfrwt>
<totfact> 0.16258195E+03</totfact>
</mgrwt>
</event>
<event>
 4    1  0.1351183E-004  0.6905651E+03  0.7818608E-02  0.9733505E-01
         -2   -1    0    0    0  501 -0.00000000000E+00  0.00000000000E+00  0.15508487980E+04  0.15508487980E+04  0.25500000000E-02 0. -1.
          2   -1    0    0  501    0  0.00000000000E+00 -0.00000000000E+00 -0.76874061462E+02  0.76874061504E+02  0.25500000000E-02 0.  1.
    5000001    1    1    2    0    0  0.28801551377E+03  0.11566875062E+03  0.93076882792E+03  0.98933907588E+03  0.12700000000E+03 0.  0.
   -5000001    1    1    2    0    0 -0.28801551377E+03 -0.11566875062E+03  0.54320590863E+03  0.63838378364E+03  0.12700000000E+03 0.  0.
<mgrwt>
<rscale>  0 0.69056512E+03</rscale>
<asrwt>0</asrwt>
<pdfrwt beam="1">  1        2 0.10982010E-01 0.69056512E+03</pdfrwt>
<pdfrwt beam="2">  1       -2 0.22154981E+00 0.69056512E+03</pdfrwt>
<totfact> 0.58499417E+01</totfact>
</mgrwt>
</event>
<event>
 4    1  0.1351183E-004  0.5313928E+03  0.7818608E-02  0.1005895E+00
         -2   -1    0    0    0  501 -0.00000000000E+00  0.00000000000E+00  0.43008509663E+03  0.43008509664E+03  0.25500000000E-02 0. -1.
          2   -1    0    0  501    0  0.00000000000E+00 -0.00000000000E+00 -0.16414093079E+03  0.16414093081E+03  0.25500000000E-02 0.  1.
    5000001    1    1    2    0    0 -0.12728842544E+03  0.18169443881E+03  0.21399920186E+03  0.33337646999E+03  0.12700000000E+03 0.  0.
   -5000001    1    1    2    0    0  0.12728842544E+03 -0.18169443881E+03  0.51944963987E+02  0.26084955746E+03  0.12700000000E+03 0.  0.
<mgrwt>
<rscale>  0 0.53139277E+03</rscale>
<asrwt>0</asrwt>
<pdfrwt beam="1">  1        2 0.23448704E-01 0.53139277E+03</pdfrwt>
<pdfrwt beam="2">  1       -2 0.61440728E-01 0.53139277E+03</pdfrwt>
<totfact> 0.58541213E+02</totfact>
</mgrwt>
</event>
<event>
 4    1  0.1351183E-004  0.6650464E+03  0.7818608E-02  0.9778948E-01
          2   -1    0    0  501    0  0.00000000000E+00  0.00000000000E+00  0.26675278406E+04  0.26675278406E+04  0.25500000000E-02 0.  1.
         -2   -1    0    0    0  501 -0.00000000000E+00 -0.00000000000E+00 -0.41450989290E+02  0.41450989368E+02  0.25500000000E-02 0. -1.
    5000001    1    1    2    0    0 -0.28470222928E+03  0.11324371657E+03  0.14097043023E+04  0.14481970579E+04  0.12700000000E+03 0.  0.
   -5000001    1    1    2    0    0  0.28470222928E+03 -0.11324371657E+03  0.12163725490E+04  0.12607817720E+04  0.12700000000E+03 0.  0.
<mgrwt>
<rscale>  0 0.66504637E+03</rscale>
<asrwt>0</asrwt>
<pdfrwt beam="1">  1        2 0.38107545E+00 0.66504637E+03</pdfrwt>
<pdfrwt beam="2">  1       -2 0.59215693E-02 0.66504637E+03</pdfrwt>
<totfact> 0.59435050E+02</totfact>
</mgrwt>
</event>
<event>
 4    1  0.1351183E-004  0.2726038E+03  0.7818608E-02  0.1099799E+00
         -2   -1    0    0    0  501 -0.00000000000E+00  0.00000000000E+00  0.19964961165E+02  0.19964961328E+02  0.25500000000E-02 0. -1.
          2   -1    0    0  501    0  0.00000000000E+00 -0.00000000000E+00 -0.93054047305E+03  0.93054047305E+03  0.25500000000E-02 0.  1.
    5000001    1    1    2    0    0  0.39312486772E+02 -0.25663447757E+02 -0.40069784375E+03  0.42295608065E+03  0.12700000000E+03 0.  0.
   -5000001    1    1    2    0    0 -0.39312486772E+02  0.25663447757E+02 -0.50987766813E+03  0.52754935373E+03  0.12700000000E+03 0.  0.
<mgrwt>
<rscale>  0 0.27260377E+03</rscale>
<asrwt>0</asrwt>
<pdfrwt beam="1">  1        2 0.13293433E+00 0.27260377E+03</pdfrwt>
<pdfrwt beam="2">  1       -2 0.28521379E-02 0.27260377E+03</pdfrwt>
<totfact> 0.14600584E+04</totfact>
</mgrwt>
</event>
<event>
 4    1  0.1351183E-004  0.4558456E+03  0.7818608E-02  0.1025993E+00
          2   -1    0    0  501    0  0.00000000000E+00  0.00000000000E+00  0.67802026672E+03  0.67802026672E+03  0.25500000000E-02 0.  1.
         -2   -1    0    0    0  501 -0.00000000000E+00 -0.00000000000E+00 -0.76618358563E+02  0.76618358605E+02  0.25500000000E-02 0. -1.
    5000001    1    1    2    0    0  0.75391742713E+02 -0.17068461409E+03  0.24828114582E+03  0.33554385663E+03  0.12700000000E+03 0.  0.
   -5000001    1    1    2    0    0 -0.75391742713E+02  0.17068461409E+03  0.35312076234E+03  0.41909476869E+03  0.12700000000E+03 0.  0.
<mgrwt>
<rscale>  0 0.45584559E+03</rscale>
<asrwt>0</asrwt>
<pdfrwt beam="1">  1        2 0.96860042E-01 0.45584559E+03</pdfrwt>
<pdfrwt beam="2">  1       -2 0.10945479E-01 0.45584559E+03</pdfrwt>
<totfact> 0.27541733E+03</totfact>
</mgrwt>
</event>
<event>
 4    1  0.1351183E-004  0.8392895E+03  0.7818608E-02  0.9504826E-01
         -2   -1    0    0    0  501 -0.00000000000E+00  0.00000000000E+00  0.98798701028E+03  0.98798701029E+03  0.25500000000E-02 0.  1.
          2   -1    0    0  501    0  0.00000000000E+00 -0.00000000000E+00 -0.17824296087E+03  0.17824296088E+03  0.25500000000E-02 0. -1.
    5000001    1    1    2    0    0 -0.53566668432E+02  0.35137519988E+03  0.15001728816E+03  0.40616265929E+03  0.12700000000E+03 0.  0.
   -5000001    1    1    2    0    0  0.53566668432E+02 -0.35137519988E+03  0.65972676126E+03  0.76006731188E+03  0.12700000000E+03 0.  0.
<mgrwt>
<rscale>  0 0.83928953E+03</rscale>
<asrwt>0</asrwt>
<pdfrwt beam="1">  1        2 0.25463280E-01 0.83928953E+03</pdfrwt>
<pdfrwt beam="2">  1       -2 0.14114100E+00 0.83928953E+03</pdfrwt>
<totfact> 0.75937141E+01</totfact>
</mgrwt>
</event>
<event>
 4    1  0.1351183E-004  0.4641617E+03  0.7818608E-02  0.1023581E+00
          2   -1    0    0  501    0  0.00000000000E+00  0.00000000000E+00  0.27446564691E+03  0.27446564692E+03  0.25500000000E-02 0.  1.
         -2   -1    0    0    0  501 -0.00000000000E+00 -0.00000000000E+00 -0.19624135365E+03  0.19624135367E+03  0.25500000000E-02 0. -1.
    5000001    1    1    2    0    0 -0.14849168480E+03 -0.34804733173E+02 -0.82881180368E+02  0.21508007803E+03  0.12700000000E+03 0.  0.
   -5000001    1    1    2    0    0  0.14849168480E+03  0.34804733173E+02  0.16110547363E+03  0.25562692256E+03  0.12700000000E+03 0.  0.
<mgrwt>
<rscale>  0 0.46416165E+03</rscale>
<asrwt>0</asrwt>
<pdfrwt beam="1">  1        2 0.39209378E-01 0.46416165E+03</pdfrwt>
<pdfrwt beam="2">  1       -2 0.28034479E-01 0.46416165E+03</pdfrwt>
<totfact> 0.15237064E+03</totfact>
</mgrwt>
</event>
<event>
 4    1  0.1351183E-004  0.4689607E+03  0.7818608E-02  0.1022214E+00
          2   -1    0    0  501    0  0.00000000000E+00  0.00000000000E+00  0.58075166153E+02  0.58075166209E+02  0.25500000000E-02 0.  1.
         -2   -1    0    0    0  501 -0.00000000000E+00 -0.00000000000E+00 -0.94672191284E+03  0.94672191284E+03  0.25500000000E-02 0. -1.
    5000001    1    1    2    0    0 -0.14235816273E+03 -0.10970464673E+03 -0.27090374333E+03  0.34902549214E+03  0.12700000000E+03 0.  0.
   -5000001    1    1    2    0    0  0.14235816273E+03  0.10970464673E+03 -0.61774300335E+03  0.65577158691E+03  0.12700000000E+03 0.  0.
<mgrwt>
<rscale>  0 0.46896069E+03</rscale>
<asrwt>0</asrwt>
<pdfrwt beam="1">  1        2 0.82964529E-02 0.46896069E+03</pdfrwt>
<pdfrwt beam="2">  1       -2 0.13524598E+00 0.46896069E+03</pdfrwt>
<totfact> 0.33638656E+02</totfact>
</mgrwt>
</event>
<event>
 4    1  0.1351183E-004  0.3958600E+03  0.7818608E-02  0.1045223E+00
         -2   -1    0    0    0  501 -0.00000000000E+00  0.00000000000E+00  0.12745255924E+03  0.12745255926E+03  0.25500000000E-02 0. -1.
          2   -1    0    0  501    0  0.00000000000E+00 -0.00000000000E+00 -0.30737942642E+03  0.30737942643E+03  0.25500000000E-02 0.  1.
    5000001    1    1    2    0    0 -0.10374787633E+03 -0.93711431558E+02 -0.24961245228E+02  0.19051907519E+03  0.12700000000E+03 0.  0.
   -5000001    1    1    2    0    0  0.10374787633E+03  0.93711431558E+02 -0.15496562196E+03  0.24431291050E+03  0.12700000000E+03 0.  0.
<mgrwt>
<rscale>  0 0.39586005E+03</rscale>
<asrwt>0</asrwt>
<pdfrwt beam="1">  1        2 0.43911346E-01 0.39586005E+03</pdfrwt>
<pdfrwt beam="2">  1       -2 0.18207509E-01 0.39586005E+03</pdfrwt>
<totfact> 0.28701791E+03</totfact>
</mgrwt>
</event>
<event>
 4    1  0.1351183E-004  0.2917323E+03  0.7818608E-02  0.1089448E+00
         -2   -1    0    0    0  501 -0.00000000000E+00  0.00000000000E+00  0.11010845106E+02  0.11010845401E+02  0.25500000000E-02 0. -1.
          2   -1    0    0  501    0  0.00000000000E+00 -0.00000000000E+00 -0.19323610731E+04  0.19323610731E+04  0.25500000000E-02 0.  1.
    5000001    1    1    2    0    0 -0.64931170659E+02  0.23911896317E+02 -0.83426587286E+03  0.84670914861E+03  0.12700000000E+03 0.  0.
   -5000001    1    1    2    0    0  0.64931170659E+02 -0.23911896317E+02 -0.10870843551E+04  0.10966627699E+04  0.12700000000E+03 0.  0.
<mgrwt>
<rscale>  0 0.29173227E+03</rscale>
<asrwt>0</asrwt>
<pdfrwt beam="1">  1        2 0.27605137E+00 0.29173227E+03</pdfrwt>
<pdfrwt beam="2">  1       -2 0.15729791E-02 0.29173227E+03</pdfrwt>
<totfact> 0.10501037E+04</totfact>
</mgrwt>
</event>
<event>
 4    1  0.1351183E-004  0.3647032E+03  0.7818608E-02  0.1056737E+00
          2   -1    0    0  501    0  0.00000000000E+00  0.00000000000E+00  0.25281942875E+03  0.25281942877E+03  0.25500000000E-02 0.  1.
         -2   -1    0    0    0  501 -0.00000000000E+00 -0.00000000000E+00 -0.13152509305E+03  0.13152509307E+03  0.25500000000E-02 0. -1.
    5000001    1    1    2    0    0  0.67574919079E+02  0.79497188231E+02 -0.22580260018E+02  0.16590672309E+03  0.12700000000E+03 0.  0.
   -5000001    1    1    2    0    0 -0.67574919079E+02 -0.79497188231E+02  0.14387459572E+03  0.21843779874E+03  0.12700000000E+03 0.  0.
<mgrwt>
<rscale>  0 0.36470316E+03</rscale>
<asrwt>0</asrwt>
<pdfrwt beam="1">  1        2 0.36117061E-01 0.36470316E+03</pdfrwt>
<pdfrwt beam="2">  1       -2 0.18789299E-01 0.36470316E+03</pdfrwt>
<totfact> 0.33611039E+03</totfact>
</mgrwt>
</event>
<event>
 4    1  0.1351183E-004  0.3267878E+03  0.7818608E-02  0.1072567E+00
          2   -1    0    0  501    0  0.00000000000E+00  0.00000000000E+00  0.21002276026E+03  0.21002276028E+03  0.25500000000E-02 0.  1.
         -2   -1    0    0    0  501 -0.00000000000E+00 -0.00000000000E+00 -0.12711747370E+03  0.12711747373E+03  0.25500000000E-02 0. -1.
    5000001    1    1    2    0    0  0.58058172049E+02  0.51561235692E+02 -0.28055685730E+02  0.15147750285E+03  0.12700000000E+03 0.  0.
   -5000001    1    1    2    0    0 -0.58058172049E+02 -0.51561235692E+02  0.11096097229E+03  0.18566273115E+03  0.12700000000E+03 0.  0.
<mgrwt>
<rscale>  0 0.32678778E+03</rscale>
<asrwt>0</asrwt>
<pdfrwt beam="1">  1        2 0.30003251E-01 0.32678778E+03</pdfrwt>
<pdfrwt beam="2">  1       -2 0.18159639E-01 0.32678778E+03</pdfrwt>
<totfact> 0.43548820E+03</totfact>
</mgrwt>
</event>
<event>
 4    1  0.1351183E-004  0.4472552E+03  0.7818608E-02  0.1028544E+00
         -2   -1    0    0    0  501 -0.00000000000E+00  0.00000000000E+00  0.20345699611E+02  0.20345699771E+02  0.25500000000E-02 0. -1.
          2   -1    0    0  501    0  0.00000000000E+00 -0.00000000000E+00 -0.24579789704E+04  0.24579789704E+04  0.25500000000E-02 0.  1.
    5000001    1    1    2    0    0  0.11837018288E+03 -0.11904439848E+03 -0.16370655260E+04  0.16505440332E+04  0.12700000000E+03 0.  0.
   -5000001    1    1    2    0    0 -0.11837018288E+03  0.11904439848E+03 -0.80056774484E+03  0.82778063706E+03  0.12700000000E+03 0.  0.
<mgrwt>
<rscale>  0 0.44725519E+03</rscale>
<asrwt>0</asrwt>
<pdfrwt beam="1">  1        2 0.35113966E+00 0.44725519E+03</pdfrwt>
<pdfrwt beam="2">  1       -2 0.29065301E-02 0.44725519E+03</pdfrwt>
<totfact> 0.23094858E+03</totfact>
</mgrwt>
</event>
<event>
 4    1  0.1351183E-004  0.3170819E+03  0.7818608E-02  0.1077000E+00
         -2   -1    0    0    0  501 -0.00000000000E+00  0.00000000000E+00  0.13027290071E+02  0.13027290321E+02  0.25500000000E-02 0. -1.
          2   -1    0    0  501    0  0.00000000000E+00 -0.00000000000E+00 -0.19294296532E+04  0.19294296532E+04  0.25500000000E-02 0.  1.
    5000001    1    1    2    0    0  0.11189989978E+01 -0.94894179282E+02 -0.95996169017E+03  0.97296536630E+03  0.12700000000E+03 0.  0.
   -5000001    1    1    2    0    0 -0.11189989978E+01  0.94894179282E+02 -0.95644067298E+03  0.96949157724E+03  0.12700000000E+03 0.  0.
<mgrwt>
<rscale>  0 0.31708195E+03</rscale>
<asrwt>0</asrwt>
<pdfrwt beam="1">  1        2 0.27563263E+00 0.31708195E+03</pdfrwt>
<pdfrwt beam="2">  1       -2 0.18610427E-02 0.31708195E+03</pdfrwt>
<totfact> 0.82360729E+03</totfact>
</mgrwt>
</event>
<event>
 4    1  0.1351183E-004  0.2743360E+03  0.7818608E-02  0.1098823E+00
          2   -1    0    0  501    0  0.00000000000E+00  0.00000000000E+00  0.12247691160E+03  0.12247691162E+03  0.25500000000E-02 0.  1.
         -2   -1    0    0    0  501 -0.00000000000E+00 -0.00000000000E+00 -0.15362132519E+03  0.15362132521E+03  0.25500000000E-02 0. -1.
    5000001    1    1    2    0    0 -0.11633262572E+02 -0.49370522676E+02 -0.48603348347E+01  0.13684079860E+03  0.12700000000E+03 0.  0.
   -5000001    1    1    2    0    0  0.11633262572E+02  0.49370522676E+02 -0.26284078756E+02  0.13925743823E+03  0.12700000000E+03 0.  0.
<mgrwt>
<rscale>  0 0.27433604E+03</rscale>
<asrwt>0</asrwt>
<pdfrwt beam="1">  1        2 0.17496702E-01 0.27433604E+03</pdfrwt>
<pdfrwt beam="2">  1       -2 0.21945904E-01 0.27433604E+03</pdfrwt>
<totfact> 0.57624209E+03</totfact>
</mgrwt>
</event>
<event>
 4    1  0.1351183E-004  0.3486847E+03  0.7818608E-02  0.1063156E+00
         -2   -1    0    0    0  501 -0.00000000000E+00  0.00000000000E+00  0.10945962268E+04  0.10945962268E+04  0.25500000000E-02 0. -1.
          2   -1    0    0  501    0  0.00000000000E+00 -0.00000000000E+00 -0.27768458142E+02  0.27768458260E+02  0.25500000000E-02 0.  1.
    5000001    1    1    2    0    0 -0.44033933719E+02  0.10931335713E+03  0.59598330333E+03  0.62065569781E+03  0.12700000000E+03 0.  0.
   -5000001    1    1    2    0    0  0.44033933719E+02 -0.10931335713E+03  0.47084446528E+03  0.50170898721E+03  0.12700000000E+03 0.  0.
<mgrwt>
<rscale>  0 0.34868467E+03</rscale>
<asrwt>0</asrwt>
<pdfrwt beam="1">  1        2 0.39669231E-02 0.34868467E+03</pdfrwt>
<pdfrwt beam="2">  1       -2 0.15637087E+00 0.34868467E+03</pdfrwt>
<totfact> 0.61305027E+02</totfact>
</mgrwt>
</event>
<event>
 4    1  0.1351183E-004  0.3989407E+03  0.7818608E-02  0.1044147E+00
         -2   -1    0    0    0  501 -0.00000000000E+00  0.00000000000E+00  0.20931474604E+02  0.20931474759E+02  0.25500000000E-02 0. -1.
          2   -1    0    0  501    0  0.00000000000E+00 -0.00000000000E+00 -0.19008899402E+04  0.19008899402E+04  0.25500000000E-02 0.  1.
    5000001    1    1    2    0    0  0.58298634779E+02  0.99728345735E+02 -0.45072079870E+03  0.48230976783E+03  0.12700000000E+03 0.  0.
   -5000001    1    1    2    0    0 -0.58298634779E+02 -0.99728345735E+02 -0.14292376669E+04  0.14395116472E+04  0.12700000000E+03 0.  0.
<mgrwt>
<rscale>  0 0.39894075E+03</rscale>
<asrwt>0</asrwt>
<pdfrwt beam="1">  1        2 0.27155559E+00 0.39894075E+03</pdfrwt>
<pdfrwt beam="2">  1       -2 0.29902119E-02 0.39894075E+03</pdfrwt>
<totfact> 0.42007540E+03</totfact>
</mgrwt>
</event>
<event>
 4    1  0.1351183E-004  0.6467317E+03  0.7818608E-02  0.9812931E-01
         -2   -1    0    0    0  501 -0.00000000000E+00  0.00000000000E+00  0.25655294223E+03  0.25655294224E+03  0.25500000000E-02 0. -1.
          2   -1    0    0  501    0  0.00000000000E+00 -0.00000000000E+00 -0.40757858395E+03  0.40757858396E+03  0.25500000000E-02 0.  1.
    5000001    1    1    2    0    0  0.69594223860E+01  0.16172802611E+03  0.18066241249E+03  0.27381069240E+03  0.12700000000E+03 0.  0.
   -5000001    1    1    2    0    0 -0.69594223860E+01 -0.16172802611E+03 -0.33168805421E+03  0.39032083380E+03  0.12700000000E+03 0.  0.
<mgrwt>
<rscale>  0 0.64673174E+03</rscale>
<asrwt>0</asrwt>
<pdfrwt beam="1">  1        2 0.58225512E-01 0.64673174E+03</pdfrwt>
<pdfrwt beam="2">  1       -2 0.36650420E-01 0.64673174E+03</pdfrwt>
<totfact> 0.59714417E+02</totfact>
</mgrwt>
</event>
<event>
 4    1  0.1351183E-004  0.6514680E+03  0.7818608E-02  0.9804028E-01
          2   -1    0    0  501    0  0.00000000000E+00  0.00000000000E+00  0.21293226479E+03  0.21293226481E+03  0.25500000000E-02 0.  1.
         -2   -1    0    0    0  501 -0.00000000000E+00 -0.00000000000E+00 -0.49829296134E+03  0.49829296135E+03  0.25500000000E-02 0. -1.
    5000001    1    1    2    0    0  0.12290651046E+03  0.18466720436E+03  0.77744877183E+02  0.26717270184E+03  0.12700000000E+03 0.  0.
   -5000001    1    1    2    0    0 -0.12290651046E+03 -0.18466720436E+03 -0.36310557374E+03  0.44405252432E+03  0.12700000000E+03 0.  0.
<mgrwt>
<rscale>  0 0.65146803E+03</rscale>
<asrwt>0</asrwt>
<pdfrwt beam="1">  1        2 0.30418895E-01 0.65146803E+03</pdfrwt>
<pdfrwt beam="2">  1       -2 0.71184708E-01 0.65146803E+03</pdfrwt>
<totfact> 0.31695108E+02</totfact>
</mgrwt>
</event>
<event>
 4    1  0.1351183E-004  0.4238363E+03  0.7818608E-02  0.1035825E+00
         -2   -1    0    0    0  501 -0.00000000000E+00  0.00000000000E+00  0.16527270692E+02  0.16527270889E+02  0.25500000000E-02 0. -1.
          2   -1    0    0  501    0  0.00000000000E+00 -0.00000000000E+00 -0.27172850662E+04  0.27172850662E+04  0.25500000000E-02 0.  1.
    5000001    1    1    2    0    0 -0.14987038698E+03  0.79224674640E+02 -0.13082676272E+04  0.13253040657E+04  0.12700000000E+03 0.  0.
   -5000001    1    1    2    0    0  0.14987038698E+03 -0.79224674640E+02 -0.13924901682E+04  0.14085082714E+04  0.12700000000E+03 0.  0.
<mgrwt>
<rscale>  0 0.42383632E+03</rscale>
<asrwt>0</asrwt>
<pdfrwt beam="1">  1        2 0.38818330E+00 0.42383632E+03</pdfrwt>
<pdfrwt beam="2">  1       -2 0.23610404E-02 0.42383632E+03</pdfrwt>
<totfact> 0.23279343E+03</totfact>
</mgrwt>
</event>
<event>
 4    1  0.1351183E-004  0.4581428E+03  0.7818608E-02  0.1025321E+00
          2   -1    0    0  501    0  0.00000000000E+00  0.00000000000E+00  0.35386250238E+03  0.35386250239E+03  0.25500000000E-02 0.  1.
         -2   -1    0    0    0  501 -0.00000000000E+00 -0.00000000000E+00 -0.14828841887E+03  0.14828841889E+03  0.25500000000E-02 0. -1.
    5000001    1    1    2    0    0 -0.16768353870E+03 -0.73475751121E+01  0.36986153138E+01  0.21050994221E+03  0.12700000000E+03 0.  0.
   -5000001    1    1    2    0    0  0.16768353870E+03  0.73475751121E+01  0.20187546820E+03  0.29164097907E+03  0.12700000000E+03 0.  0.
<mgrwt>
<rscale>  0 0.45814282E+03</rscale>
<asrwt>0</asrwt>
<pdfrwt beam="1">  1        2 0.50551785E-01 0.45814282E+03</pdfrwt>
<pdfrwt beam="2">  1       -2 0.21184060E-01 0.45814282E+03</pdfrwt>
<totfact> 0.18989754E+03</totfact>
</mgrwt>
</event>
<event>
 4    1  0.1351183E-004  0.5286004E+03  0.7818608E-02  0.1006572E+00
          2   -1    0    0  501    0  0.00000000000E+00  0.00000000000E+00  0.21344879921E+03  0.21344879922E+03  0.25500000000E-02 0.  1.
         -2   -1    0    0    0  501 -0.00000000000E+00 -0.00000000000E+00 -0.32726625065E+03  0.32726625066E+03  0.25500000000E-02 0. -1.
    5000001    1    1    2    0    0  0.12964726872E+03 -0.15172449333E+03 -0.17749537028E+03  0.29574032974E+03  0.12700000000E+03 0.  0.
   -5000001    1    1    2    0    0 -0.12964726872E+03  0.15172449333E+03  0.63677918833E+02  0.24497472015E+03  0.12700000000E+03 0.  0.
<mgrwt>
<rscale>  0 0.52860037E+03</rscale>
<asrwt>0</asrwt>
<pdfrwt beam="1">  1        2 0.30492686E-01 0.52860037E+03</pdfrwt>
<pdfrwt beam="2">  1       -2 0.46752321E-01 0.52860037E+03</pdfrwt>
<totfact> 0.76138467E+02</totfact>
</mgrwt>
</event>
<event>
 4    1  0.1351183E-004  0.3131442E+03  0.7818608E-02  0.1078849E+00
         -2   -1    0    0    0  501 -0.00000000000E+00  0.00000000000E+00  0.41952314985E+02  0.41952315062E+02  0.25500000000E-02 0. -1.
          2   -1    0    0  501    0  0.00000000000E+00 -0.00000000000E+00 -0.58434973972E+03  0.58434973972E+03  0.25500000000E-02 0.  1.
    5000001    1    1    2    0    0 -0.23548133426E+02  0.84340251926E+02 -0.21760531946E+03  0.26673745095E+03  0.12700000000E+03 0.  0.
   -5000001    1    1    2    0    0  0.23548133426E+02 -0.84340251926E+02 -0.32479210527E+03  0.35956460383E+03  0.12700000000E+03 0.  0.
<mgrwt>
<rscale>  0 0.31314421E+03</rscale>
<asrwt>0</asrwt>
<pdfrwt beam="1">  1        2 0.83478529E-01 0.31314421E+03</pdfrwt>
<pdfrwt beam="2">  1       -2 0.59931882E-02 0.31314421E+03</pdfrwt>
<totfact> 0.84146660E+03</totfact>
</mgrwt>
</event>
<event>
 4    1  0.1351183E-004  0.4999784E+03  0.7818608E-02  0.1013785E+00
          2   -1    0    0  501    0  0.00000000000E+00  0.00000000000E+00  0.46024212015E+03  0.46024212015E+03  0.25500000000E-02 0.  1.
         -2   -1    0    0    0  501 -0.00000000000E+00 -0.00000000000E+00 -0.13578634667E+03  0.13578634669E+03  0.25500000000E-02 0. -1.
    5000001    1    1    2    0    0  0.85538140961E+02 -0.17999153969E+03  0.25945504463E+03  0.35094108922E+03  0.12700000000E+03 0.  0.
   -5000001    1    1    2    0    0 -0.85538140961E+02  0.17999153969E+03  0.65000728845E+02  0.24508737762E+03  0.12700000000E+03 0.  0.
<mgrwt>
<rscale>  0 0.49997838E+03</rscale>
<asrwt>0</asrwt>
<pdfrwt beam="1">  1        2 0.65748875E-01 0.49997838E+03</pdfrwt>
<pdfrwt beam="2">  1       -2 0.19398049E-01 0.49997838E+03</pdfrwt>
<totfact> 0.16557224E+03</totfact>
</mgrwt>
</event>
<event>
 4    1  0.1351183E-004  0.4471640E+03  0.7818608E-02  0.1028571E+00
          2   -1    0    0  501    0  0.00000000000E+00  0.00000000000E+00  0.15743596147E+04  0.15743596147E+04  0.25500000000E-02 0.  1.
         -2   -1    0    0    0  501 -0.00000000000E+00 -0.00000000000E+00 -0.31751896090E+02  0.31751896192E+02  0.25500000000E-02 0. -1.
    5000001    1    1    2    0    0 -0.56359587670E+02  0.87585950372E-01  0.14214359067E+03  0.19877175645E+03  0.12700000000E+03 0.  0.
   -5000001    1    1    2    0    0  0.56359587670E+02 -0.87585950372E-01  0.14004641279E+04  0.14073397544E+04  0.12700000000E+03 0.  0.
<mgrwt>
<rscale>  0 0.44716397E+03</rscale>
<asrwt>0</asrwt>
<pdfrwt beam="1">  1        2 0.22490850E+00 0.44716397E+03</pdfrwt>
<pdfrwt beam="2">  1       -2 0.45359855E-02 0.44716397E+03</pdfrwt>
<totfact> 0.32506460E+03</totfact>
</mgrwt>
</event>
<event>
 4    1  0.1351183E-004  0.7354196E+03  0.7818608E-02  0.9658506E-01
         -2   -1    0    0    0  501 -0.00000000000E+00  0.00000000000E+00  0.69083116213E+02  0.69083116260E+02  0.25500000000E-02 0. -1.
          2   -1    0    0  501    0  0.00000000000E+00 -0.00000000000E+00 -0.19572148062E+04  0.19572148062E+04  0.25500000000E-02 0.  1.
    5000001    1    1    2    0    0  0.30052042455E+03  0.14695738871E+03 -0.71071825277E+03  0.79571253257E+03  0.12700000000E+03 0.  0.
   -5000001    1    1    2    0    0 -0.30052042455E+03 -0.14695738871E+03 -0.11774134372E+04  0.12305853899E+04  0.12700000000E+03 0.  0.
<mgrwt>
<rscale>  0 0.73541960E+03</rscale>
<asrwt>0</asrwt>
<pdfrwt beam="1">  1        2 0.27960208E+00 0.73541960E+03</pdfrwt>
<pdfrwt beam="2">  1       -2 0.98690178E-02 0.73541960E+03</pdfrwt>
<totfact> 0.60366367E+02</totfact>
</mgrwt>
</event>
<event>
 4    1  0.1351183E-004  0.3469460E+03  0.7818608E-02  0.1063876E+00
          2   -1    0    0  501    0  0.00000000000E+00  0.00000000000E+00  0.35122460938E+03  0.35122460938E+03  0.25500000000E-02 0.  1.
         -2   -1    0    0    0  501 -0.00000000000E+00 -0.00000000000E+00 -0.85679901249E+02  0.85679901287E+02  0.25500000000E-02 0. -1.
    5000001    1    1    2    0    0  0.80630483627E+02 -0.55514264787E+02  0.21612135047E+03  0.26911065868E+03  0.12700000000E+03 0.  0.
   -5000001    1    1    2    0    0 -0.80630483627E+02  0.55514264787E+02  0.49423357653E+02  0.16779385199E+03  0.12700000000E+03 0.  0.
<mgrwt>
<rscale>  0 0.34694605E+03</rscale>
<asrwt>0</asrwt>
<pdfrwt beam="1">  1        2 0.50174945E-01 0.34694605E+03</pdfrwt>
<pdfrwt beam="2">  1       -2 0.12239986E-01 0.34694605E+03</pdfrwt>
<totfact> 0.47947364E+03</totfact>
</mgrwt>
</event>
<event>
 4    1  0.1351183E-004  0.6654238E+03  0.7818608E-02  0.9778260E-01
          2   -1    0    0  501    0  0.00000000000E+00  0.00000000000E+00  0.82236025490E+03  0.82236025490E+03  0.25500000000E-02 0.  1.
         -2   -1    0    0    0  501 -0.00000000000E+00 -0.00000000000E+00 -0.13460915647E+03  0.13460915650E+03  0.25500000000E-02 0. -1.
    5000001    1    1    2    0    0  0.23761700772E+03  0.18271716372E+03  0.24506387948E+03  0.40747111469E+03  0.12700000000E+03 0.  0.
   -5000001    1    1    2    0    0 -0.23761700772E+03 -0.18271716372E+03  0.44268721894E+03  0.54949829671E+03  0.12700000000E+03 0.  0.
<mgrwt>
<rscale>  0 0.66542384E+03</rscale>
<asrwt>0</asrwt>
<pdfrwt beam="1">  1        2 0.11748004E+00 0.66542384E+03</pdfrwt>
<pdfrwt beam="2">  1       -2 0.19229879E-01 0.66542384E+03</pdfrwt>
<totfact> 0.84101538E+02</totfact>
</mgrwt>
</event>
<event>
 4    1  0.1351183E-004  0.4015910E+03  0.7818608E-02  0.1043230E+00
          2   -1    0    0  501    0  0.00000000000E+00  0.00000000000E+00  0.18870753718E+04  0.18870753718E+04  0.25500000000E-02 0.  1.
         -2   -1    0    0    0  501 -0.00000000000E+00 -0.00000000000E+00 -0.21365775173E+02  0.21365775325E+02  0.25500000000E-02 0. -1.
    5000001    1    1    2    0    0  0.78022181614E+02 -0.13341129013E+03  0.10156843329E+04  0.10351954874E+04  0.12700000000E+03 0.  0.
   -5000001    1    1    2    0    0 -0.78022181614E+02  0.13341129013E+03  0.85002526378E+03  0.87324565972E+03  0.12700000000E+03 0.  0.
<mgrwt>
<rscale>  0 0.40159098E+03</rscale>
<asrwt>0</asrwt>
<pdfrwt beam="1">  1        2 0.26958232E+00 0.40159098E+03</pdfrwt>
<pdfrwt beam="2">  1       -2 0.30522522E-02 0.40159098E+03</pdfrwt>
<totfact> 0.41374534E+03</totfact>
</mgrwt>
</event>
<event>
 4    1  0.1351183E-004  0.4662772E+03  0.7818608E-02  0.1022976E+00
         -2   -1    0    0    0  501 -0.00000000000E+00  0.00000000000E+00  0.11709257463E+03  0.11709257466E+03  0.25500000000E-02 0. -1.
          2   -1    0    0  501    0  0.00000000000E+00 -0.00000000000E+00 -0.46419336673E+03  0.46419336674E+03  0.25500000000E-02 0.  1.
    5000001    1    1    2    0    0  0.18446584170E+03 -0.62493576677E+02 -0.15226572832E+03  0.27793334794E+03  0.12700000000E+03 0.  0.
   -5000001    1    1    2    0    0 -0.18446584170E+03  0.62493576677E+02 -0.19483506378E+03  0.30335259345E+03  0.12700000000E+03 0.  0.
<mgrwt>
<rscale>  0 0.46627716E+03</rscale>
<asrwt>0</asrwt>
<pdfrwt beam="1">  1        2 0.66313337E-01 0.46627716E+03</pdfrwt>
<pdfrwt beam="2">  1       -2 0.16727511E-01 0.46627716E+03</pdfrwt>
<totfact> 0.21119172E+03</totfact>
</mgrwt>
</event>
<event>
 4    1  0.1351183E-004  0.3683263E+03  0.7818608E-02  0.1055335E+00
          2   -1    0    0  501    0  0.00000000000E+00  0.00000000000E+00  0.16693398166E+04  0.16693398166E+04  0.25500000000E-02 0.  1.
         -2   -1    0    0    0  501 -0.00000000000E+00 -0.00000000000E+00 -0.20317048478E+02  0.20317048638E+02  0.25500000000E-02 0. -1.
    5000001    1    1    2    0    0 -0.77496996192E+01 -0.10615434986E+03  0.45585360163E+03  0.48503640065E+03  0.12700000000E+03 0.  0.
   -5000001    1    1    2    0    0  0.77496996192E+01  0.10615434986E+03  0.11931691665E+04  0.12046204646E+04  0.12700000000E+03 0.  0.
<mgrwt>
<rscale>  0 0.36832626E+03</rscale>
<asrwt>0</asrwt>
<pdfrwt beam="1">  1        2 0.23847711E+00 0.36832626E+03</pdfrwt>
<pdfrwt beam="2">  1       -2 0.29024356E-02 0.36832626E+03</pdfrwt>
<totfact> 0.57265720E+03</totfact>
</mgrwt>
</event>
<event>
 4    1  0.1351183E-004  0.3759853E+03  0.7818608E-02  0.1052428E+00
          2   -1    0    0  501    0  0.00000000000E+00  0.00000000000E+00  0.87862517885E+03  0.87862517886E+03  0.25500000000E-02 0.  1.
         -2   -1    0    0    0  501 -0.00000000000E+00 -0.00000000000E+00 -0.40223330453E+02  0.40223330534E+02  0.25500000000E-02 0. -1.
    5000001    1    1    2    0    0 -0.15040649142E+02 -0.13705685176E+03  0.38451651436E+03  0.42777652057E+03  0.12700000000E+03 0.  0.
   -5000001    1    1    2    0    0  0.15040649142E+02  0.13705685176E+03  0.45388533404E+03  0.49107198882E+03  0.12700000000E+03 0.  0.
<mgrwt>
<rscale>  0 0.37598527E+03</rscale>
<asrwt>0</asrwt>
<pdfrwt beam="1">  1        2 0.12551787E+00 0.37598527E+03</pdfrwt>
<pdfrwt beam="2">  1       -2 0.57461905E-02 0.37598527E+03</pdfrwt>
<totfact> 0.55055187E+03</totfact>
</mgrwt>
</event>
<event>
 4    1  0.1351183E-004  0.5238005E+03  0.7818608E-02  0.1007747E+00
         -2   -1    0    0    0  501 -0.00000000000E+00  0.00000000000E+00  0.25595830516E+03  0.25595830518E+03  0.25500000000E-02 0. -1.
          2   -1    0    0  501    0  0.00000000000E+00 -0.00000000000E+00 -0.26798017197E+03  0.26798017198E+03  0.25500000000E-02 0.  1.
    5000001    1    1    2    0    0 -0.19487256370E+03 -0.12279515559E+02  0.11375634099E+03  0.25922115596E+03  0.12700000000E+03 0.  0.
   -5000001    1    1    2    0    0  0.19487256370E+03  0.12279515559E+02 -0.12577820779E+03  0.26471732119E+03  0.12700000000E+03 0.  0.
<mgrwt>
<rscale>  0 0.52380054E+03</rscale>
<asrwt>0</asrwt>
<pdfrwt beam="1">  1        2 0.38282882E-01 0.52380054E+03</pdfrwt>
<pdfrwt beam="2">  1       -2 0.36565472E-01 0.52380054E+03</pdfrwt>
<totfact> 0.95470822E+02</totfact>
</mgrwt>
</event>
<event>
 4    1  0.1351183E-004  0.3314234E+03  0.7818608E-02  0.1070509E+00
         -2   -1    0    0    0  501 -0.00000000000E+00  0.00000000000E+00  0.12940718929E+02  0.12940719180E+02  0.25500000000E-02 0. -1.
          2   -1    0    0  501    0  0.00000000000E+00 -0.00000000000E+00 -0.21220127612E+04  0.21220127612E+04  0.25500000000E-02 0.  1.
    5000001    1    1    2    0    0  0.90976656410E+02 -0.54600712287E+02 -0.99935400402E+03  0.10129636791E+04  0.12700000000E+03 0.  0.
   -5000001    1    1    2    0    0 -0.90976656410E+02  0.54600712287E+02 -0.11097180382E+04  0.11219898013E+04  0.12700000000E+03 0.  0.
<mgrwt>
<rscale>  0 0.33142342E+03</rscale>
<asrwt>0</asrwt>
<pdfrwt beam="1">  1        2 0.30314446E+00 0.33142342E+03</pdfrwt>
<pdfrwt beam="2">  1       -2 0.18486755E-02 0.33142342E+03</pdfrwt>
<totfact> 0.66924692E+03</totfact>
</mgrwt>
</event>
<event>
 4    1  0.1351183E-004  0.4281241E+03  0.7818608E-02  0.1034454E+00
         -2   -1    0    0    0  501 -0.00000000000E+00  0.00000000000E+00  0.25064512291E+03  0.25064512292E+03  0.25500000000E-02 0. -1.
          2   -1    0    0  501    0  0.00000000000E+00 -0.00000000000E+00 -0.18281851977E+03  0.18281851979E+03  0.25500000000E-02 0.  1.
    5000001    1    1    2    0    0 -0.13845530513E+03 -0.96170811582E+02 -0.22373860869E+01  0.21107511084E+03  0.12700000000E+03 0.  0.
   -5000001    1    1    2    0    0  0.13845530513E+03  0.96170811582E+02  0.70063989226E+02  0.22238853187E+03  0.12700000000E+03 0.  0.
<mgrwt>
<rscale>  0 0.42812414E+03</rscale>
<asrwt>0</asrwt>
<pdfrwt beam="1">  1        2 0.26116931E-01 0.42812414E+03</pdfrwt>
<pdfrwt beam="2">  1       -2 0.35806446E-01 0.42812414E+03</pdfrwt>
<totfact> 0.15195105E+03</totfact>
</mgrwt>
</event>
<event>
 4    1  0.1351183E-004  0.3587359E+03  0.7818608E-02  0.1059086E+00
         -2   -1    0    0    0  501 -0.00000000000E+00  0.00000000000E+00  0.42936411403E+02  0.42936411479E+02  0.25500000000E-02 0. -1.
          2   -1    0    0  501    0  0.00000000000E+00 -0.00000000000E+00 -0.74931397877E+03  0.74931397878E+03  0.25500000000E-02 0.  1.
    5000001    1    1    2    0    0 -0.55068681903E+02 -0.77226051845E+02 -0.16779162367E+03  0.23082342122E+03  0.12700000000E+03 0.  0.
   -5000001    1    1    2    0    0  0.55068681903E+02  0.77226051845E+02 -0.53858594370E+03  0.56142696904E+03  0.12700000000E+03 0.  0.
<mgrwt>
<rscale>  0 0.35873585E+03</rscale>
<asrwt>0</asrwt>
<pdfrwt beam="1">  1        2 0.10704485E+00 0.35873585E+03</pdfrwt>
<pdfrwt beam="2">  1       -2 0.61337735E-02 0.35873585E+03</pdfrwt>
<totfact> 0.60777128E+03</totfact>
</mgrwt>
</event>
<event>
 4    1  0.1351183E-004  0.4309418E+03  0.7818608E-02  0.1033563E+00
          2   -1    0    0  501    0  0.00000000000E+00  0.00000000000E+00  0.30355248580E+04  0.30355248580E+04  0.25500000000E-02 0.  1.
         -2   -1    0    0    0  501 -0.00000000000E+00 -0.00000000000E+00 -0.15294787826E+02  0.15294788039E+02  0.25500000000E-02 0. -1.
    5000001    1    1    2    0    0  0.16765081984E+03  0.10506079777E+01  0.11787550583E+04  0.11973722849E+04  0.12700000000E+03 0.  0.
   -5000001    1    1    2    0    0 -0.16765081984E+03 -0.10506079777E+01  0.18414750119E+04  0.18534473612E+04  0.12700000000E+03 0.  0.
<mgrwt>
<rscale>  0 0.43094180E+03</rscale>
<asrwt>0</asrwt>
<pdfrwt beam="1">  1        2 0.43364605E+00 0.43094180E+03</pdfrwt>
<pdfrwt beam="2">  1       -2 0.21849715E-02 0.43094180E+03</pdfrwt>
<totfact> 0.17727927E+03</totfact>
</mgrwt>
</event>
<event>
 4    1  0.1351183E-004  0.3129139E+03  0.7818608E-02  0.1078958E+00
          2   -1    0    0  501    0  0.00000000000E+00  0.00000000000E+00  0.56234138497E+03  0.56234138497E+03  0.25500000000E-02 0.  1.
         -2   -1    0    0    0  501 -0.00000000000E+00 -0.00000000000E+00 -0.43530094347E+02  0.43530094422E+02  0.25500000000E-02 0. -1.
    5000001    1    1    2    0    0 -0.52265947627E+02 -0.57194355624E+02  0.16560661484E+03  0.22261508142E+03  0.12700000000E+03 0.  0.
   -5000001    1    1    2    0    0  0.52265947627E+02  0.57194355624E+02  0.35320467578E+03  0.38325639797E+03  0.12700000000E+03 0.  0.
<mgrwt>
<rscale>  0 0.31291388E+03</rscale>
<asrwt>0</asrwt>
<pdfrwt beam="1">  1        2 0.80334485E-01 0.31291388E+03</pdfrwt>
<pdfrwt beam="2">  1       -2 0.62185848E-02 0.31291388E+03</pdfrwt>
<totfact> 0.83038879E+03</totfact>
</mgrwt>
</event>
<event>
 4    1  0.1351183E-004  0.3167538E+03  0.7818608E-02  0.1077153E+00
          2   -1    0    0  501    0  0.00000000000E+00  0.00000000000E+00  0.25118664825E+03  0.25118664826E+03  0.25500000000E-02 0.  1.
         -2   -1    0    0    0  501 -0.00000000000E+00 -0.00000000000E+00 -0.99858994588E+02  0.99858994621E+02  0.25500000000E-02 0. -1.
    5000001    1    1    2    0    0 -0.65713149286E+02  0.67989030938E+02  0.71588828078E+02  0.17376618377E+03  0.12700000000E+03 0.  0.
   -5000001    1    1    2    0    0  0.65713149286E+02 -0.67989030938E+02  0.79738825581E+02  0.17727945911E+03  0.12700000000E+03 0.  0.
<mgrwt>
<rscale>  0 0.31675382E+03</rscale>
<asrwt>0</asrwt>
<pdfrwt beam="1">  1        2 0.35883807E-01 0.31675382E+03</pdfrwt>
<pdfrwt beam="2">  1       -2 0.14265571E-01 0.31675382E+03</pdfrwt>
<totfact> 0.53530377E+03</totfact>
</mgrwt>
</event>
<event>
 4    1  0.1351183E-004  0.5114875E+03  0.7818608E-02  0.1010823E+00
          2   -1    0    0  501    0  0.00000000000E+00  0.00000000000E+00  0.92475450753E+03  0.92475450753E+03  0.25500000000E-02 0.  1.
         -2   -1    0    0    0  501 -0.00000000000E+00 -0.00000000000E+00 -0.70726745842E+02  0.70726745888E+02  0.25500000000E-02 0. -1.
    5000001    1    1    2    0    0 -0.90025943259E+02  0.10842040044E+03  0.93209923774E+02  0.21136873842E+03  0.12700000000E+03 0.  0.
   -5000001    1    1    2    0    0  0.90025943259E+02 -0.10842040044E+03  0.76081783791E+03  0.78411251500E+03  0.12700000000E+03 0.  0.
<mgrwt>
<rscale>  0 0.51148754E+03</rscale>
<asrwt>0</asrwt>
<pdfrwt beam="1">  1        2 0.13210777E+00 0.51148754E+03</pdfrwt>
<pdfrwt beam="2">  1       -2 0.10103822E-01 0.51148754E+03</pdfrwt>
<totfact> 0.21173150E+03</totfact>
</mgrwt>
</event>
<event>
 4    1  0.1351183E-004  0.3711965E+03  0.7818608E-02  0.1054236E+00
         -2   -1    0    0    0  501 -0.00000000000E+00  0.00000000000E+00  0.16550950938E+02  0.16550951134E+02  0.25500000000E-02 0. -1.
          2   -1    0    0  501    0  0.00000000000E+00 -0.00000000000E+00 -0.20812525161E+04  0.20812525161E+04  0.25500000000E-02 0.  1.
    5000001    1    1    2    0    0  0.12165338595E+03 -0.46423993673E+02 -0.82370727189E+03  0.84355047464E+03  0.12700000000E+03 0.  0.
   -5000001    1    1    2    0    0 -0.12165338595E+03  0.46423993673E+02 -0.12409942933E+04  0.12542529926E+04  0.12700000000E+03 0.  0.
<mgrwt>
<rscale>  0 0.37119649E+03</rscale>
<asrwt>0</asrwt>
<pdfrwt beam="1">  1        2 0.29732162E+00 0.37119649E+03</pdfrwt>
<pdfrwt beam="2">  1       -2 0.23644229E-02 0.37119649E+03</pdfrwt>
<totfact> 0.48647130E+03</totfact>
</mgrwt>
</event>
<event>
 4    1  0.1351183E-004  0.3975714E+03  0.7818608E-02  0.1044624E+00
          2   -1    0    0  501    0  0.00000000000E+00  0.00000000000E+00  0.27303048724E+02  0.27303048843E+02  0.25500000000E-02 0.  1.
         -2   -1    0    0    0  501 -0.00000000000E+00 -0.00000000000E+00 -0.14473019842E+04  0.14473019842E+04  0.25500000000E-02 0. -1.
    5000001    1    1    2    0    0  0.11581302187E+02 -0.13994864963E+03 -0.48539605500E+03  0.52101639254E+03  0.12700000000E+03 0.  0.
   -5000001    1    1    2    0    0 -0.11581302187E+02  0.13994864963E+03 -0.93460288044E+03  0.95358864047E+03  0.12700000000E+03 0.  0.
<mgrwt>
<rscale>  0 0.39757141E+03</rscale>
<asrwt>0</asrwt>
<pdfrwt beam="1">  1        2 0.39004365E-02 0.39757141E+03</pdfrwt>
<pdfrwt beam="2">  1       -2 0.20675738E+00 0.39757141E+03</pdfrwt>
<totfact> 0.28688307E+02</totfact>
</mgrwt>
</event>
<event>
 4    1  0.1351183E-004  0.2993028E+03  0.7818608E-02  0.1085590E+00
         -2   -1    0    0    0  501 -0.00000000000E+00  0.00000000000E+00  0.20509938979E+02  0.20509939138E+02  0.25500000000E-02 0. -1.
          2   -1    0    0  501    0  0.00000000000E+00 -0.00000000000E+00 -0.10919359762E+04  0.10919359762E+04  0.25500000000E-02 0.  1.
    5000001    1    1    2    0    0  0.24067410827E+02 -0.74919415168E+02 -0.56776833099E+03  0.58709627551E+03  0.12700000000E+03 0.  0.
   -5000001    1    1    2    0    0 -0.24067410827E+02  0.74919415168E+02 -0.50365770623E+03  0.52534963983E+03  0.12700000000E+03 0.  0.
<mgrwt>
<rscale>  0 0.29930279E+03</rscale>
<asrwt>0</asrwt>
<pdfrwt beam="1">  1        2 0.15599082E+00 0.29930279E+03</pdfrwt>
<pdfrwt beam="2">  1       -2 0.29299920E-02 0.29930279E+03</pdfrwt>
<totfact> 0.11307544E+04</totfact>
</mgrwt>
</event>
<event>
 4    1  0.1351183E-004  0.4270485E+03  0.7818608E-02  0.1034796E+00
         -2   -1    0    0    0  501 -0.00000000000E+00  0.00000000000E+00  0.12700676461E+03  0.12700676464E+03  0.25500000000E-02 0. -1.
          2   -1    0    0  501    0  0.00000000000E+00 -0.00000000000E+00 -0.35897784005E+03  0.35897784006E+03  0.25500000000E-02 0.  1.
    5000001    1    1    2    0    0  0.16266677844E+03 -0.54501941867E+02 -0.10948079343E+03  0.23988744570E+03  0.12700000000E+03 0.  0.
   -5000001    1    1    2    0    0 -0.16266677844E+03  0.54501941867E+02 -0.12249028201E+03  0.24609715899E+03  0.12700000000E+03 0.  0.
<mgrwt>
<rscale>  0 0.42704854E+03</rscale>
<asrwt>0</asrwt>
<pdfrwt beam="1">  1        2 0.51282548E-01 0.42704854E+03</pdfrwt>
<pdfrwt beam="2">  1       -2 0.18143824E-01 0.42704854E+03</pdfrwt>
<totfact> 0.24404059E+03</totfact>
</mgrwt>
</event>
<event>
 4    1  0.1351183E-004  0.1909408E+04  0.7818608E-02  0.8650187E-01
         -2   -1    0    0    0  501 -0.00000000000E+00  0.00000000000E+00  0.39753533637E+03  0.39753533637E+03  0.25500000000E-02 0. -1.
          2   -1    0    0  501    0  0.00000000000E+00 -0.00000000000E+00 -0.22927775816E+04  0.22927775816E+04  0.25500000000E-02 0.  1.
    5000001    1    1    2    0    0  0.20331071864E+03 -0.91864817348E+03 -0.10890910803E+04  0.14448176688E+04  0.12700000000E+03 0.  0.
   -5000001    1    1    2    0    0 -0.20331071864E+03  0.91864817348E+03 -0.80615116497E+03  0.12454952492E+04  0.12700000000E+03 0.  0.
<mgrwt>
<rscale>  0 0.19094084E+04</rscale>
<asrwt>0</asrwt>
<pdfrwt beam="1">  1        2 0.32753965E+00 0.19094084E+04</pdfrwt>
<pdfrwt beam="2">  1       -2 0.56790764E-01 0.19094084E+04</pdfrwt>
<totfact> 0.15454454E+01</totfact>
</mgrwt>
</event>
<event>
 4    1  0.1351183E-004  0.4881337E+03  0.7818608E-02  0.1016923E+00
         -2   -1    0    0    0  501 -0.00000000000E+00  0.00000000000E+00  0.60431752809E+02  0.60431752862E+02  0.25500000000E-02 0. -1.
          2   -1    0    0  501    0  0.00000000000E+00 -0.00000000000E+00 -0.98571735600E+03  0.98571735600E+03  0.25500000000E-02 0.  1.
    5000001    1    1    2    0    0  0.20312224601E+03  0.45228943766E+02 -0.48757389504E+03  0.54512531339E+03  0.12700000000E+03 0.  0.
   -5000001    1    1    2    0    0 -0.20312224601E+03 -0.45228943766E+02 -0.43771170815E+03  0.50102379547E+03  0.12700000000E+03 0.  0.
<mgrwt>
<rscale>  0 0.48813370E+03</rscale>
<asrwt>0</asrwt>
<pdfrwt beam="1">  1        2 0.14081676E+00 0.48813370E+03</pdfrwt>
<pdfrwt beam="2">  1       -2 0.86331081E-02 0.48813370E+03</pdfrwt>
<totfact> 0.24984413E+03</totfact>
</mgrwt>
</event>
<event>
 4    1  0.1351183E-004  0.9838040E+03  0.7818608E-02  0.9326489E-01
         -2   -1    0    0    0  501 -0.00000000000E+00  0.00000000000E+00  0.36699377846E+03  0.36699377847E+03  0.25500000000E-02 0. -1.
          2   -1    0    0  501    0  0.00000000000E+00 -0.00000000000E+00 -0.65932337928E+03  0.65932337929E+03  0.25500000000E-02 0.  1.
    5000001    1    1    2    0    0 -0.30498057653E+03  0.27033387282E+03 -0.40115522520E+03  0.58578841706E+03  0.12700000000E+03 0.  0.
   -5000001    1    1    2    0    0  0.30498057653E+03 -0.27033387282E+03  0.10882562437E+03  0.44052874069E+03  0.12700000000E+03 0.  0.
<mgrwt>
<rscale>  0 0.98380400E+03</rscale>
<asrwt>0</asrwt>
<pdfrwt beam="1">  1        2 0.94189053E-01 0.98380400E+03</pdfrwt>
<pdfrwt beam="2">  1       -2 0.52427683E-01 0.98380400E+03</pdfrwt>
<totfact> 0.16618183E+02</totfact>
</mgrwt>
</event>
<event>
 4    1  0.1351183E-004  0.3650991E+03  0.7818608E-02  0.1056583E+00
         -2   -1    0    0    0  501 -0.00000000000E+00  0.00000000000E+00  0.91369310281E+02  0.91369310316E+02  0.25500000000E-02 0. -1.
          2   -1    0    0  501    0  0.00000000000E+00 -0.00000000000E+00 -0.36472135441E+03  0.36472135442E+03  0.25500000000E-02 0.  1.
    5000001    1    1    2    0    0 -0.64158598335E+02  0.82828091276E+02 -0.23518684375E+03  0.28708651992E+03  0.12700000000E+03 0.  0.
   -5000001    1    1    2    0    0  0.64158598335E+02 -0.82828091276E+02 -0.38165200374E+02  0.16900414481E+03  0.12700000000E+03 0.  0.
<mgrwt>
<rscale>  0 0.36509910E+03</rscale>
<asrwt>0</asrwt>
<pdfrwt beam="1">  1        2 0.52103050E-01 0.36509910E+03</pdfrwt>
<pdfrwt beam="2">  1       -2 0.13052759E-01 0.36509910E+03</pdfrwt>
<totfact> 0.41483957E+03</totfact>
</mgrwt>
</event>
<event>
 4    1  0.1351183E-004  0.6103758E+03  0.7818608E-02  0.9884110E-01
          2   -1    0    0  501    0  0.00000000000E+00  0.00000000000E+00  0.68490957348E+03  0.68490957349E+03  0.25500000000E-02 0.  1.
         -2   -1    0    0    0  501 -0.00000000000E+00 -0.00000000000E+00 -0.13598825596E+03  0.13598825599E+03  0.25500000000E-02 0. -1.
    5000001    1    1    2    0    0 -0.25217178725E+03  0.21317197485E+02  0.42760061653E+03  0.51285116794E+03  0.12700000000E+03 0.  0.
   -5000001    1    1    2    0    0  0.25217178725E+03 -0.21317197485E+02  0.12132070099E+03  0.30804666154E+03  0.12700000000E+03 0.  0.
<mgrwt>
<rscale>  0 0.61037581E+03</rscale>
<asrwt>0</asrwt>
<pdfrwt beam="1">  1        2 0.97844227E-01 0.61037581E+03</pdfrwt>
<pdfrwt beam="2">  1       -2 0.19426893E-01 0.61037581E+03</pdfrwt>
<totfact> 0.10404087E+03</totfact>
</mgrwt>
</event>
<event>
 4    1  0.1351183E-004  0.6624367E+03  0.7818608E-02  0.9783718E-01
         -2   -1    0    0    0  501 -0.00000000000E+00  0.00000000000E+00  0.36887113629E+03  0.36887113630E+03  0.25500000000E-02 0. -1.
          2   -1    0    0  501    0  0.00000000000E+00 -0.00000000000E+00 -0.29740902067E+03  0.29740902068E+03  0.25500000000E-02 0.  1.
    5000001    1    1    2    0    0  0.19023862974E+03  0.21756422823E+03 -0.65108671344E+02  0.32232447741E+03  0.12700000000E+03 0.  0.
   -5000001    1    1    2    0    0 -0.19023862974E+03 -0.21756422823E+03  0.13657078697E+03  0.34395567957E+03  0.12700000000E+03 0.  0.
<mgrwt>
<rscale>  0 0.66243672E+03</rscale>
<asrwt>0</asrwt>
<pdfrwt beam="1">  1        2 0.42487003E-01 0.66243672E+03</pdfrwt>
<pdfrwt beam="2">  1       -2 0.52695877E-01 0.66243672E+03</pdfrwt>
<totfact> 0.41257489E+02</totfact>
</mgrwt>
</event>
<event>
 4    1  0.1351183E-004  0.3277683E+03  0.7818608E-02  0.1072129E+00
          2   -1    0    0  501    0  0.00000000000E+00  0.00000000000E+00  0.77922785363E+03  0.77922785363E+03  0.25500000000E-02 0.  1.
         -2   -1    0    0    0  501 -0.00000000000E+00 -0.00000000000E+00 -0.34467473550E+02  0.34467473644E+02  0.25500000000E-02 0. -1.
    5000001    1    1    2    0    0  0.11263966350E+02  0.70156056441E+02  0.18527785218E+03  0.23559633211E+03  0.12700000000E+03 0.  0.
   -5000001    1    1    2    0    0 -0.11263966350E+02 -0.70156056441E+02  0.55948252790E+03  0.57809899517E+03  0.12700000000E+03 0.  0.
<mgrwt>
<rscale>  0 0.32776831E+03</rscale>
<asrwt>0</asrwt>
<pdfrwt beam="1">  1        2 0.11131827E+00 0.32776831E+03</pdfrwt>
<pdfrwt beam="2">  1       -2 0.49239244E-02 0.32776831E+03</pdfrwt>
<totfact> 0.80986497E+03</totfact>
</mgrwt>
</event>
<event>
 4    1  0.1351183E-004  0.2940085E+03  0.7818608E-02  0.1088275E+00
          2   -1    0    0  501    0  0.00000000000E+00  0.00000000000E+00  0.34102546189E+04  0.34102546189E+04  0.25500000000E-02 0.  1.
         -2   -1    0    0    0  501 -0.00000000000E+00 -0.00000000000E+00 -0.63368420814E+01  0.63368425945E+01  0.25500000000E-02 0. -1.
    5000001    1    1    2    0    0 -0.60283004307E+02 -0.29776315477E+02  0.13417958582E+04  0.13494687083E+04  0.12700000000E+03 0.  0.
   -5000001    1    1    2    0    0  0.60283004307E+02  0.29776315477E+02  0.20621219186E+04  0.20671227532E+04  0.12700000000E+03 0.  0.
<mgrwt>
<rscale>  0 0.29400848E+03</rscale>
<asrwt>0</asrwt>
<pdfrwt beam="1">  1        2 0.48717784E+00 0.29400848E+03</pdfrwt>
<pdfrwt beam="2">  1       -2 0.90526577E-03 0.29400848E+03</pdfrwt>
<totfact> 0.40673340E+03</totfact>
</mgrwt>
</event>
<event>
 4    1  0.1351183E-004  0.5878254E+03  0.7818608E-02  0.9930991E-01
         -2   -1    0    0    0  501 -0.00000000000E+00  0.00000000000E+00  0.31484902320E+02  0.31484902423E+02  0.25500000000E-02 0. -1.
          2   -1    0    0  501    0  0.00000000000E+00 -0.00000000000E+00 -0.27436860269E+04  0.27436860269E+04  0.25500000000E-02 0.  1.
    5000001    1    1    2    0    0  0.16654053571E+03  0.13734993079E+03 -0.62999088758E+03  0.67795152626E+03  0.12700000000E+03 0.  0.
   -5000001    1    1    2    0    0 -0.16654053571E+03 -0.13734993079E+03 -0.20822102370E+04  0.20972194030E+04  0.12700000000E+03 0.  0.
<mgrwt>
<rscale>  0 0.58782544E+03</rscale>
<asrwt>0</asrwt>
<pdfrwt beam="1">  1        2 0.39195499E+00 0.58782544E+03</pdfrwt>
<pdfrwt beam="2">  1       -2 0.44978449E-02 0.58782544E+03</pdfrwt>
<totfact> 0.83685799E+02</totfact>
</mgrwt>
</event>
<event>
 4    1  0.1351183E-004  0.3945877E+03  0.7818608E-02  0.1045670E+00
         -2   -1    0    0    0  501 -0.00000000000E+00  0.00000000000E+00  0.38336023751E+02  0.38336023836E+02  0.25500000000E-02 0. -1.
          2   -1    0    0  501    0  0.00000000000E+00 -0.00000000000E+00 -0.10153600921E+04  0.10153600921E+04  0.25500000000E-02 0.  1.
    5000001    1    1    2    0    0  0.83594797097E+02  0.24533009884E+02 -0.81780163314E+03  0.83217694624E+03  0.12700000000E+03 0.  0.
   -5000001    1    1    2    0    0 -0.83594797097E+02 -0.24533009884E+02 -0.15922243523E+03  0.22151916972E+03  0.12700000000E+03 0.  0.
<mgrwt>
<rscale>  0 0.39458773E+03</rscale>
<asrwt>0</asrwt>
<pdfrwt beam="1">  1        2 0.14505143E+00 0.39458773E+03</pdfrwt>
<pdfrwt beam="2">  1       -2 0.54765755E-02 0.39458773E+03</pdfrwt>
<totfact> 0.48858224E+03</totfact>
</mgrwt>
</event>
<event>
 4    1  0.1351183E-004  0.2941448E+03  0.7818608E-02  0.1088205E+00
         -2   -1    0    0    0  501 -0.00000000000E+00  0.00000000000E+00  0.76645795515E+01  0.76645799757E+01  0.25500000000E-02 0. -1.
          2   -1    0    0  501    0  0.00000000000E+00 -0.00000000000E+00 -0.28221105365E+04  0.28221105365E+04  0.25500000000E-02 0.  1.
    5000001    1    1    2    0    0  0.35720291163E+02 -0.54028633802E+02 -0.10595224388E+04  0.10690705453E+04  0.12700000000E+03 0.  0.
   -5000001    1    1    2    0    0 -0.35720291163E+02  0.54028633802E+02 -0.17549235182E+04  0.17607045712E+04  0.12700000000E+03 0.  0.
<mgrwt>
<rscale>  0 0.29414480E+03</rscale>
<asrwt>0</asrwt>
<pdfrwt beam="1">  1        2 0.40315798E+00 0.29414480E+03</pdfrwt>
<pdfrwt beam="2">  1       -2 0.10949418E-02 0.29414480E+03</pdfrwt>
<totfact> 0.64269361E+03</totfact>
</mgrwt>
</event>
<event>
 4    1  0.1351183E-004  0.4750410E+03  0.7818608E-02  0.1020507E+00
         -2   -1    0    0    0  501 -0.00000000000E+00  0.00000000000E+00  0.53175427036E+02  0.53175427097E+02  0.25500000000E-02 0. -1.
          2   -1    0    0  501    0  0.00000000000E+00 -0.00000000000E+00 -0.10609408710E+04  0.10609408710E+04  0.25500000000E-02 0.  1.
    5000001    1    1    2    0    0 -0.13044765954E+03  0.94475530654E+02 -0.78477912936E+03  0.81114086302E+03  0.12700000000E+03 0.  0.
   -5000001    1    1    2    0    0  0.13044765954E+03 -0.94475530654E+02 -0.22298631465E+03  0.30297543513E+03  0.12700000000E+03 0.  0.
<mgrwt>
<rscale>  0 0.47504098E+03</rscale>
<asrwt>0</asrwt>
<pdfrwt beam="1">  1        2 0.15156297E+00 0.47504098E+03</pdfrwt>
<pdfrwt beam="2">  1       -2 0.75964902E-02 0.47504098E+03</pdfrwt>
<totfact> 0.27598016E+03</totfact>
</mgrwt>
</event>
<event>
 4    1  0.1351183E-004  0.3722734E+03  0.7818608E-02  0.1053827E+00
         -2   -1    0    0    0  501 -0.00000000000E+00  0.00000000000E+00  0.27287367861E+02  0.27287367980E+02  0.25500000000E-02 0. -1.
          2   -1    0    0  501    0  0.00000000000E+00 -0.00000000000E+00 -0.12697033906E+04  0.12697033906E+04  0.25500000000E-02 0.  1.
    5000001    1    1    2    0    0  0.12907710018E+03 -0.28498361681E+01 -0.47140343441E+03  0.50499427456E+03  0.12700000000E+03 0.  0.
   -5000001    1    1    2    0    0 -0.12907710018E+03  0.28498361681E+01 -0.77101258834E+03  0.79199648404E+03  0.12700000000E+03 0.  0.
<mgrwt>
<rscale>  0 0.37227336E+03</rscale>
<asrwt>0</asrwt>
<pdfrwt beam="1">  1        2 0.18138616E+00 0.37227336E+03</pdfrwt>
<pdfrwt beam="2">  1       -2 0.38981962E-02 0.37227336E+03</pdfrwt>
<totfact> 0.59016043E+03</totfact>
</mgrwt>
</event>
<event>
 4    1  0.1351183E-004  0.4066431E+03  0.7818608E-02  0.1041503E+00
          2   -1    0    0  501    0  0.00000000000E+00  0.00000000000E+00  0.68907081399E+03  0.68907081399E+03  0.25500000000E-02 0.  1.
         -2   -1    0    0    0  501 -0.00000000000E+00 -0.00000000000E+00 -0.59993335773E+02  0.59993335827E+02  0.25500000000E-02 0. -1.
    5000001    1    1    2    0    0 -0.10993901107E+03  0.10992726991E+03  0.25513195886E+03  0.32464119772E+03  0.12700000000E+03 0.  0.
   -5000001    1    1    2    0    0  0.10993901107E+03 -0.10992726991E+03  0.37394551935E+03  0.42442295210E+03  0.12700000000E+03 0.  0.
<mgrwt>
<rscale>  0 0.40664312E+03</rscale>
<asrwt>0</asrwt>
<pdfrwt beam="1">  1        2 0.98438686E-01 0.40664312E+03</pdfrwt>
<pdfrwt beam="2">  1       -2 0.85704767E-02 0.40664312E+03</pdfrwt>
<totfact> 0.39937903E+03</totfact>
</mgrwt>
</event>
<event>
 4    1  0.1351183E-004  0.3664849E+03  0.7818608E-02  0.1056045E+00
          2   -1    0    0  501    0  0.00000000000E+00  0.00000000000E+00  0.88684168470E+03  0.88684168470E+03  0.25500000000E-02 0.  1.
         -2   -1    0    0    0  501 -0.00000000000E+00 -0.00000000000E+00 -0.37862222362E+02  0.37862222448E+02  0.25500000000E-02 0. -1.
    5000001    1    1    2    0    0  0.47140596099E+02 -0.12282039842E+03  0.39445329266E+03  0.43477521337E+03  0.12700000000E+03 0.  0.
   -5000001    1    1    2    0    0 -0.47140596099E+02  0.12282039842E+03  0.45452616968E+03  0.48992869378E+03  0.12700000000E+03 0.  0.
<mgrwt>
<rscale>  0 0.36648491E+03</rscale>
<asrwt>0</asrwt>
<pdfrwt beam="1">  1        2 0.12669166E+00 0.36648491E+03</pdfrwt>
<pdfrwt beam="2">  1       -2 0.54088895E-02 0.36648491E+03</pdfrwt>
<totfact> 0.59676245E+03</totfact>
</mgrwt>
</event>
<event>
 4    1  0.1351183E-004  0.3532051E+03  0.7818608E-02  0.1061307E+00
          2   -1    0    0  501    0  0.00000000000E+00  0.00000000000E+00  0.72074272037E+03  0.72074272037E+03  0.25500000000E-02 0.  1.
         -2   -1    0    0    0  501 -0.00000000000E+00 -0.00000000000E+00 -0.43272658874E+02  0.43272658949E+02  0.25500000000E-02 0. -1.
    5000001    1    1    2    0    0  0.49576454218E+02 -0.10159426933E+03  0.44202659299E+03  0.47359870067E+03  0.12700000000E+03 0.  0.
   -5000001    1    1    2    0    0 -0.49576454218E+02  0.10159426933E+03  0.23544346851E+03  0.29041667865E+03  0.12700000000E+03 0.  0.
<mgrwt>
<rscale>  0 0.35320506E+03</rscale>
<asrwt>0</asrwt>
<pdfrwt beam="1">  1        2 0.10296325E+00 0.35320506E+03</pdfrwt>
<pdfrwt beam="2">  1       -2 0.61818080E-02 0.35320506E+03</pdfrwt>
<totfact> 0.62934849E+03</totfact>
</mgrwt>
</event>
<event>
 4    1  0.1351183E-004  0.3268756E+03  0.7818608E-02  0.1072528E+00
         -2   -1    0    0    0  501 -0.00000000000E+00  0.00000000000E+00  0.51224139660E+02  0.51224139724E+02  0.25500000000E-02 0. -1.
          2   -1    0    0  501    0  0.00000000000E+00 -0.00000000000E+00 -0.52147115731E+03  0.52147115732E+03  0.25500000000E-02 0.  1.
    5000001    1    1    2    0    0 -0.77451116349E+02  0.20263359243E+02 -0.12193607117E+03  0.19340807792E+03  0.12700000000E+03 0.  0.
   -5000001    1    1    2    0    0  0.77451116349E+02 -0.20263359243E+02 -0.34831094649E+03  0.37928721913E+03  0.12700000000E+03 0.  0.
<mgrwt>
<rscale>  0 0.32687558E+03</rscale>
<asrwt>0</asrwt>
<pdfrwt beam="1">  1        2 0.74495877E-01 0.32687558E+03</pdfrwt>
<pdfrwt beam="2">  1       -2 0.73177345E-02 0.32687558E+03</pdfrwt>
<totfact> 0.70332186E+03</totfact>
</mgrwt>
</event>
<event>
 4    1  0.1351183E-004  0.9792368E+03  0.7818608E-02  0.9331615E-01
         -2   -1    0    0    0  501 -0.00000000000E+00  0.00000000000E+00  0.71949834635E+03  0.71949834636E+03  0.25500000000E-02 0. -1.
          2   -1    0    0  501    0  0.00000000000E+00 -0.00000000000E+00 -0.33318519867E+03  0.33318519868E+03  0.25500000000E-02 0.  1.
    5000001    1    1    2    0    0  0.45083480157E+03  0.53900487150E+02  0.51191237401E+02  0.47424342232E+03  0.12700000000E+03 0.  0.
   -5000001    1    1    2    0    0 -0.45083480157E+03 -0.53900487150E+02  0.33512191028E+03  0.57844012272E+03  0.12700000000E+03 0.  0.
<mgrwt>
<rscale>  0 0.97923684E+03</rscale>
<asrwt>0</asrwt>
<pdfrwt beam="1">  1        2 0.47597886E-01 0.97923684E+03</pdfrwt>
<pdfrwt beam="2">  1       -2 0.10278548E+00 0.97923684E+03</pdfrwt>
<totfact> 0.82077426E+01</totfact>
</mgrwt>
</event>
<event>
 4    1  0.1351183E-004  0.8208272E+03  0.7818608E-02  0.9530350E-01
         -2   -1    0    0    0  501 -0.00000000000E+00  0.00000000000E+00  0.62998099089E+02  0.62998099140E+02  0.25500000000E-02 0. -1.
          2   -1    0    0  501    0  0.00000000000E+00 -0.00000000000E+00 -0.26737208260E+04  0.26737208260E+04  0.25500000000E-02 0.  1.
    5000001    1    1    2    0    0  0.71080406836E+02 -0.36819517782E+03 -0.16658484591E+04  0.17122500407E+04  0.12700000000E+03 0.  0.
   -5000001    1    1    2    0    0 -0.71080406836E+02  0.36819517782E+03 -0.94487426778E+03  0.10244688844E+04  0.12700000000E+03 0.  0.
<mgrwt>
<rscale>  0 0.82082722E+03</rscale>
<asrwt>0</asrwt>
<pdfrwt beam="1">  1        2 0.38196005E+00 0.82082722E+03</pdfrwt>
<pdfrwt beam="2">  1       -2 0.89997301E-02 0.82082722E+03</pdfrwt>
<totfact> 0.29906390E+02</totfact>
</mgrwt>
</event>
<event>
 4    1  0.1351183E-004  0.3257843E+03  0.7818608E-02  0.1073018E+00
         -2   -1    0    0    0  501 -0.00000000000E+00  0.00000000000E+00  0.34036632731E+02  0.34036632826E+02  0.25500000000E-02 0.  1.
          2   -1    0    0  501    0  0.00000000000E+00 -0.00000000000E+00 -0.77956754405E+03  0.77956754406E+03  0.25500000000E-02 0. -1.
    5000001    1    1    2    0    0 -0.77575349524E+02 -0.61838222237E+02 -0.31351123078E+03  0.35250559202E+03  0.12700000000E+03 0.  0.
   -5000001    1    1    2    0    0  0.77575349524E+02  0.61838222237E+02 -0.43201968054E+03  0.46109858486E+03  0.12700000000E+03 0.  0.
<mgrwt>
<rscale>  0 0.32578431E+03</rscale>
<asrwt>0</asrwt>
<pdfrwt beam="1">  1        2 0.11136678E+00 0.32578431E+03</pdfrwt>
<pdfrwt beam="2">  1       -2 0.48623766E-02 0.32578431E+03</pdfrwt>
<totfact> 0.82496280E+03</totfact>
</mgrwt>
</event>
<event>
 4    1  0.1351183E-004  0.4589281E+03  0.7818608E-02  0.1025093E+00
          2   -1    0    0  501    0  0.00000000000E+00  0.00000000000E+00  0.13520480232E+04  0.13520480232E+04  0.25500000000E-02 0.  1.
         -2   -1    0    0    0  501 -0.00000000000E+00 -0.00000000000E+00 -0.38943699909E+02  0.38943699992E+02  0.25500000000E-02 0. -1.
    5000001    1    1    2    0    0 -0.13824290743E+03  0.70222641564E+02  0.99518532319E+03  0.10151675469E+04  0.12700000000E+03 0.  0.
   -5000001    1    1    2    0    0  0.13824290743E+03 -0.70222641564E+02  0.31791900010E+03  0.37582417627E+03  0.12700000000E+03 0.  0.
<mgrwt>
<rscale>  0 0.45892811E+03</rscale>
<asrwt>0</asrwt>
<pdfrwt beam="1">  1        2 0.19314972E+00 0.45892811E+03</pdfrwt>
<pdfrwt beam="2">  1       -2 0.55633857E-02 0.45892811E+03</pdfrwt>
<totfact> 0.30956515E+03</totfact>
</mgrwt>
</event>
<event>
 4    1  0.1351183E-004  0.4544679E+03  0.7818608E-02  0.1026398E+00
         -2   -1    0    0    0  501 -0.00000000000E+00  0.00000000000E+00  0.77888425523E+03  0.77888425524E+03  0.25500000000E-02 0. -1.
          2   -1    0    0  501    0  0.00000000000E+00 -0.00000000000E+00 -0.66293901335E+02  0.66293901384E+02  0.25500000000E-02 0.  1.
    5000001    1    1    2    0    0 -0.41740529272E+02 -0.65729472165E+02  0.67540544002E+03  0.69163873786E+03  0.12700000000E+03 0.  0.
   -5000001    1    1    2    0    0  0.41740529272E+02  0.65729472165E+02  0.37184913879E+02  0.15353941877E+03  0.12700000000E+03 0.  0.
<mgrwt>
<rscale>  0 0.45446794E+03</rscale>
<asrwt>0</asrwt>
<pdfrwt beam="1">  1        2 0.94705570E-02 0.45446794E+03</pdfrwt>
<pdfrwt beam="2">  1       -2 0.11126918E+00 0.45446794E+03</pdfrwt>
<totfact> 0.45970324E+02</totfact>
</mgrwt>
</event>
<event>
 4    1  0.1351183E-004  0.4065803E+03  0.7818608E-02  0.1041525E+00
         -2   -1    0    0    0  501 -0.00000000000E+00  0.00000000000E+00  0.16321045618E+03  0.16321045620E+03  0.25500000000E-02 0. -1.
          2   -1    0    0  501    0  0.00000000000E+00 -0.00000000000E+00 -0.25321220936E+03  0.25321220938E+03  0.25500000000E-02 0.  1.
    5000001    1    1    2    0    0  0.14925830204E+03  0.36631922861E+02 -0.43159505265E+01  0.19941806821E+03  0.12700000000E+03 0.  0.
   -5000001    1    1    2    0    0 -0.14925830204E+03 -0.36631922861E+02 -0.85685802657E+02  0.21700459736E+03  0.12700000000E+03 0.  0.
<mgrwt>
<rscale>  0 0.40658028E+03</rscale>
<asrwt>0</asrwt>
<pdfrwt beam="1">  1        2 0.36173173E-01 0.40658028E+03</pdfrwt>
<pdfrwt beam="2">  1       -2 0.23315779E-01 0.40658028E+03</pdfrwt>
<totfact> 0.23119719E+03</totfact>
</mgrwt>
</event>
<event>
 4    1  0.1351183E-004  0.6449753E+03  0.7818608E-02  0.9816254E-01
          2   -1    0    0  501    0  0.00000000000E+00  0.00000000000E+00  0.14625632473E+04  0.14625632473E+04  0.25500000000E-02 0. -1.
         -2   -1    0    0    0  501 -0.00000000000E+00 -0.00000000000E+00 -0.71106855888E+02  0.71106855934E+02  0.25500000000E-02 0.  1.
    5000001    1    1    2    0    0 -0.19303777743E+03  0.22355461365E+03  0.75536617822E+03  0.82094294077E+03  0.12700000000E+03 0.  0.
   -5000001    1    1    2    0    0  0.19303777743E+03 -0.22355461365E+03  0.63609021317E+03  0.71272716245E+03  0.12700000000E+03 0.  0.
<mgrwt>
<rscale>  0 0.64497527E+03</rscale>
<asrwt>0</asrwt>
<pdfrwt beam="1">  1        2 0.20893760E+00 0.64497527E+03</pdfrwt>
<pdfrwt beam="2">  1       -2 0.10158123E-01 0.64497527E+03</pdfrwt>
<totfact> 0.10372335E+03</totfact>
</mgrwt>
</event>
<event>
 4    1  0.1351183E-004  0.2805103E+03  0.7818608E-02  0.1095411E+00
          2   -1    0    0  501    0  0.00000000000E+00  0.00000000000E+00  0.11358621903E+04  0.11358621903E+04  0.25500000000E-02 0.  1.
         -2   -1    0    0    0  501 -0.00000000000E+00 -0.00000000000E+00 -0.17318573194E+02  0.17318573382E+02  0.25500000000E-02 0. -1.
    5000001    1    1    2    0    0  0.10368749326E+02 -0.38996917543E+02  0.37940669256E+03  0.40212772709E+03  0.12700000000E+03 0.  0.
   -5000001    1    1    2    0    0 -0.10368749326E+02  0.38996917543E+02  0.73913692452E+03  0.75105303656E+03  0.12700000000E+03 0.  0.
<mgrwt>
<rscale>  0 0.28051034E+03</rscale>
<asrwt>0</asrwt>
<pdfrwt beam="1">  1        2 0.16226601E+00 0.28051034E+03</pdfrwt>
<pdfrwt beam="2">  1       -2 0.24740821E-02 0.28051034E+03</pdfrwt>
<totfact> 0.13706066E+04</totfact>
</mgrwt>
</event>
<event>
 4    1  0.1351183E-004  0.3641344E+03  0.7818608E-02  0.1056959E+00
          2   -1    0    0  501    0  0.00000000000E+00  0.00000000000E+00  0.62709722240E+02  0.62709722292E+02  0.25500000000E-02 0.  1.
         -2   -1    0    0    0  501 -0.00000000000E+00 -0.00000000000E+00 -0.52860162379E+03  0.52860162379E+03  0.25500000000E-02 0. -1.
    5000001    1    1    2    0    0 -0.82555534992E+02 -0.60437351493E+02 -0.10150804362E+03  0.19209625903E+03  0.12700000000E+03 0.  0.
   -5000001    1    1    2    0    0  0.82555534992E+02  0.60437351493E+02 -0.36438385793E+03  0.39921508706E+03  0.12700000000E+03 0.  0.
<mgrwt>
<rscale>  0 0.36413438E+03</rscale>
<asrwt>0</asrwt>
<pdfrwt beam="1">  1        2 0.89585320E-02 0.36413438E+03</pdfrwt>
<pdfrwt beam="2">  1       -2 0.75514515E-01 0.36413438E+03</pdfrwt>
<totfact> 0.11987897E+03</totfact>
</mgrwt>
</event>
<event>
 4    1  0.1351183E-004  0.5892799E+03  0.7818608E-02  0.9927900E-01
          2   -1    0    0  501    0  0.00000000000E+00  0.00000000000E+00  0.16344121530E+04  0.16344121530E+04  0.25500000000E-02 0.  1.
         -2   -1    0    0    0  501 -0.00000000000E+00 -0.00000000000E+00 -0.53115556095E+02  0.53115556156E+02  0.25500000000E-02 0. -1.
    5000001    1    1    2    0    0  0.11946335545E+03  0.23070426355E+03  0.62896243026E+03  0.69225623088E+03  0.12700000000E+03 0.  0.
   -5000001    1    1    2    0    0 -0.11946335545E+03 -0.23070426355E+03  0.95233416665E+03  0.99527147828E+03  0.12700000000E+03 0.  0.
<mgrwt>
<rscale>  0 0.58927993E+03</rscale>
<asrwt>0</asrwt>
<pdfrwt beam="1">  1        2 0.23348745E+00 0.58927993E+03</pdfrwt>
<pdfrwt beam="2">  1       -2 0.75879366E-02 0.58927993E+03</pdfrwt>
<totfact> 0.13527690E+03</totfact>
</mgrwt>
</event>
<event>
 4    1  0.1351183E-004  0.3107050E+03  0.7818608E-02  0.1080008E+00
          2   -1    0    0  501    0  0.00000000000E+00  0.00000000000E+00  0.24766330881E+03  0.24766330882E+03  0.25500000000E-02 0.  1.
         -2   -1    0    0    0  501 -0.00000000000E+00 -0.00000000000E+00 -0.97448427877E+02  0.97448427910E+02  0.25500000000E-02 0. -1.
    5000001    1    1    2    0    0  0.45090319035E+02  0.77144728142E+02  0.70022961707E+02  0.17034277536E+03  0.12700000000E+03 0.  0.
   -5000001    1    1    2    0    0 -0.45090319035E+02 -0.77144728142E+02  0.80191919228E+02  0.17476896138E+03  0.12700000000E+03 0.  0.
<mgrwt>
<rscale>  0 0.31070501E+03</rscale>
<asrwt>0</asrwt>
<pdfrwt beam="1">  1        2 0.35380473E-01 0.31070501E+03</pdfrwt>
<pdfrwt beam="2">  1       -2 0.13921204E-01 0.31070501E+03</pdfrwt>
<totfact> 0.56557765E+03</totfact>
</mgrwt>
</event>
<event>
 4    1  0.1351183E-004  0.6502089E+03  0.7818608E-02  0.9806387E-01
         -2   -1    0    0    0  501 -0.00000000000E+00  0.00000000000E+00  0.55696910770E+02  0.55696910828E+02  0.25500000000E-02 0. -1.
          2   -1    0    0  501    0  0.00000000000E+00 -0.00000000000E+00 -0.18976436961E+04  0.18976436961E+04  0.25500000000E-02 0.  1.
    5000001    1    1    2    0    0 -0.24457452666E+03 -0.19034102048E+01 -0.14390829897E+04  0.14652334877E+04  0.12700000000E+03 0.  0.
   -5000001    1    1    2    0    0  0.24457452666E+03  0.19034102048E+01 -0.40286379556E+03  0.48810711922E+03  0.12700000000E+03 0.  0.
<mgrwt>
<rscale>  0 0.65020886E+03</rscale>
<asrwt>0</asrwt>
<pdfrwt beam="1">  1        2 0.27109192E+00 0.65020886E+03</pdfrwt>
<pdfrwt beam="2">  1       -2 0.79567027E-02 0.65020886E+03</pdfrwt>
<totfact> 0.91977351E+02</totfact>
</mgrwt>
</event>
<event>
 4    1  0.1351183E-004  0.4316380E+03  0.7818608E-02  0.1033344E+00
          2   -1    0    0  501    0  0.00000000000E+00  0.00000000000E+00  0.44081908768E+04  0.44081908768E+04  0.25500000000E-02 0.  1.
         -2   -1    0    0    0  501 -0.00000000000E+00 -0.00000000000E+00 -0.10566202519E+02  0.10566202827E+02  0.25500000000E-02 0. -1.
    5000001    1    1    2    0    0  0.99910925186E+01  0.17044408129E+03  0.25676112352E+04  0.25764136822E+04  0.12700000000E+03 0.  0.
   -5000001    1    1    2    0    0 -0.99910925186E+01 -0.17044408129E+03  0.18300134391E+04  0.18423433974E+04  0.12700000000E+03 0.  0.
<mgrwt>
<rscale>  0 0.43163799E+03</rscale>
<asrwt>0</asrwt>
<pdfrwt beam="1">  1        2 0.62974272E+00 0.43163799E+03</pdfrwt>
<pdfrwt beam="2">  1       -2 0.15094547E-02 0.43163799E+03</pdfrwt>
<totfact> 0.42555641E+02</totfact>
</mgrwt>
</event>
<event>
 4    1  0.1351183E-004  0.3230675E+03  0.7818608E-02  0.1074246E+00
         -2   -1    0    0    0  501 -0.00000000000E+00  0.00000000000E+00  0.16927208096E+03  0.16927208098E+03  0.25500000000E-02 0. -1.
          2   -1    0    0  501    0  0.00000000000E+00 -0.00000000000E+00 -0.15414919977E+03  0.15414919979E+03  0.25500000000E-02 0.  1.
    5000001    1    1    2    0    0 -0.78499093767E+02 -0.55257861119E+02  0.34952265049E+02  0.16299141011E+03  0.12700000000E+03 0.  0.
   -5000001    1    1    2    0    0  0.78499093767E+02  0.55257861119E+02 -0.19829383859E+02  0.16042987067E+03  0.12700000000E+03 0.  0.
<mgrwt>
<rscale>  0 0.32306752E+03</rscale>
<asrwt>0</asrwt>
<pdfrwt beam="1">  1        2 0.22021314E-01 0.32306752E+03</pdfrwt>
<pdfrwt beam="2">  1       -2 0.24181726E-01 0.32306752E+03</pdfrwt>
<totfact> 0.37526769E+03</totfact>
</mgrwt>
</event>
<event>
 4    1  0.1351183E-004  0.3925886E+03  0.7818608E-02  0.1046377E+00
         -2   -1    0    0    0  501 -0.00000000000E+00  0.00000000000E+00  0.56461974551E+02  0.56461974608E+02  0.25500000000E-02 0. -1.
          2   -1    0    0  501    0  0.00000000000E+00 -0.00000000000E+00 -0.68243189302E+03  0.68243189303E+03  0.25500000000E-02 0.  1.
    5000001    1    1    2    0    0 -0.14752123853E+03  0.19486801063E+02 -0.28262516445E+03  0.34372697714E+03  0.12700000000E+03 0.  0.
   -5000001    1    1    2    0    0  0.14752123853E+03 -0.19486801063E+02 -0.34334475402E+03  0.39516689050E+03  0.12700000000E+03 0.  0.
<mgrwt>
<rscale>  0 0.39258860E+03</rscale>
<asrwt>0</asrwt>
<pdfrwt beam="1">  1        2 0.97490265E-01 0.39258860E+03</pdfrwt>
<pdfrwt beam="2">  1       -2 0.80659968E-02 0.39258860E+03</pdfrwt>
<totfact> 0.44447210E+03</totfact>
</mgrwt>
</event>
<event>
 4    1  0.1351183E-004  0.5485430E+03  0.7818608E-02  0.1001832E+00
          2   -1    0    0  501    0  0.00000000000E+00  0.00000000000E+00  0.22982157066E+04  0.22982157066E+04  0.25500000000E-02 0.  1.
         -2   -1    0    0    0  501 -0.00000000000E+00 -0.00000000000E+00 -0.32731849863E+02  0.32731849962E+02  0.25500000000E-02 0. -1.
    5000001    1    1    2    0    0 -0.82953310504E+02  0.16639785593E+03  0.46725684104E+03  0.51867856489E+03  0.12700000000E+03 0.  0.
   -5000001    1    1    2    0    0  0.82953310504E+02 -0.16639785593E+03  0.17982270157E+04  0.18122689916E+04  0.12700000000E+03 0.  0.
<mgrwt>
<rscale>  0 0.54854298E+03</rscale>
<asrwt>0</asrwt>
<pdfrwt beam="1">  1        2 0.32831651E+00 0.54854298E+03</pdfrwt>
<pdfrwt beam="2">  1       -2 0.46759788E-02 0.54854298E+03</pdfrwt>
<totfact> 0.13389133E+03</totfact>
</mgrwt>
</event>
<event>
 4    1  0.1351183E-004  0.3073622E+03  0.7818608E-02  0.1081617E+00
          2   -1    0    0  501    0  0.00000000000E+00  0.00000000000E+00  0.28933923677E+03  0.28933923678E+03  0.25500000000E-02 0.  1.
         -2   -1    0    0    0  501 -0.00000000000E+00 -0.00000000000E+00 -0.81626930097E+02  0.81626930137E+02  0.25500000000E-02 0. -1.
    5000001    1    1    2    0    0  0.38925563929E+02  0.77237124399E+02  0.10042099670E+03  0.18355966194E+03  0.12700000000E+03 0.  0.
   -5000001    1    1    2    0    0 -0.38925563929E+02 -0.77237124399E+02  0.10729130997E+03  0.18740650498E+03  0.12700000000E+03 0.  0.
<mgrwt>
<rscale>  0 0.30736216E+03</rscale>
<asrwt>0</asrwt>
<pdfrwt beam="1">  1        2 0.41334177E-01 0.30736216E+03</pdfrwt>
<pdfrwt beam="2">  1       -2 0.11660990E-01 0.30736216E+03</pdfrwt>
<totfact> 0.63737580E+03</totfact>
</mgrwt>
</event>
<event>
 4    1  0.1351183E-004  0.7611350E+03  0.7818608E-02  0.9618041E-01
          2   -1    0    0  501    0  0.00000000000E+00  0.00000000000E+00  0.12297375461E+04  0.12297375461E+04  0.25500000000E-02 0.  1.
         -2   -1    0    0    0  501 -0.00000000000E+00 -0.00000000000E+00 -0.11777442297E+03  0.11777442299E+03  0.25500000000E-02 0. -1.
    5000001    1    1    2    0    0 -0.20324348078E+03 -0.17034665365E+03  0.98373235862E+03  0.10267347507E+04  0.12700000000E+03 0.  0.
   -5000001    1    1    2    0    0  0.20324348078E+03  0.17034665365E+03  0.12823076455E+03  0.32077721843E+03  0.12700000000E+03 0.  0.
<mgrwt>
<rscale>  0 0.76113502E+03</rscale>
<asrwt>0</asrwt>
<pdfrwt beam="1">  1        2 0.17567680E+00 0.76113502E+03</pdfrwt>
<pdfrwt beam="2">  1       -2 0.16824917E-01 0.76113502E+03</pdfrwt>
<totfact> 0.59521834E+02</totfact>
</mgrwt>
</event>
<event>
 4    1  0.1351183E-004  0.3234056E+03  0.7818608E-02  0.1074093E+00
          2   -1    0    0  501    0  0.00000000000E+00  0.00000000000E+00  0.60292682271E+03  0.60292682272E+03  0.25500000000E-02 0.  1.
         -2   -1    0    0    0  501 -0.00000000000E+00 -0.00000000000E+00 -0.43368102479E+02  0.43368102554E+02  0.25500000000E-02 0. -1.
    5000001    1    1    2    0    0 -0.36785554472E+02  0.85552583601E+02  0.35310663753E+03  0.38663383071E+03  0.12700000000E+03 0.  0.
   -5000001    1    1    2    0    0  0.36785554472E+02 -0.85552583601E+02  0.20645208270E+03  0.25966109456E+03  0.12700000000E+03 0.  0.
<mgrwt>
<rscale>  0 0.32340558E+03</rscale>
<asrwt>0</asrwt>
<pdfrwt beam="1">  1        2 0.86132402E-01 0.32340558E+03</pdfrwt>
<pdfrwt beam="2">  1       -2 0.61954433E-02 0.32340558E+03</pdfrwt>
<totfact> 0.77213672E+03</totfact>
</mgrwt>
</event>
<event>
 4    1  0.1351183E-004  0.3949958E+03  0.7818608E-02  0.1045526E+00
          2   -1    0    0  501    0  0.00000000000E+00  0.00000000000E+00  0.83764601781E+03  0.83764601781E+03  0.25500000000E-02 0.  1.
         -2   -1    0    0    0  501 -0.00000000000E+00 -0.00000000000E+00 -0.46565523006E+02  0.46565523076E+02  0.25500000000E-02 0. -1.
    5000001    1    1    2    0    0  0.11593814801E+03 -0.53463372468E+02  0.57707470042E+03  0.60451980631E+03  0.12700000000E+03 0.  0.
   -5000001    1    1    2    0    0 -0.11593814801E+03  0.53463372468E+02  0.21400579439E+03  0.27969173458E+03  0.12700000000E+03 0.  0.
<mgrwt>
<rscale>  0 0.39499582E+03</rscale>
<asrwt>0</asrwt>
<pdfrwt beam="1">  1        2 0.11966371E+00 0.39499582E+03</pdfrwt>
<pdfrwt beam="2">  1       -2 0.66522179E-02 0.39499582E+03</pdfrwt>
<totfact> 0.46695464E+03</totfact>
</mgrwt>
</event>
<event>
 4    1  0.1351183E-004  0.5246175E+03  0.7818608E-02  0.1007546E+00
          2   -1    0    0  501    0  0.00000000000E+00  0.00000000000E+00  0.11682228434E+04  0.11682228434E+04  0.25500000000E-02 0.  1.
         -2   -1    0    0    0  501 -0.00000000000E+00 -0.00000000000E+00 -0.58897907518E+02  0.58897907573E+02  0.25500000000E-02 0. -1.
    5000001    1    1    2    0    0 -0.18992876154E+03 -0.12827839566E+03  0.52614876625E+03  0.58778380845E+03  0.12700000000E+03 0.  0.
   -5000001    1    1    2    0    0  0.18992876154E+03  0.12827839566E+03  0.58317616964E+03  0.63933694254E+03  0.12700000000E+03 0.  0.
<mgrwt>
<rscale>  0 0.52461750E+03</rscale>
<asrwt>0</asrwt>
<pdfrwt beam="1">  1        2 0.16688898E+00 0.52461750E+03</pdfrwt>
<pdfrwt beam="2">  1       -2 0.84139869E-02 0.52461750E+03</pdfrwt>
<totfact> 0.20354707E+03</totfact>
</mgrwt>
</event>
<event>
 4    1  0.1351183E-004  0.4907784E+03  0.7818608E-02  0.1016214E+00
          2   -1    0    0  501    0  0.00000000000E+00  0.00000000000E+00  0.38767525343E+03  0.38767525344E+03  0.25500000000E-02 0.  1.
         -2   -1    0    0    0  501 -0.00000000000E+00 -0.00000000000E+00 -0.15532549502E+03  0.15532549505E+03  0.25500000000E-02 0. -1.
    5000001    1    1    2    0    0  0.28730323797E+02 -0.20398529447E+03  0.71213085318E+02  0.25226124432E+03  0.12700000000E+03 0.  0.
   -5000001    1    1    2    0    0 -0.28730323797E+02  0.20398529447E+03  0.16113667309E+03  0.29073950416E+03  0.12700000000E+03 0.  0.
<mgrwt>
<rscale>  0 0.49077836E+03</rscale>
<asrwt>0</asrwt>
<pdfrwt beam="1">  1        2 0.55382178E-01 0.49077836E+03</pdfrwt>
<pdfrwt beam="2">  1       -2 0.22189357E-01 0.49077836E+03</pdfrwt>
<totfact> 0.15844688E+03</totfact>
</mgrwt>
</event>
<event>
 4    1  0.1351183E-004  0.9395405E+03  0.7818608E-02  0.9377460E-01
          2   -1    0    0  501    0  0.00000000000E+00  0.00000000000E+00  0.24289141087E+04  0.24289141087E+04  0.25500000000E-02 0. -1.
         -2   -1    0    0    0  501 -0.00000000000E+00 -0.00000000000E+00 -0.90857091536E+02  0.90857091571E+02  0.25500000000E-02 0.  1.
    5000001    1    1    2    0    0  0.35045332638E+03 -0.27795823812E+03  0.98958518555E+03  0.10933828952E+04  0.12700000000E+03 0.  0.
   -5000001    1    1    2    0    0 -0.35045332638E+03  0.27795823812E+03  0.13484718316E+04  0.14263883050E+04  0.12700000000E+03 0.  0.
<mgrwt>
<rscale>  0 0.93954047E+03</rscale>
<asrwt>0</asrwt>
<pdfrwt beam="1">  1        2 0.34698765E+00 0.93954047E+03</pdfrwt>
<pdfrwt beam="2">  1       -2 0.12979588E-01 0.93954047E+03</pdfrwt>
<totfact> 0.21775856E+02</totfact>
</mgrwt>
</event>
<event>
 4    1  0.1351183E-004  0.1179648E+04  0.7818608E-02  0.9130860E-01
         -2   -1    0    0    0  501 -0.00000000000E+00  0.00000000000E+00  0.45882123712E+03  0.45882123713E+03  0.25500000000E-02 0. -1.
          2   -1    0    0  501    0  0.00000000000E+00 -0.00000000000E+00 -0.75823038822E+03  0.75823038822E+03  0.25500000000E-02 0.  1.
    5000001    1    1    2    0    0 -0.29600880666E+03 -0.33945777981E+03  0.22072072829E+03  0.51739678951E+03  0.12700000000E+03 0.  0.
   -5000001    1    1    2    0    0  0.29600880666E+03  0.33945777981E+03 -0.52012987939E+03  0.69965483585E+03  0.12700000000E+03 0.  0.
<mgrwt>
<rscale>  0 0.11796478E+04</rscale>
<asrwt>0</asrwt>
<pdfrwt beam="1">  1        2 0.10831863E+00 0.11796478E+04</pdfrwt>
<pdfrwt beam="2">  1       -2 0.65545891E-01 0.11796478E+04</pdfrwt>
<totfact> 0.86343412E+01</totfact>
</mgrwt>
</event>
<event>
 4    1  0.1351183E-004  0.4427797E+03  0.7818608E-02  0.1029897E+00
          2   -1    0    0  501    0  0.00000000000E+00  0.00000000000E+00  0.25146546745E+03  0.25146546747E+03  0.25500000000E-02 0.  1.
         -2   -1    0    0    0  501 -0.00000000000E+00 -0.00000000000E+00 -0.19491132032E+03  0.19491132034E+03  0.25500000000E-02 0. -1.
    5000001    1    1    2    0    0  0.90744126424E+01 -0.18066155824E+03  0.15385589621E+02  0.22155509464E+03  0.12700000000E+03 0.  0.
   -5000001    1    1    2    0    0 -0.90744126424E+01  0.18066155824E+03  0.41168557511E+02  0.22482169317E+03  0.12700000000E+03 0.  0.
<mgrwt>
<rscale>  0 0.44277970E+03</rscale>
<asrwt>0</asrwt>
<pdfrwt beam="1">  1        2 0.35923638E-01 0.44277970E+03</pdfrwt>
<pdfrwt beam="2">  1       -2 0.27844475E-01 0.44277970E+03</pdfrwt>
<totfact> 0.16979130E+03</totfact>
</mgrwt>
</event>
<event>
 4    1  0.1351183E-004  0.3555506E+03  0.7818608E-02  0.1060360E+00
          2   -1    0    0  501    0  0.00000000000E+00  0.00000000000E+00  0.32903024357E+04  0.32903024357E+04  0.25500000000E-02 0.  1.
         -2   -1    0    0    0  501 -0.00000000000E+00 -0.00000000000E+00 -0.96052139912E+01  0.96052143297E+01  0.25500000000E-02 0. -1.
    5000001    1    1    2    0    0 -0.22738047090E+02 -0.67669418744E+02  0.69481750581E+03  0.70992713387E+03  0.12700000000E+03 0.  0.
   -5000001    1    1    2    0    0  0.22738047090E+02  0.67669418744E+02  0.25858797159E+04  0.25899805162E+04  0.12700000000E+03 0.  0.
<mgrwt>
<rscale>  0 0.35555061E+03</rscale>
<asrwt>0</asrwt>
<pdfrwt beam="1">  1        2 0.47004320E+00 0.35555061E+03</pdfrwt>
<pdfrwt beam="2">  1       -2 0.13721735E-02 0.35555061E+03</pdfrwt>
<totfact> 0.25747121E+03</totfact>
</mgrwt>
</event>
<event>
 4    1  0.1351183E-004  0.3046839E+03  0.7818608E-02  0.1082922E+00
         -2   -1    0    0    0  501 -0.00000000000E+00  0.00000000000E+00  0.43336863779E+02  0.43336863854E+02  0.25500000000E-02 0. -1.
          2   -1    0    0  501    0  0.00000000000E+00 -0.00000000000E+00 -0.53552717028E+03  0.53552717028E+03  0.25500000000E-02 0.  1.
    5000001    1    1    2    0    0  0.18025367005E+02  0.57525572019E+02 -0.35760657227E+03  0.38424675122E+03  0.12700000000E+03 0.  0.
   -5000001    1    1    2    0    0 -0.18025367005E+02 -0.57525572019E+02 -0.13458373423E+03  0.19461728292E+03  0.12700000000E+03 0.  0.
<mgrwt>
<rscale>  0 0.30468389E+03</rscale>
<asrwt>0</asrwt>
<pdfrwt beam="1">  1        2 0.76503877E-01 0.30468389E+03</pdfrwt>
<pdfrwt beam="2">  1       -2 0.61909809E-02 0.30468389E+03</pdfrwt>
<totfact> 0.88265929E+03</totfact>
</mgrwt>
</event>
<event>
 4    1  0.1351183E-004  0.7356038E+03  0.7818608E-02  0.9658210E-01
          2   -1    0    0  501    0  0.00000000000E+00  0.00000000000E+00  0.19273097268E+04  0.19273097268E+04  0.25500000000E-02 0.  1.
         -2   -1    0    0    0  501 -0.00000000000E+00 -0.00000000000E+00 -0.70190193340E+02  0.70190193386E+02  0.25500000000E-02 0. -1.
    5000001    1    1    2    0    0  0.66033310489E+02  0.25344798026E+03  0.31801696140E+03  0.43111490873E+03  0.12700000000E+03 0.  0.
   -5000001    1    1    2    0    0 -0.66033310489E+02 -0.25344798026E+03  0.15391025720E+04  0.15663850114E+04  0.12700000000E+03 0.  0.
<mgrwt>
<rscale>  0 0.73560381E+03</rscale>
<asrwt>0</asrwt>
<pdfrwt beam="1">  1        2 0.27532994E+00 0.73560381E+03</pdfrwt>
<pdfrwt beam="2">  1       -2 0.10027171E-01 0.73560381E+03</pdfrwt>
<totfact> 0.60909946E+02</totfact>
</mgrwt>
</event>
<event>
 4    1  0.1351183E-004  0.4117874E+03  0.7818608E-02  0.1039773E+00
         -2   -1    0    0    0  501 -0.00000000000E+00  0.00000000000E+00  0.65028371726E+02  0.65028371776E+02  0.25500000000E-02 0. -1.
          2   -1    0    0  501    0  0.00000000000E+00 -0.00000000000E+00 -0.65190333805E+03  0.65190333806E+03  0.25500000000E-02 0.  1.
    5000001    1    1    2    0    0 -0.14644813257E+03  0.63673199979E+02 -0.24538141508E+03  0.31912751495E+03  0.12700000000E+03 0.  0.
   -5000001    1    1    2    0    0  0.14644813257E+03 -0.63673199979E+02 -0.34149355124E+03  0.39780419489E+03  0.12700000000E+03 0.  0.
<mgrwt>
<rscale>  0 0.41178739E+03</rscale>
<asrwt>0</asrwt>
<pdfrwt beam="1">  1        2 0.93129044E-01 0.41178739E+03</pdfrwt>
<pdfrwt beam="2">  1       -2 0.92897678E-02 0.41178739E+03</pdfrwt>
<totfact> 0.37537563E+03</totfact>
</mgrwt>
</event>
<event>
 4    1  0.1351183E-004  0.2743090E+03  0.7818608E-02  0.1098838E+00
         -2   -1    0    0    0  501 -0.00000000000E+00  0.00000000000E+00  0.42703511712E+02  0.42703511789E+02  0.25500000000E-02 0. -1.
          2   -1    0    0  501    0  0.00000000000E+00 -0.00000000000E+00 -0.44051067419E+03  0.44051067420E+03  0.25500000000E-02 0.  1.
    5000001    1    1    2    0    0 -0.77047374996E+01 -0.38589097837E+02 -0.13958625753E+03  0.19277397320E+03  0.12700000000E+03 0.  0.
   -5000001    1    1    2    0    0  0.77047374996E+01  0.38589097837E+02 -0.25822090494E+03  0.29044021278E+03  0.12700000000E+03 0.  0.
<mgrwt>
<rscale>  0 0.27430897E+03</rscale>
<asrwt>0</asrwt>
<pdfrwt beam="1">  1        2 0.62930094E-01 0.27430897E+03</pdfrwt>
<pdfrwt beam="2">  1       -2 0.61005019E-02 0.27430897E+03</pdfrwt>
<totfact> 0.11156683E+04</totfact>
</mgrwt>
</event>
<event>
 4    1  0.1351183E-004  0.5446730E+03  0.7818608E-02  0.1002734E+00
          2   -1    0    0  501    0  0.00000000000E+00  0.00000000000E+00  0.49938029558E+03  0.49938029558E+03  0.25500000000E-02 0.  1.
         -2   -1    0    0    0  501 -0.00000000000E+00 -0.00000000000E+00 -0.14851841758E+03  0.14851841760E+03  0.25500000000E-02 0. -1.
    5000001    1    1    2    0    0  0.21812553298E+03  0.71397755547E+02  0.88329384342E+02  0.27678054081E+03  0.12700000000E+03 0.  0.
   -5000001    1    1    2    0    0 -0.21812553298E+03 -0.71397755547E+02  0.26253249366E+03  0.37111817237E+03  0.12700000000E+03 0.  0.
<mgrwt>
<rscale>  0 0.54467301E+03</rscale>
<asrwt>0</asrwt>
<pdfrwt beam="1">  1        2 0.71340040E-01 0.54467301E+03</pdfrwt>
<pdfrwt beam="2">  1       -2 0.21216917E-01 0.54467301E+03</pdfrwt>
<totfact> 0.12923373E+03</totfact>
</mgrwt>
</event>
<event>
 4    1  0.1351183E-004  0.2893054E+03  0.7818608E-02  0.1090712E+00
          2   -1    0    0  501    0  0.00000000000E+00  0.00000000000E+00  0.28916937267E+02  0.28916937379E+02  0.25500000000E-02 0.  1.
         -2   -1    0    0    0  501 -0.00000000000E+00 -0.00000000000E+00 -0.72360389479E+03  0.72360389480E+03  0.25500000000E-02 0. -1.
    5000001    1    1    2    0    0 -0.23811028332E+02  0.57728933545E+02 -0.42519565758E+03  0.44812938094E+03  0.12700000000E+03 0.  0.
   -5000001    1    1    2    0    0  0.23811028332E+02 -0.57728933545E+02 -0.26949129995E+03  0.30439145124E+03  0.12700000000E+03 0.  0.
<mgrwt>
<rscale>  0 0.28930543E+03</rscale>
<asrwt>0</asrwt>
<pdfrwt beam="1">  1        2 0.41309915E-02 0.28930543E+03</pdfrwt>
<pdfrwt beam="2">  1       -2 0.10337197E+00 0.28930543E+03</pdfrwt>
<totfact> 0.16127351E+03</totfact>
</mgrwt>
</event>
<event>
 4    1  0.1351183E-004  0.5926717E+03  0.7818608E-02  0.9920728E-01
         -2   -1    0    0    0  501 -0.00000000000E+00  0.00000000000E+00  0.29243089260E+03  0.29243089261E+03  0.25500000000E-02 0. -1.
          2   -1    0    0  501    0  0.00000000000E+00 -0.00000000000E+00 -0.30029294028E+03  0.30029294029E+03  0.25500000000E-02 0.  1.
    5000001    1    1    2    0    0 -0.22495864640E+03 -0.88978883166E+02 -0.11866817791E+03  0.29788382079E+03  0.12700000000E+03 0.  0.
   -5000001    1    1    2    0    0  0.22495864640E+03  0.88978883166E+02  0.11080613023E+03  0.29484001210E+03  0.12700000000E+03 0.  0.
<mgrwt>
<rscale>  0 0.59267169E+03</rscale>
<asrwt>0</asrwt>
<pdfrwt beam="1">  1        2 0.42898991E-01 0.59267169E+03</pdfrwt>
<pdfrwt beam="2">  1       -2 0.41775842E-01 0.59267169E+03</pdfrwt>
<totfact> 0.65077814E+02</totfact>
</mgrwt>
</event>
<event>
 4    1  0.1351183E-004  0.5332724E+03  0.7818608E-02  0.1005442E+00
          2   -1    0    0  501    0  0.00000000000E+00  0.00000000000E+00  0.50155822747E+03  0.50155822748E+03  0.25500000000E-02 0.  1.
         -2   -1    0    0    0  501 -0.00000000000E+00 -0.00000000000E+00 -0.14174795211E+03  0.14174795213E+03  0.25500000000E-02 0. -1.
    5000001    1    1    2    0    0 -0.18657873818E+03  0.78521338563E+01  0.35090131327E+03  0.41729367741E+03  0.12700000000E+03 0.  0.
   -5000001    1    1    2    0    0  0.18657873818E+03 -0.78521338563E+01  0.89089620949E+01  0.22601250221E+03  0.12700000000E+03 0.  0.
<mgrwt>
<rscale>  0 0.53327236E+03</rscale>
<asrwt>0</asrwt>
<pdfrwt beam="1">  1        2 0.71651177E-01 0.53327236E+03</pdfrwt>
<pdfrwt beam="2">  1       -2 0.20249707E-01 0.53327236E+03</pdfrwt>
<totfact> 0.13951370E+03</totfact>
</mgrwt>
</event>
<event>
 4    1  0.1351183E-004  0.4813771E+03  0.7818608E-02  0.1018757E+00
         -2   -1    0    0    0  501 -0.00000000000E+00  0.00000000000E+00  0.31026493553E+02  0.31026493657E+02  0.25500000000E-02 0. -1.
          2   -1    0    0  501    0  0.00000000000E+00 -0.00000000000E+00 -0.18671457134E+04  0.18671457134E+04  0.25500000000E-02 0.  1.
    5000001    1    1    2    0    0 -0.15946555240E+03 -0.12707885399E+03 -0.85908425816E+03  0.89203871001E+03  0.12700000000E+03 0.  0.
   -5000001    1    1    2    0    0  0.15946555240E+03  0.12707885399E+03 -0.97703496168E+03  0.10061334970E+04  0.12700000000E+03 0.  0.
<mgrwt>
<rscale>  0 0.48137713E+03</rscale>
<asrwt>0</asrwt>
<pdfrwt beam="1">  1        2 0.26673503E+00 0.48137713E+03</pdfrwt>
<pdfrwt beam="2">  1       -2 0.44323574E-02 0.48137713E+03</pdfrwt>
<totfact> 0.23967543E+03</totfact>
</mgrwt>
</event>
<event>
 4    1  0.1351183E-004  0.2891623E+03  0.7818608E-02  0.1090787E+00
          2   -1    0    0  501    0  0.00000000000E+00  0.00000000000E+00  0.57933339218E+03  0.57933339218E+03  0.25500000000E-02 0.  1.
         -2   -1    0    0    0  501 -0.00000000000E+00 -0.00000000000E+00 -0.36082360203E+02  0.36082360293E+02  0.25500000000E-02 0. -1.
    5000001    1    1    2    0    0 -0.36432348893E+02  0.50067219806E+02  0.33690043551E+03  0.36532854527E+03  0.12700000000E+03 0.  0.
   -5000001    1    1    2    0    0  0.36432348893E+02 -0.50067219806E+02  0.20635059647E+03  0.25008720721E+03  0.12700000000E+03 0.  0.
<mgrwt>
<rscale>  0 0.28916235E+03</rscale>
<asrwt>0</asrwt>
<pdfrwt beam="1">  1        2 0.82761916E-01 0.28916235E+03</pdfrwt>
<pdfrwt beam="2">  1       -2 0.51546227E-02 0.28916235E+03</pdfrwt>
<totfact> 0.10673909E+04</totfact>
</mgrwt>
</event>
<event>
 4    1  0.1351183E-004  0.7715598E+03  0.7818608E-02  0.9602121E-01
         -2   -1    0    0    0  501 -0.00000000000E+00  0.00000000000E+00  0.36518704993E+02  0.36518705082E+02  0.25500000000E-02 0. -1.
          2   -1    0    0  501    0  0.00000000000E+00 -0.00000000000E+00 -0.40753400796E+04  0.40753400796E+04  0.25500000000E-02 0.  1.
    5000001    1    1    2    0    0  0.26142290442E+03  0.12214238030E+03 -0.32043393506E+04  0.32198106109E+04  0.12700000000E+03 0.  0.
   -5000001    1    1    2    0    0 -0.26142290442E+03 -0.12214238030E+03 -0.83448202398E+03  0.89204817379E+03  0.12700000000E+03 0.  0.
<mgrwt>
<rscale>  0 0.77155983E+03</rscale>
<asrwt>0</asrwt>
<pdfrwt beam="1">  1        2 0.58219115E+00 0.77155983E+03</pdfrwt>
<pdfrwt beam="2">  1       -2 0.52169605E-02 0.77155983E+03</pdfrwt>
<totfact> 0.10605218E+02</totfact>
</mgrwt>
</event>
<event>
 4    1  0.1351183E-004  0.2856083E+03  0.7818608E-02  0.1092665E+00
         -2   -1    0    0    0  501 -0.00000000000E+00  0.00000000000E+00  0.18566810780E+03  0.18566810781E+03  0.25500000000E-02 0. -1.
          2   -1    0    0  501    0  0.00000000000E+00 -0.00000000000E+00 -0.10983589772E+03  0.10983589775E+03  0.25500000000E-02 0.  1.
    5000001    1    1    2    0    0  0.57543066102E+02  0.14359830519E+02  0.96451378120E+01  0.14049710984E+03  0.12700000000E+03 0.  0.
   -5000001    1    1    2    0    0 -0.57543066102E+02 -0.14359830519E+02  0.66187072263E+02  0.15500689573E+03  0.12700000000E+03 0.  0.
<mgrwt>
<rscale>  0 0.28560829E+03</rscale>
<asrwt>0</asrwt>
<pdfrwt beam="1">  1        2 0.15690843E-01 0.28560829E+03</pdfrwt>
<pdfrwt beam="2">  1       -2 0.26524015E-01 0.28560829E+03</pdfrwt>
<totfact> 0.47008798E+03</totfact>
</mgrwt>
</event>
<event>
 4    1  0.1351183E-004  0.2703417E+03  0.7818608E-02  0.1101084E+00
         -2   -1    0    0    0  501 -0.00000000000E+00  0.00000000000E+00  0.16629558905E+02  0.16629559101E+02  0.25500000000E-02 0. -1.
          2   -1    0    0  501    0  0.00000000000E+00 -0.00000000000E+00 -0.10987159789E+04  0.10987159789E+04  0.25500000000E-02 0.  1.
    5000001    1    1    2    0    0  0.43008942188E+02  0.93822952809E+01 -0.60002260051E+03  0.61489341978E+03  0.12700000000E+03 0.  0.
   -5000001    1    1    2    0    0 -0.43008942188E+02 -0.93822952809E+01 -0.48206381948E+03  0.50045211821E+03  0.12700000000E+03 0.  0.
<mgrwt>
<rscale>  0 0.27034173E+03</rscale>
<asrwt>0</asrwt>
<pdfrwt beam="1">  1        2 0.15695938E+00 0.27034173E+03</pdfrwt>
<pdfrwt beam="2">  1       -2 0.23756520E-02 0.27034173E+03</pdfrwt>
<totfact> 0.15246929E+04</totfact>
</mgrwt>
</event>
<event>
 4    1  0.1351183E-004  0.5299101E+03  0.7818608E-02  0.1006254E+00
         -2   -1    0    0    0  501 -0.00000000000E+00  0.00000000000E+00  0.49601945725E+02  0.49601945790E+02  0.25500000000E-02 0. -1.
          2   -1    0    0  501    0  0.00000000000E+00 -0.00000000000E+00 -0.14152906069E+04  0.14152906069E+04  0.25500000000E-02 0.  1.
    5000001    1    1    2    0    0 -0.10351829812E+03  0.20668005979E+03 -0.75275090577E+03  0.79761871298E+03  0.12700000000E+03 0.  0.
   -5000001    1    1    2    0    0  0.10351829812E+03 -0.20668005979E+03 -0.61293775540E+03  0.66727383970E+03  0.12700000000E+03 0.  0.
<mgrwt>
<rscale>  0 0.52991006E+03</rscale>
<asrwt>0</asrwt>
<pdfrwt beam="1">  1        2 0.20218435E+00 0.52991006E+03</pdfrwt>
<pdfrwt beam="2">  1       -2 0.70859931E-02 0.52991006E+03</pdfrwt>
<totfact> 0.19617773E+03</totfact>
</mgrwt>
</event>
<event>
 4    1  0.1351183E-004  0.4843695E+03  0.7818608E-02  0.1017941E+00
         -2   -1    0    0    0  501 -0.00000000000E+00  0.00000000000E+00  0.29432516681E+03  0.29432516682E+03  0.25500000000E-02 0. -1.
          2   -1    0    0  501    0  0.00000000000E+00 -0.00000000000E+00 -0.19928116539E+03  0.19928116541E+03  0.25500000000E-02 0.  1.
    5000001    1    1    2    0    0  0.76312653651E+02  0.19128266431E+03  0.58296391296E+02  0.24887777725E+03  0.12700000000E+03 0.  0.
   -5000001    1    1    2    0    0 -0.76312653651E+02 -0.19128266431E+03  0.36747610123E+02  0.24472855498E+03  0.12700000000E+03 0.  0.
<mgrwt>
<rscale>  0 0.48436954E+03</rscale>
<asrwt>0</asrwt>
<pdfrwt beam="1">  1        2 0.28468738E-01 0.48436954E+03</pdfrwt>
<pdfrwt beam="2">  1       -2 0.42046452E-01 0.48436954E+03</pdfrwt>
<totfact> 0.10137620E+03</totfact>
</mgrwt>
</event>
<event>
 4    1  0.1351183E-004  0.3385003E+03  0.7818608E-02  0.1067436E+00
         -2   -1    0    0    0  501 -0.00000000000E+00  0.00000000000E+00  0.27769454066E+03  0.27769454067E+03  0.25500000000E-02 0. -1.
          2   -1    0    0  501    0  0.00000000000E+00 -0.00000000000E+00 -0.10315514443E+03  0.10315514446E+03  0.25500000000E-02 0.  1.
    5000001    1    1    2    0    0 -0.42270440267E+01  0.11090846725E+03  0.71435438828E+02  0.18316816844E+03  0.12700000000E+03 0.  0.
   -5000001    1    1    2    0    0  0.42270440267E+01 -0.11090846725E+03  0.10310395740E+03  0.19768151669E+03  0.12700000000E+03 0.  0.
<mgrwt>
<rscale>  0 0.33850034E+03</rscale>
<asrwt>0</asrwt>
<pdfrwt beam="1">  1        2 0.14736449E-01 0.33850034E+03</pdfrwt>
<pdfrwt beam="2">  1       -2 0.39670648E-01 0.33850034E+03</pdfrwt>
<totfact> 0.24199238E+03</totfact>
</mgrwt>
</event>
<event>
 4    1  0.1351183E-004  0.4003311E+03  0.7818608E-02  0.1043665E+00
         -2   -1    0    0    0  501 -0.00000000000E+00  0.00000000000E+00  0.35451908961E+02  0.35451909052E+02  0.25500000000E-02 0. -1.
          2   -1    0    0  501    0  0.00000000000E+00 -0.00000000000E+00 -0.11301578849E+04  0.11301578849E+04  0.25500000000E-02 0.  1.
    5000001    1    1    2    0    0  0.90952068767E+02  0.10872458121E+03 -0.72787168216E+03  0.75234267396E+03  0.12700000000E+03 0.  0.
   -5000001    1    1    2    0    0 -0.90952068767E+02 -0.10872458121E+03 -0.36683429374E+03  0.41326711996E+03  0.12700000000E+03 0.  0.
<mgrwt>
<rscale>  0 0.40033114E+03</rscale>
<asrwt>0</asrwt>
<pdfrwt beam="1">  1        2 0.16145110E+00 0.40033114E+03</pdfrwt>
<pdfrwt beam="2">  1       -2 0.50645592E-02 0.40033114E+03</pdfrwt>
<totfact> 0.47290920E+03</totfact>
</mgrwt>
</event>
<event>
 4    1  0.1351183E-004  0.4481271E+03  0.7818608E-02  0.1028282E+00
         -2   -1    0    0    0  501 -0.00000000000E+00  0.00000000000E+00  0.56932716481E+03  0.56932716481E+03  0.25500000000E-02 0. -1.
          2   -1    0    0  501    0  0.00000000000E+00 -0.00000000000E+00 -0.88182132557E+02  0.88182132594E+02  0.25500000000E-02 0.  1.
    5000001    1    1    2    0    0 -0.17685388577E+03 -0.46580961356E+02  0.20379190288E+03  0.30183972991E+03  0.12700000000E+03 0.  0.
   -5000001    1    1    2    0    0  0.17685388577E+03  0.46580961356E+02  0.27735312937E+03  0.35566956750E+03  0.12700000000E+03 0.  0.
<mgrwt>
<rscale>  0 0.44812714E+03</rscale>
<asrwt>0</asrwt>
<pdfrwt beam="1">  1        2 0.12597447E-01 0.44812714E+03</pdfrwt>
<pdfrwt beam="2">  1       -2 0.81332453E-01 0.44812714E+03</pdfrwt>
<totfact> 0.66578861E+02</totfact>
</mgrwt>
</event>
<event>
 4    1  0.1351183E-004  0.3438860E+03  0.7818608E-02  0.1065153E+00
         -2   -1    0    0    0  501 -0.00000000000E+00  0.00000000000E+00  0.30899161976E+02  0.30899162082E+02  0.25500000000E-02 0. -1.
          2   -1    0    0  501    0  0.00000000000E+00 -0.00000000000E+00 -0.95680231262E+03  0.95680231262E+03  0.25500000000E-02 0.  1.
    5000001    1    1    2    0    0  0.10391202269E+03 -0.80805062606E+01 -0.60862467820E+03  0.63040939234E+03  0.12700000000E+03 0.  0.
   -5000001    1    1    2    0    0 -0.10391202269E+03  0.80805062606E+01 -0.31727847244E+03  0.35729208236E+03  0.12700000000E+03 0.  0.
<mgrwt>
<rscale>  0 0.34388597E+03</rscale>
<asrwt>0</asrwt>
<pdfrwt beam="1">  1        2 0.13668603E+00 0.34388597E+03</pdfrwt>
<pdfrwt beam="2">  1       -2 0.44141666E-02 0.34388597E+03</pdfrwt>
<totfact> 0.73539443E+03</totfact>
</mgrwt>
</event>
<event>
 4    1  0.1351183E-004  0.3732838E+03  0.7818608E-02  0.1053444E+00
          2   -1    0    0  501    0  0.00000000000E+00  0.00000000000E+00  0.47148150385E+03  0.47148150385E+03  0.25500000000E-02 0.  1.
         -2   -1    0    0    0  501 -0.00000000000E+00 -0.00000000000E+00 -0.73884558792E+02  0.73884558836E+02  0.25500000000E-02 0. -1.
    5000001    1    1    2    0    0 -0.89473472274E+02 -0.65229006580E+02  0.81500647242E+02  0.18716752133E+03  0.12700000000E+03 0.  0.
   -5000001    1    1    2    0    0  0.89473472274E+02  0.65229006580E+02  0.31609629781E+03  0.35819854136E+03  0.12700000000E+03 0.  0.
<mgrwt>
<rscale>  0 0.37328382E+03</rscale>
<asrwt>0</asrwt>
<pdfrwt beam="1">  1        2 0.67354498E-01 0.37328382E+03</pdfrwt>
<pdfrwt beam="2">  1       -2 0.10554937E-01 0.37328382E+03</pdfrwt>
<totfact> 0.44211833E+03</totfact>
</mgrwt>
</event>
<event>
 4    1  0.1351183E-004  0.6758126E+03  0.7818608E-02  0.9759514E-01
         -2   -1    0    0    0  501 -0.00000000000E+00  0.00000000000E+00  0.62307885500E+02  0.62307885552E+02  0.25500000000E-02 0. -1.
          2   -1    0    0  501    0  0.00000000000E+00 -0.00000000000E+00 -0.18325234198E+04  0.18325234198E+04  0.25500000000E-02 0.  1.
    5000001    1    1    2    0    0  0.14906826050E+03 -0.27521782354E+03 -0.91102763594E+03  0.97163087133E+03  0.12700000000E+03 0.  0.
   -5000001    1    1    2    0    0 -0.14906826050E+03  0.27521782354E+03 -0.85918789836E+03  0.92320043402E+03  0.12700000000E+03 0.  0.
<mgrwt>
<rscale>  0 0.67581258E+03</rscale>
<asrwt>0</asrwt>
<pdfrwt beam="1">  1        2 0.26178903E+00 0.67581258E+03</pdfrwt>
<pdfrwt beam="2">  1       -2 0.89011276E-02 0.67581258E+03</pdfrwt>
<totfact> 0.82776288E+02</totfact>
</mgrwt>
</event>
<event>
 4    1  0.1351183E-004  0.4295492E+03  0.7818608E-02  0.1034002E+00
         -2   -1    0    0    0  501 -0.00000000000E+00  0.00000000000E+00  0.82678758702E+03  0.82678758702E+03  0.25500000000E-02 0. -1.
          2   -1    0    0  501    0  0.00000000000E+00 -0.00000000000E+00 -0.55791986760E+02  0.55791986819E+02  0.25500000000E-02 0.  1.
    5000001    1    1    2    0    0 -0.12179426014E+03 -0.10089320964E+03  0.24041691951E+03  0.31455138966E+03  0.12700000000E+03 0.  0.
   -5000001    1    1    2    0    0  0.12179426014E+03  0.10089320964E+03  0.53057868075E+03  0.56802818418E+03  0.12700000000E+03 0.  0.
<mgrwt>
<rscale>  0 0.42954917E+03</rscale>
<asrwt>0</asrwt>
<pdfrwt beam="1">  1        2 0.79702848E-02 0.42954917E+03</pdfrwt>
<pdfrwt beam="2">  1       -2 0.11811250E+00 0.42954917E+03</pdfrwt>
<totfact> 0.49620121E+02</totfact>
</mgrwt>
</event>
<event>
 4    1  0.1351183E-004  0.6835541E+03  0.7818608E-02  0.9745778E-01
          2   -1    0    0  501    0  0.00000000000E+00  0.00000000000E+00  0.25111238615E+03  0.25111238616E+03  0.25500000000E-02 0.  1.
         -2   -1    0    0    0  501 -0.00000000000E+00 -0.00000000000E+00 -0.46517643552E+03  0.46517643553E+03  0.25500000000E-02 0. -1.
    5000001    1    1    2    0    0 -0.84487202395E+01  0.29303329787E+03 -0.23426606902E+03  0.39616850661E+03  0.12700000000E+03 0.  0.
   -5000001    1    1    2    0    0  0.84487202395E+01 -0.29303329787E+03  0.20202019645E+02  0.32012031509E+03  0.12700000000E+03 0.  0.
<mgrwt>
<rscale>  0 0.68355414E+03</rscale>
<asrwt>0</asrwt>
<pdfrwt beam="1">  1        2 0.35873198E-01 0.68355414E+03</pdfrwt>
<pdfrwt beam="2">  1       -2 0.66453776E-01 0.68355414E+03</pdfrwt>
<totfact> 0.30563978E+02</totfact>
</mgrwt>
</event>
<event>
 4    1  0.1351183E-004  0.3430083E+03  0.7818608E-02  0.1065522E+00
          2   -1    0    0  501    0  0.00000000000E+00  0.00000000000E+00  0.45285925339E+03  0.45285925340E+03  0.25500000000E-02 0.  1.
         -2   -1    0    0    0  501 -0.00000000000E+00 -0.00000000000E+00 -0.64951027793E+02  0.64951027843E+02  0.25500000000E-02 0. -1.
    5000001    1    1    2    0    0 -0.62302107453E+02 -0.88289179632E+02  0.13341608730E+03  0.21355417155E+03  0.12700000000E+03 0.  0.
   -5000001    1    1    2    0    0  0.62302107453E+02  0.88289179632E+02  0.25449213829E+03  0.30425610970E+03  0.12700000000E+03 0.  0.
<mgrwt>
<rscale>  0 0.34300830E+03</rscale>
<asrwt>0</asrwt>
<pdfrwt beam="1">  1        2 0.64694178E-01 0.34300830E+03</pdfrwt>
<pdfrwt beam="2">  1       -2 0.92787184E-02 0.34300830E+03</pdfrwt>
<totfact> 0.56689091E+03</totfact>
</mgrwt>
</event>
<event>
 4    1  0.1351183E-004  0.6902802E+03  0.7818608E-02  0.9734000E-01
         -2   -1    0    0    0  501 -0.00000000000E+00  0.00000000000E+00  0.50027234882E+02  0.50027234947E+02  0.25500000000E-02 0. -1.
          2   -1    0    0  501    0  0.00000000000E+00 -0.00000000000E+00 -0.23811370020E+04  0.23811370020E+04  0.25500000000E-02 0.  1.
    5000001    1    1    2    0    0  0.50786499797E+02 -0.30698325551E+03 -0.14423110012E+04  0.14809483488E+04  0.12700000000E+03 0.  0.
   -5000001    1    1    2    0    0 -0.50786499797E+02  0.30698325551E+03 -0.88879876592E+03  0.95021588812E+03  0.12700000000E+03 0.  0.
<mgrwt>
<rscale>  0 0.69028023E+03</rscale>
<asrwt>0</asrwt>
<pdfrwt beam="1">  1        2 0.34016236E+00 0.69028023E+03</pdfrwt>
<pdfrwt beam="2">  1       -2 0.71467494E-02 0.69028023E+03</pdfrwt>
<totfact> 0.61981443E+02</totfact>
</mgrwt>
</event>
<event>
 4    1  0.1351183E-004  0.3034084E+03  0.7818608E-02  0.1083549E+00
         -2   -1    0    0    0  501 -0.00000000000E+00  0.00000000000E+00  0.45543649188E+02  0.45543649259E+02  0.25500000000E-02 0. -1.
          2   -1    0    0  501    0  0.00000000000E+00 -0.00000000000E+00 -0.50532111400E+03  0.50532111401E+03  0.25500000000E-02 0.  1.
    5000001    1    1    2    0    0  0.12018002541E+02 -0.79483338868E+02 -0.19254167966E+03  0.24426078676E+03  0.12700000000E+03 0.  0.
   -5000001    1    1    2    0    0 -0.12018002541E+02  0.79483338868E+02 -0.26723578516E+03  0.30660397651E+03  0.12700000000E+03 0.  0.
<mgrwt>
<rscale>  0 0.30340842E+03</rscale>
<asrwt>0</asrwt>
<pdfrwt beam="1">  1        2 0.72188727E-01 0.30340842E+03</pdfrwt>
<pdfrwt beam="2">  1       -2 0.65062359E-02 0.30340842E+03</pdfrwt>
<totfact> 0.87215919E+03</totfact>
</mgrwt>
</event>
<event>
 4    1  0.1351183E-004  0.7934163E+03  0.7818608E-02  0.9569596E-01
         -2   -1    0    0    0  501 -0.00000000000E+00  0.00000000000E+00  0.19516541536E+04  0.19516541536E+04  0.25500000000E-02 0. -1.
          2   -1    0    0  501    0  0.00000000000E+00 -0.00000000000E+00 -0.80637927400E+02  0.80637927440E+02  0.25500000000E-02 0.  1.
    5000001    1    1    2    0    0 -0.13500269458E+03  0.28412527327E+03  0.14622912123E+04  0.15011254072E+04  0.12700000000E+03 0.  0.
   -5000001    1    1    2    0    0  0.13500269458E+03 -0.28412527327E+03  0.40872501390E+03  0.53116667389E+03  0.12700000000E+03 0.  0.
<mgrwt>
<rscale>  0 0.79341627E+03</rscale>
<asrwt>0</asrwt>
<pdfrwt beam="1">  1        2 0.11519705E-01 0.79341627E+03</pdfrwt>
<pdfrwt beam="2">  1       -2 0.27880771E+00 0.79341627E+03</pdfrwt>
<totfact> 0.24554943E+01</totfact>
</mgrwt>
</event>
<event>
 4    1  0.1351183E-004  0.3203837E+03  0.7818608E-02  0.1075473E+00
         -2   -1    0    0    0  501 -0.00000000000E+00  0.00000000000E+00  0.91844725583E+01  0.91844729123E+01  0.25500000000E-02 0. -1.
          2   -1    0    0  501    0  0.00000000000E+00 -0.00000000000E+00 -0.27940015469E+04  0.27940015469E+04  0.25500000000E-02 0.  1.
    5000001    1    1    2    0    0  0.99323976503E+01  0.95749032881E+02 -0.15350814888E+04  0.15433310426E+04  0.12700000000E+03 0.  0.
   -5000001    1    1    2    0    0 -0.99323976503E+01 -0.95749032881E+02 -0.12497355856E+04  0.12598549772E+04  0.12700000000E+03 0.  0.
<mgrwt>
<rscale>  0 0.32038371E+03</rscale>
<asrwt>0</asrwt>
<pdfrwt beam="1">  1        2 0.39914254E+00 0.32038371E+03</pdfrwt>
<pdfrwt beam="2">  1       -2 0.13120693E-02 0.32038371E+03</pdfrwt>
<totfact> 0.50979976E+03</totfact>
</mgrwt>
</event>
<event>
 4    1  0.1351183E-004  0.7085028E+03  0.7818608E-02  0.9702801E-01
         -2   -1    0    0    0  501 -0.00000000000E+00  0.00000000000E+00  0.43014870862E+02  0.43014870937E+02  0.25500000000E-02 0. -1.
          2   -1    0    0  501    0  0.00000000000E+00 -0.00000000000E+00 -0.29174570584E+04  0.29174570584E+04  0.25500000000E-02 0.  1.
    5000001    1    1    2    0    0 -0.22828010562E+03  0.18495626447E+03 -0.20715320641E+04  0.20961141951E+04  0.12700000000E+03 0.  0.
   -5000001    1    1    2    0    0  0.22828010562E+03 -0.18495626447E+03 -0.80291012348E+03  0.86435773426E+03  0.12700000000E+03 0.  0.
<mgrwt>
<rscale>  0 0.70850276E+03</rscale>
<asrwt>0</asrwt>
<pdfrwt beam="1">  1        2 0.41677945E+00 0.70850276E+03</pdfrwt>
<pdfrwt beam="2">  1       -2 0.61449834E-02 0.70850276E+03</pdfrwt>
<totfact> 0.41142707E+02</totfact>
</mgrwt>
</event>
<event>
 4    1  0.1351183E-004  0.6336966E+03  0.7818608E-02  0.9837862E-01
          2   -1    0    0  501    0  0.00000000000E+00  0.00000000000E+00  0.26850548109E+04  0.26850548109E+04  0.25500000000E-02 0.  1.
         -2   -1    0    0    0  501 -0.00000000000E+00 -0.00000000000E+00 -0.37389498660E+02  0.37389498747E+02  0.25500000000E-02 0. -1.
    5000001    1    1    2    0    0 -0.28871693494E+02  0.25210273387E+03  0.71817723438E+03  0.77220263085E+03  0.12700000000E+03 0.  0.
   -5000001    1    1    2    0    0  0.28871693494E+02 -0.25210273387E+03  0.19294880778E+04  0.19502416788E+04  0.12700000000E+03 0.  0.
<mgrwt>
<rscale>  0 0.63369663E+03</rscale>
<asrwt>0</asrwt>
<pdfrwt beam="1">  1        2 0.38357917E+00 0.63369663E+03</pdfrwt>
<pdfrwt beam="2">  1       -2 0.53413582E-02 0.63369663E+03</pdfrwt>
<totfact> 0.68549364E+02</totfact>
</mgrwt>
</event>
<event>
 4    1  0.1351183E-004  0.3500833E+03  0.7818608E-02  0.1062581E+00
          2   -1    0    0  501    0  0.00000000000E+00  0.00000000000E+00  0.29350142280E+04  0.29350142280E+04  0.25500000000E-02 0.  1.
         -2   -1    0    0    0  501 -0.00000000000E+00 -0.00000000000E+00 -0.10439327733E+02  0.10439328045E+02  0.25500000000E-02 0. -1.
    5000001    1    1    2    0    0 -0.10617292003E+03  0.54635163837E+02  0.15960834230E+04  0.16055743469E+04  0.12700000000E+03 0.  0.
   -5000001    1    1    2    0    0  0.10617292003E+03 -0.54635163837E+02  0.13284914772E+04  0.13398792092E+04  0.12700000000E+03 0.  0.
<mgrwt>
<rscale>  0 0.35008328E+03</rscale>
<asrwt>0</asrwt>
<pdfrwt beam="1">  1        2 0.41928738E+00 0.35008328E+03</pdfrwt>
<pdfrwt beam="2">  1       -2 0.14913339E-02 0.35008328E+03</pdfrwt>
<totfact> 0.35577209E+03</totfact>
</mgrwt>
</event>
<event>
 4    1  0.1351183E-004  0.4090488E+03  0.7818608E-02  0.1040691E+00
         -2   -1    0    0    0  501 -0.00000000000E+00  0.00000000000E+00  0.11940217253E+02  0.11940217525E+02  0.25500000000E-02 0. -1.
          2   -1    0    0  501    0  0.00000000000E+00 -0.00000000000E+00 -0.35033055154E+04  0.35033055154E+04  0.25500000000E-02 0.  1.
    5000001    1    1    2    0    0 -0.11642216267E+03  0.10339192856E+03 -0.20737348239E+04  0.20834464550E+04  0.12700000000E+03 0.  0.
   -5000001    1    1    2    0    0  0.11642216267E+03 -0.10339192856E+03 -0.14176304743E+04  0.14317992780E+04  0.12700000000E+03 0.  0.
<mgrwt>
<rscale>  0 0.40904880E+03</rscale>
<asrwt>0</asrwt>
<pdfrwt beam="1">  1        2 0.50047156E+00 0.40904880E+03</pdfrwt>
<pdfrwt beam="2">  1       -2 0.17057476E-02 0.40904880E+03</pdfrwt>
<totfact> 0.14007302E+03</totfact>
</mgrwt>
</event>
<event>
 4    1  0.1351183E-004  0.2637933E+03  0.7818608E-02  0.1104885E+00
         -2   -1    0    0    0  501 -0.00000000000E+00  0.00000000000E+00  0.90347052998E+01  0.90347056597E+01  0.25500000000E-02 0. -1.
          2   -1    0    0  501    0  0.00000000000E+00 -0.00000000000E+00 -0.19255438197E+04  0.19255438197E+04  0.25500000000E-02 0.  1.
    5000001    1    1    2    0    0  0.14844110530E+02  0.27782098596E+02 -0.83652218867E+03  0.84669390263E+03  0.12700000000E+03 0.  0.
   -5000001    1    1    2    0    0 -0.14844110530E+02 -0.27782098596E+02 -0.10799869258E+04  0.10878846228E+04  0.12700000000E+03 0.  0.
<mgrwt>
<rscale>  0 0.26379326E+03</rscale>
<asrwt>0</asrwt>
<pdfrwt beam="1">  1        2 0.27507743E+00 0.26379326E+03</pdfrwt>
<pdfrwt beam="2">  1       -2 0.12906734E-02 0.26379326E+03</pdfrwt>
<totfact> 0.14100970E+04</totfact>
</mgrwt>
</event>
<event>
 4    1  0.1351183E-004  0.4236187E+03  0.7818608E-02  0.1035895E+00
         -2   -1    0    0    0  501 -0.00000000000E+00  0.00000000000E+00  0.10961632655E+04  0.10961632655E+04  0.25500000000E-02 0. -1.
          2   -1    0    0  501    0  0.00000000000E+00 -0.00000000000E+00 -0.40927480811E+02  0.40927480891E+02  0.25500000000E-02 0.  1.
    5000001    1    1    2    0    0 -0.98364576145E+02 -0.55198634785E+02  0.86727368087E+03  0.88375059640E+03  0.12700000000E+03 0.  0.
   -5000001    1    1    2    0    0  0.98364576145E+02  0.55198634785E+02  0.18796210382E+03  0.25334014998E+03  0.12700000000E+03 0.  0.
<mgrwt>
<rscale>  0 0.42361870E+03</rscale>
<asrwt>0</asrwt>
<pdfrwt beam="1">  1        2 0.58467834E-02 0.42361870E+03</pdfrwt>
<pdfrwt beam="2">  1       -2 0.15659474E+00 0.42361870E+03</pdfrwt>
<totfact> 0.36356008E+02</totfact>
</mgrwt>
</event>
<event>
 4    1  0.1351183E-004  0.4371350E+03  0.7818608E-02  0.1031629E+00
          2   -1    0    0  501    0  0.00000000000E+00  0.00000000000E+00  0.75813686423E+02  0.75813686466E+02  0.25500000000E-02 0.  1.
         -2   -1    0    0    0  501 -0.00000000000E+00 -0.00000000000E+00 -0.63012035773E+03  0.63012035774E+03  0.25500000000E-02 0. -1.
    5000001    1    1    2    0    0 -0.10649020081E+03  0.75011776157E+02 -0.81516908115E+02  0.19935128728E+03  0.12700000000E+03 0.  0.
   -5000001    1    1    2    0    0  0.10649020081E+03 -0.75011776157E+02 -0.47278976319E+03  0.50658275692E+03  0.12700000000E+03 0.  0.
<mgrwt>
<rscale>  0 0.43713498E+03</rscale>
<asrwt>0</asrwt>
<pdfrwt beam="1">  1        2 0.10830527E-01 0.43713498E+03</pdfrwt>
<pdfrwt beam="2">  1       -2 0.90017191E-01 0.43713498E+03</pdfrwt>
<totfact> 0.63836682E+02</totfact>
</mgrwt>
</event>
<event>
 4    1  0.1351183E-004  0.3309687E+03  0.7818608E-02  0.1070709E+00
         -2   -1    0    0    0  501 -0.00000000000E+00  0.00000000000E+00  0.68727621556E+02  0.68727621604E+02  0.25500000000E-02 0. -1.
          2   -1    0    0  501    0  0.00000000000E+00 -0.00000000000E+00 -0.39845797479E+03  0.39845797480E+03  0.25500000000E-02 0.  1.
    5000001    1    1    2    0    0  0.54566206122E+02 -0.31098479600E+02 -0.28556461692E+03  0.31878007579E+03  0.12700000000E+03 0.  0.
   -5000001    1    1    2    0    0 -0.54566206122E+02  0.31098479600E+02 -0.44165736314E+02  0.14840552061E+03  0.12700000000E+03 0.  0.
<mgrwt>
<rscale>  0 0.33096869E+03</rscale>
<asrwt>0</asrwt>
<pdfrwt beam="1">  1        2 0.56922566E-01 0.33096869E+03</pdfrwt>
<pdfrwt beam="2">  1       -2 0.98182319E-02 0.33096869E+03</pdfrwt>
<totfact> 0.59539629E+03</totfact>
</mgrwt>
</event>
<event>
 4    1  0.1351183E-004  0.5329492E+03  0.7818608E-02  0.1005519E+00
         -2   -1    0    0    0  501 -0.00000000000E+00  0.00000000000E+00  0.19948766974E+02  0.19948767137E+02  0.25500000000E-02 0. -1.
          2   -1    0    0  501    0  0.00000000000E+00 -0.00000000000E+00 -0.35595540232E+04  0.35595540232E+04  0.25500000000E-02 0.  1.
    5000001    1    1    2    0    0  0.86661002919E-01 -0.23293023627E+03 -0.16021329102E+04  0.16239505424E+04  0.12700000000E+03 0.  0.
   -5000001    1    1    2    0    0 -0.86661002919E-01  0.23293023627E+03 -0.19374723461E+04  0.19555522479E+04  0.12700000000E+03 0.  0.
<mgrwt>
<rscale>  0 0.53294921E+03</rscale>
<asrwt>0</asrwt>
<pdfrwt beam="1">  1        2 0.50850731E+00 0.53294921E+03</pdfrwt>
<pdfrwt beam="2">  1       -2 0.28498261E-02 0.53294921E+03</pdfrwt>
<totfact> 0.59239234E+02</totfact>
</mgrwt>
</event>
<event>
 4    1  0.1351183E-004  0.6385700E+03  0.7818608E-02  0.9828466E-01
          2   -1    0    0  501    0  0.00000000000E+00  0.00000000000E+00  0.62112904339E+03  0.62112904340E+03  0.25500000000E-02 0.  1.
         -2   -1    0    0    0  501 -0.00000000000E+00 -0.00000000000E+00 -0.16412519783E+03  0.16412519785E+03  0.25500000000E-02 0. -1.
    5000001    1    1    2    0    0  0.25723166985E+03  0.13043021975E+03  0.16539321873E+03  0.35589898988E+03  0.12700000000E+03 0.  0.
   -5000001    1    1    2    0    0 -0.25723166985E+03 -0.13043021975E+03  0.29161062683E+03  0.42935525137E+03  0.12700000000E+03 0.  0.
<mgrwt>
<rscale>  0 0.63857005E+03</rscale>
<asrwt>0</asrwt>
<pdfrwt beam="1">  1        2 0.88732720E-01 0.63857005E+03</pdfrwt>
<pdfrwt beam="2">  1       -2 0.23446457E-01 0.63857005E+03</pdfrwt>
<totfact> 0.84028404E+02</totfact>
</mgrwt>
</event>
<event>
 4    1  0.1351183E-004  0.3935458E+03  0.7818608E-02  0.1046038E+00
         -2   -1    0    0    0  501 -0.00000000000E+00  0.00000000000E+00  0.13816478446E+03  0.13816478448E+03  0.25500000000E-02 0. -1.
          2   -1    0    0  501    0  0.00000000000E+00 -0.00000000000E+00 -0.28024200354E+03  0.28024200355E+03  0.25500000000E-02 0.  1.
    5000001    1    1    2    0    0  0.14151125385E+03 -0.54482426164E+00 -0.12488218930E+03  0.22748690733E+03  0.12700000000E+03 0.  0.
   -5000001    1    1    2    0    0 -0.14151125385E+03  0.54482426164E+00 -0.17195029787E+02  0.19091988071E+03  0.12700000000E+03 0.  0.
<mgrwt>
<rscale>  0 0.39354581E+03</rscale>
<asrwt>0</asrwt>
<pdfrwt beam="1">  1        2 0.40034572E-01 0.39354581E+03</pdfrwt>
<pdfrwt beam="2">  1       -2 0.19737827E-01 0.39354581E+03</pdfrwt>
<totfact> 0.27641323E+03</totfact>
</mgrwt>
</event>
<event>
 4    1  0.1351183E-004  0.4017640E+03  0.7818608E-02  0.1043171E+00
          2   -1    0    0  501    0  0.00000000000E+00  0.00000000000E+00  0.22233502166E+04  0.22233502166E+04  0.25500000000E-02 0.  1.
         -2   -1    0    0    0  501 -0.00000000000E+00 -0.00000000000E+00 -0.18149900801E+02  0.18149900980E+02  0.25500000000E-02 0. -1.
    5000001    1    1    2    0    0  0.85192423389E+02 -0.12078138184E+03  0.83049481373E+03  0.85305130375E+03  0.12700000000E+03 0.  0.
   -5000001    1    1    2    0    0 -0.85192423389E+02  0.12078138184E+03  0.13747055021E+04  0.13884488138E+04  0.12700000000E+03 0.  0.
<mgrwt>
<rscale>  0 0.40176404E+03</rscale>
<asrwt>0</asrwt>
<pdfrwt beam="1">  1        2 0.31762149E+00 0.40176404E+03</pdfrwt>
<pdfrwt beam="2">  1       -2 0.25928428E-02 0.40176404E+03</pdfrwt>
<totfact> 0.36020105E+03</totfact>
</mgrwt>
</event>
<event>
 4    1  0.1351183E-004  0.3993408E+03  0.7818608E-02  0.1044008E+00
         -2   -1    0    0    0  501 -0.00000000000E+00  0.00000000000E+00  0.79511676284E+02  0.79511676325E+02  0.25500000000E-02 0. -1.
          2   -1    0    0  501    0  0.00000000000E+00 -0.00000000000E+00 -0.50141392215E+03  0.50141392215E+03  0.25500000000E-02 0.  1.
    5000001    1    1    2    0    0  0.68076220689E+02  0.13805244067E+03 -0.20104056779E+03  0.28326517276E+03  0.12700000000E+03 0.  0.
   -5000001    1    1    2    0    0 -0.68076220689E+02 -0.13805244067E+03 -0.22086167807E+03  0.29766042572E+03  0.12700000000E+03 0.  0.
<mgrwt>
<rscale>  0 0.39934076E+03</rscale>
<asrwt>0</asrwt>
<pdfrwt beam="1">  1        2 0.71630559E-01 0.39934076E+03</pdfrwt>
<pdfrwt beam="2">  1       -2 0.11358811E-01 0.39934076E+03</pdfrwt>
<totfact> 0.36710481E+03</totfact>
</mgrwt>
</event>
<event>
 4    1  0.1351183E-004  0.4606513E+03  0.7818608E-02  0.1024592E+00
         -2   -1    0    0    0  501 -0.00000000000E+00  0.00000000000E+00  0.46003844836E+02  0.46003844907E+02  0.25500000000E-02 0. -1.
          2   -1    0    0  501    0  0.00000000000E+00 -0.00000000000E+00 -0.11531623437E+04  0.11531623437E+04  0.25500000000E-02 0.  1.
    5000001    1    1    2    0    0  0.49720093103E+02 -0.18108920294E+03 -0.44766032018E+03  0.50179094187E+03  0.12700000000E+03 0.  0.
   -5000001    1    1    2    0    0 -0.49720093103E+02  0.18108920294E+03 -0.65949817869E+03  0.69737524674E+03  0.12700000000E+03 0.  0.
<mgrwt>
<rscale>  0 0.46065128E+03</rscale>
<asrwt>0</asrwt>
<pdfrwt beam="1">  1        2 0.16473746E+00 0.46065128E+03</pdfrwt>
<pdfrwt beam="2">  1       -2 0.65719785E-02 0.46065128E+03</pdfrwt>
<totfact> 0.30672669E+03</totfact>
</mgrwt>
</event>
<event>
 4    1  0.1351183E-004  0.5801020E+03  0.7818608E-02  0.9947570E-01
         -2   -1    0    0    0  501 -0.00000000000E+00  0.00000000000E+00  0.58186214593E+02  0.58186214649E+02  0.25500000000E-02 0. -1.
          2   -1    0    0  501    0  0.00000000000E+00 -0.00000000000E+00 -0.14458680078E+04  0.14458680078E+04  0.25500000000E-02 0.  1.
    5000001    1    1    2    0    0 -0.51886449285E+02  0.22566533659E+03 -0.38288987312E+03  0.46513514455E+03  0.12700000000E+03 0.  0.
   -5000001    1    1    2    0    0  0.51886449285E+02 -0.22566533659E+03 -0.10047919201E+04  0.10389190779E+04  0.12700000000E+03 0.  0.
<mgrwt>
<rscale>  0 0.58010201E+03</rscale>
<asrwt>0</asrwt>
<pdfrwt beam="1">  1        2 0.20655255E+00 0.58010201E+03</pdfrwt>
<pdfrwt beam="2">  1       -2 0.83123172E-02 0.58010201E+03</pdfrwt>
<totfact> 0.14654241E+03</totfact>
</mgrwt>
</event>
<event>
 4    1  0.1351183E-004  0.3120443E+03  0.7818608E-02  0.1079370E+00
         -2   -1    0    0    0  501 -0.00000000000E+00  0.00000000000E+00  0.94193817513E+02  0.94193817547E+02  0.25500000000E-02 0. -1.
          2   -1    0    0  501    0  0.00000000000E+00 -0.00000000000E+00 -0.25843420752E+03  0.25843420753E+03  0.25500000000E-02 0.  1.
    5000001    1    1    2    0    0  0.30354296433E+02  0.72283233163E+02 -0.13350559237E+03  0.20024732783E+03  0.12700000000E+03 0.  0.
   -5000001    1    1    2    0    0 -0.30354296433E+02 -0.72283233163E+02 -0.30734797635E+02  0.15238069725E+03  0.12700000000E+03 0.  0.
<mgrwt>
<rscale>  0 0.31204426E+03</rscale>
<asrwt>0</asrwt>
<pdfrwt beam="1">  1        2 0.36919172E-01 0.31204426E+03</pdfrwt>
<pdfrwt beam="2">  1       -2 0.13456260E-01 0.31204426E+03</pdfrwt>
<totfact> 0.57100778E+03</totfact>
</mgrwt>
</event>
<event>
 4    1  0.1351183E-004  0.5946525E+03  0.7818608E-02  0.9916563E-01
         -2   -1    0    0    0  501 -0.00000000000E+00  0.00000000000E+00  0.39559249300E+02  0.39559249383E+02  0.25500000000E-02 0.  1.
          2   -1    0    0  501    0  0.00000000000E+00 -0.00000000000E+00 -0.22346963681E+04  0.22346963681E+04  0.25500000000E-02 0. -1.
    5000001    1    1    2    0    0  0.13068197622E+03  0.23186194314E+03 -0.12425055072E+04  0.12770225820E+04  0.12700000000E+03 0.  0.
   -5000001    1    1    2    0    0 -0.13068197622E+03 -0.23186194314E+03 -0.95263161161E+03  0.99723303546E+03  0.12700000000E+03 0.  0.
<mgrwt>
<rscale>  0 0.59465254E+03</rscale>
<asrwt>0</asrwt>
<pdfrwt beam="1">  1        2 0.31924226E+00 0.59465254E+03</pdfrwt>
<pdfrwt beam="2">  1       -2 0.56513227E-02 0.59465254E+03</pdfrwt>
<totfact> 0.10711383E+03</totfact>
</mgrwt>
</event>
<event>
 4    1  0.1351183E-004  0.4874429E+03  0.7818608E-02  0.1017109E+00
          2   -1    0    0  501    0  0.00000000000E+00  0.00000000000E+00  0.38352055007E+03  0.38352055008E+03  0.25500000000E-02 0.  1.
         -2   -1    0    0    0  501 -0.00000000000E+00 -0.00000000000E+00 -0.15488127093E+03  0.15488127095E+03  0.25500000000E-02 0. -1.
    5000001    1    1    2    0    0 -0.14892595083E+03 -0.14077147094E+03  0.15376907132E+03  0.28595362064E+03  0.12700000000E+03 0.  0.
   -5000001    1    1    2    0    0  0.14892595083E+03  0.14077147094E+03  0.74870207820E+02  0.25244820039E+03  0.12700000000E+03 0.  0.
<mgrwt>
<rscale>  0 0.48744292E+03</rscale>
<asrwt>0</asrwt>
<pdfrwt beam="1">  1        2 0.54788650E-01 0.48744292E+03</pdfrwt>
<pdfrwt beam="2">  1       -2 0.22125896E-01 0.48744292E+03</pdfrwt>
<totfact> 0.16114419E+03</totfact>
</mgrwt>
</event>
<event>
 4    1  0.1351183E-004  0.4604555E+03  0.7818608E-02  0.1024649E+00
         -2   -1    0    0    0  501 -0.00000000000E+00  0.00000000000E+00  0.35119409477E+03  0.35119409478E+03  0.25500000000E-02 0. -1.
          2   -1    0    0  501    0  0.00000000000E+00 -0.00000000000E+00 -0.15092739407E+03  0.15092739409E+03  0.25500000000E-02 0.  1.
    5000001    1    1    2    0    0 -0.15557753215E+03 -0.92490978742E+01 -0.22205171548E+02  0.20226711044E+03  0.12700000000E+03 0.  0.
   -5000001    1    1    2    0    0  0.15557753215E+03  0.92490978742E+01  0.22247187225E+03  0.29985437843E+03  0.12700000000E+03 0.  0.
<mgrwt>
<rscale>  0 0.46045547E+03</rscale>
<asrwt>0</asrwt>
<pdfrwt beam="1">  1        2 0.21561056E-01 0.46045547E+03</pdfrwt>
<pdfrwt beam="2">  1       -2 0.50170585E-01 0.46045547E+03</pdfrwt>
<totfact> 0.97934165E+02</totfact>
</mgrwt>
</event>
<event>
 4    1  0.1351183E-004  0.3672494E+03  0.7818608E-02  0.1055750E+00
         -2   -1    0    0    0  501 -0.00000000000E+00  0.00000000000E+00  0.64581324927E+02  0.64581324977E+02  0.25500000000E-02 0. -1.
          2   -1    0    0  501    0  0.00000000000E+00 -0.00000000000E+00 -0.52210190983E+03  0.52210190984E+03  0.25500000000E-02 0.  1.
    5000001    1    1    2    0    0  0.11790040759E+03 -0.60244057660E+02 -0.21647085778E+03  0.28375779260E+03  0.12700000000E+03 0.  0.
   -5000001    1    1    2    0    0 -0.11790040759E+03  0.60244057660E+02 -0.24104972712E+03  0.30292544221E+03  0.12700000000E+03 0.  0.
<mgrwt>
<rscale>  0 0.36724941E+03</rscale>
<asrwt>0</asrwt>
<pdfrwt beam="1">  1        2 0.74585985E-01 0.36724941E+03</pdfrwt>
<pdfrwt beam="2">  1       -2 0.92259039E-02 0.36724941E+03</pdfrwt>
<totfact> 0.48910084E+03</totfact>
</mgrwt>
</event>
<event>
 4    1  0.1351183E-004  0.5195807E+03  0.7818608E-02  0.1008791E+00
         -2   -1    0    0    0  501 -0.00000000000E+00  0.00000000000E+00  0.24470278538E+02  0.24470278671E+02  0.25500000000E-02 0. -1.
          2   -1    0    0  501    0  0.00000000000E+00 -0.00000000000E+00 -0.27580811736E+04  0.27580811736E+04  0.25500000000E-02 0.  1.
    5000001    1    1    2    0    0  0.58338410765E+02  0.21798393975E+03 -0.14793508253E+04  0.15018416137E+04  0.12700000000E+03 0.  0.
   -5000001    1    1    2    0    0 -0.58338410765E+02 -0.21798393975E+03 -0.12542600697E+04  0.12807098386E+04  0.12700000000E+03 0.  0.
<mgrwt>
<rscale>  0 0.51958066E+03</rscale>
<asrwt>0</asrwt>
<pdfrwt beam="1">  1        2 0.39401140E+00 0.51958066E+03</pdfrwt>
<pdfrwt beam="2">  1       -2 0.34957559E-02 0.51958066E+03</pdfrwt>
<totfact> 0.12171507E+03</totfact>
</mgrwt>
</event>
<event>
 4    1  0.1351183E-004  0.3516758E+03  0.7818608E-02  0.1061929E+00
         -2   -1    0    0    0  501 -0.00000000000E+00  0.00000000000E+00  0.11321368617E+03  0.11321368619E+03  0.25500000000E-02 0. -1.
          2   -1    0    0  501    0  0.00000000000E+00 -0.00000000000E+00 -0.27310279498E+03  0.27310279499E+03  0.25500000000E-02 0.  1.
    5000001    1    1    2    0    0 -0.16305231943E+02 -0.10890386134E+03 -0.23245879434E+02  0.16969172789E+03  0.12700000000E+03 0.  0.
   -5000001    1    1    2    0    0  0.16305231943E+02  0.10890386134E+03 -0.13664322938E+03  0.21662475329E+03  0.12700000000E+03 0.  0.
<mgrwt>
<rscale>  0 0.35167584E+03</rscale>
<asrwt>0</asrwt>
<pdfrwt beam="1">  1        2 0.39014685E-01 0.35167584E+03</pdfrwt>
<pdfrwt beam="2">  1       -2 0.16173384E-01 0.35167584E+03</pdfrwt>
<totfact> 0.39780600E+03</totfact>
</mgrwt>
</event>
<event>
 4    1  0.1351183E-004  0.3271618E+03  0.7818608E-02  0.1072400E+00
         -2   -1    0    0    0  501 -0.00000000000E+00  0.00000000000E+00  0.44418628873E+02  0.44418628946E+02  0.25500000000E-02 0. -1.
          2   -1    0    0  501    0  0.00000000000E+00 -0.00000000000E+00 -0.60242095287E+03  0.60242095287E+03  0.25500000000E-02 0.  1.
    5000001    1    1    2    0    0 -0.22971801994E+02  0.97392821999E+02 -0.32809787277E+03  0.36577353592E+03  0.12700000000E+03 0.  0.
   -5000001    1    1    2    0    0  0.22971801994E+02 -0.97392821999E+02 -0.22990445123E+03  0.28106604590E+03  0.12700000000E+03 0.  0.
<mgrwt>
<rscale>  0 0.32716181E+03</rscale>
<asrwt>0</asrwt>
<pdfrwt beam="1">  1        2 0.86060131E-01 0.32716181E+03</pdfrwt>
<pdfrwt beam="2">  1       -2 0.63455188E-02 0.32716181E+03</pdfrwt>
<totfact> 0.74508499E+03</totfact>
</mgrwt>
</event>
<event>
 4    1  0.1351183E-004  0.1373404E+04  0.7818608E-02  0.8973298E-01
          2   -1    0    0  501    0  0.00000000000E+00  0.00000000000E+00  0.11854733248E+04  0.11854733248E+04  0.25500000000E-02 0.  1.
         -2   -1    0    0    0  501 -0.00000000000E+00 -0.00000000000E+00 -0.39778162167E+03  0.39778162168E+03  0.25500000000E-02 0. -1.
    5000001    1    1    2    0    0  0.33815465467E+03 -0.56394746031E+03  0.56884775963E+03  0.87869339482E+03  0.12700000000E+03 0.  0.
   -5000001    1    1    2    0    0 -0.33815465467E+03  0.56394746031E+03  0.21884394351E+03  0.70456155166E+03  0.12700000000E+03 0.  0.
<mgrwt>
<rscale>  0 0.13734038E+04</rscale>
<asrwt>0</asrwt>
<pdfrwt beam="1">  1        2 0.16935333E+00 0.13734038E+04</pdfrwt>
<pdfrwt beam="2">  1       -2 0.56825946E-01 0.13734038E+04</pdfrwt>
<totfact> 0.61751276E+01</totfact>
</mgrwt>
</event>
<event>
 4    1  0.1351183E-004  0.3525911E+03  0.7818608E-02  0.1061557E+00
          2   -1    0    0  501    0  0.00000000000E+00  0.00000000000E+00  0.47321860175E+02  0.47321860244E+02  0.25500000000E-02 0.  1.
         -2   -1    0    0    0  501 -0.00000000000E+00 -0.00000000000E+00 -0.65678142404E+03  0.65678142405E+03  0.25500000000E-02 0. -1.
    5000001    1    1    2    0    0  0.70787912471E+02 -0.98059915786E+02 -0.26876028914E+03  0.32091707442E+03  0.12700000000E+03 0.  0.
   -5000001    1    1    2    0    0 -0.70787912471E+02  0.98059915786E+02 -0.34069927473E+03  0.38318620987E+03  0.12700000000E+03 0.  0.
<mgrwt>
<rscale>  0 0.35259109E+03</rscale>
<asrwt>0</asrwt>
<pdfrwt beam="1">  1        2 0.67602661E-02 0.35259109E+03</pdfrwt>
<pdfrwt beam="2">  1       -2 0.93825912E-01 0.35259109E+03</pdfrwt>
<totfact> 0.10572919E+03</totfact>
</mgrwt>
</event>
<event>
 4    1  0.1351183E-004  0.4158060E+03  0.7818608E-02  0.1038440E+00
         -2   -1    0    0    0  501 -0.00000000000E+00  0.00000000000E+00  0.12994168642E+03  0.12994168644E+03  0.25500000000E-02 0. -1.
          2   -1    0    0  501    0  0.00000000000E+00 -0.00000000000E+00 -0.33263880832E+03  0.33263880833E+03  0.25500000000E-02 0.  1.
    5000001    1    1    2    0    0  0.99218591400E+01 -0.15454962666E+03 -0.39301686757E+02  0.20410206508E+03  0.12700000000E+03 0.  0.
   -5000001    1    1    2    0    0 -0.99218591400E+01  0.15454962666E+03 -0.16339543514E+03  0.25847842969E+03  0.12700000000E+03 0.  0.
<mgrwt>
<rscale>  0 0.41580595E+03</rscale>
<asrwt>0</asrwt>
<pdfrwt beam="1">  1        2 0.47519829E-01 0.41580595E+03</pdfrwt>
<pdfrwt beam="2">  1       -2 0.18563098E-01 0.41580595E+03</pdfrwt>
<totfact> 0.25499030E+03</totfact>
</mgrwt>
</event>
<event>
 4    1  0.1351183E-004  0.1074901E+04  0.7818608E-02  0.9230006E-01
         -2   -1    0    0    0  501 -0.00000000000E+00  0.00000000000E+00  0.29734259071E+03  0.29734259072E+03  0.25500000000E-02 0. -1.
          2   -1    0    0  501    0  0.00000000000E+00 -0.00000000000E+00 -0.97144932864E+03  0.97144932864E+03  0.25500000000E-02 0.  1.
    5000001    1    1    2    0    0 -0.49029892050E+02 -0.41346253675E+03  0.35036087096E+02  0.43670553810E+03  0.12700000000E+03 0.  0.
   -5000001    1    1    2    0    0  0.49029892050E+02  0.41346253675E+03 -0.70914282502E+03  0.83208638127E+03  0.12700000000E+03 0.  0.
<mgrwt>
<rscale>  0 0.10749014E+04</rscale>
<asrwt>0</asrwt>
<pdfrwt beam="1">  1        2 0.13877847E+00 0.10749014E+04</pdfrwt>
<pdfrwt beam="2">  1       -2 0.42477513E-01 0.10749014E+04</pdfrwt>
<totfact> 0.15269548E+02</totfact>
</mgrwt>
</event>
<event>
 4    1  0.1351183E-004  0.9434726E+03  0.7818608E-02  0.9372813E-01
          2   -1    0    0  501    0  0.00000000000E+00  0.00000000000E+00  0.74300850034E+03  0.74300850035E+03  0.25500000000E-02 0.  1.
         -2   -1    0    0    0  501 -0.00000000000E+00 -0.00000000000E+00 -0.29950553080E+03  0.29950553081E+03  0.25500000000E-02 0. -1.
    5000001    1    1    2    0    0  0.23331689040E+03  0.25038963812E+03  0.55190513289E+03  0.66170991978E+03  0.12700000000E+03 0.  0.
   -5000001    1    1    2    0    0 -0.23331689040E+03 -0.25038963812E+03 -0.10840216334E+03  0.38080411138E+03  0.12700000000E+03 0.  0.
<mgrwt>
<rscale>  0 0.94347264E+03</rscale>
<asrwt>0</asrwt>
<pdfrwt beam="1">  1        2 0.10614407E+00 0.94347264E+03</pdfrwt>
<pdfrwt beam="2">  1       -2 0.42786505E-01 0.94347264E+03</pdfrwt>
<totfact> 0.21632443E+02</totfact>
</mgrwt>
</event>
<event>
 4    1  0.1351183E-004  0.2822966E+03  0.7818608E-02  0.1094441E+00
         -2   -1    0    0    0  501 -0.00000000000E+00  0.00000000000E+00  0.33613661673E+02  0.33613661770E+02  0.25500000000E-02 0. -1.
          2   -1    0    0  501    0  0.00000000000E+00 -0.00000000000E+00 -0.59270093070E+03  0.59270093070E+03  0.25500000000E-02 0.  1.
    5000001    1    1    2    0    0 -0.60231769370E+02 -0.47914157029E+01 -0.25301025189E+03  0.28947195247E+03  0.12700000000E+03 0.  0.
   -5000001    1    1    2    0    0  0.60231769370E+02  0.47914157029E+01 -0.30607701714E+03  0.33684264000E+03  0.12700000000E+03 0.  0.
<mgrwt>
<rscale>  0 0.28229664E+03</rscale>
<asrwt>0</asrwt>
<pdfrwt beam="1">  1        2 0.84671555E-01 0.28229664E+03</pdfrwt>
<pdfrwt beam="2">  1       -2 0.48019520E-02 0.28229664E+03</pdfrwt>
<totfact> 0.11573267E+04</totfact>
</mgrwt>
</event>
<event>
 4    1  0.1351183E-004  0.6080204E+03  0.7818608E-02  0.9888905E-01
          2   -1    0    0  501    0  0.00000000000E+00  0.00000000000E+00  0.29781188162E+04  0.29781188162E+04  0.25500000000E-02 0. -1.
         -2   -1    0    0    0  501 -0.00000000000E+00 -0.00000000000E+00 -0.31033747268E+02  0.31033747373E+02  0.25500000000E-02 0.  1.
    5000001    1    1    2    0    0  0.61988257375E+02 -0.19626122963E+03  0.56188458268E+03  0.61172240319E+03  0.12700000000E+03 0.  0.
   -5000001    1    1    2    0    0 -0.61988257375E+02  0.19626122963E+03  0.23852004863E+04  0.23974301604E+04  0.12700000000E+03 0.  0.
<mgrwt>
<rscale>  0 0.60802035E+03</rscale>
<asrwt>0</asrwt>
<pdfrwt beam="1">  1        2 0.42544534E+00 0.60802035E+03</pdfrwt>
<pdfrwt beam="2">  1       -2 0.44333946E-02 0.60802035E+03</pdfrwt>
<totfact> 0.64035634E+02</totfact>
</mgrwt>
</event>
<event>
 4    1  0.1351183E-004  0.3242216E+03  0.7818608E-02  0.1073723E+00
         -2   -1    0    0    0  501 -0.00000000000E+00  0.00000000000E+00  0.15230055946E+02  0.15230056159E+02  0.25500000000E-02 0. -1.
          2   -1    0    0  501    0  0.00000000000E+00 -0.00000000000E+00 -0.17255295309E+04  0.17255295309E+04  0.25500000000E-02 0.  1.
    5000001    1    1    2    0    0 -0.43757275377E+01 -0.38433625546E+02 -0.35566654835E+03  0.37963664757E+03  0.12700000000E+03 0.  0.
   -5000001    1    1    2    0    0  0.43757275377E+01  0.38433625546E+02 -0.13546329266E+04  0.13611229395E+04  0.12700000000E+03 0.  0.
<mgrwt>
<rscale>  0 0.32422160E+03</rscale>
<asrwt>0</asrwt>
<pdfrwt beam="1">  1        2 0.24650409E+00 0.32422160E+03</pdfrwt>
<pdfrwt beam="2">  1       -2 0.21757234E-02 0.32422160E+03</pdfrwt>
<totfact> 0.82403678E+03</totfact>
</mgrwt>
</event>
<event>
 4    1  0.1351183E-004  0.3379109E+03  0.7818608E-02  0.1067689E+00
          2   -1    0    0  501    0  0.00000000000E+00  0.00000000000E+00  0.41268315101E+02  0.41268315179E+02  0.25500000000E-02 0.  1.
         -2   -1    0    0    0  501 -0.00000000000E+00 -0.00000000000E+00 -0.69171571613E+03  0.69171571614E+03  0.25500000000E-02 0. -1.
    5000001    1    1    2    0    0  0.39911227796E+02  0.95305568536E+02 -0.41572969125E+03  0.44680670730E+03  0.12700000000E+03 0.  0.
   -5000001    1    1    2    0    0 -0.39911227796E+02 -0.95305568536E+02 -0.23471770978E+03  0.28617732402E+03  0.12700000000E+03 0.  0.
<mgrwt>
<rscale>  0 0.33791089E+03</rscale>
<asrwt>0</asrwt>
<pdfrwt beam="1">  1        2 0.58954740E-02 0.33791089E+03</pdfrwt>
<pdfrwt beam="2">  1       -2 0.98816523E-01 0.33791089E+03</pdfrwt>
<totfact> 0.11211189E+03</totfact>
</mgrwt>
</event>
<event>
 4    1  0.1351183E-004  0.4758312E+03  0.7818608E-02  0.1020287E+00
         -2   -1    0    0    0  501 -0.00000000000E+00  0.00000000000E+00  0.17526577612E+03  0.17526577614E+03  0.25500000000E-02 0.  1.
          2   -1    0    0  501    0  0.00000000000E+00 -0.00000000000E+00 -0.32295998082E+03  0.32295998083E+03  0.25500000000E-02 0. -1.
    5000001    1    1    2    0    0  0.60750448402E+01  0.19024030377E+03 -0.56145674956E+01  0.22888600376E+03  0.12700000000E+03 0.  0.
   -5000001    1    1    2    0    0 -0.60750448402E+01 -0.19024030377E+03 -0.14207963720E+03  0.26933975321E+03  0.12700000000E+03 0.  0.
<mgrwt>
<rscale>  0 0.47583120E+03</rscale>
<asrwt>0</asrwt>
<pdfrwt beam="1">  1        2 0.46137140E-01 0.47583120E+03</pdfrwt>
<pdfrwt beam="2">  1       -2 0.25037968E-01 0.47583120E+03</pdfrwt>
<totfact> 0.15631181E+03</totfact>
</mgrwt>
</event>
<event>
 4    1  0.1351183E-004  0.6012014E+03  0.7818608E-02  0.9902917E-01
          2   -1    0    0  501    0  0.00000000000E+00  0.00000000000E+00  0.82551246947E+03  0.82551246947E+03  0.25500000000E-02 0.  1.
         -2   -1    0    0    0  501 -0.00000000000E+00 -0.00000000000E+00 -0.10946024337E+03  0.10946024340E+03  0.25500000000E-02 0. -1.
    5000001    1    1    2    0    0  0.10236150826E+03  0.22821722358E+03  0.19001827864E+03  0.33881695018E+03  0.12700000000E+03 0.  0.
   -5000001    1    1    2    0    0 -0.10236150826E+03 -0.22821722358E+03  0.52603394746E+03  0.59615576269E+03  0.12700000000E+03 0.  0.
<mgrwt>
<rscale>  0 0.60120145E+03</rscale>
<asrwt>0</asrwt>
<pdfrwt beam="1">  1        2 0.11793035E+00 0.60120145E+03</pdfrwt>
<pdfrwt beam="2">  1       -2 0.15637178E-01 0.60120145E+03</pdfrwt>
<totfact> 0.11942693E+03</totfact>
</mgrwt>
</event>
<event>
 4    1  0.1351183E-004  0.4953231E+03  0.7818608E-02  0.1015007E+00
          2   -1    0    0  501    0  0.00000000000E+00  0.00000000000E+00  0.24008995797E+04  0.24008995797E+04  0.25500000000E-02 0.  1.
         -2   -1    0    0    0  501 -0.00000000000E+00 -0.00000000000E+00 -0.25547193002E+02  0.25547193129E+02  0.25500000000E-02 0. -1.
    5000001    1    1    2    0    0  0.48392931255E+02 -0.20018186980E+03  0.92880386027E+03  0.95980220235E+03  0.12700000000E+03 0.  0.
   -5000001    1    1    2    0    0 -0.48392931255E+02  0.20018186980E+03  0.14465485264E+04  0.14666445705E+04  0.12700000000E+03 0.  0.
<mgrwt>
<rscale>  0 0.49532311E+03</rscale>
<asrwt>0</asrwt>
<pdfrwt beam="1">  1        2 0.34298557E+00 0.49532311E+03</pdfrwt>
<pdfrwt beam="2">  1       -2 0.36495999E-02 0.49532311E+03</pdfrwt>
<totfact> 0.17430486E+03</totfact>
</mgrwt>
</event>
<event>
 4    1  0.1351183E-004  0.2707628E+03  0.7818608E-02  0.1100844E+00
          2   -1    0    0  501    0  0.00000000000E+00  0.00000000000E+00  0.62021981216E+02  0.62021981269E+02  0.25500000000E-02 0.  1.
         -2   -1    0    0    0  501 -0.00000000000E+00 -0.00000000000E+00 -0.29551018991E+03  0.29551018992E+03  0.25500000000E-02 0. -1.
    5000001    1    1    2    0    0 -0.57616642474E+01 -0.40073969266E+02 -0.14799216512E+03  0.19917279112E+03  0.12700000000E+03 0.  0.
   -5000001    1    1    2    0    0  0.57616642474E+01  0.40073969266E+02 -0.85496043573E+02  0.15835938006E+03  0.12700000000E+03 0.  0.
<mgrwt>
<rscale>  0 0.27076283E+03</rscale>
<asrwt>0</asrwt>
<pdfrwt beam="1">  1        2 0.88602832E-02 0.27076283E+03</pdfrwt>
<pdfrwt beam="2">  1       -2 0.42215741E-01 0.27076283E+03</pdfrwt>
<totfact> 0.39840944E+03</totfact>
</mgrwt>
</event>
<event>
 4    1  0.1351183E-004  0.4436419E+03  0.7818608E-02  0.1029635E+00
          2   -1    0    0  501    0  0.00000000000E+00  0.00000000000E+00  0.24401378468E+04  0.24401378468E+04  0.25500000000E-02 0.  1.
         -2   -1    0    0    0  501 -0.00000000000E+00 -0.00000000000E+00 -0.20164655945E+02  0.20164656106E+02  0.25500000000E-02 0. -1.
    5000001    1    1    2    0    0  0.64286248276E+02 -0.16716404068E+03  0.13852693257E+04  0.14025607448E+04  0.12700000000E+03 0.  0.
   -5000001    1    1    2    0    0 -0.64286248276E+02  0.16716404068E+03  0.10347038652E+04  0.10577417581E+04  0.12700000000E+03 0.  0.
<mgrwt>
<rscale>  0 0.44364193E+03</rscale>
<asrwt>0</asrwt>
<pdfrwt beam="1">  1        2 0.34859102E+00 0.44364193E+03</pdfrwt>
<pdfrwt beam="2">  1       -2 0.28806659E-02 0.44364193E+03</pdfrwt>
<totfact> 0.23904382E+03</totfact>
</mgrwt>
</event>
<event>
 4    1  0.1351183E-004  0.4844836E+03  0.7818608E-02  0.1017910E+00
          2   -1    0    0  501    0  0.00000000000E+00  0.00000000000E+00  0.28521264220E+03  0.28521264222E+03  0.25500000000E-02 0.  1.
         -2   -1    0    0    0  501 -0.00000000000E+00 -0.00000000000E+00 -0.20574508934E+03  0.20574508935E+03  0.25500000000E-02 0. -1.
    5000001    1    1    2    0    0  0.14141084866E+03 -0.14782128351E+03  0.66620196771E+02  0.24983076391E+03  0.12700000000E+03 0.  0.
   -5000001    1    1    2    0    0 -0.14141084866E+03  0.14782128351E+03  0.12847356094E+02  0.24112696766E+03  0.12700000000E+03 0.  0.
<mgrwt>
<rscale>  0 0.48448364E+03</rscale>
<asrwt>0</asrwt>
<pdfrwt beam="1">  1        2 0.40744663E-01 0.48448364E+03</pdfrwt>
<pdfrwt beam="2">  1       -2 0.29392155E-01 0.48448364E+03</pdfrwt>
<totfact> 0.13403214E+03</totfact>
</mgrwt>
</event>
<event>
 4    1  0.1351183E-004  0.2997397E+03  0.7818608E-02  0.1085371E+00
         -2   -1    0    0    0  501 -0.00000000000E+00  0.00000000000E+00  0.19163767100E+03  0.19163767102E+03  0.25500000000E-02 0. -1.
          2   -1    0    0  501    0  0.00000000000E+00 -0.00000000000E+00 -0.11720541041E+03  0.11720541044E+03  0.25500000000E-02 0.  1.
    5000001    1    1    2    0    0  0.66696125249E+02 -0.43151433164E+02  0.41999602288E+02  0.15557437417E+03  0.12700000000E+03 0.  0.
   -5000001    1    1    2    0    0 -0.66696125249E+02  0.43151433164E+02  0.32432658303E+02  0.15326870728E+03  0.12700000000E+03 0.  0.
<mgrwt>
<rscale>  0 0.29973970E+03</rscale>
<asrwt>0</asrwt>
<pdfrwt beam="1">  1        2 0.16743630E-01 0.29973970E+03</pdfrwt>
<pdfrwt beam="2">  1       -2 0.27376810E-01 0.29973970E+03</pdfrwt>
<totfact> 0.41217864E+03</totfact>
</mgrwt>
</event>
<event>
 4    1  0.1351183E-004  0.6810120E+03  0.7818608E-02  0.9750267E-01
         -2   -1    0    0    0  501 -0.00000000000E+00  0.00000000000E+00  0.48795971061E+02  0.48795971128E+02  0.25500000000E-02 0. -1.
          2   -1    0    0  501    0  0.00000000000E+00 -0.00000000000E+00 -0.23761048071E+04  0.23761048071E+04  0.25500000000E-02 0.  1.
    5000001    1    1    2    0    0 -0.29751642504E+03  0.98147087487E+02 -0.13090119788E+04  0.13519579264E+04  0.12700000000E+03 0.  0.
   -5000001    1    1    2    0    0  0.29751642504E+03 -0.98147087487E+02 -0.10182968572E+04  0.10729428518E+04  0.12700000000E+03 0.  0.
<mgrwt>
<rscale>  0 0.68101202E+03</rscale>
<asrwt>0</asrwt>
<pdfrwt beam="1">  1        2 0.33944347E+00 0.68101202E+03</pdfrwt>
<pdfrwt beam="2">  1       -2 0.69708545E-02 0.68101202E+03</pdfrwt>
<totfact> 0.64906279E+02</totfact>
</mgrwt>
</event>
<event>
 4    1  0.1351183E-004  0.2950479E+03  0.7818608E-02  0.1087743E+00
          2   -1    0    0  501    0  0.00000000000E+00  0.00000000000E+00  0.79730953367E+02  0.79730953408E+02  0.25500000000E-02 0.  1.
         -2   -1    0    0    0  501 -0.00000000000E+00 -0.00000000000E+00 -0.27295939918E+03  0.27295939919E+03  0.25500000000E-02 0. -1.
    5000001    1    1    2    0    0  0.74905131455E+02  0.28144299250E+00 -0.10240345178E+03  0.17951692083E+03  0.12700000000E+03 0.  0.
   -5000001    1    1    2    0    0 -0.74905131455E+02 -0.28144299250E+00 -0.90824994025E+02  0.17317343176E+03  0.12700000000E+03 0.  0.
<mgrwt>
<rscale>  0 0.29504788E+03</rscale>
<asrwt>0</asrwt>
<pdfrwt beam="1">  1        2 0.11390136E-01 0.29504788E+03</pdfrwt>
<pdfrwt beam="2">  1       -2 0.38994199E-01 0.29504788E+03</pdfrwt>
<totfact> 0.34043998E+03</totfact>
</mgrwt>
</event>
<event>
 4    1  0.1351183E-004  0.3566053E+03  0.7818608E-02  0.1059936E+00
         -2   -1    0    0    0  501 -0.00000000000E+00  0.00000000000E+00  0.28991868531E+02  0.28991868643E+02  0.25500000000E-02 0. -1.
          2   -1    0    0  501    0  0.00000000000E+00 -0.00000000000E+00 -0.10965777307E+04  0.10965777307E+04  0.25500000000E-02 0.  1.
    5000001    1    1    2    0    0 -0.63995620907E+02 -0.88136622781E+02 -0.72834607981E+03  0.74731553961E+03  0.12700000000E+03 0.  0.
   -5000001    1    1    2    0    0  0.63995620907E+02  0.88136622781E+02 -0.33923978236E+03  0.37825405973E+03  0.12700000000E+03 0.  0.
<mgrwt>
<rscale>  0 0.35660531E+03</rscale>
<asrwt>0</asrwt>
<pdfrwt beam="1">  1        2 0.15665394E+00 0.35660531E+03</pdfrwt>
<pdfrwt beam="2">  1       -2 0.41416962E-02 0.35660531E+03</pdfrwt>
<totfact> 0.67070643E+03</totfact>
</mgrwt>
</event>
<event>
 4    1  0.1351183E-004  0.1041443E+04  0.7818608E-02  0.9264224E-01
          2   -1    0    0  501    0  0.00000000000E+00  0.00000000000E+00  0.37891465473E+03  0.37891465474E+03  0.25500000000E-02 0.  1.
         -2   -1    0    0    0  501 -0.00000000000E+00 -0.00000000000E+00 -0.71559852970E+03  0.71559852970E+03  0.25500000000E-02 0. -1.
    5000001    1    1    2    0    0  0.31147824815E+03 -0.32740101990E+03 -0.40524310419E+03  0.62012990606E+03  0.12700000000E+03 0.  0.
   -5000001    1    1    2    0    0 -0.31147824815E+03  0.32740101990E+03  0.68559229219E+02  0.47438327839E+03  0.12700000000E+03 0.  0.
<mgrwt>
<rscale>  0 0.10414428E+04</rscale>
<asrwt>0</asrwt>
<pdfrwt beam="1">  1        2 0.54130665E-01 0.10414428E+04</pdfrwt>
<pdfrwt beam="2">  1       -2 0.10222836E+00 0.10414428E+04</pdfrwt>
<totfact> 0.71799996E+01</totfact>
</mgrwt>
</event>
<event>
 4    1  0.1351183E-004  0.3329194E+03  0.7818608E-02  0.1069852E+00
         -2   -1    0    0    0  501 -0.00000000000E+00  0.00000000000E+00  0.23346781806E+02  0.23346781945E+02  0.25500000000E-02 0. -1.
          2   -1    0    0  501    0  0.00000000000E+00 -0.00000000000E+00 -0.11868375031E+04  0.11868375031E+04  0.25500000000E-02 0.  1.
    5000001    1    1    2    0    0  0.96899634317E+02 -0.35838952125E+02 -0.47233851047E+03  0.49990662937E+03  0.12700000000E+03 0.  0.
   -5000001    1    1    2    0    0 -0.96899634317E+02  0.35838952125E+02 -0.69115221081E+03  0.71027765566E+03  0.12700000000E+03 0.  0.
<mgrwt>
<rscale>  0 0.33291943E+03</rscale>
<asrwt>0</asrwt>
<pdfrwt beam="1">  1        2 0.16954818E+00 0.33291943E+03</pdfrwt>
<pdfrwt beam="2">  1       -2 0.33352553E-02 0.33291943E+03</pdfrwt>
<totfact> 0.82680635E+03</totfact>
</mgrwt>
</event>
<event>
 4    1  0.1351183E-004  0.3083916E+03  0.7818608E-02  0.1081119E+00
         -2   -1    0    0    0  501 -0.00000000000E+00  0.00000000000E+00  0.27119706321E+02  0.27119706441E+02  0.25500000000E-02 0. -1.
          2   -1    0    0  501    0  0.00000000000E+00 -0.00000000000E+00 -0.87671824019E+03  0.87671824020E+03  0.25500000000E-02 0.  1.
    5000001    1    1    2    0    0 -0.73153720449E+02 -0.39105603387E+02 -0.34365087876E+03  0.37564030868E+03  0.12700000000E+03 0.  0.
   -5000001    1    1    2    0    0  0.73153720449E+02  0.39105603387E+02 -0.50594765511E+03  0.52819763796E+03  0.12700000000E+03 0.  0.
<mgrwt>
<rscale>  0 0.30839158E+03</rscale>
<asrwt>0</asrwt>
<pdfrwt beam="1">  1        2 0.12524544E+00 0.30839158E+03</pdfrwt>
<pdfrwt beam="2">  1       -2 0.38742443E-02 0.30839158E+03</pdfrwt>
<totfact> 0.10021402E+04</totfact>
</mgrwt>
</event>
<event>
 4    1  0.1351183E-004  0.2997867E+03  0.7818608E-02  0.1085347E+00
          2   -1    0    0  501    0  0.00000000000E+00  0.00000000000E+00  0.60971601256E+03  0.60971601257E+03  0.25500000000E-02 0.  1.
         -2   -1    0    0    0  501 -0.00000000000E+00 -0.00000000000E+00 -0.36849958775E+02  0.36849958863E+02  0.25500000000E-02 0. -1.
    5000001    1    1    2    0    0 -0.57171119958E+02  0.53514879441E+02  0.25543043914E+03  0.29581428045E+03  0.12700000000E+03 0.  0.
   -5000001    1    1    2    0    0  0.57171119958E+02 -0.53514879441E+02  0.31743561464E+03  0.35075169098E+03  0.12700000000E+03 0.  0.
<mgrwt>
<rscale>  0 0.29978666E+03</rscale>
<asrwt>0</asrwt>
<pdfrwt beam="1">  1        2 0.87102285E-01 0.29978666E+03</pdfrwt>
<pdfrwt beam="2">  1       -2 0.52642800E-02 0.29978666E+03</pdfrwt>
<totfact> 0.97631112E+03</totfact>
</mgrwt>
</event>
<event>
 4    1  0.1351183E-004  0.3850472E+03  0.7818608E-02  0.1049084E+00
          2   -1    0    0  501    0  0.00000000000E+00  0.00000000000E+00  0.38165138122E+04  0.38165138122E+04  0.25500000000E-02 0.  1.
         -2   -1    0    0    0  501 -0.00000000000E+00 -0.00000000000E+00 -0.97118295987E+01  0.97118299335E+01  0.25500000000E-02 0. -1.
    5000001    1    1    2    0    0  0.10076718688E+03  0.10638330963E+02  0.87699025806E+03  0.89191261498E+03  0.12700000000E+03 0.  0.
   -5000001    1    1    2    0    0 -0.10076718688E+03 -0.10638330963E+02  0.29298117245E+04  0.29343130271E+04  0.12700000000E+03 0.  0.
<mgrwt>
<rscale>  0 0.38504718E+03</rscale>
<asrwt>0</asrwt>
<pdfrwt beam="1">  1        2 0.54521502E+00 0.38504718E+03</pdfrwt>
<pdfrwt beam="2">  1       -2 0.13874074E-02 0.38504718E+03</pdfrwt>
<totfact> 0.12308969E+03</totfact>
</mgrwt>
</event>
<event>
 4    1  0.1351183E-004  0.6764010E+03  0.7818608E-02  0.9758463E-01
         -2   -1    0    0    0  501 -0.00000000000E+00  0.00000000000E+00  0.13166352492E+03  0.13166352494E+03  0.25500000000E-02 0. -1.
          2   -1    0    0  501    0  0.00000000000E+00 -0.00000000000E+00 -0.86872644065E+03  0.86872644066E+03  0.25500000000E-02 0.  1.
    5000001    1    1    2    0    0  0.26627526032E+03 -0.16224003310E+03 -0.32115199547E+03  0.46528695103E+03  0.12700000000E+03 0.  0.
   -5000001    1    1    2    0    0 -0.26627526032E+03  0.16224003310E+03 -0.41591092027E+03  0.53510301457E+03  0.12700000000E+03 0.  0.
<mgrwt>
<rscale>  0 0.67640102E+03</rscale>
<asrwt>0</asrwt>
<pdfrwt beam="1">  1        2 0.12410377E+00 0.67640102E+03</pdfrwt>
<pdfrwt beam="2">  1       -2 0.18809075E-01 0.67640102E+03</pdfrwt>
<totfact> 0.81312528E+02</totfact>
</mgrwt>
</event>
<event>
 4    1  0.1351183E-004  0.5639700E+03  0.7818608E-02  0.9983112E-01
          2   -1    0    0  501    0  0.00000000000E+00  0.00000000000E+00  0.16593300038E+04  0.16593300038E+04  0.25500000000E-02 0.  1.
         -2   -1    0    0    0  501 -0.00000000000E+00 -0.00000000000E+00 -0.47920273266E+02  0.47920273334E+02  0.25500000000E-02 0. -1.
    5000001    1    1    2    0    0 -0.10078791014E+03 -0.15692721318E+03  0.29373918887E+03  0.37039987060E+03  0.12700000000E+03 0.  0.
   -5000001    1    1    2    0    0  0.10078791014E+03  0.15692721318E+03  0.13176705417E+04  0.13368504066E+04  0.12700000000E+03 0.  0.
<mgrwt>
<rscale>  0 0.56397003E+03</rscale>
<asrwt>0</asrwt>
<pdfrwt beam="1">  1        2 0.23704711E+00 0.56397003E+03</pdfrwt>
<pdfrwt beam="2">  1       -2 0.68457543E-02 0.56397003E+03</pdfrwt>
<totfact> 0.15475215E+03</totfact>
</mgrwt>
</event>
<event>
 4    1  0.1351183E-004  0.4024735E+03  0.7818608E-02  0.1042927E+00
          2   -1    0    0  501    0  0.00000000000E+00  0.00000000000E+00  0.24218918598E+03  0.24218918599E+03  0.25500000000E-02 0. -1.
         -2   -1    0    0    0  501 -0.00000000000E+00 -0.00000000000E+00 -0.16720904778E+03  0.16720904780E+03  0.25500000000E-02 0.  1.
    5000001    1    1    2    0    0  0.55475435730E+01 -0.85519633035E+02 -0.95226370061E+02  0.18039247332E+03  0.12700000000E+03 0.  0.
   -5000001    1    1    2    0    0 -0.55475435730E+01  0.85519633035E+02  0.17020650826E+03  0.22900576047E+03  0.12700000000E+03 0.  0.
<mgrwt>
<rscale>  0 0.40247347E+03</rscale>
<asrwt>0</asrwt>
<pdfrwt beam="1">  1        2 0.34598455E-01 0.40247347E+03</pdfrwt>
<pdfrwt beam="2">  1       -2 0.23887007E-01 0.40247347E+03</pdfrwt>
<totfact> 0.23259579E+03</totfact>
</mgrwt>
</event>
<event>
 4    1  0.1351183E-004  0.5212138E+03  0.7818608E-02  0.1008385E+00
          2   -1    0    0  501    0  0.00000000000E+00  0.00000000000E+00  0.65328734950E+03  0.65328734950E+03  0.25500000000E-02 0.  1.
         -2   -1    0    0    0  501 -0.00000000000E+00 -0.00000000000E+00 -0.10396030647E+03  0.10396030650E+03  0.25500000000E-02 0. -1.
    5000001    1    1    2    0    0  0.15158447685E+03 -0.11461154888E+03  0.45655073059E+03  0.51056951570E+03  0.12700000000E+03 0.  0.
   -5000001    1    1    2    0    0 -0.15158447685E+03  0.11461154888E+03  0.92776312440E+02  0.24667814031E+03  0.12700000000E+03 0.  0.
<mgrwt>
<rscale>  0 0.52121379E+03</rscale>
<asrwt>0</asrwt>
<pdfrwt beam="1">  1        2 0.93326768E-01 0.52121379E+03</pdfrwt>
<pdfrwt beam="2">  1       -2 0.14851472E-01 0.52121379E+03</pdfrwt>
<totfact> 0.17422589E+03</totfact>
</mgrwt>
</event>
<event>
 4    1  0.1351183E-004  0.5175486E+03  0.7818608E-02  0.1009297E+00
          2   -1    0    0  501    0  0.00000000000E+00  0.00000000000E+00  0.32360515236E+04  0.32360515236E+04  0.25500000000E-02 0.  1.
         -2   -1    0    0    0  501 -0.00000000000E+00 -0.00000000000E+00 -0.20693164288E+02  0.20693164445E+02  0.25500000000E-02 0. -1.
    5000001    1    1    2    0    0 -0.10686635640E+02 -0.15395389152E+03  0.26420310893E+04  0.26495798311E+04  0.12700000000E+03 0.  0.
   -5000001    1    1    2    0    0  0.10686635640E+02  0.15395389152E+03  0.57332727007E+03  0.60716485694E+03  0.12700000000E+03 0.  0.
<mgrwt>
<rscale>  0 0.51754863E+03</rscale>
<asrwt>0</asrwt>
<pdfrwt beam="1">  1        2 0.46229318E+00 0.51754863E+03</pdfrwt>
<pdfrwt beam="2">  1       -2 0.29561657E-02 0.51754863E+03</pdfrwt>
<totfact> 0.86481582E+02</totfact>
</mgrwt>
</event>
<event>
 4    1  0.1351183E-004  0.7336382E+03  0.7818608E-02  0.9661375E-01
          2   -1    0    0  501    0  0.00000000000E+00  0.00000000000E+00  0.17060063906E+03  0.17060063908E+03  0.25500000000E-02 0.  1.
         -2   -1    0    0    0  501 -0.00000000000E+00 -0.00000000000E+00 -0.78872058569E+03  0.78872058569E+03  0.25500000000E-02 0. -1.
    5000001    1    1    2    0    0 -0.97611147312E+02 -0.31937308383E+03 -0.41768024391E+03  0.54964796816E+03  0.12700000000E+03 0.  0.
   -5000001    1    1    2    0    0  0.97611147312E+02  0.31937308383E+03 -0.20043970272E+03  0.40967325661E+03  0.12700000000E+03 0.  0.
<mgrwt>
<rscale>  0 0.73363816E+03</rscale>
<asrwt>0</asrwt>
<pdfrwt beam="1">  1        2 0.24371520E-01 0.73363816E+03</pdfrwt>
<pdfrwt beam="2">  1       -2 0.11267437E+00 0.73363816E+03</pdfrwt>
<totfact> 0.14121488E+02</totfact>
</mgrwt>
</event>
<event>
 4    1  0.1351183E-004  0.3042483E+03  0.7818608E-02  0.1083136E+00
         -2   -1    0    0    0  501 -0.00000000000E+00  0.00000000000E+00  0.66745958427E+02  0.66745958476E+02  0.25500000000E-02 0. -1.
          2   -1    0    0  501    0  0.00000000000E+00 -0.00000000000E+00 -0.34671394049E+03  0.34671394050E+03  0.25500000000E-02 0.  1.
    5000001    1    1    2    0    0  0.72609160119E+02  0.41434050621E+02 -0.13334266157E+03  0.20223287586E+03  0.12700000000E+03 0.  0.
   -5000001    1    1    2    0    0 -0.72609160119E+02 -0.41434050621E+02 -0.14662532049E+03  0.21122702311E+03  0.12700000000E+03 0.  0.
<mgrwt>
<rscale>  0 0.30424828E+03</rscale>
<asrwt>0</asrwt>
<pdfrwt beam="1">  1        2 0.49530562E-01 0.30424828E+03</pdfrwt>
<pdfrwt beam="2">  1       -2 0.95351371E-02 0.30424828E+03</pdfrwt>
<totfact> 0.72335251E+03</totfact>
</mgrwt>
</event>
<event>
 4    1  0.1351183E-004  0.4210016E+03  0.7818608E-02  0.1036741E+00
          2   -1    0    0  501    0  0.00000000000E+00  0.00000000000E+00  0.90516809529E+03  0.90516809529E+03  0.25500000000E-02 0.  1.
         -2   -1    0    0    0  501 -0.00000000000E+00 -0.00000000000E+00 -0.48952877942E+02  0.48952878008E+02  0.25500000000E-02 0. -1.
    5000001    1    1    2    0    0  0.10347798947E+03  0.70558711298E+02  0.17477327507E+03  0.24972169253E+03  0.12700000000E+03 0.  0.
   -5000001    1    1    2    0    0 -0.10347798947E+03 -0.70558711298E+02  0.68144194228E+03  0.70439928076E+03  0.12700000000E+03 0.  0.
<mgrwt>
<rscale>  0 0.42100158E+03</rscale>
<asrwt>0</asrwt>
<pdfrwt beam="1">  1        2 0.12930973E+00 0.42100158E+03</pdfrwt>
<pdfrwt beam="2">  1       -2 0.69932681E-02 0.42100158E+03</pdfrwt>
<totfact> 0.39077751E+03</totfact>
</mgrwt>
</event>
<event>
 4    1  0.1351183E-004  0.4049228E+03  0.7818608E-02  0.1042088E+00
          2   -1    0    0  501    0  0.00000000000E+00  0.00000000000E+00  0.45437865311E+03  0.45437865311E+03  0.25500000000E-02 0.  1.
         -2   -1    0    0    0  501 -0.00000000000E+00 -0.00000000000E+00 -0.90212451027E+02  0.90212451063E+02  0.25500000000E-02 0. -1.
    5000001    1    1    2    0    0 -0.66334858813E+02 -0.11725398355E+03  0.29227515033E+03  0.34598059722E+03  0.12700000000E+03 0.  0.
   -5000001    1    1    2    0    0  0.66334858813E+02  0.11725398355E+03  0.71891051746E+02  0.19861050695E+03  0.12700000000E+03 0.  0.
<mgrwt>
<rscale>  0 0.40492277E+03</rscale>
<asrwt>0</asrwt>
<pdfrwt beam="1">  1        2 0.64911237E-01 0.40492277E+03</pdfrwt>
<pdfrwt beam="2">  1       -2 0.12887493E-01 0.40492277E+03</pdfrwt>
<totfact> 0.33352520E+03</totfact>
</mgrwt>
</event>
<event>
 4    1  0.1351183E-004  0.5400192E+03  0.7818608E-02  0.1003831E+00
          2   -1    0    0  501    0  0.00000000000E+00  0.00000000000E+00  0.10140641599E+04  0.10140641599E+04  0.25500000000E-02 0.  1.
         -2   -1    0    0    0  501 -0.00000000000E+00 -0.00000000000E+00 -0.71894052619E+02  0.71894052664E+02  0.25500000000E-02 0. -1.
    5000001    1    1    2    0    0  0.23379266257E+02  0.22435882796E+03  0.62545451586E+03  0.67690902283E+03  0.12700000000E+03 0.  0.
   -5000001    1    1    2    0    0 -0.23379266257E+02 -0.22435882796E+03  0.31671559139E+03  0.40904918971E+03  0.12700000000E+03 0.  0.
<mgrwt>
<rscale>  0 0.54001919E+03</rscale>
<asrwt>0</asrwt>
<pdfrwt beam="1">  1        2 0.14486629E+00 0.54001919E+03</pdfrwt>
<pdfrwt beam="2">  1       -2 0.10270580E-01 0.54001919E+03</pdfrwt>
<totfact> 0.18159828E+03</totfact>
</mgrwt>
</event>
<event>
 4    1  0.1351183E-004  0.4650970E+03  0.7818608E-02  0.1023313E+00
          2   -1    0    0  501    0  0.00000000000E+00  0.00000000000E+00  0.10364628925E+04  0.10364628925E+04  0.25500000000E-02 0.  1.
         -2   -1    0    0    0  501 -0.00000000000E+00 -0.00000000000E+00 -0.52176304404E+02  0.52176304467E+02  0.25500000000E-02 0. -1.
    5000001    1    1    2    0    0  0.18645215287E+03 -0.14679359545E+02  0.36458391129E+03  0.42898754910E+03  0.12700000000E+03 0.  0.
   -5000001    1    1    2    0    0 -0.18645215287E+03  0.14679359545E+02  0.61970267681E+03  0.65965164789E+03  0.12700000000E+03 0.  0.
<mgrwt>
<rscale>  0 0.46509699E+03</rscale>
<asrwt>0</asrwt>
<pdfrwt beam="1">  1        2 0.14806612E+00 0.46509699E+03</pdfrwt>
<pdfrwt beam="2">  1       -2 0.74537580E-02 0.46509699E+03</pdfrwt>
<totfact> 0.29396070E+03</totfact>
</mgrwt>
</event>
<event>
 4    1  0.1351183E-004  0.3489956E+03  0.7818608E-02  0.1063028E+00
         -2   -1    0    0    0  501 -0.00000000000E+00  0.00000000000E+00  0.22047569281E+02  0.22047569429E+02  0.25500000000E-02 0. -1.
          2   -1    0    0  501    0  0.00000000000E+00 -0.00000000000E+00 -0.13810808383E+04  0.13810808384E+04  0.25500000000E-02 0.  1.
    5000001    1    1    2    0    0  0.10606691228E+03 -0.14457629597E+02 -0.46445825204E+03  0.49326431132E+03  0.12700000000E+03 0.  0.
   -5000001    1    1    2    0    0 -0.10606691228E+03  0.14457629597E+02 -0.89457501703E+03  0.90986409646E+03  0.12700000000E+03 0.  0.
<mgrwt>
<rscale>  0 0.34899556E+03</rscale>
<asrwt>0</asrwt>
<pdfrwt beam="1">  1        2 0.19729721E+00 0.34899556E+03</pdfrwt>
<pdfrwt beam="2">  1       -2 0.31496536E-02 0.34899556E+03</pdfrwt>
<totfact> 0.71003551E+03</totfact>
</mgrwt>
</event>
<event>
 4    1  0.1351183E-004  0.3308281E+03  0.7818608E-02  0.1070771E+00
          2   -1    0    0  501    0  0.00000000000E+00  0.00000000000E+00  0.10863562773E+04  0.10863562773E+04  0.25500000000E-02 0.  1.
         -2   -1    0    0    0  501 -0.00000000000E+00 -0.00000000000E+00 -0.25186775043E+02  0.25186775172E+02  0.25500000000E-02 0. -1.
    5000001    1    1    2    0    0  0.30423265597E+02 -0.10148369236E+03  0.52090716171E+03  0.54653251141E+03  0.12700000000E+03 0.  0.
   -5000001    1    1    2    0    0 -0.30423265597E+02  0.10148369236E+03  0.54026234057E+03  0.56501054109E+03  0.12700000000E+03 0.  0.
<mgrwt>
<rscale>  0 0.33082812E+03</rscale>
<asrwt>0</asrwt>
<pdfrwt beam="1">  1        2 0.15519378E+00 0.33082812E+03</pdfrwt>
<pdfrwt beam="2">  1       -2 0.35981101E-02 0.33082812E+03</pdfrwt>
<totfact> 0.83957122E+03</totfact>
</mgrwt>
</event>
<event>
 4    1  0.1351183E-004  0.3552658E+03  0.7818608E-02  0.1060474E+00
          2   -1    0    0  501    0  0.00000000000E+00  0.00000000000E+00  0.96564634889E+03  0.96564634890E+03  0.25500000000E-02 0.  1.
         -2   -1    0    0    0  501 -0.00000000000E+00 -0.00000000000E+00 -0.32675979254E+02  0.32675979354E+02  0.25500000000E-02 0. -1.
    5000001    1    1    2    0    0  0.11859459032E+03 -0.36869467510E+02  0.46827488580E+03  0.50083370809E+03  0.12700000000E+03 0.  0.
   -5000001    1    1    2    0    0 -0.11859459032E+03  0.36869467510E+02  0.46469548384E+03  0.49748862016E+03  0.12700000000E+03 0.  0.
<mgrwt>
<rscale>  0 0.35526576E+03</rscale>
<asrwt>0</asrwt>
<pdfrwt beam="1">  1        2 0.13794946E+00 0.35526576E+03</pdfrwt>
<pdfrwt beam="2">  1       -2 0.46679976E-02 0.35526576E+03</pdfrwt>
<totfact> 0.66750324E+03</totfact>
</mgrwt>
</event>
<event>
 4    1  0.1351183E-004  0.3580719E+03  0.7818608E-02  0.1059350E+00
          2   -1    0    0  501    0  0.00000000000E+00  0.00000000000E+00  0.48841892436E+02  0.48841892503E+02  0.25500000000E-02 0.  1.
         -2   -1    0    0    0  501 -0.00000000000E+00 -0.00000000000E+00 -0.65627826641E+03  0.65627826641E+03  0.25500000000E-02 0. -1.
    5000001    1    1    2    0    0 -0.13462680689E+02 -0.41123063220E+02 -0.53715536590E+03  0.55365805080E+03  0.12700000000E+03 0.  0.
   -5000001    1    1    2    0    0  0.13462680689E+02  0.41123063220E+02 -0.70281008076E+02  0.15146210812E+03  0.12700000000E+03 0.  0.
<mgrwt>
<rscale>  0 0.35807191E+03</rscale>
<asrwt>0</asrwt>
<pdfrwt beam="1">  1        2 0.69774136E-02 0.35807191E+03</pdfrwt>
<pdfrwt beam="2">  1       -2 0.93754033E-01 0.35807191E+03</pdfrwt>
<totfact> 0.10167396E+03</totfact>
</mgrwt>
</event>
<event>
 4    1  0.1351183E-004  0.3135427E+03  0.7818608E-02  0.1078660E+00
          2   -1    0    0  501    0  0.00000000000E+00  0.00000000000E+00  0.10041879230E+03  0.10041879233E+03  0.25500000000E-02 0.  1.
         -2   -1    0    0    0  501 -0.00000000000E+00 -0.00000000000E+00 -0.24474756077E+03  0.24474756078E+03  0.25500000000E-02 0. -1.
    5000001    1    1    2    0    0  0.41222743749E+02 -0.79404335868E+02 -0.48970680660E+02  0.16288490022E+03  0.12700000000E+03 0.  0.
   -5000001    1    1    2    0    0 -0.41222743749E+02  0.79404335868E+02 -0.95358087808E+02  0.18228145289E+03  0.12700000000E+03 0.  0.
<mgrwt>
<rscale>  0 0.31354269E+03</rscale>
<asrwt>0</asrwt>
<pdfrwt beam="1">  1        2 0.14345542E-01 0.31354269E+03</pdfrwt>
<pdfrwt beam="2">  1       -2 0.34963937E-01 0.31354269E+03</pdfrwt>
<totfact> 0.31675651E+03</totfact>
</mgrwt>
</event>
<event>
 4    1  0.1351183E-004  0.5138394E+03  0.7818608E-02  0.1010228E+00
         -2   -1    0    0    0  501 -0.00000000000E+00  0.00000000000E+00  0.59204708085E+02  0.59204708140E+02  0.25500000000E-02 0. -1.
          2   -1    0    0  501    0  0.00000000000E+00 -0.00000000000E+00 -0.11149066965E+04  0.11149066965E+04  0.25500000000E-02 0.  1.
    5000001    1    1    2    0    0 -0.11420132510E+03  0.15613550455E+03 -0.27280730590E+03  0.35773323104E+03  0.12700000000E+03 0.  0.
   -5000001    1    1    2    0    0  0.11420132510E+03 -0.15613550455E+03 -0.78289468253E+03  0.81637817362E+03  0.12700000000E+03 0.  0.
<mgrwt>
<rscale>  0 0.51383937E+03</rscale>
<asrwt>0</asrwt>
<pdfrwt beam="1">  1        2 0.15927237E+00 0.51383937E+03</pdfrwt>
<pdfrwt beam="2">  1       -2 0.84578161E-02 0.51383937E+03</pdfrwt>
<totfact> 0.21650492E+03</totfact>
</mgrwt>
</event>
<event>
 4    1  0.1351183E-004  0.4223532E+03  0.7818608E-02  0.1036303E+00
          2   -1    0    0  501    0  0.00000000000E+00  0.00000000000E+00  0.22611133908E+04  0.22611133908E+04  0.25500000000E-02 0.  1.
         -2   -1    0    0    0  501 -0.00000000000E+00 -0.00000000000E+00 -0.19722834135E+02  0.19722834299E+02  0.25500000000E-02 0. -1.
    5000001    1    1    2    0    0 -0.20353101170E+02  0.16734216166E+03  0.11584652893E+04  0.11775349143E+04  0.12700000000E+03 0.  0.
   -5000001    1    1    2    0    0  0.20353101170E+02 -0.16734216166E+03  0.10829252673E+04  0.11033013108E+04  0.12700000000E+03 0.  0.
<mgrwt>
<rscale>  0 0.42235324E+03</rscale>
<asrwt>0</asrwt>
<pdfrwt beam="1">  1        2 0.32301637E+00 0.42235324E+03</pdfrwt>
<pdfrwt beam="2">  1       -2 0.28175462E-02 0.42235324E+03</pdfrwt>
<totfact> 0.30426186E+03</totfact>
</mgrwt>
</event>
<event>
 4    1  0.1351183E-004  0.6482490E+03  0.7818608E-02  0.9810070E-01
         -2   -1    0    0    0  501 -0.00000000000E+00  0.00000000000E+00  0.69617059501E+03  0.69617059501E+03  0.25500000000E-02 0. -1.
          2   -1    0    0  501    0  0.00000000000E+00 -0.00000000000E+00 -0.15090654098E+03  0.15090654100E+03  0.25500000000E-02 0.  1.
    5000001    1    1    2    0    0  0.13792403089E+03 -0.23630821419E+03  0.42759267042E+03  0.52328682592E+03  0.12700000000E+03 0.  0.
   -5000001    1    1    2    0    0 -0.13792403089E+03  0.23630821419E+03  0.11767138361E+03  0.32379031010E+03  0.12700000000E+03 0.  0.
<mgrwt>
<rscale>  0 0.64824902E+03</rscale>
<asrwt>0</asrwt>
<pdfrwt beam="1">  1        2 0.21558078E-01 0.64824902E+03</pdfrwt>
<pdfrwt beam="2">  1       -2 0.99452941E-01 0.64824902E+03</pdfrwt>
<totfact> 0.22015942E+02</totfact>
</mgrwt>
</event>
<event>
 4    1  0.1351183E-004  0.8293807E+03  0.7818608E-02  0.9518437E-01
          2   -1    0    0  501    0  0.00000000000E+00  0.00000000000E+00  0.86765703226E+02  0.86765703264E+02  0.25500000000E-02 0.  1.
         -2   -1    0    0    0  501 -0.00000000000E+00 -0.00000000000E+00 -0.19819823799E+04  0.19819823799E+04  0.25500000000E-02 0. -1.
    5000001    1    1    2    0    0  0.31565618420E+03  0.98209931945E+00 -0.15389236719E+04  0.15760884680E+04  0.12700000000E+03 0.  0.
   -5000001    1    1    2    0    0 -0.31565618420E+03 -0.98209931945E+00 -0.35629300482E+03  0.49265961517E+03  0.12700000000E+03 0.  0.
<mgrwt>
<rscale>  0 0.82938072E+03</rscale>
<asrwt>0</asrwt>
<pdfrwt beam="1">  1        2 0.12395102E-01 0.82938072E+03</pdfrwt>
<pdfrwt beam="2">  1       -2 0.28314031E+00 0.82938072E+03</pdfrwt>
<totfact> 0.21036424E+01</totfact>
</mgrwt>
</event>
<event>
 4    1  0.1351183E-004  0.4046510E+03  0.7818608E-02  0.1042181E+00
         -2   -1    0    0    0  501 -0.00000000000E+00  0.00000000000E+00  0.16351616347E+03  0.16351616349E+03  0.25500000000E-02 0. -1.
          2   -1    0    0  501    0  0.00000000000E+00 -0.00000000000E+00 -0.25034598583E+03  0.25034598584E+03  0.25500000000E-02 0.  1.
    5000001    1    1    2    0    0 -0.13420756526E+03  0.79144750325E+02 -0.66984066381E+02  0.21187597133E+03  0.12700000000E+03 0.  0.
   -5000001    1    1    2    0    0  0.13420756526E+03 -0.79144750325E+02 -0.19845755980E+02  0.20198617801E+03  0.12700000000E+03 0.  0.
<mgrwt>
<rscale>  0 0.40465104E+03</rscale>
<asrwt>0</asrwt>
<pdfrwt beam="1">  1        2 0.35763712E-01 0.40465104E+03</pdfrwt>
<pdfrwt beam="2">  1       -2 0.23359452E-01 0.40465104E+03</pdfrwt>
<totfact> 0.23331762E+03</totfact>
</mgrwt>
</event>
<event>
 4    1  0.1351183E-004  0.3263978E+03  0.7818608E-02  0.1072742E+00
          2   -1    0    0  501    0  0.00000000000E+00  0.00000000000E+00  0.10452410795E+04  0.10452410795E+04  0.25500000000E-02 0.  1.
         -2   -1    0    0    0  501 -0.00000000000E+00 -0.00000000000E+00 -0.25481090857E+02  0.25481090984E+02  0.25500000000E-02 0. -1.
    5000001    1    1    2    0    0 -0.55685120185E+02 -0.25950989988E+02  0.77900641371E+03  0.79167814110E+03  0.12700000000E+03 0.  0.
   -5000001    1    1    2    0    0  0.55685120185E+02  0.25950989988E+02  0.24075357489E+03  0.27904402935E+03  0.12700000000E+03 0.  0.
<mgrwt>
<rscale>  0 0.32639781E+03</rscale>
<asrwt>0</asrwt>
<pdfrwt beam="1">  1        2 0.14932019E+00 0.32639781E+03</pdfrwt>
<pdfrwt beam="2">  1       -2 0.36401549E-02 0.32639781E+03</pdfrwt>
<totfact> 0.87097798E+03</totfact>
</mgrwt>
</event>
<event>
 4    1  0.1351183E-004  0.5497640E+03  0.7818608E-02  0.1001549E+00
         -2   -1    0    0    0  501 -0.00000000000E+00  0.00000000000E+00  0.54132302937E+02  0.54132302997E+02  0.25500000000E-02 0. -1.
          2   -1    0    0  501    0  0.00000000000E+00 -0.00000000000E+00 -0.13958413956E+04  0.13958413956E+04  0.25500000000E-02 0.  1.
    5000001    1    1    2    0    0  0.19041758602E+03 -0.15118401126E+03 -0.62399644664E+03  0.68162748459E+03  0.12700000000E+03 0.  0.
   -5000001    1    1    2    0    0 -0.19041758602E+03  0.15118401126E+03 -0.71771264605E+03  0.76834621404E+03  0.12700000000E+03 0.  0.
<mgrwt>
<rscale>  0 0.54976398E+03</rscale>
<asrwt>0</asrwt>
<pdfrwt beam="1">  1        2 0.19940589E+00 0.54976398E+03</pdfrwt>
<pdfrwt beam="2">  1       -2 0.77331870E-02 0.54976398E+03</pdfrwt>
<totfact> 0.17485034E+03</totfact>
</mgrwt>
</event>
<event>
 4    1  0.1351183E-004  0.3185624E+03  0.7818608E-02  0.1076313E+00
         -2   -1    0    0    0  501 -0.00000000000E+00  0.00000000000E+00  0.20092012740E+02  0.20092012902E+02  0.25500000000E-02 0. -1.
          2   -1    0    0  501    0  0.00000000000E+00 -0.00000000000E+00 -0.12627155507E+04  0.12627155507E+04  0.25500000000E-02 0.  1.
    5000001    1    1    2    0    0  0.54155820177E+02 -0.74032092927E+02 -0.50544624298E+03  0.52916775052E+03  0.12700000000E+03 0.  0.
   -5000001    1    1    2    0    0 -0.54155820177E+02  0.74032092927E+02 -0.73717729501E+03  0.75363981312E+03  0.12700000000E+03 0.  0.
<mgrwt>
<rscale>  0 0.31856238E+03</rscale>
<asrwt>0</asrwt>
<pdfrwt beam="1">  1        2 0.18038789E+00 0.31856238E+03</pdfrwt>
<pdfrwt beam="2">  1       -2 0.28702883E-02 0.31856238E+03</pdfrwt>
<totfact> 0.94068904E+03</totfact>
</mgrwt>
</event>
<event>
 4    1  0.1351183E-004  0.2772990E+03  0.7818608E-02  0.1097173E+00
          2   -1    0    0  501    0  0.00000000000E+00  0.00000000000E+00  0.29847372740E+03  0.29847372741E+03  0.25500000000E-02 0.  1.
         -2   -1    0    0    0  501 -0.00000000000E+00 -0.00000000000E+00 -0.64406602363E+02  0.64406602414E+02  0.25500000000E-02 0. -1.
    5000001    1    1    2    0    0  0.52816757779E+02 -0.30201317336E+00  0.13988687377E+03  0.19618113714E+03  0.12700000000E+03 0.  0.
   -5000001    1    1    2    0    0 -0.52816757779E+02  0.30201317336E+00  0.94180251261E+02  0.16669919269E+03  0.12700000000E+03 0.  0.
<mgrwt>
<rscale>  0 0.27729896E+03</rscale>
<asrwt>0</asrwt>
<pdfrwt beam="1">  1        2 0.42639105E-01 0.27729896E+03</pdfrwt>
<pdfrwt beam="2">  1       -2 0.92009429E-02 0.27729896E+03</pdfrwt>
<totfact> 0.89636509E+03</totfact>
</mgrwt>
</event>
<event>
 4    1  0.1351183E-004  0.5525410E+03  0.7818608E-02  0.1000907E+00
          2   -1    0    0  501    0  0.00000000000E+00  0.00000000000E+00  0.97293911304E+03  0.97293911304E+03  0.25500000000E-02 0.  1.
         -2   -1    0    0    0  501 -0.00000000000E+00 -0.00000000000E+00 -0.78448275896E+02  0.78448275938E+02  0.25500000000E-02 0. -1.
    5000001    1    1    2    0    0 -0.13120861849E+03 -0.20730616944E+03  0.45143445381E+03  0.52925760792E+03  0.12700000000E+03 0.  0.
   -5000001    1    1    2    0    0  0.13120861849E+03  0.20730616944E+03  0.44305638333E+03  0.52212978106E+03  0.12700000000E+03 0.  0.
<mgrwt>
<rscale>  0 0.55254102E+03</rscale>
<asrwt>0</asrwt>
<pdfrwt beam="1">  1        2 0.13899130E+00 0.55254102E+03</pdfrwt>
<pdfrwt beam="2">  1       -2 0.11206896E-01 0.55254102E+03</pdfrwt>
<totfact> 0.16690465E+03</totfact>
</mgrwt>
</event>
<event>
 4    1  0.1351183E-004  0.7321258E+03  0.7818608E-02  0.9663817E-01
         -2   -1    0    0    0  501 -0.00000000000E+00  0.00000000000E+00  0.51791129395E+02  0.51791129458E+02  0.25500000000E-02 0. -1.
          2   -1    0    0  501    0  0.00000000000E+00 -0.00000000000E+00 -0.25873553084E+04  0.25873553084E+04  0.25500000000E-02 0.  1.
    5000001    1    1    2    0    0  0.29933205930E+03  0.65346335171E+02 -0.70929569875E+03  0.78300652201E+03  0.12700000000E+03 0.  0.
   -5000001    1    1    2    0    0 -0.29933205930E+03 -0.65346335171E+02 -0.18262684803E+04  0.18561399159E+04  0.12700000000E+03 0.  0.
<mgrwt>
<rscale>  0 0.73212582E+03</rscale>
<asrwt>0</asrwt>
<pdfrwt beam="1">  1        2 0.36962210E+00 0.73212582E+03</pdfrwt>
<pdfrwt beam="2">  1       -2 0.73987344E-02 0.73212582E+03</pdfrwt>
<totfact> 0.45776908E+02</totfact>
</mgrwt>
</event>
<event>
 4    1  0.1351183E-004  0.6697715E+03  0.7818608E-02  0.9770371E-01
          2   -1    0    0  501    0  0.00000000000E+00  0.00000000000E+00  0.52138093830E+03  0.52138093830E+03  0.25500000000E-02 0.  1.
         -2   -1    0    0    0  501 -0.00000000000E+00 -0.00000000000E+00 -0.21509886813E+03  0.21509886814E+03  0.25500000000E-02 0. -1.
    5000001    1    1    2    0    0 -0.16818484033E+03 -0.18705039022E+03 -0.45839119072E+02  0.28548942859E+03  0.12700000000E+03 0.  0.
   -5000001    1    1    2    0    0  0.16818484033E+03  0.18705039022E+03  0.35212118924E+03  0.45099037785E+03  0.12700000000E+03 0.  0.
<mgrwt>
<rscale>  0 0.66977145E+03</rscale>
<asrwt>0</asrwt>
<pdfrwt beam="1">  1        2 0.74482991E-01 0.66977145E+03</pdfrwt>
<pdfrwt beam="2">  1       -2 0.30728410E-01 0.66977145E+03</pdfrwt>
<totfact> 0.62996355E+02</totfact>
</mgrwt>
</event>
<event>
 4    1  0.1351183E-004  0.3559331E+03  0.7818608E-02  0.1060206E+00
          2   -1    0    0  501    0  0.00000000000E+00  0.00000000000E+00  0.21610671957E+02  0.21610672108E+02  0.25500000000E-02 0.  1.
         -2   -1    0    0    0  501 -0.00000000000E+00 -0.00000000000E+00 -0.14655768941E+04  0.14655768941E+04  0.25500000000E-02 0. -1.
    5000001    1    1    2    0    0 -0.51745779546E+02  0.44486195492E+02 -0.11579369801E+04  0.11668777559E+04  0.12700000000E+03 0.  0.
   -5000001    1    1    2    0    0  0.51745779546E+02 -0.44486195492E+02 -0.28602924207E+03  0.32030981035E+03  0.12700000000E+03 0.  0.
<mgrwt>
<rscale>  0 0.35593315E+03</rscale>
<asrwt>0</asrwt>
<pdfrwt beam="1">  1        2 0.30872398E-02 0.35593315E+03</pdfrwt>
<pdfrwt beam="2">  1       -2 0.20936807E+00 0.35593315E+03</pdfrwt>
<totfact> 0.38032380E+02</totfact>
</mgrwt>
</event>
<event>
 4    1  0.1351183E-004  0.4933373E+03  0.7818608E-02  0.1015533E+00
         -2   -1    0    0    0  501 -0.00000000000E+00  0.00000000000E+00  0.64795880799E+02  0.64795880850E+02  0.25500000000E-02 0.  1.
          2   -1    0    0  501    0  0.00000000000E+00 -0.00000000000E+00 -0.93903237005E+03  0.93903237005E+03  0.25500000000E-02 0. -1.
    5000001    1    1    2    0    0 -0.95718416081E+02  0.12637853663E+03 -0.15237481136E+03  0.25393037005E+03  0.12700000000E+03 0.  0.
   -5000001    1    1    2    0    0  0.95718416081E+02 -0.12637853663E+03 -0.72186167789E+03  0.74989788085E+03  0.12700000000E+03 0.  0.
<mgrwt>
<rscale>  0 0.49333733E+03</rscale>
<asrwt>0</asrwt>
<pdfrwt beam="1">  1        2 0.13414747E+00 0.49333733E+03</pdfrwt>
<pdfrwt beam="2">  1       -2 0.92565550E-02 0.49333733E+03</pdfrwt>
<totfact> 0.23881498E+03</totfact>
</mgrwt>
</event>
<event>
 4    1  0.1351183E-004  0.4850470E+03  0.7818608E-02  0.1017757E+00
         -2   -1    0    0    0  501 -0.00000000000E+00  0.00000000000E+00  0.64090946621E+02  0.64090946672E+02  0.25500000000E-02 0. -1.
          2   -1    0    0  501    0  0.00000000000E+00 -0.00000000000E+00 -0.91772166613E+03  0.91772166613E+03  0.25500000000E-02 0.  1.
    5000001    1    1    2    0    0 -0.15129002612E+03  0.13645362122E+03 -0.49635894784E+03  0.55137053589E+03  0.12700000000E+03 0.  0.
   -5000001    1    1    2    0    0  0.15129002612E+03 -0.13645362122E+03 -0.35727177166E+03  0.43044207691E+03  0.12700000000E+03 0.  0.
<mgrwt>
<rscale>  0 0.48504701E+03</rscale>
<asrwt>0</asrwt>
<pdfrwt beam="1">  1        2 0.13110309E+00 0.48504701E+03</pdfrwt>
<pdfrwt beam="2">  1       -2 0.91558501E-02 0.48504701E+03</pdfrwt>
<totfact> 0.25065466E+03</totfact>
</mgrwt>
</event>
<event>
 4    1  0.1351183E-004  0.3421483E+03  0.7818608E-02  0.1065885E+00
         -2   -1    0    0    0  501 -0.00000000000E+00  0.00000000000E+00  0.16448187649E+02  0.16448187847E+02  0.25500000000E-02 0. -1.
          2   -1    0    0  501    0  0.00000000000E+00 -0.00000000000E+00 -0.17793066065E+04  0.17793066065E+04  0.25500000000E-02 0.  1.
    5000001    1    1    2    0    0  0.11103503931E+03 -0.28374448663E+02 -0.89121987181E+03  0.90748870472E+03  0.12700000000E+03 0.  0.
   -5000001    1    1    2    0    0 -0.11103503931E+03  0.28374448663E+02 -0.87163854708E+03  0.88826608966E+03  0.12700000000E+03 0.  0.
<mgrwt>
<rscale>  0 0.34214833E+03</rscale>
<asrwt>0</asrwt>
<pdfrwt beam="1">  1        2 0.25418654E+00 0.34214833E+03</pdfrwt>
<pdfrwt beam="2">  1       -2 0.23497422E-02 0.34214833E+03</pdfrwt>
<totfact> 0.69175961E+03</totfact>
</mgrwt>
</event>
<event>
 4    1  0.1351183E-004  0.4500544E+03  0.7818608E-02  0.1027706E+00
         -2   -1    0    0    0  501 -0.00000000000E+00  0.00000000000E+00  0.35532105657E+02  0.35532105749E+02  0.25500000000E-02 0. -1.
          2   -1    0    0  501    0  0.00000000000E+00 -0.00000000000E+00 -0.14251120952E+04  0.14251120952E+04  0.25500000000E-02 0.  1.
    5000001    1    1    2    0    0 -0.75037016284E+02 -0.67737835226E+02 -0.12005991062E+04  0.12115222581E+04  0.12700000000E+03 0.  0.
   -5000001    1    1    2    0    0  0.75037016284E+02  0.67737835226E+02 -0.18898088341E+03  0.24912194289E+03  0.12700000000E+03 0.  0.
<mgrwt>
<rscale>  0 0.45005437E+03</rscale>
<asrwt>0</asrwt>
<pdfrwt beam="1">  1        2 0.20358741E+00 0.45005437E+03</pdfrwt>
<pdfrwt beam="2">  1       -2 0.50760160E-02 0.45005437E+03</pdfrwt>
<totfact> 0.32645335E+03</totfact>
</mgrwt>
</event>
<event>
 4    1  0.1351183E-004  0.7771389E+03  0.7818608E-02  0.9593710E-01
         -2   -1    0    0    0  501 -0.00000000000E+00  0.00000000000E+00  0.14483714722E+04  0.14483714722E+04  0.25500000000E-02 0. -1.
          2   -1    0    0  501    0  0.00000000000E+00 -0.00000000000E+00 -0.10424551807E+03  0.10424551810E+03  0.25500000000E-02 0.  1.
    5000001    1    1    2    0    0  0.34584316884E+03  0.28132707213E+02  0.43183471740E+03  0.56833895679E+03  0.12700000000E+03 0.  0.
   -5000001    1    1    2    0    0 -0.34584316884E+03 -0.28132707213E+02  0.91229123672E+03  0.98427803351E+03  0.12700000000E+03 0.  0.
<mgrwt>
<rscale>  0 0.77713894E+03</rscale>
<asrwt>0</asrwt>
<pdfrwt beam="1">  1        2 0.14892217E-01 0.77713894E+03</pdfrwt>
<pdfrwt beam="2">  1       -2 0.20691020E+00 0.77713894E+03</pdfrwt>
<totfact> 0.49333129E+01</totfact>
</mgrwt>
</event>
<event>
 4    1  0.1351183E-004  0.3428775E+03  0.7818608E-02  0.1065577E+00
         -2   -1    0    0    0  501 -0.00000000000E+00  0.00000000000E+00  0.51838577024E+03  0.51838577025E+03  0.25500000000E-02 0. -1.
          2   -1    0    0  501    0  0.00000000000E+00 -0.00000000000E+00 -0.56697643947E+02  0.56697644004E+02  0.25500000000E-02 0.  1.
    5000001    1    1    2    0    0  0.40595472741E+02 -0.86109467909E+02  0.12215485921E+03  0.20028390474E+03  0.12700000000E+03 0.  0.
   -5000001    1    1    2    0    0 -0.40595472741E+02  0.86109467909E+02  0.33953326708E+03  0.37479950951E+03  0.12700000000E+03 0.  0.
<mgrwt>
<rscale>  0 0.34287754E+03</rscale>
<asrwt>0</asrwt>
<pdfrwt beam="1">  1        2 0.80996635E-02 0.34287754E+03</pdfrwt>
<pdfrwt beam="2">  1       -2 0.74055109E-01 0.34287754E+03</pdfrwt>
<totfact> 0.14209394E+03</totfact>
</mgrwt>
</event>
<event>
 4    1  0.1351183E-004  0.4132301E+03  0.7818608E-02  0.1039292E+00
         -2   -1    0    0    0  501 -0.00000000000E+00  0.00000000000E+00  0.34472873890E+02  0.34472873984E+02  0.25500000000E-02 0. -1.
          2   -1    0    0  501    0  0.00000000000E+00 -0.00000000000E+00 -0.12383588652E+04  0.12383588653E+04  0.25500000000E-02 0.  1.
    5000001    1    1    2    0    0  0.14742447046E+03  0.35483142411E+02 -0.41796033996E+03  0.46239904159E+03  0.12700000000E+03 0.  0.
   -5000001    1    1    2    0    0 -0.14742447046E+03 -0.35483142411E+02 -0.78592565140E+03  0.81043269764E+03  0.12700000000E+03 0.  0.
<mgrwt>
<rscale>  0 0.41323015E+03</rscale>
<asrwt>0</asrwt>
<pdfrwt beam="1">  1        2 0.17690838E+00 0.41323015E+03</pdfrwt>
<pdfrwt beam="2">  1       -2 0.49246971E-02 0.41323015E+03</pdfrwt>
<totfact> 0.43004935E+03</totfact>
</mgrwt>
</event>
<event>
 4    1  0.1351183E-004  0.7044083E+03  0.7818608E-02  0.9709723E-01
         -2   -1    0    0    0  501 -0.00000000000E+00  0.00000000000E+00  0.10840616059E+03  0.10840616062E+03  0.25500000000E-02 0. -1.
          2   -1    0    0  501    0  0.00000000000E+00 -0.00000000000E+00 -0.11442871623E+04  0.11442871623E+04  0.25500000000E-02 0.  1.
    5000001    1    1    2    0    0  0.80598816551E+02  0.31595384201E+03 -0.44689991041E+03  0.56760155870E+03  0.12700000000E+03 0.  0.
   -5000001    1    1    2    0    0 -0.80598816551E+02 -0.31595384201E+03 -0.58898109134E+03  0.68509176426E+03  0.12700000000E+03 0.  0.
<mgrwt>
<rscale>  0 0.70440834E+03</rscale>
<asrwt>0</asrwt>
<pdfrwt beam="1">  1        2 0.16346959E+00 0.70440834E+03</pdfrwt>
<pdfrwt beam="2">  1       -2 0.15486595E-01 0.70440834E+03</pdfrwt>
<totfact> 0.76808604E+02</totfact>
</mgrwt>
</event>
<event>
 4    1  0.1351183E-004  0.3591982E+03  0.7818608E-02  0.1058902E+00
          2   -1    0    0  501    0  0.00000000000E+00  0.00000000000E+00  0.13939150316E+04  0.13939150316E+04  0.25500000000E-02 0.  1.
         -2   -1    0    0    0  501 -0.00000000000E+00 -0.00000000000E+00 -0.23140467104E+02  0.23140467244E+02  0.25500000000E-02 0. -1.
    5000001    1    1    2    0    0  0.61388839418E+02  0.10985054908E+03  0.61807676501E+03  0.64341558901E+03  0.12700000000E+03 0.  0.
   -5000001    1    1    2    0    0 -0.61388839418E+02 -0.10985054908E+03  0.75269779953E+03  0.77363990988E+03  0.12700000000E+03 0.  0.
<mgrwt>
<rscale>  0 0.35919825E+03</rscale>
<asrwt>0</asrwt>
<pdfrwt beam="1">  1        2 0.19913067E+00 0.35919825E+03</pdfrwt>
<pdfrwt beam="2">  1       -2 0.33057818E-02 0.35919825E+03</pdfrwt>
<totfact> 0.65039044E+03</totfact>
</mgrwt>
</event>
<event>
 4    1  0.1351183E-004  0.4529314E+03  0.7818608E-02  0.1026851E+00
          2   -1    0    0  501    0  0.00000000000E+00  0.00000000000E+00  0.10070231554E+04  0.10070231554E+04  0.25500000000E-02 0.  1.
         -2   -1    0    0    0  501 -0.00000000000E+00 -0.00000000000E+00 -0.50929036937E+02  0.50929037001E+02  0.25500000000E-02 0. -1.
    5000001    1    1    2    0    0  0.17066678154E+03 -0.58993535512E+02  0.59600629313E+03  0.63557838935E+03  0.12700000000E+03 0.  0.
   -5000001    1    1    2    0    0 -0.17066678154E+03  0.58993535512E+02  0.36008782531E+03  0.42237380303E+03  0.12700000000E+03 0.  0.
<mgrwt>
<rscale>  0 0.45293143E+03</rscale>
<asrwt>0</asrwt>
<pdfrwt beam="1">  1        2 0.14386045E+00 0.45293143E+03</pdfrwt>
<pdfrwt beam="2">  1       -2 0.72755769E-02 0.45293143E+03</pdfrwt>
<totfact> 0.31795025E+03</totfact>
</mgrwt>
</event>
<event>
 4    1  0.1351183E-004  0.4631324E+03  0.7818608E-02  0.1023877E+00
          2   -1    0    0  501    0  0.00000000000E+00  0.00000000000E+00  0.19163582607E+04  0.19163582607E+04  0.25500000000E-02 0. -1.
         -2   -1    0    0    0  501 -0.00000000000E+00 -0.00000000000E+00 -0.27981671000E+02  0.27981671116E+02  0.25500000000E-02 0.  1.
    5000001    1    1    2    0    0  0.17417093764E+03 -0.60299933819E+02  0.11933496865E+04  0.12141598214E+04  0.12700000000E+03 0.  0.
   -5000001    1    1    2    0    0 -0.17417093764E+03  0.60299933819E+02  0.69502690321E+03  0.73018011046E+03  0.12700000000E+03 0.  0.
<mgrwt>
<rscale>  0 0.46313241E+03</rscale>
<asrwt>0</asrwt>
<pdfrwt beam="1">  1        2 0.27376559E+00 0.46313241E+03</pdfrwt>
<pdfrwt beam="2">  1       -2 0.39973797E-02 0.46313241E+03</pdfrwt>
<totfact> 0.26545876E+03</totfact>
</mgrwt>
</event>
<event>
 4    1  0.1351183E-004  0.4319676E+03  0.7818608E-02  0.1033240E+00
          2   -1    0    0  501    0  0.00000000000E+00  0.00000000000E+00  0.49850138265E+03  0.49850138266E+03  0.25500000000E-02 0.  1.
         -2   -1    0    0    0  501 -0.00000000000E+00 -0.00000000000E+00 -0.93578487250E+02  0.93578487285E+02  0.25500000000E-02 0. -1.
    5000001    1    1    2    0    0  0.68602697698E+02  0.14166234882E+03  0.98567251932E+02  0.22498678707E+03  0.12700000000E+03 0.  0.
   -5000001    1    1    2    0    0 -0.68602697698E+02 -0.14166234882E+03  0.30635564347E+03  0.36709308287E+03  0.12700000000E+03 0.  0.
<mgrwt>
<rscale>  0 0.43196762E+03</rscale>
<asrwt>0</asrwt>
<pdfrwt beam="1">  1        2 0.71214482E-01 0.43196762E+03</pdfrwt>
<pdfrwt beam="2">  1       -2 0.13368356E-01 0.43196762E+03</pdfrwt>
<totfact> 0.28339758E+03</totfact>
</mgrwt>
</event>
<event>
 4    1  0.1351183E-004  0.3153642E+03  0.7818608E-02  0.1077803E+00
         -2   -1    0    0    0  501 -0.00000000000E+00  0.00000000000E+00  0.63595794673E+02  0.63595794724E+02  0.25500000000E-02 0. -1.
          2   -1    0    0  501    0  0.00000000000E+00 -0.00000000000E+00 -0.39096356380E+03  0.39096356381E+03  0.25500000000E-02 0.  1.
    5000001    1    1    2    0    0 -0.60436727549E+02  0.69273712408E+02 -0.13942785390E+03  0.20981079979E+03  0.12700000000E+03 0.  0.
   -5000001    1    1    2    0    0  0.60436727549E+02 -0.69273712408E+02 -0.18793991523E+03  0.24474855874E+03  0.12700000000E+03 0.  0.
<mgrwt>
<rscale>  0 0.31536416E+03</rscale>
<asrwt>0</asrwt>
<pdfrwt beam="1">  1        2 0.55851936E-01 0.31536416E+03</pdfrwt>
<pdfrwt beam="2">  1       -2 0.90851138E-02 0.31536416E+03</pdfrwt>
<totfact> 0.68653003E+03</totfact>
</mgrwt>
</event>
<event>
 4    1  0.1351183E-004  0.5479483E+03  0.7818608E-02  0.1001970E+00
         -2   -1    0    0    0  501 -0.00000000000E+00  0.00000000000E+00  0.29419432734E+02  0.29419432845E+02  0.25500000000E-02 0. -1.
          2   -1    0    0  501    0  0.00000000000E+00 -0.00000000000E+00 -0.25514374571E+04  0.25514374571E+04  0.25500000000E-02 0.  1.
    5000001    1    1    2    0    0  0.15614924144E+03 -0.36593420424E+02 -0.40265496006E+03  0.45164331156E+03  0.12700000000E+03 0.  0.
   -5000001    1    1    2    0    0 -0.15614924144E+03  0.36593420424E+02 -0.21193630643E+04  0.21292135784E+04  0.12700000000E+03 0.  0.
<mgrwt>
<rscale>  0 0.54794833E+03</rscale>
<asrwt>0</asrwt>
<pdfrwt beam="1">  1        2 0.36449093E+00 0.54794833E+03</pdfrwt>
<pdfrwt beam="2">  1       -2 0.42027777E-02 0.54794833E+03</pdfrwt>
<totfact> 0.11729670E+03</totfact>
</mgrwt>
</event>
<event>
 4    1  0.1351183E-004  0.3375436E+03  0.7818608E-02  0.1067847E+00
         -2   -1    0    0    0  501 -0.00000000000E+00  0.00000000000E+00  0.14708483567E+02  0.14708483788E+02  0.25500000000E-02 0. -1.
          2   -1    0    0  501    0  0.00000000000E+00 -0.00000000000E+00 -0.19365640229E+04  0.19365640229E+04  0.25500000000E-02 0.  1.
    5000001    1    1    2    0    0  0.97784837723E+02  0.52257309993E+02 -0.91532923168E+03  0.93072514918E+03  0.12700000000E+03 0.  0.
   -5000001    1    1    2    0    0 -0.97784837723E+02 -0.52257309993E+02 -0.10065263076E+04  0.10205473575E+04  0.12700000000E+03 0.  0.
<mgrwt>
<rscale>  0 0.33754360E+03</rscale>
<asrwt>0</asrwt>
<pdfrwt beam="1">  1        2 0.27665184E+00 0.33754360E+03</pdfrwt>
<pdfrwt beam="2">  1       -2 0.21012132E-02 0.33754360E+03</pdfrwt>
<totfact> 0.68307997E+03</totfact>
</mgrwt>
</event>
<event>
 4    1  0.1351183E-004  0.5054591E+03  0.7818608E-02  0.1012364E+00
          2   -1    0    0  501    0  0.00000000000E+00  0.00000000000E+00  0.11767586764E+04  0.11767586764E+04  0.25500000000E-02 0.  1.
         -2   -1    0    0    0  501 -0.00000000000E+00 -0.00000000000E+00 -0.54278105047E+02  0.54278105107E+02  0.25500000000E-02 0. -1.
    5000001    1    1    2    0    0  0.13317705089E+03  0.15039316103E+03  0.77059264639E+03  0.80640948434E+03  0.12700000000E+03 0.  0.
   -5000001    1    1    2    0    0 -0.13317705089E+03 -0.15039316103E+03  0.35188792500E+03  0.42462729720E+03  0.12700000000E+03 0.  0.
<mgrwt>
<rscale>  0 0.50545912E+03</rscale>
<asrwt>0</asrwt>
<pdfrwt beam="1">  1        2 0.16810838E+00 0.50545912E+03</pdfrwt>
<pdfrwt beam="2">  1       -2 0.77540152E-02 0.50545912E+03</pdfrwt>
<totfact> 0.22926751E+03</totfact>
</mgrwt>
</event>
<event>
 4    1  0.1351183E-004  0.9402124E+03  0.7818608E-02  0.9376664E-01
         -2   -1    0    0    0  501 -0.00000000000E+00  0.00000000000E+00  0.63252607165E+02  0.63252607217E+02  0.25500000000E-02 0. -1.
          2   -1    0    0  501    0  0.00000000000E+00 -0.00000000000E+00 -0.34939246814E+04  0.34939246814E+04  0.25500000000E-02 0.  1.
    5000001    1    1    2    0    0  0.26268223126E+03  0.36584241420E+03 -0.15449488512E+04  0.16142610010E+04  0.12700000000E+03 0.  0.
   -5000001    1    1    2    0    0 -0.26268223126E+03 -0.36584241420E+03 -0.18857232231E+04  0.19429162876E+04  0.12700000000E+03 0.  0.
<mgrwt>
<rscale>  0 0.94021241E+03</rscale>
<asrwt>0</asrwt>
<pdfrwt beam="1">  1        2 0.49913198E+00 0.94021241E+03</pdfrwt>
<pdfrwt beam="2">  1       -2 0.90360889E-02 0.94021241E+03</pdfrwt>
<totfact> 0.10216114E+02</totfact>
</mgrwt>
</event>
<event>
 4    1  0.1351183E-004  0.3036710E+03  0.7818608E-02  0.1083420E+00
          2   -1    0    0  501    0  0.00000000000E+00  0.00000000000E+00  0.11347002266E+04  0.11347002266E+04  0.25500000000E-02 0.  1.
         -2   -1    0    0    0  501 -0.00000000000E+00 -0.00000000000E+00 -0.20317272449E+02  0.20317272609E+02  0.25500000000E-02 0. -1.
    5000001    1    1    2    0    0  0.60003911403E+02  0.41652949513E+02  0.40554722106E+03  0.43119947367E+03  0.12700000000E+03 0.  0.
   -5000001    1    1    2    0    0 -0.60003911403E+02 -0.41652949513E+02  0.70883573306E+03  0.72381802551E+03  0.12700000000E+03 0.  0.
<mgrwt>
<rscale>  0 0.30367096E+03</rscale>
<asrwt>0</asrwt>
<pdfrwt beam="1">  1        2 0.16210010E+00 0.30367096E+03</pdfrwt>
<pdfrwt beam="2">  1       -2 0.29024662E-02 0.30367096E+03</pdfrwt>
<totfact> 0.10854376E+04</totfact>
</mgrwt>
</event>
<event>
 4    1  0.1351183E-004  0.3753082E+03  0.7818608E-02  0.1052682E+00
          2   -1    0    0  501    0  0.00000000000E+00  0.00000000000E+00  0.33919769315E+03  0.33919769316E+03  0.25500000000E-02 0.  1.
         -2   -1    0    0    0  501 -0.00000000000E+00 -0.00000000000E+00 -0.10381575627E+03  0.10381575630E+03  0.25500000000E-02 0. -1.
    5000001    1    1    2    0    0  0.22627596081E+02  0.13302118680E+03  0.82706108321E+02  0.20291856641E+03  0.12700000000E+03 0.  0.
   -5000001    1    1    2    0    0 -0.22627596081E+02 -0.13302118680E+03  0.15267582856E+03  0.24009488305E+03  0.12700000000E+03 0.  0.
<mgrwt>
<rscale>  0 0.37530822E+03</rscale>
<asrwt>0</asrwt>
<pdfrwt beam="1">  1        2 0.48456813E-01 0.37530822E+03</pdfrwt>
<pdfrwt beam="2">  1       -2 0.14830822E-01 0.37530822E+03</pdfrwt>
<totfact> 0.36378249E+03</totfact>
</mgrwt>
</event>
<event>
 4    1  0.1351183E-004  0.3637130E+03  0.7818608E-02  0.1057123E+00
          2   -1    0    0  501    0  0.00000000000E+00  0.00000000000E+00  0.24789142058E+04  0.24789142058E+04  0.25500000000E-02 0.  1.
         -2   -1    0    0    0  501 -0.00000000000E+00 -0.00000000000E+00 -0.13341237064E+02  0.13341237308E+02  0.25500000000E-02 0. -1.
    5000001    1    1    2    0    0  0.11797698582E+03  0.46097098299E+02  0.14382709457E+04  0.14494122342E+04  0.12700000000E+03 0.  0.
   -5000001    1    1    2    0    0 -0.11797698582E+03 -0.46097098299E+02  0.10273020231E+04  0.10428432089E+04  0.12700000000E+03 0.  0.
<mgrwt>
<rscale>  0 0.36371298E+03</rscale>
<asrwt>0</asrwt>
<pdfrwt beam="1">  1        2 0.35413084E+00 0.36371298E+03</pdfrwt>
<pdfrwt beam="2">  1       -2 0.19058898E-02 0.36371298E+03</pdfrwt>
<totfact> 0.42514166E+03</totfact>
</mgrwt>
</event>
<event>
 4    1  0.1351183E-004  0.4298738E+03  0.7818608E-02  0.1033900E+00
         -2   -1    0    0    0  501 -0.00000000000E+00  0.00000000000E+00  0.23647462769E+02  0.23647462907E+02  0.25500000000E-02 0. -1.
          2   -1    0    0  501    0  0.00000000000E+00 -0.00000000000E+00 -0.19536075130E+04  0.19536075130E+04  0.25500000000E-02 0.  1.
    5000001    1    1    2    0    0 -0.88151726992E+02 -0.12778115078E+03 -0.60958366785E+03  0.64173202941E+03  0.12700000000E+03 0.  0.
   -5000001    1    1    2    0    0  0.88151726992E+02  0.12778115078E+03 -0.13203763824E+04  0.13355229465E+04  0.12700000000E+03 0.  0.
<mgrwt>
<rscale>  0 0.42987375E+03</rscale>
<asrwt>0</asrwt>
<pdfrwt beam="1">  1        2 0.27908669E+00 0.42987375E+03</pdfrwt>
<pdfrwt beam="2">  1       -2 0.33782102E-02 0.42987375E+03</pdfrwt>
<totfact> 0.32883770E+03</totfact>
</mgrwt>
</event>
<event>
 4    1  0.1351183E-004  0.4103849E+03  0.7818608E-02  0.1040242E+00
          2   -1    0    0  501    0  0.00000000000E+00  0.00000000000E+00  0.35018039262E+04  0.35018039262E+04  0.25500000000E-02 0.  1.
         -2   -1    0    0    0  501 -0.00000000000E+00 -0.00000000000E+00 -0.12023498226E+02  0.12023498496E+02  0.25500000000E-02 0. -1.
    5000001    1    1    2    0    0  0.13208268076E+03 -0.56231508006E+02  0.11176128503E+04  0.11339291425E+04  0.12700000000E+03 0.  0.
   -5000001    1    1    2    0    0 -0.13208268076E+03  0.56231508006E+02  0.23721675776E+04  0.23798982822E+04  0.12700000000E+03 0.  0.
<mgrwt>
<rscale>  0 0.41038486E+03</rscale>
<asrwt>0</asrwt>
<pdfrwt beam="1">  1        2 0.50025763E+00 0.41038486E+03</pdfrwt>
<pdfrwt beam="2">  1       -2 0.17176429E-02 0.41038486E+03</pdfrwt>
<totfact> 0.13889600E+03</totfact>
</mgrwt>
</event>
<event>
 4    1  0.1351183E-004  0.3692669E+03  0.7818608E-02  0.1054974E+00
          2   -1    0    0  501    0  0.00000000000E+00  0.00000000000E+00  0.48293128409E+03  0.48293128410E+03  0.25500000000E-02 0.  1.
         -2   -1    0    0    0  501 -0.00000000000E+00 -0.00000000000E+00 -0.70588733764E+02  0.70588733810E+02  0.25500000000E-02 0. -1.
    5000001    1    1    2    0    0 -0.10580402215E+02 -0.11792107874E+03  0.11204380447E+03  0.20664012157E+03  0.12700000000E+03 0.  0.
   -5000001    1    1    2    0    0  0.10580402215E+02  0.11792107874E+03  0.30029874586E+03  0.34687989634E+03  0.12700000000E+03 0.  0.
<mgrwt>
<rscale>  0 0.36926688E+03</rscale>
<asrwt>0</asrwt>
<pdfrwt beam="1">  1        2 0.68990185E-01 0.36926688E+03</pdfrwt>
<pdfrwt beam="2">  1       -2 0.10084105E-01 0.36926688E+03</pdfrwt>
<totfact> 0.46310121E+03</totfact>
</mgrwt>
</event>
<event>
 4    1  0.1351183E-004  0.3730601E+03  0.7818608E-02  0.1053529E+00
          2   -1    0    0  501    0  0.00000000000E+00  0.00000000000E+00  0.15850363812E+04  0.15850363812E+04  0.25500000000E-02 0. -1.
         -2   -1    0    0    0  501 -0.00000000000E+00 -0.00000000000E+00 -0.21951201635E+02  0.21951201783E+02  0.25500000000E-02 0.  1.
    5000001    1    1    2    0    0 -0.41214832708E+01 -0.13124378989E+03  0.94400957939E+03  0.96152223322E+03  0.12700000000E+03 0.  0.
   -5000001    1    1    2    0    0  0.41214832708E+01  0.13124378989E+03  0.61907560018E+03  0.64546534976E+03  0.12700000000E+03 0.  0.
<mgrwt>
<rscale>  0 0.37306007E+03</rscale>
<asrwt>0</asrwt>
<pdfrwt beam="1">  1        2 0.22643388E+00 0.37306007E+03</pdfrwt>
<pdfrwt beam="2">  1       -2 0.31358844E-02 0.37306007E+03</pdfrwt>
<totfact> 0.56216126E+03</totfact>
</mgrwt>
</event>
<event>
 4    1  0.1351183E-004  0.3011475E+03  0.7818608E-02  0.1084668E+00
         -2   -1    0    0    0  501 -0.00000000000E+00  0.00000000000E+00  0.33491757273E+02  0.33491757370E+02  0.25500000000E-02 0. -1.
          2   -1    0    0  501    0  0.00000000000E+00 -0.00000000000E+00 -0.67695604844E+03  0.67695604845E+03  0.25500000000E-02 0.  1.
    5000001    1    1    2    0    0  0.56484590772E+02 -0.54329786380E+02 -0.27447793830E+03  0.31242498827E+03  0.12700000000E+03 0.  0.
   -5000001    1    1    2    0    0 -0.56484590772E+02  0.54329786380E+02 -0.36898635287E+03  0.39802281755E+03  0.12700000000E+03 0.  0.
<mgrwt>
<rscale>  0 0.30114746E+03</rscale>
<asrwt>0</asrwt>
<pdfrwt beam="1">  1        2 0.96707998E-01 0.30114746E+03</pdfrwt>
<pdfrwt beam="2">  1       -2 0.47845372E-02 0.30114746E+03</pdfrwt>
<totfact> 0.99995672E+03</totfact>
</mgrwt>
</event>
<event>
 4    1  0.1351183E-004  0.5168264E+03  0.7818608E-02  0.1009478E+00
          2   -1    0    0  501    0  0.00000000000E+00  0.00000000000E+00  0.87650252532E+02  0.87650252570E+02  0.25500000000E-02 0.  1.
         -2   -1    0    0    0  501 -0.00000000000E+00 -0.00000000000E+00 -0.76186194918E+03  0.76186194918E+03  0.25500000000E-02 0. -1.
    5000001    1    1    2    0    0 -0.10572100683E+03  0.32743526538E+02 -0.65920284730E+03  0.68038699554E+03  0.12700000000E+03 0.  0.
   -5000001    1    1    2    0    0  0.10572100683E+03 -0.32743526538E+02 -0.15008849341E+02  0.16912520620E+03  0.12700000000E+03 0.  0.
<mgrwt>
<rscale>  0 0.51682644E+03</rscale>
<asrwt>0</asrwt>
<pdfrwt beam="1">  1        2 0.12521465E-01 0.51682644E+03</pdfrwt>
<pdfrwt beam="2">  1       -2 0.10883742E+00 0.51682644E+03</pdfrwt>
<totfact> 0.34158120E+02</totfact>
</mgrwt>
</event>
<event>
 4    1  0.1351183E-004  0.4105568E+03  0.7818608E-02  0.1040184E+00
         -2   -1    0    0    0  501 -0.00000000000E+00  0.00000000000E+00  0.20578637593E+02  0.20578637751E+02  0.25500000000E-02 0.  1.
          2   -1    0    0  501    0  0.00000000000E+00 -0.00000000000E+00 -0.20477169752E+04  0.20477169752E+04  0.25500000000E-02 0. -1.
    5000001    1    1    2    0    0  0.95228502023E+02  0.10101077008E+03 -0.60002337127E+03  0.62883120894E+03  0.12700000000E+03 0.  0.
   -5000001    1    1    2    0    0 -0.95228502023E+02 -0.10101077008E+03 -0.14271149663E+04  0.14394644040E+04  0.12700000000E+03 0.  0.
<mgrwt>
<rscale>  0 0.41055682E+03</rscale>
<asrwt>0</asrwt>
<pdfrwt beam="1">  1        2 0.29253086E+00 0.41055682E+03</pdfrwt>
<pdfrwt beam="2">  1       -2 0.29398067E-02 0.41055682E+03</pdfrwt>
<totfact> 0.36446021E+03</totfact>
</mgrwt>
</event>
<event>
 4    1  0.1351183E-004  0.3957709E+03  0.7818608E-02  0.1045254E+00
          2   -1    0    0  501    0  0.00000000000E+00  0.00000000000E+00  0.36565976402E+03  0.36565976403E+03  0.25500000000E-02 0.  1.
         -2   -1    0    0    0  501 -0.00000000000E+00 -0.00000000000E+00 -0.10709039452E+03  0.10709039455E+03  0.25500000000E-02 0. -1.
    5000001    1    1    2    0    0 -0.10786016926E+03  0.44528917480E+02  0.13393060386E+02  0.17298848132E+03  0.12700000000E+03 0.  0.
   -5000001    1    1    2    0    0  0.10786016926E+03 -0.44528917480E+02  0.24517630911E+03  0.29976167726E+03  0.12700000000E+03 0.  0.
<mgrwt>
<rscale>  0 0.39577089E+03</rscale>
<asrwt>0</asrwt>
<pdfrwt beam="1">  1        2 0.52237110E-01 0.39577089E+03</pdfrwt>
<pdfrwt beam="2">  1       -2 0.15298628E-01 0.39577089E+03</pdfrwt>
<totfact> 0.31861153E+03</totfact>
</mgrwt>
</event>
<event>
 4    1  0.1351183E-004  0.3598290E+03  0.7818608E-02  0.1058652E+00
          2   -1    0    0  501    0  0.00000000000E+00  0.00000000000E+00  0.10193565146E+04  0.10193565146E+04  0.25500000000E-02 0.  1.
         -2   -1    0    0    0  501 -0.00000000000E+00 -0.00000000000E+00 -0.31754563251E+02  0.31754563353E+02  0.25500000000E-02 0. -1.
    5000001    1    1    2    0    0  0.16061851210E+01  0.98822272563E+02  0.25880251152E+03  0.30475590454E+03  0.12700000000E+03 0.  0.
   -5000001    1    1    2    0    0 -0.16061851210E+01 -0.98822272563E+02  0.72879943985E+03  0.74635517343E+03  0.12700000000E+03 0.  0.
<mgrwt>
<rscale>  0 0.35982896E+03</rscale>
<asrwt>0</asrwt>
<pdfrwt beam="1">  1        2 0.14562235E+00 0.35982896E+03</pdfrwt>
<pdfrwt beam="2">  1       -2 0.45363664E-02 0.35982896E+03</pdfrwt>
<totfact> 0.64760950E+03</totfact>
</mgrwt>
</event>
<event>
 4    1  0.1351183E-004  0.3191040E+03  0.7818608E-02  0.1076062E+00
          2   -1    0    0  501    0  0.00000000000E+00  0.00000000000E+00  0.70503898163E+03  0.70503898163E+03  0.25500000000E-02 0.  1.
         -2   -1    0    0    0  501 -0.00000000000E+00 -0.00000000000E+00 -0.36106993501E+02  0.36106993591E+02  0.25500000000E-02 0. -1.
    5000001    1    1    2    0    0  0.78758094594E+02  0.54412122142E+02  0.36423872523E+03  0.39744479548E+03  0.12700000000E+03 0.  0.
   -5000001    1    1    2    0    0 -0.78758094594E+02 -0.54412122142E+02  0.30469326290E+03  0.34370117974E+03  0.12700000000E+03 0.  0.
<mgrwt>
<rscale>  0 0.31910398E+03</rscale>
<asrwt>0</asrwt>
<pdfrwt beam="1">  1        2 0.10071985E+00 0.31910398E+03</pdfrwt>
<pdfrwt beam="2">  1       -2 0.51581421E-02 0.31910398E+03</pdfrwt>
<totfact> 0.85127244E+03</totfact>
</mgrwt>
</event>
<event>
 4    1  0.1351183E-004  0.4153820E+03  0.7818608E-02  0.1038580E+00
          2   -1    0    0  501    0  0.00000000000E+00  0.00000000000E+00  0.26938920853E+03  0.26938920854E+03  0.25500000000E-02 0.  1.
         -2   -1    0    0    0  501 -0.00000000000E+00 -0.00000000000E+00 -0.16012350319E+03  0.16012350321E+03  0.25500000000E-02 0. -1.
    5000001    1    1    2    0    0 -0.39273264901E+02 -0.93995805146E+02 -0.78707227100E+02  0.18083536247E+03  0.12700000000E+03 0.  0.
   -5000001    1    1    2    0    0  0.39273264901E+02  0.93995805146E+02  0.18797293244E+03  0.24867734929E+03  0.12700000000E+03 0.  0.
<mgrwt>
<rscale>  0 0.41538196E+03</rscale>
<asrwt>0</asrwt>
<pdfrwt beam="1">  1        2 0.38484173E-01 0.41538196E+03</pdfrwt>
<pdfrwt beam="2">  1       -2 0.22874786E-01 0.41538196E+03</pdfrwt>
<totfact> 0.22346461E+03</totfact>
</mgrwt>
</event>
<event>
 4    1  0.1351183E-004  0.4433423E+03  0.7818608E-02  0.1029726E+00
          2   -1    0    0  501    0  0.00000000000E+00  0.00000000000E+00  0.14355415502E+04  0.14355415502E+04  0.25500000000E-02 0.  1.
         -2   -1    0    0    0  501 -0.00000000000E+00 -0.00000000000E+00 -0.34229657425E+02  0.34229657520E+02  0.25500000000E-02 0. -1.
    5000001    1    1    2    0    0  0.17362647543E+03 -0.17877057059E+02  0.53346454588E+03  0.57548167985E+03  0.12700000000E+03 0.  0.
   -5000001    1    1    2    0    0 -0.17362647543E+03  0.17877057059E+02  0.86784734694E+03  0.89428952791E+03  0.12700000000E+03 0.  0.
<mgrwt>
<rscale>  0 0.44334229E+03</rscale>
<asrwt>0</asrwt>
<pdfrwt beam="1">  1        2 0.20507739E+00 0.44334229E+03</pdfrwt>
<pdfrwt beam="2">  1       -2 0.48899505E-02 0.44334229E+03</pdfrwt>
<totfact> 0.34148154E+03</totfact>
</mgrwt>
</event>
<event>
 4    1  0.1351183E-004  0.3988602E+03  0.7818608E-02  0.1044175E+00
         -2   -1    0    0    0  501 -0.00000000000E+00  0.00000000000E+00  0.35165779879E+02  0.35165779972E+02  0.25500000000E-02 0.  1.
          2   -1    0    0  501    0  0.00000000000E+00 -0.00000000000E+00 -0.11309963086E+04  0.11309963086E+04  0.25500000000E-02 0. -1.
    5000001    1    1    2    0    0  0.12675665280E+03  0.26903738289E+02 -0.78993824899E+03  0.81050755542E+03  0.12700000000E+03 0.  0.
   -5000001    1    1    2    0    0 -0.12675665280E+03 -0.26903738289E+02 -0.30589227976E+03  0.35565453319E+03  0.12700000000E+03 0.  0.
<mgrwt>
<rscale>  0 0.39886021E+03</rscale>
<asrwt>0</asrwt>
<pdfrwt beam="1">  1        2 0.16157088E+00 0.39886021E+03</pdfrwt>
<pdfrwt beam="2">  1       -2 0.50236836E-02 0.39886021E+03</pdfrwt>
<totfact> 0.47829143E+03</totfact>
</mgrwt>
</event>
<event>
 4    1  0.1351183E-004  0.5702867E+03  0.7818608E-02  0.9969044E-01
          2   -1    0    0  501    0  0.00000000000E+00  0.00000000000E+00  0.24601623985E+03  0.24601623986E+03  0.25500000000E-02 0.  1.
         -2   -1    0    0    0  501 -0.00000000000E+00 -0.00000000000E+00 -0.33049335655E+03  0.33049335656E+03  0.25500000000E-02 0. -1.
    5000001    1    1    2    0    0  0.13004899820E+03  0.20390069376E+03 -0.12492038356E+03  0.30037033321E+03  0.12700000000E+03 0.  0.
   -5000001    1    1    2    0    0 -0.13004899820E+03 -0.20390069376E+03  0.40443266854E+02  0.27613926320E+03  0.12700000000E+03 0.  0.
<mgrwt>
<rscale>  0 0.57028671E+03</rscale>
<asrwt>0</asrwt>
<pdfrwt beam="1">  1        2 0.35145177E-01 0.57028671E+03</pdfrwt>
<pdfrwt beam="2">  1       -2 0.47213337E-01 0.57028671E+03</pdfrwt>
<totfact> 0.63709407E+02</totfact>
</mgrwt>
</event>
<event>
 4    1  0.1351183E-004  0.4064017E+03  0.7818608E-02  0.1041585E+00
          2   -1    0    0  501    0  0.00000000000E+00  0.00000000000E+00  0.28370306590E+03  0.28370306591E+03  0.25500000000E-02 0.  1.
         -2   -1    0    0    0  501 -0.00000000000E+00 -0.00000000000E+00 -0.14554155646E+03  0.14554155648E+03  0.25500000000E-02 0. -1.
    5000001    1    1    2    0    0  0.21479262958E+02  0.11758171229E+03 -0.41062865093E+02  0.17917024500E+03  0.12700000000E+03 0.  0.
   -5000001    1    1    2    0    0 -0.21479262958E+02 -0.11758171229E+03  0.17922437454E+03  0.25007437740E+03  0.12700000000E+03 0.  0.
<mgrwt>
<rscale>  0 0.40640170E+03</rscale>
<asrwt>0</asrwt>
<pdfrwt beam="1">  1        2 0.40529009E-01 0.40640170E+03</pdfrwt>
<pdfrwt beam="2">  1       -2 0.20791651E-01 0.40640170E+03</pdfrwt>
<totfact> 0.24941775E+03</totfact>
</mgrwt>
</event>
<event>
 4    1  0.1351183E-004  0.3240445E+03  0.7818608E-02  0.1073803E+00
          2   -1    0    0  501    0  0.00000000000E+00  0.00000000000E+00  0.11086689481E+04  0.11086689481E+04  0.25500000000E-02 0.  1.
         -2   -1    0    0    0  501 -0.00000000000E+00 -0.00000000000E+00 -0.23678127852E+02  0.23678127990E+02  0.25500000000E-02 0. -1.
    5000001    1    1    2    0    0 -0.70837510226E+02  0.55453520623E+02  0.69990566551E+03  0.71700068787E+03  0.12700000000E+03 0.  0.
   -5000001    1    1    2    0    0  0.70837510226E+02 -0.55453520623E+02  0.38508515475E+03  0.41534638823E+03  0.12700000000E+03 0.  0.
<mgrwt>
<rscale>  0 0.32404447E+03</rscale>
<asrwt>0</asrwt>
<pdfrwt beam="1">  1        2 0.15838133E+00 0.32404447E+03</pdfrwt>
<pdfrwt beam="2">  1       -2 0.33825885E-02 0.32404447E+03</pdfrwt>
<totfact> 0.89433059E+03</totfact>
</mgrwt>
</event>
<event>
 4    1  0.1351183E-004  0.4557292E+03  0.7818608E-02  0.1026027E+00
          2   -1    0    0  501    0  0.00000000000E+00  0.00000000000E+00  0.23152516917E+04  0.23152516917E+04  0.25500000000E-02 0.  1.
         -2   -1    0    0    0  501 -0.00000000000E+00 -0.00000000000E+00 -0.22426194424E+02  0.22426194569E+02  0.25500000000E-02 0. -1.
    5000001    1    1    2    0    0  0.14849894208E+03 -0.68783493458E+01  0.17466784492E+04  0.17575875091E+04  0.12700000000E+03 0.  0.
   -5000001    1    1    2    0    0 -0.14849894208E+03  0.68783493458E+01  0.54614704814E+03  0.58009037716E+03  0.12700000000E+03 0.  0.
<mgrwt>
<rscale>  0 0.45572924E+03</rscale>
<asrwt>0</asrwt>
<pdfrwt beam="1">  1        2 0.33075007E+00 0.45572924E+03</pdfrwt>
<pdfrwt beam="2">  1       -2 0.32037437E-02 0.45572924E+03</pdfrwt>
<totfact> 0.23515648E+03</totfact>
</mgrwt>
</event>
<event>
 4    1  0.1351183E-004  0.4934787E+03  0.7818608E-02  0.1015495E+00
          2   -1    0    0  501    0  0.00000000000E+00  0.00000000000E+00  0.97640327255E+03  0.97640327255E+03  0.25500000000E-02 0.  1.
         -2   -1    0    0    0  501 -0.00000000000E+00 -0.00000000000E+00 -0.62351593373E+02  0.62351593425E+02  0.25500000000E-02 0. -1.
    5000001    1    1    2    0    0  0.19019181494E+03  0.89039077083E+02  0.51070927940E+03  0.56661614148E+03  0.12700000000E+03 0.  0.
   -5000001    1    1    2    0    0 -0.19019181494E+03 -0.89039077083E+02  0.40334239977E+03  0.47213872450E+03  0.12700000000E+03 0.  0.
<mgrwt>
<rscale>  0 0.49347867E+03</rscale>
<asrwt>0</asrwt>
<pdfrwt beam="1">  1        2 0.13948618E+00 0.49347867E+03</pdfrwt>
<pdfrwt beam="2">  1       -2 0.89073705E-02 0.49347867E+03</pdfrwt>
<totfact> 0.24081110E+03</totfact>
</mgrwt>
</event>
<event>
 4    1  0.1351183E-004  0.3980563E+04  0.7818608E-02  0.8008479E-01
          2   -1    0    0  501    0  0.00000000000E+00  0.00000000000E+00  0.43191922887E+04  0.43191922887E+04  0.25500000000E-02 0.  1.
         -2   -1    0    0    0  501 -0.00000000000E+00 -0.00000000000E+00 -0.91712080955E+03  0.91712080956E+03  0.25500000000E-02 0. -1.
    5000001    1    1    2    0    0 -0.38930777241E+03  0.13702926089E+04 -0.11975285542E+03  0.14351766867E+04  0.12700000000E+03 0.  0.
   -5000001    1    1    2    0    0  0.38930777241E+03 -0.13702926089E+04  0.35218243346E+04  0.38011364116E+04  0.12700000000E+03 0.  0.
<mgrwt>
<rscale>  0 0.39805633E+04</rscale>
<asrwt>0</asrwt>
<pdfrwt beam="1">  1        2 0.61702746E+00 0.39805633E+04</pdfrwt>
<pdfrwt beam="2">  1       -2 0.13101726E+00 0.39805633E+04</pdfrwt>
<totfact> 0.11346723E-01</totfact>
</mgrwt>
</event>
<event>
 4    1  0.1351183E-004  0.3436593E+03  0.7818608E-02  0.1065248E+00
          2   -1    0    0  501    0  0.00000000000E+00  0.00000000000E+00  0.23682549186E+04  0.23682549186E+04  0.25500000000E-02 0.  1.
         -2   -1    0    0    0  501 -0.00000000000E+00 -0.00000000000E+00 -0.12467169043E+02  0.12467169304E+02  0.25500000000E-02 0. -1.
    5000001    1    1    2    0    0 -0.77076519207E+02 -0.31237920217E+02  0.62024272214E+03  0.63855041448E+03  0.12700000000E+03 0.  0.
   -5000001    1    1    2    0    0  0.77076519207E+02  0.31237920217E+02  0.17355450274E+04  0.17421716734E+04  0.12700000000E+03 0.  0.
<mgrwt>
<rscale>  0 0.34365934E+03</rscale>
<asrwt>0</asrwt>
<pdfrwt beam="1">  1        2 0.33832203E+00 0.34365934E+03</pdfrwt>
<pdfrwt beam="2">  1       -2 0.17810247E-02 0.34365934E+03</pdfrwt>
<totfact> 0.53419372E+03</totfact>
</mgrwt>
</event>
<event>
 4    1  0.1351183E-004  0.5243540E+03  0.7818608E-02  0.1007611E+00
          2   -1    0    0  501    0  0.00000000000E+00  0.00000000000E+00  0.59068245815E+03  0.59068245815E+03  0.25500000000E-02 0.  1.
         -2   -1    0    0    0  501 -0.00000000000E+00 -0.00000000000E+00 -0.11636840071E+03  0.11636840073E+03  0.25500000000E-02 0. -1.
    5000001    1    1    2    0    0 -0.96865154763E+02  0.18136444365E+03  0.10009561541E+03  0.26157991485E+03  0.12700000000E+03 0.  0.
   -5000001    1    1    2    0    0  0.96865154763E+02 -0.18136444365E+03  0.37421844203E+03  0.44547094404E+03  0.12700000000E+03 0.  0.
<mgrwt>
<rscale>  0 0.52435398E+03</rscale>
<asrwt>0</asrwt>
<pdfrwt beam="1">  1        2 0.84383207E-01 0.52435398E+03</pdfrwt>
<pdfrwt beam="2">  1       -2 0.16624057E-01 0.52435398E+03</pdfrwt>
<totfact> 0.16224118E+03</totfact>
</mgrwt>
</event>
<event>
 4    1  0.1351183E-004  0.4823485E+03  0.7818608E-02  0.1018492E+00
         -2   -1    0    0    0  501 -0.00000000000E+00  0.00000000000E+00  0.19543061820E+02  0.19543061986E+02  0.25500000000E-02 0. -1.
          2   -1    0    0  501    0  0.00000000000E+00 -0.00000000000E+00 -0.29762495210E+04  0.29762495210E+04  0.25500000000E-02 0.  1.
    5000001    1    1    2    0    0  0.15744401522E+03  0.42201329183E+02 -0.70594620821E+03  0.73556686915E+03  0.12700000000E+03 0.  0.
   -5000001    1    1    2    0    0 -0.15744401522E+03 -0.42201329183E+02 -0.22507602510E+04  0.22602257139E+04  0.12700000000E+03 0.  0.
<mgrwt>
<rscale>  0 0.48234854E+03</rscale>
<asrwt>0</asrwt>
<pdfrwt beam="1">  1        2 0.42517821E+00 0.48234854E+03</pdfrwt>
<pdfrwt beam="2">  1       -2 0.27918679E-02 0.48234854E+03</pdfrwt>
<totfact> 0.13147808E+03</totfact>
</mgrwt>
</event>
<event>
 4    1  0.1351183E-004  0.4206004E+03  0.7818608E-02  0.1036871E+00
          2   -1    0    0  501    0  0.00000000000E+00  0.00000000000E+00  0.46097158363E+02  0.46097158434E+02  0.25500000000E-02 0.  1.
         -2   -1    0    0    0  501 -0.00000000000E+00 -0.00000000000E+00 -0.95941209920E+03  0.95941209920E+03  0.25500000000E-02 0. -1.
    5000001    1    1    2    0    0 -0.13251660545E+03  0.10239812301E+03 -0.47375442724E+03  0.51828397973E+03  0.12700000000E+03 0.  0.
   -5000001    1    1    2    0    0  0.13251660545E+03 -0.10239812301E+03 -0.43956051360E+03  0.48722527790E+03  0.12700000000E+03 0.  0.
<mgrwt>
<rscale>  0 0.42060039E+03</rscale>
<asrwt>0</asrwt>
<pdfrwt beam="1">  1        2 0.65853090E-02 0.42060039E+03</pdfrwt>
<pdfrwt beam="2">  1       -2 0.13705886E+00 0.42060039E+03</pdfrwt>
<totfact> 0.43919367E+02</totfact>
</mgrwt>
</event>
<event>
 4    1  0.1351183E-004  0.2900539E+03  0.7818608E-02  0.1090321E+00
          2   -1    0    0  501    0  0.00000000000E+00  0.00000000000E+00  0.86292710860E+02  0.86292710898E+02  0.25500000000E-02 0.  1.
         -2   -1    0    0    0  501 -0.00000000000E+00 -0.00000000000E+00 -0.24373804370E+03  0.24373804371E+03  0.25500000000E-02 0. -1.
    5000001    1    1    2    0    0  0.10012459406E+02 -0.49728302217E+02 -0.13365340711E+03  0.19122077977E+03  0.12700000000E+03 0.  0.
   -5000001    1    1    2    0    0 -0.10012459406E+02  0.49728302217E+02 -0.23791925730E+02  0.13880997484E+03  0.12700000000E+03 0.  0.
<mgrwt>
<rscale>  0 0.29005390E+03</rscale>
<asrwt>0</asrwt>
<pdfrwt beam="1">  1        2 0.12327530E-01 0.29005390E+03</pdfrwt>
<pdfrwt beam="2">  1       -2 0.34819720E-01 0.29005390E+03</pdfrwt>
<totfact> 0.38239666E+03</totfact>
</mgrwt>
</event>
<event>
 4    1  0.1351183E-004  0.3371029E+03  0.7818608E-02  0.1068037E+00
         -2   -1    0    0    0  501 -0.00000000000E+00  0.00000000000E+00  0.26639193652E+02  0.26639193774E+02  0.25500000000E-02 0. -1.
          2   -1    0    0  501    0  0.00000000000E+00 -0.00000000000E+00 -0.10664583722E+04  0.10664583722E+04  0.25500000000E-02 0.  1.
    5000001    1    1    2    0    0  0.76396534607E+02 -0.62761439802E+02 -0.35761113753E+03  0.39216087836E+03  0.12700000000E+03 0.  0.
   -5000001    1    1    2    0    0 -0.76396534607E+02  0.62761439802E+02 -0.68220804098E+03  0.70093668758E+03  0.12700000000E+03 0.  0.
<mgrwt>
<rscale>  0 0.33710290E+03</rscale>
<asrwt>0</asrwt>
<pdfrwt beam="1">  1        2 0.15235117E+00 0.33710290E+03</pdfrwt>
<pdfrwt beam="2">  1       -2 0.38055998E-02 0.33710290E+03</pdfrwt>
<totfact> 0.79241704E+03</totfact>
</mgrwt>
</event>
<event>
 4    1  0.1351183E-004  0.3150635E+03  0.7818608E-02  0.1077944E+00
         -2   -1    0    0    0  501 -0.00000000000E+00  0.00000000000E+00  0.12944336625E+02  0.12944336876E+02  0.25500000000E-02 0. -1.
          2   -1    0    0  501    0  0.00000000000E+00 -0.00000000000E+00 -0.19171513237E+04  0.19171513237E+04  0.25500000000E-02 0.  1.
    5000001    1    1    2    0    0  0.14318749172E+02 -0.84187064657E+02 -0.72331662691E+03  0.73932971752E+03  0.12700000000E+03 0.  0.
   -5000001    1    1    2    0    0 -0.14318749172E+02  0.84187064657E+02 -0.11808903602E+04  0.11907659431E+04  0.12700000000E+03 0.  0.
<mgrwt>
<rscale>  0 0.31506350E+03</rscale>
<asrwt>0</asrwt>
<pdfrwt beam="1">  1        2 0.27387858E+00 0.31506350E+03</pdfrwt>
<pdfrwt beam="2">  1       -2 0.18491922E-02 0.31506350E+03</pdfrwt>
<totfact> 0.84295895E+03</totfact>
</mgrwt>
</event>
<event>
 4    1  0.1351183E-004  0.5184833E+03  0.7818608E-02  0.1009064E+00
          2   -1    0    0  501    0  0.00000000000E+00  0.00000000000E+00  0.40973192073E+03  0.40973192074E+03  0.25500000000E-02 0.  1.
         -2   -1    0    0    0  501 -0.00000000000E+00 -0.00000000000E+00 -0.16402488265E+03  0.16402488267E+03  0.25500000000E-02 0. -1.
    5000001    1    1    2    0    0 -0.21619018024E+03 -0.43634496177E+02  0.17746054656E+03  0.31026345076E+03  0.12700000000E+03 0.  0.
   -5000001    1    1    2    0    0  0.21619018024E+03  0.43634496177E+02  0.68246491524E+02  0.26349335266E+03  0.12700000000E+03 0.  0.
<mgrwt>
<rscale>  0 0.51848329E+03</rscale>
<asrwt>0</asrwt>
<pdfrwt beam="1">  1        2 0.58533132E-01 0.51848329E+03</pdfrwt>
<pdfrwt beam="2">  1       -2 0.23432126E-01 0.51848329E+03</pdfrwt>
<totfact> 0.13538837E+03</totfact>
</mgrwt>
</event>
<event>
 4    1  0.1351183E-004  0.6967984E+03  0.7818608E-02  0.9722723E-01
         -2   -1    0    0    0  501 -0.00000000000E+00  0.00000000000E+00  0.50594181155E+02  0.50594181219E+02  0.25500000000E-02 0. -1.
          2   -1    0    0  501    0  0.00000000000E+00 -0.00000000000E+00 -0.23991296173E+04  0.23991296173E+04  0.25500000000E-02 0.  1.
    5000001    1    1    2    0    0 -0.26998240163E+03 -0.17833410988E+03 -0.12574228982E+04  0.13045822691E+04  0.12700000000E+03 0.  0.
   -5000001    1    1    2    0    0  0.26998240163E+03  0.17833410988E+03 -0.10911125379E+04  0.11451415293E+04  0.12700000000E+03 0.  0.
<mgrwt>
<rscale>  0 0.69679839E+03</rscale>
<asrwt>0</asrwt>
<pdfrwt beam="1">  1        2 0.34273273E+00 0.69679839E+03</pdfrwt>
<pdfrwt beam="2">  1       -2 0.72277417E-02 0.69679839E+03</pdfrwt>
<totfact> 0.59577572E+02</totfact>
</mgrwt>
</event>
<event>
 4    1  0.1351183E-004  0.3187618E+03  0.7818608E-02  0.1076221E+00
          2   -1    0    0  501    0  0.00000000000E+00  0.00000000000E+00  0.33063896779E+04  0.33063896779E+04  0.25500000000E-02 0.  1.
         -2   -1    0    0    0  501 -0.00000000000E+00 -0.00000000000E+00 -0.76827819685E+01  0.76827823917E+01  0.25500000000E-02 0. -1.
    5000001    1    1    2    0    0 -0.96077414155E+02 -0.14821072208E+01  0.17152767151E+04  0.17226538467E+04  0.12700000000E+03 0.  0.
   -5000001    1    1    2    0    0  0.96077414155E+02  0.14821072208E+01  0.15834301808E+04  0.15914186136E+04  0.12700000000E+03 0.  0.
<mgrwt>
<rscale>  0 0.31876180E+03</rscale>
<asrwt>0</asrwt>
<pdfrwt beam="1">  1        2 0.47234144E+00 0.31876180E+03</pdfrwt>
<pdfrwt beam="2">  1       -2 0.10975402E-02 0.31876180E+03</pdfrwt>
<totfact> 0.35099159E+03</totfact>
</mgrwt>
</event>
<event>
 4    1  0.1351183E-004  0.6404484E+03  0.7818608E-02  0.9824869E-01
         -2   -1    0    0    0  501 -0.00000000000E+00  0.00000000000E+00  0.79597593258E+03  0.79597593258E+03  0.25500000000E-02 0. -1.
          2   -1    0    0  501    0  0.00000000000E+00 -0.00000000000E+00 -0.12882742042E+03  0.12882742045E+03  0.25500000000E-02 0.  1.
    5000001    1    1    2    0    0 -0.26129115596E+03  0.12668855366E+03  0.26753671087E+03  0.41476252178E+03  0.12700000000E+03 0.  0.
   -5000001    1    1    2    0    0  0.26129115596E+03 -0.12668855366E+03  0.39961180129E+03  0.51004083125E+03  0.12700000000E+03 0.  0.
<mgrwt>
<rscale>  0 0.64044836E+03</rscale>
<asrwt>0</asrwt>
<pdfrwt beam="1">  1        2 0.18403917E-01 0.64044836E+03</pdfrwt>
<pdfrwt beam="2">  1       -2 0.11371085E+00 0.64044836E+03</pdfrwt>
<totfact> 0.19231941E+02</totfact>
</mgrwt>
</event>
<event>
 4    1  0.1351183E-004  0.3563286E+03  0.7818608E-02  0.1060047E+00
         -2   -1    0    0    0  501 -0.00000000000E+00  0.00000000000E+00  0.21322677797E+02  0.21322677950E+02  0.25500000000E-02 0. -1.
          2   -1    0    0  501    0  0.00000000000E+00 -0.00000000000E+00 -0.14886740121E+04  0.14886740121E+04  0.25500000000E-02 0.  1.
    5000001    1    1    2    0    0 -0.51349608178E+02 -0.10074799986E+03 -0.50837859094E+03  0.53606411320E+03  0.12700000000E+03 0.  0.
   -5000001    1    1    2    0    0  0.51349608178E+02  0.10074799986E+03 -0.95897274333E+03  0.97393257681E+03  0.12700000000E+03 0.  0.
<mgrwt>
<rscale>  0 0.35632859E+03</rscale>
<asrwt>0</asrwt>
<pdfrwt beam="1">  1        2 0.21266765E+00 0.35632859E+03</pdfrwt>
<pdfrwt beam="2">  1       -2 0.30460978E-02 0.35632859E+03</pdfrwt>
<totfact> 0.65708713E+03</totfact>
</mgrwt>
</event>
<event>
 4    1  0.1351183E-004  0.3251662E+03  0.7818608E-02  0.1073296E+00
         -2   -1    0    0    0  501 -0.00000000000E+00  0.00000000000E+00  0.36039484318E+02  0.36039484409E+02  0.25500000000E-02 0. -1.
          2   -1    0    0  501    0  0.00000000000E+00 -0.00000000000E+00 -0.73345284358E+03  0.73345284359E+03  0.25500000000E-02 0.  1.
    5000001    1    1    2    0    0 -0.70202692092E+02  0.10435423643E+01 -0.52219820502E+03  0.54198659788E+03  0.12700000000E+03 0.  0.
   -5000001    1    1    2    0    0  0.70202692092E+02 -0.10435423643E+01 -0.17521515424E+03  0.22750573011E+03  0.12700000000E+03 0.  0.
<mgrwt>
<rscale>  0 0.32516619E+03</rscale>
<asrwt>0</asrwt>
<pdfrwt beam="1">  1        2 0.10477897E+00 0.32516619E+03</pdfrwt>
<pdfrwt beam="2">  1       -2 0.51484982E-02 0.32516619E+03</pdfrwt>
<totfact> 0.81451709E+03</totfact>
</mgrwt>
</event>
<event>
 4    1  0.1351183E-004  0.3019145E+03  0.7818608E-02  0.1084287E+00
         -2   -1    0    0    0  501 -0.00000000000E+00  0.00000000000E+00  0.54861460399E+03  0.54861460399E+03  0.25500000000E-02 0. -1.
          2   -1    0    0  501    0  0.00000000000E+00 -0.00000000000E+00 -0.41537511917E+02  0.41537511996E+02  0.25500000000E-02 0.  1.
    5000001    1    1    2    0    0  0.14708939037E+02 -0.69470264925E+02  0.33213145505E+03  0.36260553502E+03  0.12700000000E+03 0.  0.
   -5000001    1    1    2    0    0 -0.14708939037E+02  0.69470264925E+02  0.17494563702E+03  0.22754658096E+03  0.12700000000E+03 0.  0.
<mgrwt>
<rscale>  0 0.30191446E+03</rscale>
<asrwt>0</asrwt>
<pdfrwt beam="1">  1        2 0.59339304E-02 0.30191446E+03</pdfrwt>
<pdfrwt beam="2">  1       -2 0.78373513E-01 0.30191446E+03</pdfrwt>
<totfact> 0.18722293E+03</totfact>
</mgrwt>
</event>
<event>
 4    1  0.1351183E-004  0.3123961E+03  0.7818608E-02  0.1079203E+00
          2   -1    0    0  501    0  0.00000000000E+00  0.00000000000E+00  0.27428397242E+04  0.27428397242E+04  0.25500000000E-02 0.  1.
         -2   -1    0    0    0  501 -0.00000000000E+00 -0.00000000000E+00 -0.88950992595E+01  0.88950996250E+01  0.25500000000E-02 0. -1.
    5000001    1    1    2    0    0 -0.20745298907E+02 -0.77377935460E+02  0.17459540007E+04  0.17523989514E+04  0.12700000000E+03 0.  0.
   -5000001    1    1    2    0    0  0.20745298907E+02  0.77377935460E+02  0.98799062427E+03  0.99933587245E+03  0.12700000000E+03 0.  0.
<mgrwt>
<rscale>  0 0.31239611E+03</rscale>
<asrwt>0</asrwt>
<pdfrwt beam="1">  1        2 0.39183424E+00 0.31239611E+03</pdfrwt>
<pdfrwt beam="2">  1       -2 0.12707285E-02 0.31239611E+03</pdfrwt>
<totfact> 0.56792254E+03</totfact>
</mgrwt>
</event>
<event>
 4    1  0.1351183E-004  0.4043414E+03  0.7818608E-02  0.1042287E+00
          2   -1    0    0  501    0  0.00000000000E+00  0.00000000000E+00  0.28781653629E+04  0.28781653629E+04  0.25500000000E-02 0.  1.
         -2   -1    0    0    0  501 -0.00000000000E+00 -0.00000000000E+00 -0.14201058916E+02  0.14201059145E+02  0.25500000000E-02 0. -1.
    5000001    1    1    2    0    0 -0.14980734502E+03  0.34585931870E+02  0.11941349823E+04  0.12106716249E+04  0.12700000000E+03 0.  0.
   -5000001    1    1    2    0    0  0.14980734502E+03 -0.34585931870E+02  0.16698293216E+04  0.16816947971E+04  0.12700000000E+03 0.  0.
<mgrwt>
<rscale>  0 0.40434142E+03</rscale>
<asrwt>0</asrwt>
<pdfrwt beam="1">  1        2 0.41116609E+00 0.40434142E+03</pdfrwt>
<pdfrwt beam="2">  1       -2 0.20287246E-02 0.40434142E+03</pdfrwt>
<totfact> 0.24084631E+03</totfact>
</mgrwt>
</event>
<event>
 4    1  0.1351183E-004  0.3938695E+03  0.7818608E-02  0.1045923E+00
          2   -1    0    0  501    0  0.00000000000E+00  0.00000000000E+00  0.15342995301E+03  0.15342995303E+03  0.25500000000E-02 0.  1.
         -2   -1    0    0    0  501 -0.00000000000E+00 -0.00000000000E+00 -0.25277528220E+03  0.25277528221E+03  0.25500000000E-02 0. -1.
    5000001    1    1    2    0    0  0.14167731009E+03  0.90170841775E+01  0.18987831024E+01  0.19048982487E+03  0.12700000000E+03 0.  0.
   -5000001    1    1    2    0    0 -0.14167731009E+03 -0.90170841775E+01 -0.10124411229E+03  0.21571541038E+03  0.12700000000E+03 0.  0.
<mgrwt>
<rscale>  0 0.39386952E+03</rscale>
<asrwt>0</asrwt>
<pdfrwt beam="1">  1        2 0.21918565E-01 0.39386952E+03</pdfrwt>
<pdfrwt beam="2">  1       -2 0.36110755E-01 0.39386952E+03</pdfrwt>
<totfact> 0.18232798E+03</totfact>
</mgrwt>
</event>
<event>
 4    1  0.1351183E-004  0.3040096E+03  0.7818608E-02  0.1083253E+00
         -2   -1    0    0    0  501 -0.00000000000E+00  0.00000000000E+00  0.28166357456E+04  0.28166357456E+04  0.25500000000E-02 0. -1.
          2   -1    0    0  501    0  0.00000000000E+00 -0.00000000000E+00 -0.82032125967E+01  0.82032129931E+01  0.25500000000E-02 0.  1.
    5000001    1    1    2    0    0  0.68586455656E+02  0.34289860474E+02  0.17119136097E+04  0.17183297424E+04  0.12700000000E+03 0.  0.
   -5000001    1    1    2    0    0 -0.68586455656E+02 -0.34289860474E+02  0.10965189233E+04  0.11065092162E+04  0.12700000000E+03 0.  0.
<mgrwt>
<rscale>  0 0.30400962E+03</rscale>
<asrwt>0</asrwt>
<pdfrwt beam="1">  1        2 0.11718873E-02 0.30400962E+03</pdfrwt>
<pdfrwt beam="2">  1       -2 0.40237661E+00 0.30400962E+03</pdfrwt>
<totfact> 0.10035707E+02</totfact>
</mgrwt>
</event>
<event>
 4    1  0.1351183E-004  0.5089284E+03  0.7818608E-02  0.1011474E+00
          2   -1    0    0  501    0  0.00000000000E+00  0.00000000000E+00  0.13230148482E+04  0.13230148482E+04  0.25500000000E-02 0.  1.
         -2   -1    0    0    0  501 -0.00000000000E+00 -0.00000000000E+00 -0.48942780901E+02  0.48942780968E+02  0.25500000000E-02 0. -1.
    5000001    1    1    2    0    0  0.14774944863E+03 -0.15978897638E+03  0.73274977339E+03  0.77486363119E+03  0.12700000000E+03 0.  0.
   -5000001    1    1    2    0    0 -0.14774944863E+03  0.15978897638E+03  0.54132229394E+03  0.59709399801E+03  0.12700000000E+03 0.  0.
<mgrwt>
<rscale>  0 0.50892839E+03</rscale>
<asrwt>0</asrwt>
<pdfrwt beam="1">  1        2 0.18900207E+00 0.50892839E+03</pdfrwt>
<pdfrwt beam="2">  1       -2 0.69918277E-02 0.50892839E+03</pdfrwt>
<totfact> 0.22441883E+03</totfact>
</mgrwt>
</event>
<event>
 4    1  0.1351183E-004  0.4070561E+03  0.7818608E-02  0.1041363E+00
         -2   -1    0    0    0  501 -0.00000000000E+00  0.00000000000E+00  0.17929924005E+02  0.17929924186E+02  0.25500000000E-02 0. -1.
          2   -1    0    0  501    0  0.00000000000E+00 -0.00000000000E+00 -0.23103090632E+04  0.23103090632E+04  0.25500000000E-02 0.  1.
    5000001    1    1    2    0    0  0.10410019812E+03  0.95978100891E+02 -0.73191504580E+03  0.75622568151E+03  0.12700000000E+03 0.  0.
   -5000001    1    1    2    0    0 -0.10410019812E+03 -0.95978100891E+02 -0.15604640934E+04  0.15720133058E+04  0.12700000000E+03 0.  0.
<mgrwt>
<rscale>  0 0.40705610E+03</rscale>
<asrwt>0</asrwt>
<pdfrwt beam="1">  1        2 0.33004396E+00 0.40705610E+03</pdfrwt>
<pdfrwt beam="2">  1       -2 0.25614192E-02 0.40705610E+03</pdfrwt>
<totfact> 0.33194805E+03</totfact>
</mgrwt>
</event>
<event>
 4    1  0.1351183E-004  0.4978572E+03  0.7818608E-02  0.1014340E+00
         -2   -1    0    0    0  501 -0.00000000000E+00  0.00000000000E+00  0.16455285780E+03  0.16455285782E+03  0.25500000000E-02 0.  1.
          2   -1    0    0  501    0  0.00000000000E+00 -0.00000000000E+00 -0.37656872635E+03  0.37656872636E+03  0.25500000000E-02 0. -1.
    5000001    1    1    2    0    0  0.18007419350E+03  0.11296742111E+03 -0.13367819647E+03  0.28140222744E+03  0.12700000000E+03 0.  0.
   -5000001    1    1    2    0    0 -0.18007419350E+03 -0.11296742111E+03 -0.78337672081E+02  0.25971935674E+03  0.12700000000E+03 0.  0.
<mgrwt>
<rscale>  0 0.49785725E+03</rscale>
<asrwt>0</asrwt>
<pdfrwt beam="1">  1        2 0.53795532E-01 0.49785725E+03</pdfrwt>
<pdfrwt beam="2">  1       -2 0.23507551E-01 0.49785725E+03</pdfrwt>
<totfact> 0.14776998E+03</totfact>
</mgrwt>
</event>
<event>
 4    1  0.1351183E-004  0.2699866E+03  0.7818608E-02  0.1101287E+00
          2   -1    0    0  501    0  0.00000000000E+00  0.00000000000E+00  0.56948081871E+03  0.56948081872E+03  0.25500000000E-02 0.  1.
         -2   -1    0    0    0  501 -0.00000000000E+00 -0.00000000000E+00 -0.31999663375E+02  0.31999663477E+02  0.25500000000E-02 0. -1.
    5000001    1    1    2    0    0 -0.44786586120E+02  0.89299952081E+01  0.27527815218E+03  0.30658219807E+03  0.12700000000E+03 0.  0.
   -5000001    1    1    2    0    0  0.44786586120E+02 -0.89299952081E+01  0.26220300316E+03  0.29489828412E+03  0.12700000000E+03 0.  0.
<mgrwt>
<rscale>  0 0.26998663E+03</rscale>
<asrwt>0</asrwt>
<pdfrwt beam="1">  1        2 0.81354399E-01 0.26998663E+03</pdfrwt>
<pdfrwt beam="2">  1       -2 0.45713807E-02 0.26998663E+03</pdfrwt>
<totfact> 0.13022488E+04</totfact>
</mgrwt>
</event>
<event>
 4    1  0.1351183E-004  0.3404011E+03  0.7818608E-02  0.1066625E+00
         -2   -1    0    0    0  501 -0.00000000000E+00  0.00000000000E+00  0.39069843345E+02  0.39069843428E+02  0.25500000000E-02 0. -1.
          2   -1    0    0  501    0  0.00000000000E+00 -0.00000000000E+00 -0.74144731693E+03  0.74144731694E+03  0.25500000000E-02 0.  1.
    5000001    1    1    2    0    0 -0.11157035984E+03 -0.11555560776E+02 -0.31437630572E+03  0.35713154128E+03  0.12700000000E+03 0.  0.
   -5000001    1    1    2    0    0  0.11157035984E+03  0.11555560776E+02 -0.38800116787E+03  0.42338561909E+03  0.12700000000E+03 0.  0.
<mgrwt>
<rscale>  0 0.34040112E+03</rscale>
<asrwt>0</asrwt>
<pdfrwt beam="1">  1        2 0.10592104E+00 0.34040112E+03</pdfrwt>
<pdfrwt beam="2">  1       -2 0.55814066E-02 0.34040112E+03</pdfrwt>
<totfact> 0.71120901E+03</totfact>
</mgrwt>
</event>
<event>
 4    1  0.1351183E-004  0.7787384E+03  0.7818608E-02  0.9591313E-01
          2   -1    0    0  501    0  0.00000000000E+00  0.00000000000E+00  0.26070458499E+04  0.26070458499E+04  0.25500000000E-02 0.  1.
         -2   -1    0    0    0  501 -0.00000000000E+00 -0.00000000000E+00 -0.58153318204E+02  0.58153318260E+02  0.25500000000E-02 0. -1.
    5000001    1    1    2    0    0 -0.44372034142E+02 -0.32507815614E+03  0.18454398390E+04  0.18786755666E+04  0.12700000000E+03 0.  0.
   -5000001    1    1    2    0    0  0.44372034142E+02  0.32507815614E+03  0.70345269265E+03  0.78652360155E+03  0.12700000000E+03 0.  0.
<mgrwt>
<rscale>  0 0.77873838E+03</rscale>
<asrwt>0</asrwt>
<pdfrwt beam="1">  1        2 0.37243527E+00 0.77873838E+03</pdfrwt>
<pdfrwt beam="2">  1       -2 0.83076135E-02 0.77873838E+03</pdfrwt>
<totfact> 0.37006021E+02</totfact>
</mgrwt>
</event>
<event>
 4    1  0.1351183E-004  0.9472565E+03  0.7818608E-02  0.9368363E-01
         -2   -1    0    0    0  501 -0.00000000000E+00  0.00000000000E+00  0.57210891414E+03  0.57210891415E+03  0.25500000000E-02 0. -1.
          2   -1    0    0  501    0  0.00000000000E+00 -0.00000000000E+00 -0.39209966453E+03  0.39209966454E+03  0.25500000000E-02 0.  1.
    5000001    1    1    2    0    0  0.25230606603E+03 -0.24863831691E+03 -0.20274507468E+03  0.42745049877E+03  0.12700000000E+03 0.  0.
   -5000001    1    1    2    0    0 -0.25230606603E+03  0.24863831691E+03  0.38275432429E+03  0.53675807991E+03  0.12700000000E+03 0.  0.
<mgrwt>
<rscale>  0 0.94725649E+03</rscale>
<asrwt>0</asrwt>
<pdfrwt beam="1">  1        2 0.56014238E-01 0.94725649E+03</pdfrwt>
<pdfrwt beam="2">  1       -2 0.81729844E-01 0.94725649E+03</pdfrwt>
<totfact> 0.11670380E+02</totfact>
</mgrwt>
</event>
<event>
 4    1  0.1351183E-004  0.3351524E+03  0.7818608E-02  0.1068880E+00
         -2   -1    0    0    0  501 -0.00000000000E+00  0.00000000000E+00  0.95526584260E+02  0.95526584294E+02  0.25500000000E-02 0. -1.
          2   -1    0    0  501    0  0.00000000000E+00 -0.00000000000E+00 -0.29396828541E+03  0.29396828542E+03  0.25500000000E-02 0.  1.
    5000001    1    1    2    0    0 -0.12442067333E+02  0.10612969808E+03 -0.72353776393E+02  0.18105906995E+03  0.12700000000E+03 0.  0.
   -5000001    1    1    2    0    0  0.12442067333E+02 -0.10612969808E+03 -0.12608792476E+03  0.20843579976E+03  0.12700000000E+03 0.  0.
<mgrwt>
<rscale>  0 0.33515242E+03</rscale>
<asrwt>0</asrwt>
<pdfrwt beam="1">  1        2 0.41995469E-01 0.33515242E+03</pdfrwt>
<pdfrwt beam="2">  1       -2 0.13646655E-01 0.33515242E+03</pdfrwt>
<totfact> 0.48625129E+03</totfact>
</mgrwt>
</event>
<event>
 4    1  0.1351183E-004  0.4036425E+03  0.7818608E-02  0.1042526E+00
         -2   -1    0    0    0  501 -0.00000000000E+00  0.00000000000E+00  0.95739624758E+02  0.95739624792E+02  0.25500000000E-02 0. -1.
          2   -1    0    0  501    0  0.00000000000E+00 -0.00000000000E+00 -0.42544366396E+03  0.42544366397E+03  0.25500000000E-02 0.  1.
    5000001    1    1    2    0    0  0.50150417020E+02  0.13036140795E+03 -0.25700478886E+03  0.31888810342E+03  0.12700000000E+03 0.  0.
   -5000001    1    1    2    0    0 -0.50150417020E+02 -0.13036140795E+03 -0.72699250341E+02  0.20229518533E+03  0.12700000000E+03 0.  0.
<mgrwt>
<rscale>  0 0.40364250E+03</rscale>
<asrwt>0</asrwt>
<pdfrwt beam="1">  1        2 0.60777666E-01 0.40364250E+03</pdfrwt>
<pdfrwt beam="2">  1       -2 0.13677089E-01 0.40364250E+03</pdfrwt>
<totfact> 0.32519414E+03</totfact>
</mgrwt>
</event>
<event>
 4    1  0.1351183E-004  0.3938145E+03  0.7818608E-02  0.1045943E+00
          2   -1    0    0  501    0  0.00000000000E+00  0.00000000000E+00  0.14126234273E+04  0.14126234273E+04  0.25500000000E-02 0.  1.
         -2   -1    0    0    0  501 -0.00000000000E+00 -0.00000000000E+00 -0.27447138805E+02  0.27447138923E+02  0.25500000000E-02 0. -1.
    5000001    1    1    2    0    0 -0.12655743677E+03  0.81166985489E+02  0.66986725739E+03  0.69818049733E+03  0.12700000000E+03 0.  0.
   -5000001    1    1    2    0    0  0.12655743677E+03 -0.81166985489E+02  0.71530903109E+03  0.74189006887E+03  0.12700000000E+03 0.  0.
<mgrwt>
<rscale>  0 0.39381453E+03</rscale>
<asrwt>0</asrwt>
<pdfrwt beam="1">  1        2 0.20180337E+00 0.39381453E+03</pdfrwt>
<pdfrwt beam="2">  1       -2 0.39210194E-02 0.39381453E+03</pdfrwt>
<totfact> 0.49176314E+03</totfact>
</mgrwt>
</event>
<event>
 4    1  0.1351183E-004  0.3581924E+03  0.7818608E-02  0.1059302E+00
          2   -1    0    0  501    0  0.00000000000E+00  0.00000000000E+00  0.10019731264E+04  0.10019731264E+04  0.25500000000E-02 0.  1.
         -2   -1    0    0    0  501 -0.00000000000E+00 -0.00000000000E+00 -0.32012275835E+02  0.32012275937E+02  0.25500000000E-02 0. -1.
    5000001    1    1    2    0    0  0.13896152950E+01  0.91766171839E+02  0.23459591912E+03  0.28211204616E+03  0.12700000000E+03 0.  0.
   -5000001    1    1    2    0    0 -0.13896152950E+01 -0.91766171839E+02  0.73536493149E+03  0.75187335622E+03  0.12700000000E+03 0.  0.
<mgrwt>
<rscale>  0 0.35819235E+03</rscale>
<asrwt>0</asrwt>
<pdfrwt beam="1">  1        2 0.14313901E+00 0.35819235E+03</pdfrwt>
<pdfrwt beam="2">  1       -2 0.45731826E-02 0.35819235E+03</pdfrwt>
<totfact> 0.65500751E+03</totfact>
</mgrwt>
</event>
<event>
 4    1  0.1351183E-004  0.4653447E+03  0.7818608E-02  0.1023242E+00
         -2   -1    0    0    0  501 -0.00000000000E+00  0.00000000000E+00  0.33966057124E+02  0.33966057219E+02  0.25500000000E-02 0. -1.
          2   -1    0    0  501    0  0.00000000000E+00 -0.00000000000E+00 -0.15938389317E+04  0.15938389317E+04  0.25500000000E-02 0.  1.
    5000001    1    1    2    0    0  0.20715260756E+02 -0.19358089001E+03 -0.81573672520E+03  0.84820875252E+03  0.12700000000E+03 0.  0.
   -5000001    1    1    2    0    0 -0.20715260756E+02  0.19358089001E+03 -0.74413614934E+03  0.77959623637E+03  0.12700000000E+03 0.  0.
<mgrwt>
<rscale>  0 0.46534471E+03</rscale>
<asrwt>0</asrwt>
<pdfrwt beam="1">  1        2 0.22769123E+00 0.46534471E+03</pdfrwt>
<pdfrwt beam="2">  1       -2 0.48522949E-02 0.46534471E+03</pdfrwt>
<totfact> 0.28638434E+03</totfact>
</mgrwt>
</event>
<event>
 4    1  0.1351183E-004  0.7274321E+03  0.7818608E-02  0.9671437E-01
         -2   -1    0    0    0  501 -0.00000000000E+00  0.00000000000E+00  0.77614565384E+02  0.77614565426E+02  0.25500000000E-02 0. -1.
          2   -1    0    0  501    0  0.00000000000E+00 -0.00000000000E+00 -0.17044397285E+04  0.17044397285E+04  0.25500000000E-02 0.  1.
    5000001    1    1    2    0    0 -0.79817011433E+02 -0.28214614237E+03 -0.38780362183E+03  0.50249164179E+03  0.12700000000E+03 0.  0.
   -5000001    1    1    2    0    0  0.79817011433E+02  0.28214614237E+03 -0.12390215413E+04  0.12795626521E+04  0.12700000000E+03 0.  0.
<mgrwt>
<rscale>  0 0.72743206E+03</rscale>
<asrwt>0</asrwt>
<pdfrwt beam="1">  1        2 0.24349137E+00 0.72743206E+03</pdfrwt>
<pdfrwt beam="2">  1       -2 0.11087796E-01 0.72743206E+03</pdfrwt>
<totfact> 0.67115209E+02</totfact>
</mgrwt>
</event>
<event>
 4    1  0.1351183E-004  0.1446898E+04  0.7818608E-02  0.8920554E-01
          2   -1    0    0  501    0  0.00000000000E+00  0.00000000000E+00  0.46338272111E+03  0.46338272112E+03  0.25500000000E-02 0.  1.
         -2   -1    0    0    0  501 -0.00000000000E+00 -0.00000000000E+00 -0.11294728390E+04  0.11294728390E+04  0.25500000000E-02 0. -1.
    5000001    1    1    2    0    0 -0.20136619703E+03 -0.45714824576E+03  0.22582334705E+03  0.56272377591E+03  0.12700000000E+03 0.  0.
   -5000001    1    1    2    0    0  0.20136619703E+03  0.45714824576E+03 -0.89191346495E+03  0.10301317842E+04  0.12700000000E+03 0.  0.
<mgrwt>
<rscale>  0 0.14468976E+04</rscale>
<asrwt>0</asrwt>
<pdfrwt beam="1">  1        2 0.66197532E-01 0.14468976E+04</pdfrwt>
<pdfrwt beam="2">  1       -2 0.16135326E+00 0.14468976E+04</pdfrwt>
<totfact> 0.17504207E+01</totfact>
</mgrwt>
</event>
<event>
 4    1  0.1351183E-004  0.5885237E+03  0.7818608E-02  0.9929506E-01
          2   -1    0    0  501    0  0.00000000000E+00  0.00000000000E+00  0.87232897445E+03  0.87232897445E+03  0.25500000000E-02 0.  1.
         -2   -1    0    0    0  501 -0.00000000000E+00 -0.00000000000E+00 -0.99263059542E+02  0.99263059575E+02  0.25500000000E-02 0. -1.
    5000001    1    1    2    0    0  0.34935697003E+02  0.14308491809E+03  0.75110561045E+03  0.77587527010E+03  0.12700000000E+03 0.  0.
   -5000001    1    1    2    0    0 -0.34935697003E+02 -0.14308491809E+03  0.21960304457E+02  0.19571676392E+03  0.12700000000E+03 0.  0.
<mgrwt>
<rscale>  0 0.58852372E+03</rscale>
<asrwt>0</asrwt>
<pdfrwt beam="1">  1        2 0.12461842E+00 0.58852372E+03</pdfrwt>
<pdfrwt beam="2">  1       -2 0.14180438E-01 0.58852372E+03</pdfrwt>
<totfact> 0.13101805E+03</totfact>
</mgrwt>
</event>
<event>
 4    1  0.1351183E-004  0.4929074E+03  0.7818608E-02  0.1015647E+00
         -2   -1    0    0    0  501 -0.00000000000E+00  0.00000000000E+00  0.56274638432E+02  0.56274638490E+02  0.25500000000E-02 0. -1.
          2   -1    0    0  501    0  0.00000000000E+00 -0.00000000000E+00 -0.10793390860E+04  0.10793390860E+04  0.25500000000E-02 0.  1.
    5000001    1    1    2    0    0 -0.73024749465E+02  0.14920662015E+03 -0.81205936156E+03  0.83854912571E+03  0.12700000000E+03 0.  0.
   -5000001    1    1    2    0    0  0.73024749465E+02 -0.14920662015E+03 -0.21100508602E+03  0.29706459880E+03  0.12700000000E+03 0.  0.
<mgrwt>
<rscale>  0 0.49290736E+03</rscale>
<asrwt>0</asrwt>
<pdfrwt beam="1">  1        2 0.15419129E+00 0.49290736E+03</pdfrwt>
<pdfrwt beam="2">  1       -2 0.80392347E-02 0.49290736E+03</pdfrwt>
<totfact> 0.24613544E+03</totfact>
</mgrwt>
</event>
<event>
 4    1  0.1351183E-004  0.4781687E+03  0.7818608E-02  0.1019640E+00
         -2   -1    0    0    0  501 -0.00000000000E+00  0.00000000000E+00  0.59059842721E+02  0.59059842776E+02  0.25500000000E-02 0. -1.
          2   -1    0    0  501    0  0.00000000000E+00 -0.00000000000E+00 -0.96785440332E+03  0.96785440332E+03  0.25500000000E-02 0.  1.
    5000001    1    1    2    0    0  0.15670350415E+03  0.85108121113E+02 -0.66075619180E+03  0.69607982696E+03  0.12700000000E+03 0.  0.
   -5000001    1    1    2    0    0 -0.15670350415E+03 -0.85108121113E+02 -0.24803836880E+03  0.33083441914E+03  0.12700000000E+03 0.  0.
<mgrwt>
<rscale>  0 0.47816871E+03</rscale>
<asrwt>0</asrwt>
<pdfrwt beam="1">  1        2 0.13826491E+00 0.47816871E+03</pdfrwt>
<pdfrwt beam="2">  1       -2 0.84371210E-02 0.47816871E+03</pdfrwt>
<totfact> 0.26574754E+03</totfact>
</mgrwt>
</event>
<event>
 4    1  0.1351183E-004  0.5157804E+03  0.7818608E-02  0.1009740E+00
         -2   -1    0    0    0  501 -0.00000000000E+00  0.00000000000E+00  0.13892220874E+03  0.13892220877E+03  0.25500000000E-02 0. -1.
          2   -1    0    0  501    0  0.00000000000E+00 -0.00000000000E+00 -0.47873813842E+03  0.47873813843E+03  0.25500000000E-02 0.  1.
    5000001    1    1    2    0    0 -0.12970951762E+03  0.17580024467E+03 -0.23153197861E+03  0.34273363142E+03  0.12700000000E+03 0.  0.
   -5000001    1    1    2    0    0  0.12970951762E+03 -0.17580024467E+03 -0.10828395107E+03  0.27492671578E+03  0.12700000000E+03 0.  0.
<mgrwt>
<rscale>  0 0.51578042E+03</rscale>
<asrwt>0</asrwt>
<pdfrwt beam="1">  1        2 0.68391162E-01 0.51578042E+03</pdfrwt>
<pdfrwt beam="2">  1       -2 0.19846030E-01 0.51578042E+03</pdfrwt>
<totfact> 0.15228229E+03</totfact>
</mgrwt>
</event>
<event>
 4    1  0.1351183E-004  0.3892367E+03  0.7818608E-02  0.1047572E+00
         -2   -1    0    0    0  501 -0.00000000000E+00  0.00000000000E+00  0.89504607831E+02  0.89504607868E+02  0.25500000000E-02 0.  1.
          2   -1    0    0  501    0  0.00000000000E+00 -0.00000000000E+00 -0.42317711742E+03  0.42317711743E+03  0.25500000000E-02 0. -1.
    5000001    1    1    2    0    0  0.11886117797E+03  0.80050079525E+02 -0.21267800453E+03  0.28617639398E+03  0.12700000000E+03 0.  0.
   -5000001    1    1    2    0    0 -0.11886117797E+03 -0.80050079525E+02 -0.12099450506E+03  0.22650533132E+03  0.12700000000E+03 0.  0.
<mgrwt>
<rscale>  0 0.38923670E+03</rscale>
<asrwt>0</asrwt>
<pdfrwt beam="1">  1        2 0.60453873E-01 0.38923670E+03</pdfrwt>
<pdfrwt beam="2">  1       -2 0.12786373E-01 0.38923670E+03</pdfrwt>
<totfact> 0.36519832E+03</totfact>
</mgrwt>
</event>
<event>
 4    1  0.1351183E-004  0.3882242E+03  0.7818608E-02  0.1047935E+00
         -2   -1    0    0    0  501 -0.00000000000E+00  0.00000000000E+00  0.30164624004E+02  0.30164624112E+02  0.25500000000E-02 0.  1.
          2   -1    0    0  501    0  0.00000000000E+00 -0.00000000000E+00 -0.12491288335E+04  0.12491288335E+04  0.25500000000E-02 0. -1.
    5000001    1    1    2    0    0  0.10019483100E+03  0.86417368306E+02 -0.39994146619E+03  0.43998766128E+03  0.12700000000E+03 0.  0.
   -5000001    1    1    2    0    0 -0.10019483100E+03 -0.86417368306E+02 -0.81902274335E+03  0.83930579637E+03  0.12700000000E+03 0.  0.
<mgrwt>
<rscale>  0 0.38822417E+03</rscale>
<asrwt>0</asrwt>
<pdfrwt beam="1">  1        2 0.17844694E+00 0.38822417E+03</pdfrwt>
<pdfrwt beam="2">  1       -2 0.43092328E-02 0.38822417E+03</pdfrwt>
<totfact> 0.52015226E+03</totfact>
</mgrwt>
</event>
<event>
 4    1  0.1351183E-004  0.4904465E+03  0.7818608E-02  0.1016303E+00
          2   -1    0    0  501    0  0.00000000000E+00  0.00000000000E+00  0.85913372382E+02  0.85913372420E+02  0.25500000000E-02 0.  1.
         -2   -1    0    0    0  501 -0.00000000000E+00 -0.00000000000E+00 -0.69994272070E+03  0.69994272070E+03  0.25500000000E-02 0. -1.
    5000001    1    1    2    0    0 -0.27102732412E+01  0.20597250374E+03 -0.37057322252E+03  0.44258957413E+03  0.12700000000E+03 0.  0.
   -5000001    1    1    2    0    0  0.27102732412E+01 -0.20597250374E+03 -0.24345612580E+03  0.34326651900E+03  0.12700000000E+03 0.  0.
<mgrwt>
<rscale>  0 0.49044649E+03</rscale>
<asrwt>0</asrwt>
<pdfrwt beam="1">  1        2 0.12273339E-01 0.49044649E+03</pdfrwt>
<pdfrwt beam="2">  1       -2 0.99991814E-01 0.49044649E+03</pdfrwt>
<totfact> 0.42847081E+02</totfact>
</mgrwt>
</event>
<event>
 4    1  0.1351183E-004  0.3304712E+03  0.7818608E-02  0.1070929E+00
          2   -1    0    0  501    0  0.00000000000E+00  0.00000000000E+00  0.19541502248E+04  0.19541502248E+04  0.25500000000E-02 0.  1.
         -2   -1    0    0    0  501 -0.00000000000E+00 -0.00000000000E+00 -0.13971705452E+02  0.13971705685E+02  0.25500000000E-02 0. -1.
    5000001    1    1    2    0    0  0.98299211718E+02 -0.12338656807E+02  0.11896231322E+04  0.12004778940E+04  0.12700000000E+03 0.  0.
   -5000001    1    1    2    0    0 -0.98299211718E+02  0.12338656807E+02  0.75055538719E+03  0.76764403646E+03  0.12700000000E+03 0.  0.
<mgrwt>
<rscale>  0 0.33047125E+03</rscale>
<asrwt>0</asrwt>
<pdfrwt beam="1">  1        2 0.27916409E+00 0.33047125E+03</pdfrwt>
<pdfrwt beam="2">  1       -2 0.19959596E-02 0.33047125E+03</pdfrwt>
<totfact> 0.72248548E+03</totfact>
</mgrwt>
</event>
<event>
 4    1  0.1351183E-004  0.3887037E+03  0.7818608E-02  0.1047763E+00
         -2   -1    0    0    0  501 -0.00000000000E+00  0.00000000000E+00  0.25989091295E+02  0.25989091420E+02  0.25500000000E-02 0. -1.
          2   -1    0    0  501    0  0.00000000000E+00 -0.00000000000E+00 -0.14534036767E+04  0.14534036767E+04  0.25500000000E-02 0.  1.
    5000001    1    1    2    0    0 -0.38261661345E+02  0.10706214562E+03 -0.10690585764E+04  0.10825624682E+04  0.12700000000E+03 0.  0.
   -5000001    1    1    2    0    0  0.38261661345E+02 -0.10706214562E+03 -0.35835600898E+03  0.39683029991E+03  0.12700000000E+03 0.  0.
<mgrwt>
<rscale>  0 0.38870370E+03</rscale>
<asrwt>0</asrwt>
<pdfrwt beam="1">  1        2 0.20762905E+00 0.38870370E+03</pdfrwt>
<pdfrwt beam="2">  1       -2 0.37127283E-02 0.38870370E+03</pdfrwt>
<totfact> 0.50876412E+03</totfact>
</mgrwt>
</event>
<event>
 4    1  0.1351183E-004  0.4198384E+03  0.7818608E-02  0.1037119E+00
          2   -1    0    0  501    0  0.00000000000E+00  0.00000000000E+00  0.11385972376E+04  0.11385972376E+04  0.25500000000E-02 0.  1.
         -2   -1    0    0    0  501 -0.00000000000E+00 -0.00000000000E+00 -0.38702079316E+02  0.38702079400E+02  0.25500000000E-02 0. -1.
    5000001    1    1    2    0    0  0.13231890099E+03 -0.96287205169E+02  0.64535387660E+03  0.67778325701E+03  0.12700000000E+03 0.  0.
   -5000001    1    1    2    0    0 -0.13231890099E+03  0.96287205169E+02  0.45454128170E+03  0.49951606001E+03  0.12700000000E+03 0.  0.
<mgrwt>
<rscale>  0 0.41983845E+03</rscale>
<asrwt>0</asrwt>
<pdfrwt beam="1">  1        2 0.16265676E+00 0.41983845E+03</pdfrwt>
<pdfrwt beam="2">  1       -2 0.55288680E-02 0.41983845E+03</pdfrwt>
<totfact> 0.40878068E+03</totfact>
</mgrwt>
</event>
<event>
 4    1  0.1351183E-004  0.3879269E+03  0.7818608E-02  0.1048042E+00
          2   -1    0    0  501    0  0.00000000000E+00  0.00000000000E+00  0.40403825409E+02  0.40403825489E+02  0.25500000000E-02 0.  1.
         -2   -1    0    0    0  501 -0.00000000000E+00 -0.00000000000E+00 -0.93114522403E+03  0.93114522403E+03  0.25500000000E-02 0. -1.
    5000001    1    1    2    0    0  0.18529883058E+02  0.14131484244E+03 -0.35935456389E+03  0.40691269807E+03  0.12700000000E+03 0.  0.
   -5000001    1    1    2    0    0 -0.18529883058E+02 -0.14131484244E+03 -0.53138683473E+03  0.56463635146E+03  0.12700000000E+03 0.  0.
<mgrwt>
<rscale>  0 0.38792695E+03</rscale>
<asrwt>0</asrwt>
<pdfrwt beam="1">  1        2 0.57719756E-02 0.38792695E+03</pdfrwt>
<pdfrwt beam="2">  1       -2 0.13302073E+00 0.38792695E+03</pdfrwt>
<totfact> 0.56317889E+02</totfact>
</mgrwt>
</event>
<event>
 4    1  0.1351183E-004  0.5424118E+03  0.7818608E-02  0.1003266E+00
          2   -1    0    0  501    0  0.00000000000E+00  0.00000000000E+00  0.48542235608E+03  0.48542235608E+03  0.25500000000E-02 0.  1.
         -2   -1    0    0    0  501 -0.00000000000E+00 -0.00000000000E+00 -0.15152299438E+03  0.15152299441E+03  0.25500000000E-02 0. -1.
    5000001    1    1    2    0    0 -0.12521395405E+03 -0.60837037256E+02 -0.62092742339E+02  0.19840410289E+03  0.12700000000E+03 0.  0.
   -5000001    1    1    2    0    0  0.12521395405E+03  0.60837037256E+02  0.39599210403E+03  0.43854124760E+03  0.12700000000E+03 0.  0.
<mgrwt>
<rscale>  0 0.54241183E+03</rscale>
<asrwt>0</asrwt>
<pdfrwt beam="1">  1        2 0.69346051E-01 0.54241183E+03</pdfrwt>
<pdfrwt beam="2">  1       -2 0.21646142E-01 0.54241183E+03</pdfrwt>
<totfact> 0.12884232E+03</totfact>
</mgrwt>
</event>
<event>
 4    1  0.1351183E-004  0.4696557E+03  0.7818608E-02  0.1022017E+00
          2   -1    0    0  501    0  0.00000000000E+00  0.00000000000E+00  0.14244949278E+03  0.14244949281E+03  0.25500000000E-02 0.  1.
         -2   -1    0    0    0  501 -0.00000000000E+00 -0.00000000000E+00 -0.38711347120E+03  0.38711347120E+03  0.25500000000E-02 0. -1.
    5000001    1    1    2    0    0 -0.12925352985E+03  0.14795069702E+03 -0.14541892047E+03  0.27544790099E+03  0.12700000000E+03 0.  0.
   -5000001    1    1    2    0    0  0.12925352985E+03 -0.14795069702E+03 -0.99245057942E+02  0.25411506302E+03  0.12700000000E+03 0.  0.
<mgrwt>
<rscale>  0 0.46965569E+03</rscale>
<asrwt>0</asrwt>
<pdfrwt beam="1">  1        2 0.20349928E-01 0.46965569E+03</pdfrwt>
<pdfrwt beam="2">  1       -2 0.55301924E-01 0.46965569E+03</pdfrwt>
<totfact> 0.85866197E+02</totfact>
</mgrwt>
</event>
<event>
 4    1  0.1351183E-004  0.3699740E+03  0.7818608E-02  0.1054703E+00
          2   -1    0    0  501    0  0.00000000000E+00  0.00000000000E+00  0.10929900491E+03  0.10929900494E+03  0.25500000000E-02 0.  1.
         -2   -1    0    0    0  501 -0.00000000000E+00 -0.00000000000E+00 -0.31308782609E+03  0.31308782610E+03  0.25500000000E-02 0. -1.
    5000001    1    1    2    0    0  0.77470978426E+01 -0.13427420378E+03 -0.10044646318E+03  0.21049482486E+03  0.12700000000E+03 0.  0.
   -5000001    1    1    2    0    0 -0.77470978426E+01  0.13427420378E+03 -0.10334235800E+03  0.21189200618E+03  0.12700000000E+03 0.  0.
<mgrwt>
<rscale>  0 0.36997399E+03</rscale>
<asrwt>0</asrwt>
<pdfrwt beam="1">  1        2 0.15614144E-01 0.36997399E+03</pdfrwt>
<pdfrwt beam="2">  1       -2 0.44726832E-01 0.36997399E+03</pdfrwt>
<totfact> 0.17925796E+03</totfact>
</mgrwt>
</event>
<event>
 4    1  0.1351183E-004  0.4639743E+03  0.7818608E-02  0.1023635E+00
         -2   -1    0    0    0  501 -0.00000000000E+00  0.00000000000E+00  0.18083313988E+03  0.18083313990E+03  0.25500000000E-02 0. -1.
          2   -1    0    0  501    0  0.00000000000E+00 -0.00000000000E+00 -0.29761157733E+03  0.29761157734E+03  0.25500000000E-02 0.  1.
    5000001    1    1    2    0    0 -0.15360394539E+03 -0.11725689494E+03 -0.77561678290E+02  0.24390195856E+03  0.12700000000E+03 0.  0.
   -5000001    1    1    2    0    0  0.15360394539E+03  0.11725689494E+03 -0.39216759161E+02  0.23454275868E+03  0.12700000000E+03 0.  0.
<mgrwt>
<rscale>  0 0.46397429E+03</rscale>
<asrwt>0</asrwt>
<pdfrwt beam="1">  1        2 0.42515940E-01 0.46397429E+03</pdfrwt>
<pdfrwt beam="2">  1       -2 0.25833306E-01 0.46397429E+03</pdfrwt>
<totfact> 0.16161494E+03</totfact>
</mgrwt>
</event>
<event>
 4    1  0.1351183E-004  0.6132040E+03  0.7818608E-02  0.9878384E-01
         -2   -1    0    0    0  501 -0.00000000000E+00  0.00000000000E+00  0.21968784335E+03  0.21968784337E+03  0.25500000000E-02 0. -1.
          2   -1    0    0  501    0  0.00000000000E+00 -0.00000000000E+00 -0.42790166214E+03  0.42790166214E+03  0.25500000000E-02 0.  1.
    5000001    1    1    2    0    0 -0.25865238380E+03  0.96495671399E+02 -0.61036091929E+02  0.30994656759E+03  0.12700000000E+03 0.  0.
   -5000001    1    1    2    0    0  0.25865238380E+03 -0.96495671399E+02 -0.14717772686E+03  0.33764293792E+03  0.12700000000E+03 0.  0.
<mgrwt>
<rscale>  0 0.61320402E+03</rscale>
<asrwt>0</asrwt>
<pdfrwt beam="1">  1        2 0.61128809E-01 0.61320402E+03</pdfrwt>
<pdfrwt beam="2">  1       -2 0.31383978E-01 0.61320402E+03</pdfrwt>
<totfact> 0.75835615E+02</totfact>
</mgrwt>
</event>
<event>
 4    1  0.1351183E-004  0.4847519E+03  0.7818608E-02  0.1017837E+00
         -2   -1    0    0    0  501 -0.00000000000E+00  0.00000000000E+00  0.46215756564E+02  0.46215756635E+02  0.25500000000E-02 0. -1.
          2   -1    0    0  501    0  0.00000000000E+00 -0.00000000000E+00 -0.12711272826E+04  0.12711272826E+04  0.25500000000E-02 0.  1.
    5000001    1    1    2    0    0  0.15266958780E+03  0.35408861176E+02 -0.97761467964E+03  0.99820902237E+03  0.12700000000E+03 0.  0.
   -5000001    1    1    2    0    0 -0.15266958780E+03 -0.35408861176E+02 -0.24729684642E+03  0.31913401689E+03  0.12700000000E+03 0.  0.
<mgrwt>
<rscale>  0 0.48475193E+03</rscale>
<asrwt>0</asrwt>
<pdfrwt beam="1">  1        2 0.18158959E+00 0.48475193E+03</pdfrwt>
<pdfrwt beam="2">  1       -2 0.66022517E-02 0.48475193E+03</pdfrwt>
<totfact> 0.26201673E+03</totfact>
</mgrwt>
</event>
<event>
 4    1  0.1351183E-004  0.5551258E+03  0.7818608E-02  0.1000314E+00
          2   -1    0    0  501    0  0.00000000000E+00  0.00000000000E+00  0.55645717573E+03  0.55645717574E+03  0.25500000000E-02 0.  1.
         -2   -1    0    0    0  501 -0.00000000000E+00 -0.00000000000E+00 -0.13844941706E+03  0.13844941708E+03  0.25500000000E-02 0. -1.
    5000001    1    1    2    0    0 -0.20665449889E+03 -0.13337488650E+03  0.18343436840E+03  0.33207244657E+03  0.12700000000E+03 0.  0.
   -5000001    1    1    2    0    0  0.20665449889E+03  0.13337488650E+03  0.23457339027E+03  0.36283414625E+03  0.12700000000E+03 0.  0.
<mgrwt>
<rscale>  0 0.55512583E+03</rscale>
<asrwt>0</asrwt>
<pdfrwt beam="1">  1        2 0.79493881E-01 0.55512583E+03</pdfrwt>
<pdfrwt beam="2">  1       -2 0.19778489E-01 0.55512583E+03</pdfrwt>
<totfact> 0.12904258E+03</totfact>
</mgrwt>
</event>
<event>
 4    1  0.1351183E-004  0.2785179E+03  0.7818608E-02  0.1096501E+00
         -2   -1    0    0    0  501 -0.00000000000E+00  0.00000000000E+00  0.87159119332E+01  0.87159123063E+01  0.25500000000E-02 0. -1.
          2   -1    0    0  501    0  0.00000000000E+00 -0.00000000000E+00 -0.22250175941E+04  0.22250175941E+04  0.25500000000E-02 0.  1.
    5000001    1    1    2    0    0  0.13462002928E+00 -0.34390398822E+02 -0.14740401750E+04  0.14799007248E+04  0.12700000000E+03 0.  0.
   -5000001    1    1    2    0    0 -0.13462002928E+00  0.34390398822E+02 -0.74226150716E+03  0.75383278163E+03  0.12700000000E+03 0.  0.
<mgrwt>
<rscale>  0 0.27851792E+03</rscale>
<asrwt>0</asrwt>
<pdfrwt beam="1">  1        2 0.31785929E+00 0.27851792E+03</pdfrwt>
<pdfrwt beam="2">  1       -2 0.12451317E-02 0.27851792E+03</pdfrwt>
<totfact> 0.10624718E+04</totfact>
</mgrwt>
</event>
<event>
 4    1  0.1351183E-004  0.4548706E+03  0.7818608E-02  0.1026279E+00
         -2   -1    0    0    0  501 -0.00000000000E+00  0.00000000000E+00  0.20168420156E+02  0.20168420317E+02  0.25500000000E-02 0. -1.
          2   -1    0    0  501    0  0.00000000000E+00 -0.00000000000E+00 -0.25647431842E+04  0.25647431842E+04  0.25500000000E-02 0.  1.
    5000001    1    1    2    0    0  0.36287731370E+02 -0.18187530650E+03 -0.10752353960E+04  0.10984787587E+04  0.12700000000E+03 0.  0.
   -5000001    1    1    2    0    0 -0.36287731370E+02  0.18187530650E+03 -0.14693393680E+04  0.14864328458E+04  0.12700000000E+03 0.  0.
<mgrwt>
<rscale>  0 0.45487061E+03</rscale>
<asrwt>0</asrwt>
<pdfrwt beam="1">  1        2 0.36639167E+00 0.45487061E+03</pdfrwt>
<pdfrwt beam="2">  1       -2 0.28812045E-02 0.45487061E+03</pdfrwt>
<totfact> 0.20641098E+03</totfact>
</mgrwt>
</event>
<event>
 4    1  0.1351183E-004  0.3576823E+03  0.7818608E-02  0.1059505E+00
          2   -1    0    0  501    0  0.00000000000E+00  0.00000000000E+00  0.27241900705E+03  0.27241900706E+03  0.25500000000E-02 0.  1.
         -2   -1    0    0    0  501 -0.00000000000E+00 -0.00000000000E+00 -0.11740797727E+03  0.11740797730E+03  0.25500000000E-02 0. -1.
    5000001    1    1    2    0    0  0.30537615653E+02 -0.12193816868E+03  0.85492230044E+02  0.19808933426E+03  0.12700000000E+03 0.  0.
   -5000001    1    1    2    0    0 -0.30537615653E+02  0.12193816868E+03  0.69518799735E+02  0.19173765010E+03  0.12700000000E+03 0.  0.
<mgrwt>
<rscale>  0 0.35768234E+03</rscale>
<asrwt>0</asrwt>
<pdfrwt beam="1">  1        2 0.38917001E-01 0.35768234E+03</pdfrwt>
<pdfrwt beam="2">  1       -2 0.16772568E-01 0.35768234E+03</pdfrwt>
<totfact> 0.37539489E+03</totfact>
</mgrwt>
</event>
<event>
 4    1  0.1351183E-004  0.6299573E+03  0.7818608E-02  0.9845132E-01
          2   -1    0    0  501    0  0.00000000000E+00  0.00000000000E+00  0.16587648309E+04  0.16587648309E+04  0.25500000000E-02 0. -1.
         -2   -1    0    0    0  501 -0.00000000000E+00 -0.00000000000E+00 -0.59810502334E+02  0.59810502388E+02  0.25500000000E-02 0.  1.
    5000001    1    1    2    0    0 -0.13180391409E+03 -0.19742684809E+03  0.35343009551E+03  0.44428759214E+03  0.12700000000E+03 0.  0.
   -5000001    1    1    2    0    0  0.13180391409E+03  0.19742684809E+03  0.12455242330E+04  0.12742877411E+04  0.12700000000E+03 0.  0.
<mgrwt>
<rscale>  0 0.62995733E+03</rscale>
<asrwt>0</asrwt>
<pdfrwt beam="1">  1        2 0.23696643E+00 0.62995733E+03</pdfrwt>
<pdfrwt beam="2">  1       -2 0.85443566E-02 0.62995733E+03</pdfrwt>
<totfact> 0.10858840E+03</totfact>
</mgrwt>
</event>
<event>
 4    1  0.1351183E-004  0.1318484E+04  0.7818608E-02  0.9015034E-01
          2   -1    0    0  501    0  0.00000000000E+00  0.00000000000E+00  0.91500283019E+03  0.91500283020E+03  0.25500000000E-02 0.  1.
         -2   -1    0    0    0  501 -0.00000000000E+00 -0.00000000000E+00 -0.47497120727E+03  0.47497120728E+03  0.25500000000E-02 0. -1.
    5000001    1    1    2    0    0  0.20123469725E+03 -0.61307593073E+03  0.26848132580E+03  0.71033000958E+03  0.12700000000E+03 0.  0.
   -5000001    1    1    2    0    0 -0.20123469725E+03  0.61307593073E+03  0.17155029712E+03  0.67964402790E+03  0.12700000000E+03 0.  0.
<mgrwt>
<rscale>  0 0.13184840E+04</rscale>
<asrwt>0</asrwt>
<pdfrwt beam="1">  1        2 0.13071469E+00 0.13184840E+04</pdfrwt>
<pdfrwt beam="2">  1       -2 0.67853029E-01 0.13184840E+04</pdfrwt>
<totfact> 0.62002286E+01</totfact>
</mgrwt>
</event>
<event>
 4    1  0.1351183E-004  0.4970989E+03  0.7818608E-02  0.1014539E+00
         -2   -1    0    0    0  501 -0.00000000000E+00  0.00000000000E+00  0.78217854988E+02  0.78217855029E+02  0.25500000000E-02 0. -1.
          2   -1    0    0  501    0  0.00000000000E+00 -0.00000000000E+00 -0.78980472448E+03  0.78980472449E+03  0.25500000000E-02 0.  1.
    5000001    1    1    2    0    0 -0.16344925776E+03 -0.84432755620E+02 -0.54550315853E+03  0.58953137834E+03  0.12700000000E+03 0.  0.
   -5000001    1    1    2    0    0  0.16344925776E+03  0.84432755620E+02 -0.16608371097E+03  0.27849120118E+03  0.12700000000E+03 0.  0.
<mgrwt>
<rscale>  0 0.49709891E+03</rscale>
<asrwt>0</asrwt>
<pdfrwt beam="1">  1        2 0.11282924E+00 0.49709891E+03</pdfrwt>
<pdfrwt beam="2">  1       -2 0.11173980E-01 0.49709891E+03</pdfrwt>
<totfact> 0.22083576E+03</totfact>
</mgrwt>
</event>
<event>
 4    1  0.1351183E-004  0.3557219E+03  0.7818608E-02  0.1060291E+00
         -2   -1    0    0    0  501 -0.00000000000E+00  0.00000000000E+00  0.10223267678E+02  0.10223267996E+02  0.25500000000E-02 0. -1.
          2   -1    0    0  501    0  0.00000000000E+00 -0.00000000000E+00 -0.30943637921E+04  0.30943637921E+04  0.25500000000E-02 0.  1.
    5000001    1    1    2    0    0 -0.71752850651E+02 -0.37544527502E+02 -0.23676192569E+04  0.23724055321E+04  0.12700000000E+03 0.  0.
   -5000001    1    1    2    0    0  0.71752850651E+02  0.37544527502E+02 -0.71652126758E+03  0.73218152805E+03  0.12700000000E+03 0.  0.
<mgrwt>
<rscale>  0 0.35572186E+03</rscale>
<asrwt>0</asrwt>
<pdfrwt beam="1">  1        2 0.44205137E+00 0.35572186E+03</pdfrwt>
<pdfrwt beam="2">  1       -2 0.14604688E-02 0.35572186E+03</pdfrwt>
<totfact> 0.30127998E+03</totfact>
</mgrwt>
</event>
<event>
 4    1  0.1351183E-004  0.5790845E+03  0.7818608E-02  0.9949775E-01
         -2   -1    0    0    0  501 -0.00000000000E+00  0.00000000000E+00  0.63308223194E+03  0.63308223195E+03  0.25500000000E-02 0. -1.
          2   -1    0    0  501    0  0.00000000000E+00 -0.00000000000E+00 -0.13242311183E+03  0.13242311186E+03  0.25500000000E-02 0.  1.
    5000001    1    1    2    0    0  0.23136365889E+03 -0.25234300187E+02  0.96509666898E+02  0.28215071924E+03  0.12700000000E+03 0.  0.
   -5000001    1    1    2    0    0 -0.23136365889E+03  0.25234300187E+02  0.40414945321E+03  0.48335462457E+03  0.12700000000E+03 0.  0.
<mgrwt>
<rscale>  0 0.57908452E+03</rscale>
<asrwt>0</asrwt>
<pdfrwt beam="1">  1        2 0.18917587E-01 0.57908452E+03</pdfrwt>
<pdfrwt beam="2">  1       -2 0.90440319E-01 0.57908452E+03</pdfrwt>
<totfact> 0.32055723E+02</totfact>
</mgrwt>
</event>
<event>
 4    1  0.1351183E-004  0.4007338E+03  0.7818608E-02  0.1043526E+00
         -2   -1    0    0    0  501 -0.00000000000E+00  0.00000000000E+00  0.35716704617E+02  0.35716704708E+02  0.25500000000E-02 0.  1.
          2   -1    0    0  501    0  0.00000000000E+00 -0.00000000000E+00 -0.11240367234E+04  0.11240367234E+04  0.25500000000E-02 0. -1.
    5000001    1    1    2    0    0  0.11770109187E+03 -0.37580933193E+02 -0.27341295994E+03  0.32580595487E+03  0.12700000000E+03 0.  0.
   -5000001    1    1    2    0    0 -0.11770109187E+03  0.37580933193E+02 -0.81490705881E+03  0.83394747320E+03  0.12700000000E+03 0.  0.
<mgrwt>
<rscale>  0 0.40073377E+03</rscale>
<asrwt>0</asrwt>
<pdfrwt beam="1">  1        2 0.16057665E+00 0.40073377E+03</pdfrwt>
<pdfrwt beam="2">  1       -2 0.51023871E-02 0.40073377E+03</pdfrwt>
<totfact> 0.47128346E+03</totfact>
</mgrwt>
</event>
<event>
 4    1  0.1351183E-004  0.4889304E+03  0.7818608E-02  0.1016709E+00
          2   -1    0    0  501    0  0.00000000000E+00  0.00000000000E+00  0.33869241928E+03  0.33869241929E+03  0.25500000000E-02 0.  1.
         -2   -1    0    0    0  501 -0.00000000000E+00 -0.00000000000E+00 -0.17645285180E+03  0.17645285182E+03  0.25500000000E-02 0. -1.
    5000001    1    1    2    0    0 -0.12517761980E+03 -0.16274947412E+03  0.40621747884E+02  0.24481820648E+03  0.12700000000E+03 0.  0.
   -5000001    1    1    2    0    0  0.12517761980E+03  0.16274947412E+03  0.12161781960E+03  0.27032706462E+03  0.12700000000E+03 0.  0.
<mgrwt>
<rscale>  0 0.48893044E+03</rscale>
<asrwt>0</asrwt>
<pdfrwt beam="1">  1        2 0.48384631E-01 0.48893044E+03</pdfrwt>
<pdfrwt beam="2">  1       -2 0.25207550E-01 0.48893044E+03</pdfrwt>
<totfact> 0.14661048E+03</totfact>
</mgrwt>
</event>
<event>
 4    1  0.1351183E-004  0.3377339E+03  0.7818608E-02  0.1067765E+00
          2   -1    0    0  501    0  0.00000000000E+00  0.00000000000E+00  0.58960431745E+02  0.58960431800E+02  0.25500000000E-02 0.  1.
         -2   -1    0    0    0  501 -0.00000000000E+00 -0.00000000000E+00 -0.48364709602E+03  0.48364709603E+03  0.25500000000E-02 0. -1.
    5000001    1    1    2    0    0 -0.25052803031E+02  0.57894715101E+02 -0.35965842240E+03  0.38660395986E+03  0.12700000000E+03 0.  0.
   -5000001    1    1    2    0    0  0.25052803031E+02 -0.57894715101E+02 -0.65028241871E+02  0.15600356796E+03  0.12700000000E+03 0.  0.
<mgrwt>
<rscale>  0 0.33773387E+03</rscale>
<asrwt>0</asrwt>
<pdfrwt beam="1">  1        2 0.84229191E-02 0.33773387E+03</pdfrwt>
<pdfrwt beam="2">  1       -2 0.69092440E-01 0.33773387E+03</pdfrwt>
<totfact> 0.15699276E+03</totfact>
</mgrwt>
</event>
<event>
 4    1  0.1351183E-004  0.3045699E+03  0.7818608E-02  0.1082978E+00
         -2   -1    0    0    0  501 -0.00000000000E+00  0.00000000000E+00  0.13760465175E+02  0.13760465412E+02  0.25500000000E-02 0. -1.
          2   -1    0    0  501    0  0.00000000000E+00 -0.00000000000E+00 -0.16853136452E+04  0.16853136452E+04  0.25500000000E-02 0.  1.
    5000001    1    1    2    0    0 -0.40344226487E+02 -0.73493041863E+02 -0.80381937172E+03  0.81809746740E+03  0.12700000000E+03 0.  0.
   -5000001    1    1    2    0    0  0.40344226487E+02  0.73493041863E+02 -0.86773380829E+03  0.88097664320E+03  0.12700000000E+03 0.  0.
<mgrwt>
<rscale>  0 0.30456986E+03</rscale>
<asrwt>0</asrwt>
<pdfrwt beam="1">  1        2 0.24075896E+00 0.30456986E+03</pdfrwt>
<pdfrwt beam="2">  1       -2 0.19657818E-02 0.30456986E+03</pdfrwt>
<totfact> 0.10014310E+04</totfact>
</mgrwt>
</event>
<event>
 4    1  0.1351183E-004  0.2954200E+03  0.7818608E-02  0.1087553E+00
         -2   -1    0    0    0  501 -0.00000000000E+00  0.00000000000E+00  0.26600829626E+02  0.26600829749E+02  0.25500000000E-02 0. -1.
          2   -1    0    0  501    0  0.00000000000E+00 -0.00000000000E+00 -0.82020925337E+03  0.82020925337E+03  0.25500000000E-02 0.  1.
    5000001    1    1    2    0    0 -0.26919230537E+02 -0.70045222897E+02 -0.41868499116E+03  0.44391113981E+03  0.12700000000E+03 0.  0.
   -5000001    1    1    2    0    0  0.26919230537E+02  0.70045222897E+02 -0.37492343258E+03  0.40289894331E+03  0.12700000000E+03 0.  0.
<mgrwt>
<rscale>  0 0.29542002E+03</rscale>
<asrwt>0</asrwt>
<pdfrwt beam="1">  1        2 0.11717274E+00 0.29542002E+03</pdfrwt>
<pdfrwt beam="2">  1       -2 0.38001190E-02 0.29542002E+03</pdfrwt>
<totfact> 0.11212628E+04</totfact>
</mgrwt>
</event>
<event>
 4    1  0.1351183E-004  0.4611373E+03  0.7818608E-02  0.1024452E+00
          2   -1    0    0  501    0  0.00000000000E+00  0.00000000000E+00  0.27363178135E+03  0.27363178137E+03  0.25500000000E-02 0.  1.
         -2   -1    0    0    0  501 -0.00000000000E+00 -0.00000000000E+00 -0.19428262453E+03  0.19428262455E+03  0.25500000000E-02 0. -1.
    5000001    1    1    2    0    0 -0.19516928673E+02  0.19130419212E+03  0.32170198458E+02  0.23268460649E+03  0.12700000000E+03 0.  0.
   -5000001    1    1    2    0    0  0.19516928673E+02 -0.19130419212E+03  0.47178958365E+02  0.23522979943E+03  0.12700000000E+03 0.  0.
<mgrwt>
<rscale>  0 0.46113729E+03</rscale>
<asrwt>0</asrwt>
<pdfrwt beam="1">  1        2 0.39090255E-01 0.46113729E+03</pdfrwt>
<pdfrwt beam="2">  1       -2 0.27754660E-01 0.46113729E+03</pdfrwt>
<totfact> 0.15568465E+03</totfact>
</mgrwt>
</event>
<event>
 4    1  0.1351183E-004  0.4422390E+03  0.7818608E-02  0.1030062E+00
          2   -1    0    0  501    0  0.00000000000E+00  0.00000000000E+00  0.51852083636E+02  0.51852083698E+02  0.25500000000E-02 0.  1.
         -2   -1    0    0    0  501 -0.00000000000E+00 -0.00000000000E+00 -0.94294813638E+03  0.94294813638E+03  0.25500000000E-02 0. -1.
    5000001    1    1    2    0    0  0.14705845596E+03  0.92445270803E+02 -0.56008321312E+03  0.59999543597E+03  0.12700000000E+03 0.  0.
   -5000001    1    1    2    0    0 -0.14705845596E+03 -0.92445270803E+02 -0.33101283962E+03  0.39480478411E+03  0.12700000000E+03 0.  0.
<mgrwt>
<rscale>  0 0.44223897E+03</rscale>
<asrwt>0</asrwt>
<pdfrwt beam="1">  1        2 0.74074411E-02 0.44223897E+03</pdfrwt>
<pdfrwt beam="2">  1       -2 0.13470687E+00 0.44223897E+03</pdfrwt>
<totfact> 0.39351792E+02</totfact>
</mgrwt>
</event>
<event>
 4    1  0.1351183E-004  0.2876327E+03  0.7818608E-02  0.1091592E+00
         -2   -1    0    0    0  501 -0.00000000000E+00  0.00000000000E+00  0.42336398286E+02  0.42336398363E+02  0.25500000000E-02 0. -1.
          2   -1    0    0  501    0  0.00000000000E+00 -0.00000000000E+00 -0.48854275771E+03  0.48854275772E+03  0.25500000000E-02 0.  1.
    5000001    1    1    2    0    0  0.51665371732E+02 -0.62805855831E+01 -0.14381638581E+03  0.19879866503E+03  0.12700000000E+03 0.  0.
   -5000001    1    1    2    0    0 -0.51665371732E+02  0.62805855831E+01 -0.30238997361E+03  0.33208049105E+03  0.12700000000E+03 0.  0.
<mgrwt>
<rscale>  0 0.28763269E+03</rscale>
<asrwt>0</asrwt>
<pdfrwt beam="1">  1        2 0.69791819E-01 0.28763269E+03</pdfrwt>
<pdfrwt beam="2">  1       -2 0.60480572E-02 0.28763269E+03</pdfrwt>
<totfact> 0.10112715E+04</totfact>
</mgrwt>
</event>
<event>
 4    1  0.1351183E-004  0.3442800E+03  0.7818608E-02  0.1064988E+00
          2   -1    0    0  501    0  0.00000000000E+00  0.00000000000E+00  0.11331266007E+04  0.11331266007E+04  0.25500000000E-02 0.  1.
         -2   -1    0    0    0  501 -0.00000000000E+00 -0.00000000000E+00 -0.26150812192E+02  0.26150812316E+02  0.25500000000E-02 0. -1.
    5000001    1    1    2    0    0  0.55245492835E+02 -0.85193501985E+02  0.36321035589E+03  0.39794567454E+03  0.12700000000E+03 0.  0.
   -5000001    1    1    2    0    0 -0.55245492835E+02  0.85193501985E+02  0.74376543263E+03  0.76133173850E+03  0.12700000000E+03 0.  0.
<mgrwt>
<rscale>  0 0.34428001E+03</rscale>
<asrwt>0</asrwt>
<pdfrwt beam="1">  1        2 0.16187523E+00 0.34428001E+03</pdfrwt>
<pdfrwt beam="2">  1       -2 0.37358302E-02 0.34428001E+03</pdfrwt>
<totfact> 0.74706670E+03</totfact>
</mgrwt>
</event>
<event>
 4    1  0.1351183E-004  0.3977446E+03  0.7818608E-02  0.1044563E+00
         -2   -1    0    0    0  501 -0.00000000000E+00  0.00000000000E+00  0.13590079297E+03  0.13590079300E+03  0.25500000000E-02 0. -1.
          2   -1    0    0  501    0  0.00000000000E+00 -0.00000000000E+00 -0.29102252732E+03  0.29102252733E+03  0.25500000000E-02 0.  1.
    5000001    1    1    2    0    0 -0.10836369445E+03  0.55036653542E+02 -0.17738609268E+03  0.24973295614E+03  0.12700000000E+03 0.  0.
   -5000001    1    1    2    0    0  0.10836369445E+03 -0.55036653542E+02  0.22264358329E+02  0.17719036419E+03  0.12700000000E+03 0.  0.
<mgrwt>
<rscale>  0 0.39774460E+03</rscale>
<asrwt>0</asrwt>
<pdfrwt beam="1">  1        2 0.41574647E-01 0.39774460E+03</pdfrwt>
<pdfrwt beam="2">  1       -2 0.19414399E-01 0.39774460E+03</pdfrwt>
<totfact> 0.27296728E+03</totfact>
</mgrwt>
</event>
<event>
 4    1  0.1351183E-004  0.1918852E+04  0.7818608E-02  0.8645529E-01
          2   -1    0    0  501    0  0.00000000000E+00  0.00000000000E+00  0.30549883093E+04  0.30549883093E+04  0.25500000000E-02 0.  1.
         -2   -1    0    0    0  501 -0.00000000000E+00 -0.00000000000E+00 -0.30130988498E+03  0.30130988499E+03  0.25500000000E-02 0. -1.
    5000001    1    1    2    0    0 -0.45235361290E+03  0.58077546584E+03  0.24298680862E+04  0.25421077572E+04  0.12700000000E+03 0.  0.
   -5000001    1    1    2    0    0  0.45235361290E+03 -0.58077546584E+03  0.32381033815E+03  0.81419043713E+03  0.12700000000E+03 0.  0.
<mgrwt>
<rscale>  0 0.19188519E+04</rscale>
<asrwt>0</asrwt>
<pdfrwt beam="1">  1        2 0.43642691E+00 0.19188519E+04</pdfrwt>
<pdfrwt beam="2">  1       -2 0.43044268E-01 0.19188519E+04</pdfrwt>
<totfact> 0.10561485E+01</totfact>
</mgrwt>
</event>
<event>
 4    1  0.1351183E-004  0.3417659E+03  0.7818608E-02  0.1066046E+00
         -2   -1    0    0    0  501 -0.00000000000E+00  0.00000000000E+00  0.18157440106E+02  0.18157440285E+02  0.25500000000E-02 0. -1.
          2   -1    0    0  501    0  0.00000000000E+00 -0.00000000000E+00 -0.16082106753E+04  0.16082106753E+04  0.25500000000E-02 0.  1.
    5000001    1    1    2    0    0  0.22819477423E+02 -0.94798777279E+02 -0.10791365955E+04  0.10909501953E+04  0.12700000000E+03 0.  0.
   -5000001    1    1    2    0    0 -0.22819477423E+02  0.94798777279E+02 -0.51091663967E+03  0.53541792034E+03  0.12700000000E+03 0.  0.
<mgrwt>
<rscale>  0 0.34176594E+03</rscale>
<asrwt>0</asrwt>
<pdfrwt beam="1">  1        2 0.22974429E+00 0.34176594E+03</pdfrwt>
<pdfrwt beam="2">  1       -2 0.25939210E-02 0.34176594E+03</pdfrwt>
<totfact> 0.72650148E+03</totfact>
</mgrwt>
</event>
<event>
 4    1  0.1351183E-004  0.5131055E+03  0.7818608E-02  0.1010414E+00
         -2   -1    0    0    0  501 -0.00000000000E+00  0.00000000000E+00  0.23216351999E+03  0.23216352000E+03  0.25500000000E-02 0. -1.
          2   -1    0    0  501    0  0.00000000000E+00 -0.00000000000E+00 -0.28350415229E+03  0.28350415230E+03  0.25500000000E-02 0.  1.
    5000001    1    1    2    0    0  0.13446502485E+03 -0.10248336732E+03  0.12033636988E+03  0.24329719563E+03  0.12700000000E+03 0.  0.
   -5000001    1    1    2    0    0 -0.13446502485E+03  0.10248336732E+03 -0.17167700218E+03  0.27237047667E+03  0.12700000000E+03 0.  0.
<mgrwt>
<rscale>  0 0.51310553E+03</rscale>
<asrwt>0</asrwt>
<pdfrwt beam="1">  1        2 0.40500593E-01 0.51310553E+03</pdfrwt>
<pdfrwt beam="2">  1       -2 0.33166217E-01 0.51310553E+03</pdfrwt>
<totfact> 0.10788100E+03</totfact>
</mgrwt>
</event>
<event>
 4    1  0.1351183E-004  0.5271619E+03  0.7818608E-02  0.1006923E+00
          2   -1    0    0  501    0  0.00000000000E+00  0.00000000000E+00  0.67175663524E+03  0.67175663525E+03  0.25500000000E-02 0.  1.
         -2   -1    0    0    0  501 -0.00000000000E+00 -0.00000000000E+00 -0.10342273751E+03  0.10342273754E+03  0.25500000000E-02 0. -1.
    5000001    1    1    2    0    0 -0.18107138487E+03  0.52954610754E+02  0.88229702808E+02  0.24393547851E+03  0.12700000000E+03 0.  0.
   -5000001    1    1    2    0    0  0.18107138487E+03 -0.52954610754E+02  0.48010419493E+03  0.53124389428E+03  0.12700000000E+03 0.  0.
<mgrwt>
<rscale>  0 0.52716187E+03</rscale>
<asrwt>0</asrwt>
<pdfrwt beam="1">  1        2 0.95965232E-01 0.52716187E+03</pdfrwt>
<pdfrwt beam="2">  1       -2 0.14774677E-01 0.52716187E+03</pdfrwt>
<totfact> 0.16996631E+03</totfact>
</mgrwt>
</event>
<event>
 4    1  0.1351183E-004  0.4662851E+03  0.7818608E-02  0.1022974E+00
          2   -1    0    0  501    0  0.00000000000E+00  0.00000000000E+00  0.74677626055E+03  0.74677626056E+03  0.25500000000E-02 0.  1.
         -2   -1    0    0    0  501 -0.00000000000E+00 -0.00000000000E+00 -0.72786777164E+02  0.72786777209E+02  0.25500000000E-02 0. -1.
    5000001    1    1    2    0    0  0.78679973654E+02  0.44431373651E+02  0.32248740785E+02  0.15916553176E+03  0.12700000000E+03 0.  0.
   -5000001    1    1    2    0    0 -0.78679973654E+02 -0.44431373651E+02  0.64174074260E+03  0.66039750600E+03  0.12700000000E+03 0.  0.
<mgrwt>
<rscale>  0 0.46628505E+03</rscale>
<asrwt>0</asrwt>
<pdfrwt beam="1">  1        2 0.10668233E+00 0.46628505E+03</pdfrwt>
<pdfrwt beam="2">  1       -2 0.10398111E-01 0.46628505E+03</pdfrwt>
<totfact> 0.26610344E+03</totfact>
</mgrwt>
</event>
<event>
 4    1  0.1351183E-004  0.3338196E+03  0.7818608E-02  0.1069459E+00
         -2   -1    0    0    0  501 -0.00000000000E+00  0.00000000000E+00  0.13137681127E+02  0.13137681374E+02  0.25500000000E-02 0. -1.
          2   -1    0    0  501    0  0.00000000000E+00 -0.00000000000E+00 -0.21205324809E+04  0.21205324809E+04  0.25500000000E-02 0.  1.
    5000001    1    1    2    0    0 -0.28611058437E+02  0.33552862711E+02 -0.42142123717E+03  0.44234516659E+03  0.12700000000E+03 0.  0.
   -5000001    1    1    2    0    0  0.28611058437E+02 -0.33552862711E+02 -0.16859735626E+04  0.16913249957E+04  0.12700000000E+03 0.  0.
<mgrwt>
<rscale>  0 0.33381959E+03</rscale>
<asrwt>0</asrwt>
<pdfrwt beam="1">  1        2 0.30293299E+00 0.33381959E+03</pdfrwt>
<pdfrwt beam="2">  1       -2 0.18768130E-02 0.33381959E+03</pdfrwt>
<totfact> 0.65558383E+03</totfact>
</mgrwt>
</event>
<event>
 4    1  0.1351183E-004  0.2839365E+03  0.7818608E-02  0.1093558E+00
         -2   -1    0    0    0  501 -0.00000000000E+00  0.00000000000E+00  0.87613380224E+02  0.87613380262E+02  0.25500000000E-02 0. -1.
          2   -1    0    0  501    0  0.00000000000E+00 -0.00000000000E+00 -0.23004465173E+03  0.23004465175E+03  0.25500000000E-02 0.  1.
    5000001    1    1    2    0    0  0.61188490901E+02 -0.11478001765E+01 -0.52473724702E+02  0.15042553190E+03  0.12700000000E+03 0.  0.
   -5000001    1    1    2    0    0 -0.61188490901E+02  0.11478001765E+01 -0.89957546804E+02  0.16723250010E+03  0.12700000000E+03 0.  0.
<mgrwt>
<rscale>  0 0.28393654E+03</rscale>
<asrwt>0</asrwt>
<pdfrwt beam="1">  1        2 0.32863521E-01 0.28393654E+03</pdfrwt>
<pdfrwt beam="2">  1       -2 0.12516197E-01 0.28393654E+03</pdfrwt>
<totfact> 0.72702217E+03</totfact>
</mgrwt>
</event>
<event>
 4    1  0.1351183E-004  0.3098910E+03  0.7818608E-02  0.1080398E+00
          2   -1    0    0  501    0  0.00000000000E+00  0.00000000000E+00  0.28384563535E+02  0.28384563650E+02  0.25500000000E-02 0.  1.
         -2   -1    0    0    0  501 -0.00000000000E+00 -0.00000000000E+00 -0.84581586357E+03  0.84581586358E+03  0.25500000000E-02 0. -1.
    5000001    1    1    2    0    0 -0.55382697189E+02 -0.67826081500E+02 -0.44974084964E+03  0.47546130475E+03  0.12700000000E+03 0.  0.
   -5000001    1    1    2    0    0  0.55382697189E+02  0.67826081500E+02 -0.36769045040E+03  0.39873912248E+03  0.12700000000E+03 0.  0.
<mgrwt>
<rscale>  0 0.30989104E+03</rscale>
<asrwt>0</asrwt>
<pdfrwt beam="1">  1        2 0.40549382E-02 0.30989104E+03</pdfrwt>
<pdfrwt beam="2">  1       -2 0.12083082E+00 0.30989104E+03</pdfrwt>
<totfact> 0.11409861E+03</totfact>
</mgrwt>
</event>
<event>
 4    1  0.1351183E-004  0.2934995E+03  0.7818608E-02  0.1088536E+00
         -2   -1    0    0    0  501 -0.00000000000E+00  0.00000000000E+00  0.13207645526E+02  0.13207645772E+02  0.25500000000E-02 0. -1.
          2   -1    0    0  501    0  0.00000000000E+00 -0.00000000000E+00 -0.16305316790E+04  0.16305316790E+04  0.25500000000E-02 0.  1.
    5000001    1    1    2    0    0 -0.19815974809E+02 -0.59368964202E+02 -0.59254295216E+03  0.60922368382E+03  0.12700000000E+03 0.  0.
   -5000001    1    1    2    0    0  0.19815974809E+02  0.59368964202E+02 -0.10247810813E+04  0.10345156409E+04  0.12700000000E+03 0.  0.
<mgrwt>
<rscale>  0 0.29349947E+03</rscale>
<asrwt>0</asrwt>
<pdfrwt beam="1">  1        2 0.23293297E+00 0.29349947E+03</pdfrwt>
<pdfrwt beam="2">  1       -2 0.18868075E-02 0.29349947E+03</pdfrwt>
<totfact> 0.11317679E+04</totfact>
</mgrwt>
</event>
<event>
 4    1  0.1351183E-004  0.2862281E+03  0.7818608E-02  0.1092335E+00
         -2   -1    0    0    0  501 -0.00000000000E+00  0.00000000000E+00  0.81677129432E+01  0.81677133413E+01  0.25500000000E-02 0. -1.
          2   -1    0    0  501    0  0.00000000000E+00 -0.00000000000E+00 -0.25076335311E+04  0.25076335311E+04  0.25500000000E-02 0.  1.
    5000001    1    1    2    0    0  0.63226444018E+02 -0.18348592033E+02 -0.12874123886E+04  0.12953354439E+04  0.12700000000E+03 0.  0.
   -5000001    1    1    2    0    0 -0.63226444018E+02  0.18348592033E+02 -0.12120534296E+04  0.12204658005E+04  0.12700000000E+03 0.  0.
<mgrwt>
<rscale>  0 0.28622810E+03</rscale>
<asrwt>0</asrwt>
<pdfrwt beam="1">  1        2 0.35823287E+00 0.28622810E+03</pdfrwt>
<pdfrwt beam="2">  1       -2 0.11668178E-02 0.28622810E+03</pdfrwt>
<totfact> 0.84672119E+03</totfact>
</mgrwt>
</event>
<event>
 4    1  0.1351183E-004  0.3187920E+03  0.7818608E-02  0.1076207E+00
          2   -1    0    0  501    0  0.00000000000E+00  0.00000000000E+00  0.24261235651E+04  0.24261235651E+04  0.25500000000E-02 0.  1.
         -2   -1    0    0    0  501 -0.00000000000E+00 -0.00000000000E+00 -0.10472293509E+02  0.10472293820E+02  0.25500000000E-02 0. -1.
    5000001    1    1    2    0    0 -0.83432473513E+02 -0.22814514788E+00  0.83991382644E+03  0.85354863103E+03  0.12700000000E+03 0.  0.
   -5000001    1    1    2    0    0  0.83432473513E+02  0.22814514788E+00  0.15757374452E+04  0.15830472279E+04  0.12700000000E+03 0.  0.
<mgrwt>
<rscale>  0 0.31879196E+03</rscale>
<asrwt>0</asrwt>
<pdfrwt beam="1">  1        2 0.34658854E+00 0.31879196E+03</pdfrwt>
<pdfrwt beam="2">  1       -2 0.14960443E-02 0.31879196E+03</pdfrwt>
<totfact> 0.64647261E+03</totfact>
</mgrwt>
</event>
<event>
 4    1  0.1351183E-004  0.6184270E+03  0.7818608E-02  0.9867897E-01
          2   -1    0    0  501    0  0.00000000000E+00  0.00000000000E+00  0.59949846284E+03  0.59949846285E+03  0.25500000000E-02 0.  1.
         -2   -1    0    0    0  501 -0.00000000000E+00 -0.00000000000E+00 -0.15948830530E+03  0.15948830532E+03  0.25500000000E-02 0. -1.
    5000001    1    1    2    0    0 -0.23655315626E+03  0.14961267394E+03  0.17851907610E+03  0.35544255298E+03  0.12700000000E+03 0.  0.
   -5000001    1    1    2    0    0  0.23655315626E+03 -0.14961267394E+03  0.26149108145E+03  0.40354421519E+03  0.12700000000E+03 0.  0.
<mgrwt>
<rscale>  0 0.61842702E+03</rscale>
<asrwt>0</asrwt>
<pdfrwt beam="1">  1        2 0.85642638E-01 0.61842702E+03</pdfrwt>
<pdfrwt beam="2">  1       -2 0.22784043E-01 0.61842702E+03</pdfrwt>
<totfact> 0.92237924E+02</totfact>
</mgrwt>
</event>
<event>
 4    1  0.1351183E-004  0.5542319E+03  0.7818608E-02  0.1000519E+00
         -2   -1    0    0    0  501 -0.00000000000E+00  0.00000000000E+00  0.23201819217E+03  0.23201819219E+03  0.25500000000E-02 0. -1.
          2   -1    0    0  501    0  0.00000000000E+00 -0.00000000000E+00 -0.33097944464E+03  0.33097944465E+03  0.25500000000E-02 0.  1.
    5000001    1    1    2    0    0  0.10589148069E+03  0.19039854236E+03  0.67226162193E+02  0.26098461161E+03  0.12700000000E+03 0.  0.
   -5000001    1    1    2    0    0 -0.10589148069E+03 -0.19039854236E+03 -0.16618741466E+03  0.30201302523E+03  0.12700000000E+03 0.  0.
<mgrwt>
<rscale>  0 0.55423191E+03</rscale>
<asrwt>0</asrwt>
<pdfrwt beam="1">  1        2 0.47282778E-01 0.55423191E+03</pdfrwt>
<pdfrwt beam="2">  1       -2 0.33145456E-01 0.55423191E+03</pdfrwt>
<totfact> 0.91083014E+02</totfact>
</mgrwt>
</event>
<event>
 4    1  0.1351183E-004  0.3965789E+03  0.7818608E-02  0.1044971E+00
         -2   -1    0    0    0  501 -0.00000000000E+00  0.00000000000E+00  0.19158416863E+02  0.19158417033E+02  0.25500000000E-02 0. -1.
          2   -1    0    0  501    0  0.00000000000E+00 -0.00000000000E+00 -0.20522943662E+04  0.20522943662E+04  0.25500000000E-02 0.  1.
    5000001    1    1    2    0    0 -0.53379455120E+02 -0.14243031002E+03 -0.10549341134E+04  0.10733828502E+04  0.12700000000E+03 0.  0.
   -5000001    1    1    2    0    0  0.53379455120E+02  0.14243031002E+03 -0.97820183587E+03  0.99806993299E+03  0.12700000000E+03 0.  0.
<mgrwt>
<rscale>  0 0.39657893E+03</rscale>
<asrwt>0</asrwt>
<pdfrwt beam="1">  1        2 0.29318477E+00 0.39657893E+03</pdfrwt>
<pdfrwt beam="2">  1       -2 0.27369180E-02 0.39657893E+03</pdfrwt>
<totfact> 0.40381117E+03</totfact>
</mgrwt>
</event>
<event>
 4    1  0.1351183E-004  0.3090160E+03  0.7818608E-02  0.1080818E+00
          2   -1    0    0  501    0  0.00000000000E+00  0.00000000000E+00  0.30871141417E+04  0.30871141417E+04  0.25500000000E-02 0.  1.
         -2   -1    0    0    0  501 -0.00000000000E+00 -0.00000000000E+00 -0.77330218339E+01  0.77330222543E+01  0.25500000000E-02 0. -1.
    5000001    1    1    2    0    0 -0.19982919646E+02 -0.59666730295E+02  0.21557891500E+04  0.21604433098E+04  0.12700000000E+03 0.  0.
   -5000001    1    1    2    0    0  0.19982919646E+02  0.59666730295E+02  0.92359196989E+03  0.93440385414E+03  0.12700000000E+03 0.  0.
<mgrwt>
<rscale>  0 0.30901600E+03</rscale>
<asrwt>0</asrwt>
<pdfrwt beam="1">  1        2 0.44101700E+00 0.30901600E+03</pdfrwt>
<pdfrwt beam="2">  1       -2 0.11047157E-02 0.30901600E+03</pdfrwt>
<totfact> 0.45924843E+03</totfact>
</mgrwt>
</event>
<event>
 4    1  0.1351183E-004  0.4481618E+03  0.7818608E-02  0.1028272E+00
          2   -1    0    0  501    0  0.00000000000E+00  0.00000000000E+00  0.25338165015E+04  0.25338165015E+04  0.25500000000E-02 0.  1.
         -2   -1    0    0    0  501 -0.00000000000E+00 -0.00000000000E+00 -0.19816847184E+02  0.19816847348E+02  0.25500000000E-02 0. -1.
    5000001    1    1    2    0    0 -0.15708070420E+03  0.87564781368E+02  0.14947727988E+04  0.15108992881E+04  0.12700000000E+03 0.  0.
   -5000001    1    1    2    0    0  0.15708070420E+03 -0.87564781368E+02  0.10192268555E+04  0.10427340608E+04  0.12700000000E+03 0.  0.
<mgrwt>
<rscale>  0 0.44816182E+03</rscale>
<asrwt>0</asrwt>
<pdfrwt beam="1">  1        2 0.36197349E+00 0.44816182E+03</pdfrwt>
<pdfrwt beam="2">  1       -2 0.28309805E-02 0.44816182E+03</pdfrwt>
<totfact> 0.21989287E+03</totfact>
</mgrwt>
</event>
<event>
 4    1  0.1351183E-004  0.3271062E+03  0.7818608E-02  0.1072424E+00
          2   -1    0    0  501    0  0.00000000000E+00  0.00000000000E+00  0.22210021187E+03  0.22210021189E+03  0.25500000000E-02 0.  1.
         -2   -1    0    0    0  501 -0.00000000000E+00 -0.00000000000E+00 -0.12043943613E+03  0.12043943616E+03  0.25500000000E-02 0. -1.
    5000001    1    1    2    0    0  0.89865124595E+02  0.88002252125E+01  0.10284738566E+03  0.18670771093E+03  0.12700000000E+03 0.  0.
   -5000001    1    1    2    0    0 -0.89865124595E+02 -0.88002252125E+01 -0.11866099176E+01  0.15583193712E+03  0.12700000000E+03 0.  0.
<mgrwt>
<rscale>  0 0.32710625E+03</rscale>
<asrwt>0</asrwt>
<pdfrwt beam="1">  1        2 0.31728601E-01 0.32710625E+03</pdfrwt>
<pdfrwt beam="2">  1       -2 0.17205634E-01 0.32710625E+03</pdfrwt>
<totfact> 0.44860412E+03</totfact>
</mgrwt>
</event>
<event>
 4    1  0.1351183E-004  0.4700856E+03  0.7818608E-02  0.1021896E+00
         -2   -1    0    0    0  501 -0.00000000000E+00  0.00000000000E+00  0.60245524266E+02  0.60245524320E+02  0.25500000000E-02 0.  1.
          2   -1    0    0  501    0  0.00000000000E+00 -0.00000000000E+00 -0.91699965697E+03  0.91699965697E+03  0.25500000000E-02 0. -1.
    5000001    1    1    2    0    0 -0.18304568903E+03 -0.74886392834E+02 -0.42513709477E+03  0.48578209668E+03  0.12700000000E+03 0.  0.
   -5000001    1    1    2    0    0  0.18304568903E+03  0.74886392834E+02 -0.43161703794E+03  0.49146308462E+03  0.12700000000E+03 0.  0.
<mgrwt>
<rscale>  0 0.47008563E+03</rscale>
<asrwt>0</asrwt>
<pdfrwt beam="1">  1        2 0.13099994E+00 0.47008563E+03</pdfrwt>
<pdfrwt beam="2">  1       -2 0.86065040E-02 0.47008563E+03</pdfrwt>
<totfact> 0.27695464E+03</totfact>
</mgrwt>
</event>
<event>
 4    1  0.1351183E-004  0.3950387E+03  0.7818608E-02  0.1045511E+00
         -2   -1    0    0    0  501 -0.00000000000E+00  0.00000000000E+00  0.29258172741E+02  0.29258172852E+02  0.25500000000E-02 0. -1.
          2   -1    0    0  501    0  0.00000000000E+00 -0.00000000000E+00 -0.13334357394E+04  0.13334357394E+04  0.25500000000E-02 0.  1.
    5000001    1    1    2    0    0  0.85190200535E+02 -0.11194004735E+03 -0.84405538988E+03  0.86507019696E+03  0.12700000000E+03 0.  0.
   -5000001    1    1    2    0    0 -0.85190200535E+02  0.11194004735E+03 -0.46012217678E+03  0.49762371530E+03  0.12700000000E+03 0.  0.
<mgrwt>
<rscale>  0 0.39503870E+03</rscale>
<asrwt>0</asrwt>
<pdfrwt beam="1">  1        2 0.19049078E+00 0.39503870E+03</pdfrwt>
<pdfrwt beam="2">  1       -2 0.41797398E-02 0.39503870E+03</pdfrwt>
<totfact> 0.49111773E+03</totfact>
</mgrwt>
</event>
<event>
 4    1  0.1351183E-004  0.4276008E+03  0.7818608E-02  0.1034621E+00
          2   -1    0    0  501    0  0.00000000000E+00  0.00000000000E+00  0.36323894344E+04  0.36323894344E+04  0.25500000000E-02 0.  1.
         -2   -1    0    0    0  501 -0.00000000000E+00 -0.00000000000E+00 -0.12584168465E+02  0.12584168723E+02  0.25500000000E-02 0. -1.
    5000001    1    1    2    0    0 -0.10713662728E+03 -0.59528910018E+01  0.66409990500E+03  0.68459577682E+03  0.12700000000E+03 0.  0.
   -5000001    1    1    2    0    0  0.10713662728E+03  0.59528910018E+01  0.29557053609E+04  0.29603778263E+04  0.12700000000E+03 0.  0.
<mgrwt>
<rscale>  0 0.42760075E+03</rscale>
<asrwt>0</asrwt>
<pdfrwt beam="1">  1        2 0.51891297E+00 0.42760075E+03</pdfrwt>
<pdfrwt beam="2">  1       -2 0.17977377E-02 0.42760075E+03</pdfrwt>
<totfact> 0.10829317E+03</totfact>
</mgrwt>
</event>
<event>
 4    1  0.1351183E-004  0.3542249E+03  0.7818608E-02  0.1060894E+00
         -2   -1    0    0    0  501 -0.00000000000E+00  0.00000000000E+00  0.96037142999E+01  0.96037146384E+01  0.25500000000E-02 0. -1.
          2   -1    0    0  501    0  0.00000000000E+00 -0.00000000000E+00 -0.32663214756E+04  0.32663214756E+04  0.25500000000E-02 0.  1.
    5000001    1    1    2    0    0 -0.55871310474E+02  0.97613996049E+02 -0.11577267478E+04  0.11700898760E+04  0.12700000000E+03 0.  0.
   -5000001    1    1    2    0    0  0.55871310474E+02 -0.97613996049E+02 -0.20989910135E+04  0.21058353142E+04  0.12700000000E+03 0.  0.
<mgrwt>
<rscale>  0 0.35422489E+03</rscale>
<asrwt>0</asrwt>
<pdfrwt beam="1">  1        2 0.46661664E+00 0.35422489E+03</pdfrwt>
<pdfrwt beam="2">  1       -2 0.13719613E-02 0.35422489E+03</pdfrwt>
<totfact> 0.26565034E+03</totfact>
</mgrwt>
</event>
<event>
 4    1  0.1351183E-004  0.3398421E+03  0.7818608E-02  0.1066863E+00
         -2   -1    0    0    0  501 -0.00000000000E+00  0.00000000000E+00  0.15441536092E+02  0.15441536303E+02  0.25500000000E-02 0. -1.
          2   -1    0    0  501    0  0.00000000000E+00 -0.00000000000E+00 -0.18698374297E+04  0.18698374297E+04  0.25500000000E-02 0.  1.
    5000001    1    1    2    0    0 -0.11103233577E+02 -0.11041854281E+03 -0.10420497155E+04  0.10556098455E+04  0.12700000000E+03 0.  0.
   -5000001    1    1    2    0    0  0.11103233577E+02  0.11041854281E+03 -0.81234617808E+03  0.82966912045E+03  0.12700000000E+03 0.  0.
<mgrwt>
<rscale>  0 0.33984209E+03</rscale>
<asrwt>0</asrwt>
<pdfrwt beam="1">  1        2 0.26711949E+00 0.33984209E+03</pdfrwt>
<pdfrwt beam="2">  1       -2 0.22059349E-02 0.33984209E+03</pdfrwt>
<totfact> 0.68547780E+03</totfact>
</mgrwt>
</event>
<event>
 4    1  0.1351183E-004  0.1234645E+04  0.7818608E-02  0.9083061E-01
         -2   -1    0    0    0  501 -0.00000000000E+00  0.00000000000E+00  0.23781604101E+03  0.23781604103E+03  0.25500000000E-02 0. -1.
          2   -1    0    0  501    0  0.00000000000E+00 -0.00000000000E+00 -0.16024458575E+04  0.16024458575E+04  0.25500000000E-02 0.  1.
    5000001    1    1    2    0    0 -0.26146262626E+03  0.54095486629E+03 -0.77615198850E+03  0.98971500016E+03  0.12700000000E+03 0.  0.
   -5000001    1    1    2    0    0  0.26146262626E+03 -0.54095486629E+03 -0.58847782800E+03  0.85054689838E+03  0.12700000000E+03 0.  0.
<mgrwt>
<rscale>  0 0.12346454E+04</rscale>
<asrwt>0</asrwt>
<pdfrwt beam="1">  1        2 0.22892083E+00 0.12346454E+04</pdfrwt>
<pdfrwt beam="2">  1       -2 0.33973721E-01 0.12346454E+04</pdfrwt>
<totfact> 0.10294199E+02</totfact>
</mgrwt>
</event>
<event>
 4    1  0.1351183E-004  0.6351131E+03  0.7818608E-02  0.9835121E-01
         -2   -1    0    0    0  501 -0.00000000000E+00  0.00000000000E+00  0.16620921494E+04  0.16620921494E+04  0.25500000000E-02 0. -1.
          2   -1    0    0  501    0  0.00000000000E+00 -0.00000000000E+00 -0.60671822722E+02  0.60671822775E+02  0.25500000000E-02 0.  1.
    5000001    1    1    2    0    0 -0.26980490494E+03 -0.10423710995E+03  0.71268452066E+03  0.77955646864E+03  0.12700000000E+03 0.  0.
   -5000001    1    1    2    0    0  0.26980490494E+03  0.10423710995E+03  0.88873580603E+03  0.94320750355E+03  0.12700000000E+03 0.  0.
<mgrwt>
<rscale>  0 0.63511309E+03</rscale>
<asrwt>0</asrwt>
<pdfrwt beam="1">  1        2 0.86674019E-02 0.63511309E+03</pdfrwt>
<pdfrwt beam="2">  1       -2 0.23744177E+00 0.63511309E+03</pdfrwt>
<totfact> 0.63404335E+01</totfact>
</mgrwt>
</event>
<event>
 4    1  0.1351183E-004  0.3790495E+03  0.7818608E-02  0.1051286E+00
          2   -1    0    0  501    0  0.00000000000E+00  0.00000000000E+00  0.16197981313E+04  0.16197981313E+04  0.25500000000E-02 0.  1.
         -2   -1    0    0    0  501 -0.00000000000E+00 -0.00000000000E+00 -0.22175379762E+02  0.22175379908E+02  0.25500000000E-02 0. -1.
    5000001    1    1    2    0    0  0.95394580964E+02  0.37710250893E+02  0.12158475421E+04  0.12267585071E+04  0.12700000000E+03 0.  0.
   -5000001    1    1    2    0    0 -0.95394580964E+02 -0.37710250893E+02  0.38177520943E+03  0.41521500410E+03  0.12700000000E+03 0.  0.
<mgrwt>
<rscale>  0 0.37904954E+03</rscale>
<asrwt>0</asrwt>
<pdfrwt beam="1">  1        2 0.23139968E+00 0.37904954E+03</pdfrwt>
<pdfrwt beam="2">  1       -2 0.31679122E-02 0.37904954E+03</pdfrwt>
<totfact> 0.53176759E+03</totfact>
</mgrwt>
</event>
<event>
 4    1  0.1351183E-004  0.7641018E+03  0.7818608E-02  0.9613483E-01
          2   -1    0    0  501    0  0.00000000000E+00  0.00000000000E+00  0.15478393300E+04  0.15478393300E+04  0.25500000000E-02 0.  1.
         -2   -1    0    0    0  501 -0.00000000000E+00 -0.00000000000E+00 -0.94301060926E+02  0.94301060961E+02  0.25500000000E-02 0. -1.
    5000001    1    1    2    0    0 -0.27273207605E+03  0.23125073027E+03  0.82225854927E+03  0.90559251731E+03  0.12700000000E+03 0.  0.
   -5000001    1    1    2    0    0  0.27273207605E+03 -0.23125073027E+03  0.63127971983E+03  0.73654787368E+03  0.12700000000E+03 0.  0.
<mgrwt>
<rscale>  0 0.76410180E+03</rscale>
<asrwt>0</asrwt>
<pdfrwt beam="1">  1        2 0.22111990E+00 0.76410180E+03</pdfrwt>
<pdfrwt beam="2">  1       -2 0.13471580E-01 0.76410180E+03</pdfrwt>
<totfact> 0.58451264E+02</totfact>
</mgrwt>
</event>
<event>
 4    1  0.1351183E-004  0.3494363E+03  0.7818608E-02  0.1062847E+00
         -2   -1    0    0    0  501 -0.00000000000E+00  0.00000000000E+00  0.30569132138E+02  0.30569132244E+02  0.25500000000E-02 0. -1.
          2   -1    0    0  501    0  0.00000000000E+00 -0.00000000000E+00 -0.99860319705E+03  0.99860319706E+03  0.25500000000E-02 0.  1.
    5000001    1    1    2    0    0  0.77348727762E+02  0.87685986047E+02 -0.56336232539E+03  0.58921792870E+03  0.12700000000E+03 0.  0.
   -5000001    1    1    2    0    0 -0.77348727762E+02 -0.87685986047E+02 -0.40467173952E+03  0.43995440060E+03  0.12700000000E+03 0.  0.
<mgrwt>
<rscale>  0 0.34943631E+03</rscale>
<asrwt>0</asrwt>
<pdfrwt beam="1">  1        2 0.14265758E+00 0.34943631E+03</pdfrwt>
<pdfrwt beam="2">  1       -2 0.43670195E-02 0.34943631E+03</pdfrwt>
<totfact> 0.70557350E+03</totfact>
</mgrwt>
</event>
<event>
 4    1  0.1351183E-004  0.5140791E+03  0.7818608E-02  0.1010168E+00
          2   -1    0    0  501    0  0.00000000000E+00  0.00000000000E+00  0.85954136293E+03  0.85954136293E+03  0.25500000000E-02 0. -1.
         -2   -1    0    0    0  501 -0.00000000000E+00 -0.00000000000E+00 -0.76865787582E+02  0.76865787625E+02  0.25500000000E-02 0.  1.
    5000001    1    1    2    0    0 -0.14538619575E+03 -0.13909934315E+03  0.21422282934E+03  0.32016588480E+03  0.12700000000E+03 0.  0.
   -5000001    1    1    2    0    0  0.14538619575E+03  0.13909934315E+03  0.56845274600E+03  0.61624126575E+03  0.12700000000E+03 0.  0.
<mgrwt>
<rscale>  0 0.51407908E+03</rscale>
<asrwt>0</asrwt>
<pdfrwt beam="1">  1        2 0.12279162E+00 0.51407908E+03</pdfrwt>
<pdfrwt beam="2">  1       -2 0.10980828E-01 0.51407908E+03</pdfrwt>
<totfact> 0.20381297E+03</totfact>
</mgrwt>
</event>
<event>
 4    1  0.1351183E-004  0.3159868E+03  0.7818608E-02  0.1077511E+00
          2   -1    0    0  501    0  0.00000000000E+00  0.00000000000E+00  0.42531605566E+04  0.42531605566E+04  0.25500000000E-02 0.  1.
         -2   -1    0    0    0  501 -0.00000000000E+00 -0.00000000000E+00 -0.58690261308E+01  0.58690266848E+01  0.25500000000E-02 0. -1.
    5000001    1    1    2    0    0  0.84022401191E+01  0.87436043146E+02  0.16731223392E+04  0.16802330258E+04  0.12700000000E+03 0.  0.
   -5000001    1    1    2    0    0 -0.84022401191E+01 -0.87436043146E+02  0.25741691913E+04  0.25787965575E+04  0.12700000000E+03 0.  0.
<mgrwt>
<rscale>  0 0.31598678E+03</rscale>
<asrwt>0</asrwt>
<pdfrwt beam="1">  1        2 0.60759490E+00 0.31598678E+03</pdfrwt>
<pdfrwt beam="2">  1       -2 0.83843160E-03 0.31598678E+03</pdfrwt>
<totfact> 0.13349515E+03</totfact>
</mgrwt>
</event>
<event>
 4    1  0.1351183E-004  0.3671014E+03  0.7818608E-02  0.1055807E+00
          2   -1    0    0  501    0  0.00000000000E+00  0.00000000000E+00  0.83098560446E+03  0.83098560446E+03  0.25500000000E-02 0.  1.
         -2   -1    0    0    0  501 -0.00000000000E+00 -0.00000000000E+00 -0.40543256648E+02  0.40543256728E+02  0.25500000000E-02 0. -1.
    5000001    1    1    2    0    0 -0.12891393117E+03  0.18713447598E+02  0.45302740836E+03  0.48819240827E+03  0.12700000000E+03 0.  0.
   -5000001    1    1    2    0    0  0.12891393117E+03 -0.18713447598E+02  0.33741493945E+03  0.38333645292E+03  0.12700000000E+03 0.  0.
<mgrwt>
<rscale>  0 0.36710142E+03</rscale>
<asrwt>0</asrwt>
<pdfrwt beam="1">  1        2 0.11871223E+00 0.36710142E+03</pdfrwt>
<pdfrwt beam="2">  1       -2 0.57918939E-02 0.36710142E+03</pdfrwt>
<totfact> 0.58399616E+03</totfact>
</mgrwt>
</event>
<event>
 4    1  0.1351183E-004  0.3193935E+03  0.7818608E-02  0.1075929E+00
          2   -1    0    0  501    0  0.00000000000E+00  0.00000000000E+00  0.44311691099E+03  0.44311691100E+03  0.25500000000E-02 0. -1.
         -2   -1    0    0    0  501 -0.00000000000E+00 -0.00000000000E+00 -0.57553764796E+02  0.57553764852E+02  0.25500000000E-02 0.  1.
    5000001    1    1    2    0    0  0.84220376966E+02 -0.45173544424E+02  0.21708267878E+03  0.26904945723E+03  0.12700000000E+03 0.  0.
   -5000001    1    1    2    0    0 -0.84220376966E+02  0.45173544424E+02  0.16848046742E+03  0.23162121862E+03  0.12700000000E+03 0.  0.
<mgrwt>
<rscale>  0 0.31939347E+03</rscale>
<asrwt>0</asrwt>
<pdfrwt beam="1">  1        2 0.63302420E-01 0.31939347E+03</pdfrwt>
<pdfrwt beam="2">  1       -2 0.82219659E-02 0.31939347E+03</pdfrwt>
<totfact> 0.70131263E+03</totfact>
</mgrwt>
</event>
<event>
 4    1  0.1351183E-004  0.5746242E+03  0.7818608E-02  0.9959498E-01
          2   -1    0    0  501    0  0.00000000000E+00  0.00000000000E+00  0.11860164041E+04  0.11860164041E+04  0.25500000000E-02 0.  1.
         -2   -1    0    0    0  501 -0.00000000000E+00 -0.00000000000E+00 -0.69601274669E+02  0.69601274716E+02  0.25500000000E-02 0. -1.
    5000001    1    1    2    0    0  0.15470166671E+03 -0.19002913856E+03  0.38373259209E+03  0.47267682556E+03  0.12700000000E+03 0.  0.
   -5000001    1    1    2    0    0 -0.15470166671E+03  0.19002913856E+03  0.73268253731E+03  0.78294085323E+03  0.12700000000E+03 0.  0.
<mgrwt>
<rscale>  0 0.57462424E+03</rscale>
<asrwt>0</asrwt>
<pdfrwt beam="1">  1        2 0.16943089E+00 0.57462424E+03</pdfrwt>
<pdfrwt beam="2">  1       -2 0.99430405E-02 0.57462424E+03</pdfrwt>
<totfact> 0.15197231E+03</totfact>
</mgrwt>
</event>
<event>
 4    1  0.1351183E-004  0.3120552E+03  0.7818608E-02  0.1079365E+00
          2   -1    0    0  501    0  0.00000000000E+00  0.00000000000E+00  0.22003639286E+03  0.22003639287E+03  0.25500000000E-02 0.  1.
         -2   -1    0    0    0  501 -0.00000000000E+00 -0.00000000000E+00 -0.11063901469E+03  0.11063901472E+03  0.25500000000E-02 0. -1.
    5000001    1    1    2    0    0  0.75699308981E+01  0.82323796417E+02  0.94079332232E+02  0.17836600591E+03  0.12700000000E+03 0.  0.
   -5000001    1    1    2    0    0 -0.75699308981E+01 -0.82323796417E+02  0.15318045933E+02  0.15230940168E+03  0.12700000000E+03 0.  0.
<mgrwt>
<rscale>  0 0.31205519E+03</rscale>
<asrwt>0</asrwt>
<pdfrwt beam="1">  1        2 0.31433770E-01 0.31205519E+03</pdfrwt>
<pdfrwt beam="2">  1       -2 0.15805574E-01 0.31205519E+03</pdfrwt>
<totfact> 0.52175717E+03</totfact>
</mgrwt>
</event>
<event>
 4    1  0.1351183E-004  0.3852505E+03  0.7818608E-02  0.1049010E+00
         -2   -1    0    0    0  501 -0.00000000000E+00  0.00000000000E+00  0.53744511736E+02  0.53744511797E+02  0.25500000000E-02 0. -1.
          2   -1    0    0  501    0  0.00000000000E+00 -0.00000000000E+00 -0.69038639777E+03  0.69038639778E+03  0.25500000000E-02 0.  1.
    5000001    1    1    2    0    0 -0.12688813813E+03  0.68885870375E+02 -0.34031155942E+03  0.39087954693E+03  0.12700000000E+03 0.  0.
   -5000001    1    1    2    0    0  0.12688813813E+03 -0.68885870375E+02 -0.29633032662E+03  0.35325136264E+03  0.12700000000E+03 0.  0.
<mgrwt>
<rscale>  0 0.38525046E+03</rscale>
<asrwt>0</asrwt>
<pdfrwt beam="1">  1        2 0.98626623E-01 0.38525046E+03</pdfrwt>
<pdfrwt beam="2">  1       -2 0.76777878E-02 0.38525046E+03</pdfrwt>
<totfact> 0.47359483E+03</totfact>
</mgrwt>
</event>
<event>
 4    1  0.1351183E-004  0.6107318E+03  0.7818608E-02  0.9883388E-01
         -2   -1    0    0    0  501 -0.00000000000E+00  0.00000000000E+00  0.40201661763E+02  0.40201661843E+02  0.25500000000E-02 0. -1.
          2   -1    0    0  501    0  0.00000000000E+00 -0.00000000000E+00 -0.23195147094E+04  0.23195147094E+04  0.25500000000E-02 0.  1.
    5000001    1    1    2    0    0 -0.15021321827E+03 -0.89044136994E+02 -0.19739628582E+04  0.19857369501E+04  0.12700000000E+03 0.  0.
   -5000001    1    1    2    0    0  0.15021321827E+03  0.89044136994E+02 -0.30535018940E+03  0.37397942115E+03  0.12700000000E+03 0.  0.
<mgrwt>
<rscale>  0 0.61073184E+03</rscale>
<asrwt>0</asrwt>
<pdfrwt beam="1">  1        2 0.33135916E+00 0.61073184E+03</pdfrwt>
<pdfrwt beam="2">  1       -2 0.57430960E-02 0.61073184E+03</pdfrwt>
<totfact> 0.94534117E+02</totfact>
</mgrwt>
</event>
<event>
 4    1  0.1351183E-004  0.5408367E+03  0.7818608E-02  0.1003637E+00
          2   -1    0    0  501    0  0.00000000000E+00  0.00000000000E+00  0.59515478794E+03  0.59515478795E+03  0.25500000000E-02 0.  1.
         -2   -1    0    0    0  501 -0.00000000000E+00 -0.00000000000E+00 -0.12286900325E+03  0.12286900328E+03  0.25500000000E-02 0. -1.
    5000001    1    1    2    0    0  0.12136711887E+03 -0.16360894408E+03  0.40142563361E+03  0.46772791604E+03  0.12700000000E+03 0.  0.
   -5000001    1    1    2    0    0 -0.12136711887E+03  0.16360894408E+03  0.70860151076E+02  0.25029587519E+03  0.12700000000E+03 0.  0.
<mgrwt>
<rscale>  0 0.54083667E+03</rscale>
<asrwt>0</asrwt>
<pdfrwt beam="1">  1        2 0.85022112E-01 0.54083667E+03</pdfrwt>
<pdfrwt beam="2">  1       -2 0.17552715E-01 0.54083667E+03</pdfrwt>
<totfact> 0.14659357E+03</totfact>
</mgrwt>
</event>
<event>
 4    1  0.1351183E-004  0.4909905E+03  0.7818608E-02  0.1016158E+00
          2   -1    0    0  501    0  0.00000000000E+00  0.00000000000E+00  0.20076316006E+04  0.20076316006E+04  0.25500000000E-02 0.  1.
         -2   -1    0    0    0  501 -0.00000000000E+00 -0.00000000000E+00 -0.30019410766E+02  0.30019410874E+02  0.25500000000E-02 0. -1.
    5000001    1    1    2    0    0  0.21554220833E+02 -0.20451219006E+03  0.11672643401E+04  0.11920255282E+04  0.12700000000E+03 0.  0.
   -5000001    1    1    2    0    0 -0.21554220833E+02  0.20451219006E+03  0.81034784976E+03  0.84562548326E+03  0.12700000000E+03 0.  0.
<mgrwt>
<rscale>  0 0.49099050E+03</rscale>
<asrwt>0</asrwt>
<pdfrwt beam="1">  1        2 0.28680453E+00 0.49099050E+03</pdfrwt>
<pdfrwt beam="2">  1       -2 0.42884871E-02 0.49099050E+03</pdfrwt>
<totfact> 0.21447593E+03</totfact>
</mgrwt>
</event>
<event>
 4    1  0.1351183E-004  0.5747423E+03  0.7818608E-02  0.9959239E-01
         -2   -1    0    0    0  501 -0.00000000000E+00  0.00000000000E+00  0.36922239736E+03  0.36922239737E+03  0.25500000000E-02 0. -1.
          2   -1    0    0  501    0  0.00000000000E+00 -0.00000000000E+00 -0.22366512707E+03  0.22366512708E+03  0.25500000000E-02 0.  1.
    5000001    1    1    2    0    0 -0.10888496754E+03  0.18791193130E+03  0.21603836164E+03  0.33161484253E+03  0.12700000000E+03 0.  0.
   -5000001    1    1    2    0    0  0.10888496754E+03 -0.18791193130E+03 -0.70481091348E+02  0.26127268193E+03  0.12700000000E+03 0.  0.
<mgrwt>
<rscale>  0 0.57474229E+03</rscale>
<asrwt>0</asrwt>
<pdfrwt beam="1">  1        2 0.31952161E-01 0.57474229E+03</pdfrwt>
<pdfrwt beam="2">  1       -2 0.52746056E-01 0.57474229E+03</pdfrwt>
<totfact> 0.56607164E+02</totfact>
</mgrwt>
</event>
<event>
 4    1  0.1351183E-004  0.3909904E+03  0.7818608E-02  0.1046945E+00
          2   -1    0    0  501    0  0.00000000000E+00  0.00000000000E+00  0.27417528072E+03  0.27417528073E+03  0.25500000000E-02 0.  1.
         -2   -1    0    0    0  501 -0.00000000000E+00 -0.00000000000E+00 -0.13939392767E+03  0.13939392770E+03  0.25500000000E-02 0. -1.
    5000001    1    1    2    0    0 -0.13440081170E+03  0.17195300368E+02  0.27891020576E+01  0.18573108418E+03  0.12700000000E+03 0.  0.
   -5000001    1    1    2    0    0  0.13440081170E+03 -0.17195300368E+02  0.13199225099E+03  0.22783812425E+03  0.12700000000E+03 0.  0.
<mgrwt>
<rscale>  0 0.39099038E+03</rscale>
<asrwt>0</asrwt>
<pdfrwt beam="1">  1        2 0.39167897E-01 0.39099038E+03</pdfrwt>
<pdfrwt beam="2">  1       -2 0.19913418E-01 0.39099038E+03</pdfrwt>
<totfact> 0.27877620E+03</totfact>
</mgrwt>
</event>
<event>
 4    1  0.1351183E-004  0.4743220E+03  0.7818608E-02  0.1020707E+00
          2   -1    0    0  501    0  0.00000000000E+00  0.00000000000E+00  0.29673086983E+04  0.29673086983E+04  0.25500000000E-02 0.  1.
         -2   -1    0    0    0  501 -0.00000000000E+00 -0.00000000000E+00 -0.18954997868E+02  0.18954998039E+02  0.25500000000E-02 0. -1.
    5000001    1    1    2    0    0  0.12164262783E+03  0.15584522817E+03  0.12719566500E+04  0.12934787913E+04  0.12700000000E+03 0.  0.
   -5000001    1    1    2    0    0 -0.12164262783E+03 -0.15584522817E+03  0.16763970505E+04  0.16927849051E+04  0.12700000000E+03 0.  0.
<mgrwt>
<rscale>  0 0.47432196E+03</rscale>
<asrwt>0</asrwt>
<pdfrwt beam="1">  1        2 0.42390062E+00 0.47432196E+03</pdfrwt>
<pdfrwt beam="2">  1       -2 0.27078608E-02 0.47432196E+03</pdfrwt>
<totfact> 0.13931147E+03</totfact>
</mgrwt>
</event>
<event>
 4    1  0.1351183E-004  0.3954478E+03  0.7818608E-02  0.1045367E+00
         -2   -1    0    0    0  501 -0.00000000000E+00  0.00000000000E+00  0.17422426259E+03  0.17422426261E+03  0.25500000000E-02 0. -1.
          2   -1    0    0  501    0  0.00000000000E+00 -0.00000000000E+00 -0.22439319563E+03  0.22439319564E+03  0.25500000000E-02 0.  1.
    5000001    1    1    2    0    0 -0.87051370072E+02 -0.11205934030E+03 -0.78713369592E+02  0.20605832022E+03  0.12700000000E+03 0.  0.
   -5000001    1    1    2    0    0  0.87051370072E+02  0.11205934030E+03  0.28544436560E+02  0.19255913803E+03  0.12700000000E+03 0.  0.
<mgrwt>
<rscale>  0 0.39544779E+03</rscale>
<asrwt>0</asrwt>
<pdfrwt beam="1">  1        2 0.32056171E-01 0.39544779E+03</pdfrwt>
<pdfrwt beam="2">  1       -2 0.24889180E-01 0.39544779E+03</pdfrwt>
<totfact> 0.23516547E+03</totfact>
</mgrwt>
</event>
<event>
 4    1  0.1351183E-004  0.6001053E+03  0.7818608E-02  0.9905188E-01
         -2   -1    0    0    0  501 -0.00000000000E+00  0.00000000000E+00  0.29058727350E+03  0.29058727351E+03  0.25500000000E-02 0. -1.
          2   -1    0    0  501    0  0.00000000000E+00 -0.00000000000E+00 -0.30982637254E+03  0.30982637255E+03  0.25500000000E-02 0.  1.
    5000001    1    1    2    0    0  0.23857260293E+02  0.26794820293E+03 -0.48846740167E+02  0.30146378281E+03  0.12700000000E+03 0.  0.
   -5000001    1    1    2    0    0 -0.23857260293E+02 -0.26794820293E+03  0.29607641127E+02  0.29894986324E+03  0.12700000000E+03 0.  0.
<mgrwt>
<rscale>  0 0.60010533E+03</rscale>
<asrwt>0</asrwt>
<pdfrwt beam="1">  1        2 0.44260910E-01 0.60010533E+03</pdfrwt>
<pdfrwt beam="2">  1       -2 0.41512468E-01 0.60010533E+03</pdfrwt>
<totfact> 0.63647664E+02</totfact>
</mgrwt>
</event>
<event>
 4    1  0.1351183E-004  0.1269436E+04  0.7818608E-02  0.9054160E-01
          2   -1    0    0  501    0  0.00000000000E+00  0.00000000000E+00  0.25185280444E+04  0.25185280444E+04  0.25500000000E-02 0.  1.
         -2   -1    0    0    0  501 -0.00000000000E+00 -0.00000000000E+00 -0.15996136141E+03  0.15996136143E+03  0.25500000000E-02 0. -1.
    5000001    1    1    2    0    0  0.33395981939E+03  0.97889948622E+02  0.22667470051E+04  0.22968201036E+04  0.12700000000E+03 0.  0.
   -5000001    1    1    2    0    0 -0.33395981939E+03 -0.97889948622E+02  0.91819677838E+02  0.38166930221E+03  0.12700000000E+03 0.  0.
<mgrwt>
<rscale>  0 0.12694364E+04</rscale>
<asrwt>0</asrwt>
<pdfrwt beam="1">  1        2 0.35978969E+00 0.12694364E+04</pdfrwt>
<pdfrwt beam="2">  1       -2 0.22851625E-01 0.12694364E+04</pdfrwt>
<totfact> 0.71710531E+01</totfact>
</mgrwt>
</event>
<event>
 4    1  0.1351183E-004  0.3946072E+03  0.7818608E-02  0.1045663E+00
         -2   -1    0    0    0  501 -0.00000000000E+00  0.00000000000E+00  0.63774565607E+03  0.63774565608E+03  0.25500000000E-02 0. -1.
          2   -1    0    0  501    0  0.00000000000E+00 -0.00000000000E+00 -0.61041136041E+02  0.61041136094E+02  0.25500000000E-02 0.  1.
    5000001    1    1    2    0    0  0.19452249312E+02  0.11218772223E+03  0.46397154741E+03  0.49433093352E+03  0.12700000000E+03 0.  0.
   -5000001    1    1    2    0    0 -0.19452249312E+02 -0.11218772223E+03  0.11273297262E+03  0.20445585866E+03  0.12700000000E+03 0.  0.
<mgrwt>
<rscale>  0 0.39460724E+03</rscale>
<asrwt>0</asrwt>
<pdfrwt beam="1">  1        2 0.87201621E-02 0.39460724E+03</pdfrwt>
<pdfrwt beam="2">  1       -2 0.91106524E-01 0.39460724E+03</pdfrwt>
<totfact> 0.81590224E+02</totfact>
</mgrwt>
</event>
<event>
 4    1  0.1351183E-004  0.2799680E+03  0.7818608E-02  0.1095706E+00
         -2   -1    0    0    0  501 -0.00000000000E+00  0.00000000000E+00  0.37825660124E+03  0.37825660125E+03  0.25500000000E-02 0. -1.
          2   -1    0    0  501    0  0.00000000000E+00 -0.00000000000E+00 -0.51804826821E+02  0.51804826884E+02  0.25500000000E-02 0.  1.
    5000001    1    1    2    0    0  0.17546752946E+02  0.54557948602E+02  0.14249925554E+03  0.19929750657E+03  0.12700000000E+03 0.  0.
   -5000001    1    1    2    0    0 -0.17546752946E+02 -0.54557948602E+02  0.18395251888E+03  0.23076392156E+03  0.12700000000E+03 0.  0.
<mgrwt>
<rscale>  0 0.27996798E+03</rscale>
<asrwt>0</asrwt>
<pdfrwt beam="1">  1        2 0.74006896E-02 0.27996798E+03</pdfrwt>
<pdfrwt beam="2">  1       -2 0.54036657E-01 0.27996798E+03</pdfrwt>
<totfact> 0.30768180E+03</totfact>
</mgrwt>
</event>
<event>
 4    1  0.1351183E-004  0.4587801E+03  0.7818608E-02  0.1025136E+00
          2   -1    0    0  501    0  0.00000000000E+00  0.00000000000E+00  0.11838972979E+04  0.11838972979E+04  0.25500000000E-02 0.  1.
         -2   -1    0    0    0  501 -0.00000000000E+00 -0.00000000000E+00 -0.44446240810E+02  0.44446240884E+02  0.25500000000E-02 0. -1.
    5000001    1    1    2    0    0  0.18165884604E+03 -0.22129974574E+02  0.71640064538E+03  0.75023233523E+03  0.12700000000E+03 0.  0.
   -5000001    1    1    2    0    0 -0.18165884604E+03  0.22129974574E+02  0.42305041171E+03  0.47811120356E+03  0.12700000000E+03 0.  0.
<mgrwt>
<rscale>  0 0.45878005E+03</rscale>
<asrwt>0</asrwt>
<pdfrwt beam="1">  1        2 0.16912818E+00 0.45878005E+03</pdfrwt>
<pdfrwt beam="2">  1       -2 0.63494630E-02 0.45878005E+03</pdfrwt>
<totfact> 0.31109296E+03</totfact>
</mgrwt>
</event>
<event>
 4    1  0.1351183E-004  0.4740144E+03  0.7818608E-02  0.1020793E+00
          2   -1    0    0  501    0  0.00000000000E+00  0.00000000000E+00  0.16600151497E+04  0.16600151497E+04  0.25500000000E-02 0.  1.
         -2   -1    0    0    0  501 -0.00000000000E+00 -0.00000000000E+00 -0.33838492291E+02  0.33838492387E+02  0.25500000000E-02 0. -1.
    5000001    1    1    2    0    0 -0.47766776590E+02 -0.97543586902E+02  0.21250886969E+03  0.27034318188E+03  0.12700000000E+03 0.  0.
   -5000001    1    1    2    0    0  0.47766776590E+02  0.97543586902E+02  0.14136677878E+04  0.14235104603E+04  0.12700000000E+03 0.  0.
<mgrwt>
<rscale>  0 0.47401439E+03</rscale>
<asrwt>0</asrwt>
<pdfrwt beam="1">  1        2 0.23714511E+00 0.47401439E+03</pdfrwt>
<pdfrwt beam="2">  1       -2 0.48340686E-02 0.47401439E+03</pdfrwt>
<totfact> 0.26656340E+03</totfact>
</mgrwt>
</event>
<event>
 4    1  0.1351183E-004  0.3218896E+03  0.7818608E-02  0.1074783E+00
         -2   -1    0    0    0  501 -0.00000000000E+00  0.00000000000E+00  0.16496879807E+04  0.16496879807E+04  0.25500000000E-02 0. -1.
          2   -1    0    0  501    0  0.00000000000E+00 -0.00000000000E+00 -0.15701893478E+02  0.15701893685E+02  0.25500000000E-02 0.  1.
    5000001    1    1    2    0    0  0.72427576570E+02  0.58646274061E+02  0.64625116560E+03  0.66517269062E+03  0.12700000000E+03 0.  0.
   -5000001    1    1    2    0    0 -0.72427576570E+02 -0.58646274061E+02  0.98773492158E+03  0.10002171837E+04  0.12700000000E+03 0.  0.
<mgrwt>
<rscale>  0 0.32188958E+03</rscale>
<asrwt>0</asrwt>
<pdfrwt beam="1">  1        2 0.22431287E-02 0.32188958E+03</pdfrwt>
<pdfrwt beam="2">  1       -2 0.23566961E+00 0.32188958E+03</pdfrwt>
<totfact> 0.40808249E+02</totfact>
</mgrwt>
</event>
<event>
 4    1  0.1351183E-004  0.4238440E+03  0.7818608E-02  0.1035822E+00
         -2   -1    0    0    0  501 -0.00000000000E+00  0.00000000000E+00  0.17266331806E+02  0.17266331994E+02  0.25500000000E-02 0. -1.
          2   -1    0    0  501    0  0.00000000000E+00 -0.00000000000E+00 -0.26010696003E+04  0.26010696003E+04  0.25500000000E-02 0.  1.
    5000001    1    1    2    0    0 -0.22428771737E+02  0.15924651259E+03 -0.16256878001E+04  0.16385518988E+04  0.12700000000E+03 0.  0.
   -5000001    1    1    2    0    0  0.22428771737E+02 -0.15924651259E+03 -0.95811546837E+03  0.97978403350E+03  0.12700000000E+03 0.  0.
<mgrwt>
<rscale>  0 0.42384399E+03</rscale>
<asrwt>0</asrwt>
<pdfrwt beam="1">  1        2 0.37158112E+00 0.42384399E+03</pdfrwt>
<pdfrwt beam="2">  1       -2 0.24666205E-02 0.42384399E+03</pdfrwt>
<totfact> 0.25025236E+03</totfact>
</mgrwt>
</event>
<event>
 4    1  0.1351183E-004  0.5051751E+03  0.7818608E-02  0.1012437E+00
          2   -1    0    0  501    0  0.00000000000E+00  0.00000000000E+00  0.93344459490E+03  0.93344459491E+03  0.25500000000E-02 0. -1.
         -2   -1    0    0    0  501 -0.00000000000E+00 -0.00000000000E+00 -0.68349488068E+02  0.68349488115E+02  0.25500000000E-02 0.  1.
    5000001    1    1    2    0    0 -0.21499644674E+03 -0.17196857664E+02  0.36523267157E+03  0.44276755573E+03  0.12700000000E+03 0.  0.
   -5000001    1    1    2    0    0  0.21499644674E+03  0.17196857664E+02  0.49986243527E+03  0.55902652729E+03  0.12700000000E+03 0.  0.
<mgrwt>
<rscale>  0 0.50517506E+03</rscale>
<asrwt>0</asrwt>
<pdfrwt beam="1">  1        2 0.13334923E+00 0.50517506E+03</pdfrwt>
<pdfrwt beam="2">  1       -2 0.97642125E-02 0.50517506E+03</pdfrwt>
<totfact> 0.22094371E+03</totfact>
</mgrwt>
</event>
<event>
 4    1  0.1351183E-004  0.6821871E+03  0.7818608E-02  0.9748189E-01
         -2   -1    0    0    0  501 -0.00000000000E+00  0.00000000000E+00  0.41073006442E+02  0.41073006521E+02  0.25500000000E-02 0.  1.
          2   -1    0    0  501    0  0.00000000000E+00 -0.00000000000E+00 -0.28326341154E+04  0.28326341154E+04  0.25500000000E-02 0. -1.
    5000001    1    1    2    0    0  0.17823075180E+03  0.20732055381E+03 -0.72352465671E+03  0.78381435416E+03  0.12700000000E+03 0.  0.
   -5000001    1    1    2    0    0 -0.17823075180E+03 -0.20732055381E+03 -0.20680364523E+04  0.20898927678E+04  0.12700000000E+03 0.  0.
<mgrwt>
<rscale>  0 0.68218707E+03</rscale>
<asrwt>0</asrwt>
<pdfrwt beam="1">  1        2 0.40466189E+00 0.68218707E+03</pdfrwt>
<pdfrwt beam="2">  1       -2 0.58675741E-02 0.68218707E+03</pdfrwt>
<totfact> 0.49250760E+02</totfact>
</mgrwt>
</event>
<event>
 4    1  0.1351183E-004  0.3804412E+03  0.7818608E-02  0.1050771E+00
          2   -1    0    0  501    0  0.00000000000E+00  0.00000000000E+00  0.21842913904E+04  0.21842913904E+04  0.25500000000E-02 0.  1.
         -2   -1    0    0    0  501 -0.00000000000E+00 -0.00000000000E+00 -0.16565494582E+02  0.16565494778E+02  0.25500000000E-02 0. -1.
    5000001    1    1    2    0    0 -0.72109649077E+02 -0.98768881591E+02  0.67073956354E+03  0.69352408434E+03  0.12700000000E+03 0.  0.
   -5000001    1    1    2    0    0  0.72109649077E+02  0.98768881591E+02  0.14969863323E+04  0.15073328008E+04  0.12700000000E+03 0.  0.
<mgrwt>
<rscale>  0 0.38044115E+03</rscale>
<asrwt>0</asrwt>
<pdfrwt beam="1">  1        2 0.31204182E+00 0.38044115E+03</pdfrwt>
<pdfrwt beam="2">  1       -2 0.23664978E-02 0.38044115E+03</pdfrwt>
<totfact> 0.43200350E+03</totfact>
</mgrwt>
</event>
<event>
 4    1  0.1351183E-004  0.3315158E+03  0.7818608E-02  0.1070468E+00
          2   -1    0    0  501    0  0.00000000000E+00  0.00000000000E+00  0.36595118882E+04  0.36595118882E+04  0.25500000000E-02 0.  1.
         -2   -1    0    0    0  501 -0.00000000000E+00 -0.00000000000E+00 -0.75080175164E+01  0.75080179495E+01  0.25500000000E-02 0. -1.
    5000001    1    1    2    0    0  0.42162345594E+02  0.40142895258E+02  0.83927011020E+03  0.85081868415E+03  0.12700000000E+03 0.  0.
   -5000001    1    1    2    0    0 -0.42162345594E+02 -0.40142895258E+02  0.28127337605E+04  0.28162012220E+04  0.12700000000E+03 0.  0.
<mgrwt>
<rscale>  0 0.33151579E+03</rscale>
<asrwt>0</asrwt>
<pdfrwt beam="1">  1        2 0.52278756E+00 0.33151579E+03</pdfrwt>
<pdfrwt beam="2">  1       -2 0.10725737E-02 0.33151579E+03</pdfrwt>
<totfact> 0.22597846E+03</totfact>
</mgrwt>
</event>
<event>
 4    1  0.1351183E-004  0.3396210E+03  0.7818608E-02  0.1066957E+00
         -2   -1    0    0    0  501 -0.00000000000E+00  0.00000000000E+00  0.11646666132E+02  0.11646666412E+02  0.25500000000E-02 0. -1.
          2   -1    0    0  501    0  0.00000000000E+00 -0.00000000000E+00 -0.24758682343E+04  0.24758682343E+04  0.25500000000E-02 0.  1.
    5000001    1    1    2    0    0 -0.79679814957E+02  0.36838808792E+02 -0.17500561177E+04  0.17568526933E+04  0.12700000000E+03 0.  0.
   -5000001    1    1    2    0    0  0.79679814957E+02 -0.36838808792E+02 -0.71416545042E+03  0.73066220740E+03  0.12700000000E+03 0.  0.
<mgrwt>
<rscale>  0 0.33962103E+03</rscale>
<asrwt>0</asrwt>
<pdfrwt beam="1">  1        2 0.35369512E+00 0.33962103E+03</pdfrwt>
<pdfrwt beam="2">  1       -2 0.16638111E-02 0.33962103E+03</pdfrwt>
<totfact> 0.52186892E+03</totfact>
</mgrwt>
</event>
<event>
 4    1  0.1351183E-004  0.5214253E+03  0.7818608E-02  0.1008333E+00
          2   -1    0    0  501    0  0.00000000000E+00  0.00000000000E+00  0.17641361730E+03  0.17641361732E+03  0.25500000000E-02 0. -1.
         -2   -1    0    0    0  501 -0.00000000000E+00 -0.00000000000E+00 -0.38529389392E+03  0.38529389393E+03  0.25500000000E-02 0.  1.
    5000001    1    1    2    0    0 -0.16391451977E+02 -0.22545542860E+03 -0.75071191195E+02  0.26993242438E+03  0.12700000000E+03 0.  0.
   -5000001    1    1    2    0    0  0.16391451977E+02  0.22545542860E+03 -0.13380908543E+03  0.29177508688E+03  0.12700000000E+03 0.  0.
<mgrwt>
<rscale>  0 0.52142531E+03</rscale>
<asrwt>0</asrwt>
<pdfrwt beam="1">  1        2 0.25201945E-01 0.52142531E+03</pdfrwt>
<pdfrwt beam="2">  1       -2 0.55041985E-01 0.52142531E+03</pdfrwt>
<totfact> 0.67804366E+02</totfact>
</mgrwt>
</event>
<event>
 4    1  0.1351183E-004  0.5630237E+03  0.7818608E-02  0.9985236E-01
         -2   -1    0    0    0  501 -0.00000000000E+00  0.00000000000E+00  0.99603299605E+02  0.99603299638E+02  0.25500000000E-02 0. -1.
          2   -1    0    0  501    0  0.00000000000E+00 -0.00000000000E+00 -0.79564541392E+03  0.79564541393E+03  0.25500000000E-02 0.  1.
    5000001    1    1    2    0    0  0.24630434955E+03  0.42791250436E+02 -0.38770874544E+03  0.47848092440E+03  0.12700000000E+03 0.  0.
   -5000001    1    1    2    0    0 -0.24630434955E+03 -0.42791250436E+02 -0.30833336888E+03  0.41676778917E+03  0.12700000000E+03 0.  0.
<mgrwt>
<rscale>  0 0.56302365E+03</rscale>
<asrwt>0</asrwt>
<pdfrwt beam="1">  1        2 0.11366363E+00 0.56302365E+03</pdfrwt>
<pdfrwt beam="2">  1       -2 0.14229043E-01 0.56302365E+03</pdfrwt>
<totfact> 0.14680650E+03</totfact>
</mgrwt>
</event>
<event>
 4    1  0.1351183E-004  0.2961208E+03  0.7818608E-02  0.1087196E+00
          2   -1    0    0  501    0  0.00000000000E+00  0.00000000000E+00  0.15284441034E+04  0.15284441034E+04  0.25500000000E-02 0.  1.
         -2   -1    0    0    0  501 -0.00000000000E+00 -0.00000000000E+00 -0.14342611174E+02  0.14342611401E+02  0.25500000000E-02 0. -1.
    5000001    1    1    2    0    0  0.17119769745E+02  0.74153269278E+02  0.75162186614E+03  0.76606541726E+03  0.12700000000E+03 0.  0.
   -5000001    1    1    2    0    0 -0.17119769745E+02 -0.74153269278E+02  0.76247962604E+03  0.77672129750E+03  0.12700000000E+03 0.  0.
<mgrwt>
<rscale>  0 0.29612078E+03</rscale>
<asrwt>0</asrwt>
<pdfrwt beam="1">  1        2 0.21834924E+00 0.29612078E+03</pdfrwt>
<pdfrwt beam="2">  1       -2 0.20489437E-02 0.29612078E+03</pdfrwt>
<totfact> 0.11277556E+04</totfact>
</mgrwt>
</event>
<event>
 4    1  0.1351183E-004  0.8528426E+03  0.7818608E-02  0.9486530E-01
          2   -1    0    0  501    0  0.00000000000E+00  0.00000000000E+00  0.17149809571E+04  0.17149809571E+04  0.25500000000E-02 0.  1.
         -2   -1    0    0    0  501 -0.00000000000E+00 -0.00000000000E+00 -0.10602747698E+03  0.10602747701E+03  0.25500000000E-02 0. -1.
    5000001    1    1    2    0    0  0.94471135556E+02  0.38442564859E+03  0.10070217852E+04  0.10894630561E+04  0.12700000000E+03 0.  0.
   -5000001    1    1    2    0    0 -0.94471135556E+02 -0.38442564859E+03  0.60193169492E+03  0.73154537802E+03  0.12700000000E+03 0.  0.
<mgrwt>
<rscale>  0 0.85284255E+03</rscale>
<asrwt>0</asrwt>
<pdfrwt beam="1">  1        2 0.24499727E+00 0.85284255E+03</pdfrwt>
<pdfrwt beam="2">  1       -2 0.15146783E-01 0.85284255E+03</pdfrwt>
<totfact> 0.39125605E+02</totfact>
</mgrwt>
</event>
<event>
 4    1  0.1351183E-004  0.3321294E+03  0.7818608E-02  0.1070199E+00
         -2   -1    0    0    0  501 -0.00000000000E+00  0.00000000000E+00  0.77347439198E+02  0.77347439240E+02  0.25500000000E-02 0. -1.
          2   -1    0    0  501    0  0.00000000000E+00 -0.00000000000E+00 -0.35654035738E+03  0.35654035739E+03  0.25500000000E-02 0.  1.
    5000001    1    1    2    0    0  0.83121941226E+02  0.37034510125E+02 -0.21312233310E+03  0.26425544634E+03  0.12700000000E+03 0.  0.
   -5000001    1    1    2    0    0 -0.83121941226E+02 -0.37034510125E+02 -0.66070585090E+02  0.16963235030E+03  0.12700000000E+03 0.  0.
<mgrwt>
<rscale>  0 0.33212939E+03</rscale>
<asrwt>0</asrwt>
<pdfrwt beam="1">  1        2 0.50934336E-01 0.33212939E+03</pdfrwt>
<pdfrwt beam="2">  1       -2 0.11049634E-01 0.33212939E+03</pdfrwt>
<totfact> 0.55602206E+03</totfact>
</mgrwt>
</event>
<event>
 4    1  0.1351183E-004  0.1020892E+04  0.7818608E-02  0.9285923E-01
         -2   -1    0    0    0  501 -0.00000000000E+00  0.00000000000E+00  0.41374795541E+03  0.41374795542E+03  0.25500000000E-02 0. -1.
          2   -1    0    0  501    0  0.00000000000E+00 -0.00000000000E+00 -0.62974332842E+03  0.62974332842E+03  0.25500000000E-02 0.  1.
    5000001    1    1    2    0    0 -0.27315503523E+03  0.39021722576E+03  0.27383802522E+02  0.49372262374E+03  0.12700000000E+03 0.  0.
   -5000001    1    1    2    0    0  0.27315503523E+03 -0.39021722576E+03 -0.24337917553E+03  0.54976866010E+03  0.12700000000E+03 0.  0.
<mgrwt>
<rscale>  0 0.10208918E+04</rscale>
<asrwt>0</asrwt>
<pdfrwt beam="1">  1        2 0.89963333E-01 0.10208918E+04</pdfrwt>
<pdfrwt beam="2">  1       -2 0.59106851E-01 0.10208918E+04</pdfrwt>
<totfact> 0.13660160E+02</totfact>
</mgrwt>
</event>
<event>
 4    1  0.1351183E-004  0.4504862E+03  0.7818608E-02  0.1027577E+00
          2   -1    0    0  501    0  0.00000000000E+00  0.00000000000E+00  0.11652648055E+04  0.11652648055E+04  0.25500000000E-02 0.  1.
         -2   -1    0    0    0  501 -0.00000000000E+00 -0.00000000000E+00 -0.43538983037E+02  0.43538983112E+02  0.25500000000E-02 0. -1.
    5000001    1    1    2    0    0 -0.14544675500E+03  0.11290159355E+03  0.48967030919E+03  0.53833775650E+03  0.12700000000E+03 0.  0.
   -5000001    1    1    2    0    0  0.14544675500E+03 -0.11290159355E+03  0.63205551325E+03  0.67046603209E+03  0.12700000000E+03 0.  0.
<mgrwt>
<rscale>  0 0.45048616E+03</rscale>
<asrwt>0</asrwt>
<pdfrwt beam="1">  1        2 0.16646637E+00 0.45048616E+03</pdfrwt>
<pdfrwt beam="2">  1       -2 0.62198560E-02 0.45048616E+03</pdfrwt>
<totfact> 0.32905409E+03</totfact>
</mgrwt>
</event>
<event>
 4    1  0.1351183E-004  0.4653658E+03  0.7818608E-02  0.1023236E+00
          2   -1    0    0  501    0  0.00000000000E+00  0.00000000000E+00  0.85164140535E+03  0.85164140535E+03  0.25500000000E-02 0.  1.
         -2   -1    0    0    0  501 -0.00000000000E+00 -0.00000000000E+00 -0.63572914594E+02  0.63572914645E+02  0.25500000000E-02 0. -1.
    5000001    1    1    2    0    0  0.59329447213E+02 -0.11407095395E+03  0.10579897241E+03  0.20941487150E+03  0.12700000000E+03 0.  0.
   -5000001    1    1    2    0    0 -0.59329447213E+02  0.11407095395E+03  0.68226951834E+03  0.70579944850E+03  0.12700000000E+03 0.  0.
<mgrwt>
<rscale>  0 0.46536578E+03</rscale>
<asrwt>0</asrwt>
<pdfrwt beam="1">  1        2 0.12166305E+00 0.46536578E+03</pdfrwt>
<pdfrwt beam="2">  1       -2 0.90818455E-02 0.46536578E+03</pdfrwt>
<totfact> 0.28013565E+03</totfact>
</mgrwt>
</event>
<event>
 4    1  0.1351183E-004  0.3677901E+03  0.7818608E-02  0.1055541E+00
          2   -1    0    0  501    0  0.00000000000E+00  0.00000000000E+00  0.10383950487E+04  0.10383950487E+04  0.25500000000E-02 0.  1.
         -2   -1    0    0    0  501 -0.00000000000E+00 -0.00000000000E+00 -0.32566983617E+02  0.32566983717E+02  0.25500000000E-02 0. -1.
    5000001    1    1    2    0    0 -0.11243523209E+03 -0.69822034107E+02  0.46476983232E+03  0.49965667703E+03  0.12700000000E+03 0.  0.
   -5000001    1    1    2    0    0  0.11243523209E+03  0.69822034107E+02  0.54105823280E+03  0.57130535543E+03  0.12700000000E+03 0.  0.
<mgrwt>
<rscale>  0 0.36779013E+03</rscale>
<asrwt>0</asrwt>
<pdfrwt beam="1">  1        2 0.14834219E+00 0.36779013E+03</pdfrwt>
<pdfrwt beam="2">  1       -2 0.46524249E-02 0.36779013E+03</pdfrwt>
<totfact> 0.60748717E+03</totfact>
</mgrwt>
</event>
<event>
 4    1  0.1351183E-004  0.3139084E+03  0.7818608E-02  0.1078487E+00
          2   -1    0    0  501    0  0.00000000000E+00  0.00000000000E+00  0.13472516868E+04  0.13472516868E+04  0.25500000000E-02 0.  1.
         -2   -1    0    0    0  501 -0.00000000000E+00 -0.00000000000E+00 -0.18285094074E+02  0.18285094252E+02  0.25500000000E-02 0. -1.
    5000001    1    1    2    0    0 -0.81018386008E+02  0.43926174456E+02  0.67963785546E+03  0.69751709818E+03  0.12700000000E+03 0.  0.
   -5000001    1    1    2    0    0  0.81018386008E+02 -0.43926174456E+02  0.64932873725E+03  0.66801968286E+03  0.12700000000E+03 0.  0.
<mgrwt>
<rscale>  0 0.31390842E+03</rscale>
<asrwt>0</asrwt>
<pdfrwt beam="1">  1        2 0.19246457E+00 0.31390842E+03</pdfrwt>
<pdfrwt beam="2">  1       -2 0.26121557E-02 0.31390842E+03</pdfrwt>
<totfact> 0.97618378E+03</totfact>
</mgrwt>
</event>
<event>
 4    1  0.1351183E-004  0.2812001E+03  0.7818608E-02  0.1095035E+00
          2   -1    0    0  501    0  0.00000000000E+00  0.00000000000E+00  0.17184902021E+03  0.17184902023E+03  0.25500000000E-02 0.  1.
         -2   -1    0    0    0  501 -0.00000000000E+00 -0.00000000000E+00 -0.11503335445E+03  0.11503335448E+03  0.25500000000E-02 0. -1.
    5000001    1    1    2    0    0  0.53614529689E+02 -0.25392222966E+02  0.17227994945E+02  0.14122707457E+03  0.12700000000E+03 0.  0.
   -5000001    1    1    2    0    0 -0.53614529689E+02  0.25392222966E+02  0.39587670815E+02  0.14565530015E+03  0.12700000000E+03 0.  0.
<mgrwt>
<rscale>  0 0.28120007E+03</rscale>
<asrwt>0</asrwt>
<pdfrwt beam="1">  1        2 0.24549860E-01 0.28120007E+03</pdfrwt>
<pdfrwt beam="2">  1       -2 0.16433337E-01 0.28120007E+03</pdfrwt>
<totfact> 0.64076850E+03</totfact>
</mgrwt>
</event>
<event>
 4    1  0.1351183E-004  0.2997032E+03  0.7818608E-02  0.1085389E+00
         -2   -1    0    0    0  501 -0.00000000000E+00  0.00000000000E+00  0.15920421555E+02  0.15920421759E+02  0.25500000000E-02 0. -1.
          2   -1    0    0  501    0  0.00000000000E+00 -0.00000000000E+00 -0.14104837892E+04  0.14104837892E+04  0.25500000000E-02 0.  1.
    5000001    1    1    2    0    0 -0.74996134865E+02  0.21215530509E+02 -0.77283131139E+03  0.78706527991E+03  0.12700000000E+03 0.  0.
   -5000001    1    1    2    0    0  0.74996134865E+02 -0.21215530509E+02 -0.62173205625E+03  0.63933893104E+03  0.12700000000E+03 0.  0.
<mgrwt>
<rscale>  0 0.29970316E+03</rscale>
<asrwt>0</asrwt>
<pdfrwt beam="1">  1        2 0.20149760E+00 0.29970316E+03</pdfrwt>
<pdfrwt beam="2">  1       -2 0.22743468E-02 0.29970316E+03</pdfrwt>
<totfact> 0.11103553E+04</totfact>
</mgrwt>
</event>
<event>
 4    1  0.1351183E-004  0.3442674E+03  0.7818608E-02  0.1064993E+00
         -2   -1    0    0    0  501 -0.00000000000E+00  0.00000000000E+00  0.95453035826E+01  0.95453039232E+01  0.25500000000E-02 0. -1.
          2   -1    0    0  501    0  0.00000000000E+00 -0.00000000000E+00 -0.31041459093E+04  0.31041459093E+04  0.25500000000E-02 0.  1.
    5000001    1    1    2    0    0 -0.52459709709E+02  0.15705278948E+02 -0.24741783899E+04  0.24780408354E+04  0.12700000000E+03 0.  0.
   -5000001    1    1    2    0    0  0.52459709709E+02 -0.15705278948E+02 -0.62042221578E+03  0.63565037777E+03  0.12700000000E+03 0.  0.
<mgrwt>
<rscale>  0 0.34426743E+03</rscale>
<asrwt>0</asrwt>
<pdfrwt beam="1">  1        2 0.44344877E+00 0.34426743E+03</pdfrwt>
<pdfrwt beam="2">  1       -2 0.13636168E-02 0.34426743E+03</pdfrwt>
<totfact> 0.32950478E+03</totfact>
</mgrwt>
</event>
<event>
 4    1  0.1351183E-004  0.4300899E+03  0.7818608E-02  0.1033832E+00
          2   -1    0    0  501    0  0.00000000000E+00  0.00000000000E+00  0.10965465361E+04  0.10965465361E+04  0.25500000000E-02 0.  1.
         -2   -1    0    0    0  501 -0.00000000000E+00 -0.00000000000E+00 -0.42172696365E+02  0.42172696442E+02  0.25500000000E-02 0. -1.
    5000001    1    1    2    0    0 -0.13610007946E+03 -0.10765780188E+03  0.52354680925E+03  0.56598913012E+03  0.12700000000E+03 0.  0.
   -5000001    1    1    2    0    0  0.13610007946E+03  0.10765780188E+03  0.53082703051E+03  0.57273010245E+03  0.12700000000E+03 0.  0.
<mgrwt>
<rscale>  0 0.43008987E+03</rscale>
<asrwt>0</asrwt>
<pdfrwt beam="1">  1        2 0.15664947E+00 0.43008987E+03</pdfrwt>
<pdfrwt beam="2">  1       -2 0.60246721E-02 0.43008987E+03</pdfrwt>
<totfact> 0.37821645E+03</totfact>
</mgrwt>
</event>
<event>
 4    1  0.1351183E-004  0.2686052E+03  0.7818608E-02  0.1102081E+00
         -2   -1    0    0    0  501 -0.00000000000E+00  0.00000000000E+00  0.38956832600E+02  0.38956832683E+02  0.25500000000E-02 0. -1.
          2   -1    0    0  501    0  0.00000000000E+00 -0.00000000000E+00 -0.46300460366E+03  0.46300460367E+03  0.25500000000E-02 0.  1.
    5000001    1    1    2    0    0  0.35955784992E+02 -0.21968539569E+02 -0.19049182113E+03  0.23279082697E+03  0.12700000000E+03 0.  0.
   -5000001    1    1    2    0    0 -0.35955784992E+02  0.21968539569E+02 -0.23355594993E+03  0.26917060938E+03  0.12700000000E+03 0.  0.
<mgrwt>
<rscale>  0 0.26860523E+03</rscale>
<asrwt>0</asrwt>
<pdfrwt beam="1">  1        2 0.66143511E-01 0.26860523E+03</pdfrwt>
<pdfrwt beam="2">  1       -2 0.55652621E-02 0.26860523E+03</pdfrwt>
<totfact> 0.12150013E+04</totfact>
</mgrwt>
</event>
<event>
 4    1  0.1351183E-004  0.3691211E+03  0.7818608E-02  0.1055030E+00
         -2   -1    0    0    0  501 -0.00000000000E+00  0.00000000000E+00  0.18300282662E+02  0.18300282840E+02  0.25500000000E-02 0. -1.
          2   -1    0    0  501    0  0.00000000000E+00 -0.00000000000E+00 -0.18613157486E+04  0.18613157486E+04  0.25500000000E-02 0.  1.
    5000001    1    1    2    0    0  0.87136300837E+02 -0.10151253684E+03 -0.95209213336E+03  0.96979686557E+03  0.12700000000E+03 0.  0.
   -5000001    1    1    2    0    0 -0.87136300837E+02  0.10151253684E+03 -0.89092333255E+03  0.90981916585E+03  0.12700000000E+03 0.  0.
<mgrwt>
<rscale>  0 0.36912114E+03</rscale>
<asrwt>0</asrwt>
<pdfrwt beam="1">  1        2 0.26590213E+00 0.36912114E+03</pdfrwt>
<pdfrwt beam="2">  1       -2 0.26143273E-02 0.36912114E+03</pdfrwt>
<totfact> 0.53759907E+03</totfact>
</mgrwt>
</event>
<event>
 4    1  0.1351183E-004  0.3332060E+03  0.7818608E-02  0.1069727E+00
          2   -1    0    0  501    0  0.00000000000E+00  0.00000000000E+00  0.11857740437E+03  0.11857740440E+03  0.25500000000E-02 0. -1.
         -2   -1    0    0    0  501 -0.00000000000E+00 -0.00000000000E+00 -0.23407968358E+03  0.23407968360E+03  0.25500000000E-02 0.  1.
    5000001    1    1    2    0    0 -0.79271307311E+02  0.34882464553E+02  0.10239375758E+02  0.15406028467E+03  0.12700000000E+03 0.  0.
   -5000001    1    1    2    0    0  0.79271307311E+02 -0.34882464553E+02 -0.12574165497E+03  0.19859680332E+03  0.12700000000E+03 0.  0.
<mgrwt>
<rscale>  0 0.33320601E+03</rscale>
<asrwt>0</asrwt>
<pdfrwt beam="1">  1        2 0.16939629E-01 0.33320601E+03</pdfrwt>
<pdfrwt beam="2">  1       -2 0.33439955E-01 0.33320601E+03</pdfrwt>
<totfact> 0.28305089E+03</totfact>
</mgrwt>
</event>
<event>
 4    1  0.1351183E-004  0.3398241E+03  0.7818608E-02  0.1066871E+00
         -2   -1    0    0    0  501 -0.00000000000E+00  0.00000000000E+00  0.11260831437E+02  0.11260831726E+02  0.25500000000E-02 0. -1.
          2   -1    0    0  501    0  0.00000000000E+00 -0.00000000000E+00 -0.25637634955E+04  0.25637634955E+04  0.25500000000E-02 0.  1.
    5000001    1    1    2    0    0 -0.73101770616E+02  0.82083249420E+02 -0.14708594475E+04  0.14804181987E+04  0.12700000000E+03 0.  0.
   -5000001    1    1    2    0    0  0.73101770616E+02 -0.82083249420E+02 -0.10816432166E+04  0.10946061285E+04  0.12700000000E+03 0.  0.
<mgrwt>
<rscale>  0 0.33982412E+03</rscale>
<asrwt>0</asrwt>
<pdfrwt beam="1">  1        2 0.36625156E+00 0.33982412E+03</pdfrwt>
<pdfrwt beam="2">  1       -2 0.16086919E-02 0.33982412E+03</pdfrwt>
<totfact> 0.49525770E+03</totfact>
</mgrwt>
</event>
<event>
 4    1  0.1351183E-004  0.4759712E+03  0.7818608E-02  0.1020248E+00
          2   -1    0    0  501    0  0.00000000000E+00  0.00000000000E+00  0.41630439249E+03  0.41630439249E+03  0.25500000000E-02 0.  1.
         -2   -1    0    0    0  501 -0.00000000000E+00 -0.00000000000E+00 -0.13604746129E+03  0.13604746131E+03  0.25500000000E-02 0. -1.
    5000001    1    1    2    0    0 -0.55204973155E+02  0.85711320179E+02 -0.61253376049E+02  0.17399711361E+03  0.12700000000E+03 0.  0.
   -5000001    1    1    2    0    0  0.55204973155E+02 -0.85711320179E+02  0.34151030725E+03  0.37835474019E+03  0.12700000000E+03 0.  0.
<mgrwt>
<rscale>  0 0.47597124E+03</rscale>
<asrwt>0</asrwt>
<pdfrwt beam="1">  1        2 0.59472056E-01 0.47597124E+03</pdfrwt>
<pdfrwt beam="2">  1       -2 0.19435352E-01 0.47597124E+03</pdfrwt>
<totfact> 0.18445286E+03</totfact>
</mgrwt>
</event>
<event>
 4    1  0.1351183E-004  0.6130149E+03  0.7818608E-02  0.9878766E-01
         -2   -1    0    0    0  501 -0.00000000000E+00  0.00000000000E+00  0.28442881203E+04  0.28442881203E+04  0.25500000000E-02 0. -1.
          2   -1    0    0  501    0  0.00000000000E+00 -0.00000000000E+00 -0.33029990380E+02  0.33029990478E+02  0.25500000000E-02 0.  1.
    5000001    1    1    2    0    0 -0.23904043060E+03  0.91007593165E+02  0.19281959462E+04  0.19492283900E+04  0.12700000000E+03 0.  0.
   -5000001    1    1    2    0    0  0.23904043060E+03 -0.91007593165E+02  0.88306218365E+03  0.92808972070E+03  0.12700000000E+03 0.  0.
<mgrwt>
<rscale>  0 0.61301488E+03</rscale>
<asrwt>0</asrwt>
<pdfrwt beam="1">  1        2 0.47185680E-02 0.61301488E+03</pdfrwt>
<pdfrwt beam="2">  1       -2 0.40632705E+00 0.61301488E+03</pdfrwt>
<totfact> 0.13111811E+01</totfact>
</mgrwt>
</event>
<event>
 4    1  0.1351183E-004  0.3011418E+03  0.7818608E-02  0.1084671E+00
          2   -1    0    0  501    0  0.00000000000E+00  0.00000000000E+00  0.12227929757E+04  0.12227929757E+04  0.25500000000E-02 0.  1.
         -2   -1    0    0    0  501 -0.00000000000E+00 -0.00000000000E+00 -0.18540826965E+02  0.18540827140E+02  0.25500000000E-02 0. -1.
    5000001    1    1    2    0    0 -0.43032063201E+02 -0.67211135109E+02  0.54783046279E+03  0.56799323157E+03  0.12700000000E+03 0.  0.
   -5000001    1    1    2    0    0  0.43032063201E+02  0.67211135109E+02  0.65642168591E+03  0.67334057124E+03  0.12700000000E+03 0.  0.
<mgrwt>
<rscale>  0 0.30114178E+03</rscale>
<asrwt>0</asrwt>
<pdfrwt beam="1">  1        2 0.17468469E+00 0.30114178E+03</pdfrwt>
<pdfrwt beam="2">  1       -2 0.26486899E-02 0.30114178E+03</pdfrwt>
<totfact> 0.11124534E+04</totfact>
</mgrwt>
</event>
<event>
 4    1  0.1351183E-004  0.4489341E+03  0.7818608E-02  0.1028040E+00
          2   -1    0    0  501    0  0.00000000000E+00  0.00000000000E+00  0.20332195423E+03  0.20332195424E+03  0.25500000000E-02 0.  1.
         -2   -1    0    0    0  501 -0.00000000000E+00 -0.00000000000E+00 -0.24781115403E+03  0.24781115404E+03  0.25500000000E-02 0. -1.
    5000001    1    1    2    0    0  0.11868901144E+03  0.13914314462E+03  0.63297341279E+01  0.22274865133E+03  0.12700000000E+03 0.  0.
   -5000001    1    1    2    0    0 -0.11868901144E+03 -0.13914314462E+03 -0.50818933927E+02  0.22838445696E+03  0.12700000000E+03 0.  0.
<mgrwt>
<rscale>  0 0.44893406E+03</rscale>
<asrwt>0</asrwt>
<pdfrwt beam="1">  1        2 0.29045994E-01 0.44893406E+03</pdfrwt>
<pdfrwt beam="2">  1       -2 0.35401593E-01 0.44893406E+03</pdfrwt>
<totfact> 0.13783915E+03</totfact>
</mgrwt>
</event>
<event>
 4    1  0.1351183E-004  0.3300677E+03  0.7818608E-02  0.1071107E+00
          2   -1    0    0  501    0  0.00000000000E+00  0.00000000000E+00  0.25060109273E+03  0.25060109275E+03  0.25500000000E-02 0.  1.
         -2   -1    0    0    0  501 -0.00000000000E+00 -0.00000000000E+00 -0.10868340380E+03  0.10868340383E+03  0.25500000000E-02 0. -1.
    5000001    1    1    2    0    0 -0.63804753030E+02 -0.75177500246E+02  0.30456681876E+02  0.16364385880E+03  0.12700000000E+03 0.  0.
   -5000001    1    1    2    0    0  0.63804753030E+02  0.75177500246E+02  0.11146100706E+03  0.19564063777E+03  0.12700000000E+03 0.  0.
<mgrwt>
<rscale>  0 0.33006775E+03</rscale>
<asrwt>0</asrwt>
<pdfrwt beam="1">  1        2 0.35800156E-01 0.33006775E+03</pdfrwt>
<pdfrwt beam="2">  1       -2 0.15526201E-01 0.33006775E+03</pdfrwt>
<totfact> 0.46697638E+03</totfact>
</mgrwt>
</event>
<event>
 4    1  0.1351183E-004  0.5054197E+03  0.7818608E-02  0.1012374E+00
          2   -1    0    0  501    0  0.00000000000E+00  0.00000000000E+00  0.98748686356E+03  0.98748686356E+03  0.25500000000E-02 0.  1.
         -2   -1    0    0    0  501 -0.00000000000E+00 -0.00000000000E+00 -0.64671501088E+02  0.64671501138E+02  0.25500000000E-02 0. -1.
    5000001    1    1    2    0    0  0.21633337230E+03 -0.20065291070E+02  0.41345892173E+03  0.48402481738E+03  0.12700000000E+03 0.  0.
   -5000001    1    1    2    0    0 -0.21633337230E+03  0.20065291070E+02  0.50935644073E+03  0.56813354732E+03  0.12700000000E+03 0.  0.
<mgrwt>
<rscale>  0 0.50541966E+03</rscale>
<asrwt>0</asrwt>
<pdfrwt beam="1">  1        2 0.14106955E+00 0.50541966E+03</pdfrwt>
<pdfrwt beam="2">  1       -2 0.92387861E-02 0.50541966E+03</pdfrwt>
<totfact> 0.22360258E+03</totfact>
</mgrwt>
</event>
<event>
 4    1  0.1351183E-004  0.4730918E+03  0.7818608E-02  0.1021051E+00
         -2   -1    0    0    0  501 -0.00000000000E+00  0.00000000000E+00  0.90316213526E+02  0.90316213562E+02  0.25500000000E-02 0. -1.
          2   -1    0    0  501    0  0.00000000000E+00 -0.00000000000E+00 -0.61953384761E+03  0.61953384761E+03  0.25500000000E-02 0.  1.
    5000001    1    1    2    0    0  0.50672387843E+02 -0.16982349321E+03 -0.40226830294E+03  0.45755491177E+03  0.12700000000E+03 0.  0.
   -5000001    1    1    2    0    0 -0.50672387843E+02  0.16982349321E+03 -0.12694933114E+03  0.25229514940E+03  0.12700000000E+03 0.  0.
<mgrwt>
<rscale>  0 0.47309175E+03</rscale>
<asrwt>0</asrwt>
<pdfrwt beam="1">  1        2 0.88504832E-01 0.47309175E+03</pdfrwt>
<pdfrwt beam="2">  1       -2 0.12902317E-01 0.47309175E+03</pdfrwt>
<totfact> 0.23433832E+03</totfact>
</mgrwt>
</event>
<event>
 4    1  0.1351183E-004  0.4357401E+03  0.7818608E-02  0.1032062E+00
         -2   -1    0    0    0  501 -0.00000000000E+00  0.00000000000E+00  0.69282274160E+02  0.69282274207E+02  0.25500000000E-02 0. -1.
          2   -1    0    0  501    0  0.00000000000E+00 -0.00000000000E+00 -0.68512975963E+03  0.68512975963E+03  0.25500000000E-02 0.  1.
    5000001    1    1    2    0    0 -0.15464188891E+03 -0.29901968392E+01 -0.45701263213E+03  0.49891141600E+03  0.12700000000E+03 0.  0.
   -5000001    1    1    2    0    0  0.15464188891E+03  0.29901968392E+01 -0.15883485334E+03  0.25550061784E+03  0.12700000000E+03 0.  0.
<mgrwt>
<rscale>  0 0.43574005E+03</rscale>
<asrwt>0</asrwt>
<pdfrwt beam="1">  1        2 0.97875676E-01 0.43574005E+03</pdfrwt>
<pdfrwt beam="2">  1       -2 0.98974681E-02 0.43574005E+03</pdfrwt>
<totfact> 0.31984419E+03</totfact>
</mgrwt>
</event>
<event>
 4    1  0.1351183E-004  0.3403224E+03  0.7818608E-02  0.1066659E+00
          2   -1    0    0  501    0  0.00000000000E+00  0.00000000000E+00  0.76683321751E+03  0.76683321751E+03  0.25500000000E-02 0.  1.
         -2   -1    0    0    0  501 -0.00000000000E+00 -0.00000000000E+00 -0.37758974659E+02  0.37758974745E+02  0.25500000000E-02 0. -1.
    5000001    1    1    2    0    0  0.11094702777E+03  0.31705599829E+01  0.41774701757E+03  0.45051178243E+03  0.12700000000E+03 0.  0.
   -5000001    1    1    2    0    0 -0.11094702777E+03 -0.31705599829E+01  0.31132722528E+03  0.35408040983E+03  0.12700000000E+03 0.  0.
<mgrwt>
<rscale>  0 0.34032241E+03</rscale>
<asrwt>0</asrwt>
<pdfrwt beam="1">  1        2 0.10954759E+00 0.34032241E+03</pdfrwt>
<pdfrwt beam="2">  1       -2 0.53941399E-02 0.34032241E+03</pdfrwt>
<totfact> 0.71920061E+03</totfact>
</mgrwt>
</event>
<event>
 4    1  0.1351183E-004  0.4505436E+03  0.7818608E-02  0.1027560E+00
          2   -1    0    0  501    0  0.00000000000E+00  0.00000000000E+00  0.17300842230E+03  0.17300842232E+03  0.25500000000E-02 0.  1.
         -2   -1    0    0    0  501 -0.00000000000E+00 -0.00000000000E+00 -0.29332315352E+03  0.29332315353E+03  0.25500000000E-02 0. -1.
    5000001    1    1    2    0    0 -0.11042712541E+02  0.18559220777E+03 -0.52695943618E+02  0.23124072210E+03  0.12700000000E+03 0.  0.
   -5000001    1    1    2    0    0  0.11042712541E+02 -0.18559220777E+03 -0.67618787599E+02  0.23509085376E+03  0.12700000000E+03 0.  0.
<mgrwt>
<rscale>  0 0.45054357E+03</rscale>
<asrwt>0</asrwt>
<pdfrwt beam="1">  1        2 0.24715489E-01 0.45054357E+03</pdfrwt>
<pdfrwt beam="2">  1       -2 0.41903308E-01 0.45054357E+03</pdfrwt>
<totfact> 0.11967508E+03</totfact>
</mgrwt>
</event>
<event>
 4    1  0.1351183E-004  0.3160149E+03  0.7818608E-02  0.1077498E+00
          2   -1    0    0  501    0  0.00000000000E+00  0.00000000000E+00  0.64529020156E+03  0.64529020156E+03  0.25500000000E-02 0.  1.
         -2   -1    0    0    0  501 -0.00000000000E+00 -0.00000000000E+00 -0.38690109632E+02  0.38690109716E+02  0.25500000000E-02 0. -1.
    5000001    1    1    2    0    0 -0.56550514309E+02  0.51381213691E+02  0.42183605638E+03  0.44711592261E+03  0.12700000000E+03 0.  0.
   -5000001    1    1    2    0    0  0.56550514309E+02 -0.51381213691E+02  0.18476403555E+03  0.23686438867E+03  0.12700000000E+03 0.  0.
<mgrwt>
<rscale>  0 0.31601486E+03</rscale>
<asrwt>0</asrwt>
<pdfrwt beam="1">  1        2 0.92184308E-01 0.31601486E+03</pdfrwt>
<pdfrwt beam="2">  1       -2 0.55271589E-02 0.31601486E+03</pdfrwt>
<totfact> 0.85006461E+03</totfact>
</mgrwt>
</event>
<event>
 4    1  0.1351183E-004  0.5696821E+03  0.7818608E-02  0.9970382E-01
          2   -1    0    0  501    0  0.00000000000E+00  0.00000000000E+00  0.42508085699E+03  0.42508085700E+03  0.25500000000E-02 0.  1.
         -2   -1    0    0    0  501 -0.00000000000E+00 -0.00000000000E+00 -0.19086819243E+03  0.19086819245E+03  0.25500000000E-02 0. -1.
    5000001    1    1    2    0    0 -0.21900725337E+03  0.23050826948E+02  0.25603261767E+03  0.36080080233E+03  0.12700000000E+03 0.  0.
   -5000001    1    1    2    0    0  0.21900725337E+03 -0.23050826948E+02 -0.21819953107E+02  0.25514824711E+03  0.12700000000E+03 0.  0.
<mgrwt>
<rscale>  0 0.56968207E+03</rscale>
<asrwt>0</asrwt>
<pdfrwt beam="1">  1        2 0.60725837E-01 0.56968207E+03</pdfrwt>
<pdfrwt beam="2">  1       -2 0.27266885E-01 0.56968207E+03</pdfrwt>
<totfact> 0.98998265E+02</totfact>
</mgrwt>
</event>
<event>
 4    1  0.1351183E-004  0.5610908E+03  0.7818608E-02  0.9989590E-01
         -2   -1    0    0    0  501 -0.00000000000E+00  0.00000000000E+00  0.55836536607E+02  0.55836536665E+02  0.25500000000E-02 0. -1.
          2   -1    0    0  501    0  0.00000000000E+00 -0.00000000000E+00 -0.14095735982E+04  0.14095735982E+04  0.25500000000E-02 0.  1.
    5000001    1    1    2    0    0 -0.21785197770E+03 -0.12147478121E+03 -0.72649810462E+03  0.77855256899E+03  0.12700000000E+03 0.  0.
   -5000001    1    1    2    0    0  0.21785197770E+03  0.12147478121E+03 -0.62723895694E+03  0.68685756585E+03  0.12700000000E+03 0.  0.
<mgrwt>
<rscale>  0 0.56109075E+03</rscale>
<asrwt>0</asrwt>
<pdfrwt beam="1">  1        2 0.20136764E+00 0.56109075E+03</pdfrwt>
<pdfrwt beam="2">  1       -2 0.79766490E-02 0.56109075E+03</pdfrwt>
<totfact> 0.16363451E+03</totfact>
</mgrwt>
</event>
<event>
 4    1  0.1351183E-004  0.4598855E+03  0.7818608E-02  0.1024814E+00
          2   -1    0    0  501    0  0.00000000000E+00  0.00000000000E+00  0.10351573479E+03  0.10351573482E+03  0.25500000000E-02 0.  1.
         -2   -1    0    0    0  501 -0.00000000000E+00 -0.00000000000E+00 -0.51077908532E+03  0.51077908533E+03  0.25500000000E-02 0. -1.
    5000001    1    1    2    0    0 -0.16649247650E+03  0.90746850553E+02 -0.16608916805E+03  0.28225759044E+03  0.12700000000E+03 0.  0.
   -5000001    1    1    2    0    0  0.16649247650E+03 -0.90746850553E+02 -0.24117418248E+03  0.33203722971E+03  0.12700000000E+03 0.  0.
<mgrwt>
<rscale>  0 0.45988552E+03</rscale>
<asrwt>0</asrwt>
<pdfrwt beam="1">  1        2 0.14787962E-01 0.45988552E+03</pdfrwt>
<pdfrwt beam="2">  1       -2 0.72968439E-01 0.45988552E+03</pdfrwt>
<totfact> 0.69622090E+02</totfact>
</mgrwt>
</event>
<event>
 4    1  0.1351183E-004  0.5084408E+03  0.7818608E-02  0.1011599E+00
          2   -1    0    0  501    0  0.00000000000E+00  0.00000000000E+00  0.13052535287E+03  0.13052535290E+03  0.25500000000E-02 0.  1.
         -2   -1    0    0    0  501 -0.00000000000E+00 -0.00000000000E+00 -0.49513753169E+03  0.49513753169E+03  0.25500000000E-02 0. -1.
    5000001    1    1    2    0    0  0.48910619276E+00 -0.21415548348E+03 -0.11912480518E+03  0.27601182862E+03  0.12700000000E+03 0.  0.
   -5000001    1    1    2    0    0 -0.48910619276E+00  0.21415548348E+03 -0.24548737364E+03  0.34965105597E+03  0.12700000000E+03 0.  0.
<mgrwt>
<rscale>  0 0.50844076E+03</rscale>
<asrwt>0</asrwt>
<pdfrwt beam="1">  1        2 0.18646479E-01 0.50844076E+03</pdfrwt>
<pdfrwt beam="2">  1       -2 0.70733932E-01 0.50844076E+03</pdfrwt>
<totfact> 0.56521010E+02</totfact>
</mgrwt>
</event>
<event>
 4    1  0.1351183E-004  0.4149149E+03  0.7818608E-02  0.1038734E+00
          2   -1    0    0  501    0  0.00000000000E+00  0.00000000000E+00  0.36626180591E+04  0.36626180591E+04  0.25500000000E-02 0.  1.
         -2   -1    0    0    0  501 -0.00000000000E+00 -0.00000000000E+00 -0.11750775573E+02  0.11750775849E+02  0.25500000000E-02 0. -1.
    5000001    1    1    2    0    0 -0.74629287984E+02 -0.13926165687E+03  0.22161166311E+04  0.22253685678E+04  0.12700000000E+03 0.  0.
   -5000001    1    1    2    0    0  0.74629287984E+02  0.13926165687E+03  0.14347506524E+04  0.14490002671E+04  0.12700000000E+03 0.  0.
<mgrwt>
<rscale>  0 0.41491495E+03</rscale>
<asrwt>0</asrwt>
<pdfrwt beam="1">  1        2 0.52323162E+00 0.41491495E+03</pdfrwt>
<pdfrwt beam="2">  1       -2 0.16786807E-02 0.41491495E+03</pdfrwt>
<totfact> 0.11511985E+03</totfact>
</mgrwt>
</event>
<event>
 4    1  0.1351183E-004  0.3168616E+03  0.7818608E-02  0.1077103E+00
         -2   -1    0    0    0  501 -0.00000000000E+00  0.00000000000E+00  0.93347497419E+02  0.93347497454E+02  0.25500000000E-02 0. -1.
          2   -1    0    0  501    0  0.00000000000E+00 -0.00000000000E+00 -0.26889118368E+03  0.26889118369E+03  0.25500000000E-02 0.  1.
    5000001    1    1    2    0    0 -0.81397819027E+02 -0.48394171529E+02 -0.85567406684E+02  0.18005105350E+03  0.12700000000E+03 0.  0.
   -5000001    1    1    2    0    0  0.81397819027E+02  0.48394171529E+02 -0.89976279577E+02  0.18218762765E+03  0.12700000000E+03 0.  0.
<mgrwt>
<rscale>  0 0.31686160E+03</rscale>
<asrwt>0</asrwt>
<pdfrwt beam="1">  1        2 0.38413026E-01 0.31686160E+03</pdfrwt>
<pdfrwt beam="2">  1       -2 0.13335357E-01 0.31686160E+03</pdfrwt>
<totfact> 0.55533487E+03</totfact>
</mgrwt>
</event>
<event>
 4    1  0.1351183E-004  0.4716810E+03  0.7818608E-02  0.1021447E+00
          2   -1    0    0  501    0  0.00000000000E+00  0.00000000000E+00  0.39567726023E+03  0.39567726024E+03  0.25500000000E-02 0.  1.
         -2   -1    0    0    0  501 -0.00000000000E+00 -0.00000000000E+00 -0.14057100960E+03  0.14057100962E+03  0.25500000000E-02 0. -1.
    5000001    1    1    2    0    0 -0.16271231565E+03 -0.28782708009E+02  0.25306472982E+03  0.32783303589E+03  0.12700000000E+03 0.  0.
   -5000001    1    1    2    0    0  0.16271231565E+03  0.28782708009E+02  0.20415208154E+01  0.20841523397E+03  0.12700000000E+03 0.  0.
<mgrwt>
<rscale>  0 0.47168104E+03</rscale>
<asrwt>0</asrwt>
<pdfrwt beam="1">  1        2 0.56525323E-01 0.47168104E+03</pdfrwt>
<pdfrwt beam="2">  1       -2 0.20081573E-01 0.47168104E+03</pdfrwt>
<totfact> 0.18435247E+03</totfact>
</mgrwt>
</event>
<event>
 4    1  0.1351183E-004  0.4263762E+03  0.7818608E-02  0.1035011E+00
         -2   -1    0    0    0  501 -0.00000000000E+00  0.00000000000E+00  0.15257081490E+02  0.15257081703E+02  0.25500000000E-02 0. -1.
          2   -1    0    0  501    0  0.00000000000E+00 -0.00000000000E+00 -0.29788905162E+04  0.29788905162E+04  0.25500000000E-02 0.  1.
    5000001    1    1    2    0    0  0.11058833076E+03  0.12408143001E+03 -0.11927740431E+04  0.12109768363E+04  0.12700000000E+03 0.  0.
   -5000001    1    1    2    0    0 -0.11058833076E+03 -0.12408143001E+03 -0.17708593917E+04  0.17831707616E+04  0.12700000000E+03 0.  0.
<mgrwt>
<rscale>  0 0.42637625E+03</rscale>
<asrwt>0</asrwt>
<pdfrwt beam="1">  1        2 0.42555542E+00 0.42637625E+03</pdfrwt>
<pdfrwt beam="2">  1       -2 0.21795850E-02 0.42637625E+03</pdfrwt>
<totfact> 0.19096023E+03</totfact>
</mgrwt>
</event>
<event>
 4    1  0.1351183E-004  0.6094139E+03  0.7818608E-02  0.9886065E-01
         -2   -1    0    0    0  501 -0.00000000000E+00  0.00000000000E+00  0.91991089566E+02  0.91991089602E+02  0.25500000000E-02 0. -1.
          2   -1    0    0  501    0  0.00000000000E+00 -0.00000000000E+00 -0.10092970690E+04  0.10092970690E+04  0.25500000000E-02 0.  1.
    5000001    1    1    2    0    0  0.10934167546E+03  0.21705600186E+03 -0.21858094589E+03  0.35067868461E+03  0.12700000000E+03 0.  0.
   -5000001    1    1    2    0    0 -0.10934167546E+03 -0.21705600186E+03 -0.69872503352E+03  0.75060947396E+03  0.12700000000E+03 0.  0.
<mgrwt>
<rscale>  0 0.60941394E+03</rscale>
<asrwt>0</asrwt>
<pdfrwt beam="1">  1        2 0.14418529E+00 0.60941394E+03</pdfrwt>
<pdfrwt beam="2">  1       -2 0.13141585E-01 0.60941394E+03</pdfrwt>
<totfact> 0.12187227E+03</totfact>
</mgrwt>
</event>
<event>
 4    1  0.1351183E-004  0.3465203E+03  0.7818608E-02  0.1064052E+00
         -2   -1    0    0    0  501 -0.00000000000E+00  0.00000000000E+00  0.42101987571E+02  0.42101987649E+02  0.25500000000E-02 0. -1.
          2   -1    0    0  501    0  0.00000000000E+00 -0.00000000000E+00 -0.71300873066E+03  0.71300873066E+03  0.25500000000E-02 0.  1.
    5000001    1    1    2    0    0 -0.11018255855E+03 -0.34060933966E+02 -0.28253424184E+03  0.33053735227E+03  0.12700000000E+03 0.  0.
   -5000001    1    1    2    0    0  0.11018255855E+03  0.34060933966E+02 -0.38837250125E+03  0.42457336604E+03  0.12700000000E+03 0.  0.
<mgrwt>
<rscale>  0 0.34652033E+03</rscale>
<asrwt>0</asrwt>
<pdfrwt beam="1">  1        2 0.10185838E+00 0.34652033E+03</pdfrwt>
<pdfrwt beam="2">  1       -2 0.60145701E-02 0.34652033E+03</pdfrwt>
<totfact> 0.66490344E+03</totfact>
</mgrwt>
</event>
<event>
 4    1  0.1351183E-004  0.5084054E+03  0.7818608E-02  0.1011608E+00
          2   -1    0    0  501    0  0.00000000000E+00  0.00000000000E+00  0.10872770443E+04  0.10872770443E+04  0.25500000000E-02 0.  1.
         -2   -1    0    0    0  501 -0.00000000000E+00 -0.00000000000E+00 -0.59431954754E+02  0.59431954809E+02  0.25500000000E-02 0. -1.
    5000001    1    1    2    0    0 -0.60057951053E+02  0.10207623327E+03  0.93264158100E+03  0.94867056109E+03  0.12700000000E+03 0.  0.
   -5000001    1    1    2    0    0  0.60057951053E+02 -0.10207623327E+03  0.95203508503E+02  0.19803843797E+03  0.12700000000E+03 0.  0.
<mgrwt>
<rscale>  0 0.50840535E+03</rscale>
<asrwt>0</asrwt>
<pdfrwt beam="1">  1        2 0.15532529E+00 0.50840535E+03</pdfrwt>
<pdfrwt beam="2">  1       -2 0.84902793E-02 0.50840535E+03</pdfrwt>
<totfact> 0.22325727E+03</totfact>
</mgrwt>
</event>
<event>
 4    1  0.1351183E-004  0.4342504E+03  0.7818608E-02  0.1032526E+00
         -2   -1    0    0    0  501 -0.00000000000E+00  0.00000000000E+00  0.16335905010E+02  0.16335905209E+02  0.25500000000E-02 0. -1.
          2   -1    0    0  501    0  0.00000000000E+00 -0.00000000000E+00 -0.28858733872E+04  0.28858733872E+04  0.25500000000E-02 0.  1.
    5000001    1    1    2    0    0  0.50405948524E+02 -0.16456464814E+03 -0.11854131279E+04  0.12045561701E+04  0.12700000000E+03 0.  0.
   -5000001    1    1    2    0    0 -0.50405948524E+02  0.16456464814E+03 -0.16841243542E+04  0.16976531223E+04  0.12700000000E+03 0.  0.
<mgrwt>
<rscale>  0 0.43425041E+03</rscale>
<asrwt>0</asrwt>
<pdfrwt beam="1">  1        2 0.41226730E+00 0.43425041E+03</pdfrwt>
<pdfrwt beam="2">  1       -2 0.23337026E-02 0.43425041E+03</pdfrwt>
<totfact> 0.19314838E+03</totfact>
</mgrwt>
</event>
<event>
 4    1  0.1351183E-004  0.3220272E+03  0.7818608E-02  0.1074720E+00
          2   -1    0    0  501    0  0.00000000000E+00  0.00000000000E+00  0.49347918235E+02  0.49347918300E+02  0.25500000000E-02 0.  1.
         -2   -1    0    0    0  501 -0.00000000000E+00 -0.00000000000E+00 -0.52535923071E+03  0.52535923072E+03  0.25500000000E-02 0. -1.
    5000001    1    1    2    0    0  0.50590574200E+02 -0.30793412451E+02 -0.96479745769E+02  0.17013224795E+03  0.12700000000E+03 0.  0.
   -5000001    1    1    2    0    0 -0.50590574200E+02  0.30793412451E+02 -0.37953156671E+03  0.40457490107E+03  0.12700000000E+03 0.  0.
<mgrwt>
<rscale>  0 0.32202723E+03</rscale>
<asrwt>0</asrwt>
<pdfrwt beam="1">  1        2 0.70497029E-02 0.32202723E+03</pdfrwt>
<pdfrwt beam="2">  1       -2 0.75051315E-01 0.32202723E+03</pdfrwt>
<totfact> 0.16477319E+03</totfact>
</mgrwt>
</event>
<event>
 4    1  0.1351183E-004  0.2618796E+03  0.7818608E-02  0.1106019E+00
         -2   -1    0    0    0  501 -0.00000000000E+00  0.00000000000E+00  0.86349816214E+03  0.86349816214E+03  0.25500000000E-02 0. -1.
          2   -1    0    0  501    0  0.00000000000E+00 -0.00000000000E+00 -0.19855551023E+02  0.19855551187E+02  0.25500000000E-02 0.  1.
    5000001    1    1    2    0    0  0.60890934352E+01  0.19593907248E+02  0.50411691996E+03  0.52027287768E+03  0.12700000000E+03 0.  0.
   -5000001    1    1    2    0    0 -0.60890934352E+01 -0.19593907248E+02  0.33952569115E+03  0.36308083565E+03  0.12700000000E+03 0.  0.
<mgrwt>
<rscale>  0 0.26187961E+03</rscale>
<asrwt>0</asrwt>
<pdfrwt beam="1">  1        2 0.28365078E-02 0.26187961E+03</pdfrwt>
<pdfrwt beam="2">  1       -2 0.12335686E+00 0.26187961E+03</pdfrwt>
<totfact> 0.17521630E+03</totfact>
</mgrwt>
</event>
<event>
 4    1  0.1351183E-004  0.9478823E+03  0.7818608E-02  0.9367629E-01
          2   -1    0    0  501    0  0.00000000000E+00  0.00000000000E+00  0.64906505567E+03  0.64906505568E+03  0.25500000000E-02 0.  1.
         -2   -1    0    0    0  501 -0.00000000000E+00 -0.00000000000E+00 -0.34606736240E+03  0.34606736241E+03  0.25500000000E-02 0. -1.
    5000001    1    1    2    0    0 -0.17456956297E+03 -0.32315256220E+03 -0.13329673744E+03  0.41085171411E+03  0.12700000000E+03 0.  0.
   -5000001    1    1    2    0    0  0.17456956297E+03  0.32315256220E+03  0.43629443071E+03  0.58428070398E+03  0.12700000000E+03 0.  0.
<mgrwt>
<rscale>  0 0.94788234E+03</rscale>
<asrwt>0</asrwt>
<pdfrwt beam="1">  1        2 0.92723579E-01 0.94788234E+03</pdfrwt>
<pdfrwt beam="2">  1       -2 0.49438195E-01 0.94788234E+03</pdfrwt>
<totfact> 0.19131801E+02</totfact>
</mgrwt>
</event>
<event>
 4    1  0.1351183E-004  0.5416354E+03  0.7818608E-02  0.1003449E+00
          2   -1    0    0  501    0  0.00000000000E+00  0.00000000000E+00  0.21163158547E+04  0.21163158547E+04  0.25500000000E-02 0.  1.
         -2   -1    0    0    0  501 -0.00000000000E+00 -0.00000000000E+00 -0.34655618306E+02  0.34655618400E+02  0.25500000000E-02 0. -1.
    5000001    1    1    2    0    0 -0.85109552937E+02  0.11089782406E+03  0.18116141765E+04  0.18214326471E+04  0.12700000000E+03 0.  0.
   -5000001    1    1    2    0    0  0.85109552937E+02 -0.11089782406E+03  0.27004605986E+03  0.32953882598E+03  0.12700000000E+03 0.  0.
<mgrwt>
<rscale>  0 0.54163543E+03</rscale>
<asrwt>0</asrwt>
<pdfrwt beam="1">  1        2 0.30233078E+00 0.54163543E+03</pdfrwt>
<pdfrwt beam="2">  1       -2 0.49508036E-02 0.54163543E+03</pdfrwt>
<totfact> 0.15134969E+03</totfact>
</mgrwt>
</event>
<event>
 4    1  0.1351183E-004  0.4457926E+03  0.7818608E-02  0.1028984E+00
          2   -1    0    0  501    0  0.00000000000E+00  0.00000000000E+00  0.33089489005E+04  0.33089489005E+04  0.25500000000E-02 0.  1.
         -2   -1    0    0    0  501 -0.00000000000E+00 -0.00000000000E+00 -0.15014664885E+02  0.15014665102E+02  0.25500000000E-02 0. -1.
    5000001    1    1    2    0    0  0.98637674487E+02 -0.12691423017E+03  0.99195131154E+03  0.10128835161E+04  0.12700000000E+03 0.  0.
   -5000001    1    1    2    0    0 -0.98637674487E+02  0.12691423017E+03  0.23019829240E+04  0.23110800495E+04  0.12700000000E+03 0.  0.
<mgrwt>
<rscale>  0 0.44579259E+03</rscale>
<asrwt>0</asrwt>
<pdfrwt beam="1">  1        2 0.47270703E+00 0.44579259E+03</pdfrwt>
<pdfrwt beam="2">  1       -2 0.21449519E-02 0.44579259E+03</pdfrwt>
<totfact> 0.12841702E+03</totfact>
</mgrwt>
</event>
<event>
 4    1  0.1351183E-004  0.4677679E+03  0.7818608E-02  0.1022552E+00
          2   -1    0    0  501    0  0.00000000000E+00  0.00000000000E+00  0.17115385575E+04  0.17115385575E+04  0.25500000000E-02 0.  1.
         -2   -1    0    0    0  501 -0.00000000000E+00 -0.00000000000E+00 -0.31960543643E+02  0.31960543745E+02  0.25500000000E-02 0. -1.
    5000001    1    1    2    0    0  0.17893605548E+03  0.29132291476E+02  0.11213376289E+04  0.11429758879E+04  0.12700000000E+03 0.  0.
   -5000001    1    1    2    0    0 -0.17893605548E+03 -0.29132291476E+02  0.55824038497E+03  0.60052321335E+03  0.12700000000E+03 0.  0.
<mgrwt>
<rscale>  0 0.46776790E+03</rscale>
<asrwt>0</asrwt>
<pdfrwt beam="1">  1        2 0.24450549E+00 0.46776790E+03</pdfrwt>
<pdfrwt beam="2">  1       -2 0.45657924E-02 0.46776790E+03</pdfrwt>
<totfact> 0.27415337E+03</totfact>
</mgrwt>
</event>
<event>
 4    1  0.1351183E-004  0.6932570E+03  0.7818608E-02  0.9728834E-01
         -2   -1    0    0    0  501 -0.00000000000E+00  0.00000000000E+00  0.79494537135E+02  0.79494537176E+02  0.25500000000E-02 0. -1.
          2   -1    0    0  501    0  0.00000000000E+00 -0.00000000000E+00 -0.15114410168E+04  0.15114410168E+04  0.25500000000E-02 0.  1.
    5000001    1    1    2    0    0  0.15812704372E+03 -0.24525604818E+03 -0.40075101735E+03  0.51174707525E+03  0.12700000000E+03 0.  0.
   -5000001    1    1    2    0    0 -0.15812704372E+03  0.24525604818E+03 -0.10311954623E+04  0.10791884787E+04  0.12700000000E+03 0.  0.
<mgrwt>
<rscale>  0 0.69325696E+03</rscale>
<asrwt>0</asrwt>
<pdfrwt beam="1">  1        2 0.21592013E+00 0.69325696E+03</pdfrwt>
<pdfrwt beam="2">  1       -2 0.11356363E-01 0.69325696E+03</pdfrwt>
<totfact> 0.81324991E+02</totfact>
</mgrwt>
</event>
<event>
 4    1  0.1351183E-004  0.3232201E+03  0.7818608E-02  0.1074177E+00
          2   -1    0    0  501    0  0.00000000000E+00  0.00000000000E+00  0.33422647992E+03  0.33422647993E+03  0.25500000000E-02 0.  1.
         -2   -1    0    0    0  501 -0.00000000000E+00 -0.00000000000E+00 -0.78144066320E+02  0.78144066361E+02  0.25500000000E-02 0. -1.
    5000001    1    1    2    0    0  0.90269141672E+02  0.42793604608E+02  0.12421253880E+03  0.20380766749E+03  0.12700000000E+03 0.  0.
   -5000001    1    1    2    0    0 -0.90269141672E+02 -0.42793604608E+02  0.13186987481E+03  0.20856287880E+03  0.12700000000E+03 0.  0.
<mgrwt>
<rscale>  0 0.32322015E+03</rscale>
<asrwt>0</asrwt>
<pdfrwt beam="1">  1        2 0.47746640E-01 0.32322015E+03</pdfrwt>
<pdfrwt beam="2">  1       -2 0.11163438E-01 0.32322015E+03</pdfrwt>
<totfact> 0.58608345E+03</totfact>
</mgrwt>
</event>
<event>
 4    1  0.1351183E-004  0.3153679E+03  0.7818608E-02  0.1077801E+00
          2   -1    0    0  501    0  0.00000000000E+00  0.00000000000E+00  0.79594049701E+03  0.79594049701E+03  0.25500000000E-02 0.  1.
         -2   -1    0    0    0  501 -0.00000000000E+00 -0.00000000000E+00 -0.31238811884E+02  0.31238811988E+02  0.25500000000E-02 0. -1.
    5000001    1    1    2    0    0 -0.85155725873E+02 -0.18482044220E+02  0.47099376051E+03  0.49553729027E+03  0.12700000000E+03 0.  0.
   -5000001    1    1    2    0    0  0.85155725873E+02  0.18482044220E+02  0.29370792462E+03  0.33164201873E+03  0.12700000000E+03 0.  0.
<mgrwt>
<rscale>  0 0.31536795E+03</rscale>
<asrwt>0</asrwt>
<pdfrwt beam="1">  1        2 0.11370577E+00 0.31536795E+03</pdfrwt>
<pdfrwt beam="2">  1       -2 0.44626880E-02 0.31536795E+03</pdfrwt>
<totfact> 0.91512658E+03</totfact>
</mgrwt>
</event>
<event>
 4    1  0.1351183E-004  0.6564377E+03  0.7818608E-02  0.9794774E-01
         -2   -1    0    0    0  501 -0.00000000000E+00  0.00000000000E+00  0.60471081937E+02  0.60471081991E+02  0.25500000000E-02 0.  1.
          2   -1    0    0  501    0  0.00000000000E+00 -0.00000000000E+00 -0.17814729636E+04  0.17814729636E+04  0.25500000000E-02 0. -1.
    5000001    1    1    2    0    0 -0.24243398111E+03 -0.13040139941E+03 -0.50757469357E+03  0.59121893552E+03  0.12700000000E+03 0.  0.
   -5000001    1    1    2    0    0  0.24243398111E+03  0.13040139941E+03 -0.12134271881E+04  0.12507251101E+04  0.12700000000E+03 0.  0.
<mgrwt>
<rscale>  0 0.65643765E+03</rscale>
<asrwt>0</asrwt>
<pdfrwt beam="1">  1        2 0.25449610E+00 0.65643765E+03</pdfrwt>
<pdfrwt beam="2">  1       -2 0.86387271E-02 0.65643765E+03</pdfrwt>
<totfact> 0.92280030E+02</totfact>
</mgrwt>
</event>
<event>
 4    1  0.1351183E-004  0.5126477E+03  0.7818608E-02  0.1010529E+00
          2   -1    0    0  501    0  0.00000000000E+00  0.00000000000E+00  0.43135829783E+03  0.43135829783E+03  0.25500000000E-02 0.  1.
         -2   -1    0    0    0  501 -0.00000000000E+00 -0.00000000000E+00 -0.15231400711E+03  0.15231400713E+03  0.25500000000E-02 0. -1.
    5000001    1    1    2    0    0  0.61579139770E+02  0.19842705541E+03  0.48384332313E+02  0.24826463781E+03  0.12700000000E+03 0.  0.
   -5000001    1    1    2    0    0 -0.61579139770E+02 -0.19842705541E+03  0.23065995841E+03  0.33540766715E+03  0.12700000000E+03 0.  0.
<mgrwt>
<rscale>  0 0.51264768E+03</rscale>
<asrwt>0</asrwt>
<pdfrwt beam="1">  1        2 0.61622614E-01 0.51264768E+03</pdfrwt>
<pdfrwt beam="2">  1       -2 0.21759144E-01 0.51264768E+03</pdfrwt>
<totfact> 0.14572622E+03</totfact>
</mgrwt>
</event>
<event>
 4    1  0.1351183E-004  0.2754466E+03  0.7818608E-02  0.1098202E+00
         -2   -1    0    0    0  501 -0.00000000000E+00  0.00000000000E+00  0.21181450162E+02  0.21181450316E+02  0.25500000000E-02 0. -1.
          2   -1    0    0  501    0  0.00000000000E+00 -0.00000000000E+00 -0.89548674013E+03  0.89548674013E+03  0.25500000000E-02 0.  1.
    5000001    1    1    2    0    0  0.51347332651E+02 -0.39939164616E+01 -0.48256497436E+03  0.50164773937E+03  0.12700000000E+03 0.  0.
   -5000001    1    1    2    0    0 -0.51347332651E+02  0.39939164616E+01 -0.39174031560E+03  0.41502045107E+03  0.12700000000E+03 0.  0.
<mgrwt>
<rscale>  0 0.27544660E+03</rscale>
<asrwt>0</asrwt>
<pdfrwt beam="1">  1        2 0.12792665E+00 0.27544660E+03</pdfrwt>
<pdfrwt beam="2">  1       -2 0.30259220E-02 0.27544660E+03</pdfrwt>
<totfact> 0.14063433E+04</totfact>
</mgrwt>
</event>
<event>
 4    1  0.1351183E-004  0.4533008E+03  0.7818608E-02  0.1026742E+00
         -2   -1    0    0    0  501 -0.00000000000E+00  0.00000000000E+00  0.15256833133E+03  0.15256833136E+03  0.25500000000E-02 0. -1.
          2   -1    0    0  501    0  0.00000000000E+00 -0.00000000000E+00 -0.33670426799E+03  0.33670426799E+03  0.25500000000E-02 0.  1.
    5000001    1    1    2    0    0 -0.16539231742E+03  0.37359507919E+02 -0.17902848191E+03  0.27736356796E+03  0.12700000000E+03 0.  0.
   -5000001    1    1    2    0    0  0.16539231742E+03 -0.37359507919E+02 -0.51074547381E+01  0.21190903139E+03  0.12700000000E+03 0.  0.
<mgrwt>
<rscale>  0 0.45330082E+03</rscale>
<asrwt>0</asrwt>
<pdfrwt beam="1">  1        2 0.48100610E-01 0.45330082E+03</pdfrwt>
<pdfrwt beam="2">  1       -2 0.21795476E-01 0.45330082E+03</pdfrwt>
<totfact> 0.19077906E+03</totfact>
</mgrwt>
</event>
<event>
 4    1  0.1351183E-004  0.6152681E+03  0.7818608E-02  0.9874226E-01
          2   -1    0    0  501    0  0.00000000000E+00  0.00000000000E+00  0.68079957849E+03  0.68079957850E+03  0.25500000000E-02 0.  1.
         -2   -1    0    0    0  501 -0.00000000000E+00 -0.00000000000E+00 -0.13901111107E+03  0.13901111110E+03  0.25500000000E-02 0. -1.
    5000001    1    1    2    0    0  0.19592543845E+03 -0.96090453484E+02  0.50507703553E+03  0.56466978359E+03  0.12700000000E+03 0.  0.
   -5000001    1    1    2    0    0 -0.19592543845E+03  0.96090453484E+02  0.36711431887E+02  0.25514090600E+03  0.12700000000E+03 0.  0.
<mgrwt>
<rscale>  0 0.61526809E+03</rscale>
<asrwt>0</asrwt>
<pdfrwt beam="1">  1        2 0.97257083E-01 0.61526809E+03</pdfrwt>
<pdfrwt beam="2">  1       -2 0.19858730E-01 0.61526809E+03</pdfrwt>
<totfact> 0.10086677E+03</totfact>
</mgrwt>
</event>
<event>
 4    1  0.1351183E-004  0.3532291E+03  0.7818608E-02  0.1061297E+00
          2   -1    0    0  501    0  0.00000000000E+00  0.00000000000E+00  0.36608941542E+04  0.36608941542E+04  0.25500000000E-02 0.  1.
         -2   -1    0    0    0  501 -0.00000000000E+00 -0.00000000000E+00 -0.85205114178E+01  0.85205117993E+01  0.25500000000E-02 0. -1.
    5000001    1    1    2    0    0 -0.27840022116E+02  0.10231628582E+03  0.24682417255E+04  0.24737804884E+04  0.12700000000E+03 0.  0.
   -5000001    1    1    2    0    0  0.27840022116E+02 -0.10231628582E+03  0.11841319173E+04  0.11956341776E+04  0.12700000000E+03 0.  0.
<mgrwt>
<rscale>  0 0.35322905E+03</rscale>
<asrwt>0</asrwt>
<pdfrwt beam="1">  1        2 0.52298555E+00 0.35322905E+03</pdfrwt>
<pdfrwt beam="2">  1       -2 0.12172144E-02 0.35322905E+03</pdfrwt>
<totfact> 0.18689877E+03</totfact>
</mgrwt>
</event>
<event>
 4    1  0.1351183E-004  0.3534873E+03  0.7818608E-02  0.1061193E+00
         -2   -1    0    0    0  501 -0.00000000000E+00  0.00000000000E+00  0.15943058120E+02  0.15943058324E+02  0.25500000000E-02 0. -1.
          2   -1    0    0  501    0  0.00000000000E+00 -0.00000000000E+00 -0.19593677144E+04  0.19593677144E+04  0.25500000000E-02 0.  1.
    5000001    1    1    2    0    0 -0.11337667468E+03 -0.15854954302E+02 -0.72157756538E+03  0.74155838125E+03  0.12700000000E+03 0.  0.
   -5000001    1    1    2    0    0  0.11337667468E+03  0.15854954302E+02 -0.12218470909E+04  0.12337523915E+04  0.12700000000E+03 0.  0.
<mgrwt>
<rscale>  0 0.35348728E+03</rscale>
<asrwt>0</asrwt>
<pdfrwt beam="1">  1        2 0.27990952E+00 0.35348728E+03</pdfrwt>
<pdfrwt beam="2">  1       -2 0.22775810E-02 0.35348728E+03</pdfrwt>
<totfact> 0.59067824E+03</totfact>
</mgrwt>
</event>
<event>
 4    1  0.1351183E-004  0.1199105E+04  0.7818608E-02  0.9113640E-01
          2   -1    0    0  501    0  0.00000000000E+00  0.00000000000E+00  0.18913854175E+04  0.18913854175E+04  0.25500000000E-02 0.  1.
         -2   -1    0    0    0  501 -0.00000000000E+00 -0.00000000000E+00 -0.19005282132E+03  0.19005282134E+03  0.25500000000E-02 0. -1.
    5000001    1    1    2    0    0  0.30817774502E+03 -0.20556704699E+03  0.16387063701E+04  0.16848498155E+04  0.12700000000E+03 0.  0.
   -5000001    1    1    2    0    0 -0.30817774502E+03  0.20556704699E+03  0.62626226058E+02  0.39658842334E+03  0.12700000000E+03 0.  0.
<mgrwt>
<rscale>  0 0.11991049E+04</rscale>
<asrwt>0</asrwt>
<pdfrwt beam="1">  1        2 0.27019792E+00 0.11991049E+04</pdfrwt>
<pdfrwt beam="2">  1       -2 0.27150403E-01 0.11991049E+04</pdfrwt>
<totfact> 0.11113502E+02</totfact>
</mgrwt>
</event>
<event>
 4    1  0.1351183E-004  0.2942724E+03  0.7818608E-02  0.1088139E+00
          2   -1    0    0  501    0  0.00000000000E+00  0.00000000000E+00  0.13082539340E+04  0.13082539340E+04  0.25500000000E-02 0. -1.
         -2   -1    0    0    0  501 -0.00000000000E+00 -0.00000000000E+00 -0.16548061892E+02  0.16548062089E+02  0.25500000000E-02 0.  1.
    5000001    1    1    2    0    0 -0.69563651860E+02 -0.17911964620E+01  0.76305585825E+03  0.77667596387E+03  0.12700000000E+03 0.  0.
   -5000001    1    1    2    0    0  0.69563651860E+02  0.17911964620E+01  0.52865001384E+03  0.54812603221E+03  0.12700000000E+03 0.  0.
<mgrwt>
<rscale>  0 0.29427244E+03</rscale>
<asrwt>0</asrwt>
<pdfrwt beam="1">  1        2 0.18689341E+00 0.29427244E+03</pdfrwt>
<pdfrwt beam="2">  1       -2 0.23640090E-02 0.29427244E+03</pdfrwt>
<totfact> 0.11848091E+04</totfact>
</mgrwt>
</event>
<event>
 4    1  0.1351183E-004  0.3463183E+03  0.7818608E-02  0.1064136E+00
          2   -1    0    0  501    0  0.00000000000E+00  0.00000000000E+00  0.66832439940E+03  0.66832439940E+03  0.25500000000E-02 0.  1.
         -2   -1    0    0    0  501 -0.00000000000E+00 -0.00000000000E+00 -0.44864577925E+02  0.44864577998E+02  0.25500000000E-02 0. -1.
    5000001    1    1    2    0    0  0.50665766878E+01 -0.10580626819E+03  0.41742981925E+03  0.44899586923E+03  0.12700000000E+03 0.  0.
   -5000001    1    1    2    0    0 -0.50665766878E+01  0.10580626819E+03  0.20603000222E+03  0.26419310817E+03  0.12700000000E+03 0.  0.
<mgrwt>
<rscale>  0 0.34631831E+03</rscale>
<asrwt>0</asrwt>
<pdfrwt beam="1">  1        2 0.95474910E-01 0.34631831E+03</pdfrwt>
<pdfrwt beam="2">  1       -2 0.64092257E-02 0.34631831E+03</pdfrwt>
<totfact> 0.65102724E+03</totfact>
</mgrwt>
</event>
<event>
 4    1  0.1351183E-004  0.3678074E+03  0.7818608E-02  0.1055535E+00
          2   -1    0    0  501    0  0.00000000000E+00  0.00000000000E+00  0.48404720066E+03  0.48404720067E+03  0.25500000000E-02 0.  1.
         -2   -1    0    0    0  501 -0.00000000000E+00 -0.00000000000E+00 -0.69870398527E+02  0.69870398574E+02  0.25500000000E-02 0. -1.
    5000001    1    1    2    0    0  0.13809782540E+01 -0.10208409618E+03  0.33548311083E+03  0.37296244777E+03  0.12700000000E+03 0.  0.
   -5000001    1    1    2    0    0 -0.13809782540E+01  0.10208409618E+03  0.78693691302E+02  0.18095515147E+03  0.12700000000E+03 0.  0.
<mgrwt>
<rscale>  0 0.36780740E+03</rscale>
<asrwt>0</asrwt>
<pdfrwt beam="1">  1        2 0.69149598E-01 0.36780740E+03</pdfrwt>
<pdfrwt beam="2">  1       -2 0.99814858E-02 0.36780740E+03</pdfrwt>
<totfact> 0.46950177E+03</totfact>
</mgrwt>
</event>
<event>
 4    1  0.1351183E-004  0.3170217E+03  0.7818608E-02  0.1077028E+00
         -2   -1    0    0    0  501 -0.00000000000E+00  0.00000000000E+00  0.36551407132E+02  0.36551407221E+02  0.25500000000E-02 0. -1.
          2   -1    0    0  501    0  0.00000000000E+00 -0.00000000000E+00 -0.68740710646E+03  0.68740710647E+03  0.25500000000E-02 0.  1.
    5000001    1    1    2    0    0 -0.30899388875E+02  0.88037046135E+02 -0.36441054593E+03  0.39702561594E+03  0.12700000000E+03 0.  0.
   -5000001    1    1    2    0    0  0.30899388875E+02 -0.88037046135E+02 -0.28644515340E+03  0.32693289775E+03  0.12700000000E+03 0.  0.
<mgrwt>
<rscale>  0 0.31702175E+03</rscale>
<asrwt>0</asrwt>
<pdfrwt beam="1">  1        2 0.98201007E-01 0.31702175E+03</pdfrwt>
<pdfrwt beam="2">  1       -2 0.52216300E-02 0.31702175E+03</pdfrwt>
<totfact> 0.86093456E+03</totfact>
</mgrwt>
</event>
<event>
 4    1  0.1351183E-004  0.3025139E+03  0.7818608E-02  0.1083991E+00
         -2   -1    0    0    0  501 -0.00000000000E+00  0.00000000000E+00  0.81961771516E+01  0.81961775483E+01  0.25500000000E-02 0. -1.
          2   -1    0    0  501    0  0.00000000000E+00 -0.00000000000E+00 -0.27913828028E+04  0.27913828028E+04  0.25500000000E-02 0.  1.
    5000001    1    1    2    0    0  0.72994868678E+02 -0.24802221038E+02 -0.16543700577E+04  0.16610276003E+04  0.12700000000E+03 0.  0.
   -5000001    1    1    2    0    0 -0.72994868678E+02  0.24802221038E+02 -0.11288165680E+04  0.11385513801E+04  0.12700000000E+03 0.  0.
<mgrwt>
<rscale>  0 0.30251392E+03</rscale>
<asrwt>0</asrwt>
<pdfrwt beam="1">  1        2 0.39876836E+00 0.30251392E+03</pdfrwt>
<pdfrwt beam="2">  1       -2 0.11708843E-02 0.30251392E+03</pdfrwt>
<totfact> 0.60441646E+03</totfact>
</mgrwt>
</event>
<event>
 4    1  0.1351183E-004  0.5561393E+03  0.7818608E-02  0.1000083E+00
          2   -1    0    0  501    0  0.00000000000E+00  0.00000000000E+00  0.37407653009E+02  0.37407653096E+02  0.25500000000E-02 0.  1.
         -2   -1    0    0    0  501 -0.00000000000E+00 -0.00000000000E+00 -0.20670294142E+04  0.20670294142E+04  0.25500000000E-02 0. -1.
    5000001    1    1    2    0    0 -0.70285083421E+01  0.24644174957E+03 -0.93811734015E+03  0.97825154216E+03  0.12700000000E+03 0.  0.
   -5000001    1    1    2    0    0  0.70285083421E+01 -0.24644174957E+03 -0.10915044210E+04  0.11261855251E+04  0.12700000000E+03 0.  0.
<mgrwt>
<rscale>  0 0.55613926E+03</rscale>
<asrwt>0</asrwt>
<pdfrwt beam="1">  1        2 0.53439517E-02 0.55613926E+03</pdfrwt>
<pdfrwt beam="2">  1       -2 0.29528984E+00 0.55613926E+03</pdfrwt>
<totfact> 0.54365010E+01</totfact>
</mgrwt>
</event>
<event>
 4    1  0.1351183E-004  0.6501877E+03  0.7818608E-02  0.9806427E-01
          2   -1    0    0  501    0  0.00000000000E+00  0.00000000000E+00  0.97995409828E+03  0.97995409828E+03  0.25500000000E-02 0.  1.
         -2   -1    0    0    0  501 -0.00000000000E+00 -0.00000000000E+00 -0.10784792332E+03  0.10784792335E+03  0.25500000000E-02 0. -1.
    5000001    1    1    2    0    0 -0.21881418452E+03 -0.11851847879E+03  0.71415715613E+03  0.76686095272E+03  0.12700000000E+03 0.  0.
   -5000001    1    1    2    0    0  0.21881418452E+03  0.11851847879E+03  0.15794901883E+03  0.32094106891E+03  0.12700000000E+03 0.  0.
<mgrwt>
<rscale>  0 0.65018771E+03</rscale>
<asrwt>0</asrwt>
<pdfrwt beam="1">  1        2 0.13999344E+00 0.65018771E+03</pdfrwt>
<pdfrwt beam="2">  1       -2 0.15406846E-01 0.65018771E+03</pdfrwt>
<totfact> 0.97201481E+02</totfact>
</mgrwt>
</event>
<event>
 4    1  0.1351183E-004  0.3628100E+03  0.7818608E-02  0.1057477E+00
         -2   -1    0    0    0  501 -0.00000000000E+00  0.00000000000E+00  0.27926779566E+02  0.27926779682E+02  0.25500000000E-02 0. -1.
          2   -1    0    0  501    0  0.00000000000E+00 -0.00000000000E+00 -0.11783589607E+04  0.11783589607E+04  0.25500000000E-02 0.  1.
    5000001    1    1    2    0    0  0.25821630716E+02 -0.12511370972E+03 -0.64641538658E+03  0.67104548950E+03  0.12700000000E+03 0.  0.
   -5000001    1    1    2    0    0 -0.25821630716E+02  0.12511370972E+03 -0.50401679455E+03  0.53524025088E+03  0.12700000000E+03 0.  0.
<mgrwt>
<rscale>  0 0.36280998E+03</rscale>
<asrwt>0</asrwt>
<pdfrwt beam="1">  1        2 0.16833696E+00 0.36280998E+03</pdfrwt>
<pdfrwt beam="2">  1       -2 0.39895407E-02 0.36280998E+03</pdfrwt>
<totfact> 0.63882713E+03</totfact>
</mgrwt>
</event>
<event>
 4    1  0.1351183E-004  0.4225119E+03  0.7818608E-02  0.1036252E+00
          2   -1    0    0  501    0  0.00000000000E+00  0.00000000000E+00  0.33623240141E+03  0.33623240142E+03  0.25500000000E-02 0.  1.
         -2   -1    0    0    0  501 -0.00000000000E+00 -0.00000000000E+00 -0.13273282996E+03  0.13273282999E+03  0.25500000000E-02 0. -1.
    5000001    1    1    2    0    0  0.70849426888E+02 -0.15287388180E+03  0.90107882565E+02  0.22943080771E+03  0.12700000000E+03 0.  0.
   -5000001    1    1    2    0    0 -0.70849426888E+02  0.15287388180E+03  0.11339168889E+03  0.23953442370E+03  0.12700000000E+03 0.  0.
<mgrwt>
<rscale>  0 0.42251191E+03</rscale>
<asrwt>0</asrwt>
<pdfrwt beam="1">  1        2 0.48033200E-01 0.42251191E+03</pdfrwt>
<pdfrwt beam="2">  1       -2 0.18961833E-01 0.42251191E+03</pdfrwt>
<totfact> 0.24305527E+03</totfact>
</mgrwt>
</event>
<event>
 4    1  0.1351183E-004  0.4608797E+03  0.7818608E-02  0.1024526E+00
         -2   -1    0    0    0  501 -0.00000000000E+00  0.00000000000E+00  0.36457540815E+02  0.36457540904E+02  0.25500000000E-02 0. -1.
          2   -1    0    0  501    0  0.00000000000E+00 -0.00000000000E+00 -0.14565583377E+04  0.14565583377E+04  0.25500000000E-02 0.  1.
    5000001    1    1    2    0    0 -0.11434766438E+03  0.15101192145E+03 -0.81717652436E+03  0.84840229888E+03  0.12700000000E+03 0.  0.
   -5000001    1    1    2    0    0  0.11434766438E+03 -0.15101192145E+03 -0.60292427250E+03  0.64461357970E+03  0.12700000000E+03 0.  0.
<mgrwt>
<rscale>  0 0.46087975E+03</rscale>
<asrwt>0</asrwt>
<pdfrwt beam="1">  1        2 0.20807973E+00 0.46087975E+03</pdfrwt>
<pdfrwt beam="2">  1       -2 0.52082210E-02 0.46087975E+03</pdfrwt>
<totfact> 0.30211116E+03</totfact>
</mgrwt>
</event>
<event>
 4    1  0.1351183E-004  0.7764081E+03  0.7818608E-02  0.9594807E-01
          2   -1    0    0  501    0  0.00000000000E+00  0.00000000000E+00  0.12894129550E+04  0.12894129550E+04  0.25500000000E-02 0.  1.
         -2   -1    0    0    0  501 -0.00000000000E+00 -0.00000000000E+00 -0.11687675424E+03  0.11687675427E+03  0.25500000000E-02 0. -1.
    5000001    1    1    2    0    0 -0.17048746652E+03  0.32320312717E+03  0.64488083025E+03  0.75201497517E+03  0.12700000000E+03 0.  0.
   -5000001    1    1    2    0    0  0.17048746652E+03 -0.32320312717E+03  0.52765537051E+03  0.65427473410E+03  0.12700000000E+03 0.  0.
<mgrwt>
<rscale>  0 0.77640814E+03</rscale>
<asrwt>0</asrwt>
<pdfrwt beam="1">  1        2 0.18420185E+00 0.77640814E+03</pdfrwt>
<pdfrwt beam="2">  1       -2 0.16696679E-01 0.77640814E+03</pdfrwt>
<totfact> 0.55842695E+02</totfact>
</mgrwt>
</event>
<event>
 4    1  0.1351183E-004  0.6726072E+03  0.7818608E-02  0.9765259E-01
          2   -1    0    0  501    0  0.00000000000E+00  0.00000000000E+00  0.19154794150E+04  0.19154794150E+04  0.25500000000E-02 0.  1.
         -2   -1    0    0    0  501 -0.00000000000E+00 -0.00000000000E+00 -0.59045330079E+02  0.59045330134E+02  0.25500000000E-02 0. -1.
    5000001    1    1    2    0    0 -0.29838958158E+03  0.85531853422E+02  0.10012589921E+04  0.10559358927E+04  0.12700000000E+03 0.  0.
   -5000001    1    1    2    0    0  0.29838958158E+03 -0.85531853422E+02  0.85517509289E+03  0.91858885245E+03  0.12700000000E+03 0.  0.
<mgrwt>
<rscale>  0 0.67260721E+03</rscale>
<asrwt>0</asrwt>
<pdfrwt beam="1">  1        2 0.27363987E+00 0.67260721E+03</pdfrwt>
<pdfrwt beam="2">  1       -2 0.84350485E-02 0.67260721E+03</pdfrwt>
<totfact> 0.81956188E+02</totfact>
</mgrwt>
</event>
<event>
 4    1  0.1351183E-004  0.1100626E+04  0.7818608E-02  0.9204582E-01
         -2   -1    0    0    0  501 -0.00000000000E+00  0.00000000000E+00  0.20015185553E+03  0.20015185555E+03  0.25500000000E-02 0. -1.
          2   -1    0    0  501    0  0.00000000000E+00 -0.00000000000E+00 -0.15130736383E+04  0.15130736383E+04  0.25500000000E-02 0.  1.
    5000001    1    1    2    0    0  0.15845094615E+03 -0.38516361276E+03 -0.11803130316E+04  0.12580642128E+04  0.12700000000E+03 0.  0.
   -5000001    1    1    2    0    0 -0.15845094615E+03  0.38516361276E+03 -0.13260875122E+03  0.45516128112E+03  0.12700000000E+03 0.  0.
<mgrwt>
<rscale>  0 0.11006262E+04</rscale>
<asrwt>0</asrwt>
<pdfrwt beam="1">  1        2 0.21615337E+00 0.11006262E+04</pdfrwt>
<pdfrwt beam="2">  1       -2 0.28593123E-01 0.11006262E+04</pdfrwt>
<totfact> 0.15988102E+02</totfact>
</mgrwt>
</event>
<event>
 4    1  0.1351183E-004  0.3664722E+03  0.7818608E-02  0.1056050E+00
          2   -1    0    0  501    0  0.00000000000E+00  0.00000000000E+00  0.90768137054E+03  0.90768137054E+03  0.25500000000E-02 0.  1.
         -2   -1    0    0    0  501 -0.00000000000E+00 -0.00000000000E+00 -0.36990359866E+02  0.36990359954E+02  0.25500000000E-02 0. -1.
    5000001    1    1    2    0    0  0.10165350644E+02 -0.11313119369E+03  0.60911800187E+03  0.63249959806E+03  0.12700000000E+03 0.  0.
   -5000001    1    1    2    0    0 -0.10165350644E+02  0.11313119369E+03  0.26157300880E+03  0.31217213244E+03  0.12700000000E+03 0.  0.
<mgrwt>
<rscale>  0 0.36647216E+03</rscale>
<asrwt>0</asrwt>
<pdfrwt beam="1">  1        2 0.12966875E+00 0.36647216E+03</pdfrwt>
<pdfrwt beam="2">  1       -2 0.52843379E-02 0.36647216E+03</pdfrwt>
<totfact> 0.59997542E+03</totfact>
</mgrwt>
</event>
<event>
 4    1  0.1351183E-004  0.3598744E+03  0.7818608E-02  0.1058634E+00
          2   -1    0    0  501    0  0.00000000000E+00  0.00000000000E+00  0.37073251585E+02  0.37073251673E+02  0.25500000000E-02 0.  1.
         -2   -1    0    0    0  501 -0.00000000000E+00 -0.00000000000E+00 -0.87333592466E+03  0.87333592466E+03  0.25500000000E-02 0. -1.
    5000001    1    1    2    0    0 -0.75960848231E+02 -0.87448301982E+02 -0.28352459817E+03  0.33156063360E+03  0.12700000000E+03 0.  0.
   -5000001    1    1    2    0    0  0.75960848231E+02  0.87448301982E+02 -0.55273807490E+03  0.57884854274E+03  0.12700000000E+03 0.  0.
<mgrwt>
<rscale>  0 0.35987444E+03</rscale>
<asrwt>0</asrwt>
<pdfrwt beam="1">  1        2 0.52961793E-02 0.35987444E+03</pdfrwt>
<pdfrwt beam="2">  1       -2 0.12476226E+00 0.35987444E+03</pdfrwt>
<totfact> 0.73982540E+02</totfact>
</mgrwt>
</event>
<event>
 4    1  0.1351183E-004  0.3005446E+03  0.7818608E-02  0.1084969E+00
          2   -1    0    0  501    0  0.00000000000E+00  0.00000000000E+00  0.11195007332E+03  0.11195007335E+03  0.25500000000E-02 0.  1.
         -2   -1    0    0    0  501 -0.00000000000E+00 -0.00000000000E+00 -0.20171276290E+03  0.20171276291E+03  0.25500000000E-02 0. -1.
    5000001    1    1    2    0    0 -0.55782901902E+02 -0.43616604520E+02 -0.52966797042E+01  0.14550324790E+03  0.12700000000E+03 0.  0.
   -5000001    1    1    2    0    0  0.55782901902E+02  0.43616604520E+02 -0.84466009870E+02  0.16815958836E+03  0.12700000000E+03 0.  0.
<mgrwt>
<rscale>  0 0.30054456E+03</rscale>
<asrwt>0</asrwt>
<pdfrwt beam="1">  1        2 0.15992868E-01 0.30054456E+03</pdfrwt>
<pdfrwt beam="2">  1       -2 0.28816109E-01 0.30054456E+03</pdfrwt>
<totfact> 0.39672404E+03</totfact>
</mgrwt>
</event>
<event>
 4    1  0.1351183E-004  0.3465399E+03  0.7818608E-02  0.1064044E+00
          2   -1    0    0  501    0  0.00000000000E+00  0.00000000000E+00  0.14654029224E+04  0.14654029224E+04  0.25500000000E-02 0.  1.
         -2   -1    0    0    0  501 -0.00000000000E+00 -0.00000000000E+00 -0.20487524630E+02  0.20487524789E+02  0.25500000000E-02 0. -1.
    5000001    1    1    2    0    0  0.67220665268E+02 -0.79633977795E+02  0.48630630506E+03  0.51330596198E+03  0.12700000000E+03 0.  0.
   -5000001    1    1    2    0    0 -0.67220665268E+02  0.79633977795E+02  0.95860909275E+03  0.97258448526E+03  0.12700000000E+03 0.  0.
<mgrwt>
<rscale>  0 0.34653992E+03</rscale>
<asrwt>0</asrwt>
<pdfrwt beam="1">  1        2 0.20934337E+00 0.34653992E+03</pdfrwt>
<pdfrwt beam="2">  1       -2 0.29267879E-02 0.34653992E+03</pdfrwt>
<totfact> 0.71681354E+03</totfact>
</mgrwt>
</event>
<event>
 4    1  0.1351183E-004  0.3483544E+03  0.7818608E-02  0.1063293E+00
          2   -1    0    0  501    0  0.00000000000E+00  0.00000000000E+00  0.24848936055E+04  0.24848936055E+04  0.25500000000E-02 0.  1.
         -2   -1    0    0    0  501 -0.00000000000E+00 -0.00000000000E+00 -0.12208848420E+02  0.12208848687E+02  0.25500000000E-02 0. -1.
    5000001    1    1    2    0    0  0.10692345932E+03  0.49923927123E+01  0.16123281626E+04  0.16208604672E+04  0.12700000000E+03 0.  0.
   -5000001    1    1    2    0    0 -0.10692345932E+03 -0.49923927123E+01  0.86035659446E+03  0.87624198699E+03  0.12700000000E+03 0.  0.
<mgrwt>
<rscale>  0 0.34835436E+03</rscale>
<asrwt>0</asrwt>
<pdfrwt beam="1">  1        2 0.35498511E+00 0.34835436E+03</pdfrwt>
<pdfrwt beam="2">  1       -2 0.17441197E-02 0.34835436E+03</pdfrwt>
<totfact> 0.48163676E+03</totfact>
</mgrwt>
</event>
<event>
 4    1  0.1351183E-004  0.4607492E+03  0.7818608E-02  0.1024564E+00
         -2   -1    0    0    0  501 -0.00000000000E+00  0.00000000000E+00  0.76378759973E+02  0.76378760016E+02  0.25500000000E-02 0. -1.
          2   -1    0    0  501    0  0.00000000000E+00 -0.00000000000E+00 -0.69485877663E+03  0.69485877663E+03  0.25500000000E-02 0.  1.
    5000001    1    1    2    0    0 -0.12649886016E+03  0.14029467805E+03 -0.24984935948E+03  0.33799150987E+03  0.12700000000E+03 0.  0.
   -5000001    1    1    2    0    0  0.12649886016E+03 -0.14029467805E+03 -0.36863065717E+03  0.43324602678E+03  0.12700000000E+03 0.  0.
<mgrwt>
<rscale>  0 0.46074918E+03</rscale>
<asrwt>0</asrwt>
<pdfrwt beam="1">  1        2 0.99265536E-01 0.46074918E+03</pdfrwt>
<pdfrwt beam="2">  1       -2 0.10911252E-01 0.46074918E+03</pdfrwt>
<totfact> 0.26878117E+03</totfact>
</mgrwt>
</event>
<event>
 4    1  0.1351183E-004  0.3838076E+03  0.7818608E-02  0.1049535E+00
         -2   -1    0    0    0  501 -0.00000000000E+00  0.00000000000E+00  0.39878096019E+02  0.39878096101E+02  0.25500000000E-02 0. -1.
          2   -1    0    0  501    0  0.00000000000E+00 -0.00000000000E+00 -0.92349130505E+03  0.92349130506E+03  0.25500000000E-02 0.  1.
    5000001    1    1    2    0    0 -0.11535285882E+03  0.72744265859E+02 -0.55683248843E+03  0.58718773013E+03  0.12700000000E+03 0.  0.
   -5000001    1    1    2    0    0  0.11535285882E+03 -0.72744265859E+02 -0.32678072061E+03  0.37618167102E+03  0.12700000000E+03 0.  0.
<mgrwt>
<rscale>  0 0.38380763E+03</rscale>
<asrwt>0</asrwt>
<pdfrwt beam="1">  1        2 0.13192732E+00 0.38380763E+03</pdfrwt>
<pdfrwt beam="2">  1       -2 0.56968715E-02 0.38380763E+03</pdfrwt>
<totfact> 0.52275884E+03</totfact>
</mgrwt>
</event>
<event>
 4    1  0.1351183E-004  0.4451645E+03  0.7818608E-02  0.1029174E+00
          2   -1    0    0  501    0  0.00000000000E+00  0.00000000000E+00  0.63238492977E+03  0.63238492977E+03  0.25500000000E-02 0.  1.
         -2   -1    0    0    0  501 -0.00000000000E+00 -0.00000000000E+00 -0.78342883726E+02  0.78342883768E+02  0.25500000000E-02 0. -1.
    5000001    1    1    2    0    0 -0.83140052557E+02  0.12733800926E+03  0.11509405811E+03  0.22913506749E+03  0.12700000000E+03 0.  0.
   -5000001    1    1    2    0    0  0.83140052557E+02 -0.12733800926E+03  0.43894798793E+03  0.48159274605E+03  0.12700000000E+03 0.  0.
<mgrwt>
<rscale>  0 0.44516450E+03</rscale>
<asrwt>0</asrwt>
<pdfrwt beam="1">  1        2 0.90340710E-01 0.44516450E+03</pdfrwt>
<pdfrwt beam="2">  1       -2 0.11191840E-01 0.44516450E+03</pdfrwt>
<totfact> 0.28852596E+03</totfact>
</mgrwt>
</event>
<event>
 4    1  0.1351183E-004  0.7087670E+03  0.7818608E-02  0.9702356E-01
          2   -1    0    0  501    0  0.00000000000E+00  0.00000000000E+00  0.10189034537E+04  0.10189034537E+04  0.25500000000E-02 0.  1.
         -2   -1    0    0    0  501 -0.00000000000E+00 -0.00000000000E+00 -0.12325768612E+03  0.12325768614E+03  0.25500000000E-02 0. -1.
    5000001    1    1    2    0    0 -0.25713248058E+03  0.16107557990E+03  0.66036812997E+03  0.73775166695E+03  0.12700000000E+03 0.  0.
   -5000001    1    1    2    0    0  0.25713248058E+03 -0.16107557990E+03  0.23527763763E+03  0.40440947291E+03  0.12700000000E+03 0.  0.
<mgrwt>
<rscale>  0 0.70876705E+03</rscale>
<asrwt>0</asrwt>
<pdfrwt beam="1">  1        2 0.14555763E+00 0.70876705E+03</pdfrwt>
<pdfrwt beam="2">  1       -2 0.17608241E-01 0.70876705E+03</pdfrwt>
<totfact> 0.73143032E+02</totfact>
</mgrwt>
</event>
<event>
 4    1  0.1351183E-004  0.4113989E+03  0.7818608E-02  0.1039903E+00
         -2   -1    0    0    0  501 -0.00000000000E+00  0.00000000000E+00  0.34313735805E+02  0.34313735900E+02  0.25500000000E-02 0. -1.
          2   -1    0    0  501    0  0.00000000000E+00 -0.00000000000E+00 -0.12330999758E+04  0.12330999758E+04  0.25500000000E-02 0.  1.
    5000001    1    1    2    0    0  0.13576436118E+03  0.86641163065E+02 -0.64757634524E+03  0.67928107276E+03  0.12700000000E+03 0.  0.
   -5000001    1    1    2    0    0 -0.13576436118E+03 -0.86641163065E+02 -0.55120989471E+03  0.58813263889E+03  0.12700000000E+03 0.  0.
<mgrwt>
<rscale>  0 0.41139892E+03</rscale>
<asrwt>0</asrwt>
<pdfrwt beam="1">  1        2 0.17615711E+00 0.41139892E+03</pdfrwt>
<pdfrwt beam="2">  1       -2 0.49019630E-02 0.41139892E+03</pdfrwt>
<totfact> 0.43597615E+03</totfact>
</mgrwt>
</event>
<event>
 4    1  0.1351183E-004  0.3446073E+03  0.7818608E-02  0.1064850E+00
          2   -1    0    0  501    0  0.00000000000E+00  0.00000000000E+00  0.20061444256E+04  0.20061444257E+04  0.25500000000E-02 0.  1.
         -2   -1    0    0    0  501 -0.00000000000E+00 -0.00000000000E+00 -0.14798812918E+02  0.14798813138E+02  0.25500000000E-02 0. -1.
    5000001    1    1    2    0    0 -0.10536604391E+03 -0.11131545089E+02  0.12789728718E+04  0.12896226274E+04  0.12700000000E+03 0.  0.
   -5000001    1    1    2    0    0  0.10536604391E+03  0.11131545089E+02  0.71237274096E+03  0.73132061134E+03  0.12700000000E+03 0.  0.
<mgrwt>
<rscale>  0 0.34460735E+03</rscale>
<asrwt>0</asrwt>
<pdfrwt beam="1">  1        2 0.28659185E+00 0.34460735E+03</pdfrwt>
<pdfrwt beam="2">  1       -2 0.21141177E-02 0.34460735E+03</pdfrwt>
<totfact> 0.62567824E+03</totfact>
</mgrwt>
</event>
<event>
 4    1  0.1351183E-004  0.2835589E+03  0.7818608E-02  0.1093761E+00
         -2   -1    0    0    0  501 -0.00000000000E+00  0.00000000000E+00  0.10727620853E+02  0.10727621156E+02  0.25500000000E-02 0. -1.
          2   -1    0    0  501    0  0.00000000000E+00 -0.00000000000E+00 -0.18737995491E+04  0.18737995491E+04  0.25500000000E-02 0.  1.
    5000001    1    1    2    0    0  0.40540648316E+01  0.55460077012E+02 -0.73436683683E+03  0.74733921791E+03  0.12700000000E+03 0.  0.
   -5000001    1    1    2    0    0 -0.40540648316E+01 -0.55460077012E+02 -0.11287050914E+04  0.11371879523E+04  0.12700000000E+03 0.  0.
<mgrwt>
<rscale>  0 0.28355889E+03</rscale>
<asrwt>0</asrwt>
<pdfrwt beam="1">  1        2 0.26768544E+00 0.28355889E+03</pdfrwt>
<pdfrwt beam="2">  1       -2 0.15325185E-02 0.28355889E+03</pdfrwt>
<totfact> 0.11647363E+04</totfact>
</mgrwt>
</event>
<event>
 4    1  0.1351183E-004  0.3189603E+03  0.7818608E-02  0.1076129E+00
          2   -1    0    0  501    0  0.00000000000E+00  0.00000000000E+00  0.75546833680E+03  0.75546833680E+03  0.25500000000E-02 0.  1.
         -2   -1    0    0    0  501 -0.00000000000E+00 -0.00000000000E+00 -0.33666429734E+02  0.33666429831E+02  0.25500000000E-02 0. -1.
    5000001    1    1    2    0    0 -0.45792951207E+02  0.71502109989E+02  0.47415284345E+03  0.49815606497E+03  0.12700000000E+03 0.  0.
   -5000001    1    1    2    0    0  0.45792951207E+02 -0.71502109989E+02  0.24764906361E+03  0.29097870166E+03  0.12700000000E+03 0.  0.
<mgrwt>
<rscale>  0 0.31896032E+03</rscale>
<asrwt>0</asrwt>
<pdfrwt beam="1">  1        2 0.10792405E+00 0.31896032E+03</pdfrwt>
<pdfrwt beam="2">  1       -2 0.48094898E-02 0.31896032E+03</pdfrwt>
<totfact> 0.87127545E+03</totfact>
</mgrwt>
</event>
<event>
 4    1  0.1351183E-004  0.4830744E+03  0.7818608E-02  0.1018294E+00
         -2   -1    0    0    0  501 -0.00000000000E+00  0.00000000000E+00  0.21474495058E+02  0.21474495210E+02  0.25500000000E-02 0. -1.
          2   -1    0    0  501    0  0.00000000000E+00 -0.00000000000E+00 -0.27167215302E+04  0.27167215302E+04  0.25500000000E-02 0.  1.
    5000001    1    1    2    0    0  0.37239577266E+02 -0.13253086552E+03 -0.48314259082E+03  0.51817659104E+03  0.12700000000E+03 0.  0.
   -5000001    1    1    2    0    0 -0.37239577266E+02  0.13253086552E+03 -0.22121044444E+04  0.22200194344E+04  0.12700000000E+03 0.  0.
<mgrwt>
<rscale>  0 0.48307442E+03</rscale>
<asrwt>0</asrwt>
<pdfrwt beam="1">  1        2 0.38810286E+00 0.48307442E+03</pdfrwt>
<pdfrwt beam="2">  1       -2 0.30677868E-02 0.48307442E+03</pdfrwt>
<totfact> 0.15642273E+03</totfact>
</mgrwt>
</event>
<event>
 4    1  0.1351183E-004  0.8600231E+03  0.7818608E-02  0.9476982E-01
          2   -1    0    0  501    0  0.00000000000E+00  0.00000000000E+00  0.19163060896E+04  0.19163060896E+04  0.25500000000E-02 0.  1.
         -2   -1    0    0    0  501 -0.00000000000E+00 -0.00000000000E+00 -0.96492906273E+02  0.96492906306E+02  0.25500000000E-02 0. -1.
    5000001    1    1    2    0    0  0.26401293236E+02 -0.33477188288E+03  0.35600876248E+03  0.50560901971E+03  0.12700000000E+03 0.  0.
   -5000001    1    1    2    0    0 -0.26401293236E+02  0.33477188288E+03  0.14638044208E+04  0.15071899762E+04  0.12700000000E+03 0.  0.
<mgrwt>
<rscale>  0 0.86002313E+03</rscale>
<asrwt>0</asrwt>
<pdfrwt beam="1">  1        2 0.27375800E+00 0.86002313E+03</pdfrwt>
<pdfrwt beam="2">  1       -2 0.13784702E-01 0.86002313E+03</pdfrwt>
<totfact> 0.36181825E+02</totfact>
</mgrwt>
</event>
<event>
 4    1  0.1351183E-004  0.8240394E+03  0.7818608E-02  0.9525858E-01
         -2   -1    0    0    0  501 -0.00000000000E+00  0.00000000000E+00  0.14551581834E+03  0.14551581836E+03  0.25500000000E-02 0. -1.
          2   -1    0    0  501    0  0.00000000000E+00 -0.00000000000E+00 -0.11666101876E+04  0.11666101876E+04  0.25500000000E-02 0.  1.
    5000001    1    1    2    0    0  0.37838210774E+03  0.88918545616E+02 -0.43011254344E+03  0.59346889324E+03  0.12700000000E+03 0.  0.
   -5000001    1    1    2    0    0 -0.37838210774E+03 -0.88918545616E+02 -0.59098182578E+03  0.71865711269E+03  0.12700000000E+03 0.  0.
<mgrwt>
<rscale>  0 0.82403941E+03</rscale>
<asrwt>0</asrwt>
<pdfrwt beam="1">  1        2 0.16665859E+00 0.82403941E+03</pdfrwt>
<pdfrwt beam="2">  1       -2 0.20787975E-01 0.82403941E+03</pdfrwt>
<totfact> 0.44646525E+02</totfact>
</mgrwt>
</event>
<event>
 4    1  0.1351183E-004  0.3340410E+03  0.7818608E-02  0.1069363E+00
         -2   -1    0    0    0  501 -0.00000000000E+00  0.00000000000E+00  0.18790130445E+02  0.18790130618E+02  0.25500000000E-02 0. -1.
          2   -1    0    0  501    0  0.00000000000E+00 -0.00000000000E+00 -0.14846011009E+04  0.14846011009E+04  0.25500000000E-02 0.  1.
    5000001    1    1    2    0    0 -0.89963276637E+01  0.97741631360E+02 -0.52507199352E+03  0.54905733652E+03  0.12700000000E+03 0.  0.
   -5000001    1    1    2    0    0  0.89963276637E+01 -0.97741631360E+02 -0.94073897691E+03  0.95433389498E+03  0.12700000000E+03 0.  0.
<mgrwt>
<rscale>  0 0.33404101E+03</rscale>
<asrwt>0</asrwt>
<pdfrwt beam="1">  1        2 0.21208580E+00 0.33404101E+03</pdfrwt>
<pdfrwt beam="2">  1       -2 0.26843053E-02 0.33404101E+03</pdfrwt>
<totfact> 0.79702957E+03</totfact>
</mgrwt>
</event>
<event>
 4    1  0.1351183E-004  0.4012221E+03  0.7818608E-02  0.1043357E+00
         -2   -1    0    0    0  501 -0.00000000000E+00  0.00000000000E+00  0.52884889902E+02  0.52884889963E+02  0.25500000000E-02 0. -1.
          2   -1    0    0  501    0  0.00000000000E+00 -0.00000000000E+00 -0.76098848872E+03  0.76098848872E+03  0.25500000000E-02 0.  1.
    5000001    1    1    2    0    0  0.10341504719E+03 -0.11148802200E+03 -0.41792628784E+03  0.46251014378E+03  0.12700000000E+03 0.  0.
   -5000001    1    1    2    0    0 -0.10341504719E+03  0.11148802200E+03 -0.29017731098E+03  0.35136323490E+03  0.12700000000E+03 0.  0.
<mgrwt>
<rscale>  0 0.40122210E+03</rscale>
<asrwt>0</asrwt>
<pdfrwt beam="1">  1        2 0.10871263E+00 0.40122210E+03</pdfrwt>
<pdfrwt beam="2">  1       -2 0.75549847E-02 0.40122210E+03</pdfrwt>
<totfact> 0.43177726E+03</totfact>
</mgrwt>
</event>
<event>
 4    1  0.1351183E-004  0.4144063E+03  0.7818608E-02  0.1038902E+00
         -2   -1    0    0    0  501 -0.00000000000E+00  0.00000000000E+00  0.11093403756E+03  0.11093403759E+03  0.25500000000E-02 0. -1.
          2   -1    0    0  501    0  0.00000000000E+00 -0.00000000000E+00 -0.38701505553E+03  0.38701505554E+03  0.25500000000E-02 0.  1.
    5000001    1    1    2    0    0  0.11819625257E+03  0.86642522605E+02 -0.50341572281E+02  0.20035107872E+03  0.12700000000E+03 0.  0.
   -5000001    1    1    2    0    0 -0.11819625257E+03 -0.86642522605E+02 -0.22573944568E+03  0.29759801441E+03  0.12700000000E+03 0.  0.
<mgrwt>
<rscale>  0 0.41440629E+03</rscale>
<asrwt>0</asrwt>
<pdfrwt beam="1">  1        2 0.55287865E-01 0.41440629E+03</pdfrwt>
<pdfrwt beam="2">  1       -2 0.15847720E-01 0.41440629E+03</pdfrwt>
<totfact> 0.28246754E+03</totfact>
</mgrwt>
</event>
<event>
 4    1  0.1351183E-004  0.3559188E+03  0.7818608E-02  0.1060212E+00
          2   -1    0    0  501    0  0.00000000000E+00  0.00000000000E+00  0.95576731040E+03  0.95576731040E+03  0.25500000000E-02 0.  1.
         -2   -1    0    0    0  501 -0.00000000000E+00 -0.00000000000E+00 -0.33135209782E+02  0.33135209880E+02  0.25500000000E-02 0. -1.
    5000001    1    1    2    0    0  0.62493625402E+02 -0.90039802671E+02  0.29628616921E+03  0.34048070921E+03  0.12700000000E+03 0.  0.
   -5000001    1    1    2    0    0 -0.62493625402E+02  0.90039802671E+02  0.62634593141E+03  0.64842181107E+03  0.12700000000E+03 0.  0.
<mgrwt>
<rscale>  0 0.35591881E+03</rscale>
<asrwt>0</asrwt>
<pdfrwt beam="1">  1        2 0.13653818E+00 0.35591881E+03</pdfrwt>
<pdfrwt beam="2">  1       -2 0.47336018E-02 0.35591881E+03</pdfrwt>
<totfact> 0.66258471E+03</totfact>
</mgrwt>
</event>
<event>
 4    1  0.1351183E-004  0.5593418E+03  0.7818608E-02  0.9993545E-01
         -2   -1    0    0    0  501 -0.00000000000E+00  0.00000000000E+00  0.35811152614E+02  0.35811152704E+02  0.25500000000E-02 0. -1.
          2   -1    0    0  501    0  0.00000000000E+00 -0.00000000000E+00 -0.21841184336E+04  0.21841184336E+04  0.25500000000E-02 0.  1.
    5000001    1    1    2    0    0  0.53972015999E+02  0.19627409383E+03 -0.16444822355E+04  0.16618926925E+04  0.12700000000E+03 0.  0.
   -5000001    1    1    2    0    0 -0.53972015999E+02 -0.19627409383E+03 -0.50382504549E+03  0.55803689384E+03  0.12700000000E+03 0.  0.
<mgrwt>
<rscale>  0 0.55934175E+03</rscale>
<asrwt>0</asrwt>
<pdfrwt beam="1">  1        2 0.31201683E+00 0.55934175E+03</pdfrwt>
<pdfrwt beam="2">  1       -2 0.51158803E-02 0.55934175E+03</pdfrwt>
<totfact> 0.13288834E+03</totfact>
</mgrwt>
</event>
<event>
 4    1  0.1351183E-004  0.5706601E+03  0.7818608E-02  0.9968219E-01
         -2   -1    0    0    0  501 -0.00000000000E+00  0.00000000000E+00  0.13659276922E+03  0.13659276924E+03  0.25500000000E-02 0. -1.
          2   -1    0    0  501    0  0.00000000000E+00 -0.00000000000E+00 -0.59602890186E+03  0.59602890186E+03  0.25500000000E-02 0.  1.
    5000001    1    1    2    0    0  0.21828331687E+03 -0.41676374540E+02 -0.39159943758E+03  0.46782865040E+03  0.12700000000E+03 0.  0.
   -5000001    1    1    2    0    0 -0.21828331687E+03  0.41676374540E+02 -0.67836695061E+02  0.26479302071E+03  0.12700000000E+03 0.  0.
<mgrwt>
<rscale>  0 0.57066010E+03</rscale>
<asrwt>0</asrwt>
<pdfrwt beam="1">  1        2 0.85146985E-01 0.57066010E+03</pdfrwt>
<pdfrwt beam="2">  1       -2 0.19513253E-01 0.57066010E+03</pdfrwt>
<totfact> 0.12193660E+03</totfact>
</mgrwt>
</event>
<event>
 4    1  0.1351183E-004  0.2800613E+03  0.7818608E-02  0.1095655E+00
         -2   -1    0    0    0  501 -0.00000000000E+00  0.00000000000E+00  0.31754772146E+02  0.31754772248E+02  0.25500000000E-02 0. -1.
          2   -1    0    0  501    0  0.00000000000E+00 -0.00000000000E+00 -0.61750049705E+03  0.61750049706E+03  0.25500000000E-02 0.  1.
    5000001    1    1    2    0    0 -0.40470464129E+02  0.86093337753E+01 -0.19540636168E+03  0.23669521601E+03  0.12700000000E+03 0.  0.
   -5000001    1    1    2    0    0  0.40470464129E+02 -0.86093337753E+01 -0.39033936322E+03  0.41256005330E+03  0.12700000000E+03 0.  0.
<mgrwt>
<rscale>  0 0.28006133E+03</rscale>
<asrwt>0</asrwt>
<pdfrwt beam="1">  1        2 0.88214350E-01 0.28006133E+03</pdfrwt>
<pdfrwt beam="2">  1       -2 0.45363964E-02 0.28006133E+03</pdfrwt>
<totfact> 0.12033139E+04</totfact>
</mgrwt>
</event>
<event>
 4    1  0.1351183E-004  0.8488554E+03  0.7818608E-02  0.9491874E-01
          2   -1    0    0  501    0  0.00000000000E+00  0.00000000000E+00  0.11518460193E+03  0.11518460196E+03  0.25500000000E-02 0.  1.
         -2   -1    0    0    0  501 -0.00000000000E+00 -0.00000000000E+00 -0.15639146707E+04  0.15639146707E+04  0.25500000000E-02 0. -1.
    5000001    1    1    2    0    0 -0.12088890207E+02  0.37348746038E+03 -0.41556445569E+03  0.57311590552E+03  0.12700000000E+03 0.  0.
   -5000001    1    1    2    0    0  0.12088890207E+02 -0.37348746038E+03 -0.10331656131E+04  0.11059833672E+04  0.12700000000E+03 0.  0.
<mgrwt>
<rscale>  0 0.84885544E+03</rscale>
<asrwt>0</asrwt>
<pdfrwt beam="1">  1        2 0.16454944E-01 0.84885544E+03</pdfrwt>
<pdfrwt beam="2">  1       -2 0.22341637E+00 0.84885544E+03</pdfrwt>
<totfact> 0.34218991E+01</totfact>
</mgrwt>
</event>
<event>
 4    1  0.1351183E-004  0.3877449E+03  0.7818608E-02  0.1048108E+00
         -2   -1    0    0    0  501 -0.00000000000E+00  0.00000000000E+00  0.37080683135E+02  0.37080683223E+02  0.25500000000E-02 0. -1.
          2   -1    0    0  501    0  0.00000000000E+00 -0.00000000000E+00 -0.10136416348E+04  0.10136416348E+04  0.25500000000E-02 0.  1.
    5000001    1    1    2    0    0  0.66998530853E+02 -0.11959111299E+03 -0.62821597115E+03  0.65541982260E+03  0.12700000000E+03 0.  0.
   -5000001    1    1    2    0    0 -0.66998530853E+02  0.11959111299E+03 -0.34834498049E+03  0.39530249541E+03  0.12700000000E+03 0.  0.
<mgrwt>
<rscale>  0 0.38774489E+03</rscale>
<asrwt>0</asrwt>
<pdfrwt beam="1">  1        2 0.14480593E+00 0.38774489E+03</pdfrwt>
<pdfrwt beam="2">  1       -2 0.52972411E-02 0.38774489E+03</pdfrwt>
<totfact> 0.51537516E+03</totfact>
</mgrwt>
</event>
<event>
 4    1  0.1351183E-004  0.3175415E+03  0.7818608E-02  0.1076786E+00
          2   -1    0    0  501    0  0.00000000000E+00  0.00000000000E+00  0.34397742106E+03  0.34397742107E+03  0.25500000000E-02 0.  1.
         -2   -1    0    0    0  501 -0.00000000000E+00 -0.00000000000E+00 -0.73284319693E+02  0.73284319738E+02  0.25500000000E-02 0. -1.
    5000001    1    1    2    0    0 -0.26956006095E+02  0.16275062776E+02  0.25351979945E+03  0.28529422120E+03  0.12700000000E+03 0.  0.
   -5000001    1    1    2    0    0  0.26956006095E+02 -0.16275062776E+02  0.17173301910E+02  0.13196751961E+03  0.12700000000E+03 0.  0.
<mgrwt>
<rscale>  0 0.31754150E+03</rscale>
<asrwt>0</asrwt>
<pdfrwt beam="1">  1        2 0.49139631E-01 0.31754150E+03</pdfrwt>
<pdfrwt beam="2">  1       -2 0.10469189E-01 0.31754150E+03</pdfrwt>
<totfact> 0.62948951E+03</totfact>
</mgrwt>
</event>
<event>
 4    1  0.1351183E-004  0.5779527E+03  0.7818608E-02  0.9952233E-01
          2   -1    0    0  501    0  0.00000000000E+00  0.00000000000E+00  0.71654201143E+03  0.71654201143E+03  0.25500000000E-02 0.  1.
         -2   -1    0    0    0  501 -0.00000000000E+00 -0.00000000000E+00 -0.11654211184E+03  0.11654211186E+03  0.25500000000E-02 0. -1.
    5000001    1    1    2    0    0 -0.60214388714E+02  0.17029341902E+03  0.31285602675E+02  0.22300988791E+03  0.12700000000E+03 0.  0.
   -5000001    1    1    2    0    0  0.60214388714E+02 -0.17029341902E+03  0.56871429692E+03  0.61007423539E+03  0.12700000000E+03 0.  0.
<mgrwt>
<rscale>  0 0.57795266E+03</rscale>
<asrwt>0</asrwt>
<pdfrwt beam="1">  1        2 0.10236314E+00 0.57795266E+03</pdfrwt>
<pdfrwt beam="2">  1       -2 0.16648873E-01 0.57795266E+03</pdfrwt>
<totfact> 0.12839183E+03</totfact>
</mgrwt>
</event>
<event>
 4    1  0.1351183E-004  0.3547690E+03  0.7818608E-02  0.1060675E+00
         -2   -1    0    0    0  501 -0.00000000000E+00  0.00000000000E+00  0.27489428404E+02  0.27489428522E+02  0.25500000000E-02 0. -1.
          2   -1    0    0  501    0  0.00000000000E+00 -0.00000000000E+00 -0.11446312030E+04  0.11446312030E+04  0.25500000000E-02 0.  1.
    5000001    1    1    2    0    0 -0.10192537490E+03 -0.38719731728E+02 -0.36455980468E+03  0.40114941214E+03  0.12700000000E+03 0.  0.
   -5000001    1    1    2    0    0  0.10192537490E+03  0.38719731728E+02 -0.75258196993E+03  0.77097121940E+03  0.12700000000E+03 0.  0.
<mgrwt>
<rscale>  0 0.35476898E+03</rscale>
<asrwt>0</asrwt>
<pdfrwt beam="1">  1        2 0.16351871E+00 0.35476898E+03</pdfrwt>
<pdfrwt beam="2">  1       -2 0.39270619E-02 0.35476898E+03</pdfrwt>
<totfact> 0.68292652E+03</totfact>
</mgrwt>
</event>
