<event>
 4    1  0.6024609E-005  0.4033475E+03  0.7818608E-02  0.1042627E+00
          2   -1    0    0  501    0  0.00000000000E+00  0.00000000000E+00  0.81771602844E+03  0.81771602844E+03  0.25500000000E-02 0.  1.
         -2   -1    0    0    0  501 -0.00000000000E+00 -0.00000000000E+00 -0.49738895696E+02  0.49738895762E+02  0.25500000000E-02 0. -1.
    5000001    1    1    2    0    0 -0.11721272628E+02  0.51685761276E+02  0.27603833393E+03  0.33815672099E+03  0.18800000000E+03 0.  0.
   -5000001    1    1    2    0    0  0.11721272628E+02 -0.51685761276E+02  0.49193879881E+03  0.52929820321E+03  0.18800000000E+03 0.  0.
<mgrwt>
<rscale>  0 0.40334745E+03</rscale>
<asrwt>0</asrwt>
<pdfrwt beam="1">  1        2 0.11681657E+00 0.40334745E+03</pdfrwt>
<pdfrwt beam="2">  1       -2 0.71055568E-02 0.40334745E+03</pdfrwt>
<totfact> 0.43450548E+03</totfact>
</mgrwt>
</event>
<event>
 4    1  0.6024609E-005  0.5925533E+03  0.7818608E-02  0.9920977E-01
         -2   -1    0    0    0  501 -0.00000000000E+00  0.00000000000E+00  0.74361461246E+03  0.74361461247E+03  0.25500000000E-02 0. -1.
          2   -1    0    0  501    0  0.00000000000E+00 -0.00000000000E+00 -0.11804480845E+03  0.11804480848E+03  0.25500000000E-02 0.  1.
    5000001    1    1    2    0    0 -0.88555897016E+02  0.18684046977E+03  0.45588606929E+03  0.53472199900E+03  0.18800000000E+03 0.  0.
   -5000001    1    1    2    0    0  0.88555897016E+02 -0.18684046977E+03  0.16968373472E+03  0.32693742195E+03  0.18800000000E+03 0.  0.
<mgrwt>
<rscale>  0 0.59255327E+03</rscale>
<asrwt>0</asrwt>
<pdfrwt beam="1">  1        2 0.16863544E-01 0.59255327E+03</pdfrwt>
<pdfrwt beam="2">  1       -2 0.10623066E+00 0.59255327E+03</pdfrwt>
<totfact> 0.25179394E+02</totfact>
</mgrwt>
</event>
<event>
 4    1  0.6024609E-005  0.8372840E+03  0.7818608E-02  0.9507565E-01
         -2   -1    0    0    0  501 -0.00000000000E+00  0.00000000000E+00  0.77172919083E+02  0.77172919125E+02  0.25500000000E-02 0. -1.
          2   -1    0    0  501    0  0.00000000000E+00 -0.00000000000E+00 -0.22710182506E+04  0.22710182506E+04  0.25500000000E-02 0.  1.
    5000001    1    1    2    0    0 -0.25171471225E+03  0.26884177642E+03 -0.12804195774E+04  0.13455313045E+04  0.18800000000E+03 0.  0.
   -5000001    1    1    2    0    0  0.25171471225E+03 -0.26884177642E+03 -0.91342575409E+03  0.10026598652E+04  0.18800000000E+03 0.  0.
<mgrwt>
<rscale>  0 0.83728396E+03</rscale>
<asrwt>0</asrwt>
<pdfrwt beam="1">  1        2 0.32443114E+00 0.83728396E+03</pdfrwt>
<pdfrwt beam="2">  1       -2 0.11024704E-01 0.83728396E+03</pdfrwt>
<totfact> 0.34670302E+02</totfact>
</mgrwt>
</event>
<event>
 4    1  0.6024609E-005  0.1083075E+04  0.7818608E-02  0.9221847E-01
          2   -1    0    0  501    0  0.00000000000E+00  0.00000000000E+00  0.34212396815E+04  0.34212396815E+04  0.25500000000E-02 0.  1.
         -2   -1    0    0    0  501 -0.00000000000E+00 -0.00000000000E+00 -0.85718321061E+02  0.85718321099E+02  0.25500000000E-02 0. -1.
    5000001    1    1    2    0    0 -0.46786060425E+03 -0.19733597770E+03  0.16381039700E+04  0.17252720510E+04  0.18800000000E+03 0.  0.
   -5000001    1    1    2    0    0  0.46786060425E+03  0.19733597770E+03  0.16974173904E+04  0.17816859517E+04  0.18800000000E+03 0.  0.
<mgrwt>
<rscale>  0 0.10830751E+04</rscale>
<asrwt>0</asrwt>
<pdfrwt beam="1">  1        2 0.48874849E+00 0.10830751E+04</pdfrwt>
<pdfrwt beam="2">  1       -2 0.12245475E-01 0.10830751E+04</pdfrwt>
<totfact> 0.67519050E+01</totfact>
</mgrwt>
</event>
<event>
 4    1  0.6024609E-005  0.4702515E+03  0.7818608E-02  0.1021849E+00
         -2   -1    0    0    0  501 -0.00000000000E+00  0.00000000000E+00  0.10653392263E+03  0.10653392266E+03  0.25500000000E-02 0. -1.
          2   -1    0    0  501    0  0.00000000000E+00 -0.00000000000E+00 -0.51893446712E+03  0.51893446713E+03  0.25500000000E-02 0.  1.
    5000001    1    1    2    0    0  0.68329621561E+02 -0.98541127996E+02 -0.10701547945E+03  0.24733702499E+03  0.18800000000E+03 0.  0.
   -5000001    1    1    2    0    0 -0.68329621561E+02  0.98541127996E+02 -0.30538506505E+03  0.37813136480E+03  0.18800000000E+03 0.  0.
<mgrwt>
<rscale>  0 0.47025153E+03</rscale>
<asrwt>0</asrwt>
<pdfrwt beam="1">  1        2 0.74133494E-01 0.47025153E+03</pdfrwt>
<pdfrwt beam="2">  1       -2 0.15219132E-01 0.47025153E+03</pdfrwt>
<totfact> 0.21845921E+03</totfact>
</mgrwt>
</event>
<event>
 4    1  0.6024609E-005  0.5336719E+03  0.7818608E-02  0.1005345E+00
          2   -1    0    0  501    0  0.00000000000E+00  0.00000000000E+00  0.18037453170E+03  0.18037453172E+03  0.25500000000E-02 0.  1.
         -2   -1    0    0    0  501 -0.00000000000E+00 -0.00000000000E+00 -0.39474215207E+03  0.39474215207E+03  0.25500000000E-02 0. -1.
    5000001    1    1    2    0    0 -0.27795738872E+02 -0.17102710690E+03 -0.18950005170E+03  0.31824070134E+03  0.18800000000E+03 0.  0.
   -5000001    1    1    2    0    0  0.27795738872E+02  0.17102710690E+03 -0.24867568663E+02  0.25687598246E+03  0.18800000000E+03 0.  0.
<mgrwt>
<rscale>  0 0.53367192E+03</rscale>
<asrwt>0</asrwt>
<pdfrwt beam="1">  1        2 0.25767790E-01 0.53367192E+03</pdfrwt>
<pdfrwt beam="2">  1       -2 0.56391736E-01 0.53367192E+03</pdfrwt>
<totfact> 0.62878829E+02</totfact>
</mgrwt>
</event>
<event>
 4    1  0.6024609E-005  0.5501688E+03  0.7818608E-02  0.1001455E+00
         -2   -1    0    0    0  501 -0.00000000000E+00  0.00000000000E+00  0.70134021864E+02  0.70134021910E+02  0.25500000000E-02 0. -1.
          2   -1    0    0  501    0  0.00000000000E+00 -0.00000000000E+00 -0.10789546019E+04  0.10789546019E+04  0.25500000000E-02 0.  1.
    5000001    1    1    2    0    0 -0.11571570521E+03  0.28478713698E+01 -0.16166679301E+03  0.27363915430E+03  0.18800000000E+03 0.  0.
   -5000001    1    1    2    0    0  0.11571570521E+03 -0.28478713698E+01 -0.84715378704E+03  0.87544946953E+03  0.18800000000E+03 0.  0.
<mgrwt>
<rscale>  0 0.55016879E+03</rscale>
<asrwt>0</asrwt>
<pdfrwt beam="1">  1        2 0.15413636E+00 0.55016879E+03</pdfrwt>
<pdfrwt beam="2">  1       -2 0.10019147E-01 0.55016879E+03</pdfrwt>
<totfact> 0.17296631E+03</totfact>
</mgrwt>
</event>
<event>
 4    1  0.6024609E-005  0.7487203E+03  0.7818608E-02  0.9637360E-01
         -2   -1    0    0    0  501 -0.00000000000E+00  0.00000000000E+00  0.13190876363E+03  0.13190876366E+03  0.25500000000E-02 0. -1.
          2   -1    0    0  501    0  0.00000000000E+00 -0.00000000000E+00 -0.10624428192E+04  0.10624428192E+04  0.25500000000E-02 0.  1.
    5000001    1    1    2    0    0 -0.27105533264E+03 -0.15691111177E+03 -0.33460320902E+03  0.49537399794E+03  0.18800000000E+03 0.  0.
   -5000001    1    1    2    0    0  0.27105533264E+03  0.15691111177E+03 -0.59593084650E+03  0.69897758487E+03  0.18800000000E+03 0.  0.
<mgrwt>
<rscale>  0 0.74872029E+03</rscale>
<asrwt>0</asrwt>
<pdfrwt beam="1">  1        2 0.15177754E+00 0.74872029E+03</pdfrwt>
<pdfrwt beam="2">  1       -2 0.18844110E-01 0.74872029E+03</pdfrwt>
<totfact> 0.61163233E+02</totfact>
</mgrwt>
</event>
<event>
 4    1  0.6024609E-005  0.5897075E+03  0.7818608E-02  0.9926993E-01
         -2   -1    0    0    0  501 -0.00000000000E+00  0.00000000000E+00  0.15485072079E+04  0.15485072079E+04  0.25500000000E-02 0. -1.
          2   -1    0    0  501    0  0.00000000000E+00 -0.00000000000E+00 -0.56143580441E+02  0.56143580499E+02  0.25500000000E-02 0.  1.
    5000001    1    1    2    0    0 -0.12533048370E+03 -0.17036634135E+03  0.97159499554E+03  0.10119650467E+04  0.18800000000E+03 0.  0.
   -5000001    1    1    2    0    0  0.12533048370E+03  0.17036634135E+03  0.52076863192E+03  0.59268574169E+03  0.18800000000E+03 0.  0.
<mgrwt>
<rscale>  0 0.58970752E+03</rscale>
<asrwt>0</asrwt>
<pdfrwt beam="1">  1        2 0.80205122E-02 0.58970752E+03</pdfrwt>
<pdfrwt beam="2">  1       -2 0.22121530E+00 0.58970752E+03</pdfrwt>
<totfact> 0.88443573E+01</totfact>
</mgrwt>
</event>
<event>
 4    1  0.6024609E-005  0.6347247E+03  0.7818608E-02  0.9835872E-01
         -2   -1    0    0    0  501 -0.00000000000E+00  0.00000000000E+00  0.21565761208E+03  0.21565761210E+03  0.25500000000E-02 0.  1.
          2   -1    0    0  501    0  0.00000000000E+00 -0.00000000000E+00 -0.46703137799E+03  0.46703137800E+03  0.25500000000E-02 0. -1.
    5000001    1    1    2    0    0  0.19188310822E+03  0.15039394848E+03 -0.20856422350E+03  0.37186086414E+03  0.18800000000E+03 0.  0.
   -5000001    1    1    2    0    0 -0.19188310822E+03 -0.15039394848E+03 -0.42809542411E+02  0.31082812595E+03  0.18800000000E+03 0.  0.
<mgrwt>
<rscale>  0 0.63472473E+03</rscale>
<asrwt>0</asrwt>
<pdfrwt beam="1">  1        2 0.66718768E-01 0.63472473E+03</pdfrwt>
<pdfrwt beam="2">  1       -2 0.30808230E-01 0.63472473E+03</pdfrwt>
<totfact> 0.71117943E+02</totfact>
</mgrwt>
</event>
<event>
 4    1  0.6024609E-005  0.1394661E+04  0.7818608E-02  0.8957693E-01
         -2   -1    0    0    0  501 -0.00000000000E+00  0.00000000000E+00  0.53626596776E+03  0.53626596777E+03  0.25500000000E-02 0. -1.
          2   -1    0    0  501    0  0.00000000000E+00 -0.00000000000E+00 -0.90676924339E+03  0.90676924340E+03  0.25500000000E-02 0.  1.
    5000001    1    1    2    0    0 -0.35300827971E+03 -0.48480267420E+03 -0.49785174330E+03  0.80177854596E+03  0.18800000000E+03 0.  0.
   -5000001    1    1    2    0    0  0.35300827971E+03  0.48480267420E+03  0.12734846767E+03  0.64125666521E+03  0.18800000000E+03 0.  0.
<mgrwt>
<rscale>  0 0.13946605E+04</rscale>
<asrwt>0</asrwt>
<pdfrwt beam="1">  1        2 0.12953846E+00 0.13946605E+04</pdfrwt>
<pdfrwt beam="2">  1       -2 0.76609425E-01 0.13946605E+04</pdfrwt>
<totfact> 0.47819404E+01</totfact>
</mgrwt>
</event>
<event>
 4    1  0.6024609E-005  0.8509221E+03  0.7818608E-02  0.9489100E-01
         -2   -1    0    0    0  501 -0.00000000000E+00  0.00000000000E+00  0.83532275954E+02  0.83532275993E+02  0.25500000000E-02 0. -1.
          2   -1    0    0  501    0  0.00000000000E+00 -0.00000000000E+00 -0.21670318743E+04  0.21670318743E+04  0.25500000000E-02 0.  1.
    5000001    1    1    2    0    0  0.34796350264E+03  0.74538340726E+02 -0.14066872447E+04  0.14631293749E+04  0.18800000000E+03 0.  0.
   -5000001    1    1    2    0    0 -0.34796350264E+03 -0.74538340726E+02 -0.67681235372E+03  0.78743477543E+03  0.18800000000E+03 0.  0.
<mgrwt>
<rscale>  0 0.85092210E+03</rscale>
<asrwt>0</asrwt>
<pdfrwt beam="1">  1        2 0.30957595E+00 0.85092210E+03</pdfrwt>
<pdfrwt beam="2">  1       -2 0.11933184E-01 0.85092210E+03</pdfrwt>
<totfact> 0.34339316E+02</totfact>
</mgrwt>
</event>
<event>
 4    1  0.6024609E-005  0.6360383E+03  0.7818608E-02  0.9833336E-01
         -2   -1    0    0    0  501 -0.00000000000E+00  0.00000000000E+00  0.46087513885E+02  0.46087513955E+02  0.25500000000E-02 0. -1.
          2   -1    0    0  501    0  0.00000000000E+00 -0.00000000000E+00 -0.21944375593E+04  0.21944375593E+04  0.25500000000E-02 0.  1.
    5000001    1    1    2    0    0  0.20606140472E+03  0.11063289409E+03 -0.14451601069E+04  0.14759853232E+04  0.18800000000E+03 0.  0.
   -5000001    1    1    2    0    0 -0.20606140472E+03 -0.11063289409E+03 -0.70318993857E+03  0.76453975009E+03  0.18800000000E+03 0.  0.
<mgrwt>
<rscale>  0 0.63603827E+03</rscale>
<asrwt>0</asrwt>
<pdfrwt beam="1">  1        2 0.31349101E+00 0.63603827E+03</pdfrwt>
<pdfrwt beam="2">  1       -2 0.65839319E-02 0.63603827E+03</pdfrwt>
<totfact> 0.88102300E+02</totfact>
</mgrwt>
</event>
<event>
 4    1  0.6024609E-005  0.7263665E+03  0.7818608E-02  0.9673175E-01
         -2   -1    0    0    0  501 -0.00000000000E+00  0.00000000000E+00  0.36773583694E+03  0.36773583695E+03  0.25500000000E-02 0. -1.
          2   -1    0    0  501    0  0.00000000000E+00 -0.00000000000E+00 -0.35868698792E+03  0.35868698793E+03  0.25500000000E-02 0.  1.
    5000001    1    1    2    0    0  0.25364744782E+03  0.17499413422E+03 -0.35454731620E+02  0.36271340310E+03  0.18800000000E+03 0.  0.
   -5000001    1    1    2    0    0 -0.25364744782E+03 -0.17499413422E+03  0.44503580645E+02  0.36370942177E+03  0.18800000000E+03 0.  0.
<mgrwt>
<rscale>  0 0.72636646E+03</rscale>
<asrwt>0</asrwt>
<pdfrwt beam="1">  1        2 0.51240998E-01 0.72636646E+03</pdfrwt>
<pdfrwt beam="2">  1       -2 0.52533691E-01 0.72636646E+03</pdfrwt>
<totfact> 0.33678558E+02</totfact>
</mgrwt>
</event>
<event>
 4    1  0.6024609E-005  0.5524107E+03  0.7818608E-02  0.1000937E+00
          2   -1    0    0  501    0  0.00000000000E+00  0.00000000000E+00  0.56717736577E+03  0.56717736577E+03  0.25500000000E-02 0.  1.
         -2   -1    0    0    0  501 -0.00000000000E+00 -0.00000000000E+00 -0.13450713127E+03  0.13450713129E+03  0.25500000000E-02 0. -1.
    5000001    1    1    2    0    0  0.91041726375E+02 -0.16099269248E+03  0.11206728088E+03  0.28654898083E+03  0.18800000000E+03 0.  0.
   -5000001    1    1    2    0    0 -0.91041726375E+02  0.16099269248E+03  0.32060295361E+03  0.41513551623E+03  0.18800000000E+03 0.  0.
<mgrwt>
<rscale>  0 0.55241072E+03</rscale>
<asrwt>0</asrwt>
<pdfrwt beam="1">  1        2 0.81025340E-01 0.55241072E+03</pdfrwt>
<pdfrwt beam="2">  1       -2 0.19215304E-01 0.55241072E+03</pdfrwt>
<totfact> 0.13270476E+03</totfact>
</mgrwt>
</event>
<event>
 4    1  0.6024609E-005  0.6875407E+03  0.7818608E-02  0.9738780E-01
         -2   -1    0    0    0  501 -0.00000000000E+00  0.00000000000E+00  0.16970393266E+03  0.16970393268E+03  0.25500000000E-02 0. -1.
          2   -1    0    0  501    0  0.00000000000E+00 -0.00000000000E+00 -0.69637786996E+03  0.69637786997E+03  0.25500000000E-02 0.  1.
    5000001    1    1    2    0    0 -0.10815241560E+03 -0.23917374848E+03 -0.11464641905E+03  0.34262053115E+03  0.18800000000E+03 0.  0.
   -5000001    1    1    2    0    0  0.10815241560E+03  0.23917374848E+03 -0.41202751825E+03  0.52346127150E+03  0.18800000000E+03 0.  0.
<mgrwt>
<rscale>  0 0.68754073E+03</rscale>
<asrwt>0</asrwt>
<pdfrwt beam="1">  1        2 0.99482551E-01 0.68754073E+03</pdfrwt>
<pdfrwt beam="2">  1       -2 0.24243419E-01 0.68754073E+03</pdfrwt>
<totfact> 0.68875919E+02</totfact>
</mgrwt>
</event>
<event>
 4    1  0.6024609E-005  0.4745760E+03  0.7818608E-02  0.1020637E+00
          2   -1    0    0  501    0  0.00000000000E+00  0.00000000000E+00  0.20811630366E+03  0.20811630368E+03  0.25500000000E-02 0.  1.
         -2   -1    0    0    0  501 -0.00000000000E+00 -0.00000000000E+00 -0.27054870776E+03  0.27054870778E+03  0.25500000000E-02 0. -1.
    5000001    1    1    2    0    0 -0.12765648485E+03  0.51414825718E+02  0.14137156748E+02  0.23341705514E+03  0.18800000000E+03 0.  0.
   -5000001    1    1    2    0    0  0.12765648485E+03 -0.51414825718E+02 -0.76569560851E+02  0.24524795631E+03  0.18800000000E+03 0.  0.
<mgrwt>
<rscale>  0 0.47457601E+03</rscale>
<asrwt>0</asrwt>
<pdfrwt beam="1">  1        2 0.29730901E-01 0.47457601E+03</pdfrwt>
<pdfrwt beam="2">  1       -2 0.38649815E-01 0.47457601E+03</pdfrwt>
<totfact> 0.11366161E+03</totfact>
</mgrwt>
</event>
<event>
 4    1  0.6024609E-005  0.4754461E+03  0.7818608E-02  0.1020394E+00
          2   -1    0    0  501    0  0.00000000000E+00  0.00000000000E+00  0.10139303378E+04  0.10139303378E+04  0.25500000000E-02 0.  1.
         -2   -1    0    0    0  501 -0.00000000000E+00 -0.00000000000E+00 -0.55735838166E+02  0.55735838224E+02  0.25500000000E-02 0. -1.
    5000001    1    1    2    0    0  0.12286469006E+03 -0.62277696327E+02  0.37371520757E+03  0.44043308219E+03  0.18800000000E+03 0.  0.
   -5000001    1    1    2    0    0 -0.12286469006E+03  0.62277696327E+02  0.58447929209E+03  0.62923309386E+03  0.18800000000E+03 0.  0.
<mgrwt>
<rscale>  0 0.47544614E+03</rscale>
<asrwt>0</asrwt>
<pdfrwt beam="1">  1        2 0.14484720E+00 0.47544614E+03</pdfrwt>
<pdfrwt beam="2">  1       -2 0.79622623E-02 0.47544614E+03</pdfrwt>
<totfact> 0.27317511E+03</totfact>
</mgrwt>
</event>
<event>
 4    1  0.6024609E-005  0.4452854E+03  0.7818608E-02  0.1029137E+00
          2   -1    0    0  501    0  0.00000000000E+00  0.00000000000E+00  0.90115388840E+03  0.90115388840E+03  0.25500000000E-02 0.  1.
         -2   -1    0    0    0  501 -0.00000000000E+00 -0.00000000000E+00 -0.55006996876E+02  0.55006996935E+02  0.25500000000E-02 0. -1.
    5000001    1    1    2    0    0  0.18778478656E+01  0.11673089940E+03  0.37064504032E+03  0.43168434660E+03  0.18800000000E+03 0.  0.
   -5000001    1    1    2    0    0 -0.18778478656E+01 -0.11673089940E+03  0.47550185121E+03  0.52447653874E+03  0.18800000000E+03 0.  0.
<mgrwt>
<rscale>  0 0.44528539E+03</rscale>
<asrwt>0</asrwt>
<pdfrwt beam="1">  1        2 0.12873627E+00 0.44528539E+03</pdfrwt>
<pdfrwt beam="2">  1       -2 0.78581427E-02 0.44528539E+03</pdfrwt>
<totfact> 0.32735581E+03</totfact>
</mgrwt>
</event>
<event>
 4    1  0.6024609E-005  0.9591839E+03  0.7818608E-02  0.9354480E-01
          2   -1    0    0  501    0  0.00000000000E+00  0.00000000000E+00  0.76992551723E+03  0.76992551724E+03  0.25500000000E-02 0.  1.
         -2   -1    0    0    0  501 -0.00000000000E+00 -0.00000000000E+00 -0.29874117588E+03  0.29874117589E+03  0.25500000000E-02 0. -1.
    5000001    1    1    2    0    0  0.30970390992E+03 -0.20812097053E+03 -0.26725131302E+02  0.41867539077E+03  0.18800000000E+03 0.  0.
   -5000001    1    1    2    0    0 -0.30970390992E+03  0.20812097053E+03  0.49790947265E+03  0.64999130236E+03  0.18800000000E+03 0.  0.
<mgrwt>
<rscale>  0 0.95918393E+03</rscale>
<asrwt>0</asrwt>
<pdfrwt beam="1">  1        2 0.10998936E+00 0.95918393E+03</pdfrwt>
<pdfrwt beam="2">  1       -2 0.42677312E-01 0.95918393E+03</pdfrwt>
<totfact> 0.20766677E+02</totfact>
</mgrwt>
</event>
<event>
 4    1  0.6024609E-005  0.5492422E+03  0.7818608E-02  0.1001669E+00
         -2   -1    0    0    0  501 -0.00000000000E+00  0.00000000000E+00  0.19490149021E+03  0.19490149022E+03  0.25500000000E-02 0. -1.
          2   -1    0    0  501    0  0.00000000000E+00 -0.00000000000E+00 -0.38694805782E+03  0.38694805783E+03  0.25500000000E-02 0.  1.
    5000001    1    1    2    0    0 -0.16414209841E+03  0.10685426958E+03 -0.13985973757E+03  0.30539353233E+03  0.18800000000E+03 0.  0.
   -5000001    1    1    2    0    0  0.16414209841E+03 -0.10685426958E+03 -0.52186830047E+02  0.27645601572E+03  0.18800000000E+03 0.  0.
<mgrwt>
<rscale>  0 0.54924222E+03</rscale>
<asrwt>0</asrwt>
<pdfrwt beam="1">  1        2 0.55278294E-01 0.54924222E+03</pdfrwt>
<pdfrwt beam="2">  1       -2 0.27843070E-01 0.54924222E+03</pdfrwt>
<totfact> 0.10579718E+03</totfact>
</mgrwt>
</event>
<event>
 4    1  0.6024609E-005  0.6399273E+03  0.7818608E-02  0.9825866E-01
         -2   -1    0    0    0  501 -0.00000000000E+00  0.00000000000E+00  0.71306908685E+02  0.71306908731E+02  0.25500000000E-02 0. -1.
          2   -1    0    0  501    0  0.00000000000E+00 -0.00000000000E+00 -0.14357197563E+04  0.14357197563E+04  0.25500000000E-02 0.  1.
    5000001    1    1    2    0    0  0.52949056852E+01 -0.19880696532E+03 -0.29181294826E+03  0.40006379773E+03  0.18800000000E+03 0.  0.
   -5000001    1    1    2    0    0 -0.52949056852E+01  0.19880696532E+03 -0.10725998993E+04  0.11069628673E+04  0.18800000000E+03 0.  0.
<mgrwt>
<rscale>  0 0.63992730E+03</rscale>
<asrwt>0</asrwt>
<pdfrwt beam="1">  1        2 0.20510280E+00 0.63992730E+03</pdfrwt>
<pdfrwt beam="2">  1       -2 0.10186702E-01 0.63992730E+03</pdfrwt>
<totfact> 0.10669185E+03</totfact>
</mgrwt>
</event>
<event>
 4    1  0.6024609E-005  0.5423774E+03  0.7818608E-02  0.1003274E+00
         -2   -1    0    0    0  501 -0.00000000000E+00  0.00000000000E+00  0.27255366389E+03  0.27255366390E+03  0.25500000000E-02 0. -1.
          2   -1    0    0  501    0  0.00000000000E+00 -0.00000000000E+00 -0.26983053969E+03  0.26983053970E+03  0.25500000000E-02 0.  1.
    5000001    1    1    2    0    0 -0.10600187578E+03 -0.16254353787E+03 -0.21930422147E+02  0.27107516077E+03  0.18800000000E+03 0.  0.
   -5000001    1    1    2    0    0  0.10600187578E+03  0.16254353787E+03  0.24653546348E+02  0.27130904283E+03  0.18800000000E+03 0.  0.
<mgrwt>
<rscale>  0 0.54237737E+03</rscale>
<asrwt>0</asrwt>
<pdfrwt beam="1">  1        2 0.38547220E-01 0.54237737E+03</pdfrwt>
<pdfrwt beam="2">  1       -2 0.38936238E-01 0.54237737E+03</pdfrwt>
<totfact> 0.83996125E+02</totfact>
</mgrwt>
</event>
<event>
 4    1  0.6024609E-005  0.4784513E+03  0.7818608E-02  0.1019562E+00
         -2   -1    0    0    0  501 -0.00000000000E+00  0.00000000000E+00  0.98165847419E+03  0.98165847419E+03  0.25500000000E-02 0. -1.
          2   -1    0    0  501    0  0.00000000000E+00 -0.00000000000E+00 -0.58298189657E+02  0.58298189713E+02  0.25500000000E-02 0.  1.
    5000001    1    1    2    0    0 -0.49221952213E+02 -0.13729967689E+03  0.51540387115E+03  0.56767874035E+03  0.18800000000E+03 0.  0.
   -5000001    1    1    2    0    0  0.49221952213E+02  0.13729967689E+03  0.40795641338E+03  0.47227792355E+03  0.18800000000E+03 0.  0.
<mgrwt>
<rscale>  0 0.47845130E+03</rscale>
<asrwt>0</asrwt>
<pdfrwt beam="1">  1        2 0.83283125E-02 0.47845130E+03</pdfrwt>
<pdfrwt beam="2">  1       -2 0.14023693E+00 0.47845130E+03</pdfrwt>
<totfact> 0.30513458E+02</totfact>
</mgrwt>
</event>
<event>
 4    1  0.6024609E-005  0.5942325E+03  0.7818608E-02  0.9917445E-01
         -2   -1    0    0    0  501 -0.00000000000E+00  0.00000000000E+00  0.11380944302E+03  0.11380944305E+03  0.25500000000E-02 0. -1.
          2   -1    0    0  501    0  0.00000000000E+00 -0.00000000000E+00 -0.77566556995E+03  0.77566556996E+03  0.25500000000E-02 0.  1.
    5000001    1    1    2    0    0  0.19847381586E+03 -0.11242334002E+03 -0.28594281066E+03  0.41126409268E+03  0.18800000000E+03 0.  0.
   -5000001    1    1    2    0    0 -0.19847381586E+03  0.11242334002E+03 -0.37591331627E+03  0.47821092032E+03  0.18800000000E+03 0.  0.
<mgrwt>
<rscale>  0 0.59423250E+03</rscale>
<asrwt>0</asrwt>
<pdfrwt beam="1">  1        2 0.11080936E+00 0.59423250E+03</pdfrwt>
<pdfrwt beam="2">  1       -2 0.16258492E-01 0.59423250E+03</pdfrwt>
<totfact> 0.12107027E+03</totfact>
</mgrwt>
</event>
<event>
 4    1  0.6024609E-005  0.5239989E+03  0.7818608E-02  0.1007698E+00
          2   -1    0    0  501    0  0.00000000000E+00  0.00000000000E+00  0.11661662263E+04  0.11661662263E+04  0.25500000000E-02 0.  1.
         -2   -1    0    0    0  501 -0.00000000000E+00 -0.00000000000E+00 -0.58862714021E+02  0.58862714076E+02  0.25500000000E-02 0. -1.
    5000001    1    1    2    0    0 -0.15595515226E+03  0.70708350904E+02  0.40620000369E+03  0.47923284883E+03  0.18800000000E+03 0.  0.
   -5000001    1    1    2    0    0  0.15595515226E+03 -0.70708350904E+02  0.70110350855E+03  0.74579609150E+03  0.18800000000E+03 0.  0.
<mgrwt>
<rscale>  0 0.52399889E+03</rscale>
<asrwt>0</asrwt>
<pdfrwt beam="1">  1        2 0.16659517E+00 0.52399889E+03</pdfrwt>
<pdfrwt beam="2">  1       -2 0.84089595E-02 0.52399889E+03</pdfrwt>
<totfact> 0.20428769E+03</totfact>
</mgrwt>
</event>
<event>
 4    1  0.6024609E-005  0.4460169E+03  0.7818608E-02  0.1028917E+00
         -2   -1    0    0    0  501 -0.00000000000E+00  0.00000000000E+00  0.17499072780E+03  0.17499072782E+03  0.25500000000E-02 0. -1.
          2   -1    0    0  501    0  0.00000000000E+00 -0.00000000000E+00 -0.28420234780E+03  0.28420234782E+03  0.25500000000E-02 0.  1.
    5000001    1    1    2    0    0 -0.42407646872E+02  0.87541278781E+02  0.17659603656E+02  0.21240938210E+03  0.18800000000E+03 0.  0.
   -5000001    1    1    2    0    0  0.42407646872E+02 -0.87541278781E+02 -0.12687122366E+03  0.24678369354E+03  0.18800000000E+03 0.  0.
<mgrwt>
<rscale>  0 0.44601693E+03</rscale>
<asrwt>0</asrwt>
<pdfrwt beam="1">  1        2 0.40600335E-01 0.44601693E+03</pdfrwt>
<pdfrwt beam="2">  1       -2 0.24998675E-01 0.44601693E+03</pdfrwt>
<totfact> 0.18021130E+03</totfact>
</mgrwt>
</event>
<event>
 4    1  0.6024609E-005  0.6104461E+03  0.7818608E-02  0.9883968E-01
         -2   -1    0    0    0  501 -0.00000000000E+00  0.00000000000E+00  0.16677609876E+03  0.16677609878E+03  0.25500000000E-02 0. -1.
          2   -1    0    0  501    0  0.00000000000E+00 -0.00000000000E+00 -0.55859994260E+03  0.55859994260E+03  0.25500000000E-02 0.  1.
    5000001    1    1    2    0    0  0.12549039858E+03 -0.19342363946E+03 -0.11482531028E+03  0.31888774878E+03  0.18800000000E+03 0.  0.
   -5000001    1    1    2    0    0 -0.12549039858E+03  0.19342363946E+03 -0.27699853355E+03  0.40648829261E+03  0.18800000000E+03 0.  0.
<mgrwt>
<rscale>  0 0.61044613E+03</rscale>
<asrwt>0</asrwt>
<pdfrwt beam="1">  1        2 0.79799991E-01 0.61044613E+03</pdfrwt>
<pdfrwt beam="2">  1       -2 0.23825157E-01 0.61044613E+03</pdfrwt>
<totfact> 0.92537649E+02</totfact>
</mgrwt>
</event>
<event>
 4    1  0.6024609E-005  0.7684696E+03  0.7818608E-02  0.9606812E-01
          2   -1    0    0  501    0  0.00000000000E+00  0.00000000000E+00  0.16728519268E+04  0.16728519268E+04  0.25500000000E-02 0.  1.
         -2   -1    0    0    0  501 -0.00000000000E+00 -0.00000000000E+00 -0.88254305660E+02  0.88254305697E+02  0.25500000000E-02 0. -1.
    5000001    1    1    2    0    0 -0.17880003095E+03 -0.24095694398E+03  0.45036060277E+03  0.57288600302E+03  0.18800000000E+03 0.  0.
   -5000001    1    1    2    0    0  0.17880003095E+03  0.24095694398E+03  0.11342370184E+04  0.11882202295E+04  0.18800000000E+03 0.  0.
<mgrwt>
<rscale>  0 0.76846961E+03</rscale>
<asrwt>0</asrwt>
<pdfrwt beam="1">  1        2 0.23897885E+00 0.76846961E+03</pdfrwt>
<pdfrwt beam="2">  1       -2 0.12607758E-01 0.76846961E+03</pdfrwt>
<totfact> 0.56228128E+02</totfact>
</mgrwt>
</event>
<event>
 4    1  0.6024609E-005  0.8971200E+03  0.7818608E-02  0.9429189E-01
         -2   -1    0    0    0  501 -0.00000000000E+00  0.00000000000E+00  0.12117498408E+03  0.12117498411E+03  0.25500000000E-02 0. -1.
          2   -1    0    0  501    0  0.00000000000E+00 -0.00000000000E+00 -0.16604587202E+04  0.16604587202E+04  0.25500000000E-02 0.  1.
    5000001    1    1    2    0    0 -0.48216416393E+02  0.23735023036E+03 -0.14198756849E+04  0.14526014303E+04  0.18800000000E+03 0.  0.
   -5000001    1    1    2    0    0  0.48216416393E+02 -0.23735023036E+03 -0.11940805122E+03  0.32903227404E+03  0.18800000000E+03 0.  0.
<mgrwt>
<rscale>  0 0.89711997E+03</rscale>
<asrwt>0</asrwt>
<pdfrwt beam="1">  1        2 0.23720837E+00 0.89711997E+03</pdfrwt>
<pdfrwt beam="2">  1       -2 0.17310713E-01 0.89711997E+03</pdfrwt>
<totfact> 0.33139248E+02</totfact>
</mgrwt>
</event>
<event>
 4    1  0.6024609E-005  0.9885139E+03  0.7818608E-02  0.9321233E-01
          2   -1    0    0  501    0  0.00000000000E+00  0.00000000000E+00  0.18634631713E+04  0.18634631713E+04  0.25500000000E-02 0.  1.
         -2   -1    0    0    0  501 -0.00000000000E+00 -0.00000000000E+00 -0.13109457432E+03  0.13109457434E+03  0.25500000000E-02 0. -1.
    5000001    1    1    2    0    0 -0.17739921861E+03  0.40602010562E+03  0.10928818887E+04  0.11941765496E+04  0.18800000000E+03 0.  0.
   -5000001    1    1    2    0    0  0.17739921861E+03 -0.40602010562E+03  0.63948670824E+03  0.80038119602E+03  0.18800000000E+03 0.  0.
<mgrwt>
<rscale>  0 0.98851386E+03</rscale>
<asrwt>0</asrwt>
<pdfrwt beam="1">  1        2 0.26620901E+00 0.98851386E+03</pdfrwt>
<pdfrwt beam="2">  1       -2 0.18727798E-01 0.98851386E+03</pdfrwt>
<totfact> 0.22614609E+02</totfact>
</mgrwt>
</event>
<event>
 4    1  0.6024609E-005  0.7123382E+03  0.7818608E-02  0.9696362E-01
          2   -1    0    0  501    0  0.00000000000E+00  0.00000000000E+00  0.51914870557E+03  0.51914870558E+03  0.25500000000E-02 0.  1.
         -2   -1    0    0    0  501 -0.00000000000E+00 -0.00000000000E+00 -0.24435470402E+03  0.24435470404E+03  0.25500000000E-02 0. -1.
    5000001    1    1    2    0    0  0.94091963159E+01 -0.17789568876E+03 -0.12465765087E+03  0.28743510394E+03  0.18800000000E+03 0.  0.
   -5000001    1    1    2    0    0 -0.94091963159E+01  0.17789568876E+03  0.39945165241E+03  0.47606830568E+03  0.18800000000E+03 0.  0.
<mgrwt>
<rscale>  0 0.71233820E+03</rscale>
<asrwt>0</asrwt>
<pdfrwt beam="1">  1        2 0.74164100E-01 0.71233820E+03</pdfrwt>
<pdfrwt beam="2">  1       -2 0.34907815E-01 0.71233820E+03</pdfrwt>
<totfact> 0.49769136E+02</totfact>
</mgrwt>
</event>
<event>
 4    1  0.6024609E-005  0.5003224E+03  0.7818608E-02  0.1013695E+00
          2   -1    0    0  501    0  0.00000000000E+00  0.00000000000E+00  0.18712049485E+03  0.18712049487E+03  0.25500000000E-02 0.  1.
         -2   -1    0    0    0  501 -0.00000000000E+00 -0.00000000000E+00 -0.33444031864E+03  0.33444031865E+03  0.25500000000E-02 0. -1.
    5000001    1    1    2    0    0  0.10953148150E+03  0.67278672220E+02 -0.18155756355E+03  0.29125712705E+03  0.18800000000E+03 0.  0.
   -5000001    1    1    2    0    0 -0.10953148150E+03 -0.67278672220E+02  0.34237739760E+02  0.23030368647E+03  0.18800000000E+03 0.  0.
<mgrwt>
<rscale>  0 0.50032245E+03</rscale>
<asrwt>0</asrwt>
<pdfrwt beam="1">  1        2 0.26731499E-01 0.50032245E+03</pdfrwt>
<pdfrwt beam="2">  1       -2 0.47777188E-01 0.50032245E+03</pdfrwt>
<totfact> 0.84547366E+02</totfact>
</mgrwt>
</event>
<event>
 4    1  0.6024609E-005  0.8639002E+03  0.7818608E-02  0.9471868E-01
          2   -1    0    0  501    0  0.00000000000E+00  0.00000000000E+00  0.11565594121E+04  0.11565594121E+04  0.25500000000E-02 0.  1.
         -2   -1    0    0    0  501 -0.00000000000E+00 -0.00000000000E+00 -0.16132408366E+03  0.16132408368E+03  0.25500000000E-02 0. -1.
    5000001    1    1    2    0    0  0.23674308615E+02 -0.37626804477E+03  0.35210363682E+03  0.54905289861E+03  0.18800000000E+03 0.  0.
   -5000001    1    1    2    0    0 -0.23674308615E+02  0.37626804477E+03  0.64313169165E+03  0.76883059722E+03  0.18800000000E+03 0.  0.
<mgrwt>
<rscale>  0 0.86390020E+03</rscale>
<asrwt>0</asrwt>
<pdfrwt beam="1">  1        2 0.16522277E+00 0.86390020E+03</pdfrwt>
<pdfrwt beam="2">  1       -2 0.23046298E-01 0.86390020E+03</pdfrwt>
<totfact> 0.37615362E+02</totfact>
</mgrwt>
</event>
<event>
 4    1  0.6024609E-005  0.5375298E+03  0.7818608E-02  0.1004422E+00
         -2   -1    0    0    0  501 -0.00000000000E+00  0.00000000000E+00  0.56285088233E+02  0.56285088291E+02  0.25500000000E-02 0. -1.
          2   -1    0    0  501    0  0.00000000000E+00 -0.00000000000E+00 -0.12833694229E+04  0.12833694229E+04  0.25500000000E-02 0.  1.
    5000001    1    1    2    0    0  0.16313118600E+03 -0.37085126785E+02 -0.37837864081E+03  0.45442434606E+03  0.18800000000E+03 0.  0.
   -5000001    1    1    2    0    0 -0.16313118600E+03  0.37085126785E+02 -0.84870569388E+03  0.88523016515E+03  0.18800000000E+03 0.  0.
<mgrwt>
<rscale>  0 0.53752976E+03</rscale>
<asrwt>0</asrwt>
<pdfrwt beam="1">  1        2 0.18333847E+00 0.53752976E+03</pdfrwt>
<pdfrwt beam="2">  1       -2 0.80407277E-02 0.53752976E+03</pdfrwt>
<totfact> 0.18889821E+03</totfact>
</mgrwt>
</event>
<event>
 4    1  0.6024609E-005  0.6548060E+03  0.7818608E-02  0.9797803E-01
          2   -1    0    0  501    0  0.00000000000E+00  0.00000000000E+00  0.45695742911E+03  0.45695742912E+03  0.25500000000E-02 0.  1.
         -2   -1    0    0    0  501 -0.00000000000E+00 -0.00000000000E+00 -0.23457921358E+03  0.23457921359E+03  0.25500000000E-02 0. -1.
    5000001    1    1    2    0    0 -0.14650260095E+03  0.22211634878E+03  0.76967264494E+02  0.33476356475E+03  0.18800000000E+03 0.  0.
   -5000001    1    1    2    0    0  0.14650260095E+03 -0.22211634878E+03  0.14541095103E+03  0.35677307796E+03  0.18800000000E+03 0.  0.
<mgrwt>
<rscale>  0 0.65480597E+03</rscale>
<asrwt>0</asrwt>
<pdfrwt beam="1">  1        2 0.65279632E-01 0.65480597E+03</pdfrwt>
<pdfrwt beam="2">  1       -2 0.33511317E-01 0.65480597E+03</pdfrwt>
<totfact> 0.62255444E+02</totfact>
</mgrwt>
</event>
<event>
 4    1  0.6024609E-005  0.5891617E+03  0.7818608E-02  0.9928151E-01
         -2   -1    0    0    0  501 -0.00000000000E+00  0.00000000000E+00  0.31235558771E+03  0.31235558772E+03  0.25500000000E-02 0. -1.
          2   -1    0    0  501    0  0.00000000000E+00 -0.00000000000E+00 -0.27781761395E+03  0.27781761396E+03  0.25500000000E-02 0.  1.
    5000001    1    1    2    0    0  0.18923465154E+03 -0.11166107442E+03  0.73543144220E+02  0.29837986350E+03  0.18800000000E+03 0.  0.
   -5000001    1    1    2    0    0 -0.18923465154E+03  0.11166107442E+03 -0.39005170451E+02  0.29179333818E+03  0.18800000000E+03 0.  0.
<mgrwt>
<rscale>  0 0.58916172E+03</rscale>
<asrwt>0</asrwt>
<pdfrwt beam="1">  1        2 0.39688230E-01 0.58916172E+03</pdfrwt>
<pdfrwt beam="2">  1       -2 0.44622227E-01 0.58916172E+03</pdfrwt>
<totfact> 0.62287006E+02</totfact>
</mgrwt>
</event>
<event>
 4    1  0.6024609E-005  0.5838051E+03  0.7818608E-02  0.9939587E-01
          2   -1    0    0  501    0  0.00000000000E+00  0.00000000000E+00  0.43168265896E+04  0.43168265896E+04  0.25500000000E-02 0.  1.
         -2   -1    0    0    0  501 -0.00000000000E+00 -0.00000000000E+00 -0.19738366644E+02  0.19738366809E+02  0.25500000000E-02 0. -1.
    5000001    1    1    2    0    0 -0.45154931742E+02 -0.21406464155E+03  0.18163103799E+04  0.18390731456E+04  0.18800000000E+03 0.  0.
   -5000001    1    1    2    0    0  0.45154931742E+02  0.21406464155E+03  0.24807778431E+04  0.24974918109E+04  0.18800000000E+03 0.  0.
<mgrwt>
<rscale>  0 0.58380513E+03</rscale>
<asrwt>0</asrwt>
<pdfrwt beam="1">  1        2 0.61669010E+00 0.58380513E+03</pdfrwt>
<pdfrwt beam="2">  1       -2 0.28197640E-02 0.58380513E+03</pdfrwt>
<totfact> 0.18966407E+02</totfact>
</mgrwt>
</event>
<event>
 4    1  0.6024609E-005  0.9825322E+03  0.7818608E-02  0.9327913E-01
          2   -1    0    0  501    0  0.00000000000E+00  0.00000000000E+00  0.23497696073E+04  0.23497696073E+04  0.25500000000E-02 0.  1.
         -2   -1    0    0    0  501 -0.00000000000E+00 -0.00000000000E+00 -0.10270894684E+03  0.10270894687E+03  0.25500000000E-02 0. -1.
    5000001    1    1    2    0    0  0.29158109134E+03  0.34195320039E+03  0.12823178386E+04  0.13717268544E+04  0.18800000000E+03 0.  0.
   -5000001    1    1    2    0    0 -0.29158109134E+03 -0.34195320039E+03  0.96474282186E+03  0.10807516997E+04  0.18800000000E+03 0.  0.
<mgrwt>
<rscale>  0 0.98253216E+03</rscale>
<asrwt>0</asrwt>
<pdfrwt beam="1">  1        2 0.33568140E+00 0.98253216E+03</pdfrwt>
<pdfrwt beam="2">  1       -2 0.14672706E-01 0.98253216E+03</pdfrwt>
<totfact> 0.19399489E+02</totfact>
</mgrwt>
</event>
<event>
 4    1  0.6024609E-005  0.4957630E+03  0.7818608E-02  0.1014891E+00
          2   -1    0    0  501    0  0.00000000000E+00  0.00000000000E+00  0.17069770826E+03  0.17069770828E+03  0.25500000000E-02 0.  1.
         -2   -1    0    0    0  501 -0.00000000000E+00 -0.00000000000E+00 -0.35996521340E+03  0.35996521341E+03  0.25500000000E-02 0. -1.
    5000001    1    1    2    0    0  0.15972350247E+03  0.22481044740E+02 -0.10445824080E+03  0.26883548629E+03  0.18800000000E+03 0.  0.
   -5000001    1    1    2    0    0 -0.15972350247E+03 -0.22481044740E+02 -0.84809264340E+02  0.26182743541E+03  0.18800000000E+03 0.  0.
<mgrwt>
<rscale>  0 0.49576300E+03</rscale>
<asrwt>0</asrwt>
<pdfrwt beam="1">  1        2 0.24385387E-01 0.49576300E+03</pdfrwt>
<pdfrwt beam="2">  1       -2 0.51423601E-01 0.49576300E+03</pdfrwt>
<totfact> 0.80913073E+02</totfact>
</mgrwt>
</event>
<event>
 4    1  0.6024609E-005  0.3990819E+03  0.7818608E-02  0.1044098E+00
          2   -1    0    0  501    0  0.00000000000E+00  0.00000000000E+00  0.31335256918E+03  0.31335256919E+03  0.25500000000E-02 0.  1.
         -2   -1    0    0    0  501 -0.00000000000E+00 -0.00000000000E+00 -0.12706639527E+03  0.12706639529E+03  0.25500000000E-02 0. -1.
    5000001    1    1    2    0    0 -0.28842060574E+02 -0.13662400700E+02  0.28284317633E+02  0.19277584982E+03  0.18800000000E+03 0.  0.
   -5000001    1    1    2    0    0  0.28842060574E+02  0.13662400700E+02  0.15800185627E+03  0.24764311466E+03  0.18800000000E+03 0.  0.
<mgrwt>
<rscale>  0 0.39908185E+03</rscale>
<asrwt>0</asrwt>
<pdfrwt beam="1">  1        2 0.44764652E-01 0.39908185E+03</pdfrwt>
<pdfrwt beam="2">  1       -2 0.18152342E-01 0.39908185E+03</pdfrwt>
<totfact> 0.28256141E+03</totfact>
</mgrwt>
</event>
<event>
 4    1  0.6024609E-005  0.5575245E+03  0.7818608E-02  0.9997672E-01
         -2   -1    0    0    0  501 -0.00000000000E+00  0.00000000000E+00  0.62339585680E+02  0.62339585732E+02  0.25500000000E-02 0. -1.
          2   -1    0    0  501    0  0.00000000000E+00 -0.00000000000E+00 -0.12465336303E+04  0.12465336303E+04  0.25500000000E-02 0.  1.
    5000001    1    1    2    0    0 -0.15386984991E+02  0.19523150028E+03 -0.44339054038E+03  0.51989544075E+03  0.18800000000E+03 0.  0.
   -5000001    1    1    2    0    0  0.15386984991E+02 -0.19523150028E+03 -0.74080350427E+03  0.78897777532E+03  0.18800000000E+03 0.  0.
<mgrwt>
<rscale>  0 0.55752449E+03</rscale>
<asrwt>0</asrwt>
<pdfrwt beam="1">  1        2 0.17807622E+00 0.55752449E+03</pdfrwt>
<pdfrwt beam="2">  1       -2 0.89056559E-02 0.55752449E+03</pdfrwt>
<totfact> 0.16801964E+03</totfact>
</mgrwt>
</event>
<event>
 4    1  0.6024609E-005  0.6646289E+03  0.7818608E-02  0.9779710E-01
         -2   -1    0    0    0  501 -0.00000000000E+00  0.00000000000E+00  0.96652893203E+03  0.96652893204E+03  0.25500000000E-02 0. -1.
          2   -1    0    0  501    0  0.00000000000E+00 -0.00000000000E+00 -0.11425721712E+03  0.11425721715E+03  0.25500000000E-02 0.  1.
    5000001    1    1    2    0    0  0.21690801263E+03  0.21148501096E+02  0.69625572623E+03  0.75340054510E+03  0.18800000000E+03 0.  0.
   -5000001    1    1    2    0    0 -0.21690801263E+03 -0.21148501096E+02  0.15601598868E+03  0.32738560409E+03  0.18800000000E+03 0.  0.
<mgrwt>
<rscale>  0 0.66462894E+03</rscale>
<asrwt>0</asrwt>
<pdfrwt beam="1">  1        2 0.16322460E-01 0.66462894E+03</pdfrwt>
<pdfrwt beam="2">  1       -2 0.13807556E+00 0.66462894E+03</pdfrwt>
<totfact> 0.13656214E+02</totfact>
</mgrwt>
</event>
<event>
 4    1  0.6024609E-005  0.6215163E+03  0.7818608E-02  0.9861745E-01
          2   -1    0    0  501    0  0.00000000000E+00  0.00000000000E+00  0.72668305935E+03  0.72668305935E+03  0.25500000000E-02 0.  1.
         -2   -1    0    0    0  501 -0.00000000000E+00 -0.00000000000E+00 -0.13289237449E+03  0.13289237452E+03  0.25500000000E-02 0. -1.
    5000001    1    1    2    0    0 -0.82238173662E+02  0.10147962718E+03  0.58754683739E+03  0.63056840871E+03  0.18800000000E+03 0.  0.
   -5000001    1    1    2    0    0  0.82238173662E+02 -0.10147962718E+03  0.62438474640E+01  0.22900702516E+03  0.18800000000E+03 0.  0.
<mgrwt>
<rscale>  0 0.62151633E+03</rscale>
<asrwt>0</asrwt>
<pdfrwt beam="1">  1        2 0.10381187E+00 0.62151633E+03</pdfrwt>
<pdfrwt beam="2">  1       -2 0.18984625E-01 0.62151633E+03</pdfrwt>
<totfact> 0.10066748E+03</totfact>
</mgrwt>
</event>
<event>
 4    1  0.6024609E-005  0.4449961E+03  0.7818608E-02  0.1029225E+00
         -2   -1    0    0    0  501 -0.00000000000E+00  0.00000000000E+00  0.80145947872E+02  0.80145947912E+02  0.25500000000E-02 0. -1.
          2   -1    0    0  501    0  0.00000000000E+00 -0.00000000000E+00 -0.61769040867E+03  0.61769040867E+03  0.25500000000E-02 0.  1.
    5000001    1    1    2    0    0 -0.66472342432E+02 -0.63475045716E+02 -0.15023433194E+03  0.25760824566E+03  0.18800000000E+03 0.  0.
   -5000001    1    1    2    0    0  0.66472342432E+02  0.63475045716E+02 -0.38731012885E+03  0.44022811093E+03  0.18800000000E+03 0.  0.
<mgrwt>
<rscale>  0 0.44499610E+03</rscale>
<asrwt>0</asrwt>
<pdfrwt beam="1">  1        2 0.88241484E-01 0.44499610E+03</pdfrwt>
<pdfrwt beam="2">  1       -2 0.11449421E-01 0.44499610E+03</pdfrwt>
<totfact> 0.28583083E+03</totfact>
</mgrwt>
</event>
<event>
 4    1  0.6024609E-005  0.1466863E+04  0.7818608E-02  0.8906793E-01
         -2   -1    0    0    0  501 -0.00000000000E+00  0.00000000000E+00  0.29895979821E+03  0.29895979822E+03  0.25500000000E-02 0. -1.
          2   -1    0    0  501    0  0.00000000000E+00 -0.00000000000E+00 -0.17993114446E+04  0.17993114446E+04  0.25500000000E-02 0.  1.
    5000001    1    1    2    0    0  0.43823881972E+03  0.41899649146E+03 -0.22466096455E+03  0.67337053095E+03  0.18800000000E+03 0.  0.
   -5000001    1    1    2    0    0 -0.43823881972E+03 -0.41899649146E+03 -0.12756906818E+04  0.14249007119E+04  0.18800000000E+03 0.  0.
<mgrwt>
<rscale>  0 0.14668630E+04</rscale>
<asrwt>0</asrwt>
<pdfrwt beam="1">  1        2 0.25704449E+00 0.14668630E+04</pdfrwt>
<pdfrwt beam="2">  1       -2 0.42708543E-01 0.14668630E+04</pdfrwt>
<totfact> 0.51328417E+01</totfact>
</mgrwt>
</event>
<event>
 4    1  0.6024609E-005  0.1101161E+04  0.7818608E-02  0.9204061E-01
         -2   -1    0    0    0  501 -0.00000000000E+00  0.00000000000E+00  0.33052943641E+03  0.33052943642E+03  0.25500000000E-02 0. -1.
          2   -1    0    0  501    0  0.00000000000E+00 -0.00000000000E+00 -0.91713144730E+03  0.91713144731E+03  0.25500000000E-02 0.  1.
    5000001    1    1    2    0    0 -0.38301416195E+02  0.37821098380E+03  0.10453102966E+03  0.43678516792E+03  0.18800000000E+03 0.  0.
   -5000001    1    1    2    0    0  0.38301416195E+02 -0.37821098380E+03 -0.69113304055E+03  0.81087571581E+03  0.18800000000E+03 0.  0.
<mgrwt>
<rscale>  0 0.11011611E+04</rscale>
<asrwt>0</asrwt>
<pdfrwt beam="1">  1        2 0.13101878E+00 0.11011611E+04</pdfrwt>
<pdfrwt beam="2">  1       -2 0.47218491E-01 0.11011611E+04</pdfrwt>
<totfact> 0.13369755E+02</totfact>
</mgrwt>
</event>
<event>
 4    1  0.6024609E-005  0.4139362E+03  0.7818608E-02  0.1039058E+00
         -2   -1    0    0    0  501 -0.00000000000E+00  0.00000000000E+00  0.26388231715E+02  0.26388231838E+02  0.25500000000E-02 0. -1.
          2   -1    0    0  501    0  0.00000000000E+00 -0.00000000000E+00 -0.16232915904E+04  0.16232915904E+04  0.25500000000E-02 0.  1.
    5000001    1    1    2    0    0  0.16556339036E+02 -0.74573226876E+02 -0.96065662683E+03  0.98185560710E+03  0.18800000000E+03 0.  0.
   -5000001    1    1    2    0    0 -0.16556339036E+02  0.74573226876E+02 -0.63624673191E+03  0.66782421519E+03  0.18800000000E+03 0.  0.
<mgrwt>
<rscale>  0 0.41393620E+03</rscale>
<asrwt>0</asrwt>
<pdfrwt beam="1">  1        2 0.23189874E+00 0.41393620E+03</pdfrwt>
<pdfrwt beam="2">  1       -2 0.37697484E-02 0.41393620E+03</pdfrwt>
<totfact> 0.40722990E+03</totfact>
</mgrwt>
</event>
<event>
 4    1  0.6024609E-005  0.4439100E+03  0.7818608E-02  0.1029554E+00
          2   -1    0    0  501    0  0.00000000000E+00  0.00000000000E+00  0.76278225830E+03  0.76278225831E+03  0.25500000000E-02 0.  1.
         -2   -1    0    0    0  501 -0.00000000000E+00 -0.00000000000E+00 -0.64584655066E+02  0.64584655116E+02  0.25500000000E-02 0. -1.
    5000001    1    1    2    0    0 -0.11125473372E+03  0.39261700466E+02  0.35089829514E+03  0.41520201159E+03  0.18800000000E+03 0.  0.
   -5000001    1    1    2    0    0  0.11125473372E+03 -0.39261700466E+02  0.34729930810E+03  0.41216490184E+03  0.18800000000E+03 0.  0.
<mgrwt>
<rscale>  0 0.44391003E+03</rscale>
<asrwt>0</asrwt>
<pdfrwt beam="1">  1        2 0.10896888E+00 0.44391003E+03</pdfrwt>
<pdfrwt beam="2">  1       -2 0.92263802E-02 0.44391003E+03</pdfrwt>
<totfact> 0.31400691E+03</totfact>
</mgrwt>
</event>
<event>
 4    1  0.6024609E-005  0.6709523E+03  0.7818608E-02  0.9768239E-01
          2   -1    0    0  501    0  0.00000000000E+00  0.00000000000E+00  0.24694228442E+04  0.24694228442E+04  0.25500000000E-02 0.  1.
         -2   -1    0    0    0  501 -0.00000000000E+00 -0.00000000000E+00 -0.45575127390E+02  0.45575127462E+02  0.25500000000E-02 0. -1.
    5000001    1    1    2    0    0 -0.21976332769E+03  0.14239363562E+03  0.15601095573E+04  0.15930655035E+04  0.18800000000E+03 0.  0.
   -5000001    1    1    2    0    0  0.21976332769E+03 -0.14239363562E+03  0.86373815955E+03  0.92193246821E+03  0.18800000000E+03 0.  0.
<mgrwt>
<rscale>  0 0.67095234E+03</rscale>
<asrwt>0</asrwt>
<pdfrwt beam="1">  1        2 0.35277480E+00 0.67095234E+03</pdfrwt>
<pdfrwt beam="2">  1       -2 0.65107306E-02 0.67095234E+03</pdfrwt>
<totfact> 0.64819751E+02</totfact>
</mgrwt>
</event>
<event>
 4    1  0.6024609E-005  0.4716583E+03  0.7818608E-02  0.1021453E+00
         -2   -1    0    0    0  501 -0.00000000000E+00  0.00000000000E+00  0.13695194469E+03  0.13695194471E+03  0.25500000000E-02 0. -1.
          2   -1    0    0  501    0  0.00000000000E+00 -0.00000000000E+00 -0.40609420274E+03  0.40609420275E+03  0.25500000000E-02 0.  1.
    5000001    1    1    2    0    0  0.10449662215E+03 -0.63335880512E+02 -0.21870999745E+03  0.31322362744E+03  0.18800000000E+03 0.  0.
   -5000001    1    1    2    0    0 -0.10449662215E+03  0.63335880512E+02 -0.50432260605E+02  0.22982252002E+03  0.18800000000E+03 0.  0.
<mgrwt>
<rscale>  0 0.47165831E+03</rscale>
<asrwt>0</asrwt>
<pdfrwt beam="1">  1        2 0.58013457E-01 0.47165831E+03</pdfrwt>
<pdfrwt beam="2">  1       -2 0.19564564E-01 0.47165831E+03</pdfrwt>
<totfact> 0.18741284E+03</totfact>
</mgrwt>
</event>
<event>
 4    1  0.6024609E-005  0.4769787E+03  0.7818608E-02  0.1019969E+00
         -2   -1    0    0    0  501 -0.00000000000E+00  0.00000000000E+00  0.78709472087E+02  0.78709472128E+02  0.25500000000E-02 0. -1.
          2   -1    0    0  501    0  0.00000000000E+00 -0.00000000000E+00 -0.72262170217E+03  0.72262170217E+03  0.25500000000E-02 0.  1.
    5000001    1    1    2    0    0 -0.13285773489E+03 -0.36202676770E+02 -0.40714728547E+03  0.46912122484E+03  0.18800000000E+03 0.  0.
   -5000001    1    1    2    0    0  0.13285773489E+03  0.36202676770E+02 -0.23676494461E+03  0.33220994946E+03  0.18800000000E+03 0.  0.
<mgrwt>
<rscale>  0 0.47697871E+03</rscale>
<asrwt>0</asrwt>
<pdfrwt beam="1">  1        2 0.10323167E+00 0.47697871E+03</pdfrwt>
<pdfrwt beam="2">  1       -2 0.11244211E-01 0.47697871E+03</pdfrwt>
<totfact> 0.24410456E+03</totfact>
</mgrwt>
</event>
<event>
 4    1  0.6024609E-005  0.4226935E+03  0.7818608E-02  0.1036193E+00
          2   -1    0    0  501    0  0.00000000000E+00  0.00000000000E+00  0.47685728236E+04  0.47685728236E+04  0.25500000000E-02 0.  1.
         -2   -1    0    0    0  501 -0.00000000000E+00 -0.00000000000E+00 -0.93670461795E+01  0.93670465266E+01  0.25500000000E-02 0. -1.
    5000001    1    1    2    0    0 -0.15874816229E+02  0.94081146146E+02  0.22118789591E+04  0.22219036436E+04  0.18800000000E+03 0.  0.
   -5000001    1    1    2    0    0  0.15874816229E+02 -0.94081146146E+02  0.25473268183E+04  0.25560362265E+04  0.18800000000E+03 0.  0.
<mgrwt>
<rscale>  0 0.42269347E+03</rscale>
<asrwt>0</asrwt>
<pdfrwt beam="1">  1        2 0.68122742E+00 0.42269347E+03</pdfrwt>
<pdfrwt beam="2">  1       -2 0.13381441E-02 0.42269347E+03</pdfrwt>
<totfact> 0.26394999E+02</totfact>
</mgrwt>
</event>
<event>
 4    1  0.6024609E-005  0.4137814E+03  0.7818608E-02  0.1039109E+00
          2   -1    0    0  501    0  0.00000000000E+00  0.00000000000E+00  0.41697915866E+04  0.41697915866E+04  0.25500000000E-02 0.  1.
         -2   -1    0    0    0  501 -0.00000000000E+00 -0.00000000000E+00 -0.10265204903E+02  0.10265205220E+02  0.25500000000E-02 0. -1.
    5000001    1    1    2    0    0  0.80812827045E+02 -0.27519859838E+02  0.19473872703E+04  0.19583026416E+04  0.18800000000E+03 0.  0.
   -5000001    1    1    2    0    0 -0.80812827045E+02  0.27519859838E+02  0.22121391114E+04  0.22217541502E+04  0.18800000000E+03 0.  0.
<mgrwt>
<rscale>  0 0.41378142E+03</rscale>
<asrwt>0</asrwt>
<pdfrwt beam="1">  1        2 0.59568570E+00 0.41378142E+03</pdfrwt>
<pdfrwt beam="2">  1       -2 0.14664549E-02 0.41378142E+03</pdfrwt>
<totfact> 0.66056938E+02</totfact>
</mgrwt>
</event>
<event>
 4    1  0.6024609E-005  0.5476528E+03  0.7818608E-02  0.1002039E+00
         -2   -1    0    0    0  501 -0.00000000000E+00  0.00000000000E+00  0.79846405371E+02  0.79846405411E+02  0.25500000000E-02 0. -1.
          2   -1    0    0  501    0  0.00000000000E+00 -0.00000000000E+00 -0.93906405204E+03  0.93906405204E+03  0.25500000000E-02 0.  1.
    5000001    1    1    2    0    0 -0.60314722828E+02 -0.17121134263E+03 -0.27748257574E+03  0.38117157485E+03  0.18800000000E+03 0.  0.
   -5000001    1    1    2    0    0  0.60314722828E+02  0.17121134263E+03 -0.58173507093E+03  0.63773888260E+03  0.18800000000E+03 0.  0.
<mgrwt>
<rscale>  0 0.54765277E+03</rscale>
<asrwt>0</asrwt>
<pdfrwt beam="1">  1        2 0.13415200E+00 0.54765277E+03</pdfrwt>
<pdfrwt beam="2">  1       -2 0.11406630E-01 0.54765277E+03</pdfrwt>
<totfact> 0.17022713E+03</totfact>
</mgrwt>
</event>
<event>
 4    1  0.6024609E-005  0.5225332E+03  0.7818608E-02  0.1008059E+00
         -2   -1    0    0    0  501 -0.00000000000E+00  0.00000000000E+00  0.34044847828E+02  0.34044847924E+02  0.25500000000E-02 0. -1.
          2   -1    0    0  501    0  0.00000000000E+00 -0.00000000000E+00 -0.20050095391E+04  0.20050095391E+04  0.25500000000E-02 0.  1.
    5000001    1    1    2    0    0  0.73550942129E+02  0.14190271105E+03 -0.65047656685E+03  0.69570818920E+03  0.18800000000E+03 0.  0.
   -5000001    1    1    2    0    0 -0.73550942129E+02 -0.14190271105E+03 -0.13204881245E+04  0.13433461979E+04  0.18800000000E+03 0.  0.
<mgrwt>
<rscale>  0 0.52253323E+03</rscale>
<asrwt>0</asrwt>
<pdfrwt beam="1">  1        2 0.28642986E+00 0.52253323E+03</pdfrwt>
<pdfrwt beam="2">  1       -2 0.48635509E-02 0.52253323E+03</pdfrwt>
<totfact> 0.17700926E+03</totfact>
</mgrwt>
</event>
<event>
 4    1  0.6024609E-005  0.4852181E+03  0.7818608E-02  0.1017711E+00
         -2   -1    0    0    0  501 -0.00000000000E+00  0.00000000000E+00  0.66574080594E+02  0.66574080642E+02  0.25500000000E-02 0. -1.
          2   -1    0    0  501    0  0.00000000000E+00 -0.00000000000E+00 -0.88411494785E+03  0.88411494785E+03  0.25500000000E-02 0.  1.
    5000001    1    1    2    0    0  0.15305839124E+03 -0.79710974884E+01 -0.39902690717E+03  0.46696561133E+03  0.18800000000E+03 0.  0.
   -5000001    1    1    2    0    0 -0.15305839124E+03  0.79710974884E+01 -0.41851396008E+03  0.48372341716E+03  0.18800000000E+03 0.  0.
<mgrwt>
<rscale>  0 0.48521805E+03</rscale>
<asrwt>0</asrwt>
<pdfrwt beam="1">  1        2 0.12630213E+00 0.48521805E+03</pdfrwt>
<pdfrwt beam="2">  1       -2 0.95105835E-02 0.48521805E+03</pdfrwt>
<totfact> 0.24780192E+03</totfact>
</mgrwt>
</event>
<event>
 4    1  0.6024609E-005  0.5153855E+03  0.7818608E-02  0.1009839E+00
          2   -1    0    0  501    0  0.00000000000E+00  0.00000000000E+00  0.18601488165E+04  0.18601488165E+04  0.25500000000E-02 0.  1.
         -2   -1    0    0    0  501 -0.00000000000E+00 -0.00000000000E+00 -0.35699056019E+02  0.35699056110E+02  0.25500000000E-02 0. -1.
    5000001    1    1    2    0    0  0.63209848693E+01  0.15229129307E+03  0.12377042221E+04  0.12611456435E+04  0.18800000000E+03 0.  0.
   -5000001    1    1    2    0    0 -0.63209848693E+01 -0.15229129307E+03  0.58674553846E+03  0.63470222916E+03  0.18800000000E+03 0.  0.
<mgrwt>
<rscale>  0 0.51538551E+03</rscale>
<asrwt>0</asrwt>
<pdfrwt beam="1">  1        2 0.26573558E+00 0.51538551E+03</pdfrwt>
<pdfrwt beam="2">  1       -2 0.50998646E-02 0.51538551E+03</pdfrwt>
<totfact> 0.19440588E+03</totfact>
</mgrwt>
</event>
<event>
 4    1  0.6024609E-005  0.6874675E+03  0.7818608E-02  0.9738908E-01
         -2   -1    0    0    0  501 -0.00000000000E+00  0.00000000000E+00  0.51779515230E+03  0.51779515231E+03  0.25500000000E-02 0. -1.
          2   -1    0    0  501    0  0.00000000000E+00 -0.00000000000E+00 -0.22818462969E+03  0.22818462970E+03  0.25500000000E-02 0.  1.
    5000001    1    1    2    0    0 -0.16375423064E+03  0.22231535122E+03  0.23275518588E+03  0.40713454778E+03  0.18800000000E+03 0.  0.
   -5000001    1    1    2    0    0  0.16375423064E+03 -0.22231535122E+03  0.56855336734E+02  0.33884523423E+03  0.18800000000E+03 0.  0.
<mgrwt>
<rscale>  0 0.68746751E+03</rscale>
<asrwt>0</asrwt>
<pdfrwt beam="1">  1        2 0.32597804E-01 0.68746751E+03</pdfrwt>
<pdfrwt beam="2">  1       -2 0.73970736E-01 0.68746751E+03</pdfrwt>
<totfact> 0.26930803E+02</totfact>
</mgrwt>
</event>
<event>
 4    1  0.6024609E-005  0.4697347E+03  0.7818608E-02  0.1021995E+00
         -2   -1    0    0    0  501 -0.00000000000E+00  0.00000000000E+00  0.57389503346E+02  0.57389503403E+02  0.25500000000E-02 0. -1.
          2   -1    0    0  501    0  0.00000000000E+00 -0.00000000000E+00 -0.96119774342E+03  0.96119774342E+03  0.25500000000E-02 0.  1.
    5000001    1    1    2    0    0 -0.39870644835E+02  0.12336516344E+03 -0.33293589183E+03  0.40373127193E+03  0.18800000000E+03 0.  0.
   -5000001    1    1    2    0    0  0.39870644835E+02 -0.12336516344E+03 -0.57087234824E+03  0.61485597489E+03  0.18800000000E+03 0.  0.
<mgrwt>
<rscale>  0 0.46973465E+03</rscale>
<asrwt>0</asrwt>
<pdfrwt beam="1">  1        2 0.13731395E+00 0.46973465E+03</pdfrwt>
<pdfrwt beam="2">  1       -2 0.81985011E-02 0.46973465E+03</pdfrwt>
<totfact> 0.28076626E+03</totfact>
</mgrwt>
</event>
<event>
 4    1  0.6024609E-005  0.5148015E+03  0.7818608E-02  0.1009986E+00
          2   -1    0    0  501    0  0.00000000000E+00  0.00000000000E+00  0.12148569056E+04  0.12148569056E+04  0.25500000000E-02 0.  1.
         -2   -1    0    0    0  501 -0.00000000000E+00 -0.00000000000E+00 -0.54537406212E+02  0.54537406272E+02  0.25500000000E-02 0. -1.
    5000001    1    1    2    0    0 -0.10229393183E+03  0.25983582224E+02  0.92688182706E+03  0.95162656350E+03  0.18800000000E+03 0.  0.
   -5000001    1    1    2    0    0  0.10229393183E+03 -0.25983582224E+02  0.23343767229E+03  0.31776774833E+03  0.18800000000E+03 0.  0.
<mgrwt>
<rscale>  0 0.51480149E+03</rscale>
<asrwt>0</asrwt>
<pdfrwt beam="1">  1        2 0.17355098E+00 0.51480149E+03</pdfrwt>
<pdfrwt beam="2">  1       -2 0.77910584E-02 0.51480149E+03</pdfrwt>
<totfact> 0.21665231E+03</totfact>
</mgrwt>
</event>
<event>
 4    1  0.6024609E-005  0.5293836E+03  0.7818608E-02  0.1006382E+00
          2   -1    0    0  501    0  0.00000000000E+00  0.00000000000E+00  0.12928829347E+04  0.12928829347E+04  0.25500000000E-02 0.  1.
         -2   -1    0    0    0  501 -0.00000000000E+00 -0.00000000000E+00 -0.54190323045E+02  0.54190323105E+02  0.25500000000E-02 0. -1.
    5000001    1    1    2    0    0 -0.16124099753E+03 -0.85753311491E+02  0.52531784676E+03  0.58707335985E+03  0.18800000000E+03 0.  0.
   -5000001    1    1    2    0    0  0.16124099753E+03  0.85753311491E+02  0.71337476491E+03  0.75999989797E+03  0.18800000000E+03 0.  0.
<mgrwt>
<rscale>  0 0.52938358E+03</rscale>
<asrwt>0</asrwt>
<pdfrwt beam="1">  1        2 0.18469755E+00 0.52938358E+03</pdfrwt>
<pdfrwt beam="2">  1       -2 0.77414751E-02 0.52938358E+03</pdfrwt>
<totfact> 0.19828343E+03</totfact>
</mgrwt>
</event>
<event>
 4    1  0.6024609E-005  0.8154908E+03  0.7818608E-02  0.9537862E-01
          2   -1    0    0  501    0  0.00000000000E+00  0.00000000000E+00  0.23466494022E+04  0.23466494022E+04  0.25500000000E-02 0.  1.
         -2   -1    0    0    0  501 -0.00000000000E+00 -0.00000000000E+00 -0.70848384849E+02  0.70848384895E+02  0.25500000000E-02 0. -1.
    5000001    1    1    2    0    0  0.21448140476E+03 -0.16788644240E+02  0.20002921333E+04  0.20205931679E+04  0.18800000000E+03 0.  0.
   -5000001    1    1    2    0    0 -0.21448140476E+03  0.16788644240E+02  0.27550888406E+03  0.39690461922E+03  0.18800000000E+03 0.  0.
<mgrwt>
<rscale>  0 0.81549082E+03</rscale>
<asrwt>0</asrwt>
<pdfrwt beam="1">  1        2 0.33523570E+00 0.81549082E+03</pdfrwt>
<pdfrwt beam="2">  1       -2 0.10121196E-01 0.81549082E+03</pdfrwt>
<totfact> 0.36542872E+02</totfact>
</mgrwt>
</event>
<event>
 4    1  0.6024609E-005  0.5837099E+03  0.7818608E-02  0.9939791E-01
          2   -1    0    0  501    0  0.00000000000E+00  0.00000000000E+00  0.14860974155E+04  0.14860974155E+04  0.25500000000E-02 0.  1.
         -2   -1    0    0    0  501 -0.00000000000E+00 -0.00000000000E+00 -0.57317453758E+02  0.57317453815E+02  0.25500000000E-02 0. -1.
    5000001    1    1    2    0    0  0.20865695898E+03 -0.56125793048E+02  0.86273319834E+03  0.90903267416E+03  0.18800000000E+03 0.  0.
   -5000001    1    1    2    0    0 -0.20865695898E+03  0.56125793048E+02  0.56604676341E+03  0.63438219517E+03  0.18800000000E+03 0.  0.
<mgrwt>
<rscale>  0 0.58370993E+03</rscale>
<asrwt>0</asrwt>
<pdfrwt beam="1">  1        2 0.21229963E+00 0.58370993E+03</pdfrwt>
<pdfrwt beam="2">  1       -2 0.81882078E-02 0.58370993E+03</pdfrwt>
<totfact> 0.14297854E+03</totfact>
</mgrwt>
</event>
<event>
 4    1  0.6024609E-005  0.5013507E+03  0.7818608E-02  0.1013427E+00
         -2   -1    0    0    0  501 -0.00000000000E+00  0.00000000000E+00  0.39358350048E+02  0.39358350131E+02  0.25500000000E-02 0. -1.
          2   -1    0    0  501    0  0.00000000000E+00 -0.00000000000E+00 -0.15965642504E+04  0.15965642504E+04  0.25500000000E-02 0.  1.
    5000001    1    1    2    0    0 -0.15941386932E+03 -0.26359975293E+02 -0.90010449072E+03  0.93361647599E+03  0.18800000000E+03 0.  0.
   -5000001    1    1    2    0    0  0.15941386932E+03  0.26359975293E+02 -0.65710140964E+03  0.70230612455E+03  0.18800000000E+03 0.  0.
<mgrwt>
<rscale>  0 0.50135071E+03</rscale>
<asrwt>0</asrwt>
<pdfrwt beam="1">  1        2 0.22808057E+00 0.50135071E+03</pdfrwt>
<pdfrwt beam="2">  1       -2 0.56226224E-02 0.50135071E+03</pdfrwt>
<totfact> 0.22712139E+03</totfact>
</mgrwt>
</event>
<event>
 4    1  0.6024609E-005  0.5648472E+03  0.7818608E-02  0.9981146E-01
          2   -1    0    0  501    0  0.00000000000E+00  0.00000000000E+00  0.25916565825E+03  0.25916565826E+03  0.25500000000E-02 0.  1.
         -2   -1    0    0    0  501 -0.00000000000E+00 -0.00000000000E+00 -0.30776878491E+03  0.30776878492E+03  0.25500000000E-02 0. -1.
    5000001    1    1    2    0    0 -0.79566825669E+01 -0.67092323132E+02 -0.22467494771E+03  0.30064517417E+03  0.18800000000E+03 0.  0.
   -5000001    1    1    2    0    0  0.79566825669E+01  0.67092323132E+02  0.17607182106E+03  0.26628926901E+03  0.18800000000E+03 0.  0.
<mgrwt>
<rscale>  0 0.56484724E+03</rscale>
<asrwt>0</asrwt>
<pdfrwt beam="1">  1        2 0.37023666E-01 0.56484724E+03</pdfrwt>
<pdfrwt beam="2">  1       -2 0.43966969E-01 0.56484724E+03</pdfrwt>
<totfact> 0.69283273E+02</totfact>
</mgrwt>
</event>
<event>
 4    1  0.6024609E-005  0.6716927E+03  0.7818608E-02  0.9766905E-01
          2   -1    0    0  501    0  0.00000000000E+00  0.00000000000E+00  0.76425856298E+02  0.76425856340E+02  0.25500000000E-02 0.  1.
         -2   -1    0    0    0  501 -0.00000000000E+00 -0.00000000000E+00 -0.14758458154E+04  0.14758458154E+04  0.25500000000E-02 0. -1.
    5000001    1    1    2    0    0  0.23507877712E+03 -0.23744711292E+01 -0.10438924359E+04  0.10864267519E+04  0.18800000000E+03 0.  0.
   -5000001    1    1    2    0    0 -0.23507877712E+03  0.23744711292E+01 -0.35552752318E+03  0.46584491980E+03  0.18800000000E+03 0.  0.
<mgrwt>
<rscale>  0 0.67169273E+03</rscale>
<asrwt>0</asrwt>
<pdfrwt beam="1">  1        2 0.10917980E-01 0.67169273E+03</pdfrwt>
<pdfrwt beam="2">  1       -2 0.21083510E+00 0.67169273E+03</pdfrwt>
<totfact> 0.68891504E+01</totfact>
</mgrwt>
</event>
<event>
 4    1  0.6024609E-005  0.4079145E+03  0.7818608E-02  0.1041073E+00
          2   -1    0    0  501    0  0.00000000000E+00  0.00000000000E+00  0.15234126965E+04  0.15234126965E+04  0.25500000000E-02 0.  1.
         -2   -1    0    0    0  501 -0.00000000000E+00 -0.00000000000E+00 -0.27306161274E+02  0.27306161393E+02  0.25500000000E-02 0. -1.
    5000001    1    1    2    0    0 -0.58374009543E+02 -0.51225263168E+02  0.80482297809E+03  0.83012985649E+03  0.18800000000E+03 0.  0.
   -5000001    1    1    2    0    0  0.58374009543E+02  0.51225263168E+02  0.69128355711E+03  0.72058900138E+03  0.18800000000E+03 0.  0.
<mgrwt>
<rscale>  0 0.40791447E+03</rscale>
<asrwt>0</asrwt>
<pdfrwt beam="1">  1        2 0.21763041E+00 0.40791447E+03</pdfrwt>
<pdfrwt beam="2">  1       -2 0.39008798E-02 0.40791447E+03</pdfrwt>
<totfact> 0.43455708E+03</totfact>
</mgrwt>
</event>
<event>
 4    1  0.6024609E-005  0.9640870E+03  0.7818608E-02  0.9348835E-01
         -2   -1    0    0    0  501 -0.00000000000E+00  0.00000000000E+00  0.13594255893E+03  0.13594255895E+03  0.25500000000E-02 0. -1.
          2   -1    0    0  501    0  0.00000000000E+00 -0.00000000000E+00 -0.17092950521E+04  0.17092950521E+04  0.25500000000E-02 0.  1.
    5000001    1    1    2    0    0  0.28810786885E+03  0.27015205605E+03 -0.39896694230E+03  0.59203623075E+03  0.18800000000E+03 0.  0.
   -5000001    1    1    2    0    0 -0.28810786885E+03 -0.27015205605E+03 -0.11743855509E+04  0.12532013803E+04  0.18800000000E+03 0.  0.
<mgrwt>
<rscale>  0 0.96408702E+03</rscale>
<asrwt>0</asrwt>
<pdfrwt beam="1">  1        2 0.24418499E+00 0.96408702E+03</pdfrwt>
<pdfrwt beam="2">  1       -2 0.19420367E-01 0.96408702E+03</pdfrwt>
<totfact> 0.25509873E+02</totfact>
</mgrwt>
</event>
<event>
 4    1  0.6024609E-005  0.4235818E+03  0.7818608E-02  0.1035907E+00
          2   -1    0    0  501    0  0.00000000000E+00  0.00000000000E+00  0.28257315042E+03  0.28257315043E+03  0.25500000000E-02 0.  1.
         -2   -1    0    0    0  501 -0.00000000000E+00 -0.00000000000E+00 -0.15873898898E+03  0.15873898900E+03  0.25500000000E-02 0. -1.
    5000001    1    1    2    0    0 -0.40959989036E+02  0.87462489464E+02  0.76048321790E+02  0.22462135921E+03  0.18800000000E+03 0.  0.
   -5000001    1    1    2    0    0  0.40959989036E+02 -0.87462489464E+02  0.47785839647E+02  0.21669078023E+03  0.18800000000E+03 0.  0.
<mgrwt>
<rscale>  0 0.42358176E+03</rscale>
<asrwt>0</asrwt>
<pdfrwt beam="1">  1        2 0.40367593E-01 0.42358176E+03</pdfrwt>
<pdfrwt beam="2">  1       -2 0.22676998E-01 0.42358176E+03</pdfrwt>
<totfact> 0.21539254E+03</totfact>
</mgrwt>
</event>
<event>
 4    1  0.6024609E-005  0.7019752E+03  0.7818608E-02  0.9713860E-01
          2   -1    0    0  501    0  0.00000000000E+00  0.00000000000E+00  0.11752602861E+04  0.11752602861E+04  0.25500000000E-02 0.  1.
         -2   -1    0    0    0  501 -0.00000000000E+00 -0.00000000000E+00 -0.10482129482E+03  0.10482129485E+03  0.25500000000E-02 0. -1.
    5000001    1    1    2    0    0 -0.21176287872E+03  0.10992566951E+03  0.85587860225E+03  0.90818464610E+03  0.18800000000E+03 0.  0.
   -5000001    1    1    2    0    0  0.21176287872E+03 -0.10992566951E+03  0.21456038907E+03  0.37189693489E+03  0.18800000000E+03 0.  0.
<mgrwt>
<rscale>  0 0.70197523E+03</rscale>
<asrwt>0</asrwt>
<pdfrwt beam="1">  1        2 0.16789433E+00 0.70197523E+03</pdfrwt>
<pdfrwt beam="2">  1       -2 0.14974471E-01 0.70197523E+03</pdfrwt>
<totfact> 0.78063203E+02</totfact>
</mgrwt>
</event>
<event>
 4    1  0.6024609E-005  0.4728026E+03  0.7818608E-02  0.1021132E+00
          2   -1    0    0  501    0  0.00000000000E+00  0.00000000000E+00  0.11359005764E+04  0.11359005764E+04  0.25500000000E-02 0.  1.
         -2   -1    0    0    0  501 -0.00000000000E+00 -0.00000000000E+00 -0.49199350950E+02  0.49199351016E+02  0.25500000000E-02 0. -1.
    5000001    1    1    2    0    0 -0.10405410927E+03  0.82034160442E+02  0.40641191296E+03  0.46698126743E+03  0.18800000000E+03 0.  0.
   -5000001    1    1    2    0    0  0.10405410927E+03 -0.82034160442E+02  0.68028931253E+03  0.71811866002E+03  0.18800000000E+03 0.  0.
<mgrwt>
<rscale>  0 0.47280259E+03</rscale>
<asrwt>0</asrwt>
<pdfrwt beam="1">  1        2 0.16227150E+00 0.47280259E+03</pdfrwt>
<pdfrwt beam="2">  1       -2 0.70284793E-02 0.47280259E+03</pdfrwt>
<totfact> 0.28235922E+03</totfact>
</mgrwt>
</event>
<event>
 4    1  0.6024609E-005  0.1014252E+04  0.7818608E-02  0.9293050E-01
         -2   -1    0    0    0  501 -0.00000000000E+00  0.00000000000E+00  0.12490650131E+03  0.12490650134E+03  0.25500000000E-02 0. -1.
          2   -1    0    0  501    0  0.00000000000E+00 -0.00000000000E+00 -0.20589530952E+04  0.20589530952E+04  0.25500000000E-02 0.  1.
    5000001    1    1    2    0    0  0.12226340492E+03  0.42929161430E+03 -0.64338053864E+03  0.80530872825E+03  0.18800000000E+03 0.  0.
   -5000001    1    1    2    0    0 -0.12226340492E+03 -0.42929161430E+03 -0.12906660552E+04  0.13785508683E+04  0.18800000000E+03 0.  0.
<mgrwt>
<rscale>  0 0.10142517E+04</rscale>
<asrwt>0</asrwt>
<pdfrwt beam="1">  1        2 0.29413614E+00 0.10142517E+04</pdfrwt>
<pdfrwt beam="2">  1       -2 0.17843787E-01 0.10142517E+04</pdfrwt>
<totfact> 0.19510066E+02</totfact>
</mgrwt>
</event>
<event>
 4    1  0.6024609E-005  0.6859951E+03  0.7818608E-02  0.9741487E-01
          2   -1    0    0  501    0  0.00000000000E+00  0.00000000000E+00  0.22826504466E+03  0.22826504467E+03  0.25500000000E-02 0.  1.
         -2   -1    0    0    0  501 -0.00000000000E+00 -0.00000000000E+00 -0.51539791011E+03  0.51539791011E+03  0.25500000000E-02 0. -1.
    5000001    1    1    2    0    0 -0.27265736362E+03  0.75915808638E+02 -0.19439136079E+03  0.39145529641E+03  0.18800000000E+03 0.  0.
   -5000001    1    1    2    0    0  0.27265736362E+03 -0.75915808638E+02 -0.92741504654E+02  0.35220765838E+03  0.18800000000E+03 0.  0.
<mgrwt>
<rscale>  0 0.68599512E+03</rscale>
<asrwt>0</asrwt>
<pdfrwt beam="1">  1        2 0.32609292E-01 0.68599512E+03</pdfrwt>
<pdfrwt beam="2">  1       -2 0.73628273E-01 0.68599512E+03</pdfrwt>
<totfact> 0.27197956E+02</totfact>
</mgrwt>
</event>
<event>
 4    1  0.6024609E-005  0.6643205E+03  0.7818608E-02  0.9780273E-01
          2   -1    0    0  501    0  0.00000000000E+00  0.00000000000E+00  0.20976876112E+04  0.20976876112E+04  0.25500000000E-02 0.  1.
         -2   -1    0    0    0  501 -0.00000000000E+00 -0.00000000000E+00 -0.52596214570E+02  0.52596214631E+02  0.25500000000E-02 0. -1.
    5000001    1    1    2    0    0 -0.17398427044E+03 -0.20950351020E+03  0.11154700075E+04  0.11635203413E+04  0.18800000000E+03 0.  0.
   -5000001    1    1    2    0    0  0.17398427044E+03  0.20950351020E+03  0.92962138919E+03  0.98676348453E+03  0.18800000000E+03 0.  0.
<mgrwt>
<rscale>  0 0.66432049E+03</rscale>
<asrwt>0</asrwt>
<pdfrwt beam="1">  1        2 0.29966958E+00 0.66432049E+03</pdfrwt>
<pdfrwt beam="2">  1       -2 0.75137469E-02 0.66432049E+03</pdfrwt>
<totfact> 0.79828711E+02</totfact>
</mgrwt>
</event>
<event>
 4    1  0.6024609E-005  0.5435803E+03  0.7818608E-02  0.1002991E+00
         -2   -1    0    0    0  501 -0.00000000000E+00  0.00000000000E+00  0.35793376060E+03  0.35793376061E+03  0.25500000000E-02 0. -1.
          2   -1    0    0  501    0  0.00000000000E+00 -0.00000000000E+00 -0.20637864058E+03  0.20637864059E+03  0.25500000000E-02 0.  1.
    5000001    1    1    2    0    0  0.59417757661E+02 -0.18592904135E+03  0.97199611750E+02  0.28790943518E+03  0.18800000000E+03 0.  0.
   -5000001    1    1    2    0    0 -0.59417757661E+02  0.18592904135E+03  0.54355508275E+02  0.27640296602E+03  0.18800000000E+03 0.  0.
<mgrwt>
<rscale>  0 0.54358029E+03</rscale>
<asrwt>0</asrwt>
<pdfrwt beam="1">  1        2 0.29482663E-01 0.54358029E+03</pdfrwt>
<pdfrwt beam="2">  1       -2 0.51133394E-01 0.54358029E+03</pdfrwt>
<totfact> 0.66014390E+02</totfact>
</mgrwt>
</event>
<event>
 4    1  0.6024609E-005  0.5364896E+03  0.7818608E-02  0.1004670E+00
         -2   -1    0    0    0  501 -0.00000000000E+00  0.00000000000E+00  0.46880469954E+02  0.46880470023E+02  0.25500000000E-02 0. -1.
          2   -1    0    0  501    0  0.00000000000E+00 -0.00000000000E+00 -0.15348664775E+04  0.15348664775E+04  0.25500000000E-02 0.  1.
    5000001    1    1    2    0    0 -0.19273299200E+02  0.18824063549E+03 -0.82765825539E+03  0.86957931474E+03  0.18800000000E+03 0.  0.
   -5000001    1    1    2    0    0  0.19273299200E+02 -0.18824063549E+03 -0.66032775213E+03  0.71216763276E+03  0.18800000000E+03 0.  0.
<mgrwt>
<rscale>  0 0.53648956E+03</rscale>
<asrwt>0</asrwt>
<pdfrwt beam="1">  1        2 0.21926661E+00 0.53648956E+03</pdfrwt>
<pdfrwt beam="2">  1       -2 0.66972110E-02 0.53648956E+03</pdfrwt>
<totfact> 0.18570643E+03</totfact>
</mgrwt>
</event>
<event>
 4    1  0.6024609E-005  0.4012470E+03  0.7818608E-02  0.1043349E+00
         -2   -1    0    0    0  501 -0.00000000000E+00  0.00000000000E+00  0.12407940324E+03  0.12407940327E+03  0.25500000000E-02 0. -1.
          2   -1    0    0  501    0  0.00000000000E+00 -0.00000000000E+00 -0.32438733803E+03  0.32438733804E+03  0.25500000000E-02 0.  1.
    5000001    1    1    2    0    0 -0.66655341575E+02  0.43310163631E+01 -0.12370752018E+03  0.23475357891E+03  0.18800000000E+03 0.  0.
   -5000001    1    1    2    0    0  0.66655341575E+02 -0.43310163631E+01 -0.76600414612E+02  0.21371316240E+03  0.18800000000E+03 0.  0.
<mgrwt>
<rscale>  0 0.40124699E+03</rscale>
<asrwt>0</asrwt>
<pdfrwt beam="1">  1        2 0.46341048E-01 0.40124699E+03</pdfrwt>
<pdfrwt beam="2">  1       -2 0.17725629E-01 0.40124699E+03</pdfrwt>
<totfact> 0.28337286E+03</totfact>
</mgrwt>
</event>
<event>
 4    1  0.6024609E-005  0.5883185E+03  0.7818608E-02  0.9929942E-01
          2   -1    0    0  501    0  0.00000000000E+00  0.00000000000E+00  0.39652784509E+04  0.39652784509E+04  0.25500000000E-02 0.  1.
         -2   -1    0    0    0  501 -0.00000000000E+00 -0.00000000000E+00 -0.21821836409E+02  0.21821836558E+02  0.25500000000E-02 0. -1.
    5000001    1    1    2    0    0 -0.21636862674E+03  0.16798729926E+02  0.24050438403E+04  0.24221225100E+04  0.18800000000E+03 0.  0.
   -5000001    1    1    2    0    0  0.21636862674E+03 -0.16798729926E+02  0.15384127742E+04  0.15649777774E+04  0.18800000000E+03 0.  0.
<mgrwt>
<rscale>  0 0.58831848E+03</rscale>
<asrwt>0</asrwt>
<pdfrwt beam="1">  1        2 0.56646882E+00 0.58831848E+03</pdfrwt>
<pdfrwt beam="2">  1       -2 0.31174026E-02 0.58831848E+03</pdfrwt>
<totfact> 0.28527899E+02</totfact>
</mgrwt>
</event>
<event>
 4    1  0.6024609E-005  0.6107517E+03  0.7818608E-02  0.9883347E-01
         -2   -1    0    0    0  501 -0.00000000000E+00  0.00000000000E+00  0.38095088112E+02  0.38095088197E+02  0.25500000000E-02 0.  1.
          2   -1    0    0  501    0  0.00000000000E+00 -0.00000000000E+00 -0.24479379053E+04  0.24479379053E+04  0.25500000000E-02 0. -1.
    5000001    1    1    2    0    0 -0.23369160607E+03 -0.50772716228E+02 -0.10956410752E+04  0.11370853095E+04  0.18800000000E+03 0.  0.
   -5000001    1    1    2    0    0  0.23369160607E+03  0.50772716228E+02 -0.13142017419E+04  0.13489476839E+04  0.18800000000E+03 0.  0.
<mgrwt>
<rscale>  0 0.61075170E+03</rscale>
<asrwt>0</asrwt>
<pdfrwt beam="1">  1        2 0.34970532E+00 0.61075170E+03</pdfrwt>
<pdfrwt beam="2">  1       -2 0.54421570E-02 0.61075170E+03</pdfrwt>
<totfact> 0.88450405E+02</totfact>
</mgrwt>
</event>
<event>
 4    1  0.6024609E-005  0.6527870E+03  0.7818608E-02  0.9801564E-01
          2   -1    0    0  501    0  0.00000000000E+00  0.00000000000E+00  0.11286908504E+04  0.11286908504E+04  0.25500000000E-02 0.  1.
         -2   -1    0    0    0  501 -0.00000000000E+00 -0.00000000000E+00 -0.94386087036E+02  0.94386087071E+02  0.25500000000E-02 0. -1.
    5000001    1    1    2    0    0 -0.97355024323E+02 -0.76089857787E+02  0.96021991761E+03  0.98622206292E+03  0.18800000000E+03 0.  0.
   -5000001    1    1    2    0    0  0.97355024323E+02  0.76089857787E+02  0.74084845725E+02  0.23685487452E+03  0.18800000000E+03 0.  0.
<mgrwt>
<rscale>  0 0.65278699E+03</rscale>
<asrwt>0</asrwt>
<pdfrwt beam="1">  1        2 0.16124155E+00 0.65278699E+03</pdfrwt>
<pdfrwt beam="2">  1       -2 0.13483726E-01 0.65278699E+03</pdfrwt>
<totfact> 0.99139895E+02</totfact>
</mgrwt>
</event>
<event>
 4    1  0.6024609E-005  0.5361454E+03  0.7818608E-02  0.1004753E+00
          2   -1    0    0  501    0  0.00000000000E+00  0.00000000000E+00  0.27884050954E+04  0.27884050954E+04  0.25500000000E-02 0.  1.
         -2   -1    0    0    0  501 -0.00000000000E+00 -0.00000000000E+00 -0.25772069112E+02  0.25772069238E+02  0.25500000000E-02 0. -1.
    5000001    1    1    2    0    0 -0.45352974788E+02  0.17967055114E+03  0.16264224619E+04  0.16477051993E+04  0.18800000000E+03 0.  0.
   -5000001    1    1    2    0    0  0.45352974788E+02 -0.17967055114E+03  0.11362105644E+04  0.11664719654E+04  0.18800000000E+03 0.  0.
<mgrwt>
<rscale>  0 0.53614539E+03</rscale>
<asrwt>0</asrwt>
<pdfrwt beam="1">  1        2 0.39834349E+00 0.53614539E+03</pdfrwt>
<pdfrwt beam="2">  1       -2 0.36817250E-02 0.53614539E+03</pdfrwt>
<totfact> 0.10826519E+03</totfact>
</mgrwt>
</event>
<event>
 4    1  0.6024609E-005  0.7893567E+03  0.7818608E-02  0.9575552E-01
          2   -1    0    0  501    0  0.00000000000E+00  0.00000000000E+00  0.16043281463E+04  0.16043281463E+04  0.25500000000E-02 0.  1.
         -2   -1    0    0    0  501 -0.00000000000E+00 -0.00000000000E+00 -0.97094229850E+02  0.97094229883E+02  0.25500000000E-02 0. -1.
    5000001    1    1    2    0    0 -0.34044515587E+03  0.67101894848E+02  0.74363709399E+03  0.84187035582E+03  0.18800000000E+03 0.  0.
   -5000001    1    1    2    0    0  0.34044515587E+03 -0.67101894848E+02  0.76359682245E+03  0.85955202036E+03  0.18800000000E+03 0.  0.
<mgrwt>
<rscale>  0 0.78935671E+03</rscale>
<asrwt>0</asrwt>
<pdfrwt beam="1">  1        2 0.22918972E+00 0.78935671E+03</pdfrwt>
<pdfrwt beam="2">  1       -2 0.13870605E-01 0.78935671E+03</pdfrwt>
<totfact> 0.51952050E+02</totfact>
</mgrwt>
</event>
<event>
 4    1  0.6024609E-005  0.6148808E+03  0.7818608E-02  0.9875005E-01
          2   -1    0    0  501    0  0.00000000000E+00  0.00000000000E+00  0.32685305905E+03  0.32685305906E+03  0.25500000000E-02 0.  1.
         -2   -1    0    0    0  501 -0.00000000000E+00 -0.00000000000E+00 -0.28918066346E+03  0.28918066347E+03  0.25500000000E-02 0. -1.
    5000001    1    1    2    0    0 -0.22360116885E+03 -0.89481331476E+01  0.11439866096E+03  0.31386080582E+03  0.18800000000E+03 0.  0.
   -5000001    1    1    2    0    0  0.22360116885E+03  0.89481331476E+01 -0.76726265370E+02  0.30217291672E+03  0.18800000000E+03 0.  0.
<mgrwt>
<rscale>  0 0.61488075E+03</rscale>
<asrwt>0</asrwt>
<pdfrwt beam="1">  1        2 0.46693294E-01 0.61488075E+03</pdfrwt>
<pdfrwt beam="2">  1       -2 0.41311523E-01 0.61488075E+03</pdfrwt>
<totfact> 0.60554529E+02</totfact>
</mgrwt>
</event>
<event>
 4    1  0.6024609E-005  0.8995897E+03  0.7818608E-02  0.9426094E-01
         -2   -1    0    0    0  501 -0.00000000000E+00  0.00000000000E+00  0.34323198717E+03  0.34323198718E+03  0.25500000000E-02 0. -1.
          2   -1    0    0  501    0  0.00000000000E+00 -0.00000000000E+00 -0.58944218689E+03  0.58944218690E+03  0.25500000000E-02 0.  1.
    5000001    1    1    2    0    0 -0.17786028342E+02  0.31632092981E+03 -0.39065820663E+03  0.53696657983E+03  0.18800000000E+03 0.  0.
   -5000001    1    1    2    0    0  0.17786028342E+02 -0.31632092981E+03  0.14444800691E+03  0.39570759424E+03  0.18800000000E+03 0.  0.
<mgrwt>
<rscale>  0 0.89958971E+03</rscale>
<asrwt>0</asrwt>
<pdfrwt beam="1">  1        2 0.84206027E-01 0.89958971E+03</pdfrwt>
<pdfrwt beam="2">  1       -2 0.49033141E-01 0.89958971E+03</pdfrwt>
<totfact> 0.21881755E+02</totfact>
</mgrwt>
</event>
<event>
 4    1  0.6024609E-005  0.6181868E+03  0.7818608E-02  0.9868376E-01
          2   -1    0    0  501    0  0.00000000000E+00  0.00000000000E+00  0.22349628526E+03  0.22349628527E+03  0.25500000000E-02 0.  1.
         -2   -1    0    0    0  501 -0.00000000000E+00 -0.00000000000E+00 -0.42747349017E+03  0.42747349018E+03  0.25500000000E-02 0. -1.
    5000001    1    1    2    0    0 -0.40440872814E+02 -0.16763974548E+03  0.81783192781E+02  0.26790117409E+03  0.18800000000E+03 0.  0.
   -5000001    1    1    2    0    0  0.40440872814E+02  0.16763974548E+03 -0.28576039769E+03  0.38306860136E+03  0.18800000000E+03 0.  0.
<mgrwt>
<rscale>  0 0.61818682E+03</rscale>
<asrwt>0</asrwt>
<pdfrwt beam="1">  1        2 0.31928041E-01 0.61818682E+03</pdfrwt>
<pdfrwt beam="2">  1       -2 0.61067641E-01 0.61818682E+03</pdfrwt>
<totfact> 0.41751883E+02</totfact>
</mgrwt>
</event>
<event>
 4    1  0.6024609E-005  0.5709240E+03  0.7818608E-02  0.9967636E-01
         -2   -1    0    0    0  501 -0.00000000000E+00  0.00000000000E+00  0.36318434258E+02  0.36318434348E+02  0.25500000000E-02 0. -1.
          2   -1    0    0  501    0  0.00000000000E+00 -0.00000000000E+00 -0.22437245087E+04  0.22437245087E+04  0.25500000000E-02 0.  1.
    5000001    1    1    2    0    0  0.16081385540E+03  0.14188933859E+03 -0.10546482367E+04  0.10925294429E+04  0.18800000000E+03 0.  0.
   -5000001    1    1    2    0    0 -0.16081385540E+03 -0.14188933859E+03 -0.11527578378E+04  0.11875135002E+04  0.18800000000E+03 0.  0.
<mgrwt>
<rscale>  0 0.57092403E+03</rscale>
<asrwt>0</asrwt>
<pdfrwt beam="1">  1        2 0.32053198E+00 0.57092403E+03</pdfrwt>
<pdfrwt beam="2">  1       -2 0.51883492E-02 0.57092403E+03</pdfrwt>
<totfact> 0.12126104E+03</totfact>
</mgrwt>
</event>
<event>
 4    1  0.6024609E-005  0.5446377E+03  0.7818608E-02  0.1002743E+00
         -2   -1    0    0    0  501 -0.00000000000E+00  0.00000000000E+00  0.43964114498E+02  0.43964114572E+02  0.25500000000E-02 0. -1.
          2   -1    0    0  501    0  0.00000000000E+00 -0.00000000000E+00 -0.16867744953E+04  0.16867744953E+04  0.25500000000E-02 0.  1.
    5000001    1    1    2    0    0 -0.80267790906E+02 -0.17795795065E+03 -0.73723320668E+03  0.78547358421E+03  0.18800000000E+03 0.  0.
   -5000001    1    1    2    0    0  0.80267790906E+02  0.17795795065E+03 -0.90557717410E+03  0.94526502564E+03  0.18800000000E+03 0.  0.
<mgrwt>
<rscale>  0 0.54463767E+03</rscale>
<asrwt>0</asrwt>
<pdfrwt beam="1">  1        2 0.24096774E+00 0.54463767E+03</pdfrwt>
<pdfrwt beam="2">  1       -2 0.62805888E-02 0.54463767E+03</pdfrwt>
<totfact> 0.17170863E+03</totfact>
</mgrwt>
</event>
<event>
 4    1  0.6024609E-005  0.6089751E+03  0.7818608E-02  0.9886959E-01
          2   -1    0    0  501    0  0.00000000000E+00  0.00000000000E+00  0.54266836055E+02  0.54266836115E+02  0.25500000000E-02 0.  1.
         -2   -1    0    0    0  501 -0.00000000000E+00 -0.00000000000E+00 -0.17084589869E+04  0.17084589869E+04  0.25500000000E-02 0. -1.
    5000001    1    1    2    0    0  0.28830446838E+02 -0.23368461462E+03 -0.95422605615E+03  0.10006653087E+04  0.18800000000E+03 0.  0.
   -5000001    1    1    2    0    0 -0.28830446838E+02  0.23368461462E+03 -0.69996609470E+03  0.76206051433E+03  0.18800000000E+03 0.  0.
<mgrwt>
<rscale>  0 0.60897509E+03</rscale>
<asrwt>0</asrwt>
<pdfrwt beam="1">  1        2 0.77524062E-02 0.60897509E+03</pdfrwt>
<pdfrwt beam="2">  1       -2 0.24406554E+00 0.60897509E+03</pdfrwt>
<totfact> 0.66924421E+01</totfact>
</mgrwt>
</event>
<event>
 4    1  0.6024609E-005  0.5101131E+03  0.7818608E-02  0.1011172E+00
          2   -1    0    0  501    0  0.00000000000E+00  0.00000000000E+00  0.11700613849E+03  0.11700613852E+03  0.25500000000E-02 0.  1.
         -2   -1    0    0    0  501 -0.00000000000E+00 -0.00000000000E+00 -0.55598655675E+03  0.55598655676E+03  0.25500000000E-02 0. -1.
    5000001    1    1    2    0    0 -0.79707012659E+02 -0.15207342659E+03 -0.19946875155E+03  0.32343672918E+03  0.18800000000E+03 0.  0.
   -5000001    1    1    2    0    0  0.79707012659E+02  0.15207342659E+03 -0.23951166672E+03  0.34955596610E+03  0.18800000000E+03 0.  0.
<mgrwt>
<rscale>  0 0.51011309E+03</rscale>
<asrwt>0</asrwt>
<pdfrwt beam="1">  1        2 0.16715163E-01 0.51011309E+03</pdfrwt>
<pdfrwt beam="2">  1       -2 0.79426649E-01 0.51011309E+03</pdfrwt>
<totfact> 0.49850163E+02</totfact>
</mgrwt>
</event>
<event>
 4    1  0.6024609E-005  0.9186257E+03  0.7818608E-02  0.9402593E-01
         -2   -1    0    0    0  501 -0.00000000000E+00  0.00000000000E+00  0.75308424100E+03  0.75308424100E+03  0.25500000000E-02 0. -1.
          2   -1    0    0  501    0  0.00000000000E+00 -0.00000000000E+00 -0.28013903517E+03  0.28013903518E+03  0.25500000000E-02 0.  1.
    5000001    1    1    2    0    0 -0.28557827075E+03  0.30599049845E+03  0.21290223319E+03  0.50582259218E+03  0.18800000000E+03 0.  0.
   -5000001    1    1    2    0    0  0.28557827075E+03 -0.30599049845E+03  0.26004297264E+03  0.52740068400E+03  0.18800000000E+03 0.  0.
<mgrwt>
<rscale>  0 0.91862570E+03</rscale>
<asrwt>0</asrwt>
<pdfrwt beam="1">  1        2 0.40019863E-01 0.91862570E+03</pdfrwt>
<pdfrwt beam="2">  1       -2 0.10758346E+00 0.91862570E+03</pdfrwt>
<totfact> 0.89478830E+01</totfact>
</mgrwt>
</event>
<event>
 4    1  0.6024609E-005  0.5000562E+03  0.7818608E-02  0.1013764E+00
          2   -1    0    0  501    0  0.00000000000E+00  0.00000000000E+00  0.20736048782E+03  0.20736048784E+03  0.25500000000E-02 0.  1.
         -2   -1    0    0    0  501 -0.00000000000E+00 -0.00000000000E+00 -0.30147517684E+03  0.30147517685E+03  0.25500000000E-02 0. -1.
    5000001    1    1    2    0    0  0.40671008301E+02  0.11259727291E+03 -0.16235047780E+03  0.27574255099E+03  0.18800000000E+03 0.  0.
   -5000001    1    1    2    0    0 -0.40671008301E+02 -0.11259727291E+03  0.68235788789E+02  0.23309311370E+03  0.18800000000E+03 0.  0.
<mgrwt>
<rscale>  0 0.50005616E+03</rscale>
<asrwt>0</asrwt>
<pdfrwt beam="1">  1        2 0.29622927E-01 0.50005616E+03</pdfrwt>
<pdfrwt beam="2">  1       -2 0.43067882E-01 0.50005616E+03</pdfrwt>
<totfact> 0.92516890E+02</totfact>
</mgrwt>
</event>
<event>
 4    1  0.6024609E-005  0.4981031E+03  0.7818608E-02  0.1014275E+00
         -2   -1    0    0    0  501 -0.00000000000E+00  0.00000000000E+00  0.46074688106E+03  0.46074688107E+03  0.25500000000E-02 0. -1.
          2   -1    0    0  501    0  0.00000000000E+00 -0.00000000000E+00 -0.13462201252E+03  0.13462201255E+03  0.25500000000E-02 0.  1.
    5000001    1    1    2    0    0  0.10907339709E+03 -0.11788851053E+03  0.12744480921E+03  0.27817420129E+03  0.18800000000E+03 0.  0.
   -5000001    1    1    2    0    0 -0.10907339709E+03  0.11788851053E+03  0.19868005932E+03  0.31719469233E+03  0.18800000000E+03 0.  0.
<mgrwt>
<rscale>  0 0.49810309E+03</rscale>
<asrwt>0</asrwt>
<pdfrwt beam="1">  1        2 0.19231716E-01 0.49810309E+03</pdfrwt>
<pdfrwt beam="2">  1       -2 0.65820983E-01 0.49810309E+03</pdfrwt>
<totfact> 0.63658194E+02</totfact>
</mgrwt>
</event>
<event>
 4    1  0.6024609E-005  0.1379122E+04  0.7818608E-02  0.8969071E-01
          2   -1    0    0  501    0  0.00000000000E+00  0.00000000000E+00  0.22450037546E+04  0.22450037546E+04  0.25500000000E-02 0.  1.
         -2   -1    0    0    0  501 -0.00000000000E+00 -0.00000000000E+00 -0.21180119881E+03  0.21180119882E+03  0.25500000000E-02 0. -1.
    5000001    1    1    2    0    0  0.27437531272E+03 -0.60070150254E+03  0.90356306641E+03  0.11348543177E+04  0.18800000000E+03 0.  0.
   -5000001    1    1    2    0    0 -0.27437531272E+03  0.60070150254E+03  0.11296394894E+04  0.13219506358E+04  0.18800000000E+03 0.  0.
<mgrwt>
<rscale>  0 0.13791222E+04</rscale>
<asrwt>0</asrwt>
<pdfrwt beam="1">  1        2 0.32071481E+00 0.13791222E+04</pdfrwt>
<pdfrwt beam="2">  1       -2 0.30257315E-01 0.13791222E+04</pdfrwt>
<totfact> 0.59069718E+01</totfact>
</mgrwt>
</event>
<event>
 4    1  0.6024609E-005  0.5276531E+03  0.7818608E-02  0.1006803E+00
         -2   -1    0    0    0  501 -0.00000000000E+00  0.00000000000E+00  0.20222486381E+04  0.20222486381E+04  0.25500000000E-02 0.  1.
          2   -1    0    0  501    0  0.00000000000E+00 -0.00000000000E+00 -0.34419331242E+02  0.34419331336E+02  0.25500000000E-02 0. -1.
    5000001    1    1    2    0    0  0.15757905406E+03  0.79788529781E+02  0.12096367992E+04  0.12368357020E+04  0.18800000000E+03 0.  0.
   -5000001    1    1    2    0    0 -0.15757905406E+03 -0.79788529781E+02  0.77819250772E+03  0.81983226750E+03  0.18800000000E+03 0.  0.
<mgrwt>
<rscale>  0 0.52765309E+03</rscale>
<asrwt>0</asrwt>
<pdfrwt beam="1">  1        2 0.49170463E-02 0.52765309E+03</pdfrwt>
<pdfrwt beam="2">  1       -2 0.28889272E+00 0.52765309E+03</pdfrwt>
<totfact> 0.66548643E+01</totfact>
</mgrwt>
</event>
<event>
 4    1  0.6024609E-005  0.7876184E+03  0.7818608E-02  0.9578114E-01
         -2   -1    0    0    0  501 -0.00000000000E+00  0.00000000000E+00  0.21172063309E+03  0.21172063311E+03  0.25500000000E-02 0. -1.
          2   -1    0    0  501    0  0.00000000000E+00 -0.00000000000E+00 -0.73250149114E+03  0.73250149115E+03  0.25500000000E-02 0.  1.
    5000001    1    1    2    0    0 -0.24590569020E+03  0.24342196070E+03 -0.25532970597E+03  0.46931984635E+03  0.18800000000E+03 0.  0.
   -5000001    1    1    2    0    0  0.24590569020E+03 -0.24342196070E+03 -0.26545115208E+03  0.47490227791E+03  0.18800000000E+03 0.  0.
<mgrwt>
<rscale>  0 0.78761838E+03</rscale>
<asrwt>0</asrwt>
<pdfrwt beam="1">  1        2 0.10464307E+00 0.78761838E+03</pdfrwt>
<pdfrwt beam="2">  1       -2 0.30245805E-01 0.78761838E+03</pdfrwt>
<totfact> 0.43077694E+02</totfact>
</mgrwt>
</event>
<event>
 4    1  0.6024609E-005  0.5760944E+03  0.7818608E-02  0.9956283E-01
         -2   -1    0    0    0  501 -0.00000000000E+00  0.00000000000E+00  0.61367526403E+03  0.61367526403E+03  0.25500000000E-02 0. -1.
          2   -1    0    0  501    0  0.00000000000E+00 -0.00000000000E+00 -0.13520373800E+03  0.13520373802E+03  0.25500000000E-02 0.  1.
    5000001    1    1    2    0    0  0.11216893005E+02  0.12868214880E+03  0.46789782937E+03  0.52053558268E+03  0.18800000000E+03 0.  0.
   -5000001    1    1    2    0    0 -0.11216893005E+02 -0.12868214880E+03  0.10573696657E+02  0.22834341937E+03  0.18800000000E+03 0.  0.
<mgrwt>
<rscale>  0 0.57609440E+03</rscale>
<asrwt>0</asrwt>
<pdfrwt beam="1">  1        2 0.19314820E-01 0.57609440E+03</pdfrwt>
<pdfrwt beam="2">  1       -2 0.87667895E-01 0.57609440E+03</pdfrwt>
<totfact> 0.33595395E+02</totfact>
</mgrwt>
</event>
<event>
 4    1  0.6024609E-005  0.6418215E+03  0.7818608E-02  0.9822248E-01
          2   -1    0    0  501    0  0.00000000000E+00  0.00000000000E+00  0.28540372723E+04  0.28540372723E+04  0.25500000000E-02 0.  1.
         -2   -1    0    0    0  501 -0.00000000000E+00 -0.00000000000E+00 -0.36083524586E+02  0.36083524676E+02  0.25500000000E-02 0. -1.
    5000001    1    1    2    0    0  0.14754442514E+03  0.21208176971E+03  0.15434416698E+04  0.15761675744E+04  0.18800000000E+03 0.  0.
   -5000001    1    1    2    0    0 -0.14754442514E+03 -0.21208176971E+03  0.12745120779E+04  0.13139532226E+04  0.18800000000E+03 0.  0.
<mgrwt>
<rscale>  0 0.64182155E+03</rscale>
<asrwt>0</asrwt>
<pdfrwt beam="1">  1        2 0.40771964E+00 0.64182155E+03</pdfrwt>
<pdfrwt beam="2">  1       -2 0.51547888E-02 0.64182155E+03</pdfrwt>
<totfact> 0.58940724E+02</totfact>
</mgrwt>
</event>
<event>
 4    1  0.6024609E-005  0.5825239E+03  0.7818608E-02  0.9942342E-01
          2   -1    0    0  501    0  0.00000000000E+00  0.00000000000E+00  0.13913003651E+04  0.13913003651E+04  0.25500000000E-02 0.  1.
         -2   -1    0    0    0  501 -0.00000000000E+00 -0.00000000000E+00 -0.60974271428E+02  0.60974271481E+02  0.25500000000E-02 0. -1.
    5000001    1    1    2    0    0 -0.39929192600E+02  0.21883605830E+03  0.65907397114E+03  0.72055954665E+03  0.18800000000E+03 0.  0.
   -5000001    1    1    2    0    0  0.39929192600E+02 -0.21883605830E+03  0.67125212256E+03  0.73171508996E+03  0.18800000000E+03 0.  0.
<mgrwt>
<rscale>  0 0.58252391E+03</rscale>
<asrwt>0</asrwt>
<pdfrwt beam="1">  1        2 0.19875719E+00 0.58252391E+03</pdfrwt>
<pdfrwt beam="2">  1       -2 0.87106106E-02 0.58252391E+03</pdfrwt>
<totfact> 0.14529607E+03</totfact>
</mgrwt>
</event>
<event>
 4    1  0.6024609E-005  0.8934378E+03  0.7818608E-02  0.9433822E-01
         -2   -1    0    0    0  501 -0.00000000000E+00  0.00000000000E+00  0.25782763949E+03  0.25782763950E+03  0.25500000000E-02 0. -1.
          2   -1    0    0  501    0  0.00000000000E+00 -0.00000000000E+00 -0.77399685230E+03  0.77399685230E+03  0.25500000000E-02 0.  1.
    5000001    1    1    2    0    0  0.28438665427E+01  0.30941358485E+03 -0.56028029580E+03  0.66708534980E+03  0.18800000000E+03 0.  0.
   -5000001    1    1    2    0    0 -0.28438665427E+01 -0.30941358485E+03  0.44111082990E+02  0.36473914200E+03  0.18800000000E+03 0.  0.
<mgrwt>
<rscale>  0 0.89343781E+03</rscale>
<asrwt>0</asrwt>
<pdfrwt beam="1">  1        2 0.11057098E+00 0.89343781E+03</pdfrwt>
<pdfrwt beam="2">  1       -2 0.36832520E-01 0.89343781E+03</pdfrwt>
<totfact> 0.27571308E+02</totfact>
</mgrwt>
</event>
<event>
 4    1  0.6024609E-005  0.4675529E+03  0.7818608E-02  0.1022613E+00
          2   -1    0    0  501    0  0.00000000000E+00  0.00000000000E+00  0.74377408310E+02  0.74377408353E+02  0.25500000000E-02 0.  1.
         -2   -1    0    0    0  501 -0.00000000000E+00 -0.00000000000E+00 -0.73478521615E+03  0.73478521616E+03  0.25500000000E-02 0. -1.
    5000001    1    1    2    0    0  0.69344161966E+02 -0.83052001679E+02 -0.48108866554E+03  0.52772772515E+03  0.18800000000E+03 0.  0.
   -5000001    1    1    2    0    0 -0.69344161966E+02  0.83052001679E+02 -0.17931914231E+03  0.28143489936E+03  0.18800000000E+03 0.  0.
<mgrwt>
<rscale>  0 0.46755286E+03</rscale>
<asrwt>0</asrwt>
<pdfrwt beam="1">  1        2 0.10625344E-01 0.46755286E+03</pdfrwt>
<pdfrwt beam="2">  1       -2 0.10496931E+00 0.46755286E+03</pdfrwt>
<totfact> 0.45704697E+02</totfact>
</mgrwt>
</event>
<event>
 4    1  0.6024609E-005  0.8489573E+03  0.7818608E-02  0.9491737E-01
          2   -1    0    0  501    0  0.00000000000E+00  0.00000000000E+00  0.21440023764E+03  0.21440023766E+03  0.25500000000E-02 0.  1.
         -2   -1    0    0    0  501 -0.00000000000E+00 -0.00000000000E+00 -0.84040076896E+03  0.84040076897E+03  0.25500000000E-02 0. -1.
    5000001    1    1    2    0    0  0.31241846914E+03 -0.20964750068E+03 -0.38416605476E+03  0.56963578893E+03  0.18800000000E+03 0.  0.
   -5000001    1    1    2    0    0 -0.31241846914E+03  0.20964750068E+03 -0.24183447656E+03  0.48516521769E+03  0.18800000000E+03 0.  0.
<mgrwt>
<rscale>  0 0.84895730E+03</rscale>
<asrwt>0</asrwt>
<pdfrwt beam="1">  1        2 0.30628606E-01 0.84895730E+03</pdfrwt>
<pdfrwt beam="2">  1       -2 0.12005725E+00 0.84895730E+03</pdfrwt>
<totfact> 0.92700703E+01</totfact>
</mgrwt>
</event>
<event>
 4    1  0.6024609E-005  0.5051777E+03  0.7818608E-02  0.1012436E+00
         -2   -1    0    0    0  501 -0.00000000000E+00  0.00000000000E+00  0.46834739860E+02  0.46834739929E+02  0.25500000000E-02 0. -1.
          2   -1    0    0  501    0  0.00000000000E+00 -0.00000000000E+00 -0.13622607323E+04  0.13622607323E+04  0.25500000000E-02 0.  1.
    5000001    1    1    2    0    0  0.11531138276E+03 -0.29474725281E+02 -0.99116818104E+03  0.10158365211E+04  0.18800000000E+03 0.  0.
   -5000001    1    1    2    0    0 -0.11531138276E+03  0.29474725281E+02 -0.32425781144E+03  0.39325895121E+03  0.18800000000E+03 0.  0.
<mgrwt>
<rscale>  0 0.50517770E+03</rscale>
<asrwt>0</asrwt>
<pdfrwt beam="1">  1        2 0.19460865E+00 0.50517770E+03</pdfrwt>
<pdfrwt beam="2">  1       -2 0.66906780E-02 0.50517770E+03</pdfrwt>
<totfact> 0.22917133E+03</totfact>
</mgrwt>
</event>
<event>
 4    1  0.6024609E-005  0.6038385E+03  0.7818608E-02  0.9897474E-01
         -2   -1    0    0    0  501 -0.00000000000E+00  0.00000000000E+00  0.14627905453E+03  0.14627905455E+03  0.25500000000E-02 0. -1.
          2   -1    0    0  501    0  0.00000000000E+00 -0.00000000000E+00 -0.62315994243E+03  0.62315994243E+03  0.25500000000E-02 0.  1.
    5000001    1    1    2    0    0  0.14685799093E+03 -0.18108439893E+03 -0.28700273841E+03  0.41481731026E+03  0.18800000000E+03 0.  0.
   -5000001    1    1    2    0    0 -0.14685799093E+03  0.18108439893E+03 -0.18987814949E+03  0.35462168672E+03  0.18800000000E+03 0.  0.
<mgrwt>
<rscale>  0 0.60383855E+03</rscale>
<asrwt>0</asrwt>
<pdfrwt beam="1">  1        2 0.89022847E-01 0.60383855E+03</pdfrwt>
<pdfrwt beam="2">  1       -2 0.20897008E-01 0.60383855E+03</pdfrwt>
<totfact> 0.10263757E+03</totfact>
</mgrwt>
</event>
<event>
 4    1  0.6024609E-005  0.5072679E+03  0.7818608E-02  0.1011899E+00
          2   -1    0    0  501    0  0.00000000000E+00  0.00000000000E+00  0.14287076907E+04  0.14287076907E+04  0.25500000000E-02 0.  1.
         -2   -1    0    0    0  501 -0.00000000000E+00 -0.00000000000E+00 -0.45026835434E+02  0.45026835506E+02  0.25500000000E-02 0. -1.
    5000001    1    1    2    0    0 -0.14175689946E+03  0.86146518589E+02  0.58045397087E+03  0.63228716064E+03  0.18800000000E+03 0.  0.
   -5000001    1    1    2    0    0  0.14175689946E+03 -0.86146518589E+02  0.80322688442E+03  0.84144736559E+03  0.18800000000E+03 0.  0.
<mgrwt>
<rscale>  0 0.50726792E+03</rscale>
<asrwt>0</asrwt>
<pdfrwt beam="1">  1        2 0.20410112E+00 0.50726792E+03</pdfrwt>
<pdfrwt beam="2">  1       -2 0.64324045E-02 0.50726792E+03</pdfrwt>
<totfact> 0.22482904E+03</totfact>
</mgrwt>
</event>
<event>
 4    1  0.6024609E-005  0.5159138E+03  0.7818608E-02  0.1009707E+00
         -2   -1    0    0    0  501 -0.00000000000E+00  0.00000000000E+00  0.56643779213E+03  0.56643779213E+03  0.25500000000E-02 0. -1.
          2   -1    0    0  501    0  0.00000000000E+00 -0.00000000000E+00 -0.11747410242E+03  0.11747410245E+03  0.25500000000E-02 0.  1.
    5000001    1    1    2    0    0 -0.34477116517E+02 -0.17152078259E+03  0.25667371484E+03  0.36308875818E+03  0.18800000000E+03 0.  0.
   -5000001    1    1    2    0    0  0.34477116517E+02  0.17152078259E+03  0.19228997486E+03  0.32082313641E+03  0.18800000000E+03 0.  0.
<mgrwt>
<rscale>  0 0.51591383E+03</rscale>
<asrwt>0</asrwt>
<pdfrwt beam="1">  1        2 0.16782014E-01 0.51591383E+03</pdfrwt>
<pdfrwt beam="2">  1       -2 0.80919686E-01 0.51591383E+03</pdfrwt>
<totfact> 0.47589209E+02</totfact>
</mgrwt>
</event>
<event>
 4    1  0.6024609E-005  0.5988629E+03  0.7818608E-02  0.9907768E-01
         -2   -1    0    0    0  501 -0.00000000000E+00  0.00000000000E+00  0.38960403114E+02  0.38960403198E+02  0.25500000000E-02 0.  1.
          2   -1    0    0  501    0  0.00000000000E+00 -0.00000000000E+00 -0.23012904395E+04  0.23012904395E+04  0.25500000000E-02 0. -1.
    5000001    1    1    2    0    0  0.12209402755E+03  0.13996157986E+03 -0.58102158629E+03  0.63829952149E+03  0.18800000000E+03 0.  0.
   -5000001    1    1    2    0    0 -0.12209402755E+03 -0.13996157986E+03 -0.16813084501E+04  0.17019513212E+04  0.18800000000E+03 0.  0.
<mgrwt>
<rscale>  0 0.59886293E+03</rscale>
<asrwt>0</asrwt>
<pdfrwt beam="1">  1        2 0.32875569E+00 0.59886293E+03</pdfrwt>
<pdfrwt beam="2">  1       -2 0.55657733E-02 0.59886293E+03</pdfrwt>
<totfact> 0.10148954E+03</totfact>
</mgrwt>
</event>
<event>
 4    1  0.6024609E-005  0.5520769E+03  0.7818608E-02  0.1001014E+00
          2   -1    0    0  501    0  0.00000000000E+00  0.00000000000E+00  0.55464507715E+03  0.55464507715E+03  0.25500000000E-02 0.  1.
         -2   -1    0    0    0  501 -0.00000000000E+00 -0.00000000000E+00 -0.13738017423E+03  0.13738017426E+03  0.25500000000E-02 0. -1.
    5000001    1    1    2    0    0 -0.18278336853E+03  0.64325777383E+02  0.28070206717E+03  0.38946786255E+03  0.18800000000E+03 0.  0.
   -5000001    1    1    2    0    0  0.18278336853E+03 -0.64325777383E+02  0.13656283574E+03  0.30255738886E+03  0.18800000000E+03 0.  0.
<mgrwt>
<rscale>  0 0.55207694E+03</rscale>
<asrwt>0</asrwt>
<pdfrwt beam="1">  1        2 0.79235013E-01 0.55207694E+03</pdfrwt>
<pdfrwt beam="2">  1       -2 0.19625739E-01 0.55207694E+03</pdfrwt>
<totfact> 0.13128616E+03</totfact>
</mgrwt>
</event>
<event>
 4    1  0.6024609E-005  0.4119007E+03  0.7818608E-02  0.1039735E+00
         -2   -1    0    0    0  501 -0.00000000000E+00  0.00000000000E+00  0.11423295780E+03  0.11423295783E+03  0.25500000000E-02 0. -1.
          2   -1    0    0  501    0  0.00000000000E+00 -0.00000000000E+00 -0.37130734604E+03  0.37130734605E+03  0.25500000000E-02 0.  1.
    5000001    1    1    2    0    0  0.46078902034E+02 -0.40129937441E+02 -0.19664028485E+03  0.27882804507E+03  0.18800000000E+03 0.  0.
   -5000001    1    1    2    0    0 -0.46078902034E+02  0.40129937441E+02 -0.60434103388E+02  0.20671225881E+03  0.18800000000E+03 0.  0.
<mgrwt>
<rscale>  0 0.41190065E+03</rscale>
<asrwt>0</asrwt>
<pdfrwt beam="1">  1        2 0.53043906E-01 0.41190065E+03</pdfrwt>
<pdfrwt beam="2">  1       -2 0.16318994E-01 0.41190065E+03</pdfrwt>
<totfact> 0.28134981E+03</totfact>
</mgrwt>
</event>
<event>
 4    1  0.6024609E-005  0.5431114E+03  0.7818608E-02  0.1003101E+00
          2   -1    0    0  501    0  0.00000000000E+00  0.00000000000E+00  0.17169707071E+04  0.17169707071E+04  0.25500000000E-02 0.  1.
         -2   -1    0    0    0  501 -0.00000000000E+00 -0.00000000000E+00 -0.42949185132E+02  0.42949185208E+02  0.25500000000E-02 0. -1.
    5000001    1    1    2    0    0  0.73133170553E+02 -0.14164636359E+03  0.12062836122E+04  0.12312092861E+04  0.18800000000E+03 0.  0.
   -5000001    1    1    2    0    0 -0.73133170553E+02  0.14164636359E+03  0.46773790976E+03  0.52871060627E+03  0.18800000000E+03 0.  0.
<mgrwt>
<rscale>  0 0.54311138E+03</rscale>
<asrwt>0</asrwt>
<pdfrwt beam="1">  1        2 0.24528153E+00 0.54311138E+03</pdfrwt>
<pdfrwt beam="2">  1       -2 0.61355979E-02 0.54311138E+03</pdfrwt>
<totfact> 0.17194750E+03</totfact>
</mgrwt>
</event>
<event>
 4    1  0.6024609E-005  0.6005772E+03  0.7818608E-02  0.9904209E-01
         -2   -1    0    0    0  501 -0.00000000000E+00  0.00000000000E+00  0.60334434210E+02  0.60334434264E+02  0.25500000000E-02 0. -1.
          2   -1    0    0  501    0  0.00000000000E+00 -0.00000000000E+00 -0.14945566669E+04  0.14945566669E+04  0.25500000000E-02 0.  1.
    5000001    1    1    2    0    0  0.15430513349E+03 -0.17206804563E+03 -0.81438789969E+03  0.86717307252E+03  0.18800000000E+03 0.  0.
   -5000001    1    1    2    0    0 -0.15430513349E+03  0.17206804563E+03 -0.61983433297E+03  0.68771802861E+03  0.18800000000E+03 0.  0.
<mgrwt>
<rscale>  0 0.60057716E+03</rscale>
<asrwt>0</asrwt>
<pdfrwt beam="1">  1        2 0.21350807E+00 0.60057716E+03</pdfrwt>
<pdfrwt beam="2">  1       -2 0.86192058E-02 0.60057716E+03</pdfrwt>
<totfact> 0.13031175E+03</totfact>
</mgrwt>
</event>
<event>
 4    1  0.6024609E-005  0.6582166E+03  0.7818608E-02  0.9791482E-01
         -2   -1    0    0    0  501 -0.00000000000E+00  0.00000000000E+00  0.11972596993E+03  0.11972596996E+03  0.25500000000E-02 0.  1.
          2   -1    0    0  501    0  0.00000000000E+00 -0.00000000000E+00 -0.90466813381E+03  0.90466813381E+03  0.25500000000E-02 0. -1.
    5000001    1    1    2    0    0  0.46047088925E+02  0.17867817332E+03 -0.69951187241E+03  0.74746711210E+03  0.18800000000E+03 0.  0.
   -5000001    1    1    2    0    0 -0.46047088925E+02 -0.17867817332E+03 -0.85430291459E+02  0.27692699168E+03  0.18800000000E+03 0.  0.
<mgrwt>
<rscale>  0 0.65821659E+03</rscale>
<asrwt>0</asrwt>
<pdfrwt beam="1">  1        2 0.12923830E+00 0.65821659E+03</pdfrwt>
<pdfrwt beam="2">  1       -2 0.17103710E-01 0.65821659E+03</pdfrwt>
<totfact> 0.90764989E+02</totfact>
</mgrwt>
</event>
<event>
 4    1  0.6024609E-005  0.8296382E+03  0.7818608E-02  0.9518081E-01
          2   -1    0    0  501    0  0.00000000000E+00  0.00000000000E+00  0.11659034184E+04  0.11659034184E+04  0.25500000000E-02 0.  1.
         -2   -1    0    0    0  501 -0.00000000000E+00 -0.00000000000E+00 -0.14758929766E+03  0.14758929768E+03  0.25500000000E-02 0. -1.
    5000001    1    1    2    0    0 -0.27019814297E+03 -0.21927667028E+03  0.31115069472E+03  0.50323756757E+03  0.18800000000E+03 0.  0.
   -5000001    1    1    2    0    0  0.27019814297E+03  0.21927667028E+03  0.70716342606E+03  0.81025514855E+03  0.18800000000E+03 0.  0.
<mgrwt>
<rscale>  0 0.82963815E+03</rscale>
<asrwt>0</asrwt>
<pdfrwt beam="1">  1        2 0.16655764E+00 0.82963815E+03</pdfrwt>
<pdfrwt beam="2">  1       -2 0.21084184E-01 0.82963815E+03</pdfrwt>
<totfact> 0.43576989E+02</totfact>
</mgrwt>
</event>
<event>
 4    1  0.6024609E-005  0.5092977E+03  0.7818608E-02  0.1011380E+00
          2   -1    0    0  501    0  0.00000000000E+00  0.00000000000E+00  0.19854260576E+04  0.19854260576E+04  0.25500000000E-02 0.  1.
         -2   -1    0    0    0  501 -0.00000000000E+00 -0.00000000000E+00 -0.32661011857E+02  0.32661011956E+02  0.25500000000E-02 0. -1.
    5000001    1    1    2    0    0 -0.21456836925E+02  0.13342606526E+03  0.55630034837E+03  0.60255870115E+03  0.18800000000E+03 0.  0.
   -5000001    1    1    2    0    0  0.21456836925E+02 -0.13342606526E+03  0.13964646973E+04  0.14155283684E+04  0.18800000000E+03 0.  0.
<mgrwt>
<rscale>  0 0.50929765E+03</rscale>
<asrwt>0</asrwt>
<pdfrwt beam="1">  1        2 0.28363225E+00 0.50929765E+03</pdfrwt>
<pdfrwt beam="2">  1       -2 0.46658595E-02 0.50929765E+03</pdfrwt>
<totfact> 0.19312055E+03</totfact>
</mgrwt>
</event>
<event>
 4    1  0.6024609E-005  0.4900656E+03  0.7818608E-02  0.1016405E+00
          2   -1    0    0  501    0  0.00000000000E+00  0.00000000000E+00  0.38232001171E+03  0.38232001172E+03  0.25500000000E-02 0.  1.
         -2   -1    0    0    0  501 -0.00000000000E+00 -0.00000000000E+00 -0.15704400955E+03  0.15704400957E+03  0.25500000000E-02 0. -1.
    5000001    1    1    2    0    0 -0.11098081551E+03  0.83629887374E+02  0.19341278213E+03  0.30341918820E+03  0.18800000000E+03 0.  0.
   -5000001    1    1    2    0    0  0.11098081551E+03 -0.83629887374E+02  0.31863220024E+02  0.23594483309E+03  0.18800000000E+03 0.  0.
<mgrwt>
<rscale>  0 0.49006558E+03</rscale>
<asrwt>0</asrwt>
<pdfrwt beam="1">  1        2 0.54617144E-01 0.49006558E+03</pdfrwt>
<pdfrwt beam="2">  1       -2 0.22434859E-01 0.49006558E+03</pdfrwt>
<totfact> 0.15781057E+03</totfact>
</mgrwt>
</event>
<event>
 4    1  0.6024609E-005  0.4505344E+03  0.7818608E-02  0.1027563E+00
          2   -1    0    0  501    0  0.00000000000E+00  0.00000000000E+00  0.14482034667E+04  0.14482034667E+04  0.25500000000E-02 0.  1.
         -2   -1    0    0    0  501 -0.00000000000E+00 -0.00000000000E+00 -0.35040180052E+02  0.35040180144E+02  0.25500000000E-02 0. -1.
    5000001    1    1    2    0    0  0.11432015801E+02  0.11854402851E+03  0.82147533255E+03  0.85108701063E+03  0.18800000000E+03 0.  0.
   -5000001    1    1    2    0    0 -0.11432015801E+02 -0.11854402851E+03  0.59168795408E+03  0.63215663619E+03  0.18800000000E+03 0.  0.
<mgrwt>
<rscale>  0 0.45053440E+03</rscale>
<asrwt>0</asrwt>
<pdfrwt beam="1">  1        2 0.20688615E+00 0.45053440E+03</pdfrwt>
<pdfrwt beam="2">  1       -2 0.50057414E-02 0.45053440E+03</pdfrwt>
<totfact> 0.32442329E+03</totfact>
</mgrwt>
</event>
<event>
 4    1  0.6024609E-005  0.3922688E+03  0.7818608E-02  0.1046490E+00
          2   -1    0    0  501    0  0.00000000000E+00  0.00000000000E+00  0.29803983249E+03  0.29803983250E+03  0.25500000000E-02 0.  1.
         -2   -1    0    0    0  501 -0.00000000000E+00 -0.00000000000E+00 -0.12907237880E+03  0.12907237883E+03  0.25500000000E-02 0. -1.
    5000001    1    1    2    0    0  0.51031497646E+02  0.10801611318E+02  0.62603442802E+02  0.20490016986E+03  0.18800000000E+03 0.  0.
   -5000001    1    1    2    0    0 -0.51031497646E+02 -0.10801611318E+02  0.10636401089E+03  0.22221204146E+03  0.18800000000E+03 0.  0.
<mgrwt>
<rscale>  0 0.39226884E+03</rscale>
<asrwt>0</asrwt>
<pdfrwt beam="1">  1        2 0.42577119E-01 0.39226884E+03</pdfrwt>
<pdfrwt beam="2">  1       -2 0.18438911E-01 0.39226884E+03</pdfrwt>
<totfact> 0.29045480E+03</totfact>
</mgrwt>
</event>
<event>
 4    1  0.6024609E-005  0.4689655E+03  0.7818608E-02  0.1022213E+00
          2   -1    0    0  501    0  0.00000000000E+00  0.00000000000E+00  0.19475005887E+04  0.19475005887E+04  0.25500000000E-02 0.  1.
         -2   -1    0    0    0  501 -0.00000000000E+00 -0.00000000000E+00 -0.28232160414E+02  0.28232160530E+02  0.25500000000E-02 0. -1.
    5000001    1    1    2    0    0 -0.35074433415E+02  0.13540463660E+03  0.99575715976E+03  0.10229569652E+04  0.18800000000E+03 0.  0.
   -5000001    1    1    2    0    0  0.35074433415E+02 -0.13540463660E+03  0.92351126854E+03  0.95277578402E+03  0.18800000000E+03 0.  0.
<mgrwt>
<rscale>  0 0.46896545E+03</rscale>
<asrwt>0</asrwt>
<pdfrwt beam="1">  1        2 0.27821450E+00 0.46896545E+03</pdfrwt>
<pdfrwt beam="2">  1       -2 0.40331639E-02 0.46896545E+03</pdfrwt>
<totfact> 0.25263673E+03</totfact>
</mgrwt>
</event>
<event>
 4    1  0.6024609E-005  0.5539632E+03  0.7818608E-02  0.1000581E+00
         -2   -1    0    0    0  501 -0.00000000000E+00  0.00000000000E+00  0.63776456722E+03  0.63776456722E+03  0.25500000000E-02 0. -1.
          2   -1    0    0  501    0  0.00000000000E+00 -0.00000000000E+00 -0.12029328303E+03  0.12029328306E+03  0.25500000000E-02 0.  1.
    5000001    1    1    2    0    0 -0.18875997918E+02  0.20197864099E+03  0.27917605401E+03  0.39298211644E+03  0.18800000000E+03 0.  0.
   -5000001    1    1    2    0    0  0.18875997918E+02 -0.20197864099E+03  0.23829523017E+03  0.36507573384E+03  0.18800000000E+03 0.  0.
<mgrwt>
<rscale>  0 0.55396315E+03</rscale>
<asrwt>0</asrwt>
<pdfrwt beam="1">  1        2 0.17184755E-01 0.55396315E+03</pdfrwt>
<pdfrwt beam="2">  1       -2 0.91109221E-01 0.55396315E+03</pdfrwt>
<totfact> 0.35331503E+02</totfact>
</mgrwt>
</event>
<event>
 4    1  0.6024609E-005  0.7584686E+03  0.7818608E-02  0.9622157E-01
         -2   -1    0    0    0  501 -0.00000000000E+00  0.00000000000E+00  0.16537621458E+03  0.16537621460E+03  0.25500000000E-02 0. -1.
          2   -1    0    0  501    0  0.00000000000E+00 -0.00000000000E+00 -0.86964543250E+03  0.86964543250E+03  0.25500000000E-02 0.  1.
    5000001    1    1    2    0    0  0.26377388267E+03 -0.96232607700E+01 -0.83316888843E+02  0.33459673085E+03  0.18800000000E+03 0.  0.
   -5000001    1    1    2    0    0 -0.26377388267E+03  0.96232607700E+01 -0.62095232907E+03  0.70042491625E+03  0.18800000000E+03 0.  0.
<mgrwt>
<rscale>  0 0.75846864E+03</rscale>
<asrwt>0</asrwt>
<pdfrwt beam="1">  1        2 0.12423506E+00 0.75846864E+03</pdfrwt>
<pdfrwt beam="2">  1       -2 0.23625174E-01 0.75846864E+03</pdfrwt>
<totfact> 0.54225891E+02</totfact>
</mgrwt>
</event>
<event>
 4    1  0.6024609E-005  0.6902163E+03  0.7818608E-02  0.9734111E-01
         -2   -1    0    0    0  501 -0.00000000000E+00  0.00000000000E+00  0.55424385375E+02  0.55424385434E+02  0.25500000000E-02 0. -1.
          2   -1    0    0  501    0  0.00000000000E+00 -0.00000000000E+00 -0.21488672830E+04  0.21488672830E+04  0.25500000000E-02 0.  1.
    5000001    1    1    2    0    0 -0.25309827298E+03 -0.47156799356E+02 -0.14688739954E+04  0.15030692978E+04  0.18800000000E+03 0.  0.
   -5000001    1    1    2    0    0  0.25309827298E+03  0.47156799356E+02 -0.62456890224E+03  0.70122237069E+03  0.18800000000E+03 0.  0.
<mgrwt>
<rscale>  0 0.69021634E+03</rscale>
<asrwt>0</asrwt>
<pdfrwt beam="1">  1        2 0.30698099E+00 0.69021634E+03</pdfrwt>
<pdfrwt beam="2">  1       -2 0.79177707E-02 0.69021634E+03</pdfrwt>
<totfact> 0.69079365E+02</totfact>
</mgrwt>
</event>
<event>
 4    1  0.6024609E-005  0.5068460E+03  0.7818608E-02  0.1012007E+00
         -2   -1    0    0    0  501 -0.00000000000E+00  0.00000000000E+00  0.13434395845E+03  0.13434395847E+03  0.25500000000E-02 0. -1.
          2   -1    0    0  501    0  0.00000000000E+00 -0.00000000000E+00 -0.47805068688E+03  0.47805068689E+03  0.25500000000E-02 0.  1.
    5000001    1    1    2    0    0 -0.88260047342E+02  0.14325674640E+03 -0.14308568348E+03  0.29005145089E+03  0.18800000000E+03 0.  0.
   -5000001    1    1    2    0    0  0.88260047342E+02 -0.14325674640E+03 -0.20062104496E+03  0.32234319448E+03  0.18800000000E+03 0.  0.
<mgrwt>
<rscale>  0 0.50684602E+03</rscale>
<asrwt>0</asrwt>
<pdfrwt beam="1">  1        2 0.68292954E-01 0.50684602E+03</pdfrwt>
<pdfrwt beam="2">  1       -2 0.19191994E-01 0.50684602E+03</pdfrwt>
<totfact> 0.16162920E+03</totfact>
</mgrwt>
</event>
<event>
 4    1  0.6024609E-005  0.4092194E+03  0.7818608E-02  0.1040633E+00
         -2   -1    0    0    0  501 -0.00000000000E+00  0.00000000000E+00  0.16780290566E+03  0.16780290568E+03  0.25500000000E-02 0. -1.
          2   -1    0    0  501    0  0.00000000000E+00 -0.00000000000E+00 -0.24948987516E+03  0.24948987518E+03  0.25500000000E-02 0.  1.
    5000001    1    1    2    0    0 -0.52150826445E+02  0.23093084714E+02 -0.99138862284E+02  0.22005797708E+03  0.18800000000E+03 0.  0.
   -5000001    1    1    2    0    0  0.52150826445E+02 -0.23093084714E+02  0.17451892785E+02  0.19723480378E+03  0.18800000000E+03 0.  0.
<mgrwt>
<rscale>  0 0.40921938E+03</rscale>
<asrwt>0</asrwt>
<pdfrwt beam="1">  1        2 0.35641411E-01 0.40921938E+03</pdfrwt>
<pdfrwt beam="2">  1       -2 0.23971844E-01 0.40921938E+03</pdfrwt>
<totfact> 0.22377225E+03</totfact>
</mgrwt>
</event>
<event>
 4    1  0.6024609E-005  0.4978177E+03  0.7818608E-02  0.1014350E+00
          2   -1    0    0  501    0  0.00000000000E+00  0.00000000000E+00  0.47410270674E+03  0.47410270675E+03  0.25500000000E-02 0.  1.
         -2   -1    0    0    0  501 -0.00000000000E+00 -0.00000000000E+00 -0.13067971131E+03  0.13067971134E+03  0.25500000000E-02 0. -1.
    5000001    1    1    2    0    0  0.15096012978E+03  0.60892946363E+02  0.18472210646E+03  0.30977922512E+03  0.18800000000E+03 0.  0.
   -5000001    1    1    2    0    0 -0.15096012978E+03 -0.60892946363E+02  0.15870088897E+03  0.29500319297E+03  0.18800000000E+03 0.  0.
<mgrwt>
<rscale>  0 0.49781766E+03</rscale>
<asrwt>0</asrwt>
<pdfrwt beam="1">  1        2 0.67728958E-01 0.49781766E+03</pdfrwt>
<pdfrwt beam="2">  1       -2 0.18668530E-01 0.49781766E+03</pdfrwt>
<totfact> 0.17109488E+03</totfact>
</mgrwt>
</event>
<event>
 4    1  0.6024609E-005  0.1206999E+04  0.7818608E-02  0.9106752E-01
         -2   -1    0    0    0  501 -0.00000000000E+00  0.00000000000E+00  0.31188466170E+03  0.31188466171E+03  0.25500000000E-02 0. -1.
          2   -1    0    0  501    0  0.00000000000E+00 -0.00000000000E+00 -0.11677765184E+04  0.11677765184E+04  0.25500000000E-02 0.  1.
    5000001    1    1    2    0    0 -0.27050368653E+03 -0.43281277499E+03 -0.74848667748E+03  0.92524345390E+03  0.18800000000E+03 0.  0.
   -5000001    1    1    2    0    0  0.27050368653E+03  0.43281277499E+03 -0.10740517923E+03  0.55441772622E+03  0.18800000000E+03 0.  0.
<mgrwt>
<rscale>  0 0.12069989E+04</rscale>
<asrwt>0</asrwt>
<pdfrwt beam="1">  1        2 0.16682521E+00 0.12069989E+04</pdfrwt>
<pdfrwt beam="2">  1       -2 0.44554952E-01 0.12069989E+04</pdfrwt>
<totfact> 0.10504164E+02</totfact>
</mgrwt>
</event>
<event>
 4    1  0.6024609E-005  0.4766473E+03  0.7818608E-02  0.1020061E+00
          2   -1    0    0  501    0  0.00000000000E+00  0.00000000000E+00  0.40626545268E+02  0.40626545348E+02  0.25500000000E-02 0.  1.
         -2   -1    0    0    0  501 -0.00000000000E+00 -0.00000000000E+00 -0.13980556151E+04  0.13980556151E+04  0.25500000000E-02 0. -1.
    5000001    1    1    2    0    0  0.56792577470E+01  0.10379037119E+03 -0.36723337418E+03  0.42545157919E+03  0.18800000000E+03 0.  0.
   -5000001    1    1    2    0    0 -0.56792577470E+01 -0.10379037119E+03 -0.99019569566E+03  0.10132305813E+04  0.18800000000E+03 0.  0.
<mgrwt>
<rscale>  0 0.47664733E+03</rscale>
<asrwt>0</asrwt>
<pdfrwt beam="1">  1        2 0.58037931E-02 0.47664733E+03</pdfrwt>
<pdfrwt beam="2">  1       -2 0.19972220E+00 0.47664733E+03</pdfrwt>
<totfact> 0.18593193E+02</totfact>
</mgrwt>
</event>
<event>
 4    1  0.6024609E-005  0.7242818E+03  0.7818608E-02  0.9676585E-01
          2   -1    0    0  501    0  0.00000000000E+00  0.00000000000E+00  0.22543923892E+04  0.22543923892E+04  0.25500000000E-02 0.  1.
         -2   -1    0    0    0  501 -0.00000000000E+00 -0.00000000000E+00 -0.58173559597E+02  0.58173559653E+02  0.25500000000E-02 0. -1.
    5000001    1    1    2    0    0 -0.23568665448E+03 -0.20053141688E+03  0.10776693540E+04  0.11368712701E+04  0.18800000000E+03 0.  0.
   -5000001    1    1    2    0    0  0.23568665448E+03  0.20053141688E+03  0.11185494757E+04  0.11756946788E+04  0.18800000000E+03 0.  0.
<mgrwt>
<rscale>  0 0.72428180E+03</rscale>
<asrwt>0</asrwt>
<pdfrwt beam="1">  1        2 0.32205595E+00 0.72428180E+03</pdfrwt>
<pdfrwt beam="2">  1       -2 0.83105112E-02 0.72428180E+03</pdfrwt>
<totfact> 0.56392821E+02</totfact>
</mgrwt>
</event>
<event>
 4    1  0.6024609E-005  0.6143478E+03  0.7818608E-02  0.9876078E-01
         -2   -1    0    0    0  501 -0.00000000000E+00  0.00000000000E+00  0.69182412858E+03  0.69182412858E+03  0.25500000000E-02 0. -1.
          2   -1    0    0  501    0  0.00000000000E+00 -0.00000000000E+00 -0.13638697093E+03  0.13638697096E+03  0.25500000000E-02 0.  1.
    5000001    1    1    2    0    0  0.20177295465E+03  0.11582527482E+03  0.18350497912E+03  0.35092149674E+03  0.18800000000E+03 0.  0.
   -5000001    1    1    2    0    0 -0.20177295465E+03 -0.11582527482E+03  0.37193217852E+03  0.47728960279E+03  0.18800000000E+03 0.  0.
<mgrwt>
<rscale>  0 0.61434778E+03</rscale>
<asrwt>0</asrwt>
<pdfrwt beam="1">  1        2 0.19483853E-01 0.61434778E+03</pdfrwt>
<pdfrwt beam="2">  1       -2 0.98832017E-01 0.61434778E+03</pdfrwt>
<totfact> 0.25172489E+02</totfact>
</mgrwt>
</event>
<event>
 4    1  0.6024609E-005  0.6230493E+03  0.7818608E-02  0.9858707E-01
         -2   -1    0    0    0  501 -0.00000000000E+00  0.00000000000E+00  0.19955587104E+03  0.19955587106E+03  0.25500000000E-02 0. -1.
          2   -1    0    0  501    0  0.00000000000E+00 -0.00000000000E+00 -0.48631801079E+03  0.48631801080E+03  0.25500000000E-02 0.  1.
    5000001    1    1    2    0    0 -0.21424739650E+03 -0.12088361304E+03 -0.18133701307E+03  0.35880622502E+03  0.18800000000E+03 0.  0.
   -5000001    1    1    2    0    0  0.21424739650E+03  0.12088361304E+03 -0.10542512669E+03  0.32706765683E+03  0.18800000000E+03 0.  0.
<mgrwt>
<rscale>  0 0.62304932E+03</rscale>
<asrwt>0</asrwt>
<pdfrwt beam="1">  1        2 0.69474001E-01 0.62304932E+03</pdfrwt>
<pdfrwt beam="2">  1       -2 0.28507982E-01 0.62304932E+03</pdfrwt>
<totfact> 0.78407545E+02</totfact>
</mgrwt>
</event>
<event>
 4    1  0.6024609E-005  0.4537247E+03  0.7818608E-02  0.1026617E+00
          2   -1    0    0  501    0  0.00000000000E+00  0.00000000000E+00  0.30686047574E+03  0.30686047575E+03  0.25500000000E-02 0.  1.
         -2   -1    0    0    0  501 -0.00000000000E+00 -0.00000000000E+00 -0.16771962692E+03  0.16771962694E+03  0.25500000000E-02 0. -1.
    5000001    1    1    2    0    0  0.88665434403E+02  0.70256409763E+02  0.92571267556E+01  0.21960695974E+03  0.18800000000E+03 0.  0.
   -5000001    1    1    2    0    0 -0.88665434403E+02 -0.70256409763E+02  0.12988372207E+03  0.25497314295E+03  0.18800000000E+03 0.  0.
<mgrwt>
<rscale>  0 0.45372469E+03</rscale>
<asrwt>0</asrwt>
<pdfrwt beam="1">  1        2 0.43837211E-01 0.45372469E+03</pdfrwt>
<pdfrwt beam="2">  1       -2 0.23959947E-01 0.45372469E+03</pdfrwt>
<totfact> 0.17872293E+03</totfact>
</mgrwt>
</event>
<event>
 4    1  0.6024609E-005  0.5567135E+03  0.7818608E-02  0.9999519E-01
          2   -1    0    0  501    0  0.00000000000E+00  0.00000000000E+00  0.19508121697E+04  0.19508121697E+04  0.25500000000E-02 0.  1.
         -2   -1    0    0    0  501 -0.00000000000E+00 -0.00000000000E+00 -0.39718058925E+02  0.39718059007E+02  0.25500000000E-02 0. -1.
    5000001    1    1    2    0    0  0.17853845803E+03 -0.88538007381E+01  0.59472056366E+03  0.64883813052E+03  0.18800000000E+03 0.  0.
   -5000001    1    1    2    0    0 -0.17853845803E+03  0.88538007381E+01  0.13163735471E+04  0.13416920982E+04  0.18800000000E+03 0.  0.
<mgrwt>
<rscale>  0 0.55671347E+03</rscale>
<asrwt>0</asrwt>
<pdfrwt beam="1">  1        2 0.27868753E+00 0.55671347E+03</pdfrwt>
<pdfrwt beam="2">  1       -2 0.56740069E-02 0.55671347E+03</pdfrwt>
<totfact> 0.14810632E+03</totfact>
</mgrwt>
</event>
<event>
 4    1  0.6024609E-005  0.6039655E+03  0.7818608E-02  0.9897213E-01
          2   -1    0    0  501    0  0.00000000000E+00  0.00000000000E+00  0.14526136783E+04  0.14526136783E+04  0.25500000000E-02 0.  1.
         -2   -1    0    0    0  501 -0.00000000000E+00 -0.00000000000E+00 -0.62778966736E+02  0.62778966787E+02  0.25500000000E-02 0. -1.
    5000001    1    1    2    0    0  0.14240640215E+03 -0.18072093119E+03  0.83026652948E+03  0.88183113368E+03  0.18800000000E+03 0.  0.
   -5000001    1    1    2    0    0 -0.14240640215E+03  0.18072093119E+03  0.55956818205E+03  0.63356151138E+03  0.18800000000E+03 0.  0.
<mgrwt>
<rscale>  0 0.60396552E+03</rscale>
<asrwt>0</asrwt>
<pdfrwt beam="1">  1        2 0.20751625E+00 0.60396552E+03</pdfrwt>
<pdfrwt beam="2">  1       -2 0.89684233E-02 0.60396552E+03</pdfrwt>
<totfact> 0.12859294E+03</totfact>
</mgrwt>
</event>
<event>
 4    1  0.6024609E-005  0.5713500E+03  0.7818608E-02  0.9966696E-01
          2   -1    0    0  501    0  0.00000000000E+00  0.00000000000E+00  0.92362614973E+03  0.92362614973E+03  0.25500000000E-02 0.  1.
         -2   -1    0    0    0  501 -0.00000000000E+00 -0.00000000000E+00 -0.88358473295E+02  0.88358473332E+02  0.25500000000E-02 0. -1.
    5000001    1    1    2    0    0  0.15778457859E+03 -0.93051847089E+02  0.21793689247E+03  0.34116727362E+03  0.18800000000E+03 0.  0.
   -5000001    1    1    2    0    0 -0.15778457859E+03  0.93051847089E+02  0.61733078397E+03  0.67081734945E+03  0.18800000000E+03 0.  0.
<mgrwt>
<rscale>  0 0.57134997E+03</rscale>
<asrwt>0</asrwt>
<pdfrwt beam="1">  1        2 0.13194659E+00 0.57134997E+03</pdfrwt>
<pdfrwt beam="2">  1       -2 0.12622639E-01 0.57134997E+03</pdfrwt>
<totfact> 0.14734744E+03</totfact>
</mgrwt>
</event>
<event>
 4    1  0.6024609E-005  0.9509492E+03  0.7818608E-02  0.9364042E-01
         -2   -1    0    0    0  501 -0.00000000000E+00  0.00000000000E+00  0.11158794825E+04  0.11158794825E+04  0.25500000000E-02 0. -1.
          2   -1    0    0  501    0  0.00000000000E+00 -0.00000000000E+00 -0.20259904554E+03  0.20259904556E+03  0.25500000000E-02 0.  1.
    5000001    1    1    2    0    0  0.10104207602E+03 -0.41080051690E+03  0.60703123042E+03  0.76341173721E+03  0.18800000000E+03 0.  0.
   -5000001    1    1    2    0    0 -0.10104207602E+03  0.41080051690E+03  0.30624920659E+03  0.55506679089E+03  0.18800000000E+03 0.  0.
<mgrwt>
<rscale>  0 0.95094925E+03</rscale>
<asrwt>0</asrwt>
<pdfrwt beam="1">  1        2 0.28942721E-01 0.95094925E+03</pdfrwt>
<pdfrwt beam="2">  1       -2 0.15941136E+00 0.95094925E+03</pdfrwt>
<totfact> 0.47225078E+01</totfact>
</mgrwt>
</event>
<event>
 4    1  0.6024609E-005  0.6079414E+03  0.7818608E-02  0.9889066E-01
         -2   -1    0    0    0  501 -0.00000000000E+00  0.00000000000E+00  0.74922601923E+02  0.74922601966E+02  0.25500000000E-02 0. -1.
          2   -1    0    0  501    0  0.00000000000E+00 -0.00000000000E+00 -0.12332486048E+04  0.12332486048E+04  0.25500000000E-02 0.  1.
    5000001    1    1    2    0    0 -0.18217196677E+03 -0.12967044880E+03 -0.75987800454E+03  0.81410050519E+03  0.18800000000E+03 0.  0.
   -5000001    1    1    2    0    0  0.18217196677E+03  0.12967044880E+03 -0.39844799829E+03  0.49407070153E+03  0.18800000000E+03 0.  0.
<mgrwt>
<rscale>  0 0.60794143E+03</rscale>
<asrwt>0</asrwt>
<pdfrwt beam="1">  1        2 0.17617836E+00 0.60794143E+03</pdfrwt>
<pdfrwt beam="2">  1       -2 0.10703230E-01 0.60794143E+03</pdfrwt>
<totfact> 0.12677944E+03</totfact>
</mgrwt>
</event>
<event>
 4    1  0.6024609E-005  0.5520369E+03  0.7818608E-02  0.1001024E+00
         -2   -1    0    0    0  501 -0.00000000000E+00  0.00000000000E+00  0.49667377656E+02  0.49667377721E+02  0.25500000000E-02 0. -1.
          2   -1    0    0  501    0  0.00000000000E+00 -0.00000000000E+00 -0.15339283200E+04  0.15339283200E+04  0.25500000000E-02 0.  1.
    5000001    1    1    2    0    0 -0.13763881450E+03 -0.88739459149E+02 -0.40242886383E+03  0.47340482181E+03  0.18800000000E+03 0.  0.
   -5000001    1    1    2    0    0  0.13763881450E+03  0.88739459149E+02 -0.10818320785E+04  0.11101908759E+04  0.18800000000E+03 0.  0.
<mgrwt>
<rscale>  0 0.55203695E+03</rscale>
<asrwt>0</asrwt>
<pdfrwt beam="1">  1        2 0.21913259E+00 0.55203695E+03</pdfrwt>
<pdfrwt beam="2">  1       -2 0.70953406E-02 0.55203695E+03</pdfrwt>
<totfact> 0.16966892E+03</totfact>
</mgrwt>
</event>
<event>
 4    1  0.6024609E-005  0.4884307E+03  0.7818608E-02  0.1016844E+00
         -2   -1    0    0    0  501 -0.00000000000E+00  0.00000000000E+00  0.29144568456E+02  0.29144568567E+02  0.25500000000E-02 0. -1.
          2   -1    0    0  501    0  0.00000000000E+00 -0.00000000000E+00 -0.20463894433E+04  0.20463894433E+04  0.25500000000E-02 0.  1.
    5000001    1    1    2    0    0  0.14973854908E+03 -0.58114025002E+01 -0.11909868534E+04  0.12150099137E+04  0.18800000000E+03 0.  0.
   -5000001    1    1    2    0    0 -0.14973854908E+03  0.58114025002E+01 -0.82625802138E+03  0.86052409808E+03  0.18800000000E+03 0.  0.
<mgrwt>
<rscale>  0 0.48843070E+03</rscale>
<asrwt>0</asrwt>
<pdfrwt beam="1">  1        2 0.29234126E+00 0.48843070E+03</pdfrwt>
<pdfrwt beam="2">  1       -2 0.41635111E-02 0.48843070E+03</pdfrwt>
<totfact> 0.21467746E+03</totfact>
</mgrwt>
</event>
<event>
 4    1  0.6024609E-005  0.5543036E+03  0.7818608E-02  0.1000503E+00
          2   -1    0    0  501    0  0.00000000000E+00  0.00000000000E+00  0.73747665603E+03  0.73747665604E+03  0.25500000000E-02 0.  1.
         -2   -1    0    0    0  501 -0.00000000000E+00 -0.00000000000E+00 -0.10415667505E+03  0.10415667508E+03  0.25500000000E-02 0. -1.
    5000001    1    1    2    0    0  0.10586470598E+03 -0.14554383604E+03  0.17198655356E+03  0.31195146864E+03  0.18800000000E+03 0.  0.
   -5000001    1    1    2    0    0 -0.10586470598E+03  0.14554383604E+03  0.46133342742E+03  0.52968186248E+03  0.18800000000E+03 0.  0.
<mgrwt>
<rscale>  0 0.55430359E+03</rscale>
<asrwt>0</asrwt>
<pdfrwt beam="1">  1        2 0.10535381E+00 0.55430359E+03</pdfrwt>
<pdfrwt beam="2">  1       -2 0.14879525E-01 0.55430359E+03</pdfrwt>
<totfact> 0.14984694E+03</totfact>
</mgrwt>
</event>
<event>
 4    1  0.6024609E-005  0.4767559E+03  0.7818608E-02  0.1020031E+00
         -2   -1    0    0    0  501 -0.00000000000E+00  0.00000000000E+00  0.10397723172E+03  0.10397723175E+03  0.25500000000E-02 0. -1.
          2   -1    0    0  501    0  0.00000000000E+00 -0.00000000000E+00 -0.54650469708E+03  0.54650469709E+03  0.25500000000E-02 0.  1.
    5000001    1    1    2    0    0  0.13535520889E+03 -0.35562905566E+02 -0.16188065401E+03  0.28484223523E+03  0.18800000000E+03 0.  0.
   -5000001    1    1    2    0    0 -0.13535520889E+03  0.35562905566E+02 -0.28064681135E+03  0.36563969361E+03  0.18800000000E+03 0.  0.
<mgrwt>
<rscale>  0 0.47675589E+03</rscale>
<asrwt>0</asrwt>
<pdfrwt beam="1">  1        2 0.78072098E-01 0.47675589E+03</pdfrwt>
<pdfrwt beam="2">  1       -2 0.14853891E-01 0.47675589E+03</pdfrwt>
<totfact> 0.21450945E+03</totfact>
</mgrwt>
</event>
<event>
 4    1  0.6024609E-005  0.6466758E+03  0.7818608E-02  0.9813037E-01
          2   -1    0    0  501    0  0.00000000000E+00  0.00000000000E+00  0.16173176443E+04  0.16173176443E+04  0.25500000000E-02 0.  1.
         -2   -1    0    0    0  501 -0.00000000000E+00 -0.00000000000E+00 -0.64642467601E+02  0.64642467652E+02  0.25500000000E-02 0. -1.
    5000001    1    1    2    0    0  0.26758324865E+02 -0.53862473929E+02  0.14424314061E+04  0.14558741482E+04  0.18800000000E+03 0.  0.
   -5000001    1    1    2    0    0 -0.26758324865E+02  0.53862473929E+02  0.11024377055E+03  0.22608596372E+03  0.18800000000E+03 0.  0.
<mgrwt>
<rscale>  0 0.64667582E+03</rscale>
<asrwt>0</asrwt>
<pdfrwt beam="1">  1        2 0.23104537E+00 0.64667582E+03</pdfrwt>
<pdfrwt beam="2">  1       -2 0.92346384E-02 0.64667582E+03</pdfrwt>
<totfact> 0.10056751E+03</totfact>
</mgrwt>
</event>
<event>
 4    1  0.6024609E-005  0.5022468E+03  0.7818608E-02  0.1013194E+00
          2   -1    0    0  501    0  0.00000000000E+00  0.00000000000E+00  0.16351290245E+04  0.16351290245E+04  0.25500000000E-02 0.  1.
         -2   -1    0    0    0  501 -0.00000000000E+00 -0.00000000000E+00 -0.38567569267E+02  0.38567569351E+02  0.25500000000E-02 0. -1.
    5000001    1    1    2    0    0 -0.14387990872E+03  0.29987695410E+02  0.53762118851E+03  0.58820169359E+03  0.18800000000E+03 0.  0.
   -5000001    1    1    2    0    0  0.14387990872E+03 -0.29987695410E+02  0.10589402667E+04  0.10854949003E+04  0.18800000000E+03 0.  0.
<mgrwt>
<rscale>  0 0.50224676E+03</rscale>
<asrwt>0</asrwt>
<pdfrwt beam="1">  1        2 0.23358987E+00 0.50224676E+03</pdfrwt>
<pdfrwt beam="2">  1       -2 0.55096525E-02 0.50224676E+03</pdfrwt>
<totfact> 0.22401997E+03</totfact>
</mgrwt>
</event>
<event>
 4    1  0.6024609E-005  0.4842642E+03  0.7818608E-02  0.1017970E+00
         -2   -1    0    0    0  501 -0.00000000000E+00  0.00000000000E+00  0.35758784566E+02  0.35758784657E+02  0.25500000000E-02 0. -1.
          2   -1    0    0  501    0  0.00000000000E+00 -0.00000000000E+00 -0.16395396359E+04  0.16395396359E+04  0.25500000000E-02 0.  1.
    5000001    1    1    2    0    0 -0.35322824485E+02  0.12768808687E+03 -0.10638068658E+04  0.10883845815E+04  0.18800000000E+03 0.  0.
   -5000001    1    1    2    0    0  0.35322824485E+02 -0.12768808687E+03 -0.53997398551E+03  0.58691383907E+03  0.18800000000E+03 0.  0.
<mgrwt>
<rscale>  0 0.48426416E+03</rscale>
<asrwt>0</asrwt>
<pdfrwt beam="1">  1        2 0.23421990E+00 0.48426416E+03</pdfrwt>
<pdfrwt beam="2">  1       -2 0.51083988E-02 0.48426416E+03</pdfrwt>
<totfact> 0.25066718E+03</totfact>
</mgrwt>
</event>
<event>
 4    1  0.6024609E-005  0.1004494E+04  0.7818608E-02  0.9303629E-01
          2   -1    0    0  501    0  0.00000000000E+00  0.00000000000E+00  0.35138933136E+04  0.35138933136E+04  0.25500000000E-02 0.  1.
         -2   -1    0    0    0  501 -0.00000000000E+00 -0.00000000000E+00 -0.71787067864E+02  0.71787067910E+02  0.25500000000E-02 0. -1.
    5000001    1    1    2    0    0  0.16839981291E+03  0.13935015957E+03  0.31890866233E+04  0.32020921996E+04  0.18800000000E+03 0.  0.
   -5000001    1    1    2    0    0 -0.16839981291E+03 -0.13935015957E+03  0.25301962249E+03  0.38358818194E+03  0.18800000000E+03 0.  0.
<mgrwt>
<rscale>  0 0.10044941E+04</rscale>
<asrwt>0</asrwt>
<pdfrwt beam="1">  1        2 0.50198483E+00 0.10044941E+04</pdfrwt>
<pdfrwt beam="2">  1       -2 0.10255294E-01 0.10044941E+04</pdfrwt>
<totfact> 0.80296298E+01</totfact>
</mgrwt>
</event>
<event>
 4    1  0.6024609E-005  0.1026621E+04  0.7818608E-02  0.9279820E-01
         -2   -1    0    0    0  501 -0.00000000000E+00  0.00000000000E+00  0.76239697533E+03  0.76239697533E+03  0.25500000000E-02 0.  1.
          2   -1    0    0  501    0  0.00000000000E+00 -0.00000000000E+00 -0.34560429669E+03  0.34560429670E+03  0.25500000000E-02 0. -1.
    5000001    1    1    2    0    0  0.42794062537E+03  0.14832748914E+03  0.44683322875E+02  0.49241732527E+03  0.18800000000E+03 0.  0.
   -5000001    1    1    2    0    0 -0.42794062537E+03 -0.14832748914E+03  0.37210935576E+03  0.61558394677E+03  0.18800000000E+03 0.  0.
<mgrwt>
<rscale>  0 0.10266210E+04</rscale>
<asrwt>0</asrwt>
<pdfrwt beam="1">  1        2 0.49372042E-01 0.10266210E+04</pdfrwt>
<pdfrwt beam="2">  1       -2 0.10891385E+00 0.10266210E+04</pdfrwt>
<totfact> 0.68374444E+01</totfact>
</mgrwt>
</event>
<event>
 4    1  0.6024609E-005  0.4207667E+03  0.7818608E-02  0.1036817E+00
          2   -1    0    0  501    0  0.00000000000E+00  0.00000000000E+00  0.20893491297E+04  0.20893491297E+04  0.25500000000E-02 0.  1.
         -2   -1    0    0    0  501 -0.00000000000E+00 -0.00000000000E+00 -0.21184184676E+02  0.21184184829E+02  0.25500000000E-02 0. -1.
    5000001    1    1    2    0    0  0.23136123376E+02 -0.86692583999E+02  0.11817137518E+04  0.11999342797E+04  0.18800000000E+03 0.  0.
   -5000001    1    1    2    0    0 -0.23136123376E+02  0.86692583999E+02  0.88645119319E+03  0.91059903483E+03  0.18800000000E+03 0.  0.
<mgrwt>
<rscale>  0 0.42076672E+03</rscale>
<asrwt>0</asrwt>
<pdfrwt beam="1">  1        2 0.29847832E+00 0.42076672E+03</pdfrwt>
<pdfrwt beam="2">  1       -2 0.30263134E-02 0.42076672E+03</pdfrwt>
<totfact> 0.33260721E+03</totfact>
</mgrwt>
</event>
<event>
 4    1  0.6024609E-005  0.7527548E+03  0.7818608E-02  0.9631038E-01
          2   -1    0    0  501    0  0.00000000000E+00  0.00000000000E+00  0.94381870767E+03  0.94381870768E+03  0.25500000000E-02 0.  1.
         -2   -1    0    0    0  501 -0.00000000000E+00 -0.00000000000E+00 -0.15009234253E+03  0.15009234255E+03  0.25500000000E-02 0. -1.
    5000001    1    1    2    0    0 -0.30559495142E+03  0.76986085288E+02  0.27527168894E+03  0.45873045942E+03  0.18800000000E+03 0.  0.
   -5000001    1    1    2    0    0  0.30559495142E+03 -0.76986085288E+02  0.51845467620E+03  0.63518059081E+03  0.18800000000E+03 0.  0.
<mgrwt>
<rscale>  0 0.75275484E+03</rscale>
<asrwt>0</asrwt>
<pdfrwt beam="1">  1        2 0.13483125E+00 0.75275484E+03</pdfrwt>
<pdfrwt beam="2">  1       -2 0.21441762E-01 0.75275484E+03</pdfrwt>
<totfact> 0.57683296E+02</totfact>
</mgrwt>
</event>
<event>
 4    1  0.6024609E-005  0.8477656E+03  0.7818608E-02  0.9493341E-01
         -2   -1    0    0    0  501 -0.00000000000E+00  0.00000000000E+00  0.28552157015E+03  0.28552157016E+03  0.25500000000E-02 0. -1.
          2   -1    0    0  501    0  0.00000000000E+00 -0.00000000000E+00 -0.62929262349E+03  0.62929262349E+03  0.25500000000E-02 0.  1.
    5000001    1    1    2    0    0 -0.21685460692E+03 -0.27187272313E+03 -0.68452094206E+01  0.39538785390E+03  0.18800000000E+03 0.  0.
   -5000001    1    1    2    0    0  0.21685460692E+03  0.27187272313E+03 -0.33692584392E+03  0.51942633975E+03  0.18800000000E+03 0.  0.
<mgrwt>
<rscale>  0 0.84776558E+03</rscale>
<asrwt>0</asrwt>
<pdfrwt beam="1">  1        2 0.89898945E-01 0.84776558E+03</pdfrwt>
<pdfrwt beam="2">  1       -2 0.40788796E-01 0.84776558E+03</pdfrwt>
<totfact> 0.29273128E+02</totfact>
</mgrwt>
</event>
<event>
 4    1  0.6024609E-005  0.4826383E+03  0.7818608E-02  0.1018413E+00
         -2   -1    0    0    0  501 -0.00000000000E+00  0.00000000000E+00  0.50402199514E+02  0.50402199579E+02  0.25500000000E-02 0. -1.
          2   -1    0    0  501    0  0.00000000000E+00 -0.00000000000E+00 -0.11554046389E+04  0.11554046389E+04  0.25500000000E-02 0.  1.
    5000001    1    1    2    0    0  0.10395011577E+03  0.10962058460E+03 -0.57319939429E+03  0.62187124451E+03  0.18800000000E+03 0.  0.
   -5000001    1    1    2    0    0 -0.10395011577E+03 -0.10962058460E+03 -0.53180304513E+03  0.58393559400E+03  0.18800000000E+03 0.  0.
<mgrwt>
<rscale>  0 0.48263831E+03</rscale>
<asrwt>0</asrwt>
<pdfrwt beam="1">  1        2 0.16505779E+00 0.48263831E+03</pdfrwt>
<pdfrwt beam="2">  1       -2 0.72003150E-02 0.48263831E+03</pdfrwt>
<totfact> 0.26500079E+03</totfact>
</mgrwt>
</event>
<event>
 4    1  0.6024609E-005  0.4787751E+03  0.7818608E-02  0.1019472E+00
          2   -1    0    0  501    0  0.00000000000E+00  0.00000000000E+00  0.43646733328E+03  0.43646733328E+03  0.25500000000E-02 0.  1.
         -2   -1    0    0    0  501 -0.00000000000E+00 -0.00000000000E+00 -0.13129596529E+03  0.13129596532E+03  0.25500000000E-02 0. -1.
    5000001    1    1    2    0    0  0.36470775946E+02 -0.90399185755E+02  0.28495870362E+03  0.35503181978E+03  0.18800000000E+03 0.  0.
   -5000001    1    1    2    0    0 -0.36470775946E+02  0.90399185755E+02  0.20212664359E+02  0.21273147883E+03  0.18800000000E+03 0.  0.
<mgrwt>
<rscale>  0 0.47877510E+03</rscale>
<asrwt>0</asrwt>
<pdfrwt beam="1">  1        2 0.62352477E-01 0.47877510E+03</pdfrwt>
<pdfrwt beam="2">  1       -2 0.18756566E-01 0.47877510E+03</pdfrwt>
<totfact> 0.18609592E+03</totfact>
</mgrwt>
</event>
<event>
 4    1  0.6024609E-005  0.7323103E+03  0.7818608E-02  0.9663519E-01
         -2   -1    0    0    0  501 -0.00000000000E+00  0.00000000000E+00  0.24342544751E+03  0.24342544752E+03  0.25500000000E-02 0. -1.
          2   -1    0    0  501    0  0.00000000000E+00 -0.00000000000E+00 -0.55076249947E+03  0.55076249948E+03  0.25500000000E-02 0.  1.
    5000001    1    1    2    0    0 -0.30433385412E+03  0.23095068268E+01 -0.68958459732E+02  0.36431263738E+03  0.18800000000E+03 0.  0.
   -5000001    1    1    2    0    0  0.30433385412E+03 -0.23095068268E+01 -0.23837859223E+03  0.42987530962E+03  0.18800000000E+03 0.  0.
<mgrwt>
<rscale>  0 0.73231034E+03</rscale>
<asrwt>0</asrwt>
<pdfrwt beam="1">  1        2 0.78680357E-01 0.73231034E+03</pdfrwt>
<pdfrwt beam="2">  1       -2 0.34775064E-01 0.73231034E+03</pdfrwt>
<totfact> 0.46791009E+02</totfact>
</mgrwt>
</event>
<event>
 4    1  0.6024609E-005  0.4288986E+03  0.7818608E-02  0.1034208E+00
         -2   -1    0    0    0  501 -0.00000000000E+00  0.00000000000E+00  0.12152081141E+02  0.12152081408E+02  0.25500000000E-02 0. -1.
          2   -1    0    0  501    0  0.00000000000E+00 -0.00000000000E+00 -0.37844138017E+04  0.37844138017E+04  0.25500000000E-02 0.  1.
    5000001    1    1    2    0    0  0.19014655408E+02  0.25286398921E+02 -0.10168609249E+04  0.10345777398E+04  0.18800000000E+03 0.  0.
   -5000001    1    1    2    0    0 -0.19014655408E+02 -0.25286398921E+02 -0.27554007956E+04  0.27619881433E+04  0.18800000000E+03 0.  0.
<mgrwt>
<rscale>  0 0.42889861E+03</rscale>
<asrwt>0</asrwt>
<pdfrwt beam="1">  1        2 0.54062979E+00 0.42889861E+03</pdfrwt>
<pdfrwt beam="2">  1       -2 0.17360140E-02 0.42889861E+03</pdfrwt>
<totfact> 0.91955389E+02</totfact>
</mgrwt>
</event>
<event>
 4    1  0.6024609E-005  0.8824680E+03  0.7818608E-02  0.9447767E-01
          2   -1    0    0  501    0  0.00000000000E+00  0.00000000000E+00  0.94792667603E+03  0.94792667604E+03  0.25500000000E-02 0.  1.
         -2   -1    0    0    0  501 -0.00000000000E+00 -0.00000000000E+00 -0.20538238169E+03  0.20538238170E+03  0.25500000000E-02 0. -1.
    5000001    1    1    2    0    0  0.32869732770E+03 -0.37829776025E+02  0.79416416621E+02  0.38874669442E+03  0.18800000000E+03 0.  0.
   -5000001    1    1    2    0    0 -0.32869732770E+03  0.37829776025E+02  0.66312787773E+03  0.76456236332E+03  0.18800000000E+03 0.  0.
<mgrwt>
<rscale>  0 0.88246799E+03</rscale>
<asrwt>0</asrwt>
<pdfrwt beam="1">  1        2 0.13541810E+00 0.88246799E+03</pdfrwt>
<pdfrwt beam="2">  1       -2 0.29340340E-01 0.88246799E+03</pdfrwt>
<totfact> 0.32366976E+02</totfact>
</mgrwt>
</event>
<event>
 4    1  0.6024609E-005  0.4766985E+03  0.7818608E-02  0.1020046E+00
          2   -1    0    0  501    0  0.00000000000E+00  0.00000000000E+00  0.42207859626E+03  0.42207859626E+03  0.25500000000E-02 0.  1.
         -2   -1    0    0    0  501 -0.00000000000E+00 -0.00000000000E+00 -0.13459666191E+03  0.13459666193E+03  0.25500000000E-02 0. -1.
    5000001    1    1    2    0    0  0.69545127703E+02 -0.12887828785E+03  0.13848829476E+03  0.27562500912E+03  0.18800000000E+03 0.  0.
   -5000001    1    1    2    0    0 -0.69545127703E+02  0.12887828785E+03  0.14899363959E+03  0.28105024908E+03  0.18800000000E+03 0.  0.
<mgrwt>
<rscale>  0 0.47669852E+03</rscale>
<asrwt>0</asrwt>
<pdfrwt beam="1">  1        2 0.60296941E-01 0.47669852E+03</pdfrwt>
<pdfrwt beam="2">  1       -2 0.19228095E-01 0.47669852E+03</pdfrwt>
<totfact> 0.18505634E+03</totfact>
</mgrwt>
</event>
<event>
 4    1  0.6024609E-005  0.4377248E+03  0.7818608E-02  0.1031447E+00
         -2   -1    0    0    0  501 -0.00000000000E+00  0.00000000000E+00  0.30013339535E+02  0.30013339643E+02  0.25500000000E-02 0. -1.
          2   -1    0    0  501    0  0.00000000000E+00 -0.00000000000E+00 -0.15959823694E+04  0.15959823694E+04  0.25500000000E-02 0.  1.
    5000001    1    1    2    0    0  0.98775687318E+02 -0.51336704068E+02 -0.73531707782E+03  0.76709015019E+03  0.18800000000E+03 0.  0.
   -5000001    1    1    2    0    0 -0.98775687318E+02  0.51336704068E+02 -0.83065195206E+03  0.85890555887E+03  0.18800000000E+03 0.  0.
<mgrwt>
<rscale>  0 0.43772485E+03</rscale>
<asrwt>0</asrwt>
<pdfrwt beam="1">  1        2 0.22799743E+00 0.43772485E+03</pdfrwt>
<pdfrwt beam="2">  1       -2 0.42876209E-02 0.43772485E+03</pdfrwt>
<totfact> 0.34550218E+03</totfact>
</mgrwt>
</event>
<event>
 4    1  0.6024609E-005  0.4494107E+03  0.7818608E-02  0.1027898E+00
          2   -1    0    0  501    0  0.00000000000E+00  0.00000000000E+00  0.44098779193E+04  0.44098779193E+04  0.25500000000E-02 0.  1.
         -2   -1    0    0    0  501 -0.00000000000E+00 -0.00000000000E+00 -0.11449862468E+02  0.11449862752E+02  0.25500000000E-02 0. -1.
    5000001    1    1    2    0    0 -0.51503803057E+02  0.76690740073E+00  0.10994941972E+04  0.11166399238E+04  0.18800000000E+03 0.  0.
   -5000001    1    1    2    0    0  0.51503803057E+02 -0.76690740073E+00  0.32989338596E+04  0.33046878582E+04  0.18800000000E+03 0.  0.
<mgrwt>
<rscale>  0 0.44941071E+03</rscale>
<asrwt>0</asrwt>
<pdfrwt beam="1">  1        2 0.62998273E+00 0.44941071E+03</pdfrwt>
<pdfrwt beam="2">  1       -2 0.16356942E-02 0.44941071E+03</pdfrwt>
<totfact> 0.37540915E+02</totfact>
</mgrwt>
</event>
<event>
 4    1  0.6024609E-005  0.5947970E+03  0.7818608E-02  0.9916260E-01
          2   -1    0    0  501    0  0.00000000000E+00  0.00000000000E+00  0.28890866363E+04  0.28890866363E+04  0.25500000000E-02 0.  1.
         -2   -1    0    0    0  501 -0.00000000000E+00 -0.00000000000E+00 -0.30613786380E+02  0.30613786486E+02  0.25500000000E-02 0. -1.
    5000001    1    1    2    0    0  0.17962373817E+03 -0.94559103868E+02  0.19646208915E+04  0.19840073989E+04  0.18800000000E+03 0.  0.
   -5000001    1    1    2    0    0 -0.17962373817E+03  0.94559103868E+02  0.89385195836E+03  0.93569302386E+03  0.18800000000E+03 0.  0.
<mgrwt>
<rscale>  0 0.59479705E+03</rscale>
<asrwt>0</asrwt>
<pdfrwt beam="1">  1        2 0.41272642E+00 0.59479705E+03</pdfrwt>
<pdfrwt beam="2">  1       -2 0.43734006E-02 0.59479705E+03</pdfrwt>
<totfact> 0.73123369E+02</totfact>
</mgrwt>
</event>
<event>
 4    1  0.6024609E-005  0.9681719E+03  0.7818608E-02  0.9344159E-01
          2   -1    0    0  501    0  0.00000000000E+00  0.00000000000E+00  0.20520238292E+03  0.20520238294E+03  0.25500000000E-02 0.  1.
         -2   -1    0    0    0  501 -0.00000000000E+00 -0.00000000000E+00 -0.11419905967E+04  0.11419905967E+04  0.25500000000E-02 0. -1.
    5000001    1    1    2    0    0 -0.40069955470E+03  0.19023138752E+03 -0.40243323224E+03  0.62772973511E+03  0.18800000000E+03 0.  0.
   -5000001    1    1    2    0    0  0.40069955470E+03 -0.19023138752E+03 -0.53435498152E+03  0.71946324451E+03  0.18800000000E+03 0.  0.
<mgrwt>
<rscale>  0 0.96817187E+03</rscale>
<asrwt>0</asrwt>
<pdfrwt beam="1">  1        2 0.29314627E-01 0.96817187E+03</pdfrwt>
<pdfrwt beam="2">  1       -2 0.16314151E+00 0.96817187E+03</pdfrwt>
<totfact> 0.43657893E+01</totfact>
</mgrwt>
</event>
<event>
 4    1  0.6024609E-005  0.1466857E+04  0.7818608E-02  0.8906797E-01
         -2   -1    0    0    0  501 -0.00000000000E+00  0.00000000000E+00  0.68162186858E+03  0.68162186859E+03  0.25500000000E-02 0. -1.
          2   -1    0    0  501    0  0.00000000000E+00 -0.00000000000E+00 -0.78917295488E+03  0.78917295489E+03  0.25500000000E-02 0.  1.
    5000001    1    1    2    0    0  0.38060540699E+03  0.45044694347E+03  0.34074045279E+03  0.70654864014E+03  0.18800000000E+03 0.  0.
   -5000001    1    1    2    0    0 -0.38060540699E+03 -0.45044694347E+03 -0.44829153909E+03  0.76424618333E+03  0.18800000000E+03 0.  0.
<mgrwt>
<rscale>  0 0.14668572E+04</rscale>
<asrwt>0</asrwt>
<pdfrwt beam="1">  1        2 0.11273899E+00 0.14668572E+04</pdfrwt>
<pdfrwt beam="2">  1       -2 0.97374553E-01 0.14668572E+04</pdfrwt>
<totfact> 0.33025755E+01</totfact>
</mgrwt>
</event>
<event>
 4    1  0.6024609E-005  0.4727684E+03  0.7818608E-02  0.1021142E+00
         -2   -1    0    0    0  501 -0.00000000000E+00  0.00000000000E+00  0.22478960163E+03  0.22478960164E+03  0.25500000000E-02 0. -1.
          2   -1    0    0  501    0  0.00000000000E+00 -0.00000000000E+00 -0.24857682796E+03  0.24857682797E+03  0.25500000000E-02 0.  1.
    5000001    1    1    2    0    0 -0.48063214774E+01 -0.14319123954E+03 -0.93107512331E+01  0.23655342292E+03  0.18800000000E+03 0.  0.
   -5000001    1    1    2    0    0  0.48063214774E+01  0.14319123954E+03 -0.14476475092E+02  0.23681300669E+03  0.18800000000E+03 0.  0.
<mgrwt>
<rscale>  0 0.47276838E+03</rscale>
<asrwt>0</asrwt>
<pdfrwt beam="1">  1        2 0.35510976E-01 0.47276838E+03</pdfrwt>
<pdfrwt beam="2">  1       -2 0.32112800E-01 0.47276838E+03</pdfrwt>
<totfact> 0.13241217E+03</totfact>
</mgrwt>
</event>
<event>
 4    1  0.6024609E-005  0.7806814E+03  0.7818608E-02  0.9588409E-01
         -2   -1    0    0    0  501 -0.00000000000E+00  0.00000000000E+00  0.12660714566E+03  0.12660714568E+03  0.25500000000E-02 0. -1.
          2   -1    0    0  501    0  0.00000000000E+00 -0.00000000000E+00 -0.12034540417E+04  0.12034540417E+04  0.25500000000E-02 0.  1.
    5000001    1    1    2    0    0 -0.52727747374E+02 -0.32265403637E+03 -0.70995021013E+03  0.80390244644E+03  0.18800000000E+03 0.  0.
   -5000001    1    1    2    0    0  0.52727747374E+02  0.32265403637E+03 -0.36689668588E+03  0.52615874091E+03  0.18800000000E+03 0.  0.
<mgrwt>
<rscale>  0 0.78068145E+03</rscale>
<asrwt>0</asrwt>
<pdfrwt beam="1">  1        2 0.17192200E+00 0.78068145E+03</pdfrwt>
<pdfrwt beam="2">  1       -2 0.18086736E-01 0.78068145E+03</pdfrwt>
<totfact> 0.54334244E+02</totfact>
</mgrwt>
</event>
<event>
 4    1  0.6024609E-005  0.4233386E+03  0.7818608E-02  0.1035985E+00
         -2   -1    0    0    0  501 -0.00000000000E+00  0.00000000000E+00  0.20700225286E+02  0.20700225444E+02  0.25500000000E-02 0. -1.
          2   -1    0    0  501    0  0.00000000000E+00 -0.00000000000E+00 -0.21644153024E+04  0.21644153024E+04  0.25500000000E-02 0.  1.
    5000001    1    1    2    0    0  0.33275840093E+02 -0.89248367254E+02 -0.97027285383E+03  0.99289776084E+03  0.18800000000E+03 0.  0.
   -5000001    1    1    2    0    0 -0.33275840093E+02  0.89248367254E+02 -0.11734422233E+04  0.11922177670E+04  0.18800000000E+03 0.  0.
<mgrwt>
<rscale>  0 0.42333856E+03</rscale>
<asrwt>0</asrwt>
<pdfrwt beam="1">  1        2 0.30920204E+00 0.42333856E+03</pdfrwt>
<pdfrwt beam="2">  1       -2 0.29571764E-02 0.42333856E+03</pdfrwt>
<totfact> 0.31605129E+03</totfact>
</mgrwt>
</event>
<event>
 4    1  0.6024609E-005  0.5375618E+03  0.7818608E-02  0.1004415E+00
         -2   -1    0    0    0  501 -0.00000000000E+00  0.00000000000E+00  0.66080290380E+02  0.66080290429E+02  0.25500000000E-02 0. -1.
          2   -1    0    0  501    0  0.00000000000E+00 -0.00000000000E+00 -0.10932633893E+04  0.10932633893E+04  0.25500000000E-02 0.  1.
    5000001    1    1    2    0    0 -0.13722274155E+03  0.64546484284E+02 -0.76788517844E+03  0.80497700384E+03  0.18800000000E+03 0.  0.
   -5000001    1    1    2    0    0  0.13722274155E+03 -0.64546484284E+02 -0.25929792052E+03  0.35436667594E+03  0.18800000000E+03 0.  0.
<mgrwt>
<rscale>  0 0.53756176E+03</rscale>
<asrwt>0</asrwt>
<pdfrwt beam="1">  1        2 0.15618047E+00 0.53756176E+03</pdfrwt>
<pdfrwt beam="2">  1       -2 0.94400422E-02 0.53756176E+03</pdfrwt>
<totfact> 0.18681985E+03</totfact>
</mgrwt>
</event>
<event>
 4    1  0.6024609E-005  0.1954674E+04  0.7818608E-02  0.8628110E-01
         -2   -1    0    0    0  501 -0.00000000000E+00  0.00000000000E+00  0.28485657443E+03  0.28485657444E+03  0.25500000000E-02 0. -1.
          2   -1    0    0  501    0  0.00000000000E+00 -0.00000000000E+00 -0.33532218849E+04  0.33532218849E+04  0.25500000000E-02 0.  1.
    5000001    1    1    2    0    0 -0.39591237135E+03  0.87338389207E+03 -0.15020923469E+04  0.17919741760E+04  0.18800000000E+03 0.  0.
   -5000001    1    1    2    0    0  0.39591237135E+03 -0.87338389207E+03 -0.15662729636E+04  0.18461042834E+04  0.18800000000E+03 0.  0.
<mgrwt>
<rscale>  0 0.19546737E+04</rscale>
<asrwt>0</asrwt>
<pdfrwt beam="1">  1        2 0.47903168E+00 0.19546737E+04</pdfrwt>
<pdfrwt beam="2">  1       -2 0.40693798E-01 0.19546737E+04</pdfrwt>
<totfact> 0.79104873E+00</totfact>
</mgrwt>
</event>
<event>
 4    1  0.6024609E-005  0.5338816E+03  0.7818608E-02  0.1005295E+00
         -2   -1    0    0    0  501 -0.00000000000E+00  0.00000000000E+00  0.10690639719E+03  0.10690639722E+03  0.25500000000E-02 0. -1.
          2   -1    0    0  501    0  0.00000000000E+00 -0.00000000000E+00 -0.66654002174E+03  0.66654002174E+03  0.25500000000E-02 0.  1.
    5000001    1    1    2    0    0 -0.40109363626E+02  0.18138944466E+03 -0.22556218197E+03  0.34746681802E+03  0.18800000000E+03 0.  0.
   -5000001    1    1    2    0    0  0.40109363626E+02 -0.18138944466E+03 -0.33407144257E+03  0.42597960095E+03  0.18800000000E+03 0.  0.
<mgrwt>
<rscale>  0 0.53388161E+03</rscale>
<asrwt>0</asrwt>
<pdfrwt beam="1">  1        2 0.95220001E-01 0.53388161E+03</pdfrwt>
<pdfrwt beam="2">  1       -2 0.15272343E-01 0.53388161E+03</pdfrwt>
<totfact> 0.16228298E+03</totfact>
</mgrwt>
</event>
<event>
 4    1  0.6024609E-005  0.1196969E+04  0.7818608E-02  0.9115514E-01
         -2   -1    0    0    0  501 -0.00000000000E+00  0.00000000000E+00  0.21198049611E+03  0.21198049612E+03  0.25500000000E-02 0. -1.
          2   -1    0    0  501    0  0.00000000000E+00 -0.00000000000E+00 -0.16897012509E+04  0.16897012509E+04  0.25500000000E-02 0.  1.
    5000001    1    1    2    0    0 -0.89216623929E+02 -0.54494924588E+03 -0.95148220536E+03  0.11160607840E+04  0.18800000000E+03 0.  0.
   -5000001    1    1    2    0    0  0.89216623929E+02  0.54494924588E+03 -0.52623854944E+03  0.78562096299E+03  0.18800000000E+03 0.  0.
<mgrwt>
<rscale>  0 0.11969690E+04</rscale>
<asrwt>0</asrwt>
<pdfrwt beam="1">  1        2 0.24138589E+00 0.11969690E+04</pdfrwt>
<pdfrwt beam="2">  1       -2 0.30282929E-01 0.11969690E+04</pdfrwt>
<totfact> 0.11540501E+02</totfact>
</mgrwt>
</event>
<event>
 4    1  0.6024609E-005  0.1609793E+04  0.7818608E-02  0.8814554E-01
         -2   -1    0    0    0  501 -0.00000000000E+00  0.00000000000E+00  0.28324966077E+03  0.28324966078E+03  0.25500000000E-02 0. -1.
          2   -1    0    0  501    0  0.00000000000E+00 -0.00000000000E+00 -0.22872342057E+04  0.22872342057E+04  0.25500000000E-02 0.  1.
    5000001    1    1    2    0    0  0.53105410950E+03  0.55206027618E+03 -0.12581014071E+04  0.14849081339E+04  0.18800000000E+03 0.  0.
   -5000001    1    1    2    0    0 -0.53105410950E+03 -0.55206027618E+03 -0.74588313788E+03  0.10855757326E+04  0.18800000000E+03 0.  0.
<mgrwt>
<rscale>  0 0.16097929E+04</rscale>
<asrwt>0</asrwt>
<pdfrwt beam="1">  1        2 0.32674773E+00 0.16097929E+04</pdfrwt>
<pdfrwt beam="2">  1       -2 0.40464239E-01 0.16097929E+04</pdfrwt>
<totfact> 0.31643926E+01</totfact>
</mgrwt>
</event>
<event>
 4    1  0.6024609E-005  0.6545825E+03  0.7818608E-02  0.9798218E-01
          2   -1    0    0  501    0  0.00000000000E+00  0.00000000000E+00  0.39139549136E+03  0.39139549137E+03  0.25500000000E-02 0.  1.
         -2   -1    0    0    0  501 -0.00000000000E+00 -0.00000000000E+00 -0.27368622487E+03  0.27368622488E+03  0.25500000000E-02 0. -1.
    5000001    1    1    2    0    0 -0.16116115741E+03 -0.91875114510E+02  0.25524643866E+03  0.36729919653E+03  0.18800000000E+03 0.  0.
   -5000001    1    1    2    0    0  0.16116115741E+03  0.91875114510E+02 -0.13753717217E+03  0.29778251972E+03  0.18800000000E+03 0.  0.
<mgrwt>
<rscale>  0 0.65458248E+03</rscale>
<asrwt>0</asrwt>
<pdfrwt beam="1">  1        2 0.55913642E-01 0.65458248E+03</pdfrwt>
<pdfrwt beam="2">  1       -2 0.39098032E-01 0.65458248E+03</pdfrwt>
<totfact> 0.55155712E+02</totfact>
</mgrwt>
</event>
<event>
 4    1  0.6024609E-005  0.4786179E+03  0.7818608E-02  0.1019516E+00
         -2   -1    0    0    0  501 -0.00000000000E+00  0.00000000000E+00  0.10799611755E+03  0.10799611758E+03  0.25500000000E-02 0. -1.
          2   -1    0    0  501    0  0.00000000000E+00 -0.00000000000E+00 -0.53028559304E+03  0.53028559304E+03  0.25500000000E-02 0.  1.
    5000001    1    1    2    0    0  0.14428926740E+03  0.26359454121E+02 -0.18412270933E+03  0.30126298411E+03  0.18800000000E+03 0.  0.
   -5000001    1    1    2    0    0 -0.14428926740E+03 -0.26359454121E+02 -0.23816676617E+03  0.33701872650E+03  0.18800000000E+03 0.  0.
<mgrwt>
<rscale>  0 0.47861795E+03</rscale>
<asrwt>0</asrwt>
<pdfrwt beam="1">  1        2 0.75755083E-01 0.47861795E+03</pdfrwt>
<pdfrwt beam="2">  1       -2 0.15428017E-01 0.47861795E+03</pdfrwt>
<totfact> 0.20835386E+03</totfact>
</mgrwt>
</event>
<event>
 4    1  0.6024609E-005  0.6995312E+03  0.7818608E-02  0.9718034E-01
          2   -1    0    0  501    0  0.00000000000E+00  0.00000000000E+00  0.94660506010E+03  0.94660506010E+03  0.25500000000E-02 0.  1.
         -2   -1    0    0    0  501 -0.00000000000E+00 -0.00000000000E+00 -0.12923653676E+03  0.12923653679E+03  0.25500000000E-02 0. -1.
    5000001    1    1    2    0    0  0.21132389805E+03  0.12892483574E+03  0.65529608794E+03  0.72528364522E+03  0.18800000000E+03 0.  0.
   -5000001    1    1    2    0    0 -0.21132389805E+03 -0.12892483574E+03  0.16207243540E+03  0.35055795167E+03  0.18800000000E+03 0.  0.
<mgrwt>
<rscale>  0 0.69953116E+03</rscale>
<asrwt>0</asrwt>
<pdfrwt beam="1">  1        2 0.13522929E+00 0.69953116E+03</pdfrwt>
<pdfrwt beam="2">  1       -2 0.18462363E-01 0.69953116E+03</pdfrwt>
<totfact> 0.74741137E+02</totfact>
</mgrwt>
</event>
<event>
 4    1  0.6024609E-005  0.7796165E+03  0.7818608E-02  0.9589999E-01
          2   -1    0    0  501    0  0.00000000000E+00  0.00000000000E+00  0.86337025592E+03  0.86337025592E+03  0.25500000000E-02 0.  1.
         -2   -1    0    0    0  501 -0.00000000000E+00 -0.00000000000E+00 -0.17599686095E+03  0.17599686097E+03  0.25500000000E-02 0. -1.
    5000001    1    1    2    0    0  0.26169713745E+03 -0.15564033780E+03  0.54977864104E+03  0.65598007641E+03  0.18800000000E+03 0.  0.
   -5000001    1    1    2    0    0 -0.26169713745E+03  0.15564033780E+03  0.13759475393E+03  0.38338704048E+03  0.18800000000E+03 0.  0.
<mgrwt>
<rscale>  0 0.77961646E+03</rscale>
<asrwt>0</asrwt>
<pdfrwt beam="1">  1        2 0.12333861E+00 0.77961646E+03</pdfrwt>
<pdfrwt beam="2">  1       -2 0.25142409E-01 0.77961646E+03</pdfrwt>
<totfact> 0.48919813E+02</totfact>
</mgrwt>
</event>
<event>
 4    1  0.6024609E-005  0.4620759E+03  0.7818608E-02  0.1024181E+00
          2   -1    0    0  501    0  0.00000000000E+00  0.00000000000E+00  0.20045521696E+04  0.20045521696E+04  0.25500000000E-02 0.  1.
         -2   -1    0    0    0  501 -0.00000000000E+00 -0.00000000000E+00 -0.26628654289E+02  0.26628654411E+02  0.25500000000E-02 0. -1.
    5000001    1    1    2    0    0  0.58006518229E+02 -0.11993198272E+03  0.91461075934E+03  0.94318888763E+03  0.18800000000E+03 0.  0.
   -5000001    1    1    2    0    0 -0.58006518229E+02  0.11993198272E+03  0.10633127560E+04  0.10879919364E+04  0.18800000000E+03 0.  0.
<mgrwt>
<rscale>  0 0.46207587E+03</rscale>
<asrwt>0</asrwt>
<pdfrwt beam="1">  1        2 0.28636468E+00 0.46207587E+03</pdfrwt>
<pdfrwt beam="2">  1       -2 0.38040924E-02 0.46207587E+03</pdfrwt>
<totfact> 0.25878952E+03</totfact>
</mgrwt>
</event>
<event>
 4    1  0.6024609E-005  0.5327058E+03  0.7818608E-02  0.1005578E+00
          2   -1    0    0  501    0  0.00000000000E+00  0.00000000000E+00  0.76587445433E+03  0.76587445434E+03  0.25500000000E-02 0.  1.
         -2   -1    0    0    0  501 -0.00000000000E+00 -0.00000000000E+00 -0.92631205420E+02  0.92631205455E+02  0.25500000000E-02 0. -1.
    5000001    1    1    2    0    0 -0.28757958370E+01  0.13171680682E+03  0.55429000869E+03  0.59994916546E+03  0.18800000000E+03 0.  0.
   -5000001    1    1    2    0    0  0.28757958370E+01 -0.13171680682E+03  0.11895324022E+03  0.25855649433E+03  0.18800000000E+03 0.  0.
<mgrwt>
<rscale>  0 0.53270582E+03</rscale>
<asrwt>0</asrwt>
<pdfrwt beam="1">  1        2 0.10941063E+00 0.53270582E+03</pdfrwt>
<pdfrwt beam="2">  1       -2 0.13233030E-01 0.53270582E+03</pdfrwt>
<totfact> 0.17386504E+03</totfact>
</mgrwt>
</event>
<event>
 4    1  0.6024609E-005  0.6274406E+03  0.7818608E-02  0.9850056E-01
          2   -1    0    0  501    0  0.00000000000E+00  0.00000000000E+00  0.10583268960E+04  0.10583268960E+04  0.25500000000E-02 0.  1.
         -2   -1    0    0    0  501 -0.00000000000E+00 -0.00000000000E+00 -0.92996232110E+02  0.92996232145E+02  0.25500000000E-02 0. -1.
    5000001    1    1    2    0    0 -0.46401309395E+02 -0.18373890479E+03  0.78508935150E+03  0.82922997805E+03  0.18800000000E+03 0.  0.
   -5000001    1    1    2    0    0  0.46401309395E+02  0.18373890479E+03  0.18024131238E+03  0.32209315009E+03  0.18800000000E+03 0.  0.
<mgrwt>
<rscale>  0 0.62744056E+03</rscale>
<asrwt>0</asrwt>
<pdfrwt beam="1">  1        2 0.15118956E+00 0.62744056E+03</pdfrwt>
<pdfrwt beam="2">  1       -2 0.13285176E-01 0.62744056E+03</pdfrwt>
<totfact> 0.11180155E+03</totfact>
</mgrwt>
</event>
<event>
 4    1  0.6024609E-005  0.4909138E+03  0.7818608E-02  0.1016178E+00
          2   -1    0    0  501    0  0.00000000000E+00  0.00000000000E+00  0.15723063802E+04  0.15723063802E+04  0.25500000000E-02 0.  1.
         -2   -1    0    0    0  501 -0.00000000000E+00 -0.00000000000E+00 -0.38318920631E+02  0.38318920716E+02  0.25500000000E-02 0. -1.
    5000001    1    1    2    0    0 -0.43514428202E+02 -0.10920007846E+02  0.27059082806E+03  0.33252992085E+03  0.18800000000E+03 0.  0.
   -5000001    1    1    2    0    0  0.43514428202E+02  0.10920007846E+02  0.12633966315E+04  0.12780953801E+04  0.18800000000E+03 0.  0.
<mgrwt>
<rscale>  0 0.49091377E+03</rscale>
<asrwt>0</asrwt>
<pdfrwt beam="1">  1        2 0.22461515E+00 0.49091377E+03</pdfrwt>
<pdfrwt beam="2">  1       -2 0.54741327E-02 0.49091377E+03</pdfrwt>
<totfact> 0.24367473E+03</totfact>
</mgrwt>
</event>
<event>
 4    1  0.6024609E-005  0.1431651E+04  0.7818608E-02  0.8931222E-01
          2   -1    0    0  501    0  0.00000000000E+00  0.00000000000E+00  0.95907943087E+03  0.95907943088E+03  0.25500000000E-02 0.  1.
         -2   -1    0    0    0  501 -0.00000000000E+00 -0.00000000000E+00 -0.53426848326E+03  0.53426848326E+03  0.25500000000E-02 0. -1.
    5000001    1    1    2    0    0  0.66126828314E+03 -0.19530630921E+03  0.17014252986E+03  0.73465146646E+03  0.18800000000E+03 0.  0.
   -5000001    1    1    2    0    0 -0.66126828314E+03  0.19530630921E+03  0.25466841776E+03  0.75869644767E+03  0.18800000000E+03 0.  0.
<mgrwt>
<rscale>  0 0.14316507E+04</rscale>
<asrwt>0</asrwt>
<pdfrwt beam="1">  1        2 0.13701135E+00 0.14316507E+04</pdfrwt>
<pdfrwt beam="2">  1       -2 0.76324069E-01 0.14316507E+04</pdfrwt>
<totfact> 0.44513309E+01</totfact>
</mgrwt>
</event>
<event>
 4    1  0.6024609E-005  0.4685363E+03  0.7818608E-02  0.1022334E+00
          2   -1    0    0  501    0  0.00000000000E+00  0.00000000000E+00  0.18908596727E+04  0.18908596727E+04  0.25500000000E-02 0.  1.
         -2   -1    0    0    0  501 -0.00000000000E+00 -0.00000000000E+00 -0.29024658733E+02  0.29024658845E+02  0.25500000000E-02 0. -1.
    5000001    1    1    2    0    0 -0.51154307833E+02  0.74298415661E+02  0.49340089181E+03  0.53565423345E+03  0.18800000000E+03 0.  0.
   -5000001    1    1    2    0    0  0.51154307833E+02 -0.74298415661E+02  0.13684341221E+04  0.13842300981E+04  0.18800000000E+03 0.  0.
<mgrwt>
<rscale>  0 0.46853626E+03</rscale>
<asrwt>0</asrwt>
<pdfrwt beam="1">  1        2 0.27012283E+00 0.46853626E+03</pdfrwt>
<pdfrwt beam="2">  1       -2 0.41463796E-02 0.46853626E+03</pdfrwt>
<totfact> 0.25843253E+03</totfact>
</mgrwt>
</event>
<event>
 4    1  0.6024609E-005  0.5646833E+03  0.7818608E-02  0.9981513E-01
          2   -1    0    0  501    0  0.00000000000E+00  0.00000000000E+00  0.66941163510E+03  0.66941163510E+03  0.25500000000E-02 0.  1.
         -2   -1    0    0    0  501 -0.00000000000E+00 -0.00000000000E+00 -0.11908489133E+03  0.11908489136E+03  0.25500000000E-02 0. -1.
    5000001    1    1    2    0    0 -0.18148677120E+03  0.10401336713E+03  0.30983631142E+03  0.41844804760E+03  0.18800000000E+03 0.  0.
   -5000001    1    1    2    0    0  0.18148677120E+03 -0.10401336713E+03  0.24049043234E+03  0.37004847886E+03  0.18800000000E+03 0.  0.
<mgrwt>
<rscale>  0 0.56468332E+03</rscale>
<asrwt>0</asrwt>
<pdfrwt beam="1">  1        2 0.95630232E-01 0.56468332E+03</pdfrwt>
<pdfrwt beam="2">  1       -2 0.17012128E-01 0.56468332E+03</pdfrwt>
<totfact> 0.13446793E+03</totfact>
</mgrwt>
</event>
<event>
 4    1  0.6024609E-005  0.5016000E+03  0.7818608E-02  0.1013362E+00
          2   -1    0    0  501    0  0.00000000000E+00  0.00000000000E+00  0.49036309443E+03  0.49036309443E+03  0.25500000000E-02 0.  1.
         -2   -1    0    0    0  501 -0.00000000000E+00 -0.00000000000E+00 -0.12827361637E+03  0.12827361639E+03  0.25500000000E-02 0. -1.
    5000001    1    1    2    0    0  0.14052425090E+03 -0.88123875577E+02  0.17288565804E+03  0.30454282670E+03  0.18800000000E+03 0.  0.
   -5000001    1    1    2    0    0 -0.14052425090E+03  0.88123875577E+02  0.18920382002E+03  0.31409388413E+03  0.18800000000E+03 0.  0.
<mgrwt>
<rscale>  0 0.50160003E+03</rscale>
<asrwt>0</asrwt>
<pdfrwt beam="1">  1        2 0.70051872E-01 0.50160003E+03</pdfrwt>
<pdfrwt beam="2">  1       -2 0.18324802E-01 0.50160003E+03</pdfrwt>
<totfact> 0.17006793E+03</totfact>
</mgrwt>
</event>
<event>
 4    1  0.6024609E-005  0.4552650E+03  0.7818608E-02  0.1026164E+00
          2   -1    0    0  501    0  0.00000000000E+00  0.00000000000E+00  0.10420091612E+03  0.10420091615E+03  0.25500000000E-02 0.  1.
         -2   -1    0    0    0  501 -0.00000000000E+00 -0.00000000000E+00 -0.49727536399E+03  0.49727536400E+03  0.25500000000E-02 0. -1.
    5000001    1    1    2    0    0  0.69270026455E+02  0.10374694316E+03 -0.15666578596E+03  0.27468151243E+03  0.18800000000E+03 0.  0.
   -5000001    1    1    2    0    0 -0.69270026455E+02 -0.10374694316E+03 -0.23640866191E+03  0.32679476772E+03  0.18800000000E+03 0.  0.
<mgrwt>
<rscale>  0 0.45526497E+03</rscale>
<asrwt>0</asrwt>
<pdfrwt beam="1">  1        2 0.14885845E-01 0.45526497E+03</pdfrwt>
<pdfrwt beam="2">  1       -2 0.71039336E-01 0.45526497E+03</pdfrwt>
<totfact> 0.73216809E+02</totfact>
</mgrwt>
</event>
<event>
 4    1  0.6024609E-005  0.8918672E+03  0.7818608E-02  0.9435805E-01
          2   -1    0    0  501    0  0.00000000000E+00  0.00000000000E+00  0.15333664644E+04  0.15333664644E+04  0.25500000000E-02 0.  1.
         -2   -1    0    0    0  501 -0.00000000000E+00 -0.00000000000E+00 -0.12968639296E+03  0.12968639298E+03  0.25500000000E-02 0. -1.
    5000001    1    1    2    0    0 -0.12137243989E+03  0.46665946596E+02 -0.12127499302E+02  0.22891058511E+03  0.18800000000E+03 0.  0.
   -5000001    1    1    2    0    0  0.12137243989E+03 -0.46665946596E+02  0.14158075707E+04  0.14341422723E+04  0.18800000000E+03 0.  0.
<mgrwt>
<rscale>  0 0.89186718E+03</rscale>
<asrwt>0</asrwt>
<pdfrwt beam="1">  1        2 0.21905233E+00 0.89186718E+03</pdfrwt>
<pdfrwt beam="2">  1       -2 0.18526629E-01 0.89186718E+03</pdfrwt>
<totfact> 0.34333868E+02</totfact>
</mgrwt>
</event>
<event>
 4    1  0.6024609E-005  0.5133823E+03  0.7818608E-02  0.1010344E+00
         -2   -1    0    0    0  501 -0.00000000000E+00  0.00000000000E+00  0.92004486560E+02  0.92004486595E+02  0.25500000000E-02 0. -1.
          2   -1    0    0  501    0  0.00000000000E+00 -0.00000000000E+00 -0.71616439139E+03  0.71616439140E+03  0.25500000000E-02 0.  1.
    5000001    1    1    2    0    0 -0.28950750543E+02  0.15098729374E+03 -0.18121221390E+03  0.30301349029E+03  0.18800000000E+03 0.  0.
   -5000001    1    1    2    0    0  0.28950750543E+02 -0.15098729374E+03 -0.44294769093E+03  0.50515538771E+03  0.18800000000E+03 0.  0.
<mgrwt>
<rscale>  0 0.51338226E+03</rscale>
<asrwt>0</asrwt>
<pdfrwt beam="1">  1        2 0.10230920E+00 0.51338226E+03</pdfrwt>
<pdfrwt beam="2">  1       -2 0.13143498E-01 0.51338226E+03</pdfrwt>
<totfact> 0.19108034E+03</totfact>
</mgrwt>
</event>
<event>
 4    1  0.6024609E-005  0.4361617E+03  0.7818608E-02  0.1031931E+00
          2   -1    0    0  501    0  0.00000000000E+00  0.00000000000E+00  0.10622385848E+04  0.10622385848E+04  0.25500000000E-02 0.  1.
         -2   -1    0    0    0  501 -0.00000000000E+00 -0.00000000000E+00 -0.44772671612E+02  0.44772671685E+02  0.25500000000E-02 0. -1.
    5000001    1    1    2    0    0 -0.75700876968E+02  0.50354857740E+02  0.34923708874E+03  0.40691126628E+03  0.18800000000E+03 0.  0.
   -5000001    1    1    2    0    0  0.75700876968E+02 -0.50354857740E+02  0.66822882447E+03  0.70009999023E+03  0.18800000000E+03 0.  0.
<mgrwt>
<rscale>  0 0.43616171E+03</rscale>
<asrwt>0</asrwt>
<pdfrwt beam="1">  1        2 0.15174836E+00 0.43616171E+03</pdfrwt>
<pdfrwt beam="2">  1       -2 0.63960963E-02 0.43616171E+03</pdfrwt>
<totfact> 0.36075918E+03</totfact>
</mgrwt>
</event>
<event>
 4    1  0.6024609E-005  0.8774442E+03  0.7818608E-02  0.9454225E-01
          2   -1    0    0  501    0  0.00000000000E+00  0.00000000000E+00  0.39835947678E+03  0.39835947679E+03  0.25500000000E-02 0.  1.
         -2   -1    0    0    0  501 -0.00000000000E+00 -0.00000000000E+00 -0.48317439251E+03  0.48317439252E+03  0.25500000000E-02 0. -1.
    5000001    1    1    2    0    0  0.40201279235E+02  0.37955715905E+03  0.65111523801E+02  0.43042222337E+03  0.18800000000E+03 0.  0.
   -5000001    1    1    2    0    0 -0.40201279235E+02 -0.37955715905E+03 -0.14992643953E+03  0.45111164594E+03  0.18800000000E+03 0.  0.
<mgrwt>
<rscale>  0 0.87744424E+03</rscale>
<asrwt>0</asrwt>
<pdfrwt beam="1">  1        2 0.56908497E-01 0.87744424E+03</pdfrwt>
<pdfrwt beam="2">  1       -2 0.69024913E-01 0.87744424E+03</pdfrwt>
<totfact> 0.16731780E+02</totfact>
</mgrwt>
</event>
<event>
 4    1  0.6024609E-005  0.6806879E+03  0.7818608E-02  0.9750841E-01
          2   -1    0    0  501    0  0.00000000000E+00  0.00000000000E+00  0.50817838322E+03  0.50817838323E+03  0.25500000000E-02 0.  1.
         -2   -1    0    0    0  501 -0.00000000000E+00 -0.00000000000E+00 -0.22793965368E+03  0.22793965370E+03  0.25500000000E-02 0. -1.
    5000001    1    1    2    0    0  0.23398882341E+03  0.15984440722E+03  0.12525209841E+03  0.36239907858E+03  0.18800000000E+03 0.  0.
   -5000001    1    1    2    0    0 -0.23398882341E+03 -0.15984440722E+03  0.15498663113E+03  0.37371895834E+03  0.18800000000E+03 0.  0.
<mgrwt>
<rscale>  0 0.68068790E+03</rscale>
<asrwt>0</asrwt>
<pdfrwt beam="1">  1        2 0.72596911E-01 0.68068790E+03</pdfrwt>
<pdfrwt beam="2">  1       -2 0.32562808E-01 0.68068790E+03</pdfrwt>
<totfact> 0.58206105E+02</totfact>
</mgrwt>
</event>
<event>
 4    1  0.6024609E-005  0.5292179E+03  0.7818608E-02  0.1006422E+00
         -2   -1    0    0    0  501 -0.00000000000E+00  0.00000000000E+00  0.22520280670E+03  0.22520280671E+03  0.25500000000E-02 0. -1.
          2   -1    0    0  501    0  0.00000000000E+00 -0.00000000000E+00 -0.31091035046E+03  0.31091035047E+03  0.25500000000E-02 0.  1.
    5000001    1    1    2    0    0 -0.88951618351E+02  0.13928844359E+03  0.44055769088E+02  0.25416249077E+03  0.18800000000E+03 0.  0.
   -5000001    1    1    2    0    0  0.88951618351E+02 -0.13928844359E+03 -0.12976331285E+03  0.28195066641E+03  0.18800000000E+03 0.  0.
<mgrwt>
<rscale>  0 0.52921785E+03</rscale>
<asrwt>0</asrwt>
<pdfrwt beam="1">  1        2 0.44415764E-01 0.52921785E+03</pdfrwt>
<pdfrwt beam="2">  1       -2 0.32171830E-01 0.52921785E+03</pdfrwt>
<totfact> 0.10317521E+03</totfact>
</mgrwt>
</event>
<event>
 4    1  0.6024609E-005  0.1138537E+04  0.7818608E-02  0.9168424E-01
         -2   -1    0    0    0  501 -0.00000000000E+00  0.00000000000E+00  0.13340754530E+03  0.13340754532E+03  0.25500000000E-02 0. -1.
          2   -1    0    0  501    0  0.00000000000E+00 -0.00000000000E+00 -0.24291480373E+04  0.24291480373E+04  0.25500000000E-02 0.  1.
    5000001    1    1    2    0    0 -0.25094054582E+03  0.46530399571E+03 -0.93147421670E+03  0.10874130689E+04  0.18800000000E+03 0.  0.
   -5000001    1    1    2    0    0  0.25094054582E+03 -0.46530399571E+03 -0.13642662753E+04  0.14751425137E+04  0.18800000000E+03 0.  0.
<mgrwt>
<rscale>  0 0.11385371E+04</rscale>
<asrwt>0</asrwt>
<pdfrwt beam="1">  1        2 0.34702112E+00 0.11385371E+04</pdfrwt>
<pdfrwt beam="2">  1       -2 0.19058222E-01 0.11385371E+04</pdfrwt>
<totfact> 0.11122740E+02</totfact>
</mgrwt>
</event>
<event>
 4    1  0.6024609E-005  0.5830468E+03  0.7818608E-02  0.9941216E-01
          2   -1    0    0  501    0  0.00000000000E+00  0.00000000000E+00  0.24640301093E+04  0.24640301093E+04  0.25500000000E-02 0.  1.
         -2   -1    0    0    0  501 -0.00000000000E+00 -0.00000000000E+00 -0.34490609001E+02  0.34490609096E+02  0.25500000000E-02 0. -1.
    5000001    1    1    2    0    0  0.17633140813E+03 -0.10152529702E+03  0.16038052042E+04  0.16275550020E+04  0.18800000000E+03 0.  0.
   -5000001    1    1    2    0    0 -0.17633140813E+03  0.10152529702E+03  0.82573429605E+03  0.87096571638E+03  0.18800000000E+03 0.  0.
<mgrwt>
<rscale>  0 0.58304682E+03</rscale>
<asrwt>0</asrwt>
<pdfrwt beam="1">  1        2 0.35200444E+00 0.58304682E+03</pdfrwt>
<pdfrwt beam="2">  1       -2 0.49272279E-02 0.58304682E+03</pdfrwt>
<totfact> 0.10148853E+03</totfact>
</mgrwt>
</event>
<event>
 4    1  0.6024609E-005  0.4550172E+03  0.7818608E-02  0.1026236E+00
          2   -1    0    0  501    0  0.00000000000E+00  0.00000000000E+00  0.10555682238E+04  0.10555682238E+04  0.25500000000E-02 0.  1.
         -2   -1    0    0    0  501 -0.00000000000E+00 -0.00000000000E+00 -0.49035355692E+02  0.49035355758E+02  0.25500000000E-02 0. -1.
    5000001    1    1    2    0    0  0.21527134561E+02 -0.95721425458E+02  0.70330717784E+03  0.73458219092E+03  0.18800000000E+03 0.  0.
   -5000001    1    1    2    0    0 -0.21527134561E+02  0.95721425458E+02  0.30322569027E+03  0.37002138864E+03  0.18800000000E+03 0.  0.
<mgrwt>
<rscale>  0 0.45501720E+03</rscale>
<asrwt>0</asrwt>
<pdfrwt beam="1">  1        2 0.15079545E+00 0.45501720E+03</pdfrwt>
<pdfrwt beam="2">  1       -2 0.70050514E-02 0.45501720E+03</pdfrwt>
<totfact> 0.31580108E+03</totfact>
</mgrwt>
</event>
<event>
 4    1  0.6024609E-005  0.6057810E+03  0.7818608E-02  0.9893484E-01
          2   -1    0    0  501    0  0.00000000000E+00  0.00000000000E+00  0.72592308033E+03  0.72592308033E+03  0.25500000000E-02 0.  1.
         -2   -1    0    0    0  501 -0.00000000000E+00 -0.00000000000E+00 -0.12638066327E+03  0.12638066330E+03  0.25500000000E-02 0. -1.
    5000001    1    1    2    0    0 -0.20848881031E+03  0.11188363197E+03  0.32836760099E+03  0.44626764672E+03  0.18800000000E+03 0.  0.
   -5000001    1    1    2    0    0  0.20848881031E+03 -0.11188363197E+03  0.27117481607E+03  0.40603609691E+03  0.18800000000E+03 0.  0.
<mgrwt>
<rscale>  0 0.60578095E+03</rscale>
<asrwt>0</asrwt>
<pdfrwt beam="1">  1        2 0.10370330E+00 0.60578095E+03</pdfrwt>
<pdfrwt beam="2">  1       -2 0.18054380E-01 0.60578095E+03</pdfrwt>
<totfact> 0.10995422E+03</totfact>
</mgrwt>
</event>
<event>
 4    1  0.6024609E-005  0.5543905E+03  0.7818608E-02  0.1000483E+00
         -2   -1    0    0    0  501 -0.00000000000E+00  0.00000000000E+00  0.94942395411E+02  0.94942395445E+02  0.25500000000E-02 0. -1.
          2   -1    0    0  501    0  0.00000000000E+00 -0.00000000000E+00 -0.80930346886E+03  0.80930346886E+03  0.25500000000E-02 0.  1.
    5000001    1    1    2    0    0 -0.16070782022E+03  0.10723317098E+03 -0.46247261633E+03  0.53530447158E+03  0.18800000000E+03 0.  0.
   -5000001    1    1    2    0    0  0.16070782022E+03 -0.10723317098E+03 -0.25188845712E+03  0.36894139273E+03  0.18800000000E+03 0.  0.
<mgrwt>
<rscale>  0 0.55439051E+03</rscale>
<asrwt>0</asrwt>
<pdfrwt beam="1">  1        2 0.11561478E+00 0.55439051E+03</pdfrwt>
<pdfrwt beam="2">  1       -2 0.13563200E-01 0.55439051E+03</pdfrwt>
<totfact> 0.15561732E+03</totfact>
</mgrwt>
</event>
<event>
 4    1  0.6024609E-005  0.1929642E+04  0.7818608E-02  0.8640241E-01
          2   -1    0    0  501    0  0.00000000000E+00  0.00000000000E+00  0.24276691519E+04  0.24276691520E+04  0.25500000000E-02 0.  1.
         -2   -1    0    0    0  501 -0.00000000000E+00 -0.00000000000E+00 -0.38344566446E+03  0.38344566447E+03  0.25500000000E-02 0. -1.
    5000001    1    1    2    0    0  0.72456864681E+03  0.60804139583E+03  0.10638575322E+04  0.14359146603E+04  0.18800000000E+03 0.  0.
   -5000001    1    1    2    0    0 -0.72456864681E+03 -0.60804139583E+03  0.98036595533E+03  0.13752001561E+04  0.18800000000E+03 0.  0.
<mgrwt>
<rscale>  0 0.19296416E+04</rscale>
<asrwt>0</asrwt>
<pdfrwt beam="1">  1        2 0.34680988E+00 0.19296416E+04</pdfrwt>
<pdfrwt beam="2">  1       -2 0.54777952E-01 0.19296416E+04</pdfrwt>
<totfact> 0.14145917E+01</totfact>
</mgrwt>
</event>
<event>
 4    1  0.6024609E-005  0.6255654E+03  0.7818608E-02  0.9853741E-01
         -2   -1    0    0    0  501 -0.00000000000E+00  0.00000000000E+00  0.45600304129E+03  0.45600304130E+03  0.25500000000E-02 0. -1.
          2   -1    0    0  501    0  0.00000000000E+00 -0.00000000000E+00 -0.21454464602E+03  0.21454464604E+03  0.25500000000E-02 0.  1.
    5000001    1    1    2    0    0 -0.10135170005E+03 -0.22833097292E+03  0.13042452002E+03  0.33876504501E+03  0.18800000000E+03 0.  0.
   -5000001    1    1    2    0    0  0.10135170005E+03  0.22833097292E+03  0.11103387525E+03  0.33178264233E+03  0.18800000000E+03 0.  0.
<mgrwt>
<rscale>  0 0.62556538E+03</rscale>
<asrwt>0</asrwt>
<pdfrwt beam="1">  1        2 0.30649235E-01 0.62556538E+03</pdfrwt>
<pdfrwt beam="2">  1       -2 0.65143291E-01 0.62556538E+03</pdfrwt>
<totfact> 0.38094740E+02</totfact>
</mgrwt>
</event>
<event>
 4    1  0.6024609E-005  0.4851231E+03  0.7818608E-02  0.1017737E+00
         -2   -1    0    0    0  501 -0.00000000000E+00  0.00000000000E+00  0.72235475953E+02  0.72235475998E+02  0.25500000000E-02 0. -1.
          2   -1    0    0  501    0  0.00000000000E+00 -0.00000000000E+00 -0.81450418771E+03  0.81450418771E+03  0.25500000000E-02 0.  1.
    5000001    1    1    2    0    0 -0.64244177982E+02  0.10986639946E+03 -0.21502397662E+03  0.31269354112E+03  0.18800000000E+03 0.  0.
   -5000001    1    1    2    0    0  0.64244177982E+02 -0.10986639946E+03 -0.52724473514E+03  0.57404612259E+03  0.18800000000E+03 0.  0.
<mgrwt>
<rscale>  0 0.48512307E+03</rscale>
<asrwt>0</asrwt>
<pdfrwt beam="1">  1        2 0.11635774E+00 0.48512307E+03</pdfrwt>
<pdfrwt beam="2">  1       -2 0.10319354E-01 0.48512307E+03</pdfrwt>
<totfact> 0.24162369E+03</totfact>
</mgrwt>
</event>
<event>
 4    1  0.6024609E-005  0.5225259E+03  0.7818608E-02  0.1008061E+00
          2   -1    0    0  501    0  0.00000000000E+00  0.00000000000E+00  0.35745212548E+04  0.35745212548E+04  0.25500000000E-02 0.  1.
         -2   -1    0    0    0  501 -0.00000000000E+00 -0.00000000000E+00 -0.19095795364E+02  0.19095795534E+02  0.25500000000E-02 0. -1.
    5000001    1    1    2    0    0  0.19717081034E+02  0.14446096620E+03  0.25202355251E+04  0.25314400715E+04  0.18800000000E+03 0.  0.
   -5000001    1    1    2    0    0 -0.19717081034E+02 -0.14446096620E+03  0.10351899344E+04  0.10621769788E+04  0.18800000000E+03 0.  0.
<mgrwt>
<rscale>  0 0.52252589E+03</rscale>
<asrwt>0</asrwt>
<pdfrwt beam="1">  1        2 0.51064649E+00 0.52252589E+03</pdfrwt>
<pdfrwt beam="2">  1       -2 0.27279676E-02 0.52252589E+03</pdfrwt>
<totfact> 0.62069674E+02</totfact>
</mgrwt>
</event>
<event>
 4    1  0.6024609E-005  0.5019011E+03  0.7818608E-02  0.1013284E+00
          2   -1    0    0  501    0  0.00000000000E+00  0.00000000000E+00  0.16335697279E+04  0.16335697279E+04  0.25500000000E-02 0.  1.
         -2   -1    0    0    0  501 -0.00000000000E+00 -0.00000000000E+00 -0.38551258718E+02  0.38551258802E+02  0.25500000000E-02 0. -1.
    5000001    1    1    2    0    0 -0.14043823156E+03 -0.39228759975E+02  0.10634176870E+04  0.10897077450E+04  0.18800000000E+03 0.  0.
   -5000001    1    1    2    0    0  0.14043823156E+03  0.39228759975E+02  0.53160078219E+03  0.58241324171E+03  0.18800000000E+03 0.  0.
<mgrwt>
<rscale>  0 0.50190106E+03</rscale>
<asrwt>0</asrwt>
<pdfrwt beam="1">  1        2 0.23336711E+00 0.50190106E+03</pdfrwt>
<pdfrwt beam="2">  1       -2 0.55073226E-02 0.50190106E+03</pdfrwt>
<totfact> 0.22457881E+03</totfact>
</mgrwt>
</event>
<event>
 4    1  0.6024609E-005  0.4988983E+03  0.7818608E-02  0.1014067E+00
          2   -1    0    0  501    0  0.00000000000E+00  0.00000000000E+00  0.40397523131E+04  0.40397523131E+04  0.25500000000E-02 0.  1.
         -2   -1    0    0    0  501 -0.00000000000E+00 -0.00000000000E+00 -0.15403141315E+02  0.15403141526E+02  0.25500000000E-02 0. -1.
    5000001    1    1    2    0    0  0.12270972791E+03 -0.94857547825E+02  0.15801350321E+04  0.15988202999E+04  0.18800000000E+03 0.  0.
   -5000001    1    1    2    0    0 -0.12270972791E+03  0.94857547825E+02  0.24442141397E+04  0.24563351548E+04  0.18800000000E+03 0.  0.
<mgrwt>
<rscale>  0 0.49889829E+03</rscale>
<asrwt>0</asrwt>
<pdfrwt beam="1">  1        2 0.57710748E+00 0.49889829E+03</pdfrwt>
<pdfrwt beam="2">  1       -2 0.22004488E-02 0.49889829E+03</pdfrwt>
<totfact> 0.43650327E+02</totfact>
</mgrwt>
</event>
<event>
 4    1  0.6024609E-005  0.7138790E+03  0.7818608E-02  0.9693787E-01
          2   -1    0    0  501    0  0.00000000000E+00  0.00000000000E+00  0.65342921549E+03  0.65342921550E+03  0.25500000000E-02 0.  1.
         -2   -1    0    0    0  501 -0.00000000000E+00 -0.00000000000E+00 -0.19498029023E+03  0.19498029025E+03  0.25500000000E-02 0. -1.
    5000001    1    1    2    0    0  0.29590744268E+02 -0.29945196523E+03  0.18297059995E+03  0.39921088671E+03  0.18800000000E+03 0.  0.
   -5000001    1    1    2    0    0 -0.29590744268E+02  0.29945196523E+03  0.27547832531E+03  0.44919861903E+03  0.18800000000E+03 0.  0.
<mgrwt>
<rscale>  0 0.71387903E+03</rscale>
<asrwt>0</asrwt>
<pdfrwt beam="1">  1        2 0.93347029E-01 0.71387903E+03</pdfrwt>
<pdfrwt beam="2">  1       -2 0.27854328E-01 0.71387903E+03</pdfrwt>
<totfact> 0.57837669E+02</totfact>
</mgrwt>
</event>
<event>
 4    1  0.6024609E-005  0.9159665E+03  0.7818608E-02  0.9405840E-01
          2   -1    0    0  501    0  0.00000000000E+00  0.00000000000E+00  0.14992568997E+04  0.14992568997E+04  0.25500000000E-02 0.  1.
         -2   -1    0    0    0  501 -0.00000000000E+00 -0.00000000000E+00 -0.13990175680E+03  0.13990175682E+03  0.25500000000E-02 0. -1.
    5000001    1    1    2    0    0 -0.40386549252E+03  0.19296534976E+02  0.86672500174E+03  0.97469786137E+03  0.18800000000E+03 0.  0.
   -5000001    1    1    2    0    0  0.40386549252E+03 -0.19296534976E+02  0.49263014113E+03  0.66446079512E+03  0.18800000000E+03 0.  0.
<mgrwt>
<rscale>  0 0.91596654E+03</rscale>
<asrwt>0</asrwt>
<pdfrwt beam="1">  1        2 0.21417955E+00 0.91596654E+03</pdfrwt>
<pdfrwt beam="2">  1       -2 0.19985966E-01 0.91596654E+03</pdfrwt>
<totfact> 0.31307484E+02</totfact>
</mgrwt>
</event>
<event>
 4    1  0.6024609E-005  0.4131419E+03  0.7818608E-02  0.1039322E+00
         -2   -1    0    0    0  501 -0.00000000000E+00  0.00000000000E+00  0.59081246102E+02  0.59081246157E+02  0.25500000000E-02 0. -1.
          2   -1    0    0  501    0  0.00000000000E+00 -0.00000000000E+00 -0.72225221556E+03  0.72225221557E+03  0.25500000000E-02 0.  1.
    5000001    1    1    2    0    0 -0.63079708257E+02 -0.56035829074E+02 -0.30427765029E+03  0.36748871030E+03  0.18800000000E+03 0.  0.
   -5000001    1    1    2    0    0  0.63079708257E+02  0.56035829074E+02 -0.35889331917E+03  0.41384475142E+03  0.18800000000E+03 0.  0.
<mgrwt>
<rscale>  0 0.41314192E+03</rscale>
<asrwt>0</asrwt>
<pdfrwt beam="1">  1        2 0.10317888E+00 0.41314192E+03</pdfrwt>
<pdfrwt beam="2">  1       -2 0.84401784E-02 0.41314192E+03</pdfrwt>
<totfact> 0.38666830E+03</totfact>
</mgrwt>
</event>
<event>
 4    1  0.6024609E-005  0.1183778E+04  0.7818608E-02  0.9127176E-01
         -2   -1    0    0    0  501 -0.00000000000E+00  0.00000000000E+00  0.24133315940E+03  0.24133315941E+03  0.25500000000E-02 0. -1.
          2   -1    0    0  501    0  0.00000000000E+00 -0.00000000000E+00 -0.14516544620E+04  0.14516544620E+04  0.25500000000E-02 0.  1.
    5000001    1    1    2    0    0 -0.39971527784E+03 -0.17720532741E+03 -0.11083936489E+04  0.12062564040E+04  0.18800000000E+03 0.  0.
   -5000001    1    1    2    0    0  0.39971527784E+03  0.17720532741E+03 -0.10192765376E+03  0.48673121741E+03  0.18800000000E+03 0.  0.
<mgrwt>
<rscale>  0 0.11837776E+04</rscale>
<asrwt>0</asrwt>
<pdfrwt beam="1">  1        2 0.20737920E+00 0.11837776E+04</pdfrwt>
<pdfrwt beam="2">  1       -2 0.34476167E-01 0.11837776E+04</pdfrwt>
<totfact> 0.12072089E+02</totfact>
</mgrwt>
</event>
<event>
 4    1  0.6024609E-005  0.5092321E+03  0.7818608E-02  0.1011397E+00
         -2   -1    0    0    0  501 -0.00000000000E+00  0.00000000000E+00  0.89645864551E+02  0.89645864587E+02  0.25500000000E-02 0. -1.
          2   -1    0    0  501    0  0.00000000000E+00 -0.00000000000E+00 -0.72317146296E+03  0.72317146297E+03  0.25500000000E-02 0.  1.
    5000001    1    1    2    0    0 -0.48827559382E+02  0.15294589753E+03 -0.21955723234E+03  0.33064475861E+03  0.18800000000E+03 0.  0.
   -5000001    1    1    2    0    0  0.48827559382E+02 -0.15294589753E+03 -0.41396836608E+03  0.48217256894E+03  0.18800000000E+03 0.  0.
<mgrwt>
<rscale>  0 0.50923209E+03</rscale>
<asrwt>0</asrwt>
<pdfrwt beam="1">  1        2 0.10331021E+00 0.50923209E+03</pdfrwt>
<pdfrwt beam="2">  1       -2 0.12806553E-01 0.50923209E+03</pdfrwt>
<totfact> 0.19709095E+03</totfact>
</mgrwt>
</event>
<event>
 4    1  0.6024609E-005  0.5612879E+03  0.7818608E-02  0.9989145E-01
         -2   -1    0    0    0  501 -0.00000000000E+00  0.00000000000E+00  0.11259805025E+03  0.11259805028E+03  0.25500000000E-02 0. -1.
          2   -1    0    0  501    0  0.00000000000E+00 -0.00000000000E+00 -0.69948834555E+03  0.69948834556E+03  0.25500000000E-02 0.  1.
    5000001    1    1    2    0    0  0.70695220234E+02 -0.71663502248E+02 -0.29489233075E+02  0.21528373507E+03  0.18800000000E+03 0.  0.
   -5000001    1    1    2    0    0 -0.70695220234E+02  0.71663502248E+02 -0.55740106223E+03  0.59680266076E+03  0.18800000000E+03 0.  0.
<mgrwt>
<rscale>  0 0.56128789E+03</rscale>
<asrwt>0</asrwt>
<pdfrwt beam="1">  1        2 0.99926904E-01 0.56128789E+03</pdfrwt>
<pdfrwt beam="2">  1       -2 0.16085436E-01 0.56128789E+03</pdfrwt>
<totfact> 0.14021881E+03</totfact>
</mgrwt>
</event>
<event>
 4    1  0.6024609E-005  0.6523380E+03  0.7818608E-02  0.9802402E-01
          2   -1    0    0  501    0  0.00000000000E+00  0.00000000000E+00  0.92533045994E+03  0.92533045995E+03  0.25500000000E-02 0.  1.
         -2   -1    0    0    0  501 -0.00000000000E+00 -0.00000000000E+00 -0.11497105270E+03  0.11497105272E+03  0.25500000000E-02 0. -1.
    5000001    1    1    2    0    0  0.24235596419E+03  0.94065654250E+02  0.31140948959E+03  0.44710695688E+03  0.18800000000E+03 0.  0.
   -5000001    1    1    2    0    0 -0.24235596419E+03 -0.94065654250E+02  0.49894991766E+03  0.59319455579E+03  0.18800000000E+03 0.  0.
<mgrwt>
<rscale>  0 0.65233800E+03</rscale>
<asrwt>0</asrwt>
<pdfrwt beam="1">  1        2 0.13219006E+00 0.65233800E+03</pdfrwt>
<pdfrwt beam="2">  1       -2 0.16424436E-01 0.65233800E+03</pdfrwt>
<totfact> 0.94356891E+02</totfact>
</mgrwt>
</event>
<event>
 4    1  0.6024609E-005  0.7743673E+03  0.7818608E-02  0.9597879E-01
         -2   -1    0    0    0  501 -0.00000000000E+00  0.00000000000E+00  0.91849907538E+02  0.91849907574E+02  0.25500000000E-02 0. -1.
          2   -1    0    0  501    0  0.00000000000E+00 -0.00000000000E+00 -0.16321320780E+04  0.16321320780E+04  0.25500000000E-02 0.  1.
    5000001    1    1    2    0    0 -0.13294359010E+03  0.28541318558E+03 -0.49357189382E+03  0.61489177830E+03  0.18800000000E+03 0.  0.
   -5000001    1    1    2    0    0  0.13294359010E+03 -0.28541318558E+03 -0.10467102766E+04  0.11090902073E+04  0.18800000000E+03 0.  0.
<mgrwt>
<rscale>  0 0.77436730E+03</rscale>
<asrwt>0</asrwt>
<pdfrwt beam="1">  1        2 0.23316171E+00 0.77436730E+03</pdfrwt>
<pdfrwt beam="2">  1       -2 0.13121416E-01 0.77436730E+03</pdfrwt>
<totfact> 0.55197903E+02</totfact>
</mgrwt>
</event>
<event>
 4    1  0.6024609E-005  0.5729706E+03  0.7818608E-02  0.9963127E-01
         -2   -1    0    0    0  501 -0.00000000000E+00  0.00000000000E+00  0.35946252258E+03  0.35946252258E+03  0.25500000000E-02 0.  1.
          2   -1    0    0  501    0  0.00000000000E+00 -0.00000000000E+00 -0.22832370781E+03  0.22832370783E+03  0.25500000000E-02 0. -1.
    5000001    1    1    2    0    0  0.41254728491E+02 -0.21203958734E+03  0.73971222840E+02  0.29576761322E+03  0.18800000000E+03 0.  0.
   -5000001    1    1    2    0    0 -0.41254728491E+02  0.21203958734E+03  0.57167591922E+02  0.29201861719E+03  0.18800000000E+03 0.  0.
<mgrwt>
<rscale>  0 0.57297056E+03</rscale>
<asrwt>0</asrwt>
<pdfrwt beam="1">  1        2 0.32617673E-01 0.57297056E+03</pdfrwt>
<pdfrwt beam="2">  1       -2 0.51351789E-01 0.57297056E+03</pdfrwt>
<totfact> 0.58429015E+02</totfact>
</mgrwt>
</event>
<event>
 4    1  0.6024609E-005  0.6773772E+03  0.7818608E-02  0.9756722E-01
          2   -1    0    0  501    0  0.00000000000E+00  0.00000000000E+00  0.47785421752E+04  0.47785421752E+04  0.25500000000E-02 0.  1.
         -2   -1    0    0    0  501 -0.00000000000E+00 -0.00000000000E+00 -0.24005224054E+02  0.24005224189E+02  0.25500000000E-02 0. -1.
    5000001    1    1    2    0    0 -0.13970666599E+03  0.73582752458E+02  0.40314173982E+04  0.40388863084E+04  0.18800000000E+03 0.  0.
   -5000001    1    1    2    0    0  0.13970666599E+03 -0.73582752458E+02  0.72311955298E+03  0.76366109098E+03  0.18800000000E+03 0.  0.
<mgrwt>
<rscale>  0 0.67737722E+03</rscale>
<asrwt>0</asrwt>
<pdfrwt beam="1">  1        2 0.68264979E+00 0.67737722E+03</pdfrwt>
<pdfrwt beam="2">  1       -2 0.34293132E-02 0.67737722E+03</pdfrwt>
<totfact> 0.59786579E+01</totfact>
</mgrwt>
</event>
<event>
 4    1  0.6024609E-005  0.5569073E+03  0.7818608E-02  0.9999077E-01
         -2   -1    0    0    0  501 -0.00000000000E+00  0.00000000000E+00  0.77655628617E+02  0.77655628659E+02  0.25500000000E-02 0. -1.
          2   -1    0    0  501    0  0.00000000000E+00 -0.00000000000E+00 -0.99846517545E+03  0.99846517545E+03  0.25500000000E-02 0.  1.
    5000001    1    1    2    0    0  0.20455237054E+03 -0.17303392750E+01 -0.49643997650E+03  0.56889482036E+03  0.18800000000E+03 0.  0.
   -5000001    1    1    2    0    0 -0.20455237054E+03  0.17303392750E+01 -0.42436957033E+03  0.50722598375E+03  0.18800000000E+03 0.  0.
<mgrwt>
<rscale>  0 0.55690732E+03</rscale>
<asrwt>0</asrwt>
<pdfrwt beam="1">  1        2 0.14263787E+00 0.55690732E+03</pdfrwt>
<pdfrwt beam="2">  1       -2 0.11093662E-01 0.55690732E+03</pdfrwt>
<totfact> 0.16368794E+03</totfact>
</mgrwt>
</event>
<event>
 4    1  0.6024609E-005  0.7413074E+03  0.7818608E-02  0.9649087E-01
          2   -1    0    0  501    0  0.00000000000E+00  0.00000000000E+00  0.10410843131E+04  0.10410843131E+04  0.25500000000E-02 0.  1.
         -2   -1    0    0    0  501 -0.00000000000E+00 -0.00000000000E+00 -0.13196257321E+03  0.13196257324E+03  0.25500000000E-02 0. -1.
    5000001    1    1    2    0    0  0.74520042275E+02 -0.29819278863E+03  0.59222071704E+03  0.69321104548E+03  0.18800000000E+03 0.  0.
   -5000001    1    1    2    0    0 -0.74520042275E+02  0.29819278863E+03  0.31690102286E+03  0.47983584087E+03  0.18800000000E+03 0.  0.
<mgrwt>
<rscale>  0 0.74130740E+03</rscale>
<asrwt>0</asrwt>
<pdfrwt beam="1">  1        2 0.14872633E+00 0.74130740E+03</pdfrwt>
<pdfrwt beam="2">  1       -2 0.18851796E-01 0.74130740E+03</pdfrwt>
<totfact> 0.62963557E+02</totfact>
</mgrwt>
</event>
<event>
 4    1  0.6024609E-005  0.7865346E+03  0.7818608E-02  0.9579715E-01
          2   -1    0    0  501    0  0.00000000000E+00  0.00000000000E+00  0.46255228954E+03  0.46255228955E+03  0.25500000000E-02 0.  1.
         -2   -1    0    0    0  501 -0.00000000000E+00 -0.00000000000E+00 -0.33436042486E+03  0.33436042487E+03  0.25500000000E-02 0. -1.
    5000001    1    1    2    0    0 -0.15782187605E+03 -0.30592764059E+03  0.35158371294E+02  0.39380144351E+03  0.18800000000E+03 0.  0.
   -5000001    1    1    2    0    0  0.15782187605E+03  0.30592764059E+03  0.93033493388E+02  0.40311127090E+03  0.18800000000E+03 0.  0.
<mgrwt>
<rscale>  0 0.78653463E+03</rscale>
<asrwt>0</asrwt>
<pdfrwt beam="1">  1        2 0.66078898E-01 0.78653463E+03</pdfrwt>
<pdfrwt beam="2">  1       -2 0.47765775E-01 0.78653463E+03</pdfrwt>
<totfact> 0.30674759E+02</totfact>
</mgrwt>
</event>
<event>
 4    1  0.6024609E-005  0.9477803E+03  0.7818608E-02  0.9367749E-01
         -2   -1    0    0    0  501 -0.00000000000E+00  0.00000000000E+00  0.16081594044E+03  0.16081594046E+03  0.25500000000E-02 0. -1.
          2   -1    0    0  501    0  0.00000000000E+00 -0.00000000000E+00 -0.13964527345E+04  0.13964527345E+04  0.25500000000E-02 0.  1.
    5000001    1    1    2    0    0  0.20909204485E+03 -0.37794861936E+03 -0.53302554988E+03  0.71135425698E+03  0.18800000000E+03 0.  0.
   -5000001    1    1    2    0    0 -0.20909204485E+03  0.37794861936E+03 -0.70261124414E+03  0.84591441794E+03  0.18800000000E+03 0.  0.
<mgrwt>
<rscale>  0 0.94778027E+03</rscale>
<asrwt>0</asrwt>
<pdfrwt beam="1">  1        2 0.19949324E+00 0.94778027E+03</pdfrwt>
<pdfrwt beam="2">  1       -2 0.22973707E-01 0.94778027E+03</pdfrwt>
<totfact> 0.27710428E+02</totfact>
</mgrwt>
</event>
<event>
 4    1  0.6024609E-005  0.7077544E+03  0.7818608E-02  0.9704062E-01
         -2   -1    0    0    0  501 -0.00000000000E+00  0.00000000000E+00  0.73030701326E+02  0.73030701370E+02  0.25500000000E-02 0.  1.
          2   -1    0    0  501    0  0.00000000000E+00 -0.00000000000E+00 -0.17147456967E+04  0.17147456967E+04  0.25500000000E-02 0. -1.
    5000001    1    1    2    0    0  0.28734107318E+03  0.35168546372E+02 -0.10178739221E+04  0.10748083738E+04  0.18800000000E+03 0.  0.
   -5000001    1    1    2    0    0 -0.28734107318E+03 -0.35168546372E+02 -0.62384107321E+03  0.71296802426E+03  0.18800000000E+03 0.  0.
<mgrwt>
<rscale>  0 0.70775442E+03</rscale>
<asrwt>0</asrwt>
<pdfrwt beam="1">  1        2 0.24496365E+00 0.70775442E+03</pdfrwt>
<pdfrwt beam="2">  1       -2 0.10432958E-01 0.70775442E+03</pdfrwt>
<totfact> 0.73326913E+02</totfact>
</mgrwt>
</event>
<event>
 4    1  0.6024609E-005  0.5420460E+03  0.7818608E-02  0.1003352E+00
         -2   -1    0    0    0  501 -0.00000000000E+00  0.00000000000E+00  0.46312329263E+02  0.46312329333E+02  0.25500000000E-02 0. -1.
          2   -1    0    0  501    0  0.00000000000E+00 -0.00000000000E+00 -0.15860458970E+04  0.15860458970E+04  0.25500000000E-02 0.  1.
    5000001    1    1    2    0    0 -0.11897803671E+03  0.13612520902E+03 -0.54808571063E+03  0.60698253019E+03  0.18800000000E+03 0.  0.
   -5000001    1    1    2    0    0  0.11897803671E+03 -0.13612520902E+03 -0.99164785708E+03  0.10253756961E+04  0.18800000000E+03 0.  0.
<mgrwt>
<rscale>  0 0.54204605E+03</rscale>
<asrwt>0</asrwt>
<pdfrwt beam="1">  1        2 0.22657795E+00 0.54204605E+03</pdfrwt>
<pdfrwt beam="2">  1       -2 0.66160480E-02 0.54204605E+03</pdfrwt>
<totfact> 0.17813231E+03</totfact>
</mgrwt>
</event>
<event>
 4    1  0.6024609E-005  0.1005753E+04  0.7818608E-02  0.9302258E-01
          2   -1    0    0  501    0  0.00000000000E+00  0.00000000000E+00  0.34025625392E+04  0.34025625392E+04  0.25500000000E-02 0.  1.
         -2   -1    0    0    0  501 -0.00000000000E+00 -0.00000000000E+00 -0.74321794375E+02  0.74321794419E+02  0.25500000000E-02 0. -1.
    5000001    1    1    2    0    0 -0.30150658422E+03 -0.30197098074E+03  0.10132505941E+04  0.11153983414E+04  0.18800000000E+03 0.  0.
   -5000001    1    1    2    0    0  0.30150658422E+03  0.30197098074E+03  0.23149901508E+04  0.23614859923E+04  0.18800000000E+03 0.  0.
<mgrwt>
<rscale>  0 0.10057526E+04</rscale>
<asrwt>0</asrwt>
<pdfrwt beam="1">  1        2 0.48608047E+00 0.10057526E+04</pdfrwt>
<pdfrwt beam="2">  1       -2 0.10617397E-01 0.10057526E+04</pdfrwt>
<totfact> 0.88385926E+01</totfact>
</mgrwt>
</event>
<event>
 4    1  0.6024609E-005  0.6581110E+03  0.7818608E-02  0.9791677E-01
         -2   -1    0    0    0  501 -0.00000000000E+00  0.00000000000E+00  0.10650102691E+03  0.10650102694E+03  0.25500000000E-02 0. -1.
          2   -1    0    0  501    0  0.00000000000E+00 -0.00000000000E+00 -0.10166806180E+04  0.10166806180E+04  0.25500000000E-02 0.  1.
    5000001    1    1    2    0    0 -0.15429069780E+03 -0.22113960361E+03 -0.42947908199E+03  0.54083696765E+03  0.18800000000E+03 0.  0.
   -5000001    1    1    2    0    0  0.15429069780E+03  0.22113960361E+03 -0.48070050909E+03  0.58234467727E+03  0.18800000000E+03 0.  0.
<mgrwt>
<rscale>  0 0.65811102E+03</rscale>
<asrwt>0</asrwt>
<pdfrwt beam="1">  1        2 0.14524008E+00 0.65811102E+03</pdfrwt>
<pdfrwt beam="2">  1       -2 0.15214433E-01 0.65811102E+03</pdfrwt>
<totfact> 0.94260793E+02</totfact>
</mgrwt>
</event>
<event>
 4    1  0.6024609E-005  0.4521499E+03  0.7818608E-02  0.1027083E+00
         -2   -1    0    0    0  501 -0.00000000000E+00  0.00000000000E+00  0.10214920471E+03  0.10214920474E+03  0.25500000000E-02 0. -1.
          2   -1    0    0  501    0  0.00000000000E+00 -0.00000000000E+00 -0.50034536897E+03  0.50034536897E+03  0.25500000000E-02 0.  1.
    5000001    1    1    2    0    0 -0.78154364230E+01 -0.11397793873E+03 -0.26851447209E+03  0.34712544315E+03  0.18800000000E+03 0.  0.
   -5000001    1    1    2    0    0  0.78154364230E+01  0.11397793873E+03 -0.12968169217E+03  0.25536913057E+03  0.18800000000E+03 0.  0.
<mgrwt>
<rscale>  0 0.45214989E+03</rscale>
<asrwt>0</asrwt>
<pdfrwt beam="1">  1        2 0.71477908E-01 0.45214989E+03</pdfrwt>
<pdfrwt beam="2">  1       -2 0.14592744E-01 0.45214989E+03</pdfrwt>
<totfact> 0.24415208E+03</totfact>
</mgrwt>
</event>
<event>
 4    1  0.6024609E-005  0.4870878E+03  0.7818608E-02  0.1017205E+00
          2   -1    0    0  501    0  0.00000000000E+00  0.00000000000E+00  0.41185937464E+03  0.41185937465E+03  0.25500000000E-02 0.  1.
         -2   -1    0    0    0  501 -0.00000000000E+00 -0.00000000000E+00 -0.14401426490E+03  0.14401426492E+03  0.25500000000E-02 0. -1.
    5000001    1    1    2    0    0  0.56238650682E+02 -0.14264398461E+03  0.15838653756E+03  0.28972467526E+03  0.18800000000E+03 0.  0.
   -5000001    1    1    2    0    0 -0.56238650682E+02  0.14264398461E+03  0.10945857218E+03  0.26614896431E+03  0.18800000000E+03 0.  0.
<mgrwt>
<rscale>  0 0.48708777E+03</rscale>
<asrwt>0</asrwt>
<pdfrwt beam="1">  1        2 0.58837053E-01 0.48708777E+03</pdfrwt>
<pdfrwt beam="2">  1       -2 0.20573467E-01 0.48708777E+03</pdfrwt>
<totfact> 0.16914840E+03</totfact>
</mgrwt>
</event>
<event>
 4    1  0.6024609E-005  0.7666521E+03  0.7818608E-02  0.9609582E-01
          2   -1    0    0  501    0  0.00000000000E+00  0.00000000000E+00  0.89630244921E+03  0.89630244921E+03  0.25500000000E-02 0.  1.
         -2   -1    0    0    0  501 -0.00000000000E+00 -0.00000000000E+00 -0.16393891340E+03  0.16393891342E+03  0.25500000000E-02 0. -1.
    5000001    1    1    2    0    0 -0.29849357627E+03 -0.14991139740E+03  0.35954829661E+03  0.52553859967E+03  0.18800000000E+03 0.  0.
   -5000001    1    1    2    0    0  0.29849357627E+03  0.14991139740E+03  0.37281523919E+03  0.53470276296E+03  0.18800000000E+03 0.  0.
<mgrwt>
<rscale>  0 0.76665207E+03</rscale>
<asrwt>0</asrwt>
<pdfrwt beam="1">  1        2 0.12804320E+00 0.76665207E+03</pdfrwt>
<pdfrwt beam="2">  1       -2 0.23419845E-01 0.76665207E+03</pdfrwt>
<totfact> 0.52883124E+02</totfact>
</mgrwt>
</event>
<event>
 4    1  0.6024609E-005  0.5505051E+03  0.7818608E-02  0.1001377E+00
          2   -1    0    0  501    0  0.00000000000E+00  0.00000000000E+00  0.12066359327E+04  0.12066359327E+04  0.25500000000E-02 0.  1.
         -2   -1    0    0    0  501 -0.00000000000E+00 -0.00000000000E+00 -0.62789422729E+02  0.62789422781E+02  0.25500000000E-02 0. -1.
    5000001    1    1    2    0    0 -0.72639494652E+02  0.12423694254E+03  0.24819966705E+03  0.34301368602E+03  0.18800000000E+03 0.  0.
   -5000001    1    1    2    0    0  0.72639494652E+02 -0.12423694254E+03  0.89564684291E+03  0.92641166945E+03  0.18800000000E+03 0.  0.
<mgrwt>
<rscale>  0 0.55050513E+03</rscale>
<asrwt>0</asrwt>
<pdfrwt beam="1">  1        2 0.17237654E+00 0.55050513E+03</pdfrwt>
<pdfrwt beam="2">  1       -2 0.89699185E-02 0.55050513E+03</pdfrwt>
<totfact> 0.17478939E+03</totfact>
</mgrwt>
</event>
<event>
 4    1  0.6024609E-005  0.5069983E+03  0.7818608E-02  0.1011968E+00
          2   -1    0    0  501    0  0.00000000000E+00  0.00000000000E+00  0.17479532019E+03  0.17479532021E+03  0.25500000000E-02 0.  1.
         -2   -1    0    0    0  501 -0.00000000000E+00 -0.00000000000E+00 -0.36764040902E+03  0.36764040903E+03  0.25500000000E-02 0. -1.
    5000001    1    1    2    0    0 -0.11133678156E+02  0.13739234754E+03 -0.20296837567E+03  0.30909671217E+03  0.18800000000E+03 0.  0.
   -5000001    1    1    2    0    0  0.11133678156E+02 -0.13739234754E+03  0.10123286845E+02  0.23333901707E+03  0.18800000000E+03 0.  0.
<mgrwt>
<rscale>  0 0.50699832E+03</rscale>
<asrwt>0</asrwt>
<pdfrwt beam="1">  1        2 0.24970760E-01 0.50699832E+03</pdfrwt>
<pdfrwt beam="2">  1       -2 0.52520058E-01 0.50699832E+03</pdfrwt>
<totfact> 0.75442191E+02</totfact>
</mgrwt>
</event>
<event>
 4    1  0.6024609E-005  0.7490453E+03  0.7818608E-02  0.9636849E-01
          2   -1    0    0  501    0  0.00000000000E+00  0.00000000000E+00  0.13977183078E+04  0.13977183078E+04  0.25500000000E-02 0.  1.
         -2   -1    0    0    0  501 -0.00000000000E+00 -0.00000000000E+00 -0.10035442606E+03  0.10035442609E+03  0.25500000000E-02 0. -1.
    5000001    1    1    2    0    0  0.10724163789E+03  0.22957412973E+03  0.24511188983E+03  0.39953584129E+03  0.18800000000E+03 0.  0.
   -5000001    1    1    2    0    0 -0.10724163789E+03 -0.22957412973E+03  0.10522519919E+04  0.10985368926E+04  0.18800000000E+03 0.  0.
<mgrwt>
<rscale>  0 0.74904531E+03</rscale>
<asrwt>0</asrwt>
<pdfrwt beam="1">  1        2 0.19967403E+00 0.74904531E+03</pdfrwt>
<pdfrwt beam="2">  1       -2 0.14336347E-01 0.74904531E+03</pdfrwt>
<totfact> 0.63250008E+02</totfact>
</mgrwt>
</event>
<event>
 4    1  0.6024609E-005  0.5574925E+03  0.7818608E-02  0.9997744E-01
         -2   -1    0    0    0  501 -0.00000000000E+00  0.00000000000E+00  0.12077675241E+03  0.12077675244E+03  0.25500000000E-02 0. -1.
          2   -1    0    0  501    0  0.00000000000E+00 -0.00000000000E+00 -0.64333140523E+03  0.64333140523E+03  0.25500000000E-02 0.  1.
    5000001    1    1    2    0    0  0.22944082485E+02  0.16384781692E+03 -0.93507325017E+02  0.26732032819E+03  0.18800000000E+03 0.  0.
   -5000001    1    1    2    0    0 -0.22944082485E+02 -0.16384781692E+03 -0.42904732780E+03  0.49678782948E+03  0.18800000000E+03 0.  0.
<mgrwt>
<rscale>  0 0.55749252E+03</rscale>
<asrwt>0</asrwt>
<pdfrwt beam="1">  1        2 0.91904485E-01 0.55749252E+03</pdfrwt>
<pdfrwt beam="2">  1       -2 0.17253822E-01 0.55749252E+03</pdfrwt>
<totfact> 0.13768597E+03</totfact>
</mgrwt>
</event>
<event>
 4    1  0.6024609E-005  0.7343331E+03  0.7818608E-02  0.9660255E-01
          2   -1    0    0  501    0  0.00000000000E+00  0.00000000000E+00  0.77576583178E+03  0.77576583179E+03  0.25500000000E-02 0.  1.
         -2   -1    0    0    0  501 -0.00000000000E+00 -0.00000000000E+00 -0.17377830868E+03  0.17377830870E+03  0.25500000000E-02 0. -1.
    5000001    1    1    2    0    0  0.28893190863E+03 -0.10551966303E+03  0.39105706191E+03  0.53186997733E+03  0.18800000000E+03 0.  0.
   -5000001    1    1    2    0    0 -0.28893190863E+03  0.10551966303E+03  0.21093046119E+03  0.41767416316E+03  0.18800000000E+03 0.  0.
<mgrwt>
<rscale>  0 0.73433310E+03</rscale>
<asrwt>0</asrwt>
<pdfrwt beam="1">  1        2 0.11082369E+00 0.73433310E+03</pdfrwt>
<pdfrwt beam="2">  1       -2 0.24825473E-01 0.73433310E+03</pdfrwt>
<totfact> 0.57599440E+02</totfact>
</mgrwt>
</event>
<event>
 4    1  0.6024609E-005  0.6781185E+03  0.7818608E-02  0.9755402E-01
          2   -1    0    0  501    0  0.00000000000E+00  0.00000000000E+00  0.81499823941E+02  0.81499823981E+02  0.25500000000E-02 0.  1.
         -2   -1    0    0    0  501 -0.00000000000E+00 -0.00000000000E+00 -0.14105694831E+04  0.14105694831E+04  0.25500000000E-02 0. -1.
    5000001    1    1    2    0    0  0.20472313170E+03 -0.16455340938E+03 -0.89136702113E+03  0.94808678482E+03  0.18800000000E+03 0.  0.
   -5000001    1    1    2    0    0 -0.20472313170E+03  0.16455340938E+03 -0.43770263805E+03  0.54398252228E+03  0.18800000000E+03 0.  0.
<mgrwt>
<rscale>  0 0.67811847E+03</rscale>
<asrwt>0</asrwt>
<pdfrwt beam="1">  1        2 0.11642833E-01 0.67811847E+03</pdfrwt>
<pdfrwt beam="2">  1       -2 0.20150991E+00 0.67811847E+03</pdfrwt>
<totfact> 0.72868214E+01</totfact>
</mgrwt>
</event>
<event>
 4    1  0.6024609E-005  0.4175768E+03  0.7818608E-02  0.1037858E+00
          2   -1    0    0  501    0  0.00000000000E+00  0.00000000000E+00  0.12599987600E+04  0.12599987600E+04  0.25500000000E-02 0.  1.
         -2   -1    0    0    0  501 -0.00000000000E+00 -0.00000000000E+00 -0.34597328981E+02  0.34597329075E+02  0.25500000000E-02 0. -1.
    5000001    1    1    2    0    0 -0.59154843387E+02 -0.67707514087E+02  0.65252289921E+03  0.68499177875E+03  0.18800000000E+03 0.  0.
   -5000001    1    1    2    0    0  0.59154843387E+02  0.67707514087E+02  0.57287853176E+03  0.60960431028E+03  0.18800000000E+03 0.  0.
<mgrwt>
<rscale>  0 0.41757678E+03</rscale>
<asrwt>0</asrwt>
<pdfrwt beam="1">  1        2 0.17999982E+00 0.41757678E+03</pdfrwt>
<pdfrwt beam="2">  1       -2 0.49424757E-02 0.41757678E+03</pdfrwt>
<totfact> 0.41626606E+03</totfact>
</mgrwt>
</event>
<event>
 4    1  0.6024609E-005  0.4719306E+03  0.7818608E-02  0.1021377E+00
         -2   -1    0    0    0  501 -0.00000000000E+00  0.00000000000E+00  0.16894633687E+03  0.16894633689E+03  0.25500000000E-02 0. -1.
          2   -1    0    0  501    0  0.00000000000E+00 -0.00000000000E+00 -0.32956993836E+03  0.32956993837E+03  0.25500000000E-02 0.  1.
    5000001    1    1    2    0    0 -0.14153858465E+03  0.16433468731E+02 -0.86324928597E+02  0.25119558742E+03  0.18800000000E+03 0.  0.
   -5000001    1    1    2    0    0  0.14153858465E+03 -0.16433468731E+02 -0.74298672898E+02  0.24732068784E+03  0.18800000000E+03 0.  0.
<mgrwt>
<rscale>  0 0.47193065E+03</rscale>
<asrwt>0</asrwt>
<pdfrwt beam="1">  1        2 0.47081420E-01 0.47193065E+03</pdfrwt>
<pdfrwt beam="2">  1       -2 0.24135191E-01 0.47193065E+03</pdfrwt>
<totfact> 0.16321055E+03</totfact>
</mgrwt>
</event>
<event>
 4    1  0.6024609E-005  0.6118343E+03  0.7818608E-02  0.9881153E-01
          2   -1    0    0  501    0  0.00000000000E+00  0.00000000000E+00  0.73868567968E+03  0.73868567969E+03  0.25500000000E-02 0.  1.
         -2   -1    0    0    0  501 -0.00000000000E+00 -0.00000000000E+00 -0.12669164149E+03  0.12669164151E+03  0.25500000000E-02 0. -1.
    5000001    1    1    2    0    0 -0.15086438287E+03 -0.14396926250E+03  0.13419513687E+03  0.31119052898E+03  0.18800000000E+03 0.  0.
   -5000001    1    1    2    0    0  0.15086438287E+03  0.14396926250E+03  0.47779890133E+03  0.55418679222E+03  0.18800000000E+03 0.  0.
<mgrwt>
<rscale>  0 0.61183430E+03</rscale>
<asrwt>0</asrwt>
<pdfrwt beam="1">  1        2 0.10552653E+00 0.61183430E+03</pdfrwt>
<pdfrwt beam="2">  1       -2 0.18098805E-01 0.61183430E+03</pdfrwt>
<totfact> 0.10713649E+03</totfact>
</mgrwt>
</event>
<event>
 4    1  0.6024609E-005  0.5964591E+03  0.7818608E-02  0.9912780E-01
         -2   -1    0    0    0  501 -0.00000000000E+00  0.00000000000E+00  0.13918022533E+03  0.13918022536E+03  0.25500000000E-02 0. -1.
          2   -1    0    0  501    0  0.00000000000E+00 -0.00000000000E+00 -0.63903371033E+03  0.63903371034E+03  0.25500000000E-02 0.  1.
    5000001    1    1    2    0    0  0.95192106821E+02 -0.14793388127E+03 -0.53563159877E+02  0.26298095468E+03  0.18800000000E+03 0.  0.
   -5000001    1    1    2    0    0 -0.95192106821E+02  0.14793388127E+03 -0.44629032512E+03  0.51523298101E+03  0.18800000000E+03 0.  0.
<mgrwt>
<rscale>  0 0.59645907E+03</rscale>
<asrwt>0</asrwt>
<pdfrwt beam="1">  1        2 0.91290529E-01 0.59645907E+03</pdfrwt>
<pdfrwt beam="2">  1       -2 0.19882890E-01 0.59645907E+03</pdfrwt>
<totfact> 0.10866001E+03</totfact>
</mgrwt>
</event>
<event>
 4    1  0.6024609E-005  0.3929264E+03  0.7818608E-02  0.1046257E+00
          2   -1    0    0  501    0  0.00000000000E+00  0.00000000000E+00  0.51070687854E+03  0.51070687854E+03  0.25500000000E-02 0.  1.
         -2   -1    0    0    0  501 -0.00000000000E+00 -0.00000000000E+00 -0.75577187253E+02  0.75577187296E+02  0.25500000000E-02 0. -1.
    5000001    1    1    2    0    0  0.37083480462E+02  0.40530536235E+02  0.19464862935E+03  0.27613402144E+03  0.18800000000E+03 0.  0.
   -5000001    1    1    2    0    0 -0.37083480462E+02 -0.40530536235E+02  0.24048106193E+03  0.31015004440E+03  0.18800000000E+03 0.  0.
<mgrwt>
<rscale>  0 0.39292640E+03</rscale>
<asrwt>0</asrwt>
<pdfrwt beam="1">  1        2 0.72958125E-01 0.39292640E+03</pdfrwt>
<pdfrwt beam="2">  1       -2 0.10796741E-01 0.39292640E+03</pdfrwt>
<totfact> 0.39026865E+03</totfact>
</mgrwt>
</event>
<event>
 4    1  0.6024609E-005  0.8175810E+03  0.7818608E-02  0.9534912E-01
          2   -1    0    0  501    0  0.00000000000E+00  0.00000000000E+00  0.56011233431E+03  0.56011233431E+03  0.25500000000E-02 0.  1.
         -2   -1    0    0    0  501 -0.00000000000E+00 -0.00000000000E+00 -0.29835031450E+03  0.29835031451E+03  0.25500000000E-02 0. -1.
    5000001    1    1    2    0    0 -0.29148640665E+03  0.13193048529E+03  0.31090591417E+03  0.48412443202E+03  0.18800000000E+03 0.  0.
   -5000001    1    1    2    0    0  0.29148640665E+03 -0.13193048529E+03 -0.49143894364E+02  0.37433821681E+03  0.18800000000E+03 0.  0.
<mgrwt>
<rscale>  0 0.81758104E+03</rscale>
<asrwt>0</asrwt>
<pdfrwt beam="1">  1        2 0.80016047E-01 0.81758104E+03</pdfrwt>
<pdfrwt beam="2">  1       -2 0.42621474E-01 0.81758104E+03</pdfrwt>
<totfact> 0.30858059E+02</totfact>
</mgrwt>
</event>
<event>
 4    1  0.6024609E-005  0.5730505E+03  0.7818608E-02  0.9962951E-01
          2   -1    0    0  501    0  0.00000000000E+00  0.00000000000E+00  0.32787200817E+04  0.32787200817E+04  0.25500000000E-02 0.  1.
         -2   -1    0    0    0  501 -0.00000000000E+00 -0.00000000000E+00 -0.25039254355E+02  0.25039254485E+02  0.25500000000E-02 0. -1.
    5000001    1    1    2    0    0 -0.92868598980E+02  0.12506240503E+03  0.76229787821E+03  0.80044190104E+03  0.18800000000E+03 0.  0.
   -5000001    1    1    2    0    0  0.92868598980E+02 -0.12506240503E+03  0.24913829491E+04  0.25033174352E+04  0.18800000000E+03 0.  0.
<mgrwt>
<rscale>  0 0.57305046E+03</rscale>
<asrwt>0</asrwt>
<pdfrwt beam="1">  1        2 0.46838882E+00 0.57305046E+03</pdfrwt>
<pdfrwt beam="2">  1       -2 0.35770345E-02 0.57305046E+03</pdfrwt>
<totfact> 0.60851751E+02</totfact>
</mgrwt>
</event>
<event>
 4    1  0.6024609E-005  0.4057862E+03  0.7818608E-02  0.1041794E+00
         -2   -1    0    0    0  501 -0.00000000000E+00  0.00000000000E+00  0.20354885953E+03  0.20354885955E+03  0.25500000000E-02 0. -1.
          2   -1    0    0  501    0  0.00000000000E+00 -0.00000000000E+00 -0.20223949922E+03  0.20223949924E+03  0.25500000000E-02 0.  1.
    5000001    1    1    2    0    0  0.67377729026E+02 -0.25077805731E+01  0.36370018239E+02  0.20300942234E+03  0.18800000000E+03 0.  0.
   -5000001    1    1    2    0    0 -0.67377729026E+02  0.25077805731E+01 -0.35060657930E+02  0.20277893645E+03  0.18800000000E+03 0.  0.
<mgrwt>
<rscale>  0 0.40578625E+03</rscale>
<asrwt>0</asrwt>
<pdfrwt beam="1">  1        2 0.28891357E-01 0.40578625E+03</pdfrwt>
<pdfrwt beam="2">  1       -2 0.29078409E-01 0.40578625E+03</pdfrwt>
<totfact> 0.19954089E+03</totfact>
</mgrwt>
</event>
<event>
 4    1  0.6024609E-005  0.6169599E+03  0.7818608E-02  0.9870831E-01
          2   -1    0    0  501    0  0.00000000000E+00  0.00000000000E+00  0.13294410414E+04  0.13294410414E+04  0.25500000000E-02 0.  1.
         -2   -1    0    0    0  501 -0.00000000000E+00 -0.00000000000E+00 -0.71578875607E+02  0.71578875652E+02  0.25500000000E-02 0. -1.
    5000001    1    1    2    0    0  0.23105929042E+03 -0.72873260291E+02  0.55303638496E+03  0.63237026404E+03  0.18800000000E+03 0.  0.
   -5000001    1    1    2    0    0 -0.23105929042E+03  0.72873260291E+02  0.70482578085E+03  0.76864965303E+03  0.18800000000E+03 0.  0.
<mgrwt>
<rscale>  0 0.61695995E+03</rscale>
<asrwt>0</asrwt>
<pdfrwt beam="1">  1        2 0.18992015E+00 0.61695995E+03</pdfrwt>
<pdfrwt beam="2">  1       -2 0.10225554E-01 0.61695995E+03</pdfrwt>
<totfact> 0.12093757E+03</totfact>
</mgrwt>
</event>
<event>
 4    1  0.6024609E-005  0.4413266E+03  0.7818608E-02  0.1030341E+00
         -2   -1    0    0    0  501 -0.00000000000E+00  0.00000000000E+00  0.38587195466E+02  0.38587195551E+02  0.25500000000E-02 0. -1.
          2   -1    0    0  501    0  0.00000000000E+00 -0.00000000000E+00 -0.12618767278E+04  0.12618767278E+04  0.25500000000E-02 0.  1.
    5000001    1    1    2    0    0  0.41621535939E+02 -0.42379178518E+02 -0.90365131418E+03  0.92490974946E+03  0.18800000000E+03 0.  0.
   -5000001    1    1    2    0    0 -0.41621535939E+02  0.42379178518E+02 -0.31963821817E+03  0.37555417391E+03  0.18800000000E+03 0.  0.
<mgrwt>
<rscale>  0 0.44132656E+03</rscale>
<asrwt>0</asrwt>
<pdfrwt beam="1">  1        2 0.18026808E+00 0.44132656E+03</pdfrwt>
<pdfrwt beam="2">  1       -2 0.55124573E-02 0.44132656E+03</pdfrwt>
<totfact> 0.35103884E+03</totfact>
</mgrwt>
</event>
<event>
 4    1  0.6024609E-005  0.5650831E+03  0.7818608E-02  0.9980619E-01
         -2   -1    0    0    0  501 -0.00000000000E+00  0.00000000000E+00  0.47864921108E+02  0.47864921176E+02  0.25500000000E-02 0. -1.
          2   -1    0    0  501    0  0.00000000000E+00 -0.00000000000E+00 -0.16678125233E+04  0.16678125233E+04  0.25500000000E-02 0.  1.
    5000001    1    1    2    0    0  0.51878294286E+02  0.20356360037E+03 -0.75267027494E+03  0.80373256720E+03  0.18800000000E+03 0.  0.
   -5000001    1    1    2    0    0 -0.51878294286E+02 -0.20356360037E+03 -0.86727732728E+03  0.91194487730E+03  0.18800000000E+03 0.  0.
<mgrwt>
<rscale>  0 0.56508306E+03</rscale>
<asrwt>0</asrwt>
<pdfrwt beam="1">  1        2 0.23825890E+00 0.56508306E+03</pdfrwt>
<pdfrwt beam="2">  1       -2 0.68378469E-02 0.56508306E+03</pdfrwt>
<totfact> 0.15349355E+03</totfact>
</mgrwt>
</event>
<event>
 4    1  0.6024609E-005  0.4089828E+03  0.7818608E-02  0.1040713E+00
          2   -1    0    0  501    0  0.00000000000E+00  0.00000000000E+00  0.94397656453E+03  0.94397656453E+03  0.25500000000E-02 0.  1.
         -2   -1    0    0    0  501 -0.00000000000E+00 -0.00000000000E+00 -0.44298483910E+02  0.44298483983E+02  0.25500000000E-02 0. -1.
    5000001    1    1    2    0    0 -0.55884000933E+02 -0.92786248960E+01  0.31179351280E+03  0.36846751426E+03  0.18800000000E+03 0.  0.
   -5000001    1    1    2    0    0  0.55884000933E+02  0.92786248960E+01  0.58788456782E+03  0.61980753426E+03  0.18800000000E+03 0.  0.
<mgrwt>
<rscale>  0 0.40898279E+03</rscale>
<asrwt>0</asrwt>
<pdfrwt beam="1">  1        2 0.13485378E+00 0.40898279E+03</pdfrwt>
<pdfrwt beam="2">  1       -2 0.63283556E-02 0.40898279E+03</pdfrwt>
<totfact> 0.43172693E+03</totfact>
</mgrwt>
</event>
<event>
 4    1  0.6024609E-005  0.8472479E+03  0.7818608E-02  0.9494038E-01
          2   -1    0    0  501    0  0.00000000000E+00  0.00000000000E+00  0.96231067515E+03  0.96231067515E+03  0.25500000000E-02 0.  1.
         -2   -1    0    0    0  501 -0.00000000000E+00 -0.00000000000E+00 -0.18648575436E+03  0.18648575437E+03  0.25500000000E-02 0. -1.
    5000001    1    1    2    0    0 -0.35953177470E+03 -0.11256470009E+03  0.32461395633E+03  0.53165038265E+03  0.18800000000E+03 0.  0.
   -5000001    1    1    2    0    0  0.35953177470E+03  0.11256470009E+03  0.45121096447E+03  0.61714604688E+03  0.18800000000E+03 0.  0.
<mgrwt>
<rscale>  0 0.84724786E+03</rscale>
<asrwt>0</asrwt>
<pdfrwt beam="1">  1        2 0.13747295E+00 0.84724786E+03</pdfrwt>
<pdfrwt beam="2">  1       -2 0.26640822E-01 0.84724786E+03</pdfrwt>
<totfact> 0.37905506E+02</totfact>
</mgrwt>
</event>
<event>
 4    1  0.6024609E-005  0.6070524E+03  0.7818608E-02  0.9890882E-01
         -2   -1    0    0    0  501 -0.00000000000E+00  0.00000000000E+00  0.29400246084E+03  0.29400246085E+03  0.25500000000E-02 0. -1.
          2   -1    0    0  501    0  0.00000000000E+00 -0.00000000000E+00 -0.31335844596E+03  0.31335844597E+03  0.25500000000E-02 0.  1.
    5000001    1    1    2    0    0  0.19589323012E+03 -0.12654821955E+03  0.39291183834E+02  0.30211985470E+03  0.18800000000E+03 0.  0.
   -5000001    1    1    2    0    0 -0.19589323012E+03  0.12654821955E+03 -0.58647168958E+02  0.30524105213E+03  0.18800000000E+03 0.  0.
<mgrwt>
<rscale>  0 0.60705240E+03</rscale>
<asrwt>0</asrwt>
<pdfrwt beam="1">  1        2 0.44765492E-01 0.60705240E+03</pdfrwt>
<pdfrwt beam="2">  1       -2 0.42000352E-01 0.60705240E+03</pdfrwt>
<totfact> 0.61428640E+02</totfact>
</mgrwt>
</event>
<event>
 4    1  0.6024609E-005  0.6113949E+03  0.7818608E-02  0.9882043E-01
          2   -1    0    0  501    0  0.00000000000E+00  0.00000000000E+00  0.45293173429E+03  0.45293173430E+03  0.25500000000E-02 0.  1.
         -2   -1    0    0    0  501 -0.00000000000E+00 -0.00000000000E+00 -0.20632455064E+03  0.20632455066E+03  0.25500000000E-02 0. -1.
    5000001    1    1    2    0    0  0.75519762046E+02 -0.22687562916E+03  0.15620712299E+03  0.34193632571E+03  0.18800000000E+03 0.  0.
   -5000001    1    1    2    0    0 -0.75519762046E+02  0.22687562916E+03  0.90400060658E+02  0.31731995924E+03  0.18800000000E+03 0.  0.
<mgrwt>
<rscale>  0 0.61139492E+03</rscale>
<asrwt>0</asrwt>
<pdfrwt beam="1">  1        2 0.64704533E-01 0.61139492E+03</pdfrwt>
<pdfrwt beam="2">  1       -2 0.29474936E-01 0.61139492E+03</pdfrwt>
<totfact> 0.79926714E+02</totfact>
</mgrwt>
</event>
<event>
 4    1  0.6024609E-005  0.5287249E+03  0.7818608E-02  0.1006542E+00
          2   -1    0    0  501    0  0.00000000000E+00  0.00000000000E+00  0.12670435042E+04  0.12670435042E+04  0.25500000000E-02 0.  1.
         -2   -1    0    0    0  501 -0.00000000000E+00 -0.00000000000E+00 -0.55157943706E+02  0.55157943765E+02  0.25500000000E-02 0. -1.
    5000001    1    1    2    0    0  0.17998276700E+02  0.16963224055E+03  0.79046387054E+03  0.83022657487E+03  0.18800000000E+03 0.  0.
   -5000001    1    1    2    0    0 -0.17998276700E+02 -0.16963224055E+03  0.42142169000E+03  0.49197487314E+03  0.18800000000E+03 0.  0.
<mgrwt>
<rscale>  0 0.52872494E+03</rscale>
<asrwt>0</asrwt>
<pdfrwt beam="1">  1        2 0.18100619E+00 0.52872494E+03</pdfrwt>
<pdfrwt beam="2">  1       -2 0.78797072E-02 0.52872494E+03</pdfrwt>
<totfact> 0.19914030E+03</totfact>
</mgrwt>
</event>
<event>
 4    1  0.6024609E-005  0.4362020E+03  0.7818608E-02  0.1031919E+00
          2   -1    0    0  501    0  0.00000000000E+00  0.00000000000E+00  0.33283380993E+03  0.33283380994E+03  0.25500000000E-02 0.  1.
         -2   -1    0    0    0  501 -0.00000000000E+00 -0.00000000000E+00 -0.14291832890E+03  0.14291832892E+03  0.25500000000E-02 0. -1.
    5000001    1    1    2    0    0  0.10914914434E+03 -0.14815326238E+02  0.84552142855E+02  0.23372225924E+03  0.18800000000E+03 0.  0.
   -5000001    1    1    2    0    0 -0.10914914434E+03  0.14815326238E+02  0.10536333818E+03  0.24202987963E+03  0.18800000000E+03 0.  0.
<mgrwt>
<rscale>  0 0.43620203E+03</rscale>
<asrwt>0</asrwt>
<pdfrwt beam="1">  1        2 0.47547687E-01 0.43620203E+03</pdfrwt>
<pdfrwt beam="2">  1       -2 0.20416904E-01 0.43620203E+03</pdfrwt>
<totfact> 0.21641896E+03</totfact>
</mgrwt>
</event>
<event>
 4    1  0.6024609E-005  0.1211214E+04  0.7818608E-02  0.9103097E-01
          2   -1    0    0  501    0  0.00000000000E+00  0.00000000000E+00  0.10509840704E+04  0.10509840704E+04  0.25500000000E-02 0.  1.
         -2   -1    0    0    0  501 -0.00000000000E+00 -0.00000000000E+00 -0.34896819717E+03  0.34896819718E+03  0.25500000000E-02 0. -1.
    5000001    1    1    2    0    0 -0.45834310386E+03 -0.34442152101E+03  0.29082248208E+03  0.66979571593E+03  0.18800000000E+03 0.  0.
   -5000001    1    1    2    0    0  0.45834310386E+03  0.34442152101E+03  0.41119339115E+03  0.73015655165E+03  0.18800000000E+03 0.  0.
<mgrwt>
<rscale>  0 0.12112143E+04</rscale>
<asrwt>0</asrwt>
<pdfrwt beam="1">  1        2 0.15014058E+00 0.12112143E+04</pdfrwt>
<pdfrwt beam="2">  1       -2 0.49852598E-01 0.12112143E+04</pdfrwt>
<totfact> 0.98129515E+01</totfact>
</mgrwt>
</event>
<event>
 4    1  0.6024609E-005  0.9941064E+03  0.7818608E-02  0.9315033E-01
         -2   -1    0    0    0  501 -0.00000000000E+00  0.00000000000E+00  0.74687833906E+03  0.74687833907E+03  0.25500000000E-02 0. -1.
          2   -1    0    0  501    0  0.00000000000E+00 -0.00000000000E+00 -0.33079264212E+03  0.33079264213E+03  0.25500000000E-02 0.  1.
    5000001    1    1    2    0    0  0.37670867866E+03 -0.23348394459E+03  0.34210596585E+03  0.59059687845E+03  0.18800000000E+03 0.  0.
   -5000001    1    1    2    0    0 -0.37670867866E+03  0.23348394459E+03  0.73979731090E+02  0.48707410275E+03  0.18800000000E+03 0.  0.
<mgrwt>
<rscale>  0 0.99410635E+03</rscale>
<asrwt>0</asrwt>
<pdfrwt beam="1">  1        2 0.47256092E-01 0.99410635E+03</pdfrwt>
<pdfrwt beam="2">  1       -2 0.10669690E+00 0.99410635E+03</pdfrwt>
<totfact> 0.75580941E+01</totfact>
</mgrwt>
</event>
<event>
 4    1  0.6024609E-005  0.6653386E+03  0.7818608E-02  0.9778416E-01
         -2   -1    0    0    0  501 -0.00000000000E+00  0.00000000000E+00  0.98823168781E+02  0.98823168813E+02  0.25500000000E-02 0. -1.
          2   -1    0    0  501    0  0.00000000000E+00 -0.00000000000E+00 -0.11198677076E+04  0.11198677076E+04  0.25500000000E-02 0.  1.
    5000001    1    1    2    0    0  0.25058169355E+03  0.10494345637E+03 -0.58194768658E+03  0.66918713683E+03  0.18800000000E+03 0.  0.
   -5000001    1    1    2    0    0 -0.25058169355E+03 -0.10494345637E+03 -0.43909685224E+03  0.54950373959E+03  0.18800000000E+03 0.  0.
<mgrwt>
<rscale>  0 0.66533864E+03</rscale>
<asrwt>0</asrwt>
<pdfrwt beam="1">  1        2 0.15998109E+00 0.66533864E+03</pdfrwt>
<pdfrwt beam="2">  1       -2 0.14117596E-01 0.66533864E+03</pdfrwt>
<totfact> 0.92857358E+02</totfact>
</mgrwt>
</event>
<event>
 4    1  0.6024609E-005  0.4568368E+03  0.7818608E-02  0.1025703E+00
          2   -1    0    0  501    0  0.00000000000E+00  0.00000000000E+00  0.13420582004E+04  0.13420582004E+04  0.25500000000E-02 0.  1.
         -2   -1    0    0    0  501 -0.00000000000E+00 -0.00000000000E+00 -0.38876833628E+02  0.38876833711E+02  0.25500000000E-02 0. -1.
    5000001    1    1    2    0    0  0.93309630735E+02  0.81452694219E+02  0.76826306967E+03  0.80057065448E+03  0.18800000000E+03 0.  0.
   -5000001    1    1    2    0    0 -0.93309630735E+02 -0.81452694219E+02  0.53491829712E+03  0.58036437966E+03  0.18800000000E+03 0.  0.
<mgrwt>
<rscale>  0 0.45683683E+03</rscale>
<asrwt>0</asrwt>
<pdfrwt beam="1">  1        2 0.19172260E+00 0.45683683E+03</pdfrwt>
<pdfrwt beam="2">  1       -2 0.55538335E-02 0.45683683E+03</pdfrwt>
<totfact> 0.31421335E+03</totfact>
</mgrwt>
</event>
<event>
 4    1  0.6024609E-005  0.4993184E+03  0.7818608E-02  0.1013957E+00
         -2   -1    0    0    0  501 -0.00000000000E+00  0.00000000000E+00  0.24437056220E+04  0.24437056220E+04  0.25500000000E-02 0. -1.
          2   -1    0    0  501    0  0.00000000000E+00 -0.00000000000E+00 -0.25506227461E+02  0.25506227589E+02  0.25500000000E-02 0.  1.
    5000001    1    1    2    0    0 -0.12563532096E+03 -0.94614220123E+02  0.97454935903E+03  0.10049012577E+04  0.18800000000E+03 0.  0.
   -5000001    1    1    2    0    0  0.12563532096E+03  0.94614220123E+02  0.14436500355E+04  0.14643105919E+04  0.18800000000E+03 0.  0.
<mgrwt>
<rscale>  0 0.49931838E+03</rscale>
<asrwt>0</asrwt>
<pdfrwt beam="1">  1        2 0.36437481E-02 0.49931838E+03</pdfrwt>
<pdfrwt beam="2">  1       -2 0.34910068E+00 0.49931838E+03</pdfrwt>
<totfact> 0.43543035E+01</totfact>
</mgrwt>
</event>
<event>
 4    1  0.6024609E-005  0.5206945E+03  0.7818608E-02  0.1008514E+00
          2   -1    0    0  501    0  0.00000000000E+00  0.00000000000E+00  0.10220852098E+04  0.10220852098E+04  0.25500000000E-02 0.  1.
         -2   -1    0    0    0  501 -0.00000000000E+00 -0.00000000000E+00 -0.66316085869E+02  0.66316085918E+02  0.25500000000E-02 0. -1.
    5000001    1    1    2    0    0  0.17461556831E+03  0.14798317049E+02  0.39101547335E+03  0.46791739365E+03  0.18800000000E+03 0.  0.
   -5000001    1    1    2    0    0 -0.17461556831E+03 -0.14798317049E+02  0.56475365061E+03  0.62048390210E+03  0.18800000000E+03 0.  0.
<mgrwt>
<rscale>  0 0.52069450E+03</rscale>
<asrwt>0</asrwt>
<pdfrwt beam="1">  1        2 0.14601218E+00 0.52069450E+03</pdfrwt>
<pdfrwt beam="2">  1       -2 0.94737262E-02 0.52069450E+03</pdfrwt>
<totfact> 0.20464606E+03</totfact>
</mgrwt>
</event>
<event>
 4    1  0.6024609E-005  0.5969552E+03  0.7818608E-02  0.9911743E-01
          2   -1    0    0  501    0  0.00000000000E+00  0.00000000000E+00  0.29701982155E+04  0.29701982155E+04  0.25500000000E-02 0.  1.
         -2   -1    0    0    0  501 -0.00000000000E+00 -0.00000000000E+00 -0.29994248583E+02  0.29994248691E+02  0.25500000000E-02 0. -1.
    5000001    1    1    2    0    0  0.17383435360E+03 -0.14223732886E+03  0.11816080582E+04  0.12173707092E+04  0.18800000000E+03 0.  0.
   -5000001    1    1    2    0    0 -0.17383435360E+03  0.14223732886E+03  0.17585959087E+04  0.17828217551E+04  0.18800000000E+03 0.  0.
<mgrwt>
<rscale>  0 0.59695515E+03</rscale>
<asrwt>0</asrwt>
<pdfrwt beam="1">  1        2 0.42431401E+00 0.59695515E+03</pdfrwt>
<pdfrwt beam="2">  1       -2 0.42848928E-02 0.59695515E+03</pdfrwt>
<totfact> 0.68229811E+02</totfact>
</mgrwt>
</event>
<event>
 4    1  0.6024609E-005  0.9673739E+03  0.7818608E-02  0.9345071E-01
          2   -1    0    0  501    0  0.00000000000E+00  0.00000000000E+00  0.38251077853E+04  0.38251077853E+04  0.25500000000E-02 0.  1.
         -2   -1    0    0    0  501 -0.00000000000E+00 -0.00000000000E+00 -0.61162480760E+02  0.61162480813E+02  0.25500000000E-02 0. -1.
    5000001    1    1    2    0    0 -0.25517233692E+03  0.23881872850E+03  0.77110887265E+03  0.86723710719E+03  0.18800000000E+03 0.  0.
   -5000001    1    1    2    0    0  0.25517233692E+03 -0.23881872850E+03  0.29928364319E+04  0.30190331589E+04  0.18800000000E+03 0.  0.
<mgrwt>
<rscale>  0 0.96737393E+03</rscale>
<asrwt>0</asrwt>
<pdfrwt beam="1">  1        2 0.54644409E+00 0.96737393E+03</pdfrwt>
<pdfrwt beam="2">  1       -2 0.87374953E-02 0.96737393E+03</pdfrwt>
<totfact> 0.66912518E+01</totfact>
</mgrwt>
</event>
<event>
 4    1  0.6024609E-005  0.4635050E+03  0.7818608E-02  0.1023770E+00
         -2   -1    0    0    0  501 -0.00000000000E+00  0.00000000000E+00  0.51120710312E+02  0.51120710375E+02  0.25500000000E-02 0. -1.
          2   -1    0    0  501    0  0.00000000000E+00 -0.00000000000E+00 -0.10506350787E+04  0.10506350787E+04  0.25500000000E-02 0.  1.
    5000001    1    1    2    0    0  0.11322130120E+03 -0.13403357962E+02 -0.67388833197E+03  0.70884991148E+03  0.18800000000E+03 0.  0.
   -5000001    1    1    2    0    0 -0.11322130120E+03  0.13403357962E+02 -0.32562603639E+03  0.39290587757E+03  0.18800000000E+03 0.  0.
<mgrwt>
<rscale>  0 0.46350496E+03</rscale>
<asrwt>0</asrwt>
<pdfrwt beam="1">  1        2 0.15009071E+00 0.46350496E+03</pdfrwt>
<pdfrwt beam="2">  1       -2 0.73029593E-02 0.46350496E+03</pdfrwt>
<totfact> 0.29778428E+03</totfact>
</mgrwt>
</event>
<event>
 4    1  0.6024609E-005  0.9378385E+03  0.7818608E-02  0.9379480E-01
         -2   -1    0    0    0  501 -0.00000000000E+00  0.00000000000E+00  0.22118204180E+03  0.22118204181E+03  0.25500000000E-02 0. -1.
          2   -1    0    0  501    0  0.00000000000E+00 -0.00000000000E+00 -0.99413708361E+03  0.99413708361E+03  0.25500000000E-02 0.  1.
    5000001    1    1    2    0    0 -0.41816909312E+02 -0.42063966136E+03 -0.28732090666E+03  0.54459497061E+03  0.18800000000E+03 0.  0.
   -5000001    1    1    2    0    0  0.41816909312E+02  0.42063966136E+03 -0.48563413516E+03  0.67072415481E+03  0.18800000000E+03 0.  0.
<mgrwt>
<rscale>  0 0.93783851E+03</rscale>
<asrwt>0</asrwt>
<pdfrwt beam="1">  1        2 0.14201958E+00 0.93783851E+03</pdfrwt>
<pdfrwt beam="2">  1       -2 0.31597435E-01 0.93783851E+03</pdfrwt>
<totfact> 0.26304872E+02</totfact>
</mgrwt>
</event>
<event>
 4    1  0.6024609E-005  0.7522126E+03  0.7818608E-02  0.9631885E-01
         -2   -1    0    0    0  501 -0.00000000000E+00  0.00000000000E+00  0.20540001258E+03  0.20540001259E+03  0.25500000000E-02 0. -1.
          2   -1    0    0  501    0  0.00000000000E+00 -0.00000000000E+00 -0.68868522809E+03  0.68868522809E+03  0.25500000000E-02 0.  1.
    5000001    1    1    2    0    0 -0.32538393932E+03 -0.95084379914E+01 -0.25604566942E+03  0.45482799297E+03  0.18800000000E+03 0.  0.
   -5000001    1    1    2    0    0  0.32538393932E+03  0.95084379914E+01 -0.22723954609E+03  0.43925724771E+03  0.18800000000E+03 0.  0.
<mgrwt>
<rscale>  0 0.75221261E+03</rscale>
<asrwt>0</asrwt>
<pdfrwt beam="1">  1        2 0.98383603E-01 0.75221261E+03</pdfrwt>
<pdfrwt beam="2">  1       -2 0.29342859E-01 0.75221261E+03</pdfrwt>
<totfact> 0.49242772E+02</totfact>
</mgrwt>
</event>
<event>
 4    1  0.6024609E-005  0.8067759E+03  0.7818608E-02  0.9550261E-01
         -2   -1    0    0    0  501 -0.00000000000E+00  0.00000000000E+00  0.29165901071E+03  0.29165901072E+03  0.25500000000E-02 0. -1.
          2   -1    0    0  501    0  0.00000000000E+00 -0.00000000000E+00 -0.55791807292E+03  0.55791807293E+03  0.25500000000E-02 0.  1.
    5000001    1    1    2    0    0 -0.30076559706E+03 -0.18127950000E+03 -0.66067124422E+02  0.40377105694E+03  0.18800000000E+03 0.  0.
   -5000001    1    1    2    0    0  0.30076559706E+03  0.18127950000E+03 -0.20019193779E+03  0.44580602671E+03  0.18800000000E+03 0.  0.
<mgrwt>
<rscale>  0 0.80677589E+03</rscale>
<asrwt>0</asrwt>
<pdfrwt beam="1">  1        2 0.79702581E-01 0.80677589E+03</pdfrwt>
<pdfrwt beam="2">  1       -2 0.41665573E-01 0.80677589E+03</pdfrwt>
<totfact> 0.32428581E+02</totfact>
</mgrwt>
</event>
<event>
 4    1  0.6024609E-005  0.5603808E+03  0.7818608E-02  0.9991193E-01
         -2   -1    0    0    0  501 -0.00000000000E+00  0.00000000000E+00  0.25636588681E+03  0.25636588682E+03  0.25500000000E-02 0. -1.
          2   -1    0    0  501    0  0.00000000000E+00 -0.00000000000E+00 -0.30622895776E+03  0.30622895777E+03  0.25500000000E-02 0.  1.
    5000001    1    1    2    0    0 -0.13786625039E+03  0.15449731197E+03 -0.41913921261E+02  0.28280257990E+03  0.18800000000E+03 0.  0.
   -5000001    1    1    2    0    0  0.13786625039E+03 -0.15449731197E+03 -0.79491496833E+01  0.27979226469E+03  0.18800000000E+03 0.  0.
<mgrwt>
<rscale>  0 0.56038079E+03</rscale>
<asrwt>0</asrwt>
<pdfrwt beam="1">  1        2 0.43746994E-01 0.56038079E+03</pdfrwt>
<pdfrwt beam="2">  1       -2 0.36623698E-01 0.56038079E+03</pdfrwt>
<totfact> 0.82154197E+02</totfact>
</mgrwt>
</event>
<event>
 4    1  0.6024609E-005  0.6737731E+03  0.7818608E-02  0.9763166E-01
          2   -1    0    0  501    0  0.00000000000E+00  0.00000000000E+00  0.37792991499E+03  0.37792991500E+03  0.25500000000E-02 0.  1.
         -2   -1    0    0    0  501 -0.00000000000E+00 -0.00000000000E+00 -0.30030054798E+03  0.30030054799E+03  0.25500000000E-02 0. -1.
    5000001    1    1    2    0    0  0.25514133973E+03 -0.80889684533E+02  0.12002251698E+03  0.34841017334E+03  0.18800000000E+03 0.  0.
   -5000001    1    1    2    0    0 -0.25514133973E+03  0.80889684533E+02 -0.42393149969E+02  0.32982028965E+03  0.18800000000E+03 0.  0.
<mgrwt>
<rscale>  0 0.67377314E+03</rscale>
<asrwt>0</asrwt>
<pdfrwt beam="1">  1        2 0.53989988E-01 0.67377314E+03</pdfrwt>
<pdfrwt beam="2">  1       -2 0.42900078E-01 0.67377314E+03</pdfrwt>
<totfact> 0.47820811E+02</totfact>
</mgrwt>
</event>
<event>
 4    1  0.6024609E-005  0.4851347E+03  0.7818608E-02  0.1017733E+00
          2   -1    0    0  501    0  0.00000000000E+00  0.00000000000E+00  0.28323640237E+03  0.28323640238E+03  0.25500000000E-02 0.  1.
         -2   -1    0    0    0  501 -0.00000000000E+00 -0.00000000000E+00 -0.20773784529E+03  0.20773784530E+03  0.25500000000E-02 0. -1.
    5000001    1    1    2    0    0 -0.14982845772E+03 -0.92190470819E+01  0.63702184193E+01  0.24066187329E+03  0.18800000000E+03 0.  0.
   -5000001    1    1    2    0    0  0.14982845772E+03  0.92190470819E+01  0.69128338663E+02  0.25031237440E+03  0.18800000000E+03 0.  0.
<mgrwt>
<rscale>  0 0.48513470E+03</rscale>
<asrwt>0</asrwt>
<pdfrwt beam="1">  1        2 0.40462343E-01 0.48513470E+03</pdfrwt>
<pdfrwt beam="2">  1       -2 0.29676835E-01 0.48513470E+03</pdfrwt>
<totfact> 0.13269266E+03</totfact>
</mgrwt>
</event>
<event>
 4    1  0.6024609E-005  0.6766269E+03  0.7818608E-02  0.9758060E-01
          2   -1    0    0  501    0  0.00000000000E+00  0.00000000000E+00  0.19297886994E+04  0.19297886994E+04  0.25500000000E-02 0.  1.
         -2   -1    0    0    0  501 -0.00000000000E+00 -0.00000000000E+00 -0.59310118015E+02  0.59310118070E+02  0.25500000000E-02 0. -1.
    5000001    1    1    2    0    0  0.19027704289E+03 -0.15100746035E+03  0.51842583294E+03  0.60259269029E+03  0.18800000000E+03 0.  0.
   -5000001    1    1    2    0    0 -0.19027704289E+03  0.15100746035E+03  0.13520527484E+04  0.13865061272E+04  0.18800000000E+03 0.  0.
<mgrwt>
<rscale>  0 0.67662692E+03</rscale>
<asrwt>0</asrwt>
<pdfrwt beam="1">  1        2 0.27568409E+00 0.67662692E+03</pdfrwt>
<pdfrwt beam="2">  1       -2 0.84728744E-02 0.67662692E+03</pdfrwt>
<totfact> 0.80009924E+02</totfact>
</mgrwt>
</event>
<event>
 4    1  0.6024609E-005  0.9617242E+03  0.7818608E-02  0.9351551E-01
         -2   -1    0    0    0  501 -0.00000000000E+00  0.00000000000E+00  0.16549499465E+03  0.16549499466E+03  0.25500000000E-02 0. -1.
          2   -1    0    0  501    0  0.00000000000E+00 -0.00000000000E+00 -0.13971923533E+04  0.13971923533E+04  0.25500000000E-02 0.  1.
    5000001    1    1    2    0    0  0.15881290184E+02  0.28908961739E+03 -0.11597818669E+04  0.12100673539E+04  0.18800000000E+03 0.  0.
   -5000001    1    1    2    0    0 -0.15881290184E+02 -0.28908961739E+03 -0.71915491799E+02  0.35261999408E+03  0.18800000000E+03 0.  0.
<mgrwt>
<rscale>  0 0.96172416E+03</rscale>
<asrwt>0</asrwt>
<pdfrwt beam="1">  1        2 0.19959890E+00 0.96172416E+03</pdfrwt>
<pdfrwt beam="2">  1       -2 0.23642143E-01 0.96172416E+03</pdfrwt>
<totfact> 0.26278768E+02</totfact>
</mgrwt>
</event>
<event>
 4    1  0.6024609E-005  0.4711160E+03  0.7818608E-02  0.1021606E+00
          2   -1    0    0  501    0  0.00000000000E+00  0.00000000000E+00  0.10018275827E+03  0.10018275830E+03  0.25500000000E-02 0.  1.
         -2   -1    0    0    0  501 -0.00000000000E+00 -0.00000000000E+00 -0.55386344401E+03  0.55386344402E+03  0.25500000000E-02 0. -1.
    5000001    1    1    2    0    0 -0.12078481287E+01 -0.11911907337E+03 -0.11972798154E+03  0.25272435993E+03  0.18800000000E+03 0.  0.
   -5000001    1    1    2    0    0  0.12078481287E+01  0.11911907337E+03 -0.33395270419E+03  0.40132184239E+03  0.18800000000E+03 0.  0.
<mgrwt>
<rscale>  0 0.47111598E+03</rscale>
<asrwt>0</asrwt>
<pdfrwt beam="1">  1        2 0.14311823E-01 0.47111598E+03</pdfrwt>
<pdfrwt beam="2">  1       -2 0.79123348E-01 0.47111598E+03</pdfrwt>
<totfact> 0.60595719E+02</totfact>
</mgrwt>
</event>
<event>
 4    1  0.6024609E-005  0.4181673E+03  0.7818608E-02  0.1037664E+00
         -2   -1    0    0    0  501 -0.00000000000E+00  0.00000000000E+00  0.13579974702E+03  0.13579974704E+03  0.25500000000E-02 0. -1.
          2   -1    0    0  501    0  0.00000000000E+00 -0.00000000000E+00 -0.32191496159E+03  0.32191496160E+03  0.25500000000E-02 0.  1.
    5000001    1    1    2    0    0 -0.66165651949E+02  0.36238713095E+02 -0.36384156917E+02  0.20581288759E+03  0.18800000000E+03 0.  0.
   -5000001    1    1    2    0    0  0.66165651949E+02 -0.36238713095E+02 -0.14973105766E+03  0.25190182106E+03  0.18800000000E+03 0.  0.
<mgrwt>
<rscale>  0 0.41816729E+03</rscale>
<asrwt>0</asrwt>
<pdfrwt beam="1">  1        2 0.45987851E-01 0.41816729E+03</pdfrwt>
<pdfrwt beam="2">  1       -2 0.19399964E-01 0.41816729E+03</pdfrwt>
<totfact> 0.24503364E+03</totfact>
</mgrwt>
</event>
<event>
 4    1  0.6024609E-005  0.6816298E+03  0.7818608E-02  0.9749174E-01
         -2   -1    0    0    0  501 -0.00000000000E+00  0.00000000000E+00  0.21802723042E+03  0.21802723044E+03  0.25500000000E-02 0. -1.
          2   -1    0    0  501    0  0.00000000000E+00 -0.00000000000E+00 -0.53275359452E+03  0.53275359452E+03  0.25500000000E-02 0.  1.
    5000001    1    1    2    0    0 -0.25372505407E+03  0.12790268596E+03 -0.16692047598E+03  0.37939681791E+03  0.18800000000E+03 0.  0.
   -5000001    1    1    2    0    0  0.25372505407E+03 -0.12790268596E+03 -0.14780588812E+03  0.37138400706E+03  0.18800000000E+03 0.  0.
<mgrwt>
<rscale>  0 0.68162978E+03</rscale>
<asrwt>0</asrwt>
<pdfrwt beam="1">  1        2 0.76107656E-01 0.68162978E+03</pdfrwt>
<pdfrwt beam="2">  1       -2 0.31146748E-01 0.68162978E+03</pdfrwt>
<totfact> 0.59907386E+02</totfact>
</mgrwt>
</event>
<event>
 4    1  0.6024609E-005  0.6098094E+03  0.7818608E-02  0.9885261E-01
         -2   -1    0    0    0  501 -0.00000000000E+00  0.00000000000E+00  0.50378507294E+03  0.50378507294E+03  0.25500000000E-02 0. -1.
          2   -1    0    0  501    0  0.00000000000E+00 -0.00000000000E+00 -0.18453677508E+03  0.18453677510E+03  0.25500000000E-02 0.  1.
    5000001    1    1    2    0    0  0.23066503529E+03 -0.30307458211E+02  0.92865794441E+02  0.31319795067E+03  0.18800000000E+03 0.  0.
   -5000001    1    1    2    0    0 -0.23066503529E+03  0.30307458211E+02  0.22638250342E+03  0.37512389737E+03  0.18800000000E+03 0.  0.
<mgrwt>
<rscale>  0 0.60980939E+03</rscale>
<asrwt>0</asrwt>
<pdfrwt beam="1">  1        2 0.26362396E-01 0.60980939E+03</pdfrwt>
<pdfrwt beam="2">  1       -2 0.71969297E-01 0.60980939E+03</pdfrwt>
<totfact> 0.36418017E+02</totfact>
</mgrwt>
</event>
<event>
 4    1  0.6024609E-005  0.9784972E+03  0.7818608E-02  0.9332448E-01
         -2   -1    0    0    0  501 -0.00000000000E+00  0.00000000000E+00  0.10705942599E+03  0.10705942602E+03  0.25500000000E-02 0. -1.
          2   -1    0    0  501    0  0.00000000000E+00 -0.00000000000E+00 -0.22358066096E+04  0.22358066096E+04  0.25500000000E-02 0.  1.
    5000001    1    1    2    0    0 -0.41668036909E+03  0.10232056270E+03 -0.72636999471E+03  0.86432019341E+03  0.18800000000E+03 0.  0.
   -5000001    1    1    2    0    0  0.41668036909E+03 -0.10232056270E+03 -0.14023771889E+04  0.14785458422E+04  0.18800000000E+03 0.  0.
<mgrwt>
<rscale>  0 0.97849716E+03</rscale>
<asrwt>0</asrwt>
<pdfrwt beam="1">  1        2 0.31940091E+00 0.97849716E+03</pdfrwt>
<pdfrwt beam="2">  1       -2 0.15294205E-01 0.97849716E+03</pdfrwt>
<totfact> 0.20695358E+02</totfact>
</mgrwt>
</event>
<event>
 4    1  0.6024609E-005  0.7280597E+03  0.7818608E-02  0.9670414E-01
         -2   -1    0    0    0  501 -0.00000000000E+00  0.00000000000E+00  0.11527614632E+03  0.11527614635E+03  0.25500000000E-02 0. -1.
          2   -1    0    0  501    0  0.00000000000E+00 -0.00000000000E+00 -0.11495676365E+04  0.11495676365E+04  0.25500000000E-02 0.  1.
    5000001    1    1    2    0    0 -0.18902670597E+03  0.50224735133E+02 -0.95447619310E+02  0.28758975577E+03  0.18800000000E+03 0.  0.
   -5000001    1    1    2    0    0  0.18902670597E+03 -0.50224735133E+02 -0.93884387088E+03  0.97725402709E+03  0.18800000000E+03 0.  0.
<mgrwt>
<rscale>  0 0.72805969E+03</rscale>
<asrwt>0</asrwt>
<pdfrwt beam="1">  1        2 0.16422394E+00 0.72805969E+03</pdfrwt>
<pdfrwt beam="2">  1       -2 0.16468022E-01 0.72805969E+03</pdfrwt>
<totfact> 0.68645547E+02</totfact>
</mgrwt>
</event>
<event>
 4    1  0.6024609E-005  0.6463752E+03  0.7818608E-02  0.9813605E-01
          2   -1    0    0  501    0  0.00000000000E+00  0.00000000000E+00  0.20798573071E+04  0.20798573071E+04  0.25500000000E-02 0.  1.
         -2   -1    0    0    0  501 -0.00000000000E+00 -0.00000000000E+00 -0.50219902450E+02  0.50219902515E+02  0.25500000000E-02 0. -1.
    5000001    1    1    2    0    0 -0.25628256639E+03 -0.51430333070E+02  0.11068782343E+04  0.11527572418E+04  0.18800000000E+03 0.  0.
   -5000001    1    1    2    0    0  0.25628256639E+03  0.51430333070E+02  0.92275917037E+03  0.97731996781E+03  0.18800000000E+03 0.  0.
<mgrwt>
<rscale>  0 0.64637522E+03</rscale>
<asrwt>0</asrwt>
<pdfrwt beam="1">  1        2 0.29712254E+00 0.64637522E+03</pdfrwt>
<pdfrwt beam="2">  1       -2 0.71742701E-02 0.64637522E+03</pdfrwt>
<totfact> 0.87802267E+02</totfact>
</mgrwt>
</event>
<event>
 4    1  0.6024609E-005  0.8175376E+03  0.7818608E-02  0.9534973E-01
          2   -1    0    0  501    0  0.00000000000E+00  0.00000000000E+00  0.58252378001E+03  0.58252378002E+03  0.25500000000E-02 0.  1.
         -2   -1    0    0    0  501 -0.00000000000E+00 -0.00000000000E+00 -0.28684141358E+03  0.28684141359E+03  0.25500000000E-02 0. -1.
    5000001    1    1    2    0    0 -0.87425573005E+02 -0.23879696700E+03 -0.12757747698E+03  0.34100914196E+03  0.18800000000E+03 0.  0.
   -5000001    1    1    2    0    0  0.87425573005E+02  0.23879696700E+03  0.42325984341E+03  0.52835605165E+03  0.18800000000E+03 0.  0.
<mgrwt>
<rscale>  0 0.81753763E+03</rscale>
<asrwt>0</asrwt>
<pdfrwt beam="1">  1        2 0.83217683E-01 0.81753763E+03</pdfrwt>
<pdfrwt beam="2">  1       -2 0.40977345E-01 0.81753763E+03</pdfrwt>
<totfact> 0.31837981E+02</totfact>
</mgrwt>
</event>
<event>
 4    1  0.6024609E-005  0.7606748E+03  0.7818608E-02  0.9618751E-01
          2   -1    0    0  501    0  0.00000000000E+00  0.00000000000E+00  0.17496087960E+04  0.17496087960E+04  0.25500000000E-02 0.  1.
         -2   -1    0    0    0  501 -0.00000000000E+00 -0.00000000000E+00 -0.82679354522E+02  0.82679354561E+02  0.25500000000E-02 0. -1.
    5000001    1    1    2    0    0 -0.27326488982E+03  0.13430662109E+03  0.11438178283E+04  0.11984887120E+04  0.18800000000E+03 0.  0.
   -5000001    1    1    2    0    0  0.27326488982E+03 -0.13430662109E+03  0.52311161319E+03  0.63379943856E+03  0.18800000000E+03 0.  0.
<mgrwt>
<rscale>  0 0.76067477E+03</rscale>
<asrwt>0</asrwt>
<pdfrwt beam="1">  1        2 0.24994410E+00 0.76067477E+03</pdfrwt>
<pdfrwt beam="2">  1       -2 0.11811337E-01 0.76067477E+03</pdfrwt>
<totfact> 0.57246535E+02</totfact>
</mgrwt>
</event>
<event>
 4    1  0.6024609E-005  0.6187005E+03  0.7818608E-02  0.9867350E-01
          2   -1    0    0  501    0  0.00000000000E+00  0.00000000000E+00  0.10012402777E+04  0.10012402777E+04  0.25500000000E-02 0.  1.
         -2   -1    0    0    0  501 -0.00000000000E+00 -0.00000000000E+00 -0.95579044056E+02  0.95579044090E+02  0.25500000000E-02 0. -1.
    5000001    1    1    2    0    0 -0.20366715250E+03  0.43211953765E+02  0.68401355127E+03  0.73930110258E+03  0.18800000000E+03 0.  0.
   -5000001    1    1    2    0    0  0.20366715250E+03 -0.43211953765E+02  0.22164768233E+03  0.35751821917E+03  0.18800000000E+03 0.  0.
<mgrwt>
<rscale>  0 0.61870054E+03</rscale>
<asrwt>0</asrwt>
<pdfrwt beam="1">  1        2 0.14303432E+00 0.61870054E+03</pdfrwt>
<pdfrwt beam="2">  1       -2 0.13654150E-01 0.61870054E+03</pdfrwt>
<totfact> 0.11562335E+03</totfact>
</mgrwt>
</event>
<event>
 4    1  0.6024609E-005  0.7102227E+03  0.7818608E-02  0.9699908E-01
         -2   -1    0    0    0  501 -0.00000000000E+00  0.00000000000E+00  0.74335443109E+02  0.74335443153E+02  0.25500000000E-02 0. -1.
          2   -1    0    0  501    0  0.00000000000E+00 -0.00000000000E+00 -0.16964190609E+04  0.16964190609E+04  0.25500000000E-02 0.  1.
    5000001    1    1    2    0    0 -0.26980763883E+03 -0.91582703769E+02 -0.10550292272E+04  0.11088797157E+04  0.18800000000E+03 0.  0.
   -5000001    1    1    2    0    0  0.26980763883E+03  0.91582703769E+02 -0.56705439061E+03  0.66187478840E+03  0.18800000000E+03 0.  0.
<mgrwt>
<rscale>  0 0.71022268E+03</rscale>
<asrwt>0</asrwt>
<pdfrwt beam="1">  1        2 0.24234556E+00 0.71022268E+03</pdfrwt>
<pdfrwt beam="2">  1       -2 0.10619350E-01 0.71022268E+03</pdfrwt>
<totfact> 0.72781298E+02</totfact>
</mgrwt>
</event>
<event>
 4    1  0.6024609E-005  0.7354275E+03  0.7818608E-02  0.9658494E-01
          2   -1    0    0  501    0  0.00000000000E+00  0.00000000000E+00  0.94261717115E+03  0.94261717115E+03  0.25500000000E-02 0.  1.
         -2   -1    0    0    0  501 -0.00000000000E+00 -0.00000000000E+00 -0.14344467340E+03  0.14344467342E+03  0.25500000000E-02 0. -1.
    5000001    1    1    2    0    0  0.57170659430E+02  0.30289563870E+03  0.50248650333E+03  0.61874949557E+03  0.18800000000E+03 0.  0.
   -5000001    1    1    2    0    0 -0.57170659430E+02 -0.30289563870E+03  0.29668599442E+03  0.46731234900E+03  0.18800000000E+03 0.  0.
<mgrwt>
<rscale>  0 0.73542753E+03</rscale>
<asrwt>0</asrwt>
<pdfrwt beam="1">  1        2 0.13465960E+00 0.73542753E+03</pdfrwt>
<pdfrwt beam="2">  1       -2 0.20492095E-01 0.73542753E+03</pdfrwt>
<totfact> 0.62616492E+02</totfact>
</mgrwt>
</event>
<event>
 4    1  0.6024609E-005  0.6258988E+03  0.7818608E-02  0.9853085E-01
         -2   -1    0    0    0  501 -0.00000000000E+00  0.00000000000E+00  0.37217743700E+02  0.37217743788E+02  0.25500000000E-02 0. -1.
          2   -1    0    0  501    0  0.00000000000E+00 -0.00000000000E+00 -0.26314688524E+04  0.26314688524E+04  0.25500000000E-02 0.  1.
    5000001    1    1    2    0    0  0.16175162624E+01  0.15186097850E+03 -0.44940807767E+03  0.51027051005E+03  0.18800000000E+03 0.  0.
   -5000001    1    1    2    0    0 -0.16175162624E+01 -0.15186097850E+03 -0.21448430311E+04  0.21584160862E+04  0.18800000000E+03 0.  0.
<mgrwt>
<rscale>  0 0.62589882E+03</rscale>
<asrwt>0</asrwt>
<pdfrwt beam="1">  1        2 0.37592400E+00 0.62589882E+03</pdfrwt>
<pdfrwt beam="2">  1       -2 0.53168222E-02 0.62589882E+03</pdfrwt>
<totfact> 0.73680147E+02</totfact>
</mgrwt>
</event>
<event>
 4    1  0.6024609E-005  0.6991863E+03  0.7818608E-02  0.9718625E-01
          2   -1    0    0  501    0  0.00000000000E+00  0.00000000000E+00  0.10105338259E+04  0.10105338259E+04  0.25500000000E-02 0.  1.
         -2   -1    0    0    0  501 -0.00000000000E+00 -0.00000000000E+00 -0.12094139291E+03  0.12094139294E+03  0.25500000000E-02 0. -1.
    5000001    1    1    2    0    0  0.96387592620E+02 -0.27289472190E+03  0.53503255103E+03  0.63668353827E+03  0.18800000000E+03 0.  0.
   -5000001    1    1    2    0    0 -0.96387592620E+02  0.27289472190E+03  0.35455988195E+03  0.49479168055E+03  0.18800000000E+03 0.  0.
<mgrwt>
<rscale>  0 0.69918629E+03</rscale>
<asrwt>0</asrwt>
<pdfrwt beam="1">  1        2 0.14436197E+00 0.69918629E+03</pdfrwt>
<pdfrwt beam="2">  1       -2 0.17277342E-01 0.69918629E+03</pdfrwt>
<totfact> 0.76479821E+02</totfact>
</mgrwt>
</event>
<event>
 4    1  0.6024609E-005  0.5408195E+03  0.7818608E-02  0.1003641E+00
          2   -1    0    0  501    0  0.00000000000E+00  0.00000000000E+00  0.95930251364E+03  0.95930251365E+03  0.25500000000E-02 0.  1.
         -2   -1    0    0    0  501 -0.00000000000E+00 -0.00000000000E+00 -0.76223528330E+02  0.76223528372E+02  0.25500000000E-02 0. -1.
    5000001    1    1    2    0    0  0.17399794509E+03 -0.79150719952E+02  0.50889085636E+03  0.57519911774E+03  0.18800000000E+03 0.  0.
   -5000001    1    1    2    0    0 -0.17399794509E+03  0.79150719952E+02  0.37418812896E+03  0.46032692428E+03  0.18800000000E+03 0.  0.
<mgrwt>
<rscale>  0 0.54081946E+03</rscale>
<asrwt>0</asrwt>
<pdfrwt beam="1">  1        2 0.13704321E+00 0.54081946E+03</pdfrwt>
<pdfrwt beam="2">  1       -2 0.10889076E-01 0.54081946E+03</pdfrwt>
<totfact> 0.17837525E+03</totfact>
</mgrwt>
</event>
<event>
 4    1  0.6024609E-005  0.5938487E+03  0.7818608E-02  0.9918251E-01
          2   -1    0    0  501    0  0.00000000000E+00  0.00000000000E+00  0.32873629025E+03  0.32873629026E+03  0.25500000000E-02 0.  1.
         -2   -1    0    0    0  501 -0.00000000000E+00 -0.00000000000E+00 -0.26819087027E+03  0.26819087028E+03  0.25500000000E-02 0. -1.
    5000001    1    1    2    0    0  0.17448960851E+03 -0.14607971650E+03  0.62597847840E+02  0.30174227017E+03  0.18800000000E+03 0.  0.
   -5000001    1    1    2    0    0 -0.17448960851E+03  0.14607971650E+03 -0.20524278584E+01  0.29518489038E+03  0.18800000000E+03 0.  0.
<mgrwt>
<rscale>  0 0.59384871E+03</rscale>
<asrwt>0</asrwt>
<pdfrwt beam="1">  1        2 0.46962327E-01 0.59384871E+03</pdfrwt>
<pdfrwt beam="2">  1       -2 0.38312982E-01 0.59384871E+03</pdfrwt>
<totfact> 0.69662928E+02</totfact>
</mgrwt>
</event>
<event>
 4    1  0.6024609E-005  0.6898265E+03  0.7818608E-02  0.9734790E-01
         -2   -1    0    0    0  501 -0.00000000000E+00  0.00000000000E+00  0.25285656463E+03  0.25285656465E+03  0.25500000000E-02 0. -1.
          2   -1    0    0  501    0  0.00000000000E+00 -0.00000000000E+00 -0.47048477770E+03  0.47048477771E+03  0.25500000000E-02 0.  1.
    5000001    1    1    2    0    0 -0.91479011774E+02  0.20226818740E+03  0.85500592085E+02  0.30320814711E+03  0.18800000000E+03 0.  0.
   -5000001    1    1    2    0    0  0.91479011774E+02 -0.20226818740E+03 -0.30312880515E+03  0.42013319524E+03  0.18800000000E+03 0.  0.
<mgrwt>
<rscale>  0 0.68982654E+03</rscale>
<asrwt>0</asrwt>
<pdfrwt beam="1">  1        2 0.67212110E-01 0.68982654E+03</pdfrwt>
<pdfrwt beam="2">  1       -2 0.36122367E-01 0.68982654E+03</pdfrwt>
<totfact> 0.52203555E+02</totfact>
</mgrwt>
</event>
<event>
 4    1  0.6024609E-005  0.4724718E+03  0.7818608E-02  0.1021225E+00
          2   -1    0    0  501    0  0.00000000000E+00  0.00000000000E+00  0.15565658844E+04  0.15565658844E+04  0.25500000000E-02 0.  1.
         -2   -1    0    0    0  501 -0.00000000000E+00 -0.00000000000E+00 -0.35852902236E+02  0.35852902327E+02  0.25500000000E-02 0. -1.
    5000001    1    1    2    0    0 -0.99210244186E+02 -0.41754441936E+02  0.10779135696E+04  0.10994670389E+04  0.18800000000E+03 0.  0.
   -5000001    1    1    2    0    0  0.99210244186E+02  0.41754441936E+02  0.44279941251E+03  0.49295174783E+03  0.18800000000E+03 0.  0.
<mgrwt>
<rscale>  0 0.47247182E+03</rscale>
<asrwt>0</asrwt>
<pdfrwt beam="1">  1        2 0.22236659E+00 0.47247182E+03</pdfrwt>
<pdfrwt beam="2">  1       -2 0.51218424E-02 0.47247182E+03</pdfrwt>
<totfact> 0.27525218E+03</totfact>
</mgrwt>
</event>
<event>
 4    1  0.6024609E-005  0.7128862E+03  0.7818608E-02  0.9695445E-01
         -2   -1    0    0    0  501 -0.00000000000E+00  0.00000000000E+00  0.11910425877E+03  0.11910425879E+03  0.25500000000E-02 0. -1.
          2   -1    0    0  501    0  0.00000000000E+00 -0.00000000000E+00 -0.10667267352E+04  0.10667267352E+04  0.25500000000E-02 0.  1.
    5000001    1    1    2    0    0 -0.25538310015E+03 -0.15796278130E+03 -0.53898108680E+03  0.64499409303E+03  0.18800000000E+03 0.  0.
   -5000001    1    1    2    0    0  0.25538310015E+03  0.15796278130E+03 -0.40864138961E+03  0.54083690094E+03  0.18800000000E+03 0.  0.
<mgrwt>
<rscale>  0 0.71288624E+03</rscale>
<asrwt>0</asrwt>
<pdfrwt beam="1">  1        2 0.15238953E+00 0.71288624E+03</pdfrwt>
<pdfrwt beam="2">  1       -2 0.17014895E-01 0.71288624E+03</pdfrwt>
<totfact> 0.72602154E+02</totfact>
</mgrwt>
</event>
<event>
 4    1  0.6024609E-005  0.4638565E+03  0.7818608E-02  0.1023669E+00
         -2   -1    0    0    0  501 -0.00000000000E+00  0.00000000000E+00  0.14349030876E+03  0.14349030879E+03  0.25500000000E-02 0. -1.
          2   -1    0    0  501    0  0.00000000000E+00 -0.00000000000E+00 -0.37487348279E+03  0.37487348280E+03  0.25500000000E-02 0.  1.
    5000001    1    1    2    0    0  0.25235717342E+02 -0.10704950614E+03 -0.20474431653E+03  0.29893255652E+03  0.18800000000E+03 0.  0.
   -5000001    1    1    2    0    0 -0.25235717342E+02  0.10704950614E+03 -0.26638857500E+02  0.21943123507E+03  0.18800000000E+03 0.  0.
<mgrwt>
<rscale>  0 0.46385649E+03</rscale>
<asrwt>0</asrwt>
<pdfrwt beam="1">  1        2 0.53553354E-01 0.46385649E+03</pdfrwt>
<pdfrwt beam="2">  1       -2 0.20498616E-01 0.46385649E+03</pdfrwt>
<totfact> 0.18876971E+03</totfact>
</mgrwt>
</event>
<event>
 4    1  0.6024609E-005  0.1423289E+04  0.7818608E-02  0.8937131E-01
          2   -1    0    0  501    0  0.00000000000E+00  0.00000000000E+00  0.60666271914E+03  0.60666271915E+03  0.25500000000E-02 0.  1.
         -2   -1    0    0    0  501 -0.00000000000E+00 -0.00000000000E+00 -0.83479367946E+03  0.83479367946E+03  0.25500000000E-02 0. -1.
    5000001    1    1    2    0    0  0.35570215643E+03  0.58550264234E+03 -0.15651509961E+03  0.72744645486E+03  0.18800000000E+03 0.  0.
   -5000001    1    1    2    0    0 -0.35570215643E+03 -0.58550264234E+03 -0.71615860705E+02  0.71400994375E+03  0.18800000000E+03 0.  0.
<mgrwt>
<rscale>  0 0.14232894E+04</rscale>
<asrwt>0</asrwt>
<pdfrwt beam="1">  1        2 0.86666103E-01 0.14232894E+04</pdfrwt>
<pdfrwt beam="2">  1       -2 0.11925624E+00 0.14232894E+04</pdfrwt>
<totfact> 0.28106495E+01</totfact>
</mgrwt>
</event>
<event>
 4    1  0.6024609E-005  0.5609293E+03  0.7818608E-02  0.9989954E-01
         -2   -1    0    0    0  501 -0.00000000000E+00  0.00000000000E+00  0.17200427207E+03  0.17200427209E+03  0.25500000000E-02 0. -1.
          2   -1    0    0  501    0  0.00000000000E+00 -0.00000000000E+00 -0.45731658521E+03  0.45731658522E+03  0.25500000000E-02 0.  1.
    5000001    1    1    2    0    0  0.87652683169E+02  0.18090819707E+03 -0.82179918287E+02  0.28724259365E+03  0.18800000000E+03 0.  0.
   -5000001    1    1    2    0    0 -0.87652683169E+02 -0.18090819707E+03 -0.20313239485E+03  0.34207826366E+03  0.18800000000E+03 0.  0.
<mgrwt>
<rscale>  0 0.56092925E+03</rscale>
<asrwt>0</asrwt>
<pdfrwt beam="1">  1        2 0.65330940E-01 0.56092925E+03</pdfrwt>
<pdfrwt beam="2">  1       -2 0.24572039E-01 0.56092925E+03</pdfrwt>
<totfact> 0.11005705E+03</totfact>
</mgrwt>
</event>
<event>
 4    1  0.6024609E-005  0.5571198E+03  0.7818608E-02  0.9998593E-01
          2   -1    0    0  501    0  0.00000000000E+00  0.00000000000E+00  0.29437150736E+04  0.29437150736E+04  0.25500000000E-02 0.  1.
         -2   -1    0    0    0  501 -0.00000000000E+00 -0.00000000000E+00 -0.26359762228E+02  0.26359762352E+02  0.25500000000E-02 0. -1.
    5000001    1    1    2    0    0  0.15594681239E+03 -0.30569807895E+02  0.76363101295E+03  0.80232801608E+03  0.18800000000E+03 0.  0.
   -5000001    1    1    2    0    0 -0.15594681239E+03  0.30569807895E+02  0.21537242984E+04  0.21677468199E+04  0.18800000000E+03 0.  0.
<mgrwt>
<rscale>  0 0.55711984E+03</rscale>
<asrwt>0</asrwt>
<pdfrwt beam="1">  1        2 0.42053082E+00 0.55711984E+03</pdfrwt>
<pdfrwt beam="2">  1       -2 0.37656795E-02 0.55711984E+03</pdfrwt>
<totfact> 0.86302121E+02</totfact>
</mgrwt>
</event>
<event>
 4    1  0.6024609E-005  0.5202366E+03  0.7818608E-02  0.1008628E+00
         -2   -1    0    0    0  501 -0.00000000000E+00  0.00000000000E+00  0.16267612440E+03  0.16267612442E+03  0.25500000000E-02 0. -1.
          2   -1    0    0  501    0  0.00000000000E+00 -0.00000000000E+00 -0.41592779762E+03  0.41592779763E+03  0.25500000000E-02 0.  1.
    5000001    1    1    2    0    0 -0.17526342535E+03 -0.21872588325E+01 -0.17105056572E+03  0.30874641439E+03  0.18800000000E+03 0.  0.
   -5000001    1    1    2    0    0  0.17526342535E+03  0.21872588325E+01 -0.82201107508E+02  0.26985750766E+03  0.18800000000E+03 0.  0.
<mgrwt>
<rscale>  0 0.52023657E+03</rscale>
<asrwt>0</asrwt>
<pdfrwt beam="1">  1        2 0.59418256E-01 0.52023657E+03</pdfrwt>
<pdfrwt beam="2">  1       -2 0.23239447E-01 0.52023657E+03</pdfrwt>
<totfact> 0.13511812E+03</totfact>
</mgrwt>
</event>
<event>
 4    1  0.6024609E-005  0.5221362E+03  0.7818608E-02  0.1008157E+00
          2   -1    0    0  501    0  0.00000000000E+00  0.00000000000E+00  0.50812719303E+02  0.50812719367E+02  0.25500000000E-02 0.  1.
         -2   -1    0    0    0  501 -0.00000000000E+00 -0.00000000000E+00 -0.13413285302E+04  0.13413285302E+04  0.25500000000E-02 0. -1.
    5000001    1    1    2    0    0 -0.50662198555E+01  0.11177229479E+03 -0.26543460997E+03  0.34397419182E+03  0.18800000000E+03 0.  0.
   -5000001    1    1    2    0    0  0.50662198555E+01 -0.11177229479E+03 -0.10250812010E+04  0.10481670578E+04  0.18800000000E+03 0.  0.
<mgrwt>
<rscale>  0 0.52213619E+03</rscale>
<asrwt>0</asrwt>
<pdfrwt beam="1">  1        2 0.72589608E-02 0.52213619E+03</pdfrwt>
<pdfrwt beam="2">  1       -2 0.19161834E+00 0.52213619E+03</pdfrwt>
<totfact> 0.15602898E+02</totfact>
</mgrwt>
</event>
<event>
 4    1  0.6024609E-005  0.5436359E+03  0.7818608E-02  0.1002978E+00
         -2   -1    0    0    0  501 -0.00000000000E+00  0.00000000000E+00  0.81439625904E+02  0.81439625944E+02  0.25500000000E-02 0. -1.
          2   -1    0    0  501    0  0.00000000000E+00 -0.00000000000E+00 -0.90723634729E+03  0.90723634729E+03  0.25500000000E-02 0.  1.
    5000001    1    1    2    0    0  0.12557157441E+03 -0.13922167926E+03 -0.51878755676E+03  0.58278248543E+03  0.18800000000E+03 0.  0.
   -5000001    1    1    2    0    0 -0.12557157441E+03  0.13922167926E+03 -0.30700916462E+03  0.40589348780E+03  0.18800000000E+03 0.  0.
<mgrwt>
<rscale>  0 0.54363587E+03</rscale>
<asrwt>0</asrwt>
<pdfrwt beam="1">  1        2 0.12960519E+00 0.54363587E+03</pdfrwt>
<pdfrwt beam="2">  1       -2 0.11634233E-01 0.54363587E+03</pdfrwt>
<totfact> 0.17265677E+03</totfact>
</mgrwt>
</event>
<event>
 4    1  0.6024609E-005  0.5130853E+03  0.7818608E-02  0.1010419E+00
          2   -1    0    0  501    0  0.00000000000E+00  0.00000000000E+00  0.56698362523E+03  0.56698362524E+03  0.25500000000E-02 0.  1.
         -2   -1    0    0    0  501 -0.00000000000E+00 -0.00000000000E+00 -0.11607764547E+03  0.11607764550E+03  0.25500000000E-02 0. -1.
    5000001    1    1    2    0    0  0.11904297637E+03 -0.44893005358E+02  0.66346602053E+02  0.23650049420E+03  0.18800000000E+03 0.  0.
   -5000001    1    1    2    0    0 -0.11904297637E+03  0.44893005358E+02  0.38455937771E+03  0.44656077653E+03  0.18800000000E+03 0.  0.
<mgrwt>
<rscale>  0 0.51308527E+03</rscale>
<asrwt>0</asrwt>
<pdfrwt beam="1">  1        2 0.80997662E-01 0.51308527E+03</pdfrwt>
<pdfrwt beam="2">  1       -2 0.16582521E-01 0.51308527E+03</pdfrwt>
<totfact> 0.17086720E+03</totfact>
</mgrwt>
</event>
<event>
 4    1  0.6024609E-005  0.1045161E+04  0.7818608E-02  0.9260354E-01
         -2   -1    0    0    0  501 -0.00000000000E+00  0.00000000000E+00  0.41980636657E+03  0.41980636657E+03  0.25500000000E-02 0. -1.
          2   -1    0    0  501    0  0.00000000000E+00 -0.00000000000E+00 -0.65051505743E+03  0.65051505743E+03  0.25500000000E-02 0.  1.
    5000001    1    1    2    0    0 -0.45825155444E+03  0.14018990876E+03 -0.20751334531E+03  0.55502566260E+03  0.18800000000E+03 0.  0.
   -5000001    1    1    2    0    0  0.45825155444E+03 -0.14018990876E+03 -0.23195345551E+02  0.51529576141E+03  0.18800000000E+03 0.  0.
<mgrwt>
<rscale>  0 0.10451610E+04</rscale>
<asrwt>0</asrwt>
<pdfrwt beam="1">  1        2 0.92930722E-01 0.10451610E+04</pdfrwt>
<pdfrwt beam="2">  1       -2 0.59972339E-01 0.10451610E+04</pdfrwt>
<totfact> 0.12721555E+02</totfact>
</mgrwt>
</event>
<event>
 4    1  0.6024609E-005  0.4813474E+03  0.7818608E-02  0.1018766E+00
          2   -1    0    0  501    0  0.00000000000E+00  0.00000000000E+00  0.30621961675E+03  0.30621961676E+03  0.25500000000E-02 0.  1.
         -2   -1    0    0    0  501 -0.00000000000E+00 -0.00000000000E+00 -0.18915779771E+03  0.18915779772E+03  0.25500000000E-02 0. -1.
    5000001    1    1    2    0    0 -0.68581686959E+02  0.77481299053E+02  0.17067033813E+03  0.27418819049E+03  0.18800000000E+03 0.  0.
   -5000001    1    1    2    0    0  0.68581686959E+02 -0.77481299053E+02 -0.53608519091E+02  0.22118922399E+03  0.18800000000E+03 0.  0.
<mgrwt>
<rscale>  0 0.48134739E+03</rscale>
<asrwt>0</asrwt>
<pdfrwt beam="1">  1        2 0.43745659E-01 0.48134739E+03</pdfrwt>
<pdfrwt beam="2">  1       -2 0.27022543E-01 0.48134739E+03</pdfrwt>
<totfact> 0.14448155E+03</totfact>
</mgrwt>
</event>
<event>
 4    1  0.6024609E-005  0.7355277E+03  0.7818608E-02  0.9658333E-01
         -2   -1    0    0    0  501 -0.00000000000E+00  0.00000000000E+00  0.47264331433E+03  0.47264331434E+03  0.25500000000E-02 0. -1.
          2   -1    0    0  501    0  0.00000000000E+00 -0.00000000000E+00 -0.28615709090E+03  0.28615709091E+03  0.25500000000E-02 0.  1.
    5000001    1    1    2    0    0  0.19064616242E+03  0.14271325697E+03 -0.12116254914E+03  0.32670689658E+03  0.18800000000E+03 0.  0.
   -5000001    1    1    2    0    0 -0.19064616242E+03 -0.14271325697E+03  0.30764877258E+03  0.43209350867E+03  0.18800000000E+03 0.  0.
<mgrwt>
<rscale>  0 0.73552766E+03</rscale>
<asrwt>0</asrwt>
<pdfrwt beam="1">  1        2 0.40879585E-01 0.73552766E+03</pdfrwt>
<pdfrwt beam="2">  1       -2 0.67520473E-01 0.73552766E+03</pdfrwt>
<totfact> 0.25498115E+02</totfact>
</mgrwt>
</event>
<event>
 4    1  0.6024609E-005  0.4317008E+03  0.7818608E-02  0.1033324E+00
         -2   -1    0    0    0  501 -0.00000000000E+00  0.00000000000E+00  0.98429255808E+01  0.98429259111E+01  0.25500000000E-02 0.  1.
          2   -1    0    0  501    0  0.00000000000E+00 -0.00000000000E+00 -0.47334906240E+04  0.47334906240E+04  0.25500000000E-02 0. -1.
    5000001    1    1    2    0    0  0.19368567590E+02  0.92945454955E+02 -0.18425650802E+04  0.18545630412E+04  0.18800000000E+03 0.  0.
   -5000001    1    1    2    0    0 -0.19368567590E+02 -0.92945454955E+02 -0.28810826182E+04  0.28887705087E+04  0.18800000000E+03 0.  0.
<mgrwt>
<rscale>  0 0.43170081E+03</rscale>
<asrwt>0</asrwt>
<pdfrwt beam="1">  1        2 0.67621149E+00 0.43170081E+03</pdfrwt>
<pdfrwt beam="2">  1       -2 0.14061353E-02 0.43170081E+03</pdfrwt>
<totfact> 0.26202929E+02</totfact>
</mgrwt>
</event>
<event>
 4    1  0.6024609E-005  0.5174914E+03  0.7818608E-02  0.1009312E+00
         -2   -1    0    0    0  501 -0.00000000000E+00  0.00000000000E+00  0.21431891497E+02  0.21431891648E+02  0.25500000000E-02 0.  1.
          2   -1    0    0  501    0  0.00000000000E+00 -0.00000000000E+00 -0.31238182709E+04  0.31238182709E+04  0.25500000000E-02 0. -1.
    5000001    1    1    2    0    0 -0.10208768701E+03  0.13584514111E+03 -0.18687317717E+04  0.18858362158E+04  0.18800000000E+03 0.  0.
   -5000001    1    1    2    0    0  0.10208768701E+03 -0.13584514111E+03 -0.12336546077E+04  0.12594139468E+04  0.18800000000E+03 0.  0.
<mgrwt>
<rscale>  0 0.51749139E+03</rscale>
<asrwt>0</asrwt>
<pdfrwt beam="1">  1        2 0.44625946E+00 0.51749139E+03</pdfrwt>
<pdfrwt beam="2">  1       -2 0.30617008E-02 0.51749139E+03</pdfrwt>
<totfact> 0.94706176E+02</totfact>
</mgrwt>
</event>
<event>
 4    1  0.6024609E-005  0.7110910E+03  0.7818608E-02  0.9698451E-01
         -2   -1    0    0    0  501 -0.00000000000E+00  0.00000000000E+00  0.20488698256E+03  0.20488698258E+03  0.25500000000E-02 0. -1.
          2   -1    0    0  501    0  0.00000000000E+00 -0.00000000000E+00 -0.61698703147E+03  0.61698703148E+03  0.25500000000E-02 0.  1.
    5000001    1    1    2    0    0 -0.20532565807E+03 -0.21307831188E+03 -0.13759801265E+03  0.37661413402E+03  0.18800000000E+03 0.  0.
   -5000001    1    1    2    0    0  0.20532565807E+03  0.21307831188E+03 -0.27450203626E+03  0.44525988004E+03  0.18800000000E+03 0.  0.
<mgrwt>
<rscale>  0 0.71109102E+03</rscale>
<asrwt>0</asrwt>
<pdfrwt beam="1">  1        2 0.88141004E-01 0.71109102E+03</pdfrwt>
<pdfrwt beam="2">  1       -2 0.29269569E-01 0.71109102E+03</pdfrwt>
<totfact> 0.56565023E+02</totfact>
</mgrwt>
</event>
<event>
 4    1  0.6024609E-005  0.4069589E+03  0.7818608E-02  0.1041396E+00
         -2   -1    0    0    0  501 -0.00000000000E+00  0.00000000000E+00  0.46684195643E+03  0.46684195644E+03  0.25500000000E-02 0. -1.
          2   -1    0    0  501    0  0.00000000000E+00 -0.00000000000E+00 -0.88689318187E+02  0.88689318223E+02  0.25500000000E-02 0.  1.
    5000001    1    1    2    0    0  0.42926282908E+02  0.62004445339E+02  0.16272364483E+03  0.25982725337E+03  0.18800000000E+03 0.  0.
   -5000001    1    1    2    0    0 -0.42926282908E+02 -0.62004445339E+02  0.21542899341E+03  0.29570402129E+03  0.18800000000E+03 0.  0.
<mgrwt>
<rscale>  0 0.40695894E+03</rscale>
<asrwt>0</asrwt>
<pdfrwt beam="1">  1        2 0.12669902E-01 0.40695894E+03</pdfrwt>
<pdfrwt beam="2">  1       -2 0.66691709E-01 0.40695894E+03</pdfrwt>
<totfact> 0.10195207E+03</totfact>
</mgrwt>
</event>
<event>
 4    1  0.6024609E-005  0.7163494E+03  0.7818608E-02  0.9689674E-01
         -2   -1    0    0    0  501 -0.00000000000E+00  0.00000000000E+00  0.47544778851E+03  0.47544778851E+03  0.25500000000E-02 0. -1.
          2   -1    0    0  501    0  0.00000000000E+00 -0.00000000000E+00 -0.26982799910E+03  0.26982799911E+03  0.25500000000E-02 0.  1.
    5000001    1    1    2    0    0  0.18213433459E+03  0.76856093193E+01  0.35704004401E+03  0.44277937785E+03  0.18800000000E+03 0.  0.
   -5000001    1    1    2    0    0 -0.18213433459E+03 -0.76856093193E+01 -0.15142025460E+03  0.30249640978E+03  0.18800000000E+03 0.  0.
<mgrwt>
<rscale>  0 0.71634943E+03</rscale>
<asrwt>0</asrwt>
<pdfrwt beam="1">  1        2 0.38546857E-01 0.71634943E+03</pdfrwt>
<pdfrwt beam="2">  1       -2 0.67921112E-01 0.71634943E+03</pdfrwt>
<totfact> 0.26888190E+02</totfact>
</mgrwt>
</event>
<event>
 4    1  0.6024609E-005  0.1335602E+04  0.7818608E-02  0.9001799E-01
         -2   -1    0    0    0  501 -0.00000000000E+00  0.00000000000E+00  0.24565355326E+03  0.24565355328E+03  0.25500000000E-02 0. -1.
          2   -1    0    0  501    0  0.00000000000E+00 -0.00000000000E+00 -0.18153945733E+04  0.18153945733E+04  0.25500000000E-02 0.  1.
    5000001    1    1    2    0    0 -0.32479005268E+03 -0.42696336085E+03 -0.13256989220E+04  0.14424312537E+04  0.18800000000E+03 0.  0.
   -5000001    1    1    2    0    0  0.32479005268E+03  0.42696336085E+03 -0.24404209806E+03  0.61861687292E+03  0.18800000000E+03 0.  0.
<mgrwt>
<rscale>  0 0.13356019E+04</rscale>
<asrwt>0</asrwt>
<pdfrwt beam="1">  1        2 0.25934207E+00 0.13356019E+04</pdfrwt>
<pdfrwt beam="2">  1       -2 0.35093366E-01 0.13356019E+04</pdfrwt>
<totfact> 0.74489111E+01</totfact>
</mgrwt>
</event>
<event>
 4    1  0.6024609E-005  0.6866676E+03  0.7818608E-02  0.9740308E-01
          2   -1    0    0  501    0  0.00000000000E+00  0.00000000000E+00  0.82925650622E+03  0.82925650623E+03  0.25500000000E-02 0.  1.
         -2   -1    0    0    0  501 -0.00000000000E+00 -0.00000000000E+00 -0.14214912539E+03  0.14214912541E+03  0.25500000000E-02 0. -1.
    5000001    1    1    2    0    0 -0.75068388471E+02 -0.19636073732E+03  0.62055856617E+03  0.68163754016E+03  0.18800000000E+03 0.  0.
   -5000001    1    1    2    0    0  0.75068388471E+02  0.19636073732E+03  0.66548814668E+02  0.28976809148E+03  0.18800000000E+03 0.  0.
<mgrwt>
<rscale>  0 0.68666757E+03</rscale>
<asrwt>0</asrwt>
<pdfrwt beam="1">  1        2 0.11846521E+00 0.68666757E+03</pdfrwt>
<pdfrwt beam="2">  1       -2 0.20307018E-01 0.68666757E+03</pdfrwt>
<totfact> 0.75613369E+02</totfact>
</mgrwt>
</event>
<event>
 4    1  0.6024609E-005  0.7166156E+03  0.7818608E-02  0.9689232E-01
         -2   -1    0    0    0  501 -0.00000000000E+00  0.00000000000E+00  0.23756284522E+03  0.23756284523E+03  0.25500000000E-02 0. -1.
          2   -1    0    0  501    0  0.00000000000E+00 -0.00000000000E+00 -0.54042326208E+03  0.54042326208E+03  0.25500000000E-02 0.  1.
    5000001    1    1    2    0    0 -0.67354112329E+01  0.22522868749E+03  0.71766150431E+02  0.30210545804E+03  0.18800000000E+03 0.  0.
   -5000001    1    1    2    0    0  0.67354112329E+01 -0.22522868749E+03 -0.37462656729E+03  0.47588064927E+03  0.18800000000E+03 0.  0.
<mgrwt>
<rscale>  0 0.71661562E+03</rscale>
<asrwt>0</asrwt>
<pdfrwt beam="1">  1        2 0.77203323E-01 0.71661562E+03</pdfrwt>
<pdfrwt beam="2">  1       -2 0.33937550E-01 0.71661562E+03</pdfrwt>
<totfact> 0.50116280E+02</totfact>
</mgrwt>
</event>
<event>
 4    1  0.6024609E-005  0.4346281E+03  0.7818608E-02  0.1032408E+00
          2   -1    0    0  501    0  0.00000000000E+00  0.00000000000E+00  0.26266673235E+04  0.26266673235E+04  0.25500000000E-02 0.  1.
         -2   -1    0    0    0  501 -0.00000000000E+00 -0.00000000000E+00 -0.17979211070E+02  0.17979211251E+02  0.25500000000E-02 0. -1.
    5000001    1    1    2    0    0 -0.82464817658E+02 -0.55903680417E+02  0.15734388009E+04  0.15877592159E+04  0.18800000000E+03 0.  0.
   -5000001    1    1    2    0    0  0.82464817658E+02  0.55903680417E+02  0.10352493116E+04  0.10568873188E+04  0.18800000000E+03 0.  0.
<mgrwt>
<rscale>  0 0.43462815E+03</rscale>
<asrwt>0</asrwt>
<pdfrwt beam="1">  1        2 0.37523800E+00 0.43462815E+03</pdfrwt>
<pdfrwt beam="2">  1       -2 0.25684600E-02 0.43462815E+03</pdfrwt>
<totfact> 0.22836035E+03</totfact>
</mgrwt>
</event>
<event>
 4    1  0.6024609E-005  0.1580795E+04  0.7818608E-02  0.8832434E-01
          2   -1    0    0  501    0  0.00000000000E+00  0.00000000000E+00  0.66218905735E+03  0.66218905736E+03  0.25500000000E-02 0.  1.
         -2   -1    0    0    0  501 -0.00000000000E+00 -0.00000000000E+00 -0.94342932999E+03  0.94342932999E+03  0.25500000000E-02 0. -1.
    5000001    1    1    2    0    0 -0.53682016990E+03 -0.46114362112E+03  0.16163507261E+03  0.74986614193E+03  0.18800000000E+03 0.  0.
   -5000001    1    1    2    0    0  0.53682016990E+03  0.46114362112E+03 -0.44287534525E+03  0.85575224542E+03  0.18800000000E+03 0.  0.
<mgrwt>
<rscale>  0 0.15807955E+04</rscale>
<asrwt>0</asrwt>
<pdfrwt beam="1">  1        2 0.94598437E-01 0.15807955E+04</pdfrwt>
<pdfrwt beam="2">  1       -2 0.13477562E+00 0.15807955E+04</pdfrwt>
<totfact> 0.18369764E+01</totfact>
</mgrwt>
</event>
<event>
 4    1  0.6024609E-005  0.6467851E+03  0.7818608E-02  0.9812831E-01
         -2   -1    0    0    0  501 -0.00000000000E+00  0.00000000000E+00  0.50197427141E+02  0.50197427206E+02  0.25500000000E-02 0. -1.
          2   -1    0    0  501    0  0.00000000000E+00 -0.00000000000E+00 -0.20834280048E+04  0.20834280048E+04  0.25500000000E-02 0.  1.
    5000001    1    1    2    0    0  0.24725732007E+03  0.76407356356E+02 -0.11735938875E+04  0.12164048993E+04  0.18800000000E+03 0.  0.
   -5000001    1    1    2    0    0 -0.24725732007E+03 -0.76407356356E+02 -0.85963669024E+03  0.91722053271E+03  0.18800000000E+03 0.  0.
<mgrwt>
<rscale>  0 0.64678505E+03</rscale>
<asrwt>0</asrwt>
<pdfrwt beam="1">  1        2 0.29763252E+00 0.64678505E+03</pdfrwt>
<pdfrwt beam="2">  1       -2 0.71710623E-02 0.64678505E+03</pdfrwt>
<totfact> 0.87499398E+02</totfact>
</mgrwt>
</event>
<event>
 4    1  0.6024609E-005  0.5170904E+03  0.7818608E-02  0.1009412E+00
          2   -1    0    0  501    0  0.00000000000E+00  0.00000000000E+00  0.74756410845E+03  0.74756410846E+03  0.25500000000E-02 0.  1.
         -2   -1    0    0    0  501 -0.00000000000E+00 -0.00000000000E+00 -0.89417902605E+02  0.89417902641E+02  0.25500000000E-02 0. -1.
    5000001    1    1    2    0    0 -0.37040279405E+02 -0.17354592149E+03  0.33454914709E+03  0.42279699737E+03  0.18800000000E+03 0.  0.
   -5000001    1    1    2    0    0  0.37040279405E+02  0.17354592149E+03  0.32359705875E+03  0.41418501373E+03  0.18800000000E+03 0.  0.
<mgrwt>
<rscale>  0 0.51709038E+03</rscale>
<asrwt>0</asrwt>
<pdfrwt beam="1">  1        2 0.10679487E+00 0.51709038E+03</pdfrwt>
<pdfrwt beam="2">  1       -2 0.12773987E-01 0.51709038E+03</pdfrwt>
<totfact> 0.18997598E+03</totfact>
</mgrwt>
</event>
<event>
 4    1  0.6024609E-005  0.8164107E+03  0.7818608E-02  0.9536562E-01
          2   -1    0    0  501    0  0.00000000000E+00  0.00000000000E+00  0.20524042816E+04  0.20524042816E+04  0.25500000000E-02 0.  1.
         -2   -1    0    0    0  501 -0.00000000000E+00 -0.00000000000E+00 -0.81188493893E+02  0.81188493933E+02  0.25500000000E-02 0. -1.
    5000001    1    1    2    0    0 -0.11344499343E+02 -0.32479789574E+03  0.56693435060E+03  0.67998597680E+03  0.18800000000E+03 0.  0.
   -5000001    1    1    2    0    0  0.11344499343E+02  0.32479789574E+03  0.14042814371E+04  0.14536067987E+04  0.18800000000E+03 0.  0.
<mgrwt>
<rscale>  0 0.81641071E+03</rscale>
<asrwt>0</asrwt>
<pdfrwt beam="1">  1        2 0.29320054E+00 0.81641071E+03</pdfrwt>
<pdfrwt beam="2">  1       -2 0.11598359E-01 0.81641071E+03</pdfrwt>
<totfact> 0.41255686E+02</totfact>
</mgrwt>
</event>
<event>
 4    1  0.6024609E-005  0.5692855E+03  0.7818608E-02  0.9971261E-01
          2   -1    0    0  501    0  0.00000000000E+00  0.00000000000E+00  0.17359779725E+04  0.17359779725E+04  0.25500000000E-02 0.  1.
         -2   -1    0    0    0  501 -0.00000000000E+00 -0.00000000000E+00 -0.46671957676E+02  0.46671957746E+02  0.25500000000E-02 0. -1.
    5000001    1    1    2    0    0 -0.10490367181E+03 -0.13104553934E+03  0.12588931773E+04  0.12838745054E+04  0.18800000000E+03 0.  0.
   -5000001    1    1    2    0    0  0.10490367181E+03  0.13104553934E+03  0.43041283755E+03  0.49877542488E+03  0.18800000000E+03 0.  0.
<mgrwt>
<rscale>  0 0.56928548E+03</rscale>
<asrwt>0</asrwt>
<pdfrwt beam="1">  1        2 0.24799681E+00 0.56928548E+03</pdfrwt>
<pdfrwt beam="2">  1       -2 0.66674236E-02 0.56928548E+03</pdfrwt>
<totfact> 0.14746305E+03</totfact>
</mgrwt>
</event>
<event>
 4    1  0.6024609E-005  0.5976614E+03  0.7818608E-02  0.9910270E-01
          2   -1    0    0  501    0  0.00000000000E+00  0.00000000000E+00  0.22826353349E+03  0.22826353351E+03  0.25500000000E-02 0.  1.
         -2   -1    0    0    0  501 -0.00000000000E+00 -0.00000000000E+00 -0.39121351182E+03  0.39121351183E+03  0.25500000000E-02 0. -1.
    5000001    1    1    2    0    0 -0.27224291989E+02 -0.22458510025E+03 -0.26862567357E+02  0.29537303001E+03  0.18800000000E+03 0.  0.
   -5000001    1    1    2    0    0  0.27224291989E+02  0.22458510025E+03 -0.13608741098E+03  0.32410401533E+03  0.18800000000E+03 0.  0.
<mgrwt>
<rscale>  0 0.59766137E+03</rscale>
<asrwt>0</asrwt>
<pdfrwt beam="1">  1        2 0.32609077E-01 0.59766137E+03</pdfrwt>
<pdfrwt beam="2">  1       -2 0.55887644E-01 0.59766137E+03</pdfrwt>
<totfact> 0.49102879E+02</totfact>
</mgrwt>
</event>
<event>
 4    1  0.6024609E-005  0.1072364E+04  0.7818608E-02  0.9232555E-01
         -2   -1    0    0    0  501 -0.00000000000E+00  0.00000000000E+00  0.23079273969E+03  0.23079273971E+03  0.25500000000E-02 0.  1.
          2   -1    0    0  501    0  0.00000000000E+00 -0.00000000000E+00 -0.12456669807E+04  0.12456669807E+04  0.25500000000E-02 0. -1.
    5000001    1    1    2    0    0 -0.43062570882E+03  0.24542646754E+03 -0.39665388023E+03  0.66208077511E+03  0.18800000000E+03 0.  0.
   -5000001    1    1    2    0    0  0.43062570882E+03 -0.24542646754E+03 -0.61822036078E+03  0.81437894530E+03  0.18800000000E+03 0.  0.
<mgrwt>
<rscale>  0 0.10723635E+04</rscale>
<asrwt>0</asrwt>
<pdfrwt beam="1">  1        2 0.17795242E+00 0.10723635E+04</pdfrwt>
<pdfrwt beam="2">  1       -2 0.32970392E-01 0.10723635E+04</pdfrwt>
<totfact> 0.17153643E+02</totfact>
</mgrwt>
</event>
<event>
 4    1  0.6024609E-005  0.4921057E+03  0.7818608E-02  0.1015860E+00
         -2   -1    0    0    0  501 -0.00000000000E+00  0.00000000000E+00  0.58053820770E+02  0.58053820826E+02  0.25500000000E-02 0. -1.
          2   -1    0    0  501    0  0.00000000000E+00 -0.00000000000E+00 -0.10428600882E+04  0.10428600882E+04  0.25500000000E-02 0.  1.
    5000001    1    1    2    0    0  0.54119212191E+02  0.14911542922E+03 -0.50539253912E+03  0.56207643515E+03  0.18800000000E+03 0.  0.
   -5000001    1    1    2    0    0 -0.54119212191E+02 -0.14911542922E+03 -0.47941372835E+03  0.53883747391E+03  0.18800000000E+03 0.  0.
<mgrwt>
<rscale>  0 0.49210573E+03</rscale>
<asrwt>0</asrwt>
<pdfrwt beam="1">  1        2 0.14898000E+00 0.49210573E+03</pdfrwt>
<pdfrwt beam="2">  1       -2 0.82934036E-02 0.49210573E+03</pdfrwt>
<totfact> 0.24610566E+03</totfact>
</mgrwt>
</event>
<event>
 4    1  0.6024609E-005  0.4999610E+03  0.7818608E-02  0.1013789E+00
          2   -1    0    0  501    0  0.00000000000E+00  0.00000000000E+00  0.90666758986E+02  0.90666759022E+02  0.25500000000E-02 0.  1.
         -2   -1    0    0    0  501 -0.00000000000E+00 -0.00000000000E+00 -0.68923006611E+03  0.68923006612E+03  0.25500000000E-02 0. -1.
    5000001    1    1    2    0    0 -0.97550882324E+02 -0.13115302452E+03 -0.33158982281E+03  0.41474462152E+03  0.18800000000E+03 0.  0.
   -5000001    1    1    2    0    0  0.97550882324E+02  0.13115302452E+03 -0.26697348431E+03  0.36515220362E+03  0.18800000000E+03 0.  0.
<mgrwt>
<rscale>  0 0.49996102E+03</rscale>
<asrwt>0</asrwt>
<pdfrwt beam="1">  1        2 0.12952394E-01 0.49996102E+03</pdfrwt>
<pdfrwt beam="2">  1       -2 0.98461435E-01 0.49996102E+03</pdfrwt>
<totfact> 0.41569447E+02</totfact>
</mgrwt>
</event>
<event>
 4    1  0.6024609E-005  0.5109725E+03  0.7818608E-02  0.1010954E+00
         -2   -1    0    0    0  501 -0.00000000000E+00  0.00000000000E+00  0.70709326508E+02  0.70709326554E+02  0.25500000000E-02 0. -1.
          2   -1    0    0  501    0  0.00000000000E+00 -0.00000000000E+00 -0.92312034781E+03  0.92312034781E+03  0.25500000000E-02 0.  1.
    5000001    1    1    2    0    0  0.79117350813E+02  0.11034764957E+03 -0.21769292553E+03  0.31807289855E+03  0.18800000000E+03 0.  0.
   -5000001    1    1    2    0    0 -0.79117350813E+02 -0.11034764957E+03 -0.63471809577E+03  0.67575677582E+03  0.18800000000E+03 0.  0.
<mgrwt>
<rscale>  0 0.51097248E+03</rscale>
<asrwt>0</asrwt>
<pdfrwt beam="1">  1        2 0.13187433E+00 0.51097248E+03</pdfrwt>
<pdfrwt beam="2">  1       -2 0.10101333E-01 0.51097248E+03</pdfrwt>
<totfact> 0.21232064E+03</totfact>
</mgrwt>
</event>
<event>
 4    1  0.6024609E-005  0.6090350E+03  0.7818608E-02  0.9886837E-01
          2   -1    0    0  501    0  0.00000000000E+00  0.00000000000E+00  0.48345175077E+03  0.48345175078E+03  0.25500000000E-02 0.  1.
         -2   -1    0    0    0  501 -0.00000000000E+00 -0.00000000000E+00 -0.19181006714E+03  0.19181006716E+03  0.25500000000E-02 0. -1.
    5000001    1    1    2    0    0 -0.19870641813E+03 -0.13350496285E+03  0.13596008741E+03  0.33337210603E+03  0.18800000000E+03 0.  0.
   -5000001    1    1    2    0    0  0.19870641813E+03  0.13350496285E+03  0.15568159621E+03  0.34188971191E+03  0.18800000000E+03 0.  0.
<mgrwt>
<rscale>  0 0.60903502E+03</rscale>
<asrwt>0</asrwt>
<pdfrwt beam="1">  1        2 0.69064534E-01 0.60903502E+03</pdfrwt>
<pdfrwt beam="2">  1       -2 0.27401439E-01 0.60903502E+03</pdfrwt>
<totfact> 0.84876449E+02</totfact>
</mgrwt>
</event>
<event>
 4    1  0.6024609E-005  0.8054721E+03  0.7818608E-02  0.9552130E-01
          2   -1    0    0  501    0  0.00000000000E+00  0.00000000000E+00  0.84407402892E+03  0.84407402892E+03  0.25500000000E-02 0.  1.
         -2   -1    0    0    0  501 -0.00000000000E+00 -0.00000000000E+00 -0.19215888050E+03  0.19215888051E+03  0.25500000000E-02 0. -1.
    5000001    1    1    2    0    0 -0.32552420687E+03  0.45243393836E+02  0.50253687933E+03  0.62920607835E+03  0.18800000000E+03 0.  0.
   -5000001    1    1    2    0    0  0.32552420687E+03 -0.45243393836E+02  0.14937826909E+03  0.40702683108E+03  0.18800000000E+03 0.  0.
<mgrwt>
<rscale>  0 0.80547209E+03</rscale>
<asrwt>0</asrwt>
<pdfrwt beam="1">  1        2 0.12058201E+00 0.80547209E+03</pdfrwt>
<pdfrwt beam="2">  1       -2 0.27451268E-01 0.80547209E+03</pdfrwt>
<totfact> 0.42923094E+02</totfact>
</mgrwt>
</event>
<event>
 4    1  0.6024609E-005  0.8566185E+03  0.7818608E-02  0.9481497E-01
         -2   -1    0    0    0  501 -0.00000000000E+00  0.00000000000E+00  0.37924995126E+03  0.37924995127E+03  0.25500000000E-02 0. -1.
          2   -1    0    0  501    0  0.00000000000E+00 -0.00000000000E+00 -0.48371474255E+03  0.48371474256E+03  0.25500000000E-02 0.  1.
    5000001    1    1    2    0    0  0.38206626091E+03  0.44112120782E+02 -0.38556640171E+02  0.42982685052E+03  0.18800000000E+03 0.  0.
   -5000001    1    1    2    0    0 -0.38206626091E+03 -0.44112120782E+02 -0.65908151123E+02  0.43313784331E+03  0.18800000000E+03 0.  0.
<mgrwt>
<rscale>  0 0.85661845E+03</rscale>
<asrwt>0</asrwt>
<pdfrwt beam="1">  1        2 0.69102106E-01 0.85661845E+03</pdfrwt>
<pdfrwt beam="2">  1       -2 0.54178565E-01 0.85661845E+03</pdfrwt>
<totfact> 0.22480274E+02</totfact>
</mgrwt>
</event>
<event>
 4    1  0.6024609E-005  0.8177207E+03  0.7818608E-02  0.9534716E-01
         -2   -1    0    0    0  501 -0.00000000000E+00  0.00000000000E+00  0.31684401805E+03  0.31684401806E+03  0.25500000000E-02 0. -1.
          2   -1    0    0  501    0  0.00000000000E+00 -0.00000000000E+00 -0.52759961342E+03  0.52759961343E+03  0.25500000000E-02 0.  1.
    5000001    1    1    2    0    0 -0.68884223407E+02  0.35618977195E+03 -0.12022080732E+03  0.42592632273E+03  0.18800000000E+03 0.  0.
   -5000001    1    1    2    0    0  0.68884223407E+02 -0.35618977195E+03 -0.90534788049E+02  0.41851730875E+03  0.18800000000E+03 0.  0.
<mgrwt>
<rscale>  0 0.81772069E+03</rscale>
<asrwt>0</asrwt>
<pdfrwt beam="1">  1        2 0.75371373E-01 0.81772069E+03</pdfrwt>
<pdfrwt beam="2">  1       -2 0.45263431E-01 0.81772069E+03</pdfrwt>
<totfact> 0.29359454E+02</totfact>
</mgrwt>
</event>
<event>
 4    1  0.6024609E-005  0.4792172E+03  0.7818608E-02  0.1019351E+00
          2   -1    0    0  501    0  0.00000000000E+00  0.00000000000E+00  0.10955830354E+04  0.10955830354E+04  0.25500000000E-02 0.  1.
         -2   -1    0    0    0  501 -0.00000000000E+00 -0.00000000000E+00 -0.52403406419E+02  0.52403406481E+02  0.25500000000E-02 0. -1.
    5000001    1    1    2    0    0 -0.35614178516E+02 -0.90570046835E+02  0.25272276921E+03  0.32967271827E+03  0.18800000000E+03 0.  0.
   -5000001    1    1    2    0    0  0.35614178516E+02  0.90570046835E+02  0.79045685982E+03  0.81831372366E+03  0.18800000000E+03 0.  0.
<mgrwt>
<rscale>  0 0.47921721E+03</rscale>
<asrwt>0</asrwt>
<pdfrwt beam="1">  1        2 0.15651184E+00 0.47921721E+03</pdfrwt>
<pdfrwt beam="2">  1       -2 0.74862019E-02 0.47921721E+03</pdfrwt>
<totfact> 0.26961627E+03</totfact>
</mgrwt>
</event>
<event>
 4    1  0.6024609E-005  0.4817687E+03  0.7818608E-02  0.1018650E+00
          2   -1    0    0  501    0  0.00000000000E+00  0.00000000000E+00  0.17384570857E+04  0.17384570857E+04  0.25500000000E-02 0.  1.
         -2   -1    0    0    0  501 -0.00000000000E+00 -0.00000000000E+00 -0.33377446960E+02  0.33377447057E+02  0.25500000000E-02 0. -1.
    5000001    1    1    2    0    0  0.54099144701E+02 -0.57429602916E+02  0.13243331617E+04  0.13399355208E+04  0.18800000000E+03 0.  0.
   -5000001    1    1    2    0    0 -0.54099144701E+02  0.57429602916E+02  0.38074647709E+03  0.43189901199E+03  0.18800000000E+03 0.  0.
<mgrwt>
<rscale>  0 0.48176866E+03</rscale>
<asrwt>0</asrwt>
<pdfrwt beam="1">  1        2 0.24835103E+00 0.48176866E+03</pdfrwt>
<pdfrwt beam="2">  1       -2 0.47682063E-02 0.48176866E+03</pdfrwt>
<totfact> 0.24850002E+03</totfact>
</mgrwt>
</event>
<event>
 4    1  0.6024609E-005  0.1520668E+04  0.7818608E-02  0.8870824E-01
          2   -1    0    0  501    0  0.00000000000E+00  0.00000000000E+00  0.16854966706E+04  0.16854966706E+04  0.25500000000E-02 0.  1.
         -2   -1    0    0    0  501 -0.00000000000E+00 -0.00000000000E+00 -0.34298974883E+03  0.34298974884E+03  0.25500000000E-02 0. -1.
    5000001    1    1    2    0    0 -0.62539187807E+03  0.17844464294E+03  0.20953425594E+03  0.70866500983E+03  0.18800000000E+03 0.  0.
   -5000001    1    1    2    0    0  0.62539187807E+03 -0.17844464294E+03  0.11329726659E+04  0.13198214096E+04  0.18800000000E+03 0.  0.
<mgrwt>
<rscale>  0 0.15206684E+04</rscale>
<asrwt>0</asrwt>
<pdfrwt beam="1">  1        2 0.24078524E+00 0.15206684E+04</pdfrwt>
<pdfrwt beam="2">  1       -2 0.48998535E-01 0.15206684E+04</pdfrwt>
<totfact> 0.44465362E+01</totfact>
</mgrwt>
</event>
<event>
 4    1  0.6024609E-005  0.6034020E+03  0.7818608E-02  0.9898373E-01
          2   -1    0    0  501    0  0.00000000000E+00  0.00000000000E+00  0.30529030127E+03  0.30529030128E+03  0.25500000000E-02 0.  1.
         -2   -1    0    0    0  501 -0.00000000000E+00 -0.00000000000E+00 -0.29815393821E+03  0.29815393822E+03  0.25500000000E-02 0. -1.
    5000001    1    1    2    0    0  0.14739134797E+03  0.14801267741E+03 -0.10620079700E+03  0.30042398608E+03  0.18800000000E+03 0.  0.
   -5000001    1    1    2    0    0 -0.14739134797E+03 -0.14801267741E+03  0.11333716005E+03  0.30302025342E+03  0.18800000000E+03 0.  0.
<mgrwt>
<rscale>  0 0.60340204E+03</rscale>
<asrwt>0</asrwt>
<pdfrwt beam="1">  1        2 0.43612900E-01 0.60340204E+03</pdfrwt>
<pdfrwt beam="2">  1       -2 0.42593420E-01 0.60340204E+03</pdfrwt>
<totfact> 0.61511233E+02</totfact>
</mgrwt>
</event>
<event>
 4    1  0.6024609E-005  0.8396361E+03  0.7818608E-02  0.9504354E-01
         -2   -1    0    0    0  501 -0.00000000000E+00  0.00000000000E+00  0.16211205558E+03  0.16211205560E+03  0.25500000000E-02 0. -1.
          2   -1    0    0  501    0  0.00000000000E+00 -0.00000000000E+00 -0.10871937397E+04  0.10871937397E+04  0.25500000000E-02 0.  1.
    5000001    1    1    2    0    0  0.13172335807E+03 -0.34883756269E+03 -0.52678913477E+03  0.67222725378E+03  0.18800000000E+03 0.  0.
   -5000001    1    1    2    0    0 -0.13172335807E+03  0.34883756269E+03 -0.39829254932E+03  0.57707854149E+03  0.18800000000E+03 0.  0.
<mgrwt>
<rscale>  0 0.83963614E+03</rscale>
<asrwt>0</asrwt>
<pdfrwt beam="1">  1        2 0.15531339E+00 0.83963614E+03</pdfrwt>
<pdfrwt beam="2">  1       -2 0.23158866E-01 0.83963614E+03</pdfrwt>
<totfact> 0.40976294E+02</totfact>
</mgrwt>
</event>
<event>
 4    1  0.6024609E-005  0.6369526E+03  0.7818608E-02  0.9831575E-01
          2   -1    0    0  501    0  0.00000000000E+00  0.00000000000E+00  0.22254829637E+04  0.22254829637E+04  0.25500000000E-02 0.  1.
         -2   -1    0    0    0  501 -0.00000000000E+00 -0.00000000000E+00 -0.45575341265E+02  0.45575341337E+02  0.25500000000E-02 0. -1.
    5000001    1    1    2    0    0  0.63586729784E+02 -0.24821434739E+03  0.11638476832E+04  0.12064572367E+04  0.18800000000E+03 0.  0.
   -5000001    1    1    2    0    0 -0.63586729784E+02  0.24821434739E+03  0.10160599393E+04  0.10646010684E+04  0.18800000000E+03 0.  0.
<mgrwt>
<rscale>  0 0.63695257E+03</rscale>
<asrwt>0</asrwt>
<pdfrwt beam="1">  1        2 0.31792615E+00 0.63695257E+03</pdfrwt>
<pdfrwt beam="2">  1       -2 0.65107628E-02 0.63695257E+03</pdfrwt>
<totfact> 0.86483423E+02</totfact>
</mgrwt>
</event>
<event>
 4    1  0.6024609E-005  0.4483240E+03  0.7818608E-02  0.1028223E+00
         -2   -1    0    0    0  501 -0.00000000000E+00  0.00000000000E+00  0.17041135531E+02  0.17041135722E+02  0.25500000000E-02 0. -1.
          2   -1    0    0  501    0  0.00000000000E+00 -0.00000000000E+00 -0.29486652951E+04  0.29486652951E+04  0.25500000000E-02 0.  1.
    5000001    1    1    2    0    0  0.96809763406E+02 -0.52983864607E+02 -0.11204822029E+04  0.11414919129E+04  0.18800000000E+03 0.  0.
   -5000001    1    1    2    0    0 -0.96809763406E+02  0.52983864607E+02 -0.18111419567E+04  0.18242145179E+04  0.18800000000E+03 0.  0.
<mgrwt>
<rscale>  0 0.44832401E+03</rscale>
<asrwt>0</asrwt>
<pdfrwt beam="1">  1        2 0.42123757E+00 0.44832401E+03</pdfrwt>
<pdfrwt beam="2">  1       -2 0.24344498E-02 0.44832401E+03</pdfrwt>
<totfact> 0.16767197E+03</totfact>
</mgrwt>
</event>
<event>
 4    1  0.6024609E-005  0.5788205E+03  0.7818608E-02  0.9950348E-01
          2   -1    0    0  501    0  0.00000000000E+00  0.00000000000E+00  0.12779525910E+03  0.12779525913E+03  0.25500000000E-02 0.  1.
         -2   -1    0    0    0  501 -0.00000000000E+00 -0.00000000000E+00 -0.65540998001E+03  0.65540998001E+03  0.25500000000E-02 0. -1.
    5000001    1    1    2    0    0  0.18100674215E+03  0.12156034557E+03 -0.22380643925E+03  0.36465556429E+03  0.18800000000E+03 0.  0.
   -5000001    1    1    2    0    0 -0.18100674215E+03 -0.12156034557E+03 -0.30380828165E+03  0.41854967485E+03  0.18800000000E+03 0.  0.
<mgrwt>
<rscale>  0 0.57882048E+03</rscale>
<asrwt>0</asrwt>
<pdfrwt beam="1">  1        2 0.18256466E-01 0.57882048E+03</pdfrwt>
<pdfrwt beam="2">  1       -2 0.93629996E-01 0.57882048E+03</pdfrwt>
<totfact> 0.30860924E+02</totfact>
</mgrwt>
</event>
<event>
 4    1  0.6024609E-005  0.4621259E+03  0.7818608E-02  0.1024166E+00
         -2   -1    0    0    0  501 -0.00000000000E+00  0.00000000000E+00  0.35387950715E+02  0.35387950807E+02  0.25500000000E-02 0. -1.
          2   -1    0    0  501    0  0.00000000000E+00 -0.00000000000E+00 -0.15087078803E+04  0.15087078803E+04  0.25500000000E-02 0.  1.
    5000001    1    1    2    0    0 -0.12436718210E+03 -0.22923723012E+01 -0.56715322988E+03  0.61031077093E+03  0.18800000000E+03 0.  0.
   -5000001    1    1    2    0    0  0.12436718210E+03  0.22923723012E+01 -0.90616669968E+03  0.93378506015E+03  0.18800000000E+03 0.  0.
<mgrwt>
<rscale>  0 0.46212587E+03</rscale>
<asrwt>0</asrwt>
<pdfrwt beam="1">  1        2 0.21552966E+00 0.46212587E+03</pdfrwt>
<pdfrwt beam="2">  1       -2 0.50554225E-02 0.46212587E+03</pdfrwt>
<totfact> 0.29725578E+03</totfact>
</mgrwt>
</event>
<event>
 4    1  0.6024609E-005  0.7813898E+03  0.7818608E-02  0.9587352E-01
         -2   -1    0    0    0  501 -0.00000000000E+00  0.00000000000E+00  0.13828683310E+03  0.13828683313E+03  0.25500000000E-02 0. -1.
          2   -1    0    0  501    0  0.00000000000E+00 -0.00000000000E+00 -0.11038108267E+04  0.11038108267E+04  0.25500000000E-02 0.  1.
    5000001    1    1    2    0    0 -0.21593157026E+03 -0.23465236019E+03 -0.68136876993E+03  0.77543250758E+03  0.18800000000E+03 0.  0.
   -5000001    1    1    2    0    0  0.21593157026E+03  0.23465236019E+03 -0.28415522365E+03  0.46666515223E+03  0.18800000000E+03 0.  0.
<mgrwt>
<rscale>  0 0.78138980E+03</rscale>
<asrwt>0</asrwt>
<pdfrwt beam="1">  1        2 0.15768726E+00 0.78138980E+03</pdfrwt>
<pdfrwt beam="2">  1       -2 0.19755263E-01 0.78138980E+03</pdfrwt>
<totfact> 0.53183144E+02</totfact>
</mgrwt>
</event>
<event>
 4    1  0.6024609E-005  0.4424956E+03  0.7818608E-02  0.1029984E+00
         -2   -1    0    0    0  501 -0.00000000000E+00  0.00000000000E+00  0.32170203192E+02  0.32170203293E+02  0.25500000000E-02 0. -1.
          2   -1    0    0  501    0  0.00000000000E+00 -0.00000000000E+00 -0.15216128024E+04  0.15216128024E+04  0.25500000000E-02 0.  1.
    5000001    1    1    2    0    0  0.33515011210E+02  0.10063310372E+03 -0.91517173657E+03  0.94028377895E+03  0.18800000000E+03 0.  0.
   -5000001    1    1    2    0    0 -0.33515011210E+02 -0.10063310372E+03 -0.57427086265E+03  0.61349922676E+03  0.18800000000E+03 0.  0.
<mgrwt>
<rscale>  0 0.44249562E+03</rscale>
<asrwt>0</asrwt>
<pdfrwt beam="1">  1        2 0.21737321E+00 0.44249562E+03</pdfrwt>
<pdfrwt beam="2">  1       -2 0.45957443E-02 0.44249562E+03</pdfrwt>
<totfact> 0.33904339E+03</totfact>
</mgrwt>
</event>
<event>
 4    1  0.6024609E-005  0.5245845E+03  0.7818608E-02  0.1007554E+00
         -2   -1    0    0    0  501 -0.00000000000E+00  0.00000000000E+00  0.42001715025E+02  0.42001715102E+02  0.25500000000E-02 0. -1.
          2   -1    0    0  501    0  0.00000000000E+00 -0.00000000000E+00 -0.16379619962E+04  0.16379619962E+04  0.25500000000E-02 0.  1.
    5000001    1    1    2    0    0 -0.13066454594E+03  0.11543336040E+03 -0.97499072817E+03  0.10081413613E+04  0.18800000000E+03 0.  0.
   -5000001    1    1    2    0    0  0.13066454594E+03 -0.11543336040E+03 -0.62096955296E+03  0.67182235000E+03  0.18800000000E+03 0.  0.
<mgrwt>
<rscale>  0 0.52458446E+03</rscale>
<asrwt>0</asrwt>
<pdfrwt beam="1">  1        2 0.23399453E+00 0.52458446E+03</pdfrwt>
<pdfrwt beam="2">  1       -2 0.60002460E-02 0.52458446E+03</pdfrwt>
<totfact> 0.19539085E+03</totfact>
</mgrwt>
</event>
<event>
 4    1  0.6024609E-005  0.8606689E+03  0.7818608E-02  0.9476128E-01
          2   -1    0    0  501    0  0.00000000000E+00  0.00000000000E+00  0.69921197969E+03  0.69921197970E+03  0.25500000000E-02 0.  1.
         -2   -1    0    0    0  501 -0.00000000000E+00 -0.00000000000E+00 -0.26485204554E+03  0.26485204556E+03  0.25500000000E-02 0. -1.
    5000001    1    1    2    0    0 -0.13096947302E+02 -0.15384482240E+03 -0.18043423563E+03  0.30288656753E+03  0.18800000000E+03 0.  0.
   -5000001    1    1    2    0    0  0.13096947302E+02  0.15384482240E+03  0.61479416977E+03  0.66117745772E+03  0.18800000000E+03 0.  0.
<mgrwt>
<rscale>  0 0.86066886E+03</rscale>
<asrwt>0</asrwt>
<pdfrwt beam="1">  1        2 0.99887426E-01 0.86066886E+03</pdfrwt>
<pdfrwt beam="2">  1       -2 0.37836007E-01 0.86066886E+03</pdfrwt>
<totfact> 0.29784432E+02</totfact>
</mgrwt>
</event>
<event>
 4    1  0.6024609E-005  0.4051433E+03  0.7818608E-02  0.1042013E+00
          2   -1    0    0  501    0  0.00000000000E+00  0.00000000000E+00  0.20893452316E+04  0.20893452316E+04  0.25500000000E-02 0.  1.
         -2   -1    0    0    0  501 -0.00000000000E+00 -0.00000000000E+00 -0.19640259706E+02  0.19640259871E+02  0.25500000000E-02 0. -1.
    5000001    1    1    2    0    0  0.17032942092E+02  0.73125350450E+02  0.99665470350E+03  0.10170064090E+04  0.18800000000E+03 0.  0.
   -5000001    1    1    2    0    0 -0.17032942092E+02 -0.73125350450E+02  0.10730502684E+04  0.10919790824E+04  0.18800000000E+03 0.  0.
<mgrwt>
<rscale>  0 0.40514335E+03</rscale>
<asrwt>0</asrwt>
<pdfrwt beam="1">  1        2 0.29847780E+00 0.40514335E+03</pdfrwt>
<pdfrwt beam="2">  1       -2 0.28057522E-02 0.40514335E+03</pdfrwt>
<totfact> 0.37287542E+03</totfact>
</mgrwt>
</event>
<event>
 4    1  0.6024609E-005  0.6062767E+03  0.7818608E-02  0.9892469E-01
          2   -1    0    0  501    0  0.00000000000E+00  0.00000000000E+00  0.41172080929E+03  0.41172080930E+03  0.25500000000E-02 0.  1.
         -2   -1    0    0    0  501 -0.00000000000E+00 -0.00000000000E+00 -0.22319218487E+03  0.22319218488E+03  0.25500000000E-02 0. -1.
    5000001    1    1    2    0    0 -0.10257654306E+02  0.19334341028E+03  0.23885064632E+03  0.36038940747E+03  0.18800000000E+03 0.  0.
   -5000001    1    1    2    0    0  0.10257654306E+02 -0.19334341028E+03 -0.50322021893E+02  0.27452358671E+03  0.18800000000E+03 0.  0.
<mgrwt>
<rscale>  0 0.60627673E+03</rscale>
<asrwt>0</asrwt>
<pdfrwt beam="1">  1        2 0.58817258E-01 0.60627673E+03</pdfrwt>
<pdfrwt beam="2">  1       -2 0.31884598E-01 0.60627673E+03</pdfrwt>
<totfact> 0.76875229E+02</totfact>
</mgrwt>
</event>
<event>
 4    1  0.6024609E-005  0.7466625E+03  0.7818608E-02  0.9640601E-01
         -2   -1    0    0    0  501 -0.00000000000E+00  0.00000000000E+00  0.84243073574E+02  0.84243073612E+02  0.25500000000E-02 0.  1.
          2   -1    0    0  501    0  0.00000000000E+00 -0.00000000000E+00 -0.16544533584E+04  0.16544533584E+04  0.25500000000E-02 0. -1.
    5000001    1    1    2    0    0 -0.29831631505E+03 -0.64486529781E+02 -0.10280097741E+04  0.10887144859E+04  0.18800000000E+03 0.  0.
   -5000001    1    1    2    0    0  0.29831631505E+03  0.64486529781E+02 -0.54220051081E+03  0.64998194611E+03  0.18800000000E+03 0.  0.
<mgrwt>
<rscale>  0 0.74666254E+03</rscale>
<asrwt>0</asrwt>
<pdfrwt beam="1">  1        2 0.23635046E+00 0.74666254E+03</pdfrwt>
<pdfrwt beam="2">  1       -2 0.12034726E-01 0.74666254E+03</pdfrwt>
<totfact> 0.62145369E+02</totfact>
</mgrwt>
</event>
<event>
 4    1  0.6024609E-005  0.7802343E+03  0.7818608E-02  0.9589076E-01
          2   -1    0    0  501    0  0.00000000000E+00  0.00000000000E+00  0.90926340256E+03  0.90926340256E+03  0.25500000000E-02 0.  1.
         -2   -1    0    0    0  501 -0.00000000000E+00 -0.00000000000E+00 -0.16737879041E+03  0.16737879043E+03  0.25500000000E-02 0. -1.
    5000001    1    1    2    0    0 -0.30174973753E+03  0.95903918167E+02  0.19317152467E+03  0.41582412576E+03  0.18800000000E+03 0.  0.
   -5000001    1    1    2    0    0  0.30174973753E+03 -0.95903918167E+02  0.54871308748E+03  0.66081806724E+03  0.18800000000E+03 0.  0.
<mgrwt>
<rscale>  0 0.78023435E+03</rscale>
<asrwt>0</asrwt>
<pdfrwt beam="1">  1        2 0.12989477E+00 0.78023435E+03</pdfrwt>
<pdfrwt beam="2">  1       -2 0.23911256E-01 0.78023435E+03</pdfrwt>
<totfact> 0.49950650E+02</totfact>
</mgrwt>
</event>
<event>
 4    1  0.6024609E-005  0.4822755E+03  0.7818608E-02  0.1018512E+00
         -2   -1    0    0    0  501 -0.00000000000E+00  0.00000000000E+00  0.46939147169E+02  0.46939147238E+02  0.25500000000E-02 0. -1.
          2   -1    0    0  501    0  0.00000000000E+00 -0.00000000000E+00 -0.12387829342E+04  0.12387829343E+04  0.25500000000E-02 0.  1.
    5000001    1    1    2    0    0 -0.13282438324E+02  0.15031021170E+03 -0.61142837090E+03  0.65723529702E+03  0.18800000000E+03 0.  0.
   -5000001    1    1    2    0    0  0.13282438324E+02 -0.15031021170E+03 -0.58041541618E+03  0.62848678447E+03  0.18800000000E+03 0.  0.
<mgrwt>
<rscale>  0 0.48227550E+03</rscale>
<asrwt>0</asrwt>
<pdfrwt beam="1">  1        2 0.17696897E+00 0.48227550E+03</pdfrwt>
<pdfrwt beam="2">  1       -2 0.67055932E-02 0.48227550E+03</pdfrwt>
<totfact> 0.26633767E+03</totfact>
</mgrwt>
</event>
<event>
 4    1  0.6024609E-005  0.4578888E+03  0.7818608E-02  0.1025395E+00
         -2   -1    0    0    0  501 -0.00000000000E+00  0.00000000000E+00  0.14400087774E+03  0.14400087777E+03  0.25500000000E-02 0. -1.
          2   -1    0    0  501    0  0.00000000000E+00 -0.00000000000E+00 -0.36399459339E+03  0.36399459340E+03  0.25500000000E-02 0.  1.
    5000001    1    1    2    0    0 -0.10138749364E+03  0.60494746795E+02 -0.17209027132E+03  0.28088805553E+03  0.18800000000E+03 0.  0.
   -5000001    1    1    2    0    0  0.10138749364E+03 -0.60494746795E+02 -0.47903444319E+02  0.22710741563E+03  0.18800000000E+03 0.  0.
<mgrwt>
<rscale>  0 0.45788881E+03</rscale>
<asrwt>0</asrwt>
<pdfrwt beam="1">  1        2 0.51999227E-01 0.45788881E+03</pdfrwt>
<pdfrwt beam="2">  1       -2 0.20571554E-01 0.45788881E+03</pdfrwt>
<totfact> 0.19375492E+03</totfact>
</mgrwt>
</event>
<event>
 4    1  0.6024609E-005  0.1263428E+04  0.7818608E-02  0.9059080E-01
          2   -1    0    0  501    0  0.00000000000E+00  0.00000000000E+00  0.26830220743E+04  0.26830220743E+04  0.25500000000E-02 0.  1.
         -2   -1    0    0    0  501 -0.00000000000E+00 -0.00000000000E+00 -0.14873634209E+03  0.14873634211E+03  0.25500000000E-02 0. -1.
    5000001    1    1    2    0    0 -0.28652644709E+03 -0.26607095915E+03  0.22962708754E+04  0.23368986057E+04  0.18800000000E+03 0.  0.
   -5000001    1    1    2    0    0  0.28652644709E+03  0.26607095915E+03  0.23801485680E+03  0.49485981069E+03  0.18800000000E+03 0.  0.
<mgrwt>
<rscale>  0 0.12634285E+04</rscale>
<asrwt>0</asrwt>
<pdfrwt beam="1">  1        2 0.38328885E+00 0.12634285E+04</pdfrwt>
<pdfrwt beam="2">  1       -2 0.21248050E-01 0.12634285E+04</pdfrwt>
<totfact> 0.66850272E+01</totfact>
</mgrwt>
</event>
<event>
 4    1  0.6024609E-005  0.3929104E+03  0.7818608E-02  0.1046263E+00
          2   -1    0    0  501    0  0.00000000000E+00  0.00000000000E+00  0.70729083153E+02  0.70729083199E+02  0.25500000000E-02 0.  1.
         -2   -1    0    0    0  501 -0.00000000000E+00 -0.00000000000E+00 -0.54566867045E+03  0.54566867046E+03  0.25500000000E-02 0. -1.
    5000001    1    1    2    0    0 -0.37195328935E+02  0.30625078137E+02 -0.18964694748E+03  0.27135097677E+03  0.18800000000E+03 0.  0.
   -5000001    1    1    2    0    0  0.37195328935E+02 -0.30625078137E+02 -0.28529263982E+03  0.34504677689E+03  0.18800000000E+03 0.  0.
<mgrwt>
<rscale>  0 0.39291040E+03</rscale>
<asrwt>0</asrwt>
<pdfrwt beam="1">  1        2 0.10104155E-01 0.39291040E+03</pdfrwt>
<pdfrwt beam="2">  1       -2 0.77952665E-01 0.39291040E+03</pdfrwt>
<totfact> 0.96134479E+02</totfact>
</mgrwt>
</event>
<event>
 4    1  0.6024609E-005  0.4955578E+03  0.7818608E-02  0.1014945E+00
         -2   -1    0    0    0  501 -0.00000000000E+00  0.00000000000E+00  0.11415612975E+03  0.11415612978E+03  0.25500000000E-02 0. -1.
          2   -1    0    0  501    0  0.00000000000E+00 -0.00000000000E+00 -0.53781073619E+03  0.53781073619E+03  0.25500000000E-02 0.  1.
    5000001    1    1    2    0    0 -0.72933588441E+02  0.14050730729E+03 -0.25319688371E+03  0.35286580119E+03  0.18800000000E+03 0.  0.
   -5000001    1    1    2    0    0  0.72933588441E+02 -0.14050730729E+03 -0.17045772272E+03  0.29910106479E+03  0.18800000000E+03 0.  0.
<mgrwt>
<rscale>  0 0.49555784E+03</rscale>
<asrwt>0</asrwt>
<pdfrwt beam="1">  1        2 0.76830104E-01 0.49555784E+03</pdfrwt>
<pdfrwt beam="2">  1       -2 0.16308019E-01 0.49555784E+03</pdfrwt>
<totfact> 0.18676343E+03</totfact>
</mgrwt>
</event>
<event>
 4    1  0.6024609E-005  0.7282240E+03  0.7818608E-02  0.9670147E-01
         -2   -1    0    0    0  501 -0.00000000000E+00  0.00000000000E+00  0.30479736051E+02  0.30479736158E+02  0.25500000000E-02 0. -1.
          2   -1    0    0  501    0  0.00000000000E+00 -0.00000000000E+00 -0.43496950432E+04  0.43496950432E+04  0.25500000000E-02 0.  1.
    5000001    1    1    2    0    0 -0.23290766892E+03  0.19651858172E+03 -0.17620786320E+04  0.17980908322E+04  0.18800000000E+03 0.  0.
   -5000001    1    1    2    0    0  0.23290766892E+03 -0.19651858172E+03 -0.25571366751E+04  0.25820839472E+04  0.18800000000E+03 0.  0.
<mgrwt>
<rscale>  0 0.72822402E+03</rscale>
<asrwt>0</asrwt>
<pdfrwt beam="1">  1        2 0.62138461E+00 0.72822402E+03</pdfrwt>
<pdfrwt beam="2">  1       -2 0.43542508E-02 0.72822402E+03</pdfrwt>
<totfact> 0.90134212E+01</totfact>
</mgrwt>
</event>
<event>
 4    1  0.6024609E-005  0.5877655E+03  0.7818608E-02  0.9931119E-01
         -2   -1    0    0    0  501 -0.00000000000E+00  0.00000000000E+00  0.67308599690E+02  0.67308599739E+02  0.25500000000E-02 0. -1.
          2   -1    0    0  501    0  0.00000000000E+00 -0.00000000000E+00 -0.12831506555E+04  0.12831506555E+04  0.25500000000E-02 0.  1.
    5000001    1    1    2    0    0  0.17825078604E+03  0.33878671111E+02 -0.29879165797E+03  0.39691505635E+03  0.18800000000E+03 0.  0.
   -5000001    1    1    2    0    0 -0.17825078604E+03 -0.33878671111E+02 -0.91705039788E+03  0.95354419894E+03  0.18800000000E+03 0.  0.
<mgrwt>
<rscale>  0 0.58776551E+03</rscale>
<asrwt>0</asrwt>
<pdfrwt beam="1">  1        2 0.18330722E+00 0.58776551E+03</pdfrwt>
<pdfrwt beam="2">  1       -2 0.96155150E-02 0.58776551E+03</pdfrwt>
<totfact> 0.14169600E+03</totfact>
</mgrwt>
</event>
<event>
 4    1  0.6024609E-005  0.1344109E+04  0.7818608E-02  0.8995300E-01
         -2   -1    0    0    0  501 -0.00000000000E+00  0.00000000000E+00  0.13959270122E+04  0.13959270122E+04  0.25500000000E-02 0. -1.
          2   -1    0    0  501    0  0.00000000000E+00 -0.00000000000E+00 -0.32355338999E+03  0.32355339000E+03  0.25500000000E-02 0.  1.
    5000001    1    1    2    0    0  0.33731403502E+03 -0.24818970128E+03  0.11641178850E+04  0.12513565983E+04  0.18800000000E+03 0.  0.
   -5000001    1    1    2    0    0 -0.33731403502E+03  0.24818970128E+03 -0.91744262734E+02  0.46812380391E+03  0.18800000000E+03 0.  0.
<mgrwt>
<rscale>  0 0.13441085E+04</rscale>
<asrwt>0</asrwt>
<pdfrwt beam="1">  1        2 0.46221912E-01 0.13441085E+04</pdfrwt>
<pdfrwt beam="2">  1       -2 0.19941815E+00 0.13441085E+04</pdfrwt>
<totfact> 0.14383512E+01</totfact>
</mgrwt>
</event>
<event>
 4    1  0.6024609E-005  0.4769277E+03  0.7818608E-02  0.1019983E+00
         -2   -1    0    0    0  501 -0.00000000000E+00  0.00000000000E+00  0.51268850579E+02  0.51268850643E+02  0.25500000000E-02 0. -1.
          2   -1    0    0  501    0  0.00000000000E+00 -0.00000000000E+00 -0.11091530357E+04  0.11091530357E+04  0.25500000000E-02 0.  1.
    5000001    1    1    2    0    0  0.52746202938E+02  0.12962474808E+03 -0.63600663883E+03  0.67781500565E+03  0.18800000000E+03 0.  0.
   -5000001    1    1    2    0    0 -0.52746202938E+02 -0.12962474808E+03 -0.42187754631E+03  0.48260688072E+03  0.18800000000E+03 0.  0.
<mgrwt>
<rscale>  0 0.47692767E+03</rscale>
<asrwt>0</asrwt>
<pdfrwt beam="1">  1        2 0.15845042E+00 0.47692767E+03</pdfrwt>
<pdfrwt beam="2">  1       -2 0.73241222E-02 0.47692767E+03</pdfrwt>
<totfact> 0.27410750E+03</totfact>
</mgrwt>
</event>
<event>
 4    1  0.6024609E-005  0.9610988E+03  0.7818608E-02  0.9352271E-01
         -2   -1    0    0    0  501 -0.00000000000E+00  0.00000000000E+00  0.35404072175E+03  0.35404072176E+03  0.25500000000E-02 0. -1.
          2   -1    0    0  501    0  0.00000000000E+00 -0.00000000000E+00 -0.65226324147E+03  0.65226324148E+03  0.25500000000E-02 0.  1.
    5000001    1    1    2    0    0 -0.73710979482E+02 -0.37217540808E+03  0.88812068650E+02  0.43264237704E+03  0.18800000000E+03 0.  0.
   -5000001    1    1    2    0    0  0.73710979482E+02  0.37217540808E+03 -0.38703458838E+03  0.57366158619E+03  0.18800000000E+03 0.  0.
<mgrwt>
<rscale>  0 0.96109885E+03</rscale>
<asrwt>0</asrwt>
<pdfrwt beam="1">  1        2 0.93180463E-01 0.96109885E+03</pdfrwt>
<pdfrwt beam="2">  1       -2 0.50577246E-01 0.96109885E+03</pdfrwt>
<totfact> 0.18144139E+02</totfact>
</mgrwt>
</event>
<event>
 4    1  0.6024609E-005  0.4297038E+03  0.7818608E-02  0.1033954E+00
          2   -1    0    0  501    0  0.00000000000E+00  0.00000000000E+00  0.19896417123E+04  0.19896417123E+04  0.25500000000E-02 0.  1.
         -2   -1    0    0    0  501 -0.00000000000E+00 -0.00000000000E+00 -0.23200828468E+02  0.23200828608E+02  0.25500000000E-02 0. -1.
    5000001    1    1    2    0    0  0.10289273938E+03 -0.10020538145E+02  0.10366310717E+04  0.10586006356E+04  0.18800000000E+03 0.  0.
   -5000001    1    1    2    0    0 -0.10289273938E+03  0.10020538145E+02  0.92980981217E+03  0.95424190529E+03  0.18800000000E+03 0.  0.
<mgrwt>
<rscale>  0 0.42970379E+03</rscale>
<asrwt>0</asrwt>
<pdfrwt beam="1">  1        2 0.28423457E+00 0.42970379E+03</pdfrwt>
<pdfrwt beam="2">  1       -2 0.33144036E-02 0.42970379E+03</pdfrwt>
<totfact> 0.32481537E+03</totfact>
</mgrwt>
</event>
<event>
 4    1  0.6024609E-005  0.5556841E+03  0.7818608E-02  0.1000187E+00
         -2   -1    0    0    0  501 -0.00000000000E+00  0.00000000000E+00  0.18975737798E+02  0.18975737969E+02  0.25500000000E-02 0. -1.
          2   -1    0    0  501    0  0.00000000000E+00 -0.00000000000E+00 -0.40681525935E+04  0.40681525935E+04  0.25500000000E-02 0.  1.
    5000001    1    1    2    0    0 -0.19455379059E+03 -0.62987906590E+02 -0.19819899234E+04  0.20013612143E+04  0.18800000000E+03 0.  0.
   -5000001    1    1    2    0    0  0.19455379059E+03  0.62987906590E+02 -0.20671869323E+04  0.20857671172E+04  0.18800000000E+03 0.  0.
<mgrwt>
<rscale>  0 0.55568407E+03</rscale>
<asrwt>0</asrwt>
<pdfrwt beam="1">  1        2 0.58116410E+00 0.55568407E+03</pdfrwt>
<pdfrwt beam="2">  1       -2 0.27108223E-02 0.55568407E+03</pdfrwt>
<totfact> 0.30244968E+02</totfact>
</mgrwt>
</event>
<event>
 4    1  0.6024609E-005  0.6477362E+03  0.7818608E-02  0.9811036E-01
          2   -1    0    0  501    0  0.00000000000E+00  0.00000000000E+00  0.42793608781E+03  0.42793608782E+03  0.25500000000E-02 0.  1.
         -2   -1    0    0    0  501 -0.00000000000E+00 -0.00000000000E+00 -0.24510796488E+03  0.24510796489E+03  0.25500000000E-02 0. -1.
    5000001    1    1    2    0    0 -0.16233964448E+03  0.20640254163E+03  0.66167105469E+02  0.32966385183E+03  0.18800000000E+03 0.  0.
   -5000001    1    1    2    0    0  0.16233964448E+03 -0.20640254163E+03  0.11666101746E+03  0.34338020088E+03  0.18800000000E+03 0.  0.
<mgrwt>
<rscale>  0 0.64773619E+03</rscale>
<asrwt>0</asrwt>
<pdfrwt beam="1">  1        2 0.61133726E-01 0.64773619E+03</pdfrwt>
<pdfrwt beam="2">  1       -2 0.35015424E-01 0.64773619E+03</pdfrwt>
<totfact> 0.61686686E+02</totfact>
</mgrwt>
</event>
<event>
 4    1  0.6024609E-005  0.1552707E+04  0.7818608E-02  0.8850140E-01
          2   -1    0    0  501    0  0.00000000000E+00  0.00000000000E+00  0.12390863677E+04  0.12390863677E+04  0.25500000000E-02 0.  1.
         -2   -1    0    0    0  501 -0.00000000000E+00 -0.00000000000E+00 -0.48642700838E+03  0.48642700839E+03  0.25500000000E-02 0. -1.
    5000001    1    1    2    0    0  0.46709147553E+03  0.59059099463E+03  0.35385775885E+03  0.85295456089E+03  0.18800000000E+03 0.  0.
   -5000001    1    1    2    0    0 -0.46709147553E+03 -0.59059099463E+03  0.39880160047E+03  0.87255881520E+03  0.18800000000E+03 0.  0.
<mgrwt>
<rscale>  0 0.15527074E+04</rscale>
<asrwt>0</asrwt>
<pdfrwt beam="1">  1        2 0.17701234E+00 0.15527074E+04</pdfrwt>
<pdfrwt beam="2">  1       -2 0.69489573E-01 0.15527074E+04</pdfrwt>
<totfact> 0.36987747E+01</totfact>
</mgrwt>
</event>
<event>
 4    1  0.6024609E-005  0.6581201E+03  0.7818608E-02  0.9791661E-01
         -2   -1    0    0    0  501 -0.00000000000E+00  0.00000000000E+00  0.68345942622E+02  0.68345942670E+02  0.25500000000E-02 0. -1.
          2   -1    0    0  501    0  0.00000000000E+00 -0.00000000000E+00 -0.15843006228E+04  0.15843006228E+04  0.25500000000E-02 0.  1.
    5000001    1    1    2    0    0 -0.13603692364E+03  0.23075516343E+03 -0.84433101193E+03  0.90553456464E+03  0.18800000000E+03 0.  0.
   -5000001    1    1    2    0    0  0.13603692364E+03 -0.23075516343E+03 -0.67162366822E+03  0.74711200081E+03  0.18800000000E+03 0.  0.
<mgrwt>
<rscale>  0 0.65812011E+03</rscale>
<asrwt>0</asrwt>
<pdfrwt beam="1">  1        2 0.22632864E+00 0.65812011E+03</pdfrwt>
<pdfrwt beam="2">  1       -2 0.97637070E-02 0.65812011E+03</pdfrwt>
<totfact> 0.95526955E+02</totfact>
</mgrwt>
</event>
<event>
 4    1  0.6024609E-005  0.4308190E+03  0.7818608E-02  0.1033602E+00
         -2   -1    0    0    0  501 -0.00000000000E+00  0.00000000000E+00  0.29419460938E+02  0.29419461048E+02  0.25500000000E-02 0. -1.
          2   -1    0    0  501    0  0.00000000000E+00 -0.00000000000E+00 -0.15772300706E+04  0.15772300706E+04  0.25500000000E-02 0.  1.
    5000001    1    1    2    0    0 -0.20999723148E+02  0.10182831521E+03 -0.71526353557E+03  0.74683058284E+03  0.18800000000E+03 0.  0.
   -5000001    1    1    2    0    0  0.20999723148E+02 -0.10182831521E+03 -0.83254707408E+03  0.85981894880E+03  0.18800000000E+03 0.  0.
<mgrwt>
<rscale>  0 0.43081903E+03</rscale>
<asrwt>0</asrwt>
<pdfrwt beam="1">  1        2 0.22531853E+00 0.43081903E+03</pdfrwt>
<pdfrwt beam="2">  1       -2 0.42027811E-02 0.43081903E+03</pdfrwt>
<totfact> 0.36414067E+03</totfact>
</mgrwt>
</event>
<event>
 4    1  0.6024609E-005  0.4666129E+03  0.7818608E-02  0.1022881E+00
          2   -1    0    0  501    0  0.00000000000E+00  0.00000000000E+00  0.51113804969E+03  0.51113804969E+03  0.25500000000E-02 0.  1.
         -2   -1    0    0    0  501 -0.00000000000E+00 -0.00000000000E+00 -0.10649159915E+03  0.10649159918E+03  0.25500000000E-02 0. -1.
    5000001    1    1    2    0    0 -0.18862178299E+02  0.13368875981E+03  0.24112750772E+03  0.33423785131E+03  0.18800000000E+03 0.  0.
   -5000001    1    1    2    0    0  0.18862178299E+02 -0.13368875981E+03  0.16351894282E+03  0.28339179757E+03  0.18800000000E+03 0.  0.
<mgrwt>
<rscale>  0 0.46661294E+03</rscale>
<asrwt>0</asrwt>
<pdfrwt beam="1">  1        2 0.73019723E-01 0.46661294E+03</pdfrwt>
<pdfrwt beam="2">  1       -2 0.15213085E-01 0.46661294E+03</pdfrwt>
<totfact> 0.22237462E+03</totfact>
</mgrwt>
</event>
<event>
 4    1  0.6024609E-005  0.5953033E+03  0.7818608E-02  0.9915198E-01
          2   -1    0    0  501    0  0.00000000000E+00  0.00000000000E+00  0.80591830730E+03  0.80591830730E+03  0.25500000000E-02 0.  1.
         -2   -1    0    0    0  501 -0.00000000000E+00 -0.00000000000E+00 -0.10993237966E+03  0.10993237969E+03  0.25500000000E-02 0. -1.
    5000001    1    1    2    0    0 -0.20347574156E+03 -0.28031541839E+02  0.18616642294E+03  0.33494787919E+03  0.18800000000E+03 0.  0.
   -5000001    1    1    2    0    0  0.20347574156E+03  0.28031541839E+02  0.50981950470E+03  0.58090280780E+03  0.18800000000E+03 0.  0.
<mgrwt>
<rscale>  0 0.59530334E+03</rscale>
<asrwt>0</asrwt>
<pdfrwt beam="1">  1        2 0.11513118E+00 0.59530334E+03</pdfrwt>
<pdfrwt beam="2">  1       -2 0.15704626E-01 0.59530334E+03</pdfrwt>
<totfact> 0.12229387E+03</totfact>
</mgrwt>
</event>
<event>
 4    1  0.6024609E-005  0.8185898E+03  0.7818608E-02  0.9533492E-01
         -2   -1    0    0    0  501 -0.00000000000E+00  0.00000000000E+00  0.17986984921E+03  0.17986984923E+03  0.25500000000E-02 0. -1.
          2   -1    0    0  501    0  0.00000000000E+00 -0.00000000000E+00 -0.93135305976E+03  0.93135305976E+03  0.25500000000E-02 0.  1.
    5000001    1    1    2    0    0  0.38607764831E+02  0.29013542536E+03 -0.66849659991E+03  0.75359195102E+03  0.18800000000E+03 0.  0.
   -5000001    1    1    2    0    0 -0.38607764831E+02 -0.29013542536E+03 -0.82986610645E+02  0.35763095797E+03  0.18800000000E+03 0.  0.
<mgrwt>
<rscale>  0 0.81858985E+03</rscale>
<asrwt>0</asrwt>
<pdfrwt beam="1">  1        2 0.13305043E+00 0.81858985E+03</pdfrwt>
<pdfrwt beam="2">  1       -2 0.25695693E-01 0.81858985E+03</pdfrwt>
<totfact> 0.42398845E+02</totfact>
</mgrwt>
</event>
<event>
 4    1  0.6024609E-005  0.4307617E+03  0.7818608E-02  0.1033620E+00
          2   -1    0    0  501    0  0.00000000000E+00  0.00000000000E+00  0.13266862874E+04  0.13266862874E+04  0.25500000000E-02 0.  1.
         -2   -1    0    0    0  501 -0.00000000000E+00 -0.00000000000E+00 -0.34965993035E+02  0.34965993128E+02  0.25500000000E-02 0. -1.
    5000001    1    1    2    0    0 -0.68804652470E+00 -0.10010648728E+03  0.74696982837E+03  0.77674301200E+03  0.18800000000E+03 0.  0.
   -5000001    1    1    2    0    0  0.68804652470E+00  0.10010648728E+03  0.54475046600E+03  0.58490926853E+03  0.18800000000E+03 0.  0.
<mgrwt>
<rscale>  0 0.43076167E+03</rscale>
<asrwt>0</asrwt>
<pdfrwt beam="1">  1        2 0.18952661E+00 0.43076167E+03</pdfrwt>
<pdfrwt beam="2">  1       -2 0.49951418E-02 0.43076167E+03</pdfrwt>
<totfact> 0.37713183E+03</totfact>
</mgrwt>
</event>
<event>
 4    1  0.6024609E-005  0.9534163E+03  0.7818608E-02  0.9361166E-01
          2   -1    0    0  501    0  0.00000000000E+00  0.00000000000E+00  0.11005596371E+04  0.11005596371E+04  0.25500000000E-02 0.  1.
         -2   -1    0    0    0  501 -0.00000000000E+00 -0.00000000000E+00 -0.20648644275E+03  0.20648644277E+03  0.25500000000E-02 0. -1.
    5000001    1    1    2    0    0 -0.19562842118E+03  0.39049244215E+03  0.49356308453E+03  0.68534906796E+03  0.18800000000E+03 0.  0.
   -5000001    1    1    2    0    0  0.19562842118E+03 -0.39049244215E+03  0.40051010982E+03  0.62169701191E+03  0.18800000000E+03 0.  0.
<mgrwt>
<rscale>  0 0.95341627E+03</rscale>
<asrwt>0</asrwt>
<pdfrwt beam="1">  1        2 0.15722280E+00 0.95341627E+03</pdfrwt>
<pdfrwt beam="2">  1       -2 0.29498063E-01 0.95341627E+03</pdfrwt>
<totfact> 0.25769099E+02</totfact>
</mgrwt>
</event>
<event>
 4    1  0.6024609E-005  0.5698415E+03  0.7818608E-02  0.9970029E-01
         -2   -1    0    0    0  501 -0.00000000000E+00  0.00000000000E+00  0.16437383309E+03  0.16437383311E+03  0.25500000000E-02 0. -1.
          2   -1    0    0  501    0  0.00000000000E+00 -0.00000000000E+00 -0.49387325497E+03  0.49387325497E+03  0.25500000000E-02 0.  1.
    5000001    1    1    2    0    0  0.63040735783E+02  0.12727327728E+03 -0.34980027632E+03  0.42175449588E+03  0.18800000000E+03 0.  0.
   -5000001    1    1    2    0    0 -0.63040735783E+02 -0.12727327728E+03  0.20300854446E+02  0.23649259220E+03  0.18800000000E+03 0.  0.
<mgrwt>
<rscale>  0 0.56984152E+03</rscale>
<asrwt>0</asrwt>
<pdfrwt beam="1">  1        2 0.70553321E-01 0.56984152E+03</pdfrwt>
<pdfrwt beam="2">  1       -2 0.23481976E-01 0.56984152E+03</pdfrwt>
<totfact> 0.10941008E+03</totfact>
</mgrwt>
</event>
<event>
 4    1  0.6024609E-005  0.4384404E+03  0.7818608E-02  0.1031226E+00
          2   -1    0    0  501    0  0.00000000000E+00  0.00000000000E+00  0.16623483562E+03  0.16623483564E+03  0.25500000000E-02 0.  1.
         -2   -1    0    0    0  501 -0.00000000000E+00 -0.00000000000E+00 -0.28909395490E+03  0.28909395491E+03  0.25500000000E-02 0. -1.
    5000001    1    1    2    0    0  0.17787579019E+02  0.10530847579E+03 -0.23881475962E+02  0.21753298126E+03  0.18800000000E+03 0.  0.
   -5000001    1    1    2    0    0 -0.17787579019E+02 -0.10530847579E+03 -0.98977643319E+02  0.23779580929E+03  0.18800000000E+03 0.  0.
<mgrwt>
<rscale>  0 0.43844035E+03</rscale>
<asrwt>0</asrwt>
<pdfrwt beam="1">  1        2 0.23747834E-01 0.43844035E+03</pdfrwt>
<pdfrwt beam="2">  1       -2 0.41299137E-01 0.43844035E+03</pdfrwt>
<totfact> 0.12880210E+03</totfact>
</mgrwt>
</event>
<event>
 4    1  0.6024609E-005  0.7496180E+03  0.7818608E-02  0.9635950E-01
         -2   -1    0    0    0  501 -0.00000000000E+00  0.00000000000E+00  0.71962948108E+03  0.71962948109E+03  0.25500000000E-02 0. -1.
          2   -1    0    0  501    0  0.00000000000E+00 -0.00000000000E+00 -0.19521404861E+03  0.19521404862E+03  0.25500000000E-02 0.  1.
    5000001    1    1    2    0    0  0.98300465191E+02  0.30174083125E+03  0.34341126489E+03  0.50397004628E+03  0.18800000000E+03 0.  0.
   -5000001    1    1    2    0    0 -0.98300465191E+02 -0.30174083125E+03  0.18100416759E+03  0.41087348343E+03  0.18800000000E+03 0.  0.
<mgrwt>
<rscale>  0 0.74961799E+03</rscale>
<asrwt>0</asrwt>
<pdfrwt beam="1">  1        2 0.27887721E-01 0.74961799E+03</pdfrwt>
<pdfrwt beam="2">  1       -2 0.10280421E+00 0.74961799E+03</pdfrwt>
<totfact> 0.15084675E+02</totfact>
</mgrwt>
</event>
<event>
 4    1  0.6024609E-005  0.5919004E+03  0.7818608E-02  0.9922354E-01
          2   -1    0    0  501    0  0.00000000000E+00  0.00000000000E+00  0.28727239665E+04  0.28727239665E+04  0.25500000000E-02 0. -1.
         -2   -1    0    0    0  501 -0.00000000000E+00 -0.00000000000E+00 -0.30489014677E+02  0.30489014784E+02  0.25500000000E-02 0.  1.
    5000001    1    1    2    0    0 -0.99886184542E+02 -0.18453403498E+03  0.97662237239E+03  0.10164474006E+04  0.18800000000E+03 0.  0.
   -5000001    1    1    2    0    0  0.99886184542E+02  0.18453403498E+03  0.18656125794E+04  0.18867655807E+04  0.18800000000E+03 0.  0.
<mgrwt>
<rscale>  0 0.59190041E+03</rscale>
<asrwt>0</asrwt>
<pdfrwt beam="1">  1        2 0.41038895E+00 0.59190041E+03</pdfrwt>
<pdfrwt beam="2">  1       -2 0.43555756E-02 0.59190041E+03</pdfrwt>
<totfact> 0.75103192E+02</totfact>
</mgrwt>
</event>
<event>
 4    1  0.6024609E-005  0.5665496E+03  0.7818608E-02  0.9977343E-01
          2   -1    0    0  501    0  0.00000000000E+00  0.00000000000E+00  0.31391306372E+03  0.31391306373E+03  0.25500000000E-02 0.  1.
         -2   -1    0    0    0  501 -0.00000000000E+00 -0.00000000000E+00 -0.25562682186E+03  0.25562682187E+03  0.25500000000E-02 0. -1.
    5000001    1    1    2    0    0 -0.38391586055E+02  0.11237953374E+03  0.20556163246E+03  0.30282446768E+03  0.18800000000E+03 0.  0.
   -5000001    1    1    2    0    0  0.38391586055E+02 -0.11237953374E+03 -0.14727539060E+03  0.26671541793E+03  0.18800000000E+03 0.  0.
<mgrwt>
<rscale>  0 0.56654955E+03</rscale>
<asrwt>0</asrwt>
<pdfrwt beam="1">  1        2 0.44844723E-01 0.56654955E+03</pdfrwt>
<pdfrwt beam="2">  1       -2 0.36518118E-01 0.56654955E+03</pdfrwt>
<totfact> 0.80379486E+02</totfact>
</mgrwt>
</event>
<event>
 4    1  0.6024609E-005  0.4967667E+03  0.7818608E-02  0.1014626E+00
          2   -1    0    0  501    0  0.00000000000E+00  0.00000000000E+00  0.34872526329E+03  0.34872526330E+03  0.25500000000E-02 0.  1.
         -2   -1    0    0    0  501 -0.00000000000E+00 -0.00000000000E+00 -0.17691371763E+03  0.17691371765E+03  0.25500000000E-02 0. -1.
    5000001    1    1    2    0    0  0.37170697903E+02  0.56628328014E+02  0.24199864066E+03  0.31384035814E+03  0.18800000000E+03 0.  0.
   -5000001    1    1    2    0    0 -0.37170697903E+02 -0.56628328014E+02 -0.70187095004E+02  0.21179862280E+03  0.18800000000E+03 0.  0.
<mgrwt>
<rscale>  0 0.49676668E+03</rscale>
<asrwt>0</asrwt>
<pdfrwt beam="1">  1        2 0.49817894E-01 0.49676668E+03</pdfrwt>
<pdfrwt beam="2">  1       -2 0.25273389E-01 0.49676668E+03</pdfrwt>
<totfact> 0.14133290E+03</totfact>
</mgrwt>
</event>
<event>
 4    1  0.6024609E-005  0.4921153E+03  0.7818608E-02  0.1015858E+00
          2   -1    0    0  501    0  0.00000000000E+00  0.00000000000E+00  0.13078809642E+04  0.13078809642E+04  0.25500000000E-02 0.  1.
         -2   -1    0    0    0  501 -0.00000000000E+00 -0.00000000000E+00 -0.46291953919E+02  0.46291953989E+02  0.25500000000E-02 0. -1.
    5000001    1    1    2    0    0 -0.30013907716E+02 -0.13401368470E+03  0.84989693841E+03  0.88120900373E+03  0.18800000000E+03 0.  0.
   -5000001    1    1    2    0    0  0.30013907716E+02  0.13401368470E+03  0.41169207192E+03  0.47296391450E+03  0.18800000000E+03 0.  0.
<mgrwt>
<rscale>  0 0.49211529E+03</rscale>
<asrwt>0</asrwt>
<pdfrwt beam="1">  1        2 0.18684012E+00 0.49211529E+03</pdfrwt>
<pdfrwt beam="2">  1       -2 0.66131370E-02 0.49211529E+03</pdfrwt>
<totfact> 0.24962541E+03</totfact>
</mgrwt>
</event>
<event>
 4    1  0.6024609E-005  0.1055946E+04  0.7818608E-02  0.9249227E-01
          2   -1    0    0  501    0  0.00000000000E+00  0.00000000000E+00  0.59056535285E+03  0.59056535286E+03  0.25500000000E-02 0.  1.
         -2   -1    0    0    0  501 -0.00000000000E+00 -0.00000000000E+00 -0.47201420371E+03  0.47201420372E+03  0.25500000000E-02 0. -1.
    5000001    1    1    2    0    0 -0.49199923960E+03 -0.22969739681E+02  0.30453455562E+02  0.52807411758E+03  0.18800000000E+03 0.  0.
   -5000001    1    1    2    0    0  0.49199923960E+03  0.22969739681E+02  0.88097693579E+02  0.53450543900E+03  0.18800000000E+03 0.  0.
<mgrwt>
<rscale>  0 0.10559455E+04</rscale>
<asrwt>0</asrwt>
<pdfrwt beam="1">  1        2 0.84366479E-01 0.10559455E+04</pdfrwt>
<pdfrwt beam="2">  1       -2 0.67430601E-01 0.10559455E+04</pdfrwt>
<totfact> 0.11109294E+02</totfact>
</mgrwt>
</event>
<event>
 4    1  0.6024609E-005  0.4680153E+03  0.7818608E-02  0.1022482E+00
         -2   -1    0    0    0  501 -0.00000000000E+00  0.00000000000E+00  0.27876985582E+03  0.27876985583E+03  0.25500000000E-02 0. -1.
          2   -1    0    0  501    0  0.00000000000E+00 -0.00000000000E+00 -0.19643294107E+03  0.19643294109E+03  0.25500000000E-02 0.  1.
    5000001    1    1    2    0    0 -0.29264906430E+02  0.12697822472E+03  0.91278975936E+02  0.24628389259E+03  0.18800000000E+03 0.  0.
   -5000001    1    1    2    0    0  0.29264906430E+02 -0.12697822472E+03 -0.89420611934E+01  0.22891890433E+03  0.18800000000E+03 0.  0.
<mgrwt>
<rscale>  0 0.46801531E+03</rscale>
<asrwt>0</asrwt>
<pdfrwt beam="1">  1        2 0.28061849E-01 0.46801531E+03</pdfrwt>
<pdfrwt beam="2">  1       -2 0.39824265E-01 0.46801531E+03</pdfrwt>
<totfact> 0.11446149E+03</totfact>
</mgrwt>
</event>
<event>
 4    1  0.6024609E-005  0.5941644E+03  0.7818608E-02  0.9917588E-01
          2   -1    0    0  501    0  0.00000000000E+00  0.00000000000E+00  0.40973796835E+03  0.40973796836E+03  0.25500000000E-02 0.  1.
         -2   -1    0    0    0  501 -0.00000000000E+00 -0.00000000000E+00 -0.21540066363E+03  0.21540066364E+03  0.25500000000E-02 0. -1.
    5000001    1    1    2    0    0  0.18946072143E+03  0.10693830934E+03  0.17578094066E+03  0.33700757568E+03  0.18800000000E+03 0.  0.
   -5000001    1    1    2    0    0 -0.18946072143E+03 -0.10693830934E+03  0.18556364065E+02  0.28813105632E+03  0.18800000000E+03 0.  0.
<mgrwt>
<rscale>  0 0.59416439E+03</rscale>
<asrwt>0</asrwt>
<pdfrwt beam="1">  1        2 0.58533995E-01 0.59416439E+03</pdfrwt>
<pdfrwt beam="2">  1       -2 0.30771524E-01 0.59416439E+03</pdfrwt>
<totfact> 0.82584550E+02</totfact>
</mgrwt>
</event>
<event>
 4    1  0.6024609E-005  0.6413063E+03  0.7818608E-02  0.9823230E-01
         -2   -1    0    0    0  501 -0.00000000000E+00  0.00000000000E+00  0.19574522134E+03  0.19574522136E+03  0.25500000000E-02 0. -1.
          2   -1    0    0  501    0  0.00000000000E+00 -0.00000000000E+00 -0.52526673108E+03  0.52526673108E+03  0.25500000000E-02 0.  1.
    5000001    1    1    2    0    0 -0.22357000025E+03  0.12716847650E+03 -0.20559396391E+03  0.37916783147E+03  0.18800000000E+03 0.  0.
   -5000001    1    1    2    0    0  0.22357000025E+03 -0.12716847650E+03 -0.12392754583E+03  0.34184412097E+03  0.18800000000E+03 0.  0.
<mgrwt>
<rscale>  0 0.64130633E+03</rscale>
<asrwt>0</asrwt>
<pdfrwt beam="1">  1        2 0.75038104E-01 0.64130633E+03</pdfrwt>
<pdfrwt beam="2">  1       -2 0.27963603E-01 0.64130633E+03</pdfrwt>
<totfact> 0.74361107E+02</totfact>
</mgrwt>
</event>
<event>
 4    1  0.6024609E-005  0.7130703E+03  0.7818608E-02  0.9695138E-01
         -2   -1    0    0    0  501 -0.00000000000E+00  0.00000000000E+00  0.55925204106E+02  0.55925204165E+02  0.25500000000E-02 0. -1.
          2   -1    0    0  501    0  0.00000000000E+00 -0.00000000000E+00 -0.22729881023E+04  0.22729881023E+04  0.25500000000E-02 0.  1.
    5000001    1    1    2    0    0  0.30716091021E+02 -0.28741763867E+03 -0.81240181939E+03  0.88254920169E+03  0.18800000000E+03 0.  0.
   -5000001    1    1    2    0    0 -0.30716091021E+02  0.28741763867E+03 -0.14046610788E+04  0.14463641048E+04  0.18800000000E+03 0.  0.
<mgrwt>
<rscale>  0 0.71307033E+03</rscale>
<asrwt>0</asrwt>
<pdfrwt beam="1">  1        2 0.32471253E+00 0.71307033E+03</pdfrwt>
<pdfrwt beam="2">  1       -2 0.79893163E-02 0.71307033E+03</pdfrwt>
<totfact> 0.58821474E+02</totfact>
</mgrwt>
</event>
<event>
 4    1  0.6024609E-005  0.1033492E+04  0.7818608E-02  0.9272555E-01
          2   -1    0    0  501    0  0.00000000000E+00  0.00000000000E+00  0.44518912715E+03  0.44518912716E+03  0.25500000000E-02 0.  1.
         -2   -1    0    0    0  501 -0.00000000000E+00 -0.00000000000E+00 -0.59980483549E+03  0.59980483549E+03  0.25500000000E-02 0. -1.
    5000001    1    1    2    0    0  0.40762466612E+03  0.25194049368E+03 -0.31519113805E+02  0.51572214934E+03  0.18800000000E+03 0.  0.
   -5000001    1    1    2    0    0 -0.40762466612E+03 -0.25194049368E+03 -0.12309659453E+03  0.52927181331E+03  0.18800000000E+03 0.  0.
<mgrwt>
<rscale>  0 0.10334923E+04</rscale>
<asrwt>0</asrwt>
<pdfrwt beam="1">  1        2 0.63598447E-01 0.10334923E+04</pdfrwt>
<pdfrwt beam="2">  1       -2 0.85686405E-01 0.10334923E+04</pdfrwt>
<totfact> 0.90463544E+01</totfact>
</mgrwt>
</event>
<event>
 4    1  0.6024609E-005  0.6192207E+03  0.7818608E-02  0.9866313E-01
         -2   -1    0    0    0  501 -0.00000000000E+00  0.00000000000E+00  0.94125127597E+02  0.94125127632E+02  0.25500000000E-02 0. -1.
          2   -1    0    0  501    0  0.00000000000E+00 -0.00000000000E+00 -0.10184162459E+04  0.10184162459E+04  0.25500000000E-02 0.  1.
    5000001    1    1    2    0    0  0.16496678686E+03 -0.15560076761E+03 -0.29085759235E+03  0.41396591488E+03  0.18800000000E+03 0.  0.
   -5000001    1    1    2    0    0 -0.16496678686E+03  0.15560076761E+03 -0.63343352598E+03  0.69857545869E+03  0.18800000000E+03 0.  0.
<mgrwt>
<rscale>  0 0.61922067E+03</rscale>
<asrwt>0</asrwt>
<pdfrwt beam="1">  1        2 0.14548803E+00 0.61922067E+03</pdfrwt>
<pdfrwt beam="2">  1       -2 0.13446447E-01 0.61922067E+03</pdfrwt>
<totfact> 0.11580077E+03</totfact>
</mgrwt>
</event>
<event>
 4    1  0.6024609E-005  0.1069075E+04  0.7818608E-02  0.9235869E-01
          2   -1    0    0  501    0  0.00000000000E+00  0.00000000000E+00  0.15141278290E+04  0.15141278290E+04  0.25500000000E-02 0.  1.
         -2   -1    0    0    0  501 -0.00000000000E+00 -0.00000000000E+00 -0.18870940476E+03  0.18870940477E+03  0.25500000000E-02 0. -1.
    5000001    1    1    2    0    0  0.48764622014E+03 -0.27508667488E+02  0.48946112120E+03  0.71656943276E+03  0.18800000000E+03 0.  0.
   -5000001    1    1    2    0    0 -0.48764622014E+03  0.27508667488E+02  0.83595730305E+03  0.98626780102E+03  0.18800000000E+03 0.  0.
<mgrwt>
<rscale>  0 0.10690747E+04</rscale>
<asrwt>0</asrwt>
<pdfrwt beam="1">  1        2 0.21630398E+00 0.10690747E+04</pdfrwt>
<pdfrwt beam="2">  1       -2 0.26958486E-01 0.10690747E+04</pdfrwt>
<totfact> 0.17828364E+02</totfact>
</mgrwt>
</event>
<event>
 4    1  0.6024609E-005  0.5369809E+03  0.7818608E-02  0.1004553E+00
          2   -1    0    0  501    0  0.00000000000E+00  0.00000000000E+00  0.33146261006E+03  0.33146261007E+03  0.25500000000E-02 0.  1.
         -2   -1    0    0    0  501 -0.00000000000E+00 -0.00000000000E+00 -0.21748188667E+03  0.21748188669E+03  0.25500000000E-02 0. -1.
    5000001    1    1    2    0    0 -0.13489079779E+03 -0.13467922562E+03  0.77667025492E+02  0.27876547130E+03  0.18800000000E+03 0.  0.
   -5000001    1    1    2    0    0  0.13489079779E+03  0.13467922562E+03  0.36313697898E+02  0.27017902546E+03  0.18800000000E+03 0.  0.
<mgrwt>
<rscale>  0 0.53698087E+03</rscale>
<asrwt>0</asrwt>
<pdfrwt beam="1">  1        2 0.47351802E-01 0.53698087E+03</pdfrwt>
<pdfrwt beam="2">  1       -2 0.31068841E-01 0.53698087E+03</pdfrwt>
<totfact> 0.10260180E+03</totfact>
</mgrwt>
</event>
<event>
 4    1  0.6024609E-005  0.4381424E+03  0.7818608E-02  0.1031318E+00
          2   -1    0    0  501    0  0.00000000000E+00  0.00000000000E+00  0.19505710031E+04  0.19505710031E+04  0.25500000000E-02 0.  1.
         -2   -1    0    0    0  501 -0.00000000000E+00 -0.00000000000E+00 -0.24604171606E+02  0.24604171738E+02  0.25500000000E-02 0. -1.
    5000001    1    1    2    0    0  0.31475641843E+02 -0.10247362057E+03  0.11162991161E+04  0.11370836713E+04  0.18800000000E+03 0.  0.
   -5000001    1    1    2    0    0 -0.31475641843E+02  0.10247362057E+03  0.80966771533E+03  0.83809150347E+03  0.18800000000E+03 0.  0.
<mgrwt>
<rscale>  0 0.43814237E+03</rscale>
<asrwt>0</asrwt>
<pdfrwt beam="1">  1        2 0.27865289E+00 0.43814237E+03</pdfrwt>
<pdfrwt beam="2">  1       -2 0.35148830E-02 0.43814237E+03</pdfrwt>
<totfact> 0.31066892E+03</totfact>
</mgrwt>
</event>
<event>
 4    1  0.6024609E-005  0.5567617E+03  0.7818608E-02  0.9999409E-01
          2   -1    0    0  501    0  0.00000000000E+00  0.00000000000E+00  0.35526506489E+03  0.35526506490E+03  0.25500000000E-02 0.  1.
         -2   -1    0    0    0  501 -0.00000000000E+00 -0.00000000000E+00 -0.21813545288E+03  0.21813545289E+03  0.25500000000E-02 0. -1.
    5000001    1    1    2    0    0 -0.82954480980E+01  0.20314684062E+03  0.39173316871E+02  0.27967123925E+03  0.18800000000E+03 0.  0.
   -5000001    1    1    2    0    0  0.82954480980E+01 -0.20314684062E+03  0.97956295141E+02  0.29372927854E+03  0.18800000000E+03 0.  0.
<mgrwt>
<rscale>  0 0.55676173E+03</rscale>
<asrwt>0</asrwt>
<pdfrwt beam="1">  1        2 0.50752152E-01 0.55676173E+03</pdfrwt>
<pdfrwt beam="2">  1       -2 0.31162208E-01 0.55676173E+03</pdfrwt>
<totfact> 0.94518535E+02</totfact>
</mgrwt>
</event>
<event>
 4    1  0.6024609E-005  0.5005691E+03  0.7818608E-02  0.1013630E+00
          2   -1    0    0  501    0  0.00000000000E+00  0.00000000000E+00  0.25959379384E+04  0.25959379384E+04  0.25500000000E-02 0.  1.
         -2   -1    0    0    0  501 -0.00000000000E+00 -0.00000000000E+00 -0.24130917823E+02  0.24130917957E+02  0.25500000000E-02 0. -1.
    5000001    1    1    2    0    0  0.11578813417E+03 -0.57322878600E+02  0.74687038483E+03  0.78093032735E+03  0.18800000000E+03 0.  0.
   -5000001    1    1    2    0    0 -0.11578813417E+03  0.57322878600E+02  0.18249366358E+04  0.18391385290E+04  0.18800000000E+03 0.  0.
<mgrwt>
<rscale>  0 0.50056914E+03</rscale>
<asrwt>0</asrwt>
<pdfrwt beam="1">  1        2 0.37084826E+00 0.50056914E+03</pdfrwt>
<pdfrwt beam="2">  1       -2 0.34472741E-02 0.50056914E+03</pdfrwt>
<totfact> 0.15114589E+03</totfact>
</mgrwt>
</event>
<event>
 4    1  0.6024609E-005  0.8169366E+03  0.7818608E-02  0.9535821E-01
          2   -1    0    0  501    0  0.00000000000E+00  0.00000000000E+00  0.73425318290E+03  0.73425318290E+03  0.25500000000E-02 0.  1.
         -2   -1    0    0    0  501 -0.00000000000E+00 -0.00000000000E+00 -0.22723273759E+03  0.22723273761E+03  0.25500000000E-02 0. -1.
    5000001    1    1    2    0    0  0.14070594873E+02  0.34964666477E+03  0.36548416722E+03  0.53979018916E+03  0.18800000000E+03 0.  0.
   -5000001    1    1    2    0    0 -0.14070594873E+02 -0.34964666477E+03  0.14153627809E+03  0.42169573135E+03  0.18800000000E+03 0.  0.
<mgrwt>
<rscale>  0 0.81693662E+03</rscale>
<asrwt>0</asrwt>
<pdfrwt beam="1">  1        2 0.10489331E+00 0.81693662E+03</pdfrwt>
<pdfrwt beam="2">  1       -2 0.32461820E-01 0.81693662E+03</pdfrwt>
<totfact> 0.37591601E+02</totfact>
</mgrwt>
</event>
<event>
 4    1  0.6024609E-005  0.6686983E+03  0.7818608E-02  0.9772312E-01
         -2   -1    0    0    0  501 -0.00000000000E+00  0.00000000000E+00  0.24133421884E+03  0.24133421886E+03  0.25500000000E-02 0. -1.
          2   -1    0    0  501    0  0.00000000000E+00 -0.00000000000E+00 -0.46321380743E+03  0.46321380744E+03  0.25500000000E-02 0.  1.
    5000001    1    1    2    0    0  0.27242749687E+03 -0.43672107656E+02 -0.92052556863E+02  0.34632595522E+03  0.18800000000E+03 0.  0.
   -5000001    1    1    2    0    0 -0.27242749687E+03  0.43672107656E+02 -0.12982703173E+03  0.35822207107E+03  0.18800000000E+03 0.  0.
<mgrwt>
<rscale>  0 0.66869826E+03</rscale>
<asrwt>0</asrwt>
<pdfrwt beam="1">  1        2 0.66173401E-01 0.66869826E+03</pdfrwt>
<pdfrwt beam="2">  1       -2 0.34476317E-01 0.66869826E+03</pdfrwt>
<totfact> 0.58088829E+02</totfact>
</mgrwt>
</event>
<event>
 4    1  0.6024609E-005  0.4115083E+03  0.7818608E-02  0.1039866E+00
          2   -1    0    0  501    0  0.00000000000E+00  0.00000000000E+00  0.55367802417E+03  0.55367802417E+03  0.25500000000E-02 0.  1.
         -2   -1    0    0    0  501 -0.00000000000E+00 -0.00000000000E+00 -0.76460992969E+02  0.76460993011E+02  0.25500000000E-02 0. -1.
    5000001    1    1    2    0    0  0.76874901347E+02  0.12394679953E+02  0.28524111960E+03  0.35038532340E+03  0.18800000000E+03 0.  0.
   -5000001    1    1    2    0    0 -0.76874901347E+02 -0.12394679953E+02  0.19197591160E+03  0.27975369378E+03  0.18800000000E+03 0.  0.
<mgrwt>
<rscale>  0 0.41150831E+03</rscale>
<asrwt>0</asrwt>
<pdfrwt beam="1">  1        2 0.79096860E-01 0.41150831E+03</pdfrwt>
<pdfrwt beam="2">  1       -2 0.10922999E-01 0.41150831E+03</pdfrwt>
<totfact> 0.34978190E+03</totfact>
</mgrwt>
</event>
<event>
 4    1  0.6024609E-005  0.5356857E+03  0.7818608E-02  0.1004862E+00
          2   -1    0    0  501    0  0.00000000000E+00  0.00000000000E+00  0.14722212936E+04  0.14722212936E+04  0.25500000000E-02 0.  1.
         -2   -1    0    0    0  501 -0.00000000000E+00 -0.00000000000E+00 -0.48728948967E+02  0.48728949033E+02  0.25500000000E-02 0. -1.
    5000001    1    1    2    0    0  0.93959511772E+02  0.12916729982E+03  0.10079451453E+04  0.10376945587E+04  0.18800000000E+03 0.  0.
   -5000001    1    1    2    0    0 -0.93959511772E+02 -0.12916729982E+03  0.41554719934E+03  0.48325568396E+03  0.18800000000E+03 0.  0.
<mgrwt>
<rscale>  0 0.53568572E+03</rscale>
<asrwt>0</asrwt>
<pdfrwt beam="1">  1        2 0.21031735E+00 0.53568572E+03</pdfrwt>
<pdfrwt beam="2">  1       -2 0.69612777E-02 0.53568572E+03</pdfrwt>
<totfact> 0.18832322E+03</totfact>
</mgrwt>
</event>
<event>
 4    1  0.6024609E-005  0.6401970E+03  0.7818608E-02  0.9825350E-01
          2   -1    0    0  501    0  0.00000000000E+00  0.00000000000E+00  0.56496550409E+03  0.56496550409E+03  0.25500000000E-02 0.  1.
         -2   -1    0    0    0  501 -0.00000000000E+00 -0.00000000000E+00 -0.18136158617E+03  0.18136158619E+03  0.25500000000E-02 0. -1.
    5000001    1    1    2    0    0 -0.16994800293E+03 -0.19203732052E+03  0.23476814825E+03  0.39524769399E+03  0.18800000000E+03 0.  0.
   -5000001    1    1    2    0    0  0.16994800293E+03  0.19203732052E+03  0.14883576966E+03  0.35107939629E+03  0.18800000000E+03 0.  0.
<mgrwt>
<rscale>  0 0.64019697E+03</rscale>
<asrwt>0</asrwt>
<pdfrwt beam="1">  1        2 0.80709356E-01 0.64019697E+03</pdfrwt>
<pdfrwt beam="2">  1       -2 0.25908799E-01 0.64019697E+03</pdfrwt>
<totfact> 0.78524960E+02</totfact>
</mgrwt>
</event>
<event>
 4    1  0.6024609E-005  0.1102517E+04  0.7818608E-02  0.9202742E-01
          2   -1    0    0  501    0  0.00000000000E+00  0.00000000000E+00  0.24018411047E+04  0.24018411047E+04  0.25500000000E-02 0.  1.
         -2   -1    0    0    0  501 -0.00000000000E+00 -0.00000000000E+00 -0.12652206858E+03  0.12652206861E+03  0.25500000000E-02 0. -1.
    5000001    1    1    2    0    0  0.18359613796E+03 -0.46948244116E+03  0.14130480530E+04  0.15120086325E+04  0.18800000000E+03 0.  0.
   -5000001    1    1    2    0    0 -0.18359613796E+03  0.46948244116E+03  0.86227098308E+03  0.10163545408E+04  0.18800000000E+03 0.  0.
<mgrwt>
<rscale>  0 0.11025169E+04</rscale>
<asrwt>0</asrwt>
<pdfrwt beam="1">  1        2 0.34312018E+00 0.11025169E+04</pdfrwt>
<pdfrwt beam="2">  1       -2 0.18074580E-01 0.11025169E+04</pdfrwt>
<totfact> 0.12637815E+02</totfact>
</mgrwt>
</event>
<event>
 4    1  0.6024609E-005  0.5083670E+03  0.7818608E-02  0.1011618E+00
          2   -1    0    0  501    0  0.00000000000E+00  0.00000000000E+00  0.12232456758E+04  0.12232456758E+04  0.25500000000E-02 0.  1.
         -2   -1    0    0    0  501 -0.00000000000E+00 -0.00000000000E+00 -0.52817893727E+02  0.52817893789E+02  0.25500000000E-02 0. -1.
    5000001    1    1    2    0    0 -0.41200694703E+01  0.16772979961E+03  0.66903092089E+03  0.71491022776E+03  0.18800000000E+03 0.  0.
   -5000001    1    1    2    0    0  0.41200694703E+01 -0.16772979961E+03  0.50139686121E+03  0.56115334186E+03  0.18800000000E+03 0.  0.
<mgrwt>
<rscale>  0 0.50836703E+03</rscale>
<asrwt>0</asrwt>
<pdfrwt beam="1">  1        2 0.17474937E+00 0.50836703E+03</pdfrwt>
<pdfrwt beam="2">  1       -2 0.75454141E-02 0.50836703E+03</pdfrwt>
<totfact> 0.22552121E+03</totfact>
</mgrwt>
</event>
<event>
 4    1  0.6024609E-005  0.8656720E+03  0.7818608E-02  0.9469541E-01
          2   -1    0    0  501    0  0.00000000000E+00  0.00000000000E+00  0.44293366781E+03  0.44293366782E+03  0.25500000000E-02 0.  1.
         -2   -1    0    0    0  501 -0.00000000000E+00 -0.00000000000E+00 -0.42296848473E+03  0.42296848474E+03  0.25500000000E-02 0. -1.
    5000001    1    1    2    0    0  0.37909641868E+02 -0.23309480265E+03  0.32027896868E+03  0.44010560749E+03  0.18800000000E+03 0.  0.
   -5000001    1    1    2    0    0 -0.37909641868E+02  0.23309480265E+03 -0.30031378560E+03  0.42579654506E+03  0.18800000000E+03 0.  0.
<mgrwt>
<rscale>  0 0.86567195E+03</rscale>
<asrwt>0</asrwt>
<pdfrwt beam="1">  1        2 0.63276238E-01 0.86567195E+03</pdfrwt>
<pdfrwt beam="2">  1       -2 0.60424069E-01 0.86567195E+03</pdfrwt>
<totfact> 0.19768234E+02</totfact>
</mgrwt>
</event>
<event>
 4    1  0.6024609E-005  0.7324666E+03  0.7818608E-02  0.9663266E-01
         -2   -1    0    0    0  501 -0.00000000000E+00  0.00000000000E+00  0.96791474789E+02  0.96791474822E+02  0.25500000000E-02 0. -1.
          2   -1    0    0  501    0  0.00000000000E+00 -0.00000000000E+00 -0.13857299053E+04  0.13857299053E+04  0.25500000000E-02 0.  1.
    5000001    1    1    2    0    0  0.13764532075E+03 -0.19384953728E+03 -0.10605450978E+04  0.11030067008E+04  0.18800000000E+03 0.  0.
   -5000001    1    1    2    0    0 -0.13764532075E+03  0.19384953728E+03 -0.22839333269E+03  0.37951467936E+03  0.18800000000E+03 0.  0.
<mgrwt>
<rscale>  0 0.73246663E+03</rscale>
<asrwt>0</asrwt>
<pdfrwt beam="1">  1        2 0.19796140E+00 0.73246663E+03</pdfrwt>
<pdfrwt beam="2">  1       -2 0.13827354E-01 0.73246663E+03</pdfrwt>
<totfact> 0.68261131E+02</totfact>
</mgrwt>
</event>
<event>
 4    1  0.6024609E-005  0.5552079E+03  0.7818608E-02  0.1000296E+00
         -2   -1    0    0    0  501 -0.00000000000E+00  0.00000000000E+00  0.11401978618E+03  0.11401978620E+03  0.25500000000E-02 0. -1.
          2   -1    0    0  501    0  0.00000000000E+00 -0.00000000000E+00 -0.67588216623E+03  0.67588216624E+03  0.25500000000E-02 0.  1.
    5000001    1    1    2    0    0  0.89606059482E+02 -0.15388999942E+03 -0.13859890076E+03  0.29370909606E+03  0.18800000000E+03 0.  0.
   -5000001    1    1    2    0    0 -0.89606059482E+02  0.15388999942E+03 -0.42326347930E+03  0.49619285638E+03  0.18800000000E+03 0.  0.
<mgrwt>
<rscale>  0 0.55520785E+03</rscale>
<asrwt>0</asrwt>
<pdfrwt beam="1">  1        2 0.96554593E-01 0.55520785E+03</pdfrwt>
<pdfrwt beam="2">  1       -2 0.16288541E-01 0.55520785E+03</pdfrwt>
<totfact> 0.14311878E+03</totfact>
</mgrwt>
</event>
<event>
 4    1  0.6024609E-005  0.1091361E+04  0.7818608E-02  0.9213653E-01
          2   -1    0    0  501    0  0.00000000000E+00  0.00000000000E+00  0.13151223195E+04  0.13151223195E+04  0.25500000000E-02 0.  1.
         -2   -1    0    0    0  501 -0.00000000000E+00 -0.00000000000E+00 -0.22641780548E+03  0.22641780550E+03  0.25500000000E-02 0. -1.
    5000001    1    1    2    0    0  0.11993734208E+03  0.22576477363E+03  0.11713918759E+04  0.12136134582E+04  0.18800000000E+03 0.  0.
   -5000001    1    1    2    0    0 -0.11993734208E+03 -0.22576477363E+03 -0.82687361806E+02  0.32792666686E+03  0.18800000000E+03 0.  0.
<mgrwt>
<rscale>  0 0.10913608E+04</rscale>
<asrwt>0</asrwt>
<pdfrwt beam="1">  1        2 0.18787462E+00 0.10913608E+04</pdfrwt>
<pdfrwt beam="2">  1       -2 0.32345400E-01 0.10913608E+04</pdfrwt>
<totfact> 0.16252337E+02</totfact>
</mgrwt>
</event>
<event>
 4    1  0.6024609E-005  0.6413263E+03  0.7818608E-02  0.9823192E-01
         -2   -1    0    0    0  501 -0.00000000000E+00  0.00000000000E+00  0.35889616189E+03  0.35889616190E+03  0.25500000000E-02 0. -1.
          2   -1    0    0  501    0  0.00000000000E+00 -0.00000000000E+00 -0.28650307578E+03  0.28650307579E+03  0.25500000000E-02 0.  1.
    5000001    1    1    2    0    0  0.86320507670E+02  0.13433905148E+03  0.24239446849E+03  0.34582840998E+03  0.18800000000E+03 0.  0.
   -5000001    1    1    2    0    0 -0.86320507670E+02 -0.13433905148E+03 -0.17000138238E+03  0.29957082770E+03  0.18800000000E+03 0.  0.
<mgrwt>
<rscale>  0 0.64132630E+03</rscale>
<asrwt>0</asrwt>
<pdfrwt beam="1">  1        2 0.40929011E-01 0.64132630E+03</pdfrwt>
<pdfrwt beam="2">  1       -2 0.51270880E-01 0.64132630E+03</pdfrwt>
<totfact> 0.45499330E+02</totfact>
</mgrwt>
</event>
<event>
 4    1  0.6024609E-005  0.8056030E+03  0.7818608E-02  0.9551942E-01
         -2   -1    0    0    0  501 -0.00000000000E+00  0.00000000000E+00  0.28034838785E+03  0.28034838786E+03  0.25500000000E-02 0. -1.
          2   -1    0    0  501    0  0.00000000000E+00 -0.00000000000E+00 -0.57874084551E+03  0.57874084551E+03  0.25500000000E-02 0.  1.
    5000001    1    1    2    0    0 -0.24127105551E+02  0.20303477328E+03  0.16189052530E+03  0.32149304591E+03  0.18800000000E+03 0.  0.
   -5000001    1    1    2    0    0  0.24127105551E+02 -0.20303477328E+03 -0.46028298295E+03  0.53759618747E+03  0.18800000000E+03 0.  0.
<mgrwt>
<rscale>  0 0.80560304E+03</rscale>
<asrwt>0</asrwt>
<pdfrwt beam="1">  1        2 0.82677263E-01 0.80560304E+03</pdfrwt>
<pdfrwt beam="2">  1       -2 0.40049770E-01 0.80560304E+03</pdfrwt>
<totfact> 0.33566266E+02</totfact>
</mgrwt>
</event>
<event>
 4    1  0.6024609E-005  0.6851027E+03  0.7818608E-02  0.9743053E-01
          2   -1    0    0  501    0  0.00000000000E+00  0.00000000000E+00  0.15093149564E+04  0.15093149564E+04  0.25500000000E-02 0.  1.
         -2   -1    0    0    0  501 -0.00000000000E+00 -0.00000000000E+00 -0.77744831510E+02  0.77744831551E+02  0.25500000000E-02 0. -1.
    5000001    1    1    2    0    0  0.26592089372E+03  0.10598873790E+03  0.73214945005E+03  0.80829100668E+03  0.18800000000E+03 0.  0.
   -5000001    1    1    2    0    0 -0.26592089372E+03 -0.10598873790E+03  0.69942067480E+03  0.77876878123E+03  0.18800000000E+03 0.  0.
<mgrwt>
<rscale>  0 0.68510273E+03</rscale>
<asrwt>0</asrwt>
<pdfrwt beam="1">  1        2 0.21561641E+00 0.68510273E+03</pdfrwt>
<pdfrwt beam="2">  1       -2 0.11106405E-01 0.68510273E+03</pdfrwt>
<totfact> 0.84597478E+02</totfact>
</mgrwt>
</event>
<event>
 4    1  0.6024609E-005  0.5521125E+03  0.7818608E-02  0.1001006E+00
          2   -1    0    0  501    0  0.00000000000E+00  0.00000000000E+00  0.10011486917E+04  0.10011486917E+04  0.25500000000E-02 0.  1.
         -2   -1    0    0    0  501 -0.00000000000E+00 -0.00000000000E+00 -0.76119625430E+02  0.76119625472E+02  0.25500000000E-02 0. -1.
    5000001    1    1    2    0    0  0.19486239376E+03  0.47965259175E+02  0.50995036217E+03  0.57936636981E+03  0.18800000000E+03 0.  0.
   -5000001    1    1    2    0    0 -0.19486239376E+03 -0.47965259175E+02  0.41507870410E+03  0.49790194736E+03  0.18800000000E+03 0.  0.
<mgrwt>
<rscale>  0 0.55211254E+03</rscale>
<asrwt>0</asrwt>
<pdfrwt beam="1">  1        2 0.14302123E+00 0.55211254E+03</pdfrwt>
<pdfrwt beam="2">  1       -2 0.10874233E-01 0.55211254E+03</pdfrwt>
<totfact> 0.16848491E+03</totfact>
</mgrwt>
</event>
<event>
 4    1  0.6024609E-005  0.4896306E+03  0.7818608E-02  0.1016521E+00
         -2   -1    0    0    0  501 -0.00000000000E+00  0.00000000000E+00  0.54465142021E+03  0.54465142021E+03  0.25500000000E-02 0. -1.
          2   -1    0    0  501    0  0.00000000000E+00 -0.00000000000E+00 -0.11004199506E+03  0.11004199509E+03  0.25500000000E-02 0.  1.
    5000001    1    1    2    0    0 -0.15322814122E+03  0.32076717714E+02  0.20514136914E+03  0.31927223559E+03  0.18800000000E+03 0.  0.
   -5000001    1    1    2    0    0  0.15322814122E+03 -0.32076717714E+02  0.22946805600E+03  0.33542117972E+03  0.18800000000E+03 0.  0.
<mgrwt>
<rscale>  0 0.48963059E+03</rscale>
<asrwt>0</asrwt>
<pdfrwt beam="1">  1        2 0.15720285E-01 0.48963059E+03</pdfrwt>
<pdfrwt beam="2">  1       -2 0.77807345E-01 0.48963059E+03</pdfrwt>
<totfact> 0.56166270E+02</totfact>
</mgrwt>
</event>
<event>
 4    1  0.6024609E-005  0.4314621E+03  0.7818608E-02  0.1033399E+00
         -2   -1    0    0    0  501 -0.00000000000E+00  0.00000000000E+00  0.14782946570E+03  0.14782946572E+03  0.25500000000E-02 0. -1.
          2   -1    0    0  501    0  0.00000000000E+00 -0.00000000000E+00 -0.31482139747E+03  0.31482139748E+03  0.25500000000E-02 0.  1.
    5000001    1    1    2    0    0  0.41562422634E+02 -0.97303448377E+02 -0.84241142559E+02  0.23159440006E+03  0.18800000000E+03 0.  0.
   -5000001    1    1    2    0    0 -0.41562422634E+02  0.97303448377E+02 -0.82750789212E+02  0.23105646314E+03  0.18800000000E+03 0.  0.
<mgrwt>
<rscale>  0 0.43146207E+03</rscale>
<asrwt>0</asrwt>
<pdfrwt beam="1">  1        2 0.44974485E-01 0.43146207E+03</pdfrwt>
<pdfrwt beam="2">  1       -2 0.21118495E-01 0.43146207E+03</pdfrwt>
<totfact> 0.21684296E+03</totfact>
</mgrwt>
</event>
<event>
 4    1  0.6024609E-005  0.5007811E+03  0.7818608E-02  0.1013575E+00
          2   -1    0    0  501    0  0.00000000000E+00  0.00000000000E+00  0.75641760559E+03  0.75641760559E+03  0.25500000000E-02 0.  1.
         -2   -1    0    0    0  501 -0.00000000000E+00 -0.00000000000E+00 -0.82884668264E+02  0.82884668304E+02  0.25500000000E-02 0. -1.
    5000001    1    1    2    0    0 -0.11139845816E+03  0.81219549407E+01  0.54118074926E+03  0.58369185878E+03  0.18800000000E+03 0.  0.
   -5000001    1    1    2    0    0  0.11139845816E+03 -0.81219549407E+01  0.13235218806E+03  0.25561041512E+03  0.18800000000E+03 0.  0.
<mgrwt>
<rscale>  0 0.50078108E+03</rscale>
<asrwt>0</asrwt>
<pdfrwt beam="1">  1        2 0.10805967E+00 0.50078108E+03</pdfrwt>
<pdfrwt beam="2">  1       -2 0.11840666E-01 0.50078108E+03</pdfrwt>
<totfact> 0.21207732E+03</totfact>
</mgrwt>
</event>
<event>
 4    1  0.6024609E-005  0.5451964E+03  0.7818608E-02  0.1002612E+00
         -2   -1    0    0    0  501 -0.00000000000E+00  0.00000000000E+00  0.28324523703E+02  0.28324523817E+02  0.25500000000E-02 0. -1.
          2   -1    0    0  501    0  0.00000000000E+00 -0.00000000000E+00 -0.26235137318E+04  0.26235137318E+04  0.25500000000E-02 0.  1.
    5000001    1    1    2    0    0  0.13446964938E+03  0.10021476381E+03 -0.79116095905E+03  0.83030400975E+03  0.18800000000E+03 0.  0.
   -5000001    1    1    2    0    0 -0.13446964938E+03 -0.10021476381E+03 -0.18040282491E+04  0.18215342459E+04  0.18800000000E+03 0.  0.
<mgrwt>
<rscale>  0 0.54519639E+03</rscale>
<asrwt>0</asrwt>
<pdfrwt beam="1">  1        2 0.37478752E+00 0.54519639E+03</pdfrwt>
<pdfrwt beam="2">  1       -2 0.40463622E-02 0.54519639E+03</pdfrwt>
<totfact> 0.11415257E+03</totfact>
</mgrwt>
</event>
<event>
 4    1  0.6024609E-005  0.4945307E+03  0.7818608E-02  0.1015216E+00
         -2   -1    0    0    0  501 -0.00000000000E+00  0.00000000000E+00  0.45120544263E+02  0.45120544335E+02  0.25500000000E-02 0. -1.
          2   -1    0    0  501    0  0.00000000000E+00 -0.00000000000E+00 -0.13550399732E+04  0.13550399732E+04  0.25500000000E-02 0.  1.
    5000001    1    1    2    0    0 -0.61236538245E+02  0.13133929739E+03 -0.45887939691E+03  0.51663742176E+03  0.18800000000E+03 0.  0.
   -5000001    1    1    2    0    0  0.61236538245E+02 -0.13133929739E+03 -0.85104003204E+03  0.88352309579E+03  0.18800000000E+03 0.  0.
<mgrwt>
<rscale>  0 0.49453065E+03</rscale>
<asrwt>0</asrwt>
<pdfrwt beam="1">  1        2 0.19357711E+00 0.49453065E+03</pdfrwt>
<pdfrwt beam="2">  1       -2 0.64457929E-02 0.49453065E+03</pdfrwt>
<totfact> 0.24516522E+03</totfact>
</mgrwt>
</event>
<event>
 4    1  0.6024609E-005  0.5130457E+03  0.7818608E-02  0.1010429E+00
         -2   -1    0    0    0  501 -0.00000000000E+00  0.00000000000E+00  0.32257243467E+02  0.32257243568E+02  0.25500000000E-02 0. -1.
          2   -1    0    0  501    0  0.00000000000E+00 -0.00000000000E+00 -0.20399746924E+04  0.20399746924E+04  0.25500000000E-02 0.  1.
    5000001    1    1    2    0    0  0.99438740929E+02 -0.13448102035E+03 -0.80244056512E+03  0.84096853008E+03  0.18800000000E+03 0.  0.
   -5000001    1    1    2    0    0 -0.99438740929E+02  0.13448102035E+03 -0.12052768838E+04  0.12312634058E+04  0.18800000000E+03 0.  0.
<mgrwt>
<rscale>  0 0.51304565E+03</rscale>
<asrwt>0</asrwt>
<pdfrwt beam="1">  1        2 0.29142487E+00 0.51304565E+03</pdfrwt>
<pdfrwt beam="2">  1       -2 0.46081789E-02 0.51304565E+03</pdfrwt>
<totfact> 0.18486042E+03</totfact>
</mgrwt>
</event>
<event>
 4    1  0.6024609E-005  0.7537356E+03  0.7818608E-02  0.9629508E-01
          2   -1    0    0  501    0  0.00000000000E+00  0.00000000000E+00  0.18530380427E+04  0.18530380427E+04  0.25500000000E-02 0.  1.
         -2   -1    0    0    0  501 -0.00000000000E+00 -0.00000000000E+00 -0.76646755838E+02  0.76646755880E+02  0.25500000000E-02 0. -1.
    5000001    1    1    2    0    0 -0.21443592815E+03 -0.14881351890E+03  0.13909080902E+04  0.14276195383E+04  0.18800000000E+03 0.  0.
   -5000001    1    1    2    0    0  0.21443592815E+03  0.14881351890E+03  0.38548319665E+03  0.50206526029E+03  0.18800000000E+03 0.  0.
<mgrwt>
<rscale>  0 0.75373564E+03</rscale>
<asrwt>0</asrwt>
<pdfrwt beam="1">  1        2 0.26471967E+00 0.75373564E+03</pdfrwt>
<pdfrwt beam="2">  1       -2 0.10949539E-01 0.75373564E+03</pdfrwt>
<totfact> 0.57466914E+02</totfact>
</mgrwt>
</event>
<event>
 4    1  0.6024609E-005  0.5923253E+03  0.7818608E-02  0.9921458E-01
          2   -1    0    0  501    0  0.00000000000E+00  0.00000000000E+00  0.10575590078E+04  0.10575590078E+04  0.25500000000E-02 0.  1.
         -2   -1    0    0    0  501 -0.00000000000E+00 -0.00000000000E+00 -0.82938463269E+02  0.82938463309E+02  0.25500000000E-02 0. -1.
    5000001    1    1    2    0    0  0.22547080608E+03  0.12609130363E+02  0.41598396084E+03  0.50929630888E+03  0.18800000000E+03 0.  0.
   -5000001    1    1    2    0    0 -0.22547080608E+03 -0.12609130363E+02  0.55863658364E+03  0.63120116219E+03  0.18800000000E+03 0.  0.
<mgrwt>
<rscale>  0 0.59232531E+03</rscale>
<asrwt>0</asrwt>
<pdfrwt beam="1">  1        2 0.15107985E+00 0.59232531E+03</pdfrwt>
<pdfrwt beam="2">  1       -2 0.11848352E-01 0.59232531E+03</pdfrwt>
<totfact> 0.13535506E+03</totfact>
</mgrwt>
</event>
<event>
 4    1  0.6024609E-005  0.8543613E+03  0.7818608E-02  0.9484502E-01
         -2   -1    0    0    0  501 -0.00000000000E+00  0.00000000000E+00  0.63348755503E+02  0.63348755555E+02  0.25500000000E-02 0. -1.
          2   -1    0    0  501    0  0.00000000000E+00 -0.00000000000E+00 -0.28806140559E+04  0.28806140559E+04  0.25500000000E-02 0.  1.
    5000001    1    1    2    0    0 -0.17160414022E+02 -0.38303235559E+03 -0.14480792758E+04  0.15097303913E+04  0.18800000000E+03 0.  0.
   -5000001    1    1    2    0    0  0.17160414022E+02  0.38303235559E+03 -0.13691860245E+04  0.14342324201E+04  0.18800000000E+03 0.  0.
<mgrwt>
<rscale>  0 0.85436132E+03</rscale>
<asrwt>0</asrwt>
<pdfrwt beam="1">  1        2 0.41151621E+00 0.85436132E+03</pdfrwt>
<pdfrwt beam="2">  1       -2 0.90498240E-02 0.85436132E+03</pdfrwt>
<totfact> 0.22919781E+02</totfact>
</mgrwt>
</event>
<event>
 4    1  0.6024609E-005  0.5316139E+03  0.7818608E-02  0.1005841E+00
         -2   -1    0    0    0  501 -0.00000000000E+00  0.00000000000E+00  0.32561890855E+03  0.32561890856E+03  0.25500000000E-02 0. -1.
          2   -1    0    0  501    0  0.00000000000E+00 -0.00000000000E+00 -0.21698164605E+03  0.21698164607E+03  0.25500000000E-02 0.  1.
    5000001    1    1    2    0    0  0.14828087954E+03  0.79480744350E+01 -0.63208534009E+02  0.24776946926E+03  0.18800000000E+03 0.  0.
   -5000001    1    1    2    0    0 -0.14828087954E+03 -0.79480744350E+01  0.17184579651E+03  0.29483108537E+03  0.18800000000E+03 0.  0.
<mgrwt>
<rscale>  0 0.53161387E+03</rscale>
<asrwt>0</asrwt>
<pdfrwt beam="1">  1        2 0.30997378E-01 0.53161387E+03</pdfrwt>
<pdfrwt beam="2">  1       -2 0.46516987E-01 0.53161387E+03</pdfrwt>
<totfact> 0.75508327E+02</totfact>
</mgrwt>
</event>
<event>
 4    1  0.6024609E-005  0.8590133E+03  0.7818608E-02  0.9478319E-01
          2   -1    0    0  501    0  0.00000000000E+00  0.00000000000E+00  0.10895288031E+04  0.10895288031E+04  0.25500000000E-02 0.  1.
         -2   -1    0    0    0  501 -0.00000000000E+00 -0.00000000000E+00 -0.16931718696E+03  0.16931718698E+03  0.25500000000E-02 0. -1.
    5000001    1    1    2    0    0 -0.12399901098E+03  0.28590133351E+03  0.12587705437E+03  0.38510305120E+03  0.18800000000E+03 0.  0.
   -5000001    1    1    2    0    0  0.12399901098E+03 -0.28590133351E+03  0.79433456178E+03  0.87374293889E+03  0.18800000000E+03 0.  0.
<mgrwt>
<rscale>  0 0.85901328E+03</rscale>
<asrwt>0</asrwt>
<pdfrwt beam="1">  1        2 0.15564697E+00 0.85901328E+03</pdfrwt>
<pdfrwt beam="2">  1       -2 0.24188170E-01 0.85901328E+03</pdfrwt>
<totfact> 0.37751484E+02</totfact>
</mgrwt>
</event>
<event>
 4    1  0.6024609E-005  0.5535324E+03  0.7818608E-02  0.1000680E+00
         -2   -1    0    0    0  501 -0.00000000000E+00  0.00000000000E+00  0.54169403221E+02  0.54169403281E+02  0.25500000000E-02 0. -1.
          2   -1    0    0  501    0  0.00000000000E+00 -0.00000000000E+00 -0.14140734737E+04  0.14140734737E+04  0.25500000000E-02 0.  1.
    5000001    1    1    2    0    0 -0.17424534481E+03 -0.10162932734E+03 -0.74303217536E+03  0.79254701689E+03  0.18800000000E+03 0.  0.
   -5000001    1    1    2    0    0  0.17424534481E+03  0.10162932734E+03 -0.61687189514E+03  0.67569586011E+03  0.18800000000E+03 0.  0.
<mgrwt>
<rscale>  0 0.55353235E+03</rscale>
<asrwt>0</asrwt>
<pdfrwt beam="1">  1        2 0.20201047E+00 0.55353235E+03</pdfrwt>
<pdfrwt beam="2">  1       -2 0.77384871E-02 0.55353235E+03</pdfrwt>
<totfact> 0.17080847E+03</totfact>
</mgrwt>
</event>
<event>
 4    1  0.6024609E-005  0.4412109E+03  0.7818608E-02  0.1030376E+00
         -2   -1    0    0    0  501 -0.00000000000E+00  0.00000000000E+00  0.32999828582E+02  0.32999828681E+02  0.25500000000E-02 0. -1.
          2   -1    0    0  501    0  0.00000000000E+00 -0.00000000000E+00 -0.14747583249E+04  0.14747583249E+04  0.25500000000E-02 0.  1.
    5000001    1    1    2    0    0 -0.11227970031E+02  0.56475866069E+02 -0.10627337490E+04  0.10807694536E+04  0.18800000000E+03 0.  0.
   -5000001    1    1    2    0    0  0.11227970031E+02 -0.56475866069E+02 -0.37902474733E+03  0.42698869990E+03  0.18800000000E+03 0.  0.
<mgrwt>
<rscale>  0 0.44121093E+03</rscale>
<asrwt>0</asrwt>
<pdfrwt beam="1">  1        2 0.21067972E+00 0.44121093E+03</pdfrwt>
<pdfrwt beam="2">  1       -2 0.47142622E-02 0.44121093E+03</pdfrwt>
<totfact> 0.34469314E+03</totfact>
</mgrwt>
</event>
<event>
 4    1  0.6024609E-005  0.4781673E+03  0.7818608E-02  0.1019640E+00
          2   -1    0    0  501    0  0.00000000000E+00  0.00000000000E+00  0.32385753207E+04  0.32385753207E+04  0.25500000000E-02 0.  1.
         -2   -1    0    0    0  501 -0.00000000000E+00 -0.00000000000E+00 -0.17650040117E+02  0.17650040301E+02  0.25500000000E-02 0. -1.
    5000001    1    1    2    0    0  0.17674964820E+02 -0.13490325549E+03  0.12189319630E+04  0.12408265081E+04  0.18800000000E+03 0.  0.
   -5000001    1    1    2    0    0 -0.17674964820E+02  0.13490325549E+03  0.20019933176E+04  0.20153988529E+04  0.18800000000E+03 0.  0.
<mgrwt>
<rscale>  0 0.47816727E+03</rscale>
<asrwt>0</asrwt>
<pdfrwt beam="1">  1        2 0.46265349E+00 0.47816727E+03</pdfrwt>
<pdfrwt beam="2">  1       -2 0.25214350E-02 0.47816727E+03</pdfrwt>
<totfact> 0.11003647E+03</totfact>
</mgrwt>
</event>
<event>
 4    1  0.6024609E-005  0.6822465E+03  0.7818608E-02  0.9748084E-01
         -2   -1    0    0    0  501 -0.00000000000E+00  0.00000000000E+00  0.52415212176E+02  0.52415212239E+02  0.25500000000E-02 0. -1.
          2   -1    0    0  501    0  0.00000000000E+00 -0.00000000000E+00 -0.22200629666E+04  0.22200629666E+04  0.25500000000E-02 0.  1.
    5000001    1    1    2    0    0  0.25748051884E+03 -0.11748953797E+03 -0.98273510274E+03  0.10398135849E+04  0.18800000000E+03 0.  0.
   -5000001    1    1    2    0    0 -0.25748051884E+03  0.11748953797E+03 -0.11849126517E+04  0.12326645940E+04  0.18800000000E+03 0.  0.
<mgrwt>
<rscale>  0 0.68224650E+03</rscale>
<asrwt>0</asrwt>
<pdfrwt beam="1">  1        2 0.31715179E+00 0.68224650E+03</pdfrwt>
<pdfrwt beam="2">  1       -2 0.74878888E-02 0.68224650E+03</pdfrwt>
<totfact> 0.69537664E+02</totfact>
</mgrwt>
</event>
<event>
 4    1  0.6024609E-005  0.1211246E+04  0.7818608E-02  0.9103069E-01
         -2   -1    0    0    0  501 -0.00000000000E+00  0.00000000000E+00  0.23238727260E+03  0.23238727261E+03  0.25500000000E-02 0. -1.
          2   -1    0    0  501    0  0.00000000000E+00 -0.00000000000E+00 -0.15783104373E+04  0.15783104373E+04  0.25500000000E-02 0.  1.
    5000001    1    1    2    0    0  0.56045480780E+03 -0.28501999660E+02 -0.86506298597E+03  0.10481411762E+04  0.18800000000E+03 0.  0.
   -5000001    1    1    2    0    0 -0.56045480780E+03  0.28501999660E+02 -0.48086017869E+03  0.76255653366E+03  0.18800000000E+03 0.  0.
<mgrwt>
<rscale>  0 0.12112461E+04</rscale>
<asrwt>0</asrwt>
<pdfrwt beam="1">  1        2 0.22547291E+00 0.12112461E+04</pdfrwt>
<pdfrwt beam="2">  1       -2 0.33198183E-01 0.12112461E+04</pdfrwt>
<totfact> 0.11091047E+02</totfact>
</mgrwt>
</event>
<event>
 4    1  0.6024609E-005  0.4521684E+03  0.7818608E-02  0.1027077E+00
         -2   -1    0    0    0  501 -0.00000000000E+00  0.00000000000E+00  0.20344951286E+02  0.20344951446E+02  0.25500000000E-02 0. -1.
          2   -1    0    0  501    0  0.00000000000E+00 -0.00000000000E+00 -0.25123705211E+04  0.25123705211E+04  0.25500000000E-02 0.  1.
    5000001    1    1    2    0    0 -0.50273007172E+02  0.10287156183E+03 -0.95711975718E+03  0.98210598362E+03  0.18800000000E+03 0.  0.
   -5000001    1    1    2    0    0  0.50273007172E+02 -0.10287156183E+03 -0.15349058126E+04  0.15506094889E+04  0.18800000000E+03 0.  0.
<mgrwt>
<rscale>  0 0.45216836E+03</rscale>
<asrwt>0</asrwt>
<pdfrwt beam="1">  1        2 0.35890988E+00 0.45216836E+03</pdfrwt>
<pdfrwt beam="2">  1       -2 0.29064232E-02 0.45216836E+03</pdfrwt>
<totfact> 0.21667565E+03</totfact>
</mgrwt>
</event>
<event>
 4    1  0.6024609E-005  0.1121632E+04  0.7818608E-02  0.9184361E-01
          2   -1    0    0  501    0  0.00000000000E+00  0.00000000000E+00  0.33031020380E+04  0.33031020380E+04  0.25500000000E-02 0.  1.
         -2   -1    0    0    0  501 -0.00000000000E+00 -0.00000000000E+00 -0.95217966966E+02  0.95217967000E+02  0.25500000000E-02 0. -1.
    5000001    1    1    2    0    0 -0.32798868623E+03  0.40768025948E+03  0.18263979747E+04  0.19091498983E+04  0.18800000000E+03 0.  0.
   -5000001    1    1    2    0    0  0.32798868623E+03 -0.40768025948E+03  0.13814860963E+04  0.14891701066E+04  0.18800000000E+03 0.  0.
<mgrwt>
<rscale>  0 0.11216321E+04</rscale>
<asrwt>0</asrwt>
<pdfrwt beam="1">  1        2 0.47187174E+00 0.11216321E+04</pdfrwt>
<pdfrwt beam="2">  1       -2 0.13602566E-01 0.11216321E+04</pdfrwt>
<totfact> 0.66188559E+01</totfact>
</mgrwt>
</event>
<event>
 4    1  0.6024609E-005  0.5658708E+03  0.7818608E-02  0.9978858E-01
          2   -1    0    0  501    0  0.00000000000E+00  0.00000000000E+00  0.49689592643E+03  0.49689592644E+03  0.25500000000E-02 0.  1.
         -2   -1    0    0    0  501 -0.00000000000E+00 -0.00000000000E+00 -0.16110506616E+03  0.16110506618E+03  0.25500000000E-02 0. -1.
    5000001    1    1    2    0    0 -0.10612721410E+03 -0.28631307519E+02 -0.42138397488E+02  0.22181609925E+03  0.18800000000E+03 0.  0.
   -5000001    1    1    2    0    0  0.10612721410E+03  0.28631307519E+02  0.37792925776E+03  0.43618489338E+03  0.18800000000E+03 0.  0.
<mgrwt>
<rscale>  0 0.56587084E+03</rscale>
<asrwt>0</asrwt>
<pdfrwt beam="1">  1        2 0.70985132E-01 0.56587084E+03</pdfrwt>
<pdfrwt beam="2">  1       -2 0.23015010E-01 0.56587084E+03</pdfrwt>
<totfact> 0.11260209E+03</totfact>
</mgrwt>
</event>
<event>
 4    1  0.6024609E-005  0.5786662E+03  0.7818608E-02  0.9950683E-01
          2   -1    0    0  501    0  0.00000000000E+00  0.00000000000E+00  0.86557010712E+03  0.86557010713E+03  0.25500000000E-02 0.  1.
         -2   -1    0    0    0  501 -0.00000000000E+00 -0.00000000000E+00 -0.96715027413E+02  0.96715027447E+02  0.25500000000E-02 0. -1.
    5000001    1    1    2    0    0  0.16074399213E+03  0.14606705057E+03  0.32693170696E+03  0.43520403868E+03  0.18800000000E+03 0.  0.
   -5000001    1    1    2    0    0 -0.16074399213E+03 -0.14606705057E+03  0.44192337275E+03  0.52708109590E+03  0.18800000000E+03 0.  0.
<mgrwt>
<rscale>  0 0.57866618E+03</rscale>
<asrwt>0</asrwt>
<pdfrwt beam="1">  1        2 0.12365287E+00 0.57866618E+03</pdfrwt>
<pdfrwt beam="2">  1       -2 0.13816433E-01 0.57866618E+03</pdfrwt>
<totfact> 0.13826364E+03</totfact>
</mgrwt>
</event>
<event>
 4    1  0.6024609E-005  0.6143628E+03  0.7818608E-02  0.9876048E-01
         -2   -1    0    0    0  501 -0.00000000000E+00  0.00000000000E+00  0.10640231885E+03  0.10640231888E+03  0.25500000000E-02 0. -1.
          2   -1    0    0  501    0  0.00000000000E+00 -0.00000000000E+00 -0.88682661321E+03  0.88682661321E+03  0.25500000000E-02 0.  1.
    5000001    1    1    2    0    0 -0.16401787425E+03 -0.17858081399E+03 -0.36604625348E+03  0.47762624497E+03  0.18800000000E+03 0.  0.
   -5000001    1    1    2    0    0  0.16401787425E+03  0.17858081399E+03 -0.41437804088E+03  0.51560268712E+03  0.18800000000E+03 0.  0.
<mgrwt>
<rscale>  0 0.61436279E+03</rscale>
<asrwt>0</asrwt>
<pdfrwt beam="1">  1        2 0.12668951E+00 0.61436279E+03</pdfrwt>
<pdfrwt beam="2">  1       -2 0.15200332E-01 0.61436279E+03</pdfrwt>
<totfact> 0.11401780E+03</totfact>
</mgrwt>
</event>
<event>
 4    1  0.6024609E-005  0.7945763E+03  0.7818608E-02  0.9567901E-01
         -2   -1    0    0    0  501 -0.00000000000E+00  0.00000000000E+00  0.30467980982E+03  0.30467980983E+03  0.25500000000E-02 0. -1.
          2   -1    0    0  501    0  0.00000000000E+00 -0.00000000000E+00 -0.51804503929E+03  0.51804503929E+03  0.25500000000E-02 0.  1.
    5000001    1    1    2    0    0  0.28378790355E+03  0.17100766397E+03  0.10071325464E+02  0.38108349076E+03  0.18800000000E+03 0.  0.
   -5000001    1    1    2    0    0 -0.28378790355E+03 -0.17100766397E+03 -0.22343655493E+03  0.44164135836E+03  0.18800000000E+03 0.  0.
<mgrwt>
<rscale>  0 0.79457627E+03</rscale>
<asrwt>0</asrwt>
<pdfrwt beam="1">  1        2 0.74006434E-01 0.79457627E+03</pdfrwt>
<pdfrwt beam="2">  1       -2 0.43525687E-01 0.79457627E+03</pdfrwt>
<totfact> 0.32439653E+02</totfact>
</mgrwt>
</event>
<event>
 4    1  0.6024609E-005  0.9150585E+03  0.7818608E-02  0.9406951E-01
          2   -1    0    0  501    0  0.00000000000E+00  0.00000000000E+00  0.40386612135E+03  0.40386612135E+03  0.25500000000E-02 0.  1.
         -2   -1    0    0    0  501 -0.00000000000E+00 -0.00000000000E+00 -0.51832274042E+03  0.51832274043E+03  0.25500000000E-02 0. -1.
    5000001    1    1    2    0    0  0.16207675469E+03 -0.29558135598E+03 -0.30480860895E+03  0.49182263115E+03  0.18800000000E+03 0.  0.
   -5000001    1    1    2    0    0 -0.16207675469E+03  0.29558135598E+03  0.19035198988E+03  0.43036623063E+03  0.18800000000E+03 0.  0.
<mgrwt>
<rscale>  0 0.91505846E+03</rscale>
<asrwt>0</asrwt>
<pdfrwt beam="1">  1        2 0.57695161E-01 0.91505846E+03</pdfrwt>
<pdfrwt beam="2">  1       -2 0.74046105E-01 0.91505846E+03</pdfrwt>
<totfact> 0.14100101E+02</totfact>
</mgrwt>
</event>
<event>
 4    1  0.6024609E-005  0.4162144E+03  0.7818608E-02  0.1038305E+00
         -2   -1    0    0    0  501 -0.00000000000E+00  0.00000000000E+00  0.28176716463E+02  0.28176716578E+02  0.25500000000E-02 0. -1.
          2   -1    0    0  501    0  0.00000000000E+00 -0.00000000000E+00 -0.15370353777E+04  0.15370353777E+04  0.25500000000E-02 0.  1.
    5000001    1    1    2    0    0  0.32595684432E+02 -0.81072339271E+02 -0.82268247672E+03  0.84840182717E+03  0.18800000000E+03 0.  0.
   -5000001    1    1    2    0    0 -0.32595684432E+02  0.81072339271E+02 -0.68617618449E+03  0.71681026708E+03  0.18800000000E+03 0.  0.
<mgrwt>
<rscale>  0 0.41621442E+03</rscale>
<asrwt>0</asrwt>
<pdfrwt beam="1">  1        2 0.21957643E+00 0.41621442E+03</pdfrwt>
<pdfrwt beam="2">  1       -2 0.40252462E-02 0.41621442E+03</pdfrwt>
<totfact> 0.40771730E+03</totfact>
</mgrwt>
</event>
<event>
 4    1  0.6024609E-005  0.4598157E+03  0.7818608E-02  0.1024835E+00
          2   -1    0    0  501    0  0.00000000000E+00  0.00000000000E+00  0.14322449542E+04  0.14322449542E+04  0.25500000000E-02 0.  1.
         -2   -1    0    0    0  501 -0.00000000000E+00 -0.00000000000E+00 -0.36905426766E+02  0.36905426854E+02  0.25500000000E-02 0. -1.
    5000001    1    1    2    0    0 -0.25501122408E+02 -0.12912927042E+03  0.74158744466E+03  0.77628642510E+03  0.18800000000E+03 0.  0.
   -5000001    1    1    2    0    0  0.25501122408E+02  0.12912927042E+03  0.65375208275E+03  0.69286395593E+03  0.18800000000E+03 0.  0.
<mgrwt>
<rscale>  0 0.45981566E+03</rscale>
<asrwt>0</asrwt>
<pdfrwt beam="1">  1        2 0.20460642E+00 0.45981566E+03</pdfrwt>
<pdfrwt beam="2">  1       -2 0.52722040E-02 0.45981566E+03</pdfrwt>
<totfact> 0.30524393E+03</totfact>
</mgrwt>
</event>
<event>
 4    1  0.6024609E-005  0.6243901E+03  0.7818608E-02  0.9856058E-01
          2   -1    0    0  501    0  0.00000000000E+00  0.00000000000E+00  0.89069728771E+03  0.89069728771E+03  0.25500000000E-02 0.  1.
         -2   -1    0    0    0  501 -0.00000000000E+00 -0.00000000000E+00 -0.10942635753E+03  0.10942635756E+03  0.25500000000E-02 0. -1.
    5000001    1    1    2    0    0  0.21096331985E+03 -0.12570921073E+03  0.45884550235E+03  0.55334575359E+03  0.18800000000E+03 0.  0.
   -5000001    1    1    2    0    0 -0.21096331985E+03  0.12570921073E+03  0.32242542783E+03  0.44677789168E+03  0.18800000000E+03 0.  0.
<mgrwt>
<rscale>  0 0.62439013E+03</rscale>
<asrwt>0</asrwt>
<pdfrwt beam="1">  1        2 0.12724247E+00 0.62439013E+03</pdfrwt>
<pdfrwt beam="2">  1       -2 0.15632337E-01 0.62439013E+03</pdfrwt>
<totfact> 0.10809320E+03</totfact>
</mgrwt>
</event>
<event>
 4    1  0.6024609E-005  0.9132207E+03  0.7818608E-02  0.9409204E-01
          2   -1    0    0  501    0  0.00000000000E+00  0.00000000000E+00  0.16318376881E+04  0.16318376881E+04  0.25500000000E-02 0.  1.
         -2   -1    0    0    0  501 -0.00000000000E+00 -0.00000000000E+00 -0.12776577728E+03  0.12776577730E+03  0.25500000000E-02 0. -1.
    5000001    1    1    2    0    0  0.14206868141E+03  0.83584328745E+02  0.14882167668E+04  0.15090735553E+04  0.18800000000E+03 0.  0.
   -5000001    1    1    2    0    0 -0.14206868141E+03 -0.83584328745E+02  0.15855143967E+02  0.25052991007E+03  0.18800000000E+03 0.  0.
<mgrwt>
<rscale>  0 0.91322070E+03</rscale>
<asrwt>0</asrwt>
<pdfrwt beam="1">  1        2 0.23311967E+00 0.91322070E+03</pdfrwt>
<pdfrwt beam="2">  1       -2 0.18252253E-01 0.91322070E+03</pdfrwt>
<totfact> 0.31262492E+02</totfact>
</mgrwt>
</event>
<event>
 4    1  0.6024609E-005  0.5505548E+03  0.7818608E-02  0.1001366E+00
          2   -1    0    0  501    0  0.00000000000E+00  0.00000000000E+00  0.68116938775E+03  0.68116938776E+03  0.25500000000E-02 0. -1.
         -2   -1    0    0    0  501 -0.00000000000E+00 -0.00000000000E+00 -0.11124641612E+03  0.11124641615E+03  0.25500000000E-02 0.  1.
    5000001    1    1    2    0    0 -0.52604305896E+02 -0.18779846293E+03  0.21447705142E+03  0.34551393787E+03  0.18800000000E+03 0.  0.
   -5000001    1    1    2    0    0  0.52604305896E+02  0.18779846293E+03  0.35544592021E+03  0.44690186604E+03  0.18800000000E+03 0.  0.
<mgrwt>
<rscale>  0 0.55055482E+03</rscale>
<asrwt>0</asrwt>
<pdfrwt beam="1">  1        2 0.97309917E-01 0.55055482E+03</pdfrwt>
<pdfrwt beam="2">  1       -2 0.15892345E-01 0.55055482E+03</pdfrwt>
<totfact> 0.14781641E+03</totfact>
</mgrwt>
</event>
<event>
 4    1  0.6024609E-005  0.4278530E+03  0.7818608E-02  0.1034540E+00
          2   -1    0    0  501    0  0.00000000000E+00  0.00000000000E+00  0.73192719046E+03  0.73192719046E+03  0.25500000000E-02 0.  1.
         -2   -1    0    0    0  501 -0.00000000000E+00 -0.00000000000E+00 -0.62526105686E+02  0.62526105738E+02  0.25500000000E-02 0. -1.
    5000001    1    1    2    0    0  0.52334382394E+02 -0.48673949958E+02  0.19936126096E+03  0.28319066608E+03  0.18800000000E+03 0.  0.
   -5000001    1    1    2    0    0 -0.52334382394E+02  0.48673949958E+02  0.47003982382E+03  0.51126263012E+03  0.18800000000E+03 0.  0.
<mgrwt>
<rscale>  0 0.42785304E+03</rscale>
<asrwt>0</asrwt>
<pdfrwt beam="1">  1        2 0.10456103E+00 0.42785304E+03</pdfrwt>
<pdfrwt beam="2">  1       -2 0.89323009E-02 0.42785304E+03</pdfrwt>
<totfact> 0.34782023E+03</totfact>
</mgrwt>
</event>
<event>
 4    1  0.6024609E-005  0.4006597E+03  0.7818608E-02  0.1043551E+00
         -2   -1    0    0    0  501 -0.00000000000E+00  0.00000000000E+00  0.17691177266E+02  0.17691177449E+02  0.25500000000E-02 0. -1.
          2   -1    0    0  501    0  0.00000000000E+00 -0.00000000000E+00 -0.22684784503E+04  0.22684784503E+04  0.25500000000E-02 0.  1.
    5000001    1    1    2    0    0 -0.66816426458E+01 -0.65781622526E+02 -0.10089870009E+04  0.10284797685E+04  0.18800000000E+03 0.  0.
   -5000001    1    1    2    0    0  0.66816426458E+01  0.65781622526E+02 -0.12418002721E+04  0.12576898592E+04  0.18800000000E+03 0.  0.
<mgrwt>
<rscale>  0 0.40065973E+03</rscale>
<asrwt>0</asrwt>
<pdfrwt beam="1">  1        2 0.32406816E+00 0.40065973E+03</pdfrwt>
<pdfrwt beam="2">  1       -2 0.25273125E-02 0.40065973E+03</pdfrwt>
<totfact> 0.35543152E+03</totfact>
</mgrwt>
</event>
<event>
 4    1  0.6024609E-005  0.4124429E+03  0.7818608E-02  0.1039554E+00
         -2   -1    0    0    0  501 -0.00000000000E+00  0.00000000000E+00  0.15029130236E+03  0.15029130239E+03  0.25500000000E-02 0. -1.
          2   -1    0    0  501    0  0.00000000000E+00 -0.00000000000E+00 -0.28296575196E+03  0.28296575197E+03  0.25500000000E-02 0.  1.
    5000001    1    1    2    0    0  0.58109507902E+02 -0.12220070938E+02 -0.12986430475E+03  0.23608215242E+03  0.18800000000E+03 0.  0.
   -5000001    1    1    2    0    0 -0.58109507902E+02  0.12220070938E+02 -0.28101448503E+01  0.19717490194E+03  0.18800000000E+03 0.  0.
<mgrwt>
<rscale>  0 0.41244292E+03</rscale>
<asrwt>0</asrwt>
<pdfrwt beam="1">  1        2 0.40423679E-01 0.41244292E+03</pdfrwt>
<pdfrwt beam="2">  1       -2 0.21470186E-01 0.41244292E+03</pdfrwt>
<totfact> 0.23659078E+03</totfact>
</mgrwt>
</event>
<event>
 4    1  0.6024609E-005  0.4789808E+03  0.7818608E-02  0.1019416E+00
          2   -1    0    0  501    0  0.00000000000E+00  0.00000000000E+00  0.15577444589E+04  0.15577444589E+04  0.25500000000E-02 0.  1.
         -2   -1    0    0    0  501 -0.00000000000E+00 -0.00000000000E+00 -0.36819683406E+02  0.36819683494E+02  0.25500000000E-02 0. -1.
    5000001    1    1    2    0    0 -0.31734791571E+02  0.12992327800E+03  0.97426335323E+03  0.10012093870E+04  0.18800000000E+03 0.  0.
   -5000001    1    1    2    0    0  0.31734791571E+02 -0.12992327800E+03  0.54666142226E+03  0.59335475539E+03  0.18800000000E+03 0.  0.
<mgrwt>
<rscale>  0 0.47898083E+03</rscale>
<asrwt>0</asrwt>
<pdfrwt beam="1">  1        2 0.22253495E+00 0.47898083E+03</pdfrwt>
<pdfrwt beam="2">  1       -2 0.52599540E-02 0.47898083E+03</pdfrwt>
<totfact> 0.26376530E+03</totfact>
</mgrwt>
</event>
<event>
 4    1  0.6024609E-005  0.4514345E+03  0.7818608E-02  0.1027295E+00
          2   -1    0    0  501    0  0.00000000000E+00  0.00000000000E+00  0.30932471717E+03  0.30932471718E+03  0.25500000000E-02 0.  1.
         -2   -1    0    0    0  501 -0.00000000000E+00 -0.00000000000E+00 -0.16470809288E+03  0.16470809290E+03  0.25500000000E-02 0. -1.
    5000001    1    1    2    0    0  0.12466410459E+03 -0.40131967887E+00  0.63974772397E+02  0.23447403168E+03  0.18800000000E+03 0.  0.
   -5000001    1    1    2    0    0 -0.12466410459E+03  0.40131967887E+00  0.80641851893E+02  0.23955877840E+03  0.18800000000E+03 0.  0.
<mgrwt>
<rscale>  0 0.45143453E+03</rscale>
<asrwt>0</asrwt>
<pdfrwt beam="1">  1        2 0.44189245E-01 0.45143453E+03</pdfrwt>
<pdfrwt beam="2">  1       -2 0.23529727E-01 0.45143453E+03</pdfrwt>
<totfact> 0.18293648E+03</totfact>
</mgrwt>
</event>
<event>
 4    1  0.6024609E-005  0.8989026E+03  0.7818608E-02  0.9426954E-01
         -2   -1    0    0    0  501 -0.00000000000E+00  0.00000000000E+00  0.18734816856E+03  0.18734816858E+03  0.25500000000E-02 0. -1.
          2   -1    0    0  501    0  0.00000000000E+00 -0.00000000000E+00 -0.10782409583E+04  0.10782409583E+04  0.25500000000E-02 0.  1.
    5000001    1    1    2    0    0  0.24499881802E+03 -0.24112818827E+03 -0.13539786326E+03  0.41454047496E+03  0.18800000000E+03 0.  0.
   -5000001    1    1    2    0    0 -0.24499881802E+03  0.24112818827E+03 -0.75549492648E+03  0.85104865193E+03  0.18800000000E+03 0.  0.
<mgrwt>
<rscale>  0 0.89890259E+03</rscale>
<asrwt>0</asrwt>
<pdfrwt beam="1">  1        2 0.15403442E+00 0.89890259E+03</pdfrwt>
<pdfrwt beam="2">  1       -2 0.26764025E-01 0.89890259E+03</pdfrwt>
<totfact> 0.31857944E+02</totfact>
</mgrwt>
</event>
<event>
 4    1  0.6024609E-005  0.1606697E+04  0.7818608E-02  0.8816444E-01
         -2   -1    0    0    0  501 -0.00000000000E+00  0.00000000000E+00  0.51613379416E+03  0.51613379416E+03  0.25500000000E-02 0. -1.
          2   -1    0    0  501    0  0.00000000000E+00 -0.00000000000E+00 -0.12503913087E+04  0.12503913087E+04  0.25500000000E-02 0.  1.
    5000001    1    1    2    0    0  0.17109222676E+03 -0.52210727089E+03  0.24321073819E+03  0.62957447180E+03  0.18800000000E+03 0.  0.
   -5000001    1    1    2    0    0 -0.17109222676E+03  0.52210727089E+03 -0.97746825270E+03  0.11369506310E+04  0.18800000000E+03 0.  0.
<mgrwt>
<rscale>  0 0.16066975E+04</rscale>
<asrwt>0</asrwt>
<pdfrwt beam="1">  1        2 0.17862733E+00 0.16066975E+04</pdfrwt>
<pdfrwt beam="2">  1       -2 0.73733399E-01 0.16066975E+04</pdfrwt>
<totfact> 0.31876025E+01</totfact>
</mgrwt>
</event>
<event>
 4    1  0.6024609E-005  0.7962943E+03  0.7818608E-02  0.9565397E-01
         -2   -1    0    0    0  501 -0.00000000000E+00  0.00000000000E+00  0.42682068703E+03  0.42682068704E+03  0.25500000000E-02 0. -1.
          2   -1    0    0  501    0  0.00000000000E+00 -0.00000000000E+00 -0.37139986664E+03  0.37139986665E+03  0.25500000000E-02 0.  1.
    5000001    1    1    2    0    0 -0.33549580810E+03 -0.67126635056E+02  0.10608986138E+03  0.40455219821E+03  0.18800000000E+03 0.  0.
   -5000001    1    1    2    0    0  0.33549580810E+03  0.67126635056E+02 -0.50669040987E+02  0.39366835548E+03  0.18800000000E+03 0.  0.
<mgrwt>
<rscale>  0 0.79629428E+03</rscale>
<asrwt>0</asrwt>
<pdfrwt beam="1">  1        2 0.53057124E-01 0.79629428E+03</pdfrwt>
<pdfrwt beam="2">  1       -2 0.60974384E-01 0.79629428E+03</pdfrwt>
<totfact> 0.23691589E+02</totfact>
</mgrwt>
</event>
<event>
 4    1  0.6024609E-005  0.4665176E+03  0.7818608E-02  0.1022908E+00
          2   -1    0    0  501    0  0.00000000000E+00  0.00000000000E+00  0.24962939869E+04  0.24962939869E+04  0.25500000000E-02 0.  1.
         -2   -1    0    0    0  501 -0.00000000000E+00 -0.00000000000E+00 -0.21796175708E+02  0.21796175857E+02  0.25500000000E-02 0. -1.
    5000001    1    1    2    0    0  0.23391243121E+02  0.13465185258E+03  0.13434864357E+04  0.13634434622E+04  0.18800000000E+03 0.  0.
   -5000001    1    1    2    0    0 -0.23391243121E+02 -0.13465185258E+03  0.11310113755E+04  0.11546467006E+04  0.18800000000E+03 0.  0.
<mgrwt>
<rscale>  0 0.46651758E+03</rscale>
<asrwt>0</asrwt>
<pdfrwt beam="1">  1        2 0.35661318E+00 0.46651758E+03</pdfrwt>
<pdfrwt beam="2">  1       -2 0.31137416E-02 0.46651758E+03</pdfrwt>
<totfact> 0.19879407E+03</totfact>
</mgrwt>
</event>
<event>
 4    1  0.6024609E-005  0.9257590E+03  0.7818608E-02  0.9393942E-01
          2   -1    0    0  501    0  0.00000000000E+00  0.00000000000E+00  0.14860577487E+04  0.14860577487E+04  0.25500000000E-02 0. -1.
         -2   -1    0    0    0  501 -0.00000000000E+00 -0.00000000000E+00 -0.14417840783E+03  0.14417840786E+03  0.25500000000E-02 0.  1.
    5000001    1    1    2    0    0  0.38359582983E+03 -0.41488237446E+02  0.36569447800E+03  0.56386477612E+03  0.18800000000E+03 0.  0.
   -5000001    1    1    2    0    0 -0.38359582983E+03  0.41488237446E+02  0.97618486284E+03  0.10663713804E+04  0.18800000000E+03 0.  0.
<mgrwt>
<rscale>  0 0.92575902E+03</rscale>
<asrwt>0</asrwt>
<pdfrwt beam="1">  1        2 0.21229398E+00 0.92575902E+03</pdfrwt>
<pdfrwt beam="2">  1       -2 0.20596914E-01 0.92575902E+03</pdfrwt>
<totfact> 0.30158850E+02</totfact>
</mgrwt>
</event>
<event>
 4    1  0.6024609E-005  0.6566342E+03  0.7818608E-02  0.9794410E-01
         -2   -1    0    0    0  501 -0.00000000000E+00  0.00000000000E+00  0.89708631459E+02  0.89708631496E+02  0.25500000000E-02 0. -1.
          2   -1    0    0  501    0  0.00000000000E+00 -0.00000000000E+00 -0.12015803608E+04  0.12015803608E+04  0.25500000000E-02 0.  1.
    5000001    1    1    2    0    0 -0.23861652322E+03  0.11892738600E+03 -0.62863253432E+03  0.70824037692E+03  0.18800000000E+03 0.  0.
   -5000001    1    1    2    0    0  0.23861652322E+03 -0.11892738600E+03 -0.48323919506E+03  0.58304861542E+03  0.18800000000E+03 0.  0.
<mgrwt>
<rscale>  0 0.65663424E+03</rscale>
<asrwt>0</asrwt>
<pdfrwt beam="1">  1        2 0.17165433E+00 0.65663424E+03</pdfrwt>
<pdfrwt beam="2">  1       -2 0.12815520E-01 0.65663424E+03</pdfrwt>
<totfact> 0.98047973E+02</totfact>
</mgrwt>
</event>
<event>
 4    1  0.6024609E-005  0.4841406E+03  0.7818608E-02  0.1018003E+00
          2   -1    0    0  501    0  0.00000000000E+00  0.00000000000E+00  0.12521307530E+04  0.12521307530E+04  0.25500000000E-02 0.  1.
         -2   -1    0    0    0  501 -0.00000000000E+00 -0.00000000000E+00 -0.46798656298E+02  0.46798656367E+02  0.25500000000E-02 0. -1.
    5000001    1    1    2    0    0 -0.59987606461E+02  0.13906947414E+03  0.55503274210E+03  0.60526372464E+03  0.18800000000E+03 0.  0.
   -5000001    1    1    2    0    0  0.59987606461E+02 -0.13906947414E+03  0.65029935456E+03  0.69366568468E+03  0.18800000000E+03 0.  0.
<mgrwt>
<rscale>  0 0.48414063E+03</rscale>
<asrwt>0</asrwt>
<pdfrwt beam="1">  1        2 0.17887583E+00 0.48414063E+03</pdfrwt>
<pdfrwt beam="2">  1       -2 0.66855220E-02 0.48414063E+03</pdfrwt>
<totfact> 0.26312186E+03</totfact>
</mgrwt>
</event>
<event>
 4    1  0.6024609E-005  0.4194539E+03  0.7818608E-02  0.1037244E+00
         -2   -1    0    0    0  501 -0.00000000000E+00  0.00000000000E+00  0.32598831894E+02  0.32598831993E+02  0.25500000000E-02 0. -1.
          2   -1    0    0  501    0  0.00000000000E+00 -0.00000000000E+00 -0.13492936649E+04  0.13492936649E+04  0.25500000000E-02 0.  1.
    5000001    1    1    2    0    0 -0.90413149067E+02 -0.20030958305E+02 -0.63165977811E+03  0.66551773237E+03  0.18800000000E+03 0.  0.
   -5000001    1    1    2    0    0  0.90413149067E+02  0.20030958305E+02 -0.68503505490E+03  0.71637476453E+03  0.18800000000E+03 0.  0.
<mgrwt>
<rscale>  0 0.41945392E+03</rscale>
<asrwt>0</asrwt>
<pdfrwt beam="1">  1        2 0.19275620E+00 0.41945392E+03</pdfrwt>
<pdfrwt beam="2">  1       -2 0.46569768E-02 0.41945392E+03</pdfrwt>
<totfact> 0.40850472E+03</totfact>
</mgrwt>
</event>
<event>
 4    1  0.6024609E-005  0.4037047E+03  0.7818608E-02  0.1042504E+00
         -2   -1    0    0    0  501 -0.00000000000E+00  0.00000000000E+00  0.84051859916E+02  0.84051859955E+02  0.25500000000E-02 0. -1.
          2   -1    0    0  501    0  0.00000000000E+00 -0.00000000000E+00 -0.48475278040E+03  0.48475278041E+03  0.25500000000E-02 0.  1.
    5000001    1    1    2    0    0 -0.71208476669E+02 -0.68801934439E+01 -0.17667366643E+03  0.26772293256E+03  0.18800000000E+03 0.  0.
   -5000001    1    1    2    0    0  0.71208476669E+02  0.68801934439E+01 -0.22402725406E+03  0.30108170780E+03  0.18800000000E+03 0.  0.
<mgrwt>
<rscale>  0 0.40370471E+03</rscale>
<asrwt>0</asrwt>
<pdfrwt beam="1">  1        2 0.69250395E-01 0.40370471E+03</pdfrwt>
<pdfrwt beam="2">  1       -2 0.12007409E-01 0.40370471E+03</pdfrwt>
<totfact> 0.34840819E+03</totfact>
</mgrwt>
</event>
<event>
 4    1  0.6024609E-005  0.8045625E+03  0.7818608E-02  0.9553436E-01
         -2   -1    0    0    0  501 -0.00000000000E+00  0.00000000000E+00  0.32029774923E+03  0.32029774924E+03  0.25500000000E-02 0. -1.
          2   -1    0    0  501    0  0.00000000000E+00 -0.00000000000E+00 -0.50524925594E+03  0.50524925594E+03  0.25500000000E-02 0.  1.
    5000001    1    1    2    0    0 -0.13212334280E+03 -0.20824524607E+03  0.17045668539E+03  0.35386740711E+03  0.18800000000E+03 0.  0.
   -5000001    1    1    2    0    0  0.13212334280E+03  0.20824524607E+03 -0.35540819210E+03  0.47167959807E+03  0.18800000000E+03 0.  0.
<mgrwt>
<rscale>  0 0.80456249E+03</rscale>
<asrwt>0</asrwt>
<pdfrwt beam="1">  1        2 0.72178465E-01 0.80456249E+03</pdfrwt>
<pdfrwt beam="2">  1       -2 0.45756821E-01 0.80456249E+03</pdfrwt>
<totfact> 0.30214804E+02</totfact>
</mgrwt>
</event>
<event>
 4    1  0.6024609E-005  0.3890188E+03  0.7818608E-02  0.1047650E+00
          2   -1    0    0  501    0  0.00000000000E+00  0.00000000000E+00  0.73064228931E+03  0.73064228931E+03  0.25500000000E-02 0.  1.
         -2   -1    0    0    0  501 -0.00000000000E+00 -0.00000000000E+00 -0.51781707744E+02  0.51781707806E+02  0.25500000000E-02 0. -1.
    5000001    1    1    2    0    0  0.26321845319E+02  0.18270053318E+02  0.41636706624E+03  0.45796524785E+03  0.18800000000E+03 0.  0.
   -5000001    1    1    2    0    0 -0.26321845319E+02 -0.18270053318E+02  0.26249351532E+03  0.32445874926E+03  0.18800000000E+03 0.  0.
<mgrwt>
<rscale>  0 0.38901879E+03</rscale>
<asrwt>0</asrwt>
<pdfrwt beam="1">  1        2 0.10437746E+00 0.38901879E+03</pdfrwt>
<pdfrwt beam="2">  1       -2 0.73973872E-02 0.38901879E+03</pdfrwt>
<totfact> 0.46892882E+03</totfact>
</mgrwt>
</event>
<event>
 4    1  0.6024609E-005  0.5488593E+03  0.7818608E-02  0.1001758E+00
          2   -1    0    0  501    0  0.00000000000E+00  0.00000000000E+00  0.11734290444E+04  0.11734290444E+04  0.25500000000E-02 0.  1.
         -2   -1    0    0    0  501 -0.00000000000E+00 -0.00000000000E+00 -0.64180818402E+02  0.64180818453E+02  0.25500000000E-02 0. -1.
    5000001    1    1    2    0    0  0.18745251760E+03  0.64741732544E+02  0.61156579652E+03  0.66984077344E+03  0.18800000000E+03 0.  0.
   -5000001    1    1    2    0    0 -0.18745251760E+03 -0.64741732544E+02  0.49768242946E+03  0.56776908940E+03  0.18800000000E+03 0.  0.
<mgrwt>
<rscale>  0 0.54885931E+03</rscale>
<asrwt>0</asrwt>
<pdfrwt beam="1">  1        2 0.16763272E+00 0.54885931E+03</pdfrwt>
<pdfrwt beam="2">  1       -2 0.91686883E-02 0.54885931E+03</pdfrwt>
<totfact> 0.17614014E+03</totfact>
</mgrwt>
</event>
<event>
 4    1  0.6024609E-005  0.5028657E+03  0.7818608E-02  0.1013034E+00
          2   -1    0    0  501    0  0.00000000000E+00  0.00000000000E+00  0.74536858148E+03  0.74536858148E+03  0.25500000000E-02 0.  1.
         -2   -1    0    0    0  501 -0.00000000000E+00 -0.00000000000E+00 -0.84815068606E+02  0.84815068644E+02  0.25500000000E-02 0. -1.
    5000001    1    1    2    0    0 -0.59816808300E+02 -0.10987600929E+03  0.51280222045E+03  0.56032214419E+03  0.18800000000E+03 0.  0.
   -5000001    1    1    2    0    0  0.59816808300E+02  0.10987600929E+03  0.14775129242E+03  0.26986150594E+03  0.18800000000E+03 0.  0.
<mgrwt>
<rscale>  0 0.50286574E+03</rscale>
<asrwt>0</asrwt>
<pdfrwt beam="1">  1        2 0.10648123E+00 0.50286574E+03</pdfrwt>
<pdfrwt beam="2">  1       -2 0.12116437E-01 0.50286574E+03</pdfrwt>
<totfact> 0.20799145E+03</totfact>
</mgrwt>
</event>
<event>
 4    1  0.6024609E-005  0.5181425E+03  0.7818608E-02  0.1009149E+00
         -2   -1    0    0    0  501 -0.00000000000E+00  0.00000000000E+00  0.19673011185E+02  0.19673011351E+02  0.25500000000E-02 0. -1.
          2   -1    0    0  501    0  0.00000000000E+00 -0.00000000000E+00 -0.34116747146E+04  0.34116747146E+04  0.25500000000E-02 0.  1.
    5000001    1    1    2    0    0  0.44728829618E+02  0.14475077495E+03 -0.10740427559E+04  0.11008475355E+04  0.18800000000E+03 0.  0.
   -5000001    1    1    2    0    0 -0.44728829618E+02 -0.14475077495E+03 -0.23179589475E+04  0.23305001904E+04  0.18800000000E+03 0.  0.
<mgrwt>
<rscale>  0 0.51814251E+03</rscale>
<asrwt>0</asrwt>
<pdfrwt beam="1">  1        2 0.48738173E+00 0.51814251E+03</pdfrwt>
<pdfrwt beam="2">  1       -2 0.28104324E-02 0.51814251E+03</pdfrwt>
<totfact> 0.74086714E+02</totfact>
</mgrwt>
</event>
<event>
 4    1  0.6024609E-005  0.5200876E+03  0.7818608E-02  0.1008665E+00
         -2   -1    0    0    0  501 -0.00000000000E+00  0.00000000000E+00  0.78610515262E+02  0.78610515304E+02  0.25500000000E-02 0.  1.
          2   -1    0    0  501    0  0.00000000000E+00 -0.00000000000E+00 -0.86022547667E+03  0.86022547668E+03  0.25500000000E-02 0. -1.
    5000001    1    1    2    0    0 -0.14223181008E+03  0.10927279408E+03 -0.40959636469E+03  0.48506042231E+03  0.18800000000E+03 0.  0.
   -5000001    1    1    2    0    0  0.14223181008E+03 -0.10927279408E+03 -0.37201859672E+03  0.45377556967E+03  0.18800000000E+03 0.  0.
<mgrwt>
<rscale>  0 0.52008756E+03</rscale>
<asrwt>0</asrwt>
<pdfrwt beam="1">  1        2 0.12288935E+00 0.52008756E+03</pdfrwt>
<pdfrwt beam="2">  1       -2 0.11230074E-01 0.52008756E+03</pdfrwt>
<totfact> 0.19628622E+03</totfact>
</mgrwt>
</event>
<event>
 4    1  0.6024609E-005  0.7050557E+03  0.7818608E-02  0.9708625E-01
          2   -1    0    0  501    0  0.00000000000E+00  0.00000000000E+00  0.11516578652E+04  0.11516578652E+04  0.25500000000E-02 0.  1.
         -2   -1    0    0    0  501 -0.00000000000E+00 -0.00000000000E+00 -0.10791041812E+03  0.10791041815E+03  0.25500000000E-02 0. -1.
    5000001    1    1    2    0    0  0.11840212968E+02 -0.28082078650E+03  0.34383969121E+03  0.48225536599E+03  0.18800000000E+03 0.  0.
   -5000001    1    1    2    0    0 -0.11840212968E+02  0.28082078650E+03  0.69990775589E+03  0.77731291739E+03  0.18800000000E+03 0.  0.
<mgrwt>
<rscale>  0 0.70505569E+03</rscale>
<asrwt>0</asrwt>
<pdfrwt beam="1">  1        2 0.16452256E+00 0.70505569E+03</pdfrwt>
<pdfrwt beam="2">  1       -2 0.15415774E-01 0.70505569E+03</pdfrwt>
<totfact> 0.76655007E+02</totfact>
</mgrwt>
</event>
<event>
 4    1  0.6024609E-005  0.4848035E+03  0.7818608E-02  0.1017823E+00
         -2   -1    0    0    0  501 -0.00000000000E+00  0.00000000000E+00  0.10883119087E+03  0.10883119090E+03  0.25500000000E-02 0. -1.
          2   -1    0    0  501    0  0.00000000000E+00 -0.00000000000E+00 -0.53990605672E+03  0.53990605672E+03  0.25500000000E-02 0.  1.
    5000001    1    1    2    0    0  0.11572399128E+03  0.83446826132E+02 -0.14152455713E+03  0.27518832682E+03  0.18800000000E+03 0.  0.
   -5000001    1    1    2    0    0 -0.11572399128E+03 -0.83446826132E+02 -0.28955030872E+03  0.37354892080E+03  0.18800000000E+03 0.  0.
<mgrwt>
<rscale>  0 0.48480354E+03</rscale>
<asrwt>0</asrwt>
<pdfrwt beam="1">  1        2 0.77129435E-01 0.48480354E+03</pdfrwt>
<pdfrwt beam="2">  1       -2 0.15547313E-01 0.48480354E+03</pdfrwt>
<totfact> 0.20151091E+03</totfact>
</mgrwt>
</event>
<event>
 4    1  0.6024609E-005  0.5612998E+03  0.7818608E-02  0.9989118E-01
         -2   -1    0    0    0  501 -0.00000000000E+00  0.00000000000E+00  0.84980848957E+03  0.84980848957E+03  0.25500000000E-02 0. -1.
          2   -1    0    0  501    0  0.00000000000E+00 -0.00000000000E+00 -0.92684835348E+02  0.92684835383E+02  0.25500000000E-02 0.  1.
    5000001    1    1    2    0    0 -0.95733094269E+02  0.17574463678E+03  0.47602868021E+03  0.54954372627E+03  0.18800000000E+03 0.  0.
   -5000001    1    1    2    0    0  0.95733094269E+02 -0.17574463678E+03  0.28109497401E+03  0.39294959869E+03  0.18800000000E+03 0.  0.
<mgrwt>
<rscale>  0 0.56129978E+03</rscale>
<asrwt>0</asrwt>
<pdfrwt beam="1">  1        2 0.13240691E-01 0.56129978E+03</pdfrwt>
<pdfrwt beam="2">  1       -2 0.12140121E+00 0.56129978E+03</pdfrwt>
<totfact> 0.24429829E+02</totfact>
</mgrwt>
</event>
<event>
 4    1  0.6024609E-005  0.5490097E+03  0.7818608E-02  0.1001723E+00
         -2   -1    0    0    0  501 -0.00000000000E+00  0.00000000000E+00  0.95965108088E+02  0.95965108122E+02  0.25500000000E-02 0. -1.
          2   -1    0    0  501    0  0.00000000000E+00 -0.00000000000E+00 -0.78521152663E+03  0.78521152664E+03  0.25500000000E-02 0.  1.
    5000001    1    1    2    0    0  0.24756354390E+02 -0.19819046976E+03 -0.36195229788E+03  0.45414293491E+03  0.18800000000E+03 0.  0.
   -5000001    1    1    2    0    0 -0.24756354390E+02  0.19819046976E+03 -0.32729412066E+03  0.42703369985E+03  0.18800000000E+03 0.  0.
<mgrwt>
<rscale>  0 0.54900969E+03</rscale>
<asrwt>0</asrwt>
<pdfrwt beam="1">  1        2 0.11217307E+00 0.54900969E+03</pdfrwt>
<pdfrwt beam="2">  1       -2 0.13709302E-01 0.54900969E+03</pdfrwt>
<totfact> 0.15886540E+03</totfact>
</mgrwt>
</event>
<event>
 4    1  0.6024609E-005  0.7443864E+03  0.7818608E-02  0.9644199E-01
         -2   -1    0    0    0  501 -0.00000000000E+00  0.00000000000E+00  0.43342425887E+02  0.43342425962E+02  0.25500000000E-02 0. -1.
          2   -1    0    0  501    0  0.00000000000E+00 -0.00000000000E+00 -0.31961242968E+04  0.31961242968E+04  0.25500000000E-02 0.  1.
    5000001    1    1    2    0    0  0.89966072732E+02  0.29183346814E+03 -0.20099008779E+04  0.20416430164E+04  0.18800000000E+03 0.  0.
   -5000001    1    1    2    0    0 -0.89966072732E+02 -0.29183346814E+03 -0.11428809930E+04  0.11978237064E+04  0.18800000000E+03 0.  0.
<mgrwt>
<rscale>  0 0.74438641E+03</rscale>
<asrwt>0</asrwt>
<pdfrwt beam="1">  1        2 0.45658904E+00 0.74438641E+03</pdfrwt>
<pdfrwt beam="2">  1       -2 0.61917772E-02 0.74438641E+03</pdfrwt>
<totfact> 0.28428539E+02</totfact>
</mgrwt>
</event>
<event>
 4    1  0.6024609E-005  0.6083170E+03  0.7818608E-02  0.9888300E-01
          2   -1    0    0  501    0  0.00000000000E+00  0.00000000000E+00  0.24325822481E+03  0.24325822483E+03  0.25500000000E-02 0.  1.
         -2   -1    0    0    0  501 -0.00000000000E+00 -0.00000000000E+00 -0.38030528138E+03  0.38030528139E+03  0.25500000000E-02 0. -1.
    5000001    1    1    2    0    0  0.17885250918E+03  0.36496277098E+02  0.89775575300E+02  0.27699070779E+03  0.18800000000E+03 0.  0.
   -5000001    1    1    2    0    0 -0.17885250918E+03 -0.36496277098E+02 -0.22682263186E+03  0.34657279843E+03  0.18800000000E+03 0.  0.
<mgrwt>
<rscale>  0 0.60831698E+03</rscale>
<asrwt>0</asrwt>
<pdfrwt beam="1">  1        2 0.34751175E-01 0.60831698E+03</pdfrwt>
<pdfrwt beam="2">  1       -2 0.54329326E-01 0.60831698E+03</pdfrwt>
<totfact> 0.48482703E+02</totfact>
</mgrwt>
</event>
<event>
 4    1  0.6024609E-005  0.7916708E+03  0.7818608E-02  0.9572152E-01
          2   -1    0    0  501    0  0.00000000000E+00  0.00000000000E+00  0.15144841457E+04  0.15144841457E+04  0.25500000000E-02 0.  1.
         -2   -1    0    0    0  501 -0.00000000000E+00 -0.00000000000E+00 -0.10345811055E+03  0.10345811058E+03  0.25500000000E-02 0. -1.
    5000001    1    1    2    0    0  0.16055364518E+03 -0.25380534352E+03  0.34482908599E+03  0.49441452641E+03  0.18800000000E+03 0.  0.
   -5000001    1    1    2    0    0 -0.16055364518E+03  0.25380534352E+03  0.10661969491E+04  0.11235277298E+04  0.18800000000E+03 0.  0.
<mgrwt>
<rscale>  0 0.79167081E+03</rscale>
<asrwt>0</asrwt>
<pdfrwt beam="1">  1        2 0.21635489E+00 0.79167081E+03</pdfrwt>
<pdfrwt beam="2">  1       -2 0.14779729E-01 0.79167081E+03</pdfrwt>
<totfact> 0.51997542E+02</totfact>
</mgrwt>
</event>
<event>
 4    1  0.6024609E-005  0.4499348E+03  0.7818608E-02  0.1027741E+00
          2   -1    0    0  501    0  0.00000000000E+00  0.00000000000E+00  0.13800952933E+04  0.13800952933E+04  0.25500000000E-02 0.  1.
         -2   -1    0    0    0  501 -0.00000000000E+00 -0.00000000000E+00 -0.36671618247E+02  0.36671618336E+02  0.25500000000E-02 0. -1.
    5000001    1    1    2    0    0 -0.11013976547E+03  0.50255447859E+02  0.59394473976E+03  0.63464220775E+03  0.18800000000E+03 0.  0.
   -5000001    1    1    2    0    0  0.11013976547E+03 -0.50255447859E+02  0.74947893531E+03  0.78212470390E+03  0.18800000000E+03 0.  0.
<mgrwt>
<rscale>  0 0.44993479E+03</rscale>
<asrwt>0</asrwt>
<pdfrwt beam="1">  1        2 0.19715646E+00 0.44993479E+03</pdfrwt>
<pdfrwt beam="2">  1       -2 0.52388029E-02 0.44993479E+03</pdfrwt>
<totfact> 0.32832275E+03</totfact>
</mgrwt>
</event>
<event>
 4    1  0.6024609E-005  0.9385817E+03  0.7818608E-02  0.9378597E-01
         -2   -1    0    0    0  501 -0.00000000000E+00  0.00000000000E+00  0.29974725778E+03  0.29974725779E+03  0.25500000000E-02 0. -1.
          2   -1    0    0  501    0  0.00000000000E+00 -0.00000000000E+00 -0.73473199615E+03  0.73473199615E+03  0.25500000000E-02 0.  1.
    5000001    1    1    2    0    0 -0.32358185540E+03  0.12146831599E+03  0.64435885399E+02  0.39869255356E+03  0.18800000000E+03 0.  0.
   -5000001    1    1    2    0    0  0.32358185540E+03 -0.12146831599E+03 -0.49942062377E+03  0.63578670038E+03  0.18800000000E+03 0.  0.
<mgrwt>
<rscale>  0 0.93858170E+03</rscale>
<asrwt>0</asrwt>
<pdfrwt beam="1">  1        2 0.10496171E+00 0.93858170E+03</pdfrwt>
<pdfrwt beam="2">  1       -2 0.42821037E-01 0.93858170E+03</pdfrwt>
<totfact> 0.21909699E+02</totfact>
</mgrwt>
</event>
<event>
 4    1  0.6024609E-005  0.8860512E+03  0.7818608E-02  0.9443188E-01
         -2   -1    0    0    0  501 -0.00000000000E+00  0.00000000000E+00  0.55520187032E+03  0.55520187033E+03  0.25500000000E-02 0. -1.
          2   -1    0    0  501    0  0.00000000000E+00 -0.00000000000E+00 -0.35351405352E+03  0.35351405353E+03  0.25500000000E-02 0.  1.
    5000001    1    1    2    0    0  0.20493905732E+03 -0.29510967267E+03  0.28383996712E+03  0.49497359834E+03  0.18800000000E+03 0.  0.
   -5000001    1    1    2    0    0 -0.20493905732E+03  0.29510967267E+03 -0.82152150326E+02  0.41374232551E+03  0.18800000000E+03 0.  0.
<mgrwt>
<rscale>  0 0.88605116E+03</rscale>
<asrwt>0</asrwt>
<pdfrwt beam="1">  1        2 0.50502008E-01 0.88605116E+03</pdfrwt>
<pdfrwt beam="2">  1       -2 0.79314552E-01 0.88605116E+03</pdfrwt>
<totfact> 0.14058349E+02</totfact>
</mgrwt>
</event>
<event>
 4    1  0.6024609E-005  0.4721735E+03  0.7818608E-02  0.1021309E+00
          2   -1    0    0  501    0  0.00000000000E+00  0.00000000000E+00  0.14190168052E+04  0.14190168052E+04  0.25500000000E-02 0. -1.
         -2   -1    0    0    0  501 -0.00000000000E+00 -0.00000000000E+00 -0.39278564077E+02  0.39278564160E+02  0.25500000000E-02 0.  1.
    5000001    1    1    2    0    0  0.11993606890E+03  0.77096848990E+02  0.71464588585E+03  0.75258974675E+03  0.18800000000E+03 0.  0.
   -5000001    1    1    2    0    0 -0.11993606890E+03 -0.77096848990E+02  0.66509235531E+03  0.70570562265E+03  0.18800000000E+03 0.  0.
<mgrwt>
<rscale>  0 0.47217345E+03</rscale>
<asrwt>0</asrwt>
<pdfrwt beam="1">  1        2 0.20271669E+00 0.47217345E+03</pdfrwt>
<pdfrwt beam="2">  1       -2 0.56112232E-02 0.47217345E+03</pdfrwt>
<totfact> 0.28158690E+03</totfact>
</mgrwt>
</event>
<event>
 4    1  0.6024609E-005  0.3813031E+03  0.7818608E-02  0.1050453E+00
          2   -1    0    0  501    0  0.00000000000E+00  0.00000000000E+00  0.70054180001E+03  0.70054180001E+03  0.25500000000E-02 0.  1.
         -2   -1    0    0    0  501 -0.00000000000E+00 -0.00000000000E+00 -0.51885564185E+02  0.51885564248E+02  0.25500000000E-02 0. -1.
    5000001    1    1    2    0    0  0.12346032261E+02 -0.18682258068E+02  0.28009106310E+03  0.33807758711E+03  0.18800000000E+03 0.  0.
   -5000001    1    1    2    0    0 -0.12346032261E+02  0.18682258068E+02  0.36856517272E+03  0.41434977715E+03  0.18800000000E+03 0.  0.
<mgrwt>
<rscale>  0 0.38130306E+03</rscale>
<asrwt>0</asrwt>
<pdfrwt beam="1">  1        2 0.10007739E+00 0.38130306E+03</pdfrwt>
<pdfrwt beam="2">  1       -2 0.74122241E-02 0.38130306E+03</pdfrwt>
<totfact> 0.49170715E+03</totfact>
</mgrwt>
</event>
<event>
 4    1  0.6024609E-005  0.1041664E+04  0.7818608E-02  0.9263993E-01
          2   -1    0    0  501    0  0.00000000000E+00  0.00000000000E+00  0.24861578340E+04  0.24861578340E+04  0.25500000000E-02 0.  1.
         -2   -1    0    0    0  501 -0.00000000000E+00 -0.00000000000E+00 -0.10911051849E+03  0.10911051852E+03  0.25500000000E-02 0. -1.
    5000001    1    1    2    0    0  0.33092612858E+03  0.14512447301E+03  0.37985740193E+03  0.55696396745E+03  0.18800000000E+03 0.  0.
   -5000001    1    1    2    0    0 -0.33092612858E+03 -0.14512447301E+03  0.19971899135E+04  0.20383043850E+04  0.18800000000E+03 0.  0.
<mgrwt>
<rscale>  0 0.10416640E+04</rscale>
<asrwt>0</asrwt>
<pdfrwt beam="1">  1        2 0.35516541E+00 0.10416640E+04</pdfrwt>
<pdfrwt beam="2">  1       -2 0.15587217E-01 0.10416640E+04</pdfrwt>
<totfact> 0.14808415E+02</totfact>
</mgrwt>
</event>
<event>
 4    1  0.6024609E-005  0.5117041E+03  0.7818608E-02  0.1010768E+00
          2   -1    0    0  501    0  0.00000000000E+00  0.00000000000E+00  0.13461981108E+04  0.13461981108E+04  0.25500000000E-02 0.  1.
         -2   -1    0    0    0  501 -0.00000000000E+00 -0.00000000000E+00 -0.48626031638E+02  0.48626031705E+02  0.25500000000E-02 0. -1.
    5000001    1    1    2    0    0 -0.14235411498E+03 -0.54107943761E+02  0.87560335856E+03  0.90841488602E+03  0.18800000000E+03 0.  0.
   -5000001    1    1    2    0    0  0.14235411498E+03  0.54107943761E+02  0.42196872063E+03  0.48640925651E+03  0.18800000000E+03 0.  0.
<mgrwt>
<rscale>  0 0.51170410E+03</rscale>
<asrwt>0</asrwt>
<pdfrwt beam="1">  1        2 0.19231401E+00 0.51170410E+03</pdfrwt>
<pdfrwt beam="2">  1       -2 0.69465763E-02 0.51170410E+03</pdfrwt>
<totfact> 0.22032123E+03</totfact>
</mgrwt>
</event>
<event>
 4    1  0.6024609E-005  0.3811390E+03  0.7818608E-02  0.1050514E+00
         -2   -1    0    0    0  501 -0.00000000000E+00  0.00000000000E+00  0.11729630762E+03  0.11729630765E+03  0.25500000000E-02 0. -1.
          2   -1    0    0  501    0  0.00000000000E+00 -0.00000000000E+00 -0.30961539233E+03  0.30961539234E+03  0.25500000000E-02 0.  1.
    5000001    1    1    2    0    0  0.77243974326E+01  0.28121974548E+02 -0.10854307324E+03  0.21903449618E+03  0.18800000000E+03 0.  0.
   -5000001    1    1    2    0    0 -0.77243974326E+01 -0.28121974548E+02 -0.83776011464E+02  0.20787720381E+03  0.18800000000E+03 0.  0.
<mgrwt>
<rscale>  0 0.38113904E+03</rscale>
<asrwt>0</asrwt>
<pdfrwt beam="1">  1        2 0.44230770E-01 0.38113904E+03</pdfrwt>
<pdfrwt beam="2">  1       -2 0.16756615E-01 0.38113904E+03</pdfrwt>
<totfact> 0.32757036E+03</totfact>
</mgrwt>
</event>
<event>
 4    1  0.6024609E-005  0.5007812E+03  0.7818608E-02  0.1013575E+00
          2   -1    0    0  501    0  0.00000000000E+00  0.00000000000E+00  0.25627091177E+04  0.25627091177E+04  0.25500000000E-02 0.  1.
         -2   -1    0    0    0  501 -0.00000000000E+00 -0.00000000000E+00 -0.24464522580E+02  0.24464522713E+02  0.25500000000E-02 0. -1.
    5000001    1    1    2    0    0  0.14178541617E+03  0.83856789822E+02  0.11931253833E+04  0.12190271719E+04  0.18800000000E+03 0.  0.
   -5000001    1    1    2    0    0 -0.14178541617E+03 -0.83856789822E+02  0.13451192118E+04  0.13681464686E+04  0.18800000000E+03 0.  0.
<mgrwt>
<rscale>  0 0.50078121E+03</rscale>
<asrwt>0</asrwt>
<pdfrwt beam="1">  1        2 0.36610119E+00 0.50078121E+03</pdfrwt>
<pdfrwt beam="2">  1       -2 0.34949328E-02 0.50078121E+03</pdfrwt>
<totfact> 0.15395374E+03</totfact>
</mgrwt>
</event>
<event>
 4    1  0.6024609E-005  0.5396022E+03  0.7818608E-02  0.1003930E+00
         -2   -1    0    0    0  501 -0.00000000000E+00  0.00000000000E+00  0.19938601757E+02  0.19938601920E+02  0.25500000000E-02 0. -1.
          2   -1    0    0  501    0  0.00000000000E+00 -0.00000000000E+00 -0.36508393733E+04  0.36508393733E+04  0.25500000000E-02 0.  1.
    5000001    1    1    2    0    0 -0.19283905267E+03 -0.16138332765E+02 -0.18231667023E+04  0.18430214786E+04  0.18800000000E+03 0.  0.
   -5000001    1    1    2    0    0  0.19283905267E+03  0.16138332765E+02 -0.18077340692E+04  0.18277564967E+04  0.18800000000E+03 0.  0.
<mgrwt>
<rscale>  0 0.53960220E+03</rscale>
<asrwt>0</asrwt>
<pdfrwt beam="1">  1        2 0.52154805E+00 0.53960220E+03</pdfrwt>
<pdfrwt beam="2">  1       -2 0.28483740E-02 0.53960220E+03</pdfrwt>
<totfact> 0.52161194E+02</totfact>
</mgrwt>
</event>
<event>
 4    1  0.6024609E-005  0.4330788E+03  0.7818608E-02  0.1032892E+00
         -2   -1    0    0    0  501 -0.00000000000E+00  0.00000000000E+00  0.47607995842E+03  0.47607995843E+03  0.25500000000E-02 0. -1.
          2   -1    0    0  501    0  0.00000000000E+00 -0.00000000000E+00 -0.98490421827E+02  0.98490421860E+02  0.25500000000E-02 0.  1.
    5000001    1    1    2    0    0  0.80327123342E+02 -0.71353912061E+02  0.18717616547E+03  0.28622149541E+03  0.18800000000E+03 0.  0.
   -5000001    1    1    2    0    0 -0.80327123342E+02  0.71353912061E+02  0.19041337112E+03  0.28834888488E+03  0.18800000000E+03 0.  0.
<mgrwt>
<rscale>  0 0.43307882E+03</rscale>
<asrwt>0</asrwt>
<pdfrwt beam="1">  1        2 0.14070060E-01 0.43307882E+03</pdfrwt>
<pdfrwt beam="2">  1       -2 0.68011422E-01 0.43307882E+03</pdfrwt>
<totfact> 0.86084752E+02</totfact>
</mgrwt>
</event>
<event>
 4    1  0.6024609E-005  0.4108689E+03  0.7818608E-02  0.1040080E+00
         -2   -1    0    0    0  501 -0.00000000000E+00  0.00000000000E+00  0.14087960924E+03  0.14087960926E+03  0.25500000000E-02 0. -1.
          2   -1    0    0  501    0  0.00000000000E+00 -0.00000000000E+00 -0.29957010036E+03  0.29957010037E+03  0.25500000000E-02 0.  1.
    5000001    1    1    2    0    0 -0.82300879047E+02 -0.63913417125E+01 -0.72151304325E+02  0.21763293560E+03  0.18800000000E+03 0.  0.
   -5000001    1    1    2    0    0  0.82300879047E+02  0.63913417125E+01 -0.86539186794E+02  0.22281677404E+03  0.18800000000E+03 0.  0.
<mgrwt>
<rscale>  0 0.41086893E+03</rscale>
<asrwt>0</asrwt>
<pdfrwt beam="1">  1        2 0.42795729E-01 0.41086893E+03</pdfrwt>
<pdfrwt beam="2">  1       -2 0.20125658E-01 0.41086893E+03</pdfrwt>
<totfact> 0.24871278E+03</totfact>
</mgrwt>
</event>
<event>
 4    1  0.6024609E-005  0.9634535E+03  0.7818608E-02  0.9349562E-01
          2   -1    0    0  501    0  0.00000000000E+00  0.00000000000E+00  0.94187979607E+03  0.94187979607E+03  0.25500000000E-02 0.  1.
         -2   -1    0    0    0  501 -0.00000000000E+00 -0.00000000000E+00 -0.24638033171E+03  0.24638033172E+03  0.25500000000E-02 0. -1.
    5000001    1    1    2    0    0  0.34095234665E+03 -0.20762108197E+03  0.10935660117E+03  0.45459639526E+03  0.18800000000E+03 0.  0.
   -5000001    1    1    2    0    0 -0.34095234665E+03  0.20762108197E+03  0.58614286319E+03  0.73366373253E+03  0.18800000000E+03 0.  0.
<mgrwt>
<rscale>  0 0.96345349E+03</rscale>
<asrwt>0</asrwt>
<pdfrwt beam="1">  1        2 0.13455426E+00 0.96345349E+03</pdfrwt>
<pdfrwt beam="2">  1       -2 0.35197191E-01 0.96345349E+03</pdfrwt>
<totfact> 0.23103485E+02</totfact>
</mgrwt>
</event>
<event>
 4    1  0.6024609E-005  0.7785863E+03  0.7818608E-02  0.9591540E-01
          2   -1    0    0  501    0  0.00000000000E+00  0.00000000000E+00  0.12411320289E+04  0.12411320289E+04  0.25500000000E-02 0.  1.
         -2   -1    0    0    0  501 -0.00000000000E+00 -0.00000000000E+00 -0.12210560196E+03  0.12210560198E+03  0.25500000000E-02 0. -1.
    5000001    1    1    2    0    0  0.18534496420E+03  0.26169127818E+03  0.35705658834E+03  0.51543039113E+03  0.18800000000E+03 0.  0.
   -5000001    1    1    2    0    0 -0.18534496420E+03 -0.26169127818E+03  0.76196983858E+03  0.84780723973E+03  0.18800000000E+03 0.  0.
<mgrwt>
<rscale>  0 0.77858634E+03</rscale>
<asrwt>0</asrwt>
<pdfrwt beam="1">  1        2 0.17730457E+00 0.77858634E+03</pdfrwt>
<pdfrwt beam="2">  1       -2 0.17443658E-01 0.77858634E+03</pdfrwt>
<totfact> 0.55088881E+02</totfact>
</mgrwt>
</event>
<event>
 4    1  0.6024609E-005  0.1128072E+04  0.7818608E-02  0.9178255E-01
          2   -1    0    0  501    0  0.00000000000E+00  0.00000000000E+00  0.85329592091E+03  0.85329592091E+03  0.25500000000E-02 0.  1.
         -2   -1    0    0    0  501 -0.00000000000E+00 -0.00000000000E+00 -0.37283281425E+03  0.37283281425E+03  0.25500000000E-02 0. -1.
    5000001    1    1    2    0    0  0.15693338254E+03 -0.49883407514E+03  0.13524798199E+03  0.57192616456E+03  0.18800000000E+03 0.  0.
   -5000001    1    1    2    0    0 -0.15693338254E+03  0.49883407514E+03  0.34521512468E+03  0.65420257060E+03  0.18800000000E+03 0.  0.
<mgrwt>
<rscale>  0 0.11280722E+04</rscale>
<asrwt>0</asrwt>
<pdfrwt beam="1">  1        2 0.12189942E+00 0.11280722E+04</pdfrwt>
<pdfrwt beam="2">  1       -2 0.53261830E-01 0.11280722E+04</pdfrwt>
<totfact> 0.11507644E+02</totfact>
</mgrwt>
</event>
<event>
 4    1  0.6024609E-005  0.5656373E+03  0.7818608E-02  0.9979379E-01
         -2   -1    0    0    0  501 -0.00000000000E+00  0.00000000000E+00  0.15897012016E+03  0.15897012018E+03  0.25500000000E-02 0. -1.
          2   -1    0    0  501    0  0.00000000000E+00 -0.00000000000E+00 -0.50315362429E+03  0.50315362429E+03  0.25500000000E-02 0.  1.
    5000001    1    1    2    0    0 -0.12417973754E+03  0.12883762524E+03 -0.40576414479E+02  0.26269789932E+03  0.18800000000E+03 0.  0.
   -5000001    1    1    2    0    0  0.12417973754E+03 -0.12883762524E+03 -0.30360708965E+03  0.39942584516E+03  0.18800000000E+03 0.  0.
<mgrwt>
<rscale>  0 0.56563731E+03</rscale>
<asrwt>0</asrwt>
<pdfrwt beam="1">  1        2 0.71879088E-01 0.56563731E+03</pdfrwt>
<pdfrwt beam="2">  1       -2 0.22710017E-01 0.56563731E+03</pdfrwt>
<totfact> 0.11366646E+03</totfact>
</mgrwt>
</event>
<event>
 4    1  0.6024609E-005  0.5973289E+03  0.7818608E-02  0.9910963E-01
         -2   -1    0    0    0  501 -0.00000000000E+00  0.00000000000E+00  0.48869693155E+03  0.48869693156E+03  0.25500000000E-02 0. -1.
          2   -1    0    0  501    0  0.00000000000E+00 -0.00000000000E+00 -0.18252713815E+03  0.18252713817E+03  0.25500000000E-02 0.  1.
    5000001    1    1    2    0    0  0.13422966442E+03  0.18739372148E+03  0.18328828717E+03  0.34938890348E+03  0.18800000000E+03 0.  0.
   -5000001    1    1    2    0    0 -0.13422966442E+03 -0.18739372148E+03  0.12288150624E+03  0.32183516625E+03  0.18800000000E+03 0.  0.
<mgrwt>
<rscale>  0 0.59732890E+03</rscale>
<asrwt>0</asrwt>
<pdfrwt beam="1">  1        2 0.26075306E-01 0.59732890E+03</pdfrwt>
<pdfrwt beam="2">  1       -2 0.69813847E-01 0.59732890E+03</pdfrwt>
<totfact> 0.39411893E+02</totfact>
</mgrwt>
</event>
<event>
 4    1  0.6024609E-005  0.7072109E+03  0.7818608E-02  0.9704980E-01
          2   -1    0    0  501    0  0.00000000000E+00  0.00000000000E+00  0.72899848415E+03  0.72899848415E+03  0.25500000000E-02 0.  1.
         -2   -1    0    0    0  501 -0.00000000000E+00 -0.00000000000E+00 -0.17151859950E+03  0.17151859952E+03  0.25500000000E-02 0. -1.
    5000001    1    1    2    0    0 -0.19867880812E+03 -0.11966839919E+03  0.51999934022E+03  0.59961413292E+03  0.18800000000E+03 0.  0.
   -5000001    1    1    2    0    0  0.19867880812E+03  0.11966839919E+03  0.37480544426E+02  0.30090295075E+03  0.18800000000E+03 0.  0.
<mgrwt>
<rscale>  0 0.70721086E+03</rscale>
<asrwt>0</asrwt>
<pdfrwt beam="1">  1        2 0.10414264E+00 0.70721086E+03</pdfrwt>
<pdfrwt beam="2">  1       -2 0.24502657E-01 0.70721086E+03</pdfrwt>
<totfact> 0.63822733E+02</totfact>
</mgrwt>
</event>
<event>
 4    1  0.6024609E-005  0.4424792E+03  0.7818608E-02  0.1029989E+00
          2   -1    0    0  501    0  0.00000000000E+00  0.00000000000E+00  0.20832713245E+04  0.20832713245E+04  0.25500000000E-02 0.  1.
         -2   -1    0    0    0  501 -0.00000000000E+00 -0.00000000000E+00 -0.23495241937E+02  0.23495242075E+02  0.25500000000E-02 0. -1.
    5000001    1    1    2    0    0  0.20660620500E+02 -0.10503194104E+03  0.80940467022E+03  0.83781769500E+03  0.18800000000E+03 0.  0.
   -5000001    1    1    2    0    0 -0.20660620500E+02  0.10503194104E+03  0.12503714124E+04  0.12689488716E+04  0.18800000000E+03 0.  0.
<mgrwt>
<rscale>  0 0.44247922E+03</rscale>
<asrwt>0</asrwt>
<pdfrwt beam="1">  1        2 0.29761027E+00 0.44247922E+03</pdfrwt>
<pdfrwt beam="2">  1       -2 0.33564622E-02 0.44247922E+03</pdfrwt>
<totfact> 0.28622147E+03</totfact>
</mgrwt>
</event>
<event>
 4    1  0.6024609E-005  0.4183120E+03  0.7818608E-02  0.1037617E+00
          2   -1    0    0  501    0  0.00000000000E+00  0.00000000000E+00  0.29451364452E+04  0.29451364452E+04  0.25500000000E-02 0.  1.
         -2   -1    0    0    0  501 -0.00000000000E+00 -0.00000000000E+00 -0.14853720202E+02  0.14853720421E+02  0.25500000000E-02 0. -1.
    5000001    1    1    2    0    0 -0.68071157937E+02 -0.60882630505E+02  0.15207932826E+04  0.15350884619E+04  0.18800000000E+03 0.  0.
   -5000001    1    1    2    0    0  0.68071157937E+02  0.60882630505E+02  0.14094894424E+04  0.14249017038E+04  0.18800000000E+03 0.  0.
<mgrwt>
<rscale>  0 0.41831200E+03</rscale>
<asrwt>0</asrwt>
<pdfrwt beam="1">  1        2 0.42073385E+00 0.41831200E+03</pdfrwt>
<pdfrwt beam="2">  1       -2 0.21219597E-02 0.41831200E+03</pdfrwt>
<totfact> 0.20732372E+03</totfact>
</mgrwt>
</event>
<event>
 4    1  0.6024609E-005  0.8239877E+03  0.7818608E-02  0.9525931E-01
         -2   -1    0    0    0  501 -0.00000000000E+00  0.00000000000E+00  0.23507597115E+03  0.23507597116E+03  0.25500000000E-02 0. -1.
          2   -1    0    0  501    0  0.00000000000E+00 -0.00000000000E+00 -0.72205992946E+03  0.72205992947E+03  0.25500000000E-02 0.  1.
    5000001    1    1    2    0    0  0.17541199545E+03  0.76878514553E+02  0.11961456478E+03  0.29382191588E+03  0.18800000000E+03 0.  0.
   -5000001    1    1    2    0    0 -0.17541199545E+03 -0.76878514553E+02 -0.60659852309E+03  0.66331398475E+03  0.18800000000E+03 0.  0.
<mgrwt>
<rscale>  0 0.82398772E+03</rscale>
<asrwt>0</asrwt>
<pdfrwt beam="1">  1        2 0.10315142E+00 0.82398772E+03</pdfrwt>
<pdfrwt beam="2">  1       -2 0.33582282E-01 0.82398772E+03</pdfrwt>
<totfact> 0.35997518E+02</totfact>
</mgrwt>
</event>
<event>
 4    1  0.6024609E-005  0.4595388E+03  0.7818608E-02  0.1024915E+00
         -2   -1    0    0    0  501 -0.00000000000E+00  0.00000000000E+00  0.93642059318E+02  0.93642059353E+02  0.25500000000E-02 0. -1.
          2   -1    0    0  501    0  0.00000000000E+00 -0.00000000000E+00 -0.56378497859E+03  0.56378497859E+03  0.25500000000E-02 0.  1.
    5000001    1    1    2    0    0 -0.67791494940E+02  0.87029174875E+02 -0.13111500897E+03  0.25437159755E+03  0.18800000000E+03 0.  0.
   -5000001    1    1    2    0    0  0.67791494940E+02 -0.87029174875E+02 -0.33902791030E+03  0.40305544039E+03  0.18800000000E+03 0.  0.
<mgrwt>
<rscale>  0 0.45953884E+03</rscale>
<asrwt>0</asrwt>
<pdfrwt beam="1">  1        2 0.80540709E-01 0.45953884E+03</pdfrwt>
<pdfrwt beam="2">  1       -2 0.13377437E-01 0.45953884E+03</pdfrwt>
<totfact> 0.24627122E+03</totfact>
</mgrwt>
</event>
<event>
 4    1  0.6024609E-005  0.5584957E+03  0.7818608E-02  0.9995464E-01
          2   -1    0    0  501    0  0.00000000000E+00  0.00000000000E+00  0.29632151832E+04  0.29632151832E+04  0.25500000000E-02 0.  1.
         -2   -1    0    0    0  501 -0.00000000000E+00 -0.00000000000E+00 -0.26315797867E+02  0.26315797991E+02  0.25500000000E-02 0. -1.
    5000001    1    1    2    0    0  0.44802531350E+02 -0.19708613573E+03  0.16946128211E+04  0.17169469489E+04  0.18800000000E+03 0.  0.
   -5000001    1    1    2    0    0 -0.44802531350E+02  0.19708613573E+03  0.12422865642E+04  0.12725840323E+04  0.18800000000E+03 0.  0.
<mgrwt>
<rscale>  0 0.55849574E+03</rscale>
<asrwt>0</asrwt>
<pdfrwt beam="1">  1        2 0.42331632E+00 0.55849574E+03</pdfrwt>
<pdfrwt beam="2">  1       -2 0.37594009E-02 0.55849574E+03</pdfrwt>
<totfact> 0.84442600E+02</totfact>
</mgrwt>
</event>
<event>
 4    1  0.6024609E-005  0.5135303E+03  0.7818608E-02  0.1010306E+00
         -2   -1    0    0    0  501 -0.00000000000E+00  0.00000000000E+00  0.81796242370E+02  0.81796242410E+02  0.25500000000E-02 0. -1.
          2   -1    0    0  501    0  0.00000000000E+00 -0.00000000000E+00 -0.80600691660E+03  0.80600691660E+03  0.25500000000E-02 0.  1.
    5000001    1    1    2    0    0  0.27827476486E+02 -0.16668455562E+03 -0.43992596705E+03  0.50738246522E+03  0.18800000000E+03 0.  0.
   -5000001    1    1    2    0    0 -0.27827476486E+02  0.16668455562E+03 -0.28428470718E+03  0.38042069379E+03  0.18800000000E+03 0.  0.
<mgrwt>
<rscale>  0 0.51353028E+03</rscale>
<asrwt>0</asrwt>
<pdfrwt beam="1">  1        2 0.11514384E+00 0.51353028E+03</pdfrwt>
<pdfrwt beam="2">  1       -2 0.11685178E-01 0.51353028E+03</pdfrwt>
<totfact> 0.20006605E+03</totfact>
</mgrwt>
</event>
<event>
 4    1  0.6024609E-005  0.4168543E+03  0.7818608E-02  0.1038095E+00
          2   -1    0    0  501    0  0.00000000000E+00  0.00000000000E+00  0.15589687187E+04  0.15589687187E+04  0.25500000000E-02 0.  1.
         -2   -1    0    0    0  501 -0.00000000000E+00 -0.00000000000E+00 -0.27865779339E+02  0.27865779455E+02  0.25500000000E-02 0. -1.
    5000001    1    1    2    0    0  0.83335217349E+02 -0.13654420502E+02  0.88390684255E+03  0.90761583721E+03  0.18800000000E+03 0.  0.
   -5000001    1    1    2    0    0 -0.83335217349E+02  0.13654420502E+02  0.64719609681E+03  0.67921866095E+03  0.18800000000E+03 0.  0.
<mgrwt>
<rscale>  0 0.41685431E+03</rscale>
<asrwt>0</asrwt>
<pdfrwt beam="1">  1        2 0.22270990E+00 0.41685431E+03</pdfrwt>
<pdfrwt beam="2">  1       -2 0.39808241E-02 0.41685431E+03</pdfrwt>
<totfact> 0.40411340E+03</totfact>
</mgrwt>
</event>
<event>
 4    1  0.6024609E-005  0.5729629E+03  0.7818608E-02  0.9963143E-01
          2   -1    0    0  501    0  0.00000000000E+00  0.00000000000E+00  0.60440218505E+03  0.60440218506E+03  0.25500000000E-02 0.  1.
         -2   -1    0    0    0  501 -0.00000000000E+00 -0.00000000000E+00 -0.13578975353E+03  0.13578975355E+03  0.25500000000E-02 0. -1.
    5000001    1    1    2    0    0 -0.21309167227E+03 -0.21477342641E+02  0.19645899115E+03  0.34613504914E+03  0.18800000000E+03 0.  0.
   -5000001    1    1    2    0    0  0.21309167227E+03  0.21477342641E+02  0.27215344037E+03  0.39405688948E+03  0.18800000000E+03 0.  0.
<mgrwt>
<rscale>  0 0.57296291E+03</rscale>
<asrwt>0</asrwt>
<pdfrwt beam="1">  1        2 0.86343169E-01 0.57296291E+03</pdfrwt>
<pdfrwt beam="2">  1       -2 0.19398536E-01 0.57296291E+03</pdfrwt>
<totfact> 0.12118510E+03</totfact>
</mgrwt>
</event>
<event>
 4    1  0.6024609E-005  0.7311897E+03  0.7818608E-02  0.9665332E-01
          2   -1    0    0  501    0  0.00000000000E+00  0.00000000000E+00  0.98646432544E+03  0.98646432545E+03  0.25500000000E-02 0.  1.
         -2   -1    0    0    0  501 -0.00000000000E+00 -0.00000000000E+00 -0.13549358004E+03  0.13549358007E+03  0.25500000000E-02 0. -1.
    5000001    1    1    2    0    0 -0.74083568868E+00  0.31326547592E+03  0.44605906060E+03  0.57658346558E+03  0.18800000000E+03 0.  0.
   -5000001    1    1    2    0    0  0.74083568868E+00 -0.31326547592E+03  0.40491168480E+03  0.54537443993E+03  0.18800000000E+03 0.  0.
<mgrwt>
<rscale>  0 0.73118967E+03</rscale>
<asrwt>0</asrwt>
<pdfrwt beam="1">  1        2 0.14092348E+00 0.73118967E+03</pdfrwt>
<pdfrwt beam="2">  1       -2 0.19356225E-01 0.73118967E+03</pdfrwt>
<totfact> 0.64953684E+02</totfact>
</mgrwt>
</event>
<event>
 4    1  0.6024609E-005  0.5384321E+03  0.7818608E-02  0.1004207E+00
          2   -1    0    0  501    0  0.00000000000E+00  0.00000000000E+00  0.78252967629E+03  0.78252967630E+03  0.25500000000E-02 0.  1.
         -2   -1    0    0    0  501 -0.00000000000E+00 -0.00000000000E+00 -0.92619208722E+02  0.92619208757E+02  0.25500000000E-02 0. -1.
    5000001    1    1    2    0    0  0.61136952749E+02  0.17225887393E+03  0.44412160916E+03  0.51575076380E+03  0.18800000000E+03 0.  0.
   -5000001    1    1    2    0    0 -0.61136952749E+02 -0.17225887393E+03  0.24578885841E+03  0.35939812125E+03  0.18800000000E+03 0.  0.
<mgrwt>
<rscale>  0 0.53843209E+03</rscale>
<asrwt>0</asrwt>
<pdfrwt beam="1">  1        2 0.11178996E+00 0.53843209E+03</pdfrwt>
<pdfrwt beam="2">  1       -2 0.13231315E-01 0.53843209E+03</pdfrwt>
<totfact> 0.16925500E+03</totfact>
</mgrwt>
</event>
<event>
 4    1  0.6024609E-005  0.4025738E+03  0.7818608E-02  0.1042892E+00
          2   -1    0    0  501    0  0.00000000000E+00  0.00000000000E+00  0.92186001357E+03  0.92186001358E+03  0.25500000000E-02 0.  1.
         -2   -1    0    0    0  501 -0.00000000000E+00 -0.00000000000E+00 -0.43950723375E+02  0.43950723449E+02  0.25500000000E-02 0. -1.
    5000001    1    1    2    0    0  0.45663761366E+02  0.25262148627E+02  0.32022855247E+03  0.37498490779E+03  0.18800000000E+03 0.  0.
   -5000001    1    1    2    0    0 -0.45663761366E+02 -0.25262148627E+02  0.55768073773E+03  0.59082582923E+03  0.18800000000E+03 0.  0.
<mgrwt>
<rscale>  0 0.40257379E+03</rscale>
<asrwt>0</asrwt>
<pdfrwt beam="1">  1        2 0.13169428E+00 0.40257379E+03</pdfrwt>
<pdfrwt beam="2">  1       -2 0.62786752E-02 0.40257379E+03</pdfrwt>
<totfact> 0.45104368E+03</totfact>
</mgrwt>
</event>
<event>
 4    1  0.6024609E-005  0.4768847E+03  0.7818608E-02  0.1019995E+00
         -2   -1    0    0    0  501 -0.00000000000E+00  0.00000000000E+00  0.43214530562E+02  0.43214530638E+02  0.25500000000E-02 0. -1.
          2   -1    0    0  501    0  0.00000000000E+00 -0.00000000000E+00 -0.13156395675E+04  0.13156395675E+04  0.25500000000E-02 0.  1.
    5000001    1    1    2    0    0  0.12152243021E+03  0.76178554922E+02 -0.54885625001E+03  0.59762702119E+03  0.18800000000E+03 0.  0.
   -5000001    1    1    2    0    0 -0.12152243021E+03 -0.76178554922E+02 -0.72356878689E+03  0.76122707692E+03  0.18800000000E+03 0.  0.
<mgrwt>
<rscale>  0 0.47688467E+03</rscale>
<asrwt>0</asrwt>
<pdfrwt beam="1">  1        2 0.18794848E+00 0.47688467E+03</pdfrwt>
<pdfrwt beam="2">  1       -2 0.61735052E-02 0.47688467E+03</pdfrwt>
<totfact> 0.27535718E+03</totfact>
</mgrwt>
</event>
<event>
 4    1  0.6024609E-005  0.7586083E+03  0.7818608E-02  0.9621941E-01
         -2   -1    0    0    0  501 -0.00000000000E+00  0.00000000000E+00  0.12409801523E+03  0.12409801526E+03  0.25500000000E-02 0. -1.
          2   -1    0    0  501    0  0.00000000000E+00 -0.00000000000E+00 -0.11593387038E+04  0.11593387038E+04  0.25500000000E-02 0.  1.
    5000001    1    1    2    0    0  0.32406131401E+03 -0.59252363507E+02 -0.51935751471E+03  0.64311958911E+03  0.18800000000E+03 0.  0.
   -5000001    1    1    2    0    0 -0.32406131401E+03  0.59252363507E+02 -0.51588317387E+03  0.64031712995E+03  0.18800000000E+03 0.  0.
<mgrwt>
<rscale>  0 0.75860828E+03</rscale>
<asrwt>0</asrwt>
<pdfrwt beam="1">  1        2 0.16561981E+00 0.75860828E+03</pdfrwt>
<pdfrwt beam="2">  1       -2 0.17728289E-01 0.75860828E+03</pdfrwt>
<totfact> 0.59644130E+02</totfact>
</mgrwt>
</event>
<event>
 4    1  0.6024609E-005  0.4512493E+03  0.7818608E-02  0.1027350E+00
          2   -1    0    0  501    0  0.00000000000E+00  0.00000000000E+00  0.35818016859E+03  0.35818016860E+03  0.25500000000E-02 0.  1.
         -2   -1    0    0    0  501 -0.00000000000E+00 -0.00000000000E+00 -0.14212532908E+03  0.14212532911E+03  0.25500000000E-02 0. -1.
    5000001    1    1    2    0    0  0.11366048667E+03  0.16228308919E+02  0.16212086736E+03  0.27351277826E+03  0.18800000000E+03 0.  0.
   -5000001    1    1    2    0    0 -0.11366048667E+03 -0.16228308919E+02  0.53933972147E+02  0.22679271944E+03  0.18800000000E+03 0.  0.
<mgrwt>
<rscale>  0 0.45124926E+03</rscale>
<asrwt>0</asrwt>
<pdfrwt beam="1">  1        2 0.51168595E-01 0.45124926E+03</pdfrwt>
<pdfrwt beam="2">  1       -2 0.20303618E-01 0.45124926E+03</pdfrwt>
<totfact> 0.20172009E+03</totfact>
</mgrwt>
</event>
<event>
 4    1  0.6024609E-005  0.4937146E+03  0.7818608E-02  0.1015433E+00
         -2   -1    0    0    0  501 -0.00000000000E+00  0.00000000000E+00  0.39865695975E+02  0.39865696056E+02  0.25500000000E-02 0. -1.
          2   -1    0    0  501    0  0.00000000000E+00 -0.00000000000E+00 -0.15285956045E+04  0.15285956045E+04  0.25500000000E-02 0.  1.
    5000001    1    1    2    0    0  0.47517895100E+02 -0.68365170981E+02 -0.31036867101E+03  0.37229619781E+03  0.18800000000E+03 0.  0.
   -5000001    1    1    2    0    0 -0.47517895100E+02  0.68365170981E+02 -0.11783612375E+04  0.11961651027E+04  0.18800000000E+03 0.  0.
<mgrwt>
<rscale>  0 0.49371460E+03</rscale>
<asrwt>0</asrwt>
<pdfrwt beam="1">  1        2 0.21837076E+00 0.49371460E+03</pdfrwt>
<pdfrwt beam="2">  1       -2 0.56951004E-02 0.49371460E+03</pdfrwt>
<totfact> 0.24129431E+03</totfact>
</mgrwt>
</event>
<event>
 4    1  0.6024609E-005  0.4375479E+03  0.7818608E-02  0.1031502E+00
         -2   -1    0    0    0  501 -0.00000000000E+00  0.00000000000E+00  0.42932147229E+03  0.42932147229E+03  0.25500000000E-02 0. -1.
          2   -1    0    0  501    0  0.00000000000E+00 -0.00000000000E+00 -0.11148297749E+03  0.11148297752E+03  0.25500000000E-02 0.  1.
    5000001    1    1    2    0    0 -0.46685507616E+02  0.91699689140E+02  0.21321374227E+03  0.30231187456E+03  0.18800000000E+03 0.  0.
   -5000001    1    1    2    0    0  0.46685507616E+02 -0.91699689140E+02  0.10462475252E+03  0.23849257525E+03  0.18800000000E+03 0.  0.
<mgrwt>
<rscale>  0 0.43754788E+03</rscale>
<asrwt>0</asrwt>
<pdfrwt beam="1">  1        2 0.15926140E-01 0.43754788E+03</pdfrwt>
<pdfrwt beam="2">  1       -2 0.61331639E-01 0.43754788E+03</pdfrwt>
<totfact> 0.92382389E+02</totfact>
</mgrwt>
</event>
<event>
 4    1  0.6024609E-005  0.4177776E+03  0.7818608E-02  0.1037792E+00
          2   -1    0    0  501    0  0.00000000000E+00  0.00000000000E+00  0.19433402270E+04  0.19433402270E+04  0.25500000000E-02 0.  1.
         -2   -1    0    0    0  501 -0.00000000000E+00 -0.00000000000E+00 -0.22453368684E+02  0.22453368829E+02  0.25500000000E-02 0. -1.
    5000001    1    1    2    0    0  0.48765427090E+02  0.74544593163E+02  0.87171634453E+03  0.89619660152E+03  0.18800000000E+03 0.  0.
   -5000001    1    1    2    0    0 -0.48765427090E+02 -0.74544593163E+02  0.10491705138E+04  0.10695969943E+04  0.18800000000E+03 0.  0.
<mgrwt>
<rscale>  0 0.41777762E+03</rscale>
<asrwt>0</asrwt>
<pdfrwt beam="1">  1        2 0.27761997E+00 0.41777762E+03</pdfrwt>
<pdfrwt beam="2">  1       -2 0.32076248E-02 0.41777762E+03</pdfrwt>
<totfact> 0.35992627E+03</totfact>
</mgrwt>
</event>
<event>
 4    1  0.6024609E-005  0.8486419E+03  0.7818608E-02  0.9492162E-01
          2   -1    0    0  501    0  0.00000000000E+00  0.00000000000E+00  0.27840361421E+03  0.27840361423E+03  0.25500000000E-02 0.  1.
         -2   -1    0    0    0  501 -0.00000000000E+00 -0.00000000000E+00 -0.64671672491E+03  0.64671672492E+03  0.25500000000E-02 0. -1.
    5000001    1    1    2    0    0 -0.32589383690E+03 -0.19318591422E+03 -0.14676241684E+03  0.44767264533E+03  0.18800000000E+03 0.  0.
   -5000001    1    1    2    0    0  0.32589383690E+03  0.19318591422E+03 -0.22155069386E+03  0.47744769381E+03  0.18800000000E+03 0.  0.
<mgrwt>
<rscale>  0 0.84864191E+03</rscale>
<asrwt>0</asrwt>
<pdfrwt beam="1">  1        2 0.39771945E-01 0.84864191E+03</pdfrwt>
<pdfrwt beam="2">  1       -2 0.92388103E-01 0.84864191E+03</pdfrwt>
<totfact> 0.12965175E+02</totfact>
</mgrwt>
</event>
<event>
 4    1  0.6024609E-005  0.1032045E+04  0.7818608E-02  0.9274080E-01
         -2   -1    0    0    0  501 -0.00000000000E+00  0.00000000000E+00  0.53936236268E+03  0.53936236268E+03  0.25500000000E-02 0. -1.
          2   -1    0    0  501    0  0.00000000000E+00 -0.00000000000E+00 -0.49369290615E+03  0.49369290615E+03  0.25500000000E-02 0.  1.
    5000001    1    1    2    0    0  0.42847439168E+03 -0.15478250910E+03 -0.13024446641E+03  0.50976028727E+03  0.18800000000E+03 0.  0.
   -5000001    1    1    2    0    0 -0.42847439168E+03  0.15478250910E+03  0.17591392294E+03  0.52329498156E+03  0.18800000000E+03 0.  0.
<mgrwt>
<rscale>  0 0.10320453E+04</rscale>
<asrwt>0</asrwt>
<pdfrwt beam="1">  1        2 0.70527558E-01 0.10320453E+04</pdfrwt>
<pdfrwt beam="2">  1       -2 0.77051766E-01 0.10320453E+04</pdfrwt>
<totfact> 0.10221352E+02</totfact>
</mgrwt>
</event>
<event>
 4    1  0.6024609E-005  0.6163991E+03  0.7818608E-02  0.9871955E-01
         -2   -1    0    0    0  501 -0.00000000000E+00  0.00000000000E+00  0.26515419636E+02  0.26515419759E+02  0.25500000000E-02 0. -1.
          2   -1    0    0  501    0  0.00000000000E+00 -0.00000000000E+00 -0.35823289109E+04  0.35823289109E+04  0.25500000000E-02 0.  1.
    5000001    1    1    2    0    0 -0.23640930269E+03  0.61009811792E+02 -0.17450999112E+04  0.17720974171E+04  0.18800000000E+03 0.  0.
   -5000001    1    1    2    0    0  0.23640930269E+03 -0.61009811792E+02 -0.18107135800E+04  0.18367469135E+04  0.18800000000E+03 0.  0.
<mgrwt>
<rscale>  0 0.61639907E+03</rscale>
<asrwt>0</asrwt>
<pdfrwt beam="1">  1        2 0.51176097E+00 0.61639907E+03</pdfrwt>
<pdfrwt beam="2">  1       -2 0.37879194E-02 0.61639907E+03</pdfrwt>
<totfact> 0.36825694E+02</totfact>
</mgrwt>
</event>
<event>
 4    1  0.6024609E-005  0.6360127E+03  0.7818608E-02  0.9833385E-01
          2   -1    0    0  501    0  0.00000000000E+00  0.00000000000E+00  0.11107854818E+04  0.11107854818E+04  0.25500000000E-02 0.  1.
         -2   -1    0    0    0  501 -0.00000000000E+00 -0.00000000000E+00 -0.91041902747E+02  0.91041902783E+02  0.25500000000E-02 0. -1.
    5000001    1    1    2    0    0 -0.39493878722E+01  0.25390542477E+03  0.57801539024E+03  0.65873314304E+03  0.18800000000E+03 0.  0.
   -5000001    1    1    2    0    0  0.39493878722E+01 -0.25390542477E+03  0.44172818878E+03  0.54309424150E+03  0.18800000000E+03 0.  0.
<mgrwt>
<rscale>  0 0.63601265E+03</rscale>
<asrwt>0</asrwt>
<pdfrwt beam="1">  1        2 0.15868362E+00 0.63601265E+03</pdfrwt>
<pdfrwt beam="2">  1       -2 0.13005988E-01 0.63601265E+03</pdfrwt>
<totfact> 0.10787090E+03</totfact>
</mgrwt>
</event>
<event>
 4    1  0.6024609E-005  0.1141209E+04  0.7818608E-02  0.9165932E-01
          2   -1    0    0  501    0  0.00000000000E+00  0.00000000000E+00  0.39934574666E+04  0.39934574667E+04  0.25500000000E-02 0.  1.
         -2   -1    0    0    0  501 -0.00000000000E+00 -0.00000000000E+00 -0.81530690490E+02  0.81530690530E+02  0.25500000000E-02 0. -1.
    5000001    1    1    2    0    0 -0.21004187924E+03 -0.54420609284E+02  0.19515205954E+03  0.34714193076E+03  0.18800000000E+03 0.  0.
   -5000001    1    1    2    0    0  0.21004187924E+03  0.54420609284E+02  0.37167747166E+04  0.37278462264E+04  0.18800000000E+03 0.  0.
<mgrwt>
<rscale>  0 0.11412087E+04</rscale>
<asrwt>0</asrwt>
<pdfrwt beam="1">  1        2 0.57049390E+00 0.11412087E+04</pdfrwt>
<pdfrwt beam="2">  1       -2 0.11647242E-01 0.11412087E+04</pdfrwt>
<totfact> 0.31702013E+01</totfact>
</mgrwt>
</event>
<event>
 4    1  0.6024609E-005  0.5971703E+03  0.7818608E-02  0.9911294E-01
         -2   -1    0    0    0  501 -0.00000000000E+00  0.00000000000E+00  0.18517954040E+03  0.18517954042E+03  0.25500000000E-02 0.  1.
          2   -1    0    0  501    0  0.00000000000E+00 -0.00000000000E+00 -0.48144142053E+03  0.48144142053E+03  0.25500000000E-02 0. -1.
    5000001    1    1    2    0    0  0.20483441122E+03  0.10825070045E+03 -0.16104102122E+03  0.33904802121E+03  0.18800000000E+03 0.  0.
   -5000001    1    1    2    0    0 -0.20483441122E+03 -0.10825070045E+03 -0.13522085891E+03  0.32757293974E+03  0.18800000000E+03 0.  0.
<mgrwt>
<rscale>  0 0.59717033E+03</rscale>
<asrwt>0</asrwt>
<pdfrwt beam="1">  1        2 0.68777345E-01 0.59717033E+03</pdfrwt>
<pdfrwt beam="2">  1       -2 0.26454220E-01 0.59717033E+03</pdfrwt>
<totfact> 0.90918057E+02</totfact>
</mgrwt>
</event>
<event>
 4    1  0.6024609E-005  0.4258413E+03  0.7818608E-02  0.1035182E+00
         -2   -1    0    0    0  501 -0.00000000000E+00  0.00000000000E+00  0.88298181528E+02  0.88298181565E+02  0.25500000000E-02 0. -1.
          2   -1    0    0  501    0  0.00000000000E+00 -0.00000000000E+00 -0.51343313933E+03  0.51343313934E+03  0.25500000000E-02 0.  1.
    5000001    1    1    2    0    0 -0.89252635453E+02 -0.27673172140E+02 -0.16242193393E+03  0.26543685127E+03  0.18800000000E+03 0.  0.
   -5000001    1    1    2    0    0  0.89252635453E+02  0.27673172140E+02 -0.26271302387E+03  0.33629446963E+03  0.18800000000E+03 0.  0.
<mgrwt>
<rscale>  0 0.42584134E+03</rscale>
<asrwt>0</asrwt>
<pdfrwt beam="1">  1        2 0.73347590E-01 0.42584134E+03</pdfrwt>
<pdfrwt beam="2">  1       -2 0.12614026E-01 0.42584134E+03</pdfrwt>
<totfact> 0.30156911E+03</totfact>
</mgrwt>
</event>
<event>
 4    1  0.6024609E-005  0.1043377E+04  0.7818608E-02  0.9262209E-01
          2   -1    0    0  501    0  0.00000000000E+00  0.00000000000E+00  0.90220621573E+03  0.90220621573E+03  0.25500000000E-02 0.  1.
         -2   -1    0    0    0  501 -0.00000000000E+00 -0.00000000000E+00 -0.30165913907E+03  0.30165913908E+03  0.25500000000E-02 0. -1.
    5000001    1    1    2    0    0 -0.42621819953E+03  0.18445703398E+03  0.46798782825E+03  0.68559678995E+03  0.18800000000E+03 0.  0.
   -5000001    1    1    2    0    0  0.42621819953E+03 -0.18445703398E+03  0.13255924841E+03  0.51826856487E+03  0.18800000000E+03 0.  0.
<mgrwt>
<rscale>  0 0.10433767E+04</rscale>
<asrwt>0</asrwt>
<pdfrwt beam="1">  1        2 0.12888660E+00 0.10433767E+04</pdfrwt>
<pdfrwt beam="2">  1       -2 0.43094162E-01 0.10433767E+04</pdfrwt>
<totfact> 0.16464945E+02</totfact>
</mgrwt>
</event>
<event>
 4    1  0.6024609E-005  0.5807093E+03  0.7818608E-02  0.9946257E-01
          2   -1    0    0  501    0  0.00000000000E+00  0.00000000000E+00  0.16153939457E+04  0.16153939457E+04  0.25500000000E-02 0.  1.
         -2   -1    0    0    0  501 -0.00000000000E+00 -0.00000000000E+00 -0.52189013399E+02  0.52189013461E+02  0.25500000000E-02 0. -1.
    5000001    1    1    2    0    0 -0.11999203413E+03  0.18151158225E+03  0.89708609715E+03  0.94204671245E+03  0.18800000000E+03 0.  0.
   -5000001    1    1    2    0    0  0.11999203413E+03 -0.18151158225E+03  0.66611883519E+03  0.72553624674E+03  0.18800000000E+03 0.  0.
<mgrwt>
<rscale>  0 0.58070928E+03</rscale>
<asrwt>0</asrwt>
<pdfrwt beam="1">  1        2 0.23077056E+00 0.58070928E+03</pdfrwt>
<pdfrwt beam="2">  1       -2 0.74555735E-02 0.58070928E+03</pdfrwt>
<totfact> 0.14230815E+03</totfact>
</mgrwt>
</event>
<event>
 4    1  0.6024609E-005  0.8174947E+03  0.7818608E-02  0.9535034E-01
          2   -1    0    0  501    0  0.00000000000E+00  0.00000000000E+00  0.34988907384E+03  0.34988907384E+03  0.25500000000E-02 0.  1.
         -2   -1    0    0    0  501 -0.00000000000E+00 -0.00000000000E+00 -0.47750678960E+03  0.47750678961E+03  0.25500000000E-02 0. -1.
    5000001    1    1    2    0    0  0.17044224008E+03 -0.29020215723E+03 -0.20133153974E+03  0.43490945973E+03  0.18800000000E+03 0.  0.
   -5000001    1    1    2    0    0 -0.17044224008E+03  0.29020215723E+03  0.73713823976E+02  0.39248640373E+03  0.18800000000E+03 0.  0.
<mgrwt>
<rscale>  0 0.81749473E+03</rscale>
<asrwt>0</asrwt>
<pdfrwt beam="1">  1        2 0.49984153E-01 0.81749473E+03</pdfrwt>
<pdfrwt beam="2">  1       -2 0.68215256E-01 0.81749473E+03</pdfrwt>
<totfact> 0.19890727E+02</totfact>
</mgrwt>
</event>
<event>
 4    1  0.6024609E-005  0.7886379E+03  0.7818608E-02  0.9576610E-01
          2   -1    0    0  501    0  0.00000000000E+00  0.00000000000E+00  0.21015617863E+04  0.21015617863E+04  0.25500000000E-02 0.  1.
         -2   -1    0    0    0  501 -0.00000000000E+00 -0.00000000000E+00 -0.73986618825E+02  0.73986618869E+02  0.25500000000E-02 0. -1.
    5000001    1    1    2    0    0 -0.73371733874E+02 -0.33782488499E+03  0.94430625884E+03  0.10230187558E+04  0.18800000000E+03 0.  0.
   -5000001    1    1    2    0    0  0.73371733874E+02  0.33782488499E+03  0.10832689087E+04  0.11525296494E+04  0.18800000000E+03 0.  0.
<mgrwt>
<rscale>  0 0.78863794E+03</rscale>
<asrwt>0</asrwt>
<pdfrwt beam="1">  1        2 0.30022311E+00 0.78863794E+03</pdfrwt>
<pdfrwt beam="2">  1       -2 0.10569517E-01 0.78863794E+03</pdfrwt>
<totfact> 0.45464168E+02</totfact>
</mgrwt>
</event>
<event>
 4    1  0.6024609E-005  0.1045945E+04  0.7818608E-02  0.9259541E-01
          2   -1    0    0  501    0  0.00000000000E+00  0.00000000000E+00  0.50439767011E+03  0.50439767011E+03  0.25500000000E-02 0.  1.
         -2   -1    0    0    0  501 -0.00000000000E+00 -0.00000000000E+00 -0.54223094511E+03  0.54223094511E+03  0.25500000000E-02 0. -1.
    5000001    1    1    2    0    0  0.44812034494E+03 -0.17583792530E+03  0.61293164884E+02  0.52041490331E+03  0.18800000000E+03 0.  0.
   -5000001    1    1    2    0    0 -0.44812034494E+03  0.17583792530E+03 -0.99126439884E+02  0.52621371192E+03  0.18800000000E+03 0.  0.
<mgrwt>
<rscale>  0 0.10459446E+04</rscale>
<asrwt>0</asrwt>
<pdfrwt beam="1">  1        2 0.72056810E-01 0.10459446E+04</pdfrwt>
<pdfrwt beam="2">  1       -2 0.77461564E-01 0.10459446E+04</pdfrwt>
<totfact> 0.98477053E+01</totfact>
</mgrwt>
</event>
<event>
 4    1  0.6024609E-005  0.4548815E+03  0.7818608E-02  0.1026276E+00
         -2   -1    0    0    0  501 -0.00000000000E+00  0.00000000000E+00  0.10411499916E+03  0.10411499919E+03  0.25500000000E-02 0. -1.
          2   -1    0    0  501    0  0.00000000000E+00 -0.00000000000E+00 -0.49684760395E+03  0.49684760396E+03  0.25500000000E-02 0.  1.
    5000001    1    1    2    0    0 -0.10486309962E+03  0.31300429173E+02 -0.10863913788E+03  0.24315108227E+03  0.18800000000E+03 0.  0.
   -5000001    1    1    2    0    0  0.10486309962E+03 -0.31300429173E+02 -0.28409346692E+03  0.35781152088E+03  0.18800000000E+03 0.  0.
<mgrwt>
<rscale>  0 0.45488147E+03</rscale>
<asrwt>0</asrwt>
<pdfrwt beam="1">  1        2 0.70978228E-01 0.45488147E+03</pdfrwt>
<pdfrwt beam="2">  1       -2 0.14873572E-01 0.45488147E+03</pdfrwt>
<totfact> 0.23839570E+03</totfact>
</mgrwt>
</event>
<event>
 4    1  0.6024609E-005  0.8804866E+03  0.7818608E-02  0.9450308E-01
          2   -1    0    0  501    0  0.00000000000E+00  0.00000000000E+00  0.26607010932E+04  0.26607010932E+04  0.25500000000E-02 0.  1.
         -2   -1    0    0    0  501 -0.00000000000E+00 -0.00000000000E+00 -0.72843265308E+02  0.72843265353E+02  0.25500000000E-02 0. -1.
    5000001    1    1    2    0    0 -0.68135194696E+02 -0.38029881376E+03  0.15917192431E+04  0.16486915240E+04  0.18800000000E+03 0.  0.
   -5000001    1    1    2    0    0  0.68135194696E+02  0.38029881376E+03  0.99613858484E+03  0.10848528346E+04  0.18800000000E+03 0.  0.
<mgrwt>
<rscale>  0 0.88048658E+03</rscale>
<asrwt>0</asrwt>
<pdfrwt beam="1">  1        2 0.38010022E+00 0.88048658E+03</pdfrwt>
<pdfrwt beam="2">  1       -2 0.10406179E-01 0.88048658E+03</pdfrwt>
<totfact> 0.23867249E+02</totfact>
</mgrwt>
</event>
<event>
 4    1  0.6024609E-005  0.5053266E+03  0.7818608E-02  0.1012398E+00
          2   -1    0    0  501    0  0.00000000000E+00  0.00000000000E+00  0.50681747692E+02  0.50681747757E+02  0.25500000000E-02 0. -1.
         -2   -1    0    0    0  501 -0.00000000000E+00 -0.00000000000E+00 -0.12596001245E+04  0.12596001245E+04  0.25500000000E-02 0.  1.
    5000001    1    1    2    0    0 -0.70972117422E+02 -0.52047346339E+02 -0.23096077974E+03  0.31053638996E+03  0.18800000000E+03 0.  0.
   -5000001    1    1    2    0    0  0.70972117422E+02  0.52047346339E+02 -0.97795759706E+03  0.99974548229E+03  0.18800000000E+03 0.  0.
<mgrwt>
<rscale>  0 0.50532657E+03</rscale>
<asrwt>0</asrwt>
<pdfrwt beam="1">  1        2 0.72402505E-02 0.50532657E+03</pdfrwt>
<pdfrwt beam="2">  1       -2 0.17994286E+00 0.50532657E+03</pdfrwt>
<totfact> 0.18745885E+02</totfact>
</mgrwt>
</event>
<event>
 4    1  0.6024609E-005  0.6740573E+03  0.7818608E-02  0.9762656E-01
         -2   -1    0    0    0  501 -0.00000000000E+00  0.00000000000E+00  0.10374762582E+03  0.10374762585E+03  0.25500000000E-02 0. -1.
          2   -1    0    0  501    0  0.00000000000E+00 -0.00000000000E+00 -0.10948520578E+04  0.10948520578E+04  0.25500000000E-02 0.  1.
    5000001    1    1    2    0    0  0.74331619142E+02  0.16568127904E+03 -0.87388761237E+03  0.91213981104E+03  0.18800000000E+03 0.  0.
   -5000001    1    1    2    0    0 -0.74331619142E+02 -0.16568127904E+03 -0.11721681965E+03  0.28645987265E+03  0.18800000000E+03 0.  0.
<mgrwt>
<rscale>  0 0.67405727E+03</rscale>
<asrwt>0</asrwt>
<pdfrwt beam="1">  1        2 0.15640743E+00 0.67405727E+03</pdfrwt>
<pdfrwt beam="2">  1       -2 0.14821090E-01 0.67405727E+03</pdfrwt>
<totfact> 0.88463692E+02</totfact>
</mgrwt>
</event>
<event>
 4    1  0.6024609E-005  0.5722721E+03  0.7818608E-02  0.9964663E-01
         -2   -1    0    0    0  501 -0.00000000000E+00  0.00000000000E+00  0.14797629583E+03  0.14797629585E+03  0.25500000000E-02 0. -1.
          2   -1    0    0  501    0  0.00000000000E+00 -0.00000000000E+00 -0.55329026306E+03  0.55329026307E+03  0.25500000000E-02 0.  1.
    5000001    1    1    2    0    0  0.14856910745E+02  0.14488927625E+03 -0.39763242792E+03  0.46332405280E+03  0.18800000000E+03 0.  0.
   -5000001    1    1    2    0    0 -0.14856910745E+02 -0.14488927625E+03 -0.76815393086E+01  0.23794250611E+03  0.18800000000E+03 0.  0.
<mgrwt>
<rscale>  0 0.57227212E+03</rscale>
<asrwt>0</asrwt>
<pdfrwt beam="1">  1        2 0.79041465E-01 0.57227212E+03</pdfrwt>
<pdfrwt beam="2">  1       -2 0.21139471E-01 0.57227212E+03</pdfrwt>
<totfact> 0.11564771E+03</totfact>
</mgrwt>
</event>
<event>
 4    1  0.6024609E-005  0.4688944E+03  0.7818608E-02  0.1022233E+00
          2   -1    0    0  501    0  0.00000000000E+00  0.00000000000E+00  0.15385771282E+03  0.15385771284E+03  0.25500000000E-02 0.  1.
         -2   -1    0    0    0  501 -0.00000000000E+00 -0.00000000000E+00 -0.35724881871E+03  0.35724881871E+03  0.25500000000E-02 0. -1.
    5000001    1    1    2    0    0  0.10745509055E+03  0.83514816266E+02 -0.65540804979E+02  0.24116574827E+03  0.18800000000E+03 0.  0.
   -5000001    1    1    2    0    0 -0.10745509055E+03 -0.83514816266E+02 -0.13785030091E+03  0.26994078329E+03  0.18800000000E+03 0.  0.
<mgrwt>
<rscale>  0 0.46889439E+03</rscale>
<asrwt>0</asrwt>
<pdfrwt beam="1">  1        2 0.21979673E-01 0.46889439E+03</pdfrwt>
<pdfrwt beam="2">  1       -2 0.51035545E-01 0.46889439E+03</pdfrwt>
<totfact> 0.92540852E+02</totfact>
</mgrwt>
</event>
<event>
 4    1  0.6024609E-005  0.4517146E+03  0.7818608E-02  0.1027212E+00
         -2   -1    0    0    0  501 -0.00000000000E+00  0.00000000000E+00  0.20425959179E+02  0.20425959338E+02  0.25500000000E-02 0. -1.
          2   -1    0    0  501    0  0.00000000000E+00 -0.00000000000E+00 -0.24973867983E+04  0.24973867983E+04  0.25500000000E-02 0.  1.
    5000001    1    1    2    0    0  0.64994009114E+02 -0.79079949760E+02 -0.83694042758E+03  0.86388143805E+03  0.18800000000E+03 0.  0.
   -5000001    1    1    2    0    0 -0.64994009114E+02  0.79079949760E+02 -0.16400204116E+04  0.16539313196E+04  0.18800000000E+03 0.  0.
<mgrwt>
<rscale>  0 0.45171460E+03</rscale>
<asrwt>0</asrwt>
<pdfrwt beam="1">  1        2 0.35676935E+00 0.45171460E+03</pdfrwt>
<pdfrwt beam="2">  1       -2 0.29179958E-02 0.45171460E+03</pdfrwt>
<totfact> 0.21919838E+03</totfact>
</mgrwt>
</event>
<event>
 4    1  0.6024609E-005  0.4494729E+03  0.7818608E-02  0.1027879E+00
         -2   -1    0    0    0  501 -0.00000000000E+00  0.00000000000E+00  0.22653215758E+03  0.22653215759E+03  0.25500000000E-02 0. -1.
          2   -1    0    0  501    0  0.00000000000E+00 -0.00000000000E+00 -0.22295493472E+03  0.22295493474E+03  0.25500000000E-02 0.  1.
    5000001    1    1    2    0    0 -0.76374365893E+02 -0.26549933499E+02 -0.91082621809E+02  0.22400443462E+03  0.18800000000E+03 0.  0.
   -5000001    1    1    2    0    0  0.76374365893E+02  0.26549933499E+02  0.94659844667E+02  0.22548265771E+03  0.18800000000E+03 0.  0.
<mgrwt>
<rscale>  0 0.44947286E+03</rscale>
<asrwt>0</asrwt>
<pdfrwt beam="1">  1        2 0.31850705E-01 0.44947286E+03</pdfrwt>
<pdfrwt beam="2">  1       -2 0.32361737E-01 0.44947286E+03</pdfrwt>
<totfact> 0.14717834E+03</totfact>
</mgrwt>
</event>
<event>
 4    1  0.6024609E-005  0.5263743E+03  0.7818608E-02  0.1007115E+00
          2   -1    0    0  501    0  0.00000000000E+00  0.00000000000E+00  0.46700288145E+03  0.46700288146E+03  0.25500000000E-02 0.  1.
         -2   -1    0    0    0  501 -0.00000000000E+00 -0.00000000000E+00 -0.14832341986E+03  0.14832341988E+03  0.25500000000E-02 0. -1.
    5000001    1    1    2    0    0 -0.13798259443E+03 -0.62898176306E+02  0.28154302694E+03  0.37095262901E+03  0.18800000000E+03 0.  0.
   -5000001    1    1    2    0    0  0.13798259443E+03  0.62898176306E+02  0.37136434653E+02  0.24437367233E+03  0.18800000000E+03 0.  0.
<mgrwt>
<rscale>  0 0.52637426E+03</rscale>
<asrwt>0</asrwt>
<pdfrwt beam="1">  1        2 0.66714697E-01 0.52637426E+03</pdfrwt>
<pdfrwt beam="2">  1       -2 0.21189060E-01 0.52637426E+03</pdfrwt>
<totfact> 0.13971131E+03</totfact>
</mgrwt>
</event>
<event>
 4    1  0.6024609E-005  0.5570913E+03  0.7818608E-02  0.9998658E-01
         -2   -1    0    0    0  501 -0.00000000000E+00  0.00000000000E+00  0.33007399248E+03  0.33007399249E+03  0.25500000000E-02 0. -1.
          2   -1    0    0  501    0  0.00000000000E+00 -0.00000000000E+00 -0.23506144241E+03  0.23506144242E+03  0.25500000000E-02 0.  1.
    5000001    1    1    2    0    0 -0.15301870616E+03  0.21952993811E+02  0.18491327117E+03  0.30566906325E+03  0.18800000000E+03 0.  0.
   -5000001    1    1    2    0    0  0.15301870616E+03 -0.21952993811E+02 -0.89900721097E+02  0.25946637167E+03  0.18800000000E+03 0.  0.
<mgrwt>
<rscale>  0 0.55709126E+03</rscale>
<asrwt>0</asrwt>
<pdfrwt beam="1">  1        2 0.33580206E-01 0.55709126E+03</pdfrwt>
<pdfrwt beam="2">  1       -2 0.47153427E-01 0.55709126E+03</pdfrwt>
<totfact> 0.67199045E+02</totfact>
</mgrwt>
</event>
<event>
 4    1  0.6024609E-005  0.5626713E+03  0.7818608E-02  0.9986028E-01
          2   -1    0    0  501    0  0.00000000000E+00  0.00000000000E+00  0.18689920042E+04  0.18689920042E+04  0.25500000000E-02 0.  1.
         -2   -1    0    0    0  501 -0.00000000000E+00 -0.00000000000E+00 -0.42348896930E+02  0.42348897007E+02  0.25500000000E-02 0. -1.
    5000001    1    1    2    0    0  0.13097886269E+02 -0.20881769565E+03  0.89491384475E+03  0.93807844777E+03  0.18800000000E+03 0.  0.
   -5000001    1    1    2    0    0 -0.13097886269E+02  0.20881769565E+03  0.93172926254E+03  0.97326245346E+03  0.18800000000E+03 0.  0.
<mgrwt>
<rscale>  0 0.56267131E+03</rscale>
<asrwt>0</asrwt>
<pdfrwt beam="1">  1        2 0.26699885E+00 0.56267131E+03</pdfrwt>
<pdfrwt beam="2">  1       -2 0.60498427E-02 0.56267131E+03</pdfrwt>
<totfact> 0.14723253E+03</totfact>
</mgrwt>
</event>
<event>
 4    1  0.6024609E-005  0.6079210E+03  0.7818608E-02  0.9889107E-01
         -2   -1    0    0    0  501 -0.00000000000E+00  0.00000000000E+00  0.71369127901E+02  0.71369127947E+02  0.25500000000E-02 0. -1.
          2   -1    0    0  501    0  0.00000000000E+00 -0.00000000000E+00 -0.12945652314E+04  0.12945652314E+04  0.25500000000E-02 0.  1.
    5000001    1    1    2    0    0 -0.13995994398E+03 -0.17558612873E+03 -0.79453330731E+03  0.84678595345E+03  0.18800000000E+03 0.  0.
   -5000001    1    1    2    0    0  0.13995994398E+03  0.17558612873E+03 -0.42866279621E+03  0.51914840593E+03  0.18800000000E+03 0.  0.
<mgrwt>
<rscale>  0 0.60792102E+03</rscale>
<asrwt>0</asrwt>
<pdfrwt beam="1">  1        2 0.18493788E+00 0.60792102E+03</pdfrwt>
<pdfrwt beam="2">  1       -2 0.10195591E-01 0.60792102E+03</pdfrwt>
<totfact> 0.12696354E+03</totfact>
</mgrwt>
</event>
<event>
 4    1  0.6024609E-005  0.4368455E+03  0.7818608E-02  0.1031719E+00
         -2   -1    0    0    0  501 -0.00000000000E+00  0.00000000000E+00  0.31987237466E+02  0.31987237568E+02  0.25500000000E-02 0. -1.
          2   -1    0    0  501    0  0.00000000000E+00 -0.00000000000E+00 -0.14914854249E+04  0.14914854249E+04  0.25500000000E-02 0.  1.
    5000001    1    1    2    0    0 -0.89838181873E+02  0.63920344038E+02 -0.67947800141E+03  0.71357624939E+03  0.18800000000E+03 0.  0.
   -5000001    1    1    2    0    0  0.89838181873E+02 -0.63920344038E+02 -0.78002018605E+03  0.80989641310E+03  0.18800000000E+03 0.  0.
<mgrwt>
<rscale>  0 0.43684550E+03</rscale>
<asrwt>0</asrwt>
<pdfrwt beam="1">  1        2 0.21306930E+00 0.43684550E+03</pdfrwt>
<pdfrwt beam="2">  1       -2 0.45696063E-02 0.43684550E+03</pdfrwt>
<totfact> 0.35446098E+03</totfact>
</mgrwt>
</event>
<event>
 4    1  0.6024609E-005  0.4033614E+03  0.7818608E-02  0.1042622E+00
         -2   -1    0    0    0  501 -0.00000000000E+00  0.00000000000E+00  0.13713775882E+04  0.13713775882E+04  0.25500000000E-02 0. -1.
          2   -1    0    0  501    0  0.00000000000E+00 -0.00000000000E+00 -0.29660025953E+02  0.29660026062E+02  0.25500000000E-02 0.  1.
    5000001    1    1    2    0    0 -0.25253647064E+02 -0.63961175060E+02  0.58561399398E+03  0.61888329154E+03  0.18800000000E+03 0.  0.
   -5000001    1    1    2    0    0  0.25253647064E+02  0.63961175060E+02  0.75610356823E+03  0.78215432268E+03  0.18800000000E+03 0.  0.
<mgrwt>
<rscale>  0 0.40336135E+03</rscale>
<asrwt>0</asrwt>
<pdfrwt beam="1">  1        2 0.42371466E-02 0.40336135E+03</pdfrwt>
<pdfrwt beam="2">  1       -2 0.19591108E+00 0.40336135E+03</pdfrwt>
<totfact> 0.30067812E+02</totfact>
</mgrwt>
</event>
<event>
 4    1  0.6024609E-005  0.4831481E+03  0.7818608E-02  0.1018274E+00
         -2   -1    0    0    0  501 -0.00000000000E+00  0.00000000000E+00  0.16484435642E+04  0.16484435642E+04  0.25500000000E-02 0. -1.
          2   -1    0    0  501    0  0.00000000000E+00 -0.00000000000E+00 -0.35401899199E+02  0.35401899290E+02  0.25500000000E-02 0.  1.
    5000001    1    1    2    0    0 -0.68591162569E+02 -0.13375469075E+03  0.87785742953E+03  0.91025970550E+03  0.18800000000E+03 0.  0.
   -5000001    1    1    2    0    0  0.68591162569E+02  0.13375469075E+03  0.73518423551E+03  0.77358575803E+03  0.18800000000E+03 0.  0.
<mgrwt>
<rscale>  0 0.48314815E+03</rscale>
<asrwt>0</asrwt>
<pdfrwt beam="1">  1        2 0.50574156E-02 0.48314815E+03</pdfrwt>
<pdfrwt beam="2">  1       -2 0.23549187E+00 0.48314815E+03</pdfrwt>
<totfact> 0.13386496E+02</totfact>
</mgrwt>
</event>
<event>
 4    1  0.6024609E-005  0.5685446E+03  0.7818608E-02  0.9972904E-01
          2   -1    0    0  501    0  0.00000000000E+00  0.00000000000E+00  0.14657996178E+04  0.14657996178E+04  0.25500000000E-02 0.  1.
         -2   -1    0    0    0  501 -0.00000000000E+00 -0.00000000000E+00 -0.55130817168E+02  0.55130817227E+02  0.25500000000E-02 0. -1.
    5000001    1    1    2    0    0  0.16879553343E+03 -0.10754290606E+03  0.90208508678E+03  0.94295223237E+03  0.18800000000E+03 0.  0.
   -5000001    1    1    2    0    0 -0.16879553343E+03  0.10754290606E+03  0.50858371387E+03  0.57797820267E+03  0.18800000000E+03 0.  0.
<mgrwt>
<rscale>  0 0.56854457E+03</rscale>
<asrwt>0</asrwt>
<pdfrwt beam="1">  1        2 0.20939998E+00 0.56854457E+03</pdfrwt>
<pdfrwt beam="2">  1       -2 0.78758299E-02 0.56854457E+03</pdfrwt>
<totfact> 0.15595429E+03</totfact>
</mgrwt>
</event>
<event>
 4    1  0.6024609E-005  0.8371836E+03  0.7818608E-02  0.9507702E-01
         -2   -1    0    0    0  501 -0.00000000000E+00  0.00000000000E+00  0.22486495030E+03  0.22486495031E+03  0.25500000000E-02 0.  1.
          2   -1    0    0  501    0  0.00000000000E+00 -0.00000000000E+00 -0.77921920709E+03  0.77921920710E+03  0.25500000000E-02 0. -1.
    5000001    1    1    2    0    0 -0.28588137958E+03  0.23903559975E+03 -0.31527274521E+03  0.52307464574E+03  0.18800000000E+03 0.  0.
   -5000001    1    1    2    0    0  0.28588137958E+03 -0.23903559975E+03 -0.23908151158E+03  0.48100951167E+03  0.18800000000E+03 0.  0.
<mgrwt>
<rscale>  0 0.83718358E+03</rscale>
<asrwt>0</asrwt>
<pdfrwt beam="1">  1        2 0.11131703E+00 0.83718358E+03</pdfrwt>
<pdfrwt beam="2">  1       -2 0.32123565E-01 0.83718358E+03</pdfrwt>
<totfact> 0.35532917E+02</totfact>
</mgrwt>
</event>
<event>
 4    1  0.6024609E-005  0.7400957E+03  0.7818608E-02  0.9651018E-01
          2   -1    0    0  501    0  0.00000000000E+00  0.00000000000E+00  0.20749298380E+04  0.20749298380E+04  0.25500000000E-02 0.  1.
         -2   -1    0    0    0  501 -0.00000000000E+00 -0.00000000000E+00 -0.65995198996E+02  0.65995199046E+02  0.25500000000E-02 0. -1.
    5000001    1    1    2    0    0  0.30999645885E+03  0.72543691351E+02  0.96049953496E+03  0.10292053966E+04  0.18800000000E+03 0.  0.
   -5000001    1    1    2    0    0 -0.30999645885E+03 -0.72543691351E+02  0.10484351041E+04  0.11117196405E+04  0.18800000000E+03 0.  0.
<mgrwt>
<rscale>  0 0.74009569E+03</rscale>
<asrwt>0</asrwt>
<pdfrwt beam="1">  1        2 0.29641858E+00 0.74009569E+03</pdfrwt>
<pdfrwt beam="2">  1       -2 0.94278844E-02 0.74009569E+03</pdfrwt>
<totfact> 0.56672916E+02</totfact>
</mgrwt>
</event>
<event>
 4    1  0.6024609E-005  0.5372661E+03  0.7818608E-02  0.1004485E+00
         -2   -1    0    0    0  501 -0.00000000000E+00  0.00000000000E+00  0.60217031811E+02  0.60217031865E+02  0.25500000000E-02 0. -1.
          2   -1    0    0  501    0  0.00000000000E+00 -0.00000000000E+00 -0.11983936025E+04  0.11983936025E+04  0.25500000000E-02 0.  1.
    5000001    1    1    2    0    0  0.18416533836E+03  0.53091295395E+02 -0.54759887719E+03  0.60987218972E+03  0.18800000000E+03 0.  0.
   -5000001    1    1    2    0    0 -0.18416533836E+03 -0.53091295395E+02 -0.59057769351E+03  0.64873844466E+03  0.18800000000E+03 0.  0.
<mgrwt>
<rscale>  0 0.53726606E+03</rscale>
<asrwt>0</asrwt>
<pdfrwt beam="1">  1        2 0.17119907E+00 0.53726606E+03</pdfrwt>
<pdfrwt beam="2">  1       -2 0.86024338E-02 0.53726606E+03</pdfrwt>
<totfact> 0.18892960E+03</totfact>
</mgrwt>
</event>
<event>
 4    1  0.6024609E-005  0.5911853E+03  0.7818608E-02  0.9923864E-01
         -2   -1    0    0    0  501 -0.00000000000E+00  0.00000000000E+00  0.71449780573E+02  0.71449780619E+02  0.25500000000E-02 0. -1.
          2   -1    0    0  501    0  0.00000000000E+00 -0.00000000000E+00 -0.12228870962E+04  0.12228870962E+04  0.25500000000E-02 0.  1.
    5000001    1    1    2    0    0  0.15578317376E+03 -0.15105536246E+03 -0.42176066740E+03  0.51020797752E+03  0.18800000000E+03 0.  0.
   -5000001    1    1    2    0    0 -0.15578317376E+03  0.15105536246E+03 -0.72967664818E+03  0.78412889926E+03  0.18800000000E+03 0.  0.
<mgrwt>
<rscale>  0 0.59118530E+03</rscale>
<asrwt>0</asrwt>
<pdfrwt beam="1">  1        2 0.17469814E+00 0.59118530E+03</pdfrwt>
<pdfrwt beam="2">  1       -2 0.10207112E-01 0.59118530E+03</pdfrwt>
<totfact> 0.13884509E+03</totfact>
</mgrwt>
</event>
<event>
 4    1  0.6024609E-005  0.5209688E+03  0.7818608E-02  0.1008446E+00
          2   -1    0    0  501    0  0.00000000000E+00  0.00000000000E+00  0.10276912191E+03  0.10276912194E+03  0.25500000000E-02 0.  1.
         -2   -1    0    0    0  501 -0.00000000000E+00 -0.00000000000E+00 -0.66023833300E+03  0.66023833301E+03  0.25500000000E-02 0. -1.
    5000001    1    1    2    0    0  0.14766396882E+03 -0.64751236281E+02 -0.16055776186E+03  0.29516125285E+03  0.18800000000E+03 0.  0.
   -5000001    1    1    2    0    0 -0.14766396882E+03  0.64751236281E+02 -0.39691144923E+03  0.46784620210E+03  0.18800000000E+03 0.  0.
<mgrwt>
<rscale>  0 0.52096877E+03</rscale>
<asrwt>0</asrwt>
<pdfrwt beam="1">  1        2 0.14681304E-01 0.52096877E+03</pdfrwt>
<pdfrwt beam="2">  1       -2 0.94319759E-01 0.52096877E+03</pdfrwt>
<totfact> 0.39423942E+02</totfact>
</mgrwt>
</event>
<event>
 4    1  0.6024609E-005  0.6860200E+03  0.7818608E-02  0.9741443E-01
          2   -1    0    0  501    0  0.00000000000E+00  0.00000000000E+00  0.22910788071E+04  0.22910788071E+04  0.25500000000E-02 0.  1.
         -2   -1    0    0    0  501 -0.00000000000E+00 -0.00000000000E+00 -0.51353912157E+02  0.51353912220E+02  0.25500000000E-02 0. -1.
    5000001    1    1    2    0    0 -0.78420400216E+02 -0.21028877788E+03  0.17301053989E+04  0.17547022029E+04  0.18800000000E+03 0.  0.
   -5000001    1    1    2    0    0  0.78420400216E+02  0.21028877788E+03  0.50961949599E+03  0.58773051645E+03  0.18800000000E+03 0.  0.
<mgrwt>
<rscale>  0 0.68602000E+03</rscale>
<asrwt>0</asrwt>
<pdfrwt beam="1">  1        2 0.32729693E+00 0.68602000E+03</pdfrwt>
<pdfrwt beam="2">  1       -2 0.73362741E-02 0.68602000E+03</pdfrwt>
<totfact> 0.66102679E+02</totfact>
</mgrwt>
</event>
<event>
 4    1  0.6024609E-005  0.6411030E+03  0.7818608E-02  0.9823618E-01
         -2   -1    0    0    0  501 -0.00000000000E+00  0.00000000000E+00  0.25516665784E+02  0.25516665912E+02  0.25500000000E-02 0. -1.
          2   -1    0    0  501    0  0.00000000000E+00 -0.00000000000E+00 -0.40269079866E+04  0.40269079866E+04  0.25500000000E-02 0.  1.
    5000001    1    1    2    0    0  0.23728029467E+03  0.93565620709E+02 -0.23073010722E+04  0.23289565692E+04  0.18800000000E+03 0.  0.
   -5000001    1    1    2    0    0 -0.23728029467E+03 -0.93565620709E+02 -0.16940902487E+04  0.17234680833E+04  0.18800000000E+03 0.  0.
<mgrwt>
<rscale>  0 0.64110300E+03</rscale>
<asrwt>0</asrwt>
<pdfrwt beam="1">  1        2 0.57527217E+00 0.64110300E+03</pdfrwt>
<pdfrwt beam="2">  1       -2 0.36452405E-02 0.64110300E+03</pdfrwt>
<totfact> 0.20285880E+02</totfact>
</mgrwt>
</event>
<event>
 4    1  0.6024609E-005  0.6256437E+03  0.7818608E-02  0.9853587E-01
         -2   -1    0    0    0  501 -0.00000000000E+00  0.00000000000E+00  0.78998652547E+03  0.78998652547E+03  0.25500000000E-02 0. -1.
          2   -1    0    0  501    0  0.00000000000E+00 -0.00000000000E+00 -0.12387238560E+03  0.12387238563E+03  0.25500000000E-02 0.  1.
    5000001    1    1    2    0    0  0.19619100611E+03  0.15455288835E+03  0.35009184620E+03  0.46934614833E+03  0.18800000000E+03 0.  0.
   -5000001    1    1    2    0    0 -0.19619100611E+03 -0.15455288835E+03  0.31602229366E+03  0.44451276277E+03  0.18800000000E+03 0.  0.
<mgrwt>
<rscale>  0 0.62564372E+03</rscale>
<asrwt>0</asrwt>
<pdfrwt beam="1">  1        2 0.17696054E-01 0.62564372E+03</pdfrwt>
<pdfrwt beam="2">  1       -2 0.11285522E+00 0.62564372E+03</pdfrwt>
<totfact> 0.20530694E+02</totfact>
</mgrwt>
</event>
<event>
 4    1  0.6024609E-005  0.6294916E+03  0.7818608E-02  0.9846041E-01
          2   -1    0    0  501    0  0.00000000000E+00  0.00000000000E+00  0.86187619645E+03  0.86187619645E+03  0.25500000000E-02 0.  1.
         -2   -1    0    0    0  501 -0.00000000000E+00 -0.00000000000E+00 -0.11494102559E+03  0.11494102562E+03  0.25500000000E-02 0. -1.
    5000001    1    1    2    0    0  0.73683617825E+02 -0.17843697527E+03  0.62584576673E+03  0.68139265730E+03  0.18800000000E+03 0.  0.
   -5000001    1    1    2    0    0 -0.73683617825E+02  0.17843697527E+03  0.12108940413E+03  0.29542456477E+03  0.18800000000E+03 0.  0.
<mgrwt>
<rscale>  0 0.62949165E+03</rscale>
<asrwt>0</asrwt>
<pdfrwt beam="1">  1        2 0.12312517E+00 0.62949165E+03</pdfrwt>
<pdfrwt beam="2">  1       -2 0.16420147E-01 0.62949165E+03</pdfrwt>
<totfact> 0.10385894E+03</totfact>
</mgrwt>
</event>
<event>
 4    1  0.6024609E-005  0.6911802E+03  0.7818608E-02  0.9732435E-01
          2   -1    0    0  501    0  0.00000000000E+00  0.00000000000E+00  0.38121625871E+03  0.38121625872E+03  0.25500000000E-02 0. -1.
         -2   -1    0    0    0  501 -0.00000000000E+00 -0.00000000000E+00 -0.31329338203E+03  0.31329338204E+03  0.25500000000E-02 0.  1.
    5000001    1    1    2    0    0  0.26840903233E+03 -0.42130294813E+02  0.13579140058E+03  0.35721376632E+03  0.18800000000E+03 0.  0.
   -5000001    1    1    2    0    0 -0.26840903233E+03  0.42130294813E+02 -0.67868523900E+02  0.33729587444E+03  0.18800000000E+03 0.  0.
<mgrwt>
<rscale>  0 0.69118024E+03</rscale>
<asrwt>0</asrwt>
<pdfrwt beam="1">  1        2 0.54459465E-01 0.69118024E+03</pdfrwt>
<pdfrwt beam="2">  1       -2 0.44756198E-01 0.69118024E+03</pdfrwt>
<totfact> 0.43536241E+02</totfact>
</mgrwt>
</event>
<event>
 4    1  0.6024609E-005  0.5602023E+03  0.7818608E-02  0.9991597E-01
         -2   -1    0    0    0  501 -0.00000000000E+00  0.00000000000E+00  0.31855097456E+02  0.31855097558E+02  0.25500000000E-02 0. -1.
          2   -1    0    0  501    0  0.00000000000E+00 -0.00000000000E+00 -0.24629232867E+04  0.24629232867E+04  0.25500000000E-02 0.  1.
    5000001    1    1    2    0    0 -0.19818473217E+03 -0.51078700889E+02 -0.13714929956E+04  0.13993653057E+04  0.18800000000E+03 0.  0.
   -5000001    1    1    2    0    0  0.19818473217E+03  0.51078700889E+02 -0.10595751937E+04  0.10954130786E+04  0.18800000000E+03 0.  0.
<mgrwt>
<rscale>  0 0.56020233E+03</rscale>
<asrwt>0</asrwt>
<pdfrwt beam="1">  1        2 0.35184606E+00 0.56020233E+03</pdfrwt>
<pdfrwt beam="2">  1       -2 0.45507298E-02 0.56020233E+03</pdfrwt>
<totfact> 0.11509587E+03</totfact>
</mgrwt>
</event>
<event>
 4    1  0.6024609E-005  0.6925885E+03  0.7818608E-02  0.9729991E-01
          2   -1    0    0  501    0  0.00000000000E+00  0.00000000000E+00  0.41126277181E+03  0.41126277181E+03  0.25500000000E-02 0.  1.
         -2   -1    0    0    0  501 -0.00000000000E+00 -0.00000000000E+00 -0.29158903457E+03  0.29158903458E+03  0.25500000000E-02 0. -1.
    5000001    1    1    2    0    0 -0.15128191149E+03  0.16806858457E+03 -0.12574584105E+03  0.31982695697E+03  0.18800000000E+03 0.  0.
   -5000001    1    1    2    0    0  0.15128191149E+03 -0.16806858457E+03  0.24541957829E+03  0.38302484942E+03  0.18800000000E+03 0.  0.
<mgrwt>
<rscale>  0 0.69258852E+03</rscale>
<asrwt>0</asrwt>
<pdfrwt beam="1">  1        2 0.58751825E-01 0.69258852E+03</pdfrwt>
<pdfrwt beam="2">  1       -2 0.41655576E-01 0.69258852E+03</pdfrwt>
<totfact> 0.46091052E+02</totfact>
</mgrwt>
</event>
<event>
 4    1  0.6024609E-005  0.6170868E+03  0.7818608E-02  0.9870577E-01
         -2   -1    0    0    0  501 -0.00000000000E+00  0.00000000000E+00  0.16156875284E+03  0.16156875286E+03  0.25500000000E-02 0. -1.
          2   -1    0    0  501    0  0.00000000000E+00 -0.00000000000E+00 -0.58921678140E+03  0.58921678141E+03  0.25500000000E-02 0.  1.
    5000001    1    1    2    0    0 -0.62581380989E+02  0.23639779869E+03 -0.22282007496E+03  0.38051693035E+03  0.18800000000E+03 0.  0.
   -5000001    1    1    2    0    0  0.62581380989E+02 -0.23639779869E+03 -0.20482795360E+03  0.37026860392E+03  0.18800000000E+03 0.  0.
<mgrwt>
<rscale>  0 0.61708677E+03</rscale>
<asrwt>0</asrwt>
<pdfrwt beam="1">  1        2 0.84173825E-01 0.61708677E+03</pdfrwt>
<pdfrwt beam="2">  1       -2 0.23081251E-01 0.61708677E+03</pdfrwt>
<totfact> 0.91993988E+02</totfact>
</mgrwt>
</event>
<event>
 4    1  0.6024609E-005  0.5630029E+03  0.7818608E-02  0.9985283E-01
         -2   -1    0    0    0  501 -0.00000000000E+00  0.00000000000E+00  0.22188675476E+03  0.22188675478E+03  0.25500000000E-02 0. -1.
          2   -1    0    0  501    0  0.00000000000E+00 -0.00000000000E+00 -0.35713286934E+03  0.35713286935E+03  0.25500000000E-02 0.  1.
    5000001    1    1    2    0    0  0.11461440621E+03  0.17267317422E+03 -0.35981475741E+02  0.28211904190E+03  0.18800000000E+03 0.  0.
   -5000001    1    1    2    0    0 -0.11461440621E+03 -0.17267317422E+03 -0.99264638838E+02  0.29690058223E+03  0.18800000000E+03 0.  0.
<mgrwt>
<rscale>  0 0.56300285E+03</rscale>
<asrwt>0</asrwt>
<pdfrwt beam="1">  1        2 0.51018981E-01 0.56300285E+03</pdfrwt>
<pdfrwt beam="2">  1       -2 0.31698108E-01 0.56300285E+03</pdfrwt>
<totfact> 0.91037906E+02</totfact>
</mgrwt>
</event>
<event>
 4    1  0.6024609E-005  0.5134418E+03  0.7818608E-02  0.1010329E+00
         -2   -1    0    0    0  501 -0.00000000000E+00  0.00000000000E+00  0.34374723652E+02  0.34374723746E+02  0.25500000000E-02 0. -1.
          2   -1    0    0  501    0  0.00000000000E+00 -0.00000000000E+00 -0.19172694974E+04  0.19172694974E+04  0.25500000000E-02 0.  1.
    5000001    1    1    2    0    0 -0.16874744753E+03 -0.25228531564E+02 -0.10861605363E+04  0.11154375332E+04  0.18800000000E+03 0.  0.
   -5000001    1    1    2    0    0  0.16874744753E+03  0.25228531564E+02 -0.79673423746E+03  0.83620668796E+03  0.18800000000E+03 0.  0.
<mgrwt>
<rscale>  0 0.51344176E+03</rscale>
<asrwt>0</asrwt>
<pdfrwt beam="1">  1        2 0.27389558E+00 0.51344176E+03</pdfrwt>
<pdfrwt beam="2">  1       -2 0.49106760E-02 0.51344176E+03</pdfrwt>
<totfact> 0.19299367E+03</totfact>
</mgrwt>
</event>
<event>
 4    1  0.6024609E-005  0.6829031E+03  0.7818608E-02  0.9746925E-01
          2   -1    0    0  501    0  0.00000000000E+00  0.00000000000E+00  0.19422788590E+04  0.19422788590E+04  0.25500000000E-02 0.  1.
         -2   -1    0    0    0  501 -0.00000000000E+00 -0.00000000000E+00 -0.60027001533E+02  0.60027001587E+02  0.25500000000E-02 0. -1.
    5000001    1    1    2    0    0 -0.21303111871E+03 -0.52084721853E+02  0.14749691466E+04  0.15029880436E+04  0.18800000000E+03 0.  0.
   -5000001    1    1    2    0    0  0.21303111871E+03  0.52084721853E+02  0.40728271089E+03  0.49931781701E+03  0.18800000000E+03 0.  0.
<mgrwt>
<rscale>  0 0.68290314E+03</rscale>
<asrwt>0</asrwt>
<pdfrwt beam="1">  1        2 0.27746837E+00 0.68290314E+03</pdfrwt>
<pdfrwt beam="2">  1       -2 0.85752871E-02 0.68290314E+03</pdfrwt>
<totfact> 0.77322889E+02</totfact>
</mgrwt>
</event>
<event>
 4    1  0.6024609E-005  0.6947663E+03  0.7818608E-02  0.9726225E-01
         -2   -1    0    0    0  501 -0.00000000000E+00  0.00000000000E+00  0.53354228214E+02  0.53354228275E+02  0.25500000000E-02 0. -1.
          2   -1    0    0  501    0  0.00000000000E+00 -0.00000000000E+00 -0.22617708596E+04  0.22617708596E+04  0.25500000000E-02 0.  1.
    5000001    1    1    2    0    0 -0.65895110041E+01  0.27254159108E+03 -0.14538343179E+04  0.14910736282E+04  0.18800000000E+03 0.  0.
   -5000001    1    1    2    0    0  0.65895110041E+01 -0.27254159108E+03 -0.75458231345E+03  0.82405145974E+03  0.18800000000E+03 0.  0.
<mgrwt>
<rscale>  0 0.69476626E+03</rscale>
<asrwt>0</asrwt>
<pdfrwt beam="1">  1        2 0.32311006E+00 0.69476626E+03</pdfrwt>
<pdfrwt beam="2">  1       -2 0.76220340E-02 0.69476626E+03</pdfrwt>
<totfact> 0.64331472E+02</totfact>
</mgrwt>
</event>
<event>
 4    1  0.6024609E-005  0.1042396E+04  0.7818608E-02  0.9263230E-01
         -2   -1    0    0    0  501 -0.00000000000E+00  0.00000000000E+00  0.92948533239E+02  0.92948533274E+02  0.25500000000E-02 0. -1.
          2   -1    0    0  501    0  0.00000000000E+00 -0.00000000000E+00 -0.29225566782E+04  0.29225566782E+04  0.25500000000E-02 0.  1.
    5000001    1    1    2    0    0 -0.50079271167E+01 -0.46332467984E+03 -0.98955846100E+03  0.11087221410E+04  0.18800000000E+03 0.  0.
   -5000001    1    1    2    0    0  0.50079271167E+01  0.46332467984E+03 -0.18400496839E+04  0.19067830704E+04  0.18800000000E+03 0.  0.
<mgrwt>
<rscale>  0 0.10423960E+04</rscale>
<asrwt>0</asrwt>
<pdfrwt beam="1">  1        2 0.41750804E+00 0.10423960E+04</pdfrwt>
<pdfrwt beam="2">  1       -2 0.13278364E-01 0.10423960E+04</pdfrwt>
<totfact> 0.11371832E+02</totfact>
</mgrwt>
</event>
<event>
 4    1  0.6024609E-005  0.7502947E+03  0.7818608E-02  0.9634888E-01
          2   -1    0    0  501    0  0.00000000000E+00  0.00000000000E+00  0.19901661224E+04  0.19901661224E+04  0.25500000000E-02 0. -1.
         -2   -1    0    0    0  501 -0.00000000000E+00 -0.00000000000E+00 -0.70715476083E+02  0.70715476129E+02  0.25500000000E-02 0.  1.
    5000001    1    1    2    0    0 -0.22705561451E+03  0.22692926494E+03  0.82684326960E+03  0.90667796700E+03  0.18800000000E+03 0.  0.
   -5000001    1    1    2    0    0  0.22705561451E+03 -0.22692926494E+03  0.10926073767E+04  0.11542036315E+04  0.18800000000E+03 0.  0.
<mgrwt>
<rscale>  0 0.75029473E+03</rscale>
<asrwt>0</asrwt>
<pdfrwt beam="1">  1        2 0.28430944E+00 0.75029473E+03</pdfrwt>
<pdfrwt beam="2">  1       -2 0.10102211E-01 0.75029473E+03</pdfrwt>
<totfact> 0.55875539E+02</totfact>
</mgrwt>
</event>
<event>
 4    1  0.6024609E-005  0.7766534E+03  0.7818608E-02  0.9594439E-01
         -2   -1    0    0    0  501 -0.00000000000E+00  0.00000000000E+00  0.27927842065E+03  0.27927842066E+03  0.25500000000E-02 0. -1.
          2   -1    0    0  501    0  0.00000000000E+00 -0.00000000000E+00 -0.53995449777E+03  0.53995449777E+03  0.25500000000E-02 0.  1.
    5000001    1    1    2    0    0  0.11533119536E+03 -0.27897306420E+03 -0.29485811716E+03  0.46196597757E+03  0.18800000000E+03 0.  0.
   -5000001    1    1    2    0    0 -0.11533119536E+03  0.27897306420E+03  0.34182040038E+02  0.35726694087E+03  0.18800000000E+03 0.  0.
<mgrwt>
<rscale>  0 0.77665343E+03</rscale>
<asrwt>0</asrwt>
<pdfrwt beam="1">  1        2 0.77136356E-01 0.77665343E+03</pdfrwt>
<pdfrwt beam="2">  1       -2 0.39896918E-01 0.77665343E+03</pdfrwt>
<totfact> 0.36710244E+02</totfact>
</mgrwt>
</event>
<event>
 4    1  0.6024609E-005  0.8701559E+03  0.7818608E-02  0.9463677E-01
         -2   -1    0    0    0  501 -0.00000000000E+00  0.00000000000E+00  0.91633116202E+02  0.91633116238E+02  0.25500000000E-02 0. -1.
          2   -1    0    0  501    0  0.00000000000E+00 -0.00000000000E+00 -0.20657685326E+04  0.20657685326E+04  0.25500000000E-02 0.  1.
    5000001    1    1    2    0    0  0.14444035900E+03 -0.33616936481E+03 -0.63577268722E+03  0.75724749519E+03  0.18800000000E+03 0.  0.
   -5000001    1    1    2    0    0 -0.14444035900E+03  0.33616936481E+03 -0.13383627292E+04  0.14001541537E+04  0.18800000000E+03 0.  0.
<mgrwt>
<rscale>  0 0.87015587E+03</rscale>
<asrwt>0</asrwt>
<pdfrwt beam="1">  1        2 0.29510976E+00 0.87015587E+03</pdfrwt>
<pdfrwt beam="2">  1       -2 0.13090447E-01 0.87015587E+03</pdfrwt>
<totfact> 0.33100747E+02</totfact>
</mgrwt>
</event>
<event>
 4    1  0.6024609E-005  0.8384359E+03  0.7818608E-02  0.9505991E-01
          2   -1    0    0  501    0  0.00000000000E+00  0.00000000000E+00  0.83061031011E+03  0.83061031011E+03  0.25500000000E-02 0.  1.
         -2   -1    0    0    0  501 -0.00000000000E+00 -0.00000000000E+00 -0.21158379842E+03  0.21158379844E+03  0.25500000000E-02 0. -1.
    5000001    1    1    2    0    0 -0.23200674145E+03 -0.17116615772E+03  0.60699490249E+03  0.69779065147E+03  0.18800000000E+03 0.  0.
   -5000001    1    1    2    0    0  0.23200674145E+03  0.17116615772E+03  0.12031609195E+02  0.34440345708E+03  0.18800000000E+03 0.  0.
<mgrwt>
<rscale>  0 0.83843589E+03</rscale>
<asrwt>0</asrwt>
<pdfrwt beam="1">  1        2 0.11865862E+00 0.83843589E+03</pdfrwt>
<pdfrwt beam="2">  1       -2 0.30226257E-01 0.83843589E+03</pdfrwt>
<totfact> 0.36655555E+02</totfact>
</mgrwt>
</event>
<event>
 4    1  0.6024609E-005  0.4409114E+03  0.7818608E-02  0.1030468E+00
          2   -1    0    0  501    0  0.00000000000E+00  0.00000000000E+00  0.76985397863E+02  0.76985397906E+02  0.25500000000E-02 0.  1.
         -2   -1    0    0    0  501 -0.00000000000E+00 -0.00000000000E+00 -0.63129773622E+03  0.63129773622E+03  0.25500000000E-02 0. -1.
    5000001    1    1    2    0    0 -0.70836369456E+02 -0.63097319075E+02 -0.17233709790E+03  0.27210868826E+03  0.18800000000E+03 0.  0.
   -5000001    1    1    2    0    0  0.70836369456E+02  0.63097319075E+02 -0.38197524045E+03  0.43617444587E+03  0.18800000000E+03 0.  0.
<mgrwt>
<rscale>  0 0.44091136E+03</rscale>
<asrwt>0</asrwt>
<pdfrwt beam="1">  1        2 0.10997914E-01 0.44091136E+03</pdfrwt>
<pdfrwt beam="2">  1       -2 0.90185388E-01 0.44091136E+03</pdfrwt>
<totfact> 0.62361315E+02</totfact>
</mgrwt>
</event>
<event>
 4    1  0.6024609E-005  0.7897505E+03  0.7818608E-02  0.9574972E-01
          2   -1    0    0  501    0  0.00000000000E+00  0.00000000000E+00  0.66608172252E+03  0.66608172253E+03  0.25500000000E-02 0.  1.
         -2   -1    0    0    0  501 -0.00000000000E+00 -0.00000000000E+00 -0.23409508746E+03  0.23409508747E+03  0.25500000000E-02 0. -1.
    5000001    1    1    2    0    0 -0.21990758598E+03 -0.26781724262E+03  0.24140494031E+03  0.46228321083E+03  0.18800000000E+03 0.  0.
   -5000001    1    1    2    0    0  0.21990758598E+03  0.26781724262E+03  0.19058169475E+03  0.43789359916E+03  0.18800000000E+03 0.  0.
<mgrwt>
<rscale>  0 0.78975049E+03</rscale>
<asrwt>0</asrwt>
<pdfrwt beam="1">  1        2 0.95154532E-01 0.78975049E+03</pdfrwt>
<pdfrwt beam="2">  1       -2 0.33442155E-01 0.78975049E+03</pdfrwt>
<totfact> 0.40124047E+02</totfact>
</mgrwt>
</event>
<event>
 4    1  0.6024609E-005  0.7588244E+03  0.7818608E-02  0.9621607E-01
          2   -1    0    0  501    0  0.00000000000E+00  0.00000000000E+00  0.50634894338E+03  0.50634894339E+03  0.25500000000E-02 0.  1.
         -2   -1    0    0    0  501 -0.00000000000E+00 -0.00000000000E+00 -0.28429725783E+03  0.28429725784E+03  0.25500000000E-02 0. -1.
    5000001    1    1    2    0    0  0.17838149143E+03  0.27693891631E+03  0.10089727062E+03  0.39247850778E+03  0.18800000000E+03 0.  0.
   -5000001    1    1    2    0    0 -0.17838149143E+03 -0.27693891631E+03  0.12115441493E+03  0.39816769345E+03  0.18800000000E+03 0.  0.
<mgrwt>
<rscale>  0 0.75882440E+03</rscale>
<asrwt>0</asrwt>
<pdfrwt beam="1">  1        2 0.72335562E-01 0.75882440E+03</pdfrwt>
<pdfrwt beam="2">  1       -2 0.40613895E-01 0.75882440E+03</pdfrwt>
<totfact> 0.38207893E+02</totfact>
</mgrwt>
</event>
<event>
 4    1  0.6024609E-005  0.7940572E+03  0.7818608E-02  0.9568659E-01
          2   -1    0    0  501    0  0.00000000000E+00  0.00000000000E+00  0.22511443036E+04  0.22511443036E+04  0.25500000000E-02 0.  1.
         -2   -1    0    0    0  501 -0.00000000000E+00 -0.00000000000E+00 -0.70022918997E+02  0.70022919044E+02  0.25500000000E-02 0. -1.
    5000001    1    1    2    0    0  0.20072316812E+02  0.31935843446E+03  0.15028731892E+04  0.15480195510E+04  0.18800000000E+03 0.  0.
   -5000001    1    1    2    0    0 -0.20072316812E+02 -0.31935843446E+03  0.67824819545E+03  0.77314767166E+03  0.18800000000E+03 0.  0.
<mgrwt>
<rscale>  0 0.79405716E+03</rscale>
<asrwt>0</asrwt>
<pdfrwt beam="1">  1        2 0.32159196E+00 0.79405716E+03</pdfrwt>
<pdfrwt beam="2">  1       -2 0.10003277E-01 0.79405716E+03</pdfrwt>
<totfact> 0.41741842E+02</totfact>
</mgrwt>
</event>
<event>
 4    1  0.6024609E-005  0.4861490E+03  0.7818608E-02  0.1017459E+00
          2   -1    0    0  501    0  0.00000000000E+00  0.00000000000E+00  0.13559844675E+04  0.13559844675E+04  0.25500000000E-02 0.  1.
         -2   -1    0    0    0  501 -0.00000000000E+00 -0.00000000000E+00 -0.43573665641E+02  0.43573665715E+02  0.25500000000E-02 0. -1.
    5000001    1    1    2    0    0 -0.12682231394E+03 -0.87382903820E+02  0.64284340779E+03  0.68724909467E+03  0.18800000000E+03 0.  0.
   -5000001    1    1    2    0    0  0.12682231394E+03  0.87382903820E+02  0.66956739411E+03  0.71230903859E+03  0.18800000000E+03 0.  0.
<mgrwt>
<rscale>  0 0.48614901E+03</rscale>
<asrwt>0</asrwt>
<pdfrwt beam="1">  1        2 0.19371203E+00 0.48614901E+03</pdfrwt>
<pdfrwt beam="2">  1       -2 0.62248104E-02 0.48614901E+03</pdfrwt>
<totfact> 0.25863551E+03</totfact>
</mgrwt>
</event>
<event>
 4    1  0.6024609E-005  0.9877632E+03  0.7818608E-02  0.9322069E-01
         -2   -1    0    0    0  501 -0.00000000000E+00  0.00000000000E+00  0.26229012887E+03  0.26229012889E+03  0.25500000000E-02 0. -1.
          2   -1    0    0  501    0  0.00000000000E+00 -0.00000000000E+00 -0.92995897156E+03  0.92995897156E+03  0.25500000000E-02 0.  1.
    5000001    1    1    2    0    0 -0.32762750276E+03 -0.31355052752E+03 -0.26859568547E+03  0.55959034671E+03  0.18800000000E+03 0.  0.
   -5000001    1    1    2    0    0  0.32762750276E+03  0.31355052752E+03 -0.39907315722E+03  0.63265875374E+03  0.18800000000E+03 0.  0.
<mgrwt>
<rscale>  0 0.98776325E+03</rscale>
<asrwt>0</asrwt>
<pdfrwt beam="1">  1        2 0.13285128E+00 0.98776325E+03</pdfrwt>
<pdfrwt beam="2">  1       -2 0.37470019E-01 0.98776325E+03</pdfrwt>
<totfact> 0.20825811E+02</totfact>
</mgrwt>
</event>
<event>
 4    1  0.6024609E-005  0.5573170E+03  0.7818608E-02  0.9998144E-01
          2   -1    0    0  501    0  0.00000000000E+00  0.00000000000E+00  0.30734821815E+04  0.30734821815E+04  0.25500000000E-02 0.  1.
         -2   -1    0    0    0  501 -0.00000000000E+00 -0.00000000000E+00 -0.25264687374E+02  0.25264687503E+02  0.25500000000E-02 0. -1.
    5000001    1    1    2    0    0 -0.16426840182E+03  0.82278316362E+02  0.10099036684E+04  0.10435531844E+04  0.18800000000E+03 0.  0.
   -5000001    1    1    2    0    0  0.16426840182E+03 -0.82278316362E+02  0.20383138257E+04  0.20551936846E+04  0.18800000000E+03 0.  0.
<mgrwt>
<rscale>  0 0.55731703E+03</rscale>
<asrwt>0</asrwt>
<pdfrwt beam="1">  1        2 0.43906880E+00 0.55731703E+03</pdfrwt>
<pdfrwt beam="2">  1       -2 0.36092418E-02 0.55731703E+03</pdfrwt>
<totfact> 0.78279958E+02</totfact>
</mgrwt>
</event>
<event>
 4    1  0.6024609E-005  0.6280319E+03  0.7818608E-02  0.9848897E-01
         -2   -1    0    0    0  501 -0.00000000000E+00  0.00000000000E+00  0.38523544421E+03  0.38523544422E+03  0.25500000000E-02 0. -1.
          2   -1    0    0  501    0  0.00000000000E+00 -0.00000000000E+00 -0.25596299906E+03  0.25596299907E+03  0.25500000000E-02 0.  1.
    5000001    1    1    2    0    0 -0.11564244891E+03 -0.17770550524E+03 -0.73513540047E+02  0.29274675601E+03  0.18800000000E+03 0.  0.
   -5000001    1    1    2    0    0  0.11564244891E+03  0.17770550524E+03  0.20278598520E+03  0.34845168729E+03  0.18800000000E+03 0.  0.
<mgrwt>
<rscale>  0 0.62803191E+03</rscale>
<asrwt>0</asrwt>
<pdfrwt beam="1">  1        2 0.36566143E-01 0.62803191E+03</pdfrwt>
<pdfrwt beam="2">  1       -2 0.55033635E-01 0.62803191E+03</pdfrwt>
<totfact> 0.44593534E+02</totfact>
</mgrwt>
</event>
<event>
 4    1  0.6024609E-005  0.4611429E+03  0.7818608E-02  0.1024450E+00
         -2   -1    0    0    0  501 -0.00000000000E+00  0.00000000000E+00  0.40138027513E+03  0.40138027514E+03  0.25500000000E-02 0. -1.
          2   -1    0    0  501    0  0.00000000000E+00 -0.00000000000E+00 -0.13245093100E+03  0.13245093103E+03  0.25500000000E-02 0.  1.
    5000001    1    1    2    0    0 -0.30631717816E+02  0.11581207135E+03  0.20264143177E+03  0.30126116224E+03  0.18800000000E+03 0.  0.
   -5000001    1    1    2    0    0  0.30631717816E+02 -0.11581207135E+03  0.66287912361E+02  0.23257004393E+03  0.18800000000E+03 0.  0.
<mgrwt>
<rscale>  0 0.46114289E+03</rscale>
<asrwt>0</asrwt>
<pdfrwt beam="1">  1        2 0.18921562E-01 0.46114289E+03</pdfrwt>
<pdfrwt beam="2">  1       -2 0.57340038E-01 0.46114289E+03</pdfrwt>
<totfact> 0.86730019E+02</totfact>
</mgrwt>
</event>
<event>
 4    1  0.6024609E-005  0.6555561E+03  0.7818608E-02  0.9796409E-01
         -2   -1    0    0    0  501 -0.00000000000E+00  0.00000000000E+00  0.35130887211E+02  0.35130887303E+02  0.25500000000E-02 0. -1.
          2   -1    0    0  501    0  0.00000000000E+00 -0.00000000000E+00 -0.30582329358E+04  0.30582329358E+04  0.25500000000E-02 0.  1.
    5000001    1    1    2    0    0  0.23632846320E+03 -0.12448061199E+03 -0.13825079891E+04  0.14205699227E+04  0.18800000000E+03 0.  0.
   -5000001    1    1    2    0    0 -0.23632846320E+03  0.12448061199E+03 -0.16405940594E+04  0.16727939004E+04  0.18800000000E+03 0.  0.
<mgrwt>
<rscale>  0 0.65555606E+03</rscale>
<asrwt>0</asrwt>
<pdfrwt beam="1">  1        2 0.43689025E+00 0.65555606E+03</pdfrwt>
<pdfrwt beam="2">  1       -2 0.50187001E-02 0.65555606E+03</pdfrwt>
<totfact> 0.47561542E+02</totfact>
</mgrwt>
</event>
<event>
 4    1  0.6024609E-005  0.5531128E+03  0.7818608E-02  0.1000776E+00
         -2   -1    0    0    0  501 -0.00000000000E+00  0.00000000000E+00  0.40260621912E+03  0.40260621913E+03  0.25500000000E-02 0. -1.
          2   -1    0    0  501    0  0.00000000000E+00 -0.00000000000E+00 -0.18997084760E+03  0.18997084762E+03  0.25500000000E-02 0.  1.
    5000001    1    1    2    0    0 -0.11218048612E+03  0.14587287365E+03  0.19770377551E+03  0.32908074934E+03  0.18800000000E+03 0.  0.
   -5000001    1    1    2    0    0  0.11218048612E+03 -0.14587287365E+03  0.14931596011E+02  0.26349631742E+03  0.18800000000E+03 0.  0.
<mgrwt>
<rscale>  0 0.55311281E+03</rscale>
<asrwt>0</asrwt>
<pdfrwt beam="1">  1        2 0.27138693E-01 0.55311281E+03</pdfrwt>
<pdfrwt beam="2">  1       -2 0.57515174E-01 0.55311281E+03</pdfrwt>
<totfact> 0.56897112E+02</totfact>
</mgrwt>
</event>
<event>
 4    1  0.6024609E-005  0.3897759E+03  0.7818608E-02  0.1047379E+00
          2   -1    0    0  501    0  0.00000000000E+00  0.00000000000E+00  0.39825006076E+03  0.39825006076E+03  0.25500000000E-02 0.  1.
         -2   -1    0    0    0  501 -0.00000000000E+00 -0.00000000000E+00 -0.95370537891E+02  0.95370537925E+02  0.25500000000E-02 0. -1.
    5000001    1    1    2    0    0  0.66013356326E+01  0.44106601319E+02  0.18368635682E+03  0.26659641332E+03  0.18800000000E+03 0.  0.
   -5000001    1    1    2    0    0 -0.66013356326E+01 -0.44106601319E+02  0.11919316605E+03  0.22702418537E+03  0.18800000000E+03 0.  0.
<mgrwt>
<rscale>  0 0.38977595E+03</rscale>
<asrwt>0</asrwt>
<pdfrwt beam="1">  1        2 0.56892866E-01 0.38977595E+03</pdfrwt>
<pdfrwt beam="2">  1       -2 0.13624362E-01 0.38977595E+03</pdfrwt>
<totfact> 0.35166532E+03</totfact>
</mgrwt>
</event>
<event>
 4    1  0.6024609E-005  0.5061069E+03  0.7818608E-02  0.1012197E+00
          2   -1    0    0  501    0  0.00000000000E+00  0.00000000000E+00  0.67564393329E+03  0.67564393329E+03  0.25500000000E-02 0.  1.
         -2   -1    0    0    0  501 -0.00000000000E+00 -0.00000000000E+00 -0.94777812276E+02  0.94777812310E+02  0.25500000000E-02 0. -1.
    5000001    1    1    2    0    0  0.16547689068E+03  0.19692698440E+02  0.24421951278E+03  0.35036776984E+03  0.18800000000E+03 0.  0.
   -5000001    1    1    2    0    0 -0.16547689068E+03 -0.19692698440E+02  0.33664660824E+03  0.42005397577E+03  0.18800000000E+03 0.  0.
<mgrwt>
<rscale>  0 0.50610692E+03</rscale>
<asrwt>0</asrwt>
<pdfrwt beam="1">  1        2 0.96520559E-01 0.50610692E+03</pdfrwt>
<pdfrwt beam="2">  1       -2 0.13539688E-01 0.50610692E+03</pdfrwt>
<totfact> 0.19523426E+03</totfact>
</mgrwt>
</event>
<event>
 4    1  0.6024609E-005  0.4643564E+03  0.7818608E-02  0.1023525E+00
         -2   -1    0    0    0  501 -0.00000000000E+00  0.00000000000E+00  0.89509162618E+02  0.89509162654E+02  0.25500000000E-02 0. -1.
          2   -1    0    0  501    0  0.00000000000E+00 -0.00000000000E+00 -0.60224807158E+03  0.60224807159E+03  0.25500000000E-02 0.  1.
    5000001    1    1    2    0    0  0.10314963241E+03 -0.85267622690E+02 -0.29441712675E+03  0.37408001640E+03  0.18800000000E+03 0.  0.
   -5000001    1    1    2    0    0 -0.10314963241E+03  0.85267622690E+02 -0.21832178222E+03  0.31767721784E+03  0.18800000000E+03 0.  0.
<mgrwt>
<rscale>  0 0.46435642E+03</rscale>
<asrwt>0</asrwt>
<pdfrwt beam="1">  1        2 0.86035436E-01 0.46435642E+03</pdfrwt>
<pdfrwt beam="2">  1       -2 0.12787024E-01 0.46435642E+03</pdfrwt>
<totfact> 0.24580566E+03</totfact>
</mgrwt>
</event>
<event>
 4    1  0.6024609E-005  0.5363619E+03  0.7818608E-02  0.1004701E+00
         -2   -1    0    0    0  501 -0.00000000000E+00  0.00000000000E+00  0.86618146447E+02  0.86618146484E+02  0.25500000000E-02 0. -1.
          2   -1    0    0  501    0  0.00000000000E+00 -0.00000000000E+00 -0.83032268910E+03  0.83032268910E+03  0.25500000000E-02 0.  1.
    5000001    1    1    2    0    0 -0.17401034239E+03  0.78031312043E+02 -0.34716546154E+03  0.43844765093E+03  0.18800000000E+03 0.  0.
   -5000001    1    1    2    0    0  0.17401034239E+03 -0.78031312043E+02 -0.39653908111E+03  0.47849318466E+03  0.18800000000E+03 0.  0.
<mgrwt>
<rscale>  0 0.53636186E+03</rscale>
<asrwt>0</asrwt>
<pdfrwt beam="1">  1        2 0.11861752E+00 0.53636186E+03</pdfrwt>
<pdfrwt beam="2">  1       -2 0.12374021E-01 0.53636186E+03</pdfrwt>
<totfact> 0.17529160E+03</totfact>
</mgrwt>
</event>
<event>
 4    1  0.6024609E-005  0.6032476E+03  0.7818608E-02  0.9898691E-01
          2   -1    0    0  501    0  0.00000000000E+00  0.00000000000E+00  0.25925107006E+04  0.25925107006E+04  0.25500000000E-02 0.  1.
         -2   -1    0    0    0  501 -0.00000000000E+00 -0.00000000000E+00 -0.35092202369E+02  0.35092202461E+02  0.25500000000E-02 0. -1.
    5000001    1    1    2    0    0 -0.18414639180E+03  0.14721107968E+03  0.12473251817E+04  0.12832556661E+04  0.18800000000E+03 0.  0.
   -5000001    1    1    2    0    0  0.18414639180E+03 -0.14721107968E+03  0.13100933165E+04  0.13443472370E+04  0.18800000000E+03 0.  0.
<mgrwt>
<rscale>  0 0.60324758E+03</rscale>
<asrwt>0</asrwt>
<pdfrwt beam="1">  1        2 0.37035875E+00 0.60324758E+03</pdfrwt>
<pdfrwt beam="2">  1       -2 0.50131707E-02 0.60324758E+03</pdfrwt>
<totfact> 0.84730144E+02</totfact>
</mgrwt>
</event>
<event>
 4    1  0.6024609E-005  0.4657613E+03  0.7818608E-02  0.1023123E+00
         -2   -1    0    0    0  501 -0.00000000000E+00  0.00000000000E+00  0.10803008263E+03  0.10803008266E+03  0.25500000000E-02 0. -1.
          2   -1    0    0  501    0  0.00000000000E+00 -0.00000000000E+00 -0.50202127036E+03  0.50202127037E+03  0.25500000000E-02 0.  1.
    5000001    1    1    2    0    0  0.59485308974E+02  0.12208221418E+03 -0.16930869554E+03  0.28714456879E+03  0.18800000000E+03 0.  0.
   -5000001    1    1    2    0    0 -0.59485308974E+02 -0.12208221418E+03 -0.22468249220E+03  0.32290678423E+03  0.18800000000E+03 0.  0.
<mgrwt>
<rscale>  0 0.46576131E+03</rscale>
<asrwt>0</asrwt>
<pdfrwt beam="1">  1        2 0.71717323E-01 0.46576131E+03</pdfrwt>
<pdfrwt beam="2">  1       -2 0.15432869E-01 0.46576131E+03</pdfrwt>
<totfact> 0.22154641E+03</totfact>
</mgrwt>
</event>
<event>
 4    1  0.6024609E-005  0.4088910E+03  0.7818608E-02  0.1040744E+00
          2   -1    0    0  501    0  0.00000000000E+00  0.00000000000E+00  0.75607135460E+02  0.75607135503E+02  0.25500000000E-02 0.  1.
         -2   -1    0    0    0  501 -0.00000000000E+00 -0.00000000000E+00 -0.55283101814E+03  0.55283101814E+03  0.25500000000E-02 0. -1.
    5000001    1    1    2    0    0 -0.74113227444E+02 -0.30907295016E+02 -0.24235724341E+03  0.31706318740E+03  0.18800000000E+03 0.  0.
   -5000001    1    1    2    0    0  0.74113227444E+02  0.30907295016E+02 -0.23486663926E+03  0.31137496625E+03  0.18800000000E+03 0.  0.
<mgrwt>
<rscale>  0 0.40889104E+03</rscale>
<asrwt>0</asrwt>
<pdfrwt beam="1">  1        2 0.10801020E-01 0.40889104E+03</pdfrwt>
<pdfrwt beam="2">  1       -2 0.78975857E-01 0.40889104E+03</pdfrwt>
<totfact> 0.85957683E+02</totfact>
</mgrwt>
</event>
<event>
 4    1  0.6024609E-005  0.6028060E+03  0.7818608E-02  0.9899602E-01
         -2   -1    0    0    0  501 -0.00000000000E+00  0.00000000000E+00  0.30293752387E+02  0.30293752494E+02  0.25500000000E-02 0. -1.
          2   -1    0    0  501    0  0.00000000000E+00 -0.00000000000E+00 -0.29987626440E+04  0.29987626440E+04  0.25500000000E-02 0.  1.
    5000001    1    1    2    0    0  0.37054593294E+02 -0.18491659224E+03 -0.77480112081E+03  0.81928503329E+03  0.18800000000E+03 0.  0.
   -5000001    1    1    2    0    0 -0.37054593294E+02  0.18491659224E+03 -0.21936677708E+04  0.22097713632E+04  0.18800000000E+03 0.  0.
<mgrwt>
<rscale>  0 0.60280602E+03</rscale>
<asrwt>0</asrwt>
<pdfrwt beam="1">  1        2 0.42839448E+00 0.60280602E+03</pdfrwt>
<pdfrwt beam="2">  1       -2 0.43276808E-02 0.60280602E+03</pdfrwt>
<totfact> 0.64801368E+02</totfact>
</mgrwt>
</event>
<event>
 4    1  0.6024609E-005  0.1125571E+04  0.7818608E-02  0.9180621E-01
         -2   -1    0    0    0  501 -0.00000000000E+00  0.00000000000E+00  0.21732210126E+03  0.21732210127E+03  0.25500000000E-02 0. -1.
          2   -1    0    0  501    0  0.00000000000E+00 -0.00000000000E+00 -0.14574108787E+04  0.14574108787E+04  0.25500000000E-02 0.  1.
    5000001    1    1    2    0    0 -0.24379355188E+02 -0.46319146181E+03 -0.23709416159E+03  0.55380350731E+03  0.18800000000E+03 0.  0.
   -5000001    1    1    2    0    0  0.24379355188E+02  0.46319146181E+03 -0.10029946158E+04  0.11209294726E+04  0.18800000000E+03 0.  0.
<mgrwt>
<rscale>  0 0.11255711E+04</rscale>
<asrwt>0</asrwt>
<pdfrwt beam="1">  1        2 0.20820155E+00 0.11255711E+04</pdfrwt>
<pdfrwt beam="2">  1       -2 0.31046015E-01 0.11255711E+04</pdfrwt>
<totfact> 0.14664226E+02</totfact>
</mgrwt>
</event>
<event>
 4    1  0.6024609E-005  0.4916435E+03  0.7818608E-02  0.1015983E+00
          2   -1    0    0  501    0  0.00000000000E+00  0.00000000000E+00  0.32601910655E+03  0.32601910656E+03  0.25500000000E-02 0.  1.
         -2   -1    0    0    0  501 -0.00000000000E+00 -0.00000000000E+00 -0.18535215511E+03  0.18535215513E+03  0.25500000000E-02 0. -1.
    5000001    1    1    2    0    0 -0.14583116172E+03 -0.14453220940E+02  0.78503696822E+01  0.23849790697E+03  0.18800000000E+03 0.  0.
   -5000001    1    1    2    0    0  0.14583116172E+03  0.14453220940E+02  0.13281658176E+03  0.27287335472E+03  0.18800000000E+03 0.  0.
<mgrwt>
<rscale>  0 0.49164355E+03</rscale>
<asrwt>0</asrwt>
<pdfrwt beam="1">  1        2 0.46574158E-01 0.49164355E+03</pdfrwt>
<pdfrwt beam="2">  1       -2 0.26478879E-01 0.49164355E+03</pdfrwt>
<totfact> 0.13994603E+03</totfact>
</mgrwt>
</event>
<event>
 4    1  0.6024609E-005  0.5545915E+03  0.7818608E-02  0.1000437E+00
         -2   -1    0    0    0  501 -0.00000000000E+00  0.00000000000E+00  0.48210226726E+02  0.48210226794E+02  0.25500000000E-02 0. -1.
          2   -1    0    0  501    0  0.00000000000E+00 -0.00000000000E+00 -0.15949506808E+04  0.15949506808E+04  0.25500000000E-02 0.  1.
    5000001    1    1    2    0    0  0.31055556125E+02  0.19963952992E+03 -0.85334166989E+03  0.89685918351E+03  0.18800000000E+03 0.  0.
   -5000001    1    1    2    0    0 -0.31055556125E+02 -0.19963952992E+03 -0.69339878421E+03  0.74630172411E+03  0.18800000000E+03 0.  0.
<mgrwt>
<rscale>  0 0.55459150E+03</rscale>
<asrwt>0</asrwt>
<pdfrwt beam="1">  1        2 0.22785006E+00 0.55459150E+03</pdfrwt>
<pdfrwt beam="2">  1       -2 0.68871763E-02 0.55459150E+03</pdfrwt>
<totfact> 0.16540579E+03</totfact>
</mgrwt>
</event>
<event>
 4    1  0.6024609E-005  0.5448013E+03  0.7818608E-02  0.1002704E+00
         -2   -1    0    0    0  501 -0.00000000000E+00  0.00000000000E+00  0.10702225951E+03  0.10702225954E+03  0.25500000000E-02 0. -1.
          2   -1    0    0  501    0  0.00000000000E+00 -0.00000000000E+00 -0.69333346776E+03  0.69333346777E+03  0.25500000000E-02 0.  1.
    5000001    1    1    2    0    0 -0.16351464556E+03 -0.21085304142E+02 -0.45190094343E+03  0.51646886841E+03  0.18800000000E+03 0.  0.
   -5000001    1    1    2    0    0  0.16351464556E+03  0.21085304142E+02 -0.13441026483E+03  0.28388685890E+03  0.18800000000E+03 0.  0.
<mgrwt>
<rscale>  0 0.54480130E+03</rscale>
<asrwt>0</asrwt>
<pdfrwt beam="1">  1        2 0.99047636E-01 0.54480130E+03</pdfrwt>
<pdfrwt beam="2">  1       -2 0.15288895E-01 0.54480130E+03</pdfrwt>
<totfact> 0.15444336E+03</totfact>
</mgrwt>
</event>
<event>
 4    1  0.6024609E-005  0.4109298E+03  0.7818608E-02  0.1040059E+00
          2   -1    0    0  501    0  0.00000000000E+00  0.00000000000E+00  0.50337444364E+03  0.50337444365E+03  0.25500000000E-02 0.  1.
         -2   -1    0    0    0  501 -0.00000000000E+00 -0.00000000000E+00 -0.83865658448E+02  0.83865658486E+02  0.25500000000E-02 0. -1.
    5000001    1    1    2    0    0 -0.31937467531E+01 -0.78589437714E+02  0.17234352836E+03  0.26689471989E+03  0.18800000000E+03 0.  0.
   -5000001    1    1    2    0    0  0.31937467531E+01  0.78589437714E+02  0.24716525683E+03  0.32034538224E+03  0.18800000000E+03 0.  0.
<mgrwt>
<rscale>  0 0.41092982E+03</rscale>
<asrwt>0</asrwt>
<pdfrwt beam="1">  1        2 0.71910633E-01 0.41092982E+03</pdfrwt>
<pdfrwt beam="2">  1       -2 0.11980809E-01 0.41092982E+03</pdfrwt>
<totfact> 0.33530558E+03</totfact>
</mgrwt>
</event>
<event>
 4    1  0.6024609E-005  0.5388583E+03  0.7818608E-02  0.1004106E+00
          2   -1    0    0  501    0  0.00000000000E+00  0.00000000000E+00  0.88954189664E+03  0.88954189664E+03  0.25500000000E-02 0.  1.
         -2   -1    0    0    0  501 -0.00000000000E+00 -0.00000000000E+00 -0.81606116373E+02  0.81606116413E+02  0.25500000000E-02 0. -1.
    5000001    1    1    2    0    0 -0.91657203205E+02 -0.65455078084E+02  0.12151340464E+03  0.25058914113E+03  0.18800000000E+03 0.  0.
   -5000001    1    1    2    0    0  0.91657203205E+02  0.65455078084E+02  0.68642237563E+03  0.72055887192E+03  0.18800000000E+03 0.  0.
<mgrwt>
<rscale>  0 0.53885827E+03</rscale>
<asrwt>0</asrwt>
<pdfrwt beam="1">  1        2 0.12707742E+00 0.53885827E+03</pdfrwt>
<pdfrwt beam="2">  1       -2 0.11658016E-01 0.53885827E+03</pdfrwt>
<totfact> 0.17666062E+03</totfact>
</mgrwt>
</event>
<event>
 4    1  0.6024609E-005  0.8316803E+03  0.7818608E-02  0.9515260E-01
          2   -1    0    0  501    0  0.00000000000E+00  0.00000000000E+00  0.18769423617E+04  0.18769423617E+04  0.25500000000E-02 0.  1.
         -2   -1    0    0    0  501 -0.00000000000E+00 -0.00000000000E+00 -0.92130167394E+02  0.92130167430E+02  0.25500000000E-02 0. -1.
    5000001    1    1    2    0    0 -0.13356542469E+03  0.32634690969E+03  0.11648015616E+04  0.12314417185E+04  0.18800000000E+03 0.  0.
   -5000001    1    1    2    0    0  0.13356542469E+03 -0.32634690969E+03  0.62001063269E+03  0.73763081063E+03  0.18800000000E+03 0.  0.
<mgrwt>
<rscale>  0 0.83168026E+03</rscale>
<asrwt>0</asrwt>
<pdfrwt beam="1">  1        2 0.26813460E+00 0.83168026E+03</pdfrwt>
<pdfrwt beam="2">  1       -2 0.13161453E-01 0.83168026E+03</pdfrwt>
<totfact> 0.41016850E+02</totfact>
</mgrwt>
</event>
<event>
 4    1  0.6024609E-005  0.5404556E+03  0.7818608E-02  0.1003728E+00
          2   -1    0    0  501    0  0.00000000000E+00  0.00000000000E+00  0.78085757375E+03  0.78085757375E+03  0.25500000000E-02 0.  1.
         -2   -1    0    0    0  501 -0.00000000000E+00 -0.00000000000E+00 -0.93516486070E+02  0.93516486105E+02  0.25500000000E-02 0. -1.
    5000001    1    1    2    0    0 -0.10325601091E+03  0.10416459189E+03  0.13796222418E+03  0.27548074578E+03  0.18800000000E+03 0.  0.
   -5000001    1    1    2    0    0  0.10325601091E+03 -0.10416459189E+03  0.54937886350E+03  0.59889331408E+03  0.18800000000E+03 0.  0.
<mgrwt>
<rscale>  0 0.54045557E+03</rscale>
<asrwt>0</asrwt>
<pdfrwt beam="1">  1        2 0.11155108E+00 0.54045557E+03</pdfrwt>
<pdfrwt beam="2">  1       -2 0.13359498E-01 0.54045557E+03</pdfrwt>
<totfact> 0.16701797E+03</totfact>
</mgrwt>
</event>
<event>
 4    1  0.6024609E-005  0.6931783E+03  0.7818608E-02  0.9728970E-01
         -2   -1    0    0    0  501 -0.00000000000E+00  0.00000000000E+00  0.10789019466E+03  0.10789019469E+03  0.25500000000E-02 0. -1.
          2   -1    0    0  501    0  0.00000000000E+00 -0.00000000000E+00 -0.11133917569E+04  0.11133917569E+04  0.25500000000E-02 0.  1.
    5000001    1    1    2    0    0  0.24803861517E+03  0.81276894319E+02 -0.73009853161E+03  0.79782012636E+03  0.18800000000E+03 0.  0.
   -5000001    1    1    2    0    0 -0.24803861517E+03 -0.81276894319E+02 -0.27540303067E+03  0.42346182528E+03  0.18800000000E+03 0.  0.
<mgrwt>
<rscale>  0 0.69317834E+03</rscale>
<asrwt>0</asrwt>
<pdfrwt beam="1">  1        2 0.15905596E+00 0.69317834E+03</pdfrwt>
<pdfrwt beam="2">  1       -2 0.15412886E-01 0.69317834E+03</pdfrwt>
<totfact> 0.80714598E+02</totfact>
</mgrwt>
</event>
<event>
 4    1  0.6024609E-005  0.5081460E+03  0.7818608E-02  0.1011674E+00
          2   -1    0    0  501    0  0.00000000000E+00  0.00000000000E+00  0.55628224897E+03  0.55628224897E+03  0.25500000000E-02 0.  1.
         -2   -1    0    0    0  501 -0.00000000000E+00 -0.00000000000E+00 -0.11604374728E+03  0.11604374730E+03  0.25500000000E-02 0. -1.
    5000001    1    1    2    0    0 -0.16624260721E+02 -0.16196620610E+03  0.15137349814E+03  0.29114833659E+03  0.18800000000E+03 0.  0.
   -5000001    1    1    2    0    0  0.16624260721E+02  0.16196620610E+03  0.28886500355E+03  0.38117765968E+03  0.18800000000E+03 0.  0.
<mgrwt>
<rscale>  0 0.50814595E+03</rscale>
<asrwt>0</asrwt>
<pdfrwt beam="1">  1        2 0.79468893E-01 0.50814595E+03</pdfrwt>
<pdfrwt beam="2">  1       -2 0.16577678E-01 0.50814595E+03</pdfrwt>
<totfact> 0.17475126E+03</totfact>
</mgrwt>
</event>
<event>
 4    1  0.6024609E-005  0.8117174E+03  0.7818608E-02  0.9543210E-01
         -2   -1    0    0    0  501 -0.00000000000E+00  0.00000000000E+00  0.89124544757E+02  0.89124544793E+02  0.25500000000E-02 0. -1.
          2   -1    0    0  501    0  0.00000000000E+00 -0.00000000000E+00 -0.18482146860E+04  0.18482146860E+04  0.25500000000E-02 0.  1.
    5000001    1    1    2    0    0 -0.52932883319E+02 -0.19772268123E+03 -0.15854692095E+04  0.16096436759E+04  0.18800000000E+03 0.  0.
   -5000001    1    1    2    0    0  0.52932883319E+02  0.19772268123E+03 -0.17362093172E+03  0.32769555496E+03  0.18800000000E+03 0.  0.
<mgrwt>
<rscale>  0 0.81171742E+03</rscale>
<asrwt>0</asrwt>
<pdfrwt beam="1">  1        2 0.26403065E+00 0.81171742E+03</pdfrwt>
<pdfrwt beam="2">  1       -2 0.12732079E-01 0.81171742E+03</pdfrwt>
<totfact> 0.44889111E+02</totfact>
</mgrwt>
</event>
<event>
 4    1  0.6024609E-005  0.5038011E+03  0.7818608E-02  0.1012792E+00
          2   -1    0    0  501    0  0.00000000000E+00  0.00000000000E+00  0.85463320222E+03  0.85463320222E+03  0.25500000000E-02 0.  1.
         -2   -1    0    0    0  501 -0.00000000000E+00 -0.00000000000E+00 -0.74246927597E+02  0.74246927641E+02  0.25500000000E-02 0. -1.
    5000001    1    1    2    0    0  0.67808851842E+02  0.12740897932E+03  0.54749377362E+03  0.59659410033E+03  0.18800000000E+03 0.  0.
   -5000001    1    1    2    0    0 -0.67808851842E+02 -0.12740897932E+03  0.23289250100E+03  0.33228602953E+03  0.18800000000E+03 0.  0.
<mgrwt>
<rscale>  0 0.50380111E+03</rscale>
<asrwt>0</asrwt>
<pdfrwt beam="1">  1        2 0.12209045E+00 0.50380111E+03</pdfrwt>
<pdfrwt beam="2">  1       -2 0.10606705E-01 0.50380111E+03</pdfrwt>
<totfact> 0.21724059E+03</totfact>
</mgrwt>
</event>
<event>
 4    1  0.6024609E-005  0.5461149E+03  0.7818608E-02  0.1002397E+00
          2   -1    0    0  501    0  0.00000000000E+00  0.00000000000E+00  0.54486640501E+03  0.54486640502E+03  0.25500000000E-02 0.  1.
         -2   -1    0    0    0  501 -0.00000000000E+00 -0.00000000000E+00 -0.13684156841E+03  0.13684156844E+03  0.25500000000E-02 0. -1.
    5000001    1    1    2    0    0 -0.94252381773E+02  0.56418485738E+01 -0.13279236489E+02  0.21079772306E+03  0.18800000000E+03 0.  0.
   -5000001    1    1    2    0    0  0.94252381773E+02 -0.56418485738E+01  0.42130407309E+03  0.47091025039E+03  0.18800000000E+03 0.  0.
<mgrwt>
<rscale>  0 0.54611491E+03</rscale>
<asrwt>0</asrwt>
<pdfrwt beam="1">  1        2 0.77838059E-01 0.54611491E+03</pdfrwt>
<pdfrwt beam="2">  1       -2 0.19548795E-01 0.54611491E+03</pdfrwt>
<totfact> 0.13492484E+03</totfact>
</mgrwt>
</event>
<event>
 4    1  0.6024609E-005  0.6894605E+03  0.7818608E-02  0.9735428E-01
         -2   -1    0    0    0  501 -0.00000000000E+00  0.00000000000E+00  0.95257084727E+03  0.95257084727E+03  0.25500000000E-02 0. -1.
          2   -1    0    0  501    0  0.00000000000E+00 -0.00000000000E+00 -0.12475600242E+03  0.12475600245E+03  0.25500000000E-02 0.  1.
    5000001    1    1    2    0    0 -0.28619943025E+03  0.16330676539E+02  0.35717692452E+03  0.49507187385E+03  0.18800000000E+03 0.  0.
   -5000001    1    1    2    0    0  0.28619943025E+03 -0.16330676539E+02  0.47063792033E+03  0.58225497587E+03  0.18800000000E+03 0.  0.
<mgrwt>
<rscale>  0 0.68946046E+03</rscale>
<asrwt>0</asrwt>
<pdfrwt beam="1">  1        2 0.17822286E-01 0.68946046E+03</pdfrwt>
<pdfrwt beam="2">  1       -2 0.13608155E+00 0.68946046E+03</pdfrwt>
<totfact> 0.12747308E+02</totfact>
</mgrwt>
</event>
<event>
 4    1  0.6024609E-005  0.4550910E+03  0.7818608E-02  0.1026215E+00
         -2   -1    0    0    0  501 -0.00000000000E+00  0.00000000000E+00  0.85802035300E+02  0.85802035338E+02  0.25500000000E-02 0. -1.
          2   -1    0    0  501    0  0.00000000000E+00 -0.00000000000E+00 -0.60344680600E+03  0.60344680600E+03  0.25500000000E-02 0.  1.
    5000001    1    1    2    0    0  0.96202250534E+02  0.21495398642E+02 -0.13470450160E+03  0.25140848817E+03  0.18800000000E+03 0.  0.
   -5000001    1    1    2    0    0 -0.96202250534E+02 -0.21495398642E+02 -0.38294026910E+03  0.43784035317E+03  0.18800000000E+03 0.  0.
<mgrwt>
<rscale>  0 0.45509104E+03</rscale>
<asrwt>0</asrwt>
<pdfrwt beam="1">  1        2 0.86206684E-01 0.45509104E+03</pdfrwt>
<pdfrwt beam="2">  1       -2 0.12257434E-01 0.45509104E+03</pdfrwt>
<totfact> 0.26283228E+03</totfact>
</mgrwt>
</event>
<event>
 4    1  0.6024609E-005  0.8608450E+03  0.7818608E-02  0.9475896E-01
          2   -1    0    0  501    0  0.00000000000E+00  0.00000000000E+00  0.16449978271E+04  0.16449978271E+04  0.25500000000E-02 0.  1.
         -2   -1    0    0    0  501 -0.00000000000E+00 -0.00000000000E+00 -0.11262235771E+03  0.11262235774E+03  0.25500000000E-02 0. -1.
    5000001    1    1    2    0    0 -0.18680691813E+03  0.26564194946E+03  0.33569041501E+03  0.50348239761E+03  0.18800000000E+03 0.  0.
   -5000001    1    1    2    0    0  0.18680691813E+03 -0.26564194946E+03  0.11966850544E+04  0.12541377873E+04  0.18800000000E+03 0.  0.
<mgrwt>
<rscale>  0 0.86084501E+03</rscale>
<asrwt>0</asrwt>
<pdfrwt beam="1">  1        2 0.23499966E+00 0.86084501E+03</pdfrwt>
<pdfrwt beam="2">  1       -2 0.16088910E-01 0.86084501E+03</pdfrwt>
<totfact> 0.38349367E+02</totfact>
</mgrwt>
</event>
<event>
 4    1  0.6024609E-005  0.5515886E+03  0.7818608E-02  0.1001127E+00
          2   -1    0    0  501    0  0.00000000000E+00  0.00000000000E+00  0.24695946198E+04  0.24695946198E+04  0.25500000000E-02 0.  1.
         -2   -1    0    0    0  501 -0.00000000000E+00 -0.00000000000E+00 -0.30799584892E+02  0.30799584997E+02  0.25500000000E-02 0. -1.
    5000001    1    1    2    0    0 -0.32757340423E+02 -0.19911159741E+03  0.12200005721E+04  0.12507853004E+04  0.18800000000E+03 0.  0.
   -5000001    1    1    2    0    0  0.32757340423E+02  0.19911159741E+03  0.12187944627E+04  0.12496089044E+04  0.18800000000E+03 0.  0.
<mgrwt>
<rscale>  0 0.55158858E+03</rscale>
<asrwt>0</asrwt>
<pdfrwt beam="1">  1        2 0.35279931E+00 0.55158858E+03</pdfrwt>
<pdfrwt beam="2">  1       -2 0.43999397E-02 0.55158858E+03</pdfrwt>
<totfact> 0.12035588E+03</totfact>
</mgrwt>
</event>
<event>
 4    1  0.6024609E-005  0.7839353E+03  0.7818608E-02  0.9583566E-01
          2   -1    0    0  501    0  0.00000000000E+00  0.00000000000E+00  0.32364216939E+03  0.32364216940E+03  0.25500000000E-02 0.  1.
         -2   -1    0    0    0  501 -0.00000000000E+00 -0.00000000000E+00 -0.47471767274E+03  0.47471767275E+03  0.25500000000E-02 0. -1.
    5000001    1    1    2    0    0 -0.20853153727E+01 -0.29240747098E+03 -0.25994461911E+03  0.43407566463E+03  0.18800000000E+03 0.  0.
   -5000001    1    1    2    0    0  0.20853153727E+01  0.29240747098E+03  0.10886911575E+03  0.36428417752E+03  0.18800000000E+03 0.  0.
<mgrwt>
<rscale>  0 0.78393535E+03</rscale>
<asrwt>0</asrwt>
<pdfrwt beam="1">  1        2 0.46234596E-01 0.78393535E+03</pdfrwt>
<pdfrwt beam="2">  1       -2 0.67816810E-01 0.78393535E+03</pdfrwt>
<totfact> 0.21996165E+02</totfact>
</mgrwt>
</event>
<event>
 4    1  0.6024609E-005  0.1068639E+04  0.7818608E-02  0.9236309E-01
          2   -1    0    0  501    0  0.00000000000E+00  0.00000000000E+00  0.24446163106E+04  0.24446163106E+04  0.25500000000E-02 0.  1.
         -2   -1    0    0    0  501 -0.00000000000E+00 -0.00000000000E+00 -0.11678622276E+03  0.11678622279E+03  0.25500000000E-02 0. -1.
    5000001    1    1    2    0    0 -0.43058548550E+02  0.48164735499E+03  0.85775810699E+03  0.10024625595E+04  0.18800000000E+03 0.  0.
   -5000001    1    1    2    0    0  0.43058548550E+02 -0.48164735499E+03  0.14700719808E+04  0.15589399738E+04  0.18800000000E+03 0.  0.
<mgrwt>
<rscale>  0 0.10686393E+04</rscale>
<asrwt>0</asrwt>
<pdfrwt beam="1">  1        2 0.34923087E+00 0.10686393E+04</pdfrwt>
<pdfrwt beam="2">  1       -2 0.16683748E-01 0.10686393E+04</pdfrwt>
<totfact> 0.13824753E+02</totfact>
</mgrwt>
</event>
<event>
 4    1  0.6024609E-005  0.5973149E+03  0.7818608E-02  0.9910993E-01
         -2   -1    0    0    0  501 -0.00000000000E+00  0.00000000000E+00  0.15660390436E+03  0.15660390438E+03  0.25500000000E-02 0. -1.
          2   -1    0    0  501    0  0.00000000000E+00 -0.00000000000E+00 -0.56956602201E+03  0.56956602201E+03  0.25500000000E-02 0.  1.
    5000001    1    1    2    0    0  0.63315105312E+02  0.22047309237E+03 -0.24920602671E+03  0.38738202174E+03  0.18800000000E+03 0.  0.
   -5000001    1    1    2    0    0 -0.63315105312E+02 -0.22047309237E+03 -0.16375609093E+03  0.33878790465E+03  0.18800000000E+03 0.  0.
<mgrwt>
<rscale>  0 0.59731487E+03</rscale>
<asrwt>0</asrwt>
<pdfrwt beam="1">  1        2 0.81366573E-01 0.59731487E+03</pdfrwt>
<pdfrwt beam="2">  1       -2 0.22371987E-01 0.59731487E+03</pdfrwt>
<totfact> 0.10118508E+03</totfact>
</mgrwt>
</event>
<event>
 4    1  0.6024609E-005  0.6089269E+03  0.7818608E-02  0.9887057E-01
          2   -1    0    0  501    0  0.00000000000E+00  0.00000000000E+00  0.26950221507E+04  0.26950221507E+04  0.25500000000E-02 0.  1.
         -2   -1    0    0    0  501 -0.00000000000E+00 -0.00000000000E+00 -0.34396007771E+02  0.34396007865E+02  0.25500000000E-02 0. -1.
    5000001    1    1    2    0    0  0.21924650581E+03 -0.96335179985E+02  0.13207985085E+04  0.13554343206E+04  0.18800000000E+03 0.  0.
   -5000001    1    1    2    0    0 -0.21924650581E+03  0.96335179985E+02  0.13398276344E+04  0.13739838381E+04  0.18800000000E+03 0.  0.
<mgrwt>
<rscale>  0 0.60892693E+03</rscale>
<asrwt>0</asrwt>
<pdfrwt beam="1">  1        2 0.38500337E+00 0.60892693E+03</pdfrwt>
<pdfrwt beam="2">  1       -2 0.49137127E-02 0.60892693E+03</pdfrwt>
<totfact> 0.77268083E+02</totfact>
</mgrwt>
</event>
<event>
 4    1  0.6024609E-005  0.6425648E+03  0.7818608E-02  0.9820832E-01
         -2   -1    0    0    0  501 -0.00000000000E+00  0.00000000000E+00  0.22225056255E+03  0.22225056256E+03  0.25500000000E-02 0. -1.
          2   -1    0    0  501    0  0.00000000000E+00 -0.00000000000E+00 -0.46444152362E+03  0.46444152363E+03  0.25500000000E-02 0.  1.
    5000001    1    1    2    0    0  0.23392173771E+03  0.58113769430E+02 -0.15400469475E+02  0.30606823427E+03  0.18800000000E+03 0.  0.
   -5000001    1    1    2    0    0 -0.23392173771E+03 -0.58113769430E+02 -0.22679049160E+03  0.38062385192E+03  0.18800000000E+03 0.  0.
<mgrwt>
<rscale>  0 0.64256483E+03</rscale>
<asrwt>0</asrwt>
<pdfrwt beam="1">  1        2 0.66348789E-01 0.64256483E+03</pdfrwt>
<pdfrwt beam="2">  1       -2 0.31750080E-01 0.64256483E+03</pdfrwt>
<totfact> 0.67653993E+02</totfact>
</mgrwt>
</event>
<event>
 4    1  0.6024609E-005  0.5019528E+03  0.7818608E-02  0.1013270E+00
          2   -1    0    0  501    0  0.00000000000E+00  0.00000000000E+00  0.29684903232E+04  0.29684903232E+04  0.25500000000E-02 0.  1.
         -2   -1    0    0    0  501 -0.00000000000E+00 -0.00000000000E+00 -0.21219251685E+02  0.21219251838E+02  0.25500000000E-02 0. -1.
    5000001    1    1    2    0    0 -0.11144229863E+03 -0.45247157747E+02  0.21573871424E+04  0.21689006370E+04  0.18800000000E+03 0.  0.
   -5000001    1    1    2    0    0  0.11144229863E+03  0.45247157747E+02  0.78988392910E+03  0.82080893797E+03  0.18800000000E+03 0.  0.
<mgrwt>
<rscale>  0 0.50195276E+03</rscale>
<asrwt>0</asrwt>
<pdfrwt beam="1">  1        2 0.42407019E+00 0.50195276E+03</pdfrwt>
<pdfrwt beam="2">  1       -2 0.30313206E-02 0.50195276E+03</pdfrwt>
<totfact> 0.11701464E+03</totfact>
</mgrwt>
</event>
<event>
 4    1  0.6024609E-005  0.5860945E+03  0.7818608E-02  0.9934683E-01
          2   -1    0    0  501    0  0.00000000000E+00  0.00000000000E+00  0.17813980232E+04  0.17813980232E+04  0.25500000000E-02 0.  1.
         -2   -1    0    0    0  501 -0.00000000000E+00 -0.00000000000E+00 -0.48207475566E+02  0.48207475633E+02  0.25500000000E-02 0. -1.
    5000001    1    1    2    0    0 -0.30665087684E+02 -0.21993464086E+03  0.75750983044E+03  0.81146579537E+03  0.18800000000E+03 0.  0.
   -5000001    1    1    2    0    0  0.30665087684E+02  0.21993464086E+03  0.97568071718E+03  0.10181397034E+04  0.18800000000E+03 0.  0.
<mgrwt>
<rscale>  0 0.58609454E+03</rscale>
<asrwt>0</asrwt>
<pdfrwt beam="1">  1        2 0.25448546E+00 0.58609454E+03</pdfrwt>
<pdfrwt beam="2">  1       -2 0.68867814E-02 0.58609454E+03</pdfrwt>
<totfact> 0.13281533E+03</totfact>
</mgrwt>
</event>
<event>
 4    1  0.6024609E-005  0.5649492E+03  0.7818608E-02  0.9980918E-01
          2   -1    0    0  501    0  0.00000000000E+00  0.00000000000E+00  0.48684468282E+03  0.48684468282E+03  0.25500000000E-02 0.  1.
         -2   -1    0    0    0  501 -0.00000000000E+00 -0.00000000000E+00 -0.16389601139E+03  0.16389601141E+03  0.25500000000E-02 0. -1.
    5000001    1    1    2    0    0 -0.15220020487E+03 -0.88473691653E+02  0.27861877786E+02  0.25906134546E+03  0.18800000000E+03 0.  0.
   -5000001    1    1    2    0    0  0.15220020487E+03  0.88473691653E+02  0.29508679364E+03  0.39167934877E+03  0.18800000000E+03 0.  0.
<mgrwt>
<rscale>  0 0.56494921E+03</rscale>
<asrwt>0</asrwt>
<pdfrwt beam="1">  1        2 0.69549241E-01 0.56494921E+03</pdfrwt>
<pdfrwt beam="2">  1       -2 0.23413716E-01 0.56494921E+03</pdfrwt>
<totfact> 0.11178147E+03</totfact>
</mgrwt>
</event>
<event>
 4    1  0.6024609E-005  0.5416913E+03  0.7818608E-02  0.1003436E+00
          2   -1    0    0  501    0  0.00000000000E+00  0.00000000000E+00  0.22529174165E+04  0.22529174165E+04  0.25500000000E-02 0.  1.
         -2   -1    0    0    0  501 -0.00000000000E+00 -0.00000000000E+00 -0.32561059110E+02  0.32561059210E+02  0.25500000000E-02 0. -1.
    5000001    1    1    2    0    0 -0.11212162704E+03  0.10418997073E+03  0.16197457748E+04  0.16377872830E+04  0.18800000000E+03 0.  0.
   -5000001    1    1    2    0    0  0.11212162704E+03 -0.10418997073E+03  0.60061058265E+03  0.64769119281E+03  0.18800000000E+03 0.  0.
<mgrwt>
<rscale>  0 0.54169134E+03</rscale>
<asrwt>0</asrwt>
<pdfrwt beam="1">  1        2 0.32184552E+00 0.54169134E+03</pdfrwt>
<pdfrwt beam="2">  1       -2 0.46515773E-02 0.54169134E+03</pdfrwt>
<totfact> 0.14231736E+03</totfact>
</mgrwt>
</event>
<event>
 4    1  0.6024609E-005  0.4660135E+03  0.7818608E-02  0.1023051E+00
          2   -1    0    0  501    0  0.00000000000E+00  0.00000000000E+00  0.20736081695E+03  0.20736081697E+03  0.25500000000E-02 0.  1.
         -2   -1    0    0    0  501 -0.00000000000E+00 -0.00000000000E+00 -0.26182446062E+03  0.26182446064E+03  0.25500000000E-02 0. -1.
    5000001    1    1    2    0    0 -0.76204554232E+02 -0.92296640563E+02  0.41218643242E+02  0.22664681885E+03  0.18800000000E+03 0.  0.
   -5000001    1    1    2    0    0  0.76204554232E+02  0.92296640563E+02 -0.95682286913E+02  0.24253845875E+03  0.18800000000E+03 0.  0.
<mgrwt>
<rscale>  0 0.46601345E+03</rscale>
<asrwt>0</asrwt>
<pdfrwt beam="1">  1        2 0.29622974E-01 0.46601345E+03</pdfrwt>
<pdfrwt beam="2">  1       -2 0.37403494E-01 0.46601345E+03</pdfrwt>
<totfact> 0.12150281E+03</totfact>
</mgrwt>
</event>
<event>
 4    1  0.6024609E-005  0.5432044E+03  0.7818608E-02  0.1003079E+00
          2   -1    0    0  501    0  0.00000000000E+00  0.00000000000E+00  0.86315343625E+03  0.86315343626E+03  0.25500000000E-02 0.  1.
         -2   -1    0    0    0  501 -0.00000000000E+00 -0.00000000000E+00 -0.85463075540E+02  0.85463075578E+02  0.25500000000E-02 0. -1.
    5000001    1    1    2    0    0  0.13917008433E+03  0.34899512404E+02  0.62208028496E+03  0.66551797066E+03  0.18800000000E+03 0.  0.
   -5000001    1    1    2    0    0 -0.13917008433E+03 -0.34899512404E+02  0.15561007575E+03  0.28309854117E+03  0.18800000000E+03 0.  0.
<mgrwt>
<rscale>  0 0.54320437E+03</rscale>
<asrwt>0</asrwt>
<pdfrwt beam="1">  1        2 0.12330764E+00 0.54320437E+03</pdfrwt>
<pdfrwt beam="2">  1       -2 0.12209010E-01 0.54320437E+03</pdfrwt>
<totfact> 0.17038905E+03</totfact>
</mgrwt>
</event>
<event>
 4    1  0.6024609E-005  0.7440612E+03  0.7818608E-02  0.9644714E-01
          2   -1    0    0  501    0  0.00000000000E+00  0.00000000000E+00  0.24991526032E+04  0.24991526032E+04  0.25500000000E-02 0.  1.
         -2   -1    0    0    0  501 -0.00000000000E+00 -0.00000000000E+00 -0.55381477080E+02  0.55381477139E+02  0.25500000000E-02 0. -1.
    5000001    1    1    2    0    0 -0.77166362635E+02  0.31107670399E+03  0.12851352802E+04  0.13377742902E+04  0.18800000000E+03 0.  0.
   -5000001    1    1    2    0    0  0.77166362635E+02 -0.31107670399E+03  0.11586358460E+04  0.12167597902E+04  0.18800000000E+03 0.  0.
<mgrwt>
<rscale>  0 0.74406119E+03</rscale>
<asrwt>0</asrwt>
<pdfrwt beam="1">  1        2 0.35702183E+00 0.74406119E+03</pdfrwt>
<pdfrwt beam="2">  1       -2 0.79116389E-02 0.74406119E+03</pdfrwt>
<totfact> 0.45657743E+02</totfact>
</mgrwt>
</event>
<event>
 4    1  0.6024609E-005  0.4675846E+03  0.7818608E-02  0.1022604E+00
         -2   -1    0    0    0  501 -0.00000000000E+00  0.00000000000E+00  0.10815117485E+03  0.10815117488E+03  0.25500000000E-02 0. -1.
          2   -1    0    0  501    0  0.00000000000E+00 -0.00000000000E+00 -0.50539288572E+03  0.50539288572E+03  0.25500000000E-02 0.  1.
    5000001    1    1    2    0    0  0.69772571381E+02  0.93485673847E+02 -0.99493967712E+02  0.24259190535E+03  0.18800000000E+03 0.  0.
   -5000001    1    1    2    0    0 -0.69772571381E+02 -0.93485673847E+02 -0.29774774315E+03  0.37095215525E+03  0.18800000000E+03 0.  0.
<mgrwt>
<rscale>  0 0.46758458E+03</rscale>
<asrwt>0</asrwt>
<pdfrwt beam="1">  1        2 0.72198983E-01 0.46758458E+03</pdfrwt>
<pdfrwt beam="2">  1       -2 0.15450168E-01 0.46758458E+03</pdfrwt>
<totfact> 0.21947150E+03</totfact>
</mgrwt>
</event>
<event>
 4    1  0.6024609E-005  0.5131689E+03  0.7818608E-02  0.1010398E+00
          2   -1    0    0  501    0  0.00000000000E+00  0.00000000000E+00  0.16482043162E+04  0.16482043162E+04  0.25500000000E-02 0.  1.
         -2   -1    0    0    0  501 -0.00000000000E+00 -0.00000000000E+00 -0.39943817047E+02  0.39943817128E+02  0.25500000000E-02 0. -1.
    5000001    1    1    2    0    0 -0.11470046239E+03 -0.94286295160E+02  0.11064469706E+04  0.11320843609E+04  0.18800000000E+03 0.  0.
   -5000001    1    1    2    0    0  0.11470046239E+03  0.94286295160E+02  0.50181352855E+03  0.55606377239E+03  0.18800000000E+03 0.  0.
<mgrwt>
<rscale>  0 0.51316887E+03</rscale>
<asrwt>0</asrwt>
<pdfrwt beam="1">  1        2 0.23545781E+00 0.51316887E+03</pdfrwt>
<pdfrwt beam="2">  1       -2 0.57062584E-02 0.51316887E+03</pdfrwt>
<totfact> 0.20885427E+03</totfact>
</mgrwt>
</event>
<event>
 4    1  0.6024609E-005  0.6307842E+03  0.7818608E-02  0.9843520E-01
         -2   -1    0    0    0  501 -0.00000000000E+00  0.00000000000E+00  0.14400891145E+03  0.14400891147E+03  0.25500000000E-02 0. -1.
          2   -1    0    0  501    0  0.00000000000E+00 -0.00000000000E+00 -0.69073633301E+03  0.69073633301E+03  0.25500000000E-02 0.  1.
    5000001    1    1    2    0    0  0.38121826889E+02  0.23908412993E+03 -0.17509972026E+03  0.35301332398E+03  0.18800000000E+03 0.  0.
   -5000001    1    1    2    0    0 -0.38121826889E+02 -0.23908412993E+03 -0.37162770129E+03  0.48173192051E+03  0.18800000000E+03 0.  0.
<mgrwt>
<rscale>  0 0.63078423E+03</rscale>
<asrwt>0</asrwt>
<pdfrwt beam="1">  1        2 0.98676617E-01 0.63078423E+03</pdfrwt>
<pdfrwt beam="2">  1       -2 0.20572702E-01 0.63078423E+03</pdfrwt>
<totfact> 0.93150772E+02</totfact>
</mgrwt>
</event>
<event>
 4    1  0.6024609E-005  0.8955874E+03  0.7818608E-02  0.9431114E-01
         -2   -1    0    0    0  501 -0.00000000000E+00  0.00000000000E+00  0.13510538030E+03  0.13510538033E+03  0.25500000000E-02 0.  1.
          2   -1    0    0  501    0  0.00000000000E+00 -0.00000000000E+00 -0.14841688675E+04  0.14841688675E+04  0.25500000000E-02 0. -1.
    5000001    1    1    2    0    0 -0.39707955121E+03 -0.71959297067E+02 -0.58735241245E+03  0.73700554057E+03  0.18800000000E+03 0.  0.
   -5000001    1    1    2    0    0  0.39707955121E+03  0.71959297067E+02 -0.76171107474E+03  0.88226870726E+03  0.18800000000E+03 0.  0.
<mgrwt>
<rscale>  0 0.89558740E+03</rscale>
<asrwt>0</asrwt>
<pdfrwt beam="1">  1        2 0.21202411E+00 0.89558740E+03</pdfrwt>
<pdfrwt beam="2">  1       -2 0.19300769E-01 0.89558740E+03</pdfrwt>
<totfact> 0.33933586E+02</totfact>
</mgrwt>
</event>
<event>
 4    1  0.6024609E-005  0.2183248E+04  0.7818608E-02  0.8525433E-01
         -2   -1    0    0    0  501 -0.00000000000E+00  0.00000000000E+00  0.10910979003E+04  0.10910979004E+04  0.25500000000E-02 0. -1.
          2   -1    0    0  501    0  0.00000000000E+00 -0.00000000000E+00 -0.10921502869E+04  0.10921502869E+04  0.25500000000E-02 0.  1.
    5000001    1    1    2    0    0  0.52356059863E+03 -0.49856651259E+03  0.79547303047E+03  0.10912403998E+04  0.18800000000E+03 0.  0.
   -5000001    1    1    2    0    0 -0.52356059863E+03  0.49856651259E+03 -0.79652541699E+03  0.10920077874E+04  0.18800000000E+03 0.  0.
<mgrwt>
<rscale>  0 0.21832479E+04</rscale>
<asrwt>0</asrwt>
<pdfrwt beam="1">  1        2 0.15602147E+00 0.21832479E+04</pdfrwt>
<pdfrwt beam="2">  1       -2 0.15587113E+00 0.21832479E+04</pdfrwt>
<totfact> 0.61399049E+00</totfact>
</mgrwt>
</event>
<event>
 4    1  0.6024609E-005  0.5753328E+03  0.7818608E-02  0.9957947E-01
          2   -1    0    0  501    0  0.00000000000E+00  0.00000000000E+00  0.16492012954E+04  0.16492012954E+04  0.25500000000E-02 0.  1.
         -2   -1    0    0    0  501 -0.00000000000E+00 -0.00000000000E+00 -0.50176989224E+02  0.50176989288E+02  0.25500000000E-02 0. -1.
    5000001    1    1    2    0    0  0.28100959122E+02  0.21106773983E+03  0.66516768256E+03  0.72327816269E+03  0.18800000000E+03 0.  0.
   -5000001    1    1    2    0    0 -0.28100959122E+02 -0.21106773983E+03  0.93385662365E+03  0.97610012203E+03  0.18800000000E+03 0.  0.
<mgrwt>
<rscale>  0 0.57533279E+03</rscale>
<asrwt>0</asrwt>
<pdfrwt beam="1">  1        2 0.23560015E+00 0.57533279E+03</pdfrwt>
<pdfrwt beam="2">  1       -2 0.71681425E-02 0.57533279E+03</pdfrwt>
<totfact> 0.14556800E+03</totfact>
</mgrwt>
</event>
<event>
 4    1  0.6024609E-005  0.5083191E+03  0.7818608E-02  0.1011630E+00
          2   -1    0    0  501    0  0.00000000000E+00  0.00000000000E+00  0.22999469064E+04  0.22999469064E+04  0.25500000000E-02 0.  1.
         -2   -1    0    0    0  501 -0.00000000000E+00 -0.00000000000E+00 -0.28086329027E+02  0.28086329143E+02  0.25500000000E-02 0. -1.
    5000001    1    1    2    0    0 -0.15819741309E+03  0.65010027855E+02  0.11386026039E+04  0.11666244532E+04  0.18800000000E+03 0.  0.
   -5000001    1    1    2    0    0  0.15819741309E+03 -0.65010027855E+02  0.11332579735E+04  0.11614087824E+04  0.18800000000E+03 0.  0.
<mgrwt>
<rscale>  0 0.50831906E+03</rscale>
<asrwt>0</asrwt>
<pdfrwt beam="1">  1        2 0.32856383E+00 0.50831906E+03</pdfrwt>
<pdfrwt beam="2">  1       -2 0.40123329E-02 0.50831906E+03</pdfrwt>
<totfact> 0.16946421E+03</totfact>
</mgrwt>
</event>
<event>
 4    1  0.6024609E-005  0.4071429E+03  0.7818608E-02  0.1041334E+00
         -2   -1    0    0    0  501 -0.00000000000E+00  0.00000000000E+00  0.77205986721E+03  0.77205986721E+03  0.25500000000E-02 0. -1.
          2   -1    0    0  501    0  0.00000000000E+00 -0.00000000000E+00 -0.53676329281E+02  0.53676329342E+02  0.25500000000E-02 0.  1.
    5000001    1    1    2    0    0 -0.72842885993E+02 -0.13185833771E+02  0.40958513008E+03  0.45670989811E+03  0.18800000000E+03 0.  0.
   -5000001    1    1    2    0    0  0.72842885993E+02  0.13185833771E+02  0.30879840785E+03  0.36902629844E+03  0.18800000000E+03 0.  0.
<mgrwt>
<rscale>  0 0.40714292E+03</rscale>
<asrwt>0</asrwt>
<pdfrwt beam="1">  1        2 0.76680474E-02 0.40714292E+03</pdfrwt>
<pdfrwt beam="2">  1       -2 0.11029426E+00 0.40714292E+03</pdfrwt>
<totfact> 0.61511947E+02</totfact>
</mgrwt>
</event>
<event>
 4    1  0.6024609E-005  0.4404848E+03  0.7818608E-02  0.1030598E+00
         -2   -1    0    0    0  501 -0.00000000000E+00  0.00000000000E+00  0.23016087888E+02  0.23016088029E+02  0.25500000000E-02 0. -1.
          2   -1    0    0  501    0  0.00000000000E+00 -0.00000000000E+00 -0.21075130205E+04  0.21075130205E+04  0.25500000000E-02 0.  1.
    5000001    1    1    2    0    0  0.20113766508E+02 -0.10789169365E+03 -0.12039391501E+04  0.12234617519E+04  0.18800000000E+03 0.  0.
   -5000001    1    1    2    0    0 -0.20113766508E+02  0.10789169365E+03 -0.88055778246E+03  0.90706735660E+03  0.18800000000E+03 0.  0.
<mgrwt>
<rscale>  0 0.44048476E+03</rscale>
<asrwt>0</asrwt>
<pdfrwt beam="1">  1        2 0.30107317E+00 0.44048476E+03</pdfrwt>
<pdfrwt beam="2">  1       -2 0.32880139E-02 0.44048476E+03</pdfrwt>
<totfact> 0.28723340E+03</totfact>
</mgrwt>
</event>
<event>
 4    1  0.6024609E-005  0.9242651E+03  0.7818608E-02  0.9395747E-01
          2   -1    0    0  501    0  0.00000000000E+00  0.00000000000E+00  0.23088592854E+04  0.23088592854E+04  0.25500000000E-02 0.  1.
         -2   -1    0    0    0  501 -0.00000000000E+00 -0.00000000000E+00 -0.92498707819E+02  0.92498707854E+02  0.25500000000E-02 0. -1.
    5000001    1    1    2    0    0 -0.34830074509E+03 -0.20009419642E+03  0.77070967554E+03  0.88920666914E+03  0.18800000000E+03 0.  0.
   -5000001    1    1    2    0    0  0.34830074509E+03  0.20009419642E+03  0.14456509021E+04  0.15121513242E+04  0.18800000000E+03 0.  0.
<mgrwt>
<rscale>  0 0.92426511E+03</rscale>
<asrwt>0</asrwt>
<pdfrwt beam="1">  1        2 0.32983697E+00 0.92426511E+03</pdfrwt>
<pdfrwt beam="2">  1       -2 0.13214104E-01 0.92426511E+03</pdfrwt>
<totfact> 0.24395319E+02</totfact>
</mgrwt>
</event>
<event>
 4    1  0.6024609E-005  0.4274183E+03  0.7818608E-02  0.1034679E+00
          2   -1    0    0  501    0  0.00000000000E+00  0.00000000000E+00  0.71291614779E+02  0.71291614824E+02  0.25500000000E-02 0.  1.
         -2   -1    0    0    0  501 -0.00000000000E+00 -0.00000000000E+00 -0.64063081924E+03  0.64063081924E+03  0.25500000000E-02 0. -1.
    5000001    1    1    2    0    0  0.89911902311E+02  0.47089949569E+02 -0.29316140670E+03  0.36275229001E+03  0.18800000000E+03 0.  0.
   -5000001    1    1    2    0    0 -0.89911902311E+02 -0.47089949569E+02 -0.27617779776E+03  0.34917014406E+03  0.18800000000E+03 0.  0.
<mgrwt>
<rscale>  0 0.42741832E+03</rscale>
<asrwt>0</asrwt>
<pdfrwt beam="1">  1        2 0.10184517E-01 0.42741832E+03</pdfrwt>
<pdfrwt beam="2">  1       -2 0.91518685E-01 0.42741832E+03</pdfrwt>
<totfact> 0.66382975E+02</totfact>
</mgrwt>
</event>
<event>
 4    1  0.6024609E-005  0.6390235E+03  0.7818608E-02  0.9827597E-01
         -2   -1    0    0    0  501 -0.00000000000E+00  0.00000000000E+00  0.10396303647E+03  0.10396303650E+03  0.25500000000E-02 0. -1.
          2   -1    0    0  501    0  0.00000000000E+00 -0.00000000000E+00 -0.98196203954E+03  0.98196203954E+03  0.25500000000E-02 0.  1.
    5000001    1    1    2    0    0 -0.23916496133E+03  0.86420980460E+02 -0.51641403734E+03  0.60555422760E+03  0.18800000000E+03 0.  0.
   -5000001    1    1    2    0    0  0.23916496133E+03 -0.86420980460E+02 -0.36158496573E+03  0.48037084844E+03  0.18800000000E+03 0.  0.
<mgrwt>
<rscale>  0 0.63902349E+03</rscale>
<asrwt>0</asrwt>
<pdfrwt beam="1">  1        2 0.14028029E+00 0.63902349E+03</pdfrwt>
<pdfrwt beam="2">  1       -2 0.14851863E-01 0.63902349E+03</pdfrwt>
<totfact> 0.10314437E+03</totfact>
</mgrwt>
</event>
<event>
 4    1  0.6024609E-005  0.5465013E+03  0.7818608E-02  0.1002307E+00
          2   -1    0    0  501    0  0.00000000000E+00  0.00000000000E+00  0.36000009680E+03  0.36000009681E+03  0.25500000000E-02 0.  1.
         -2   -1    0    0    0  501 -0.00000000000E+00 -0.00000000000E+00 -0.20740530305E+03  0.20740530307E+03  0.25500000000E-02 0. -1.
    5000001    1    1    2    0    0  0.13371996035E+03  0.12628293575E+03  0.15325076753E+03  0.30439810348E+03  0.18800000000E+03 0.  0.
   -5000001    1    1    2    0    0 -0.13371996035E+03 -0.12628293575E+03 -0.65597378021E+00  0.26300729640E+03  0.18800000000E+03 0.  0.
<mgrwt>
<rscale>  0 0.54650134E+03</rscale>
<asrwt>0</asrwt>
<pdfrwt beam="1">  1        2 0.51428586E-01 0.54650134E+03</pdfrwt>
<pdfrwt beam="2">  1       -2 0.29629329E-01 0.54650134E+03</pdfrwt>
<totfact> 0.10225319E+03</totfact>
</mgrwt>
</event>
<event>
 4    1  0.6024609E-005  0.9796086E+03  0.7818608E-02  0.9331197E-01
         -2   -1    0    0    0  501 -0.00000000000E+00  0.00000000000E+00  0.15853801543E+03  0.15853801545E+03  0.25500000000E-02 0. -1.
          2   -1    0    0  501    0  0.00000000000E+00 -0.00000000000E+00 -0.15132538821E+04  0.15132538821E+04  0.25500000000E-02 0.  1.
    5000001    1    1    2    0    0  0.24272206869E+03 -0.38159650973E+03 -0.68736276276E+03  0.84400323844E+03  0.18800000000E+03 0.  0.
   -5000001    1    1    2    0    0 -0.24272206869E+03  0.38159650973E+03 -0.66735310393E+03  0.82778865914E+03  0.18800000000E+03 0.  0.
<mgrwt>
<rscale>  0 0.97960863E+03</rscale>
<asrwt>0</asrwt>
<pdfrwt beam="1">  1        2 0.21617912E+00 0.97960863E+03</pdfrwt>
<pdfrwt beam="2">  1       -2 0.22648289E-01 0.97960863E+03</pdfrwt>
<totfact> 0.24581376E+02</totfact>
</mgrwt>
</event>
<event>
 4    1  0.6024609E-005  0.7349067E+03  0.7818608E-02  0.9659331E-01
         -2   -1    0    0    0  501 -0.00000000000E+00  0.00000000000E+00  0.10927447992E+03  0.10927447995E+03  0.25500000000E-02 0. -1.
          2   -1    0    0  501    0  0.00000000000E+00 -0.00000000000E+00 -0.12356220830E+04  0.12356220830E+04  0.25500000000E-02 0.  1.
    5000001    1    1    2    0    0 -0.24123457766E+03  0.10783799193E+02 -0.19096505295E+03  0.36072435908E+03  0.18800000000E+03 0.  0.
   -5000001    1    1    2    0    0  0.24123457766E+03 -0.10783799193E+02 -0.93538255012E+03  0.98417220386E+03  0.18800000000E+03 0.  0.
<mgrwt>
<rscale>  0 0.73490669E+03</rscale>
<asrwt>0</asrwt>
<pdfrwt beam="1">  1        2 0.17651743E+00 0.73490669E+03</pdfrwt>
<pdfrwt beam="2">  1       -2 0.15610641E-01 0.73490669E+03</pdfrwt>
<totfact> 0.67192558E+02</totfact>
</mgrwt>
</event>
<event>
 4    1  0.6024609E-005  0.6004928E+03  0.7818608E-02  0.9904384E-01
         -2   -1    0    0    0  501 -0.00000000000E+00  0.00000000000E+00  0.21457913925E+03  0.21457913927E+03  0.25500000000E-02 0. -1.
          2   -1    0    0  501    0  0.00000000000E+00 -0.00000000000E+00 -0.42011497783E+03  0.42011497784E+03  0.25500000000E-02 0.  1.
    5000001    1    1    2    0    0  0.11662758523E+03 -0.67835723145E+02  0.99440186366E+02  0.25186510206E+03  0.18800000000E+03 0.  0.
   -5000001    1    1    2    0    0 -0.11662758523E+03  0.67835723145E+02 -0.30497602495E+03  0.38282901505E+03  0.18800000000E+03 0.  0.
<mgrwt>
<rscale>  0 0.60049283E+03</rscale>
<asrwt>0</asrwt>
<pdfrwt beam="1">  1        2 0.60016425E-01 0.60049283E+03</pdfrwt>
<pdfrwt beam="2">  1       -2 0.30654163E-01 0.60049283E+03</pdfrwt>
<totfact> 0.80880104E+02</totfact>
</mgrwt>
</event>
<event>
 4    1  0.6024609E-005  0.5447365E+03  0.7818608E-02  0.1002720E+00
         -2   -1    0    0    0  501 -0.00000000000E+00  0.00000000000E+00  0.82155732016E+02  0.82155732056E+02  0.25500000000E-02 0. -1.
          2   -1    0    0  501    0  0.00000000000E+00 -0.00000000000E+00 -0.90297359258E+03  0.90297359258E+03  0.25500000000E-02 0.  1.
    5000001    1    1    2    0    0 -0.14399464192E+03 -0.76605417990E+02 -0.21035131487E+03  0.32587501076E+03  0.18800000000E+03 0.  0.
   -5000001    1    1    2    0    0  0.14399464192E+03  0.76605417990E+02 -0.61046654569E+03  0.65925431388E+03  0.18800000000E+03 0.  0.
<mgrwt>
<rscale>  0 0.54473647E+03</rscale>
<asrwt>0</asrwt>
<pdfrwt beam="1">  1        2 0.12899622E+00 0.54473647E+03</pdfrwt>
<pdfrwt beam="2">  1       -2 0.11736534E-01 0.54473647E+03</pdfrwt>
<totfact> 0.17127025E+03</totfact>
</mgrwt>
</event>
<event>
 4    1  0.6024609E-005  0.1052643E+04  0.7818608E-02  0.9252620E-01
         -2   -1    0    0    0  501 -0.00000000000E+00  0.00000000000E+00  0.12980359452E+03  0.12980359455E+03  0.25500000000E-02 0. -1.
          2   -1    0    0  501    0  0.00000000000E+00 -0.00000000000E+00 -0.21341027182E+04  0.21341027182E+04  0.25500000000E-02 0.  1.
    5000001    1    1    2    0    0  0.52580457463E+02  0.47656423636E+03 -0.12356951607E+04  0.13387175602E+04  0.18800000000E+03 0.  0.
   -5000001    1    1    2    0    0 -0.52580457463E+02 -0.47656423636E+03 -0.76860396297E+03  0.92518875252E+03  0.18800000000E+03 0.  0.
<mgrwt>
<rscale>  0 0.10526428E+04</rscale>
<asrwt>0</asrwt>
<pdfrwt beam="1">  1        2 0.30487180E+00 0.10526428E+04</pdfrwt>
<pdfrwt beam="2">  1       -2 0.18543372E-01 0.10526428E+04</pdfrwt>
<totfact> 0.16660705E+02</totfact>
</mgrwt>
</event>
<event>
 4    1  0.6024609E-005  0.4731929E+03  0.7818608E-02  0.1021023E+00
         -2   -1    0    0    0  501 -0.00000000000E+00  0.00000000000E+00  0.84660613823E+02  0.84660613861E+02  0.25500000000E-02 0. -1.
          2   -1    0    0  501    0  0.00000000000E+00 -0.00000000000E+00 -0.66120337801E+03  0.66120337802E+03  0.25500000000E-02 0.  1.
    5000001    1    1    2    0    0  0.19099511107E+02  0.12239837591E+03 -0.17365253195E+03  0.28433317711E+03  0.18800000000E+03 0.  0.
   -5000001    1    1    2    0    0 -0.19099511107E+02 -0.12239837591E+03 -0.40289023224E+03  0.46153081477E+03  0.18800000000E+03 0.  0.
<mgrwt>
<rscale>  0 0.47319292E+03</rscale>
<asrwt>0</asrwt>
<pdfrwt beam="1">  1        2 0.94457622E-01 0.47319292E+03</pdfrwt>
<pdfrwt beam="2">  1       -2 0.12094374E-01 0.47319292E+03</pdfrwt>
<totfact> 0.24127250E+03</totfact>
</mgrwt>
</event>
<event>
 4    1  0.6024609E-005  0.5952289E+03  0.7818608E-02  0.9915354E-01
          2   -1    0    0  501    0  0.00000000000E+00  0.00000000000E+00  0.20389595540E+03  0.20389595542E+03  0.25500000000E-02 0.  1.
         -2   -1    0    0    0  501 -0.00000000000E+00 -0.00000000000E+00 -0.43440956094E+03  0.43440956095E+03  0.25500000000E-02 0. -1.
    5000001    1    1    2    0    0 -0.20028321041E+03  0.44987347937E+02 -0.22820299502E+03  0.35994142966E+03  0.18800000000E+03 0.  0.
   -5000001    1    1    2    0    0  0.20028321041E+03 -0.44987347937E+02 -0.23106105168E+01  0.27836408671E+03  0.18800000000E+03 0.  0.
<mgrwt>
<rscale>  0 0.59522887E+03</rscale>
<asrwt>0</asrwt>
<pdfrwt beam="1">  1        2 0.29127994E-01 0.59522887E+03</pdfrwt>
<pdfrwt beam="2">  1       -2 0.62058509E-01 0.59522887E+03</pdfrwt>
<totfact> 0.44756630E+02</totfact>
</mgrwt>
</event>
<event>
 4    1  0.6024609E-005  0.5572490E+03  0.7818608E-02  0.9998299E-01
          2   -1    0    0  501    0  0.00000000000E+00  0.00000000000E+00  0.25803983472E+03  0.25803983473E+03  0.25500000000E-02 0.  1.
         -2   -1    0    0    0  501 -0.00000000000E+00 -0.00000000000E+00 -0.30085127184E+03  0.30085127185E+03  0.25500000000E-02 0. -1.
    5000001    1    1    2    0    0  0.88053353939E+02  0.17883624305E+03  0.29258658295E+02  0.27556462772E+03  0.18800000000E+03 0.  0.
   -5000001    1    1    2    0    0 -0.88053353939E+02 -0.17883624305E+03 -0.72070095415E+02  0.28332647885E+03  0.18800000000E+03 0.  0.
<mgrwt>
<rscale>  0 0.55724900E+03</rscale>
<asrwt>0</asrwt>
<pdfrwt beam="1">  1        2 0.36862834E-01 0.55724900E+03</pdfrwt>
<pdfrwt beam="2">  1       -2 0.42978753E-01 0.55724900E+03</pdfrwt>
<totfact> 0.72810437E+02</totfact>
</mgrwt>
</event>
<event>
 4    1  0.6024609E-005  0.5180952E+03  0.7818608E-02  0.1009161E+00
         -2   -1    0    0    0  501 -0.00000000000E+00  0.00000000000E+00  0.43530979539E+02  0.43530979614E+02  0.25500000000E-02 0.  1.
          2   -1    0    0  501    0  0.00000000000E+00 -0.00000000000E+00 -0.15415607737E+04  0.15415607737E+04  0.25500000000E-02 0. -1.
    5000001    1    1    2    0    0  0.10790303413E+03  0.13050016180E+03 -0.91903651831E+03  0.95322897511E+03  0.18800000000E+03 0.  0.
   -5000001    1    1    2    0    0 -0.10790303413E+03 -0.13050016180E+03 -0.57899327586E+03  0.63186277822E+03  0.18800000000E+03 0.  0.
<mgrwt>
<rscale>  0 0.51809517E+03</rscale>
<asrwt>0</asrwt>
<pdfrwt beam="1">  1        2 0.22022293E+00 0.51809517E+03</pdfrwt>
<pdfrwt beam="2">  1       -2 0.62187123E-02 0.51809517E+03</pdfrwt>
<totfact> 0.20704852E+03</totfact>
</mgrwt>
</event>
<event>
 4    1  0.6024609E-005  0.7494137E+03  0.7818608E-02  0.9636271E-01
          2   -1    0    0  501    0  0.00000000000E+00  0.00000000000E+00  0.62632588704E+03  0.62632588705E+03  0.25500000000E-02 0.  1.
         -2   -1    0    0    0  501 -0.00000000000E+00 -0.00000000000E+00 -0.22417279977E+03  0.22417279979E+03  0.25500000000E-02 0. -1.
    5000001    1    1    2    0    0 -0.10725113151E+03 -0.30284279930E+03  0.24981932867E+03  0.44829707034E+03  0.18800000000E+03 0.  0.
   -5000001    1    1    2    0    0  0.10725113151E+03  0.30284279930E+03  0.15233375860E+03  0.40220161649E+03  0.18800000000E+03 0.  0.
<mgrwt>
<rscale>  0 0.74941371E+03</rscale>
<asrwt>0</asrwt>
<pdfrwt beam="1">  1        2 0.89475128E-01 0.74941371E+03</pdfrwt>
<pdfrwt beam="2">  1       -2 0.32024685E-01 0.74941371E+03</pdfrwt>
<totfact> 0.46948093E+02</totfact>
</mgrwt>
</event>
<event>
 4    1  0.6024609E-005  0.1173039E+04  0.7818608E-02  0.9136788E-01
         -2   -1    0    0    0  501 -0.00000000000E+00  0.00000000000E+00  0.41479247640E+03  0.41479247640E+03  0.25500000000E-02 0. -1.
          2   -1    0    0  501    0  0.00000000000E+00 -0.00000000000E+00 -0.82934298068E+03  0.82934298068E+03  0.25500000000E-02 0.  1.
    5000001    1    1    2    0    0 -0.11757300583E+03 -0.51087225248E+03 -0.40240233043E+03  0.68708478777E+03  0.18800000000E+03 0.  0.
   -5000001    1    1    2    0    0  0.11757300583E+03  0.51087225248E+03 -0.12148173850E+02  0.55705066931E+03  0.18800000000E+03 0.  0.
<mgrwt>
<rscale>  0 0.11730392E+04</rscale>
<asrwt>0</asrwt>
<pdfrwt beam="1">  1        2 0.11847757E+00 0.11730392E+04</pdfrwt>
<pdfrwt beam="2">  1       -2 0.59256068E-01 0.11730392E+04</pdfrwt>
<totfact> 0.95389992E+01</totfact>
</mgrwt>
</event>
<event>
 4    1  0.6024609E-005  0.1390604E+04  0.7818608E-02  0.8960648E-01
          2   -1    0    0  501    0  0.00000000000E+00  0.00000000000E+00  0.24528683024E+03  0.24528683026E+03  0.25500000000E-02 0.  1.
         -2   -1    0    0    0  501 -0.00000000000E+00 -0.00000000000E+00 -0.19709365477E+04  0.19709365477E+04  0.25500000000E-02 0. -1.
    5000001    1    1    2    0    0  0.59335355620E+03 -0.28126057944E+03 -0.65549008032E+03  0.94667164402E+03  0.18800000000E+03 0.  0.
   -5000001    1    1    2    0    0 -0.59335355620E+03  0.28126057944E+03 -0.10701596372E+04  0.12695517340E+04  0.18800000000E+03 0.  0.
<mgrwt>
<rscale>  0 0.13906039E+04</rscale>
<asrwt>0</asrwt>
<pdfrwt beam="1">  1        2 0.35040977E-01 0.13906039E+04</pdfrwt>
<pdfrwt beam="2">  1       -2 0.28156235E+00 0.13906039E+04</pdfrwt>
<totfact> 0.60266733E+00</totfact>
</mgrwt>
</event>
<event>
 4    1  0.6024609E-005  0.5242679E+03  0.7818608E-02  0.1007632E+00
         -2   -1    0    0    0  501 -0.00000000000E+00  0.00000000000E+00  0.37904555383E+02  0.37904555468E+02  0.25500000000E-02 0. -1.
          2   -1    0    0  501    0  0.00000000000E+00 -0.00000000000E+00 -0.18128222058E+04  0.18128222058E+04  0.25500000000E-02 0.  1.
    5000001    1    1    2    0    0  0.14161045164E+03  0.29906997660E+02 -0.49400886692E+03  0.54802984327E+03  0.18800000000E+03 0.  0.
   -5000001    1    1    2    0    0 -0.14161045164E+03 -0.29906997660E+02 -0.12809087835E+04  0.13026969180E+04  0.18800000000E+03 0.  0.
<mgrwt>
<rscale>  0 0.52426795E+03</rscale>
<asrwt>0</asrwt>
<pdfrwt beam="1">  1        2 0.25897455E+00 0.52426795E+03</pdfrwt>
<pdfrwt beam="2">  1       -2 0.54149376E-02 0.52426795E+03</pdfrwt>
<totfact> 0.18704520E+03</totfact>
</mgrwt>
</event>
<event>
 4    1  0.6024609E-005  0.5180965E+03  0.7818608E-02  0.1009160E+00
          2   -1    0    0  501    0  0.00000000000E+00  0.00000000000E+00  0.54544427581E+03  0.54544427581E+03  0.25500000000E-02 0.  1.
         -2   -1    0    0    0  501 -0.00000000000E+00 -0.00000000000E+00 -0.12302998598E+03  0.12302998601E+03  0.25500000000E-02 0. -1.
    5000001    1    1    2    0    0 -0.85608018304E+02  0.95593471344E+02  0.51637240974E+02  0.23340361869E+03  0.18800000000E+03 0.  0.
   -5000001    1    1    2    0    0  0.85608018304E+02 -0.95593471344E+02  0.37077704885E+03  0.43507064313E+03  0.18800000000E+03 0.  0.
<mgrwt>
<rscale>  0 0.51809652E+03</rscale>
<asrwt>0</asrwt>
<pdfrwt beam="1">  1        2 0.77920611E-01 0.51809652E+03</pdfrwt>
<pdfrwt beam="2">  1       -2 0.17575712E-01 0.51809652E+03</pdfrwt>
<totfact> 0.16182992E+03</totfact>
</mgrwt>
</event>
<event>
 4    1  0.6024609E-005  0.5008018E+03  0.7818608E-02  0.1013570E+00
         -2   -1    0    0    0  501 -0.00000000000E+00  0.00000000000E+00  0.72906556963E+03  0.72906556963E+03  0.25500000000E-02 0. -1.
          2   -1    0    0  501    0  0.00000000000E+00 -0.00000000000E+00 -0.86001337158E+02  0.86001337196E+02  0.25500000000E-02 0.  1.
    5000001    1    1    2    0    0 -0.83749292738E+02  0.12073492368E+03  0.44511411035E+03  0.50503607501E+03  0.18800000000E+03 0.  0.
   -5000001    1    1    2    0    0  0.83749292738E+02 -0.12073492368E+03  0.19795012212E+03  0.31003083182E+03  0.18800000000E+03 0.  0.
<mgrwt>
<rscale>  0 0.50080181E+03</rscale>
<asrwt>0</asrwt>
<pdfrwt beam="1">  1        2 0.12285905E-01 0.50080181E+03</pdfrwt>
<pdfrwt beam="2">  1       -2 0.10415223E+00 0.50080181E+03</pdfrwt>
<totfact> 0.38852837E+02</totfact>
</mgrwt>
</event>
<event>
 4    1  0.6024609E-005  0.4939952E+03  0.7818608E-02  0.1015358E+00
          2   -1    0    0  501    0  0.00000000000E+00  0.00000000000E+00  0.97097156731E+03  0.97097156731E+03  0.25500000000E-02 0.  1.
         -2   -1    0    0    0  501 -0.00000000000E+00 -0.00000000000E+00 -0.62831728981E+02  0.62831729033E+02  0.25500000000E-02 0. -1.
    5000001    1    1    2    0    0 -0.13197447224E+03  0.31231637408E+02  0.63251993242E+03  0.67366025667E+03  0.18800000000E+03 0.  0.
   -5000001    1    1    2    0    0  0.13197447224E+03 -0.31231637408E+02  0.27561990590E+03  0.36014303968E+03  0.18800000000E+03 0.  0.
<mgrwt>
<rscale>  0 0.49399523E+03</rscale>
<asrwt>0</asrwt>
<pdfrwt beam="1">  1        2 0.13871022E+00 0.49399523E+03</pdfrwt>
<pdfrwt beam="2">  1       -2 0.89759619E-02 0.49399523E+03</pdfrwt>
<totfact> 0.23970630E+03</totfact>
</mgrwt>
</event>
<event>
 4    1  0.6024609E-005  0.6638405E+03  0.7818608E-02  0.9781150E-01
          2   -1    0    0  501    0  0.00000000000E+00  0.00000000000E+00  0.17106849291E+04  0.17106849291E+04  0.25500000000E-02 0.  1.
         -2   -1    0    0    0  501 -0.00000000000E+00 -0.00000000000E+00 -0.64401710943E+02  0.64401710993E+02  0.25500000000E-02 0. -1.
    5000001    1    1    2    0    0  0.25957521029E+03 -0.31427203167E+02  0.60822266143E+03  0.68821927086E+03  0.18800000000E+03 0.  0.
   -5000001    1    1    2    0    0 -0.25957521029E+03  0.31427203167E+02  0.10380605568E+04  0.10868673693E+04  0.18800000000E+03 0.  0.
<mgrwt>
<rscale>  0 0.66384045E+03</rscale>
<asrwt>0</asrwt>
<pdfrwt beam="1">  1        2 0.24438359E+00 0.66384045E+03</pdfrwt>
<pdfrwt beam="2">  1       -2 0.92002433E-02 0.66384045E+03</pdfrwt>
<totfact> 0.90556749E+02</totfact>
</mgrwt>
</event>
<event>
 4    1  0.6024609E-005  0.8132049E+03  0.7818608E-02  0.9541098E-01
          2   -1    0    0  501    0  0.00000000000E+00  0.00000000000E+00  0.84420789423E+03  0.84420789423E+03  0.25500000000E-02 0.  1.
         -2   -1    0    0    0  501 -0.00000000000E+00 -0.00000000000E+00 -0.19583512827E+03  0.19583512828E+03  0.25500000000E-02 0. -1.
    5000001    1    1    2    0    0  0.10990504889E+03 -0.33893384595E+03  0.25382950727E+03  0.47616036213E+03  0.18800000000E+03 0.  0.
   -5000001    1    1    2    0    0 -0.10990504889E+03  0.33893384595E+03  0.39454325870E+03  0.56388266039E+03  0.18800000000E+03 0.  0.
<mgrwt>
<rscale>  0 0.81320492E+03</rscale>
<asrwt>0</asrwt>
<pdfrwt beam="1">  1        2 0.12060113E+00 0.81320492E+03</pdfrwt>
<pdfrwt beam="2">  1       -2 0.27976447E-01 0.81320492E+03</pdfrwt>
<totfact> 0.41436450E+02</totfact>
</mgrwt>
</event>
<event>
 4    1  0.6024609E-005  0.4826640E+03  0.7818608E-02  0.1018406E+00
          2   -1    0    0  501    0  0.00000000000E+00  0.00000000000E+00  0.69916240722E+03  0.69916240722E+03  0.25500000000E-02 0.  1.
         -2   -1    0    0    0  501 -0.00000000000E+00 -0.00000000000E+00 -0.83301293945E+02  0.83301293984E+02  0.25500000000E-02 0. -1.
    5000001    1    1    2    0    0 -0.14995229951E+03  0.50575696320E+01  0.33977512331E+03  0.41629605519E+03  0.18800000000E+03 0.  0.
   -5000001    1    1    2    0    0  0.14995229951E+03 -0.50575696320E+01  0.27608598996E+03  0.36616764602E+03  0.18800000000E+03 0.  0.
<mgrwt>
<rscale>  0 0.48266400E+03</rscale>
<asrwt>0</asrwt>
<pdfrwt beam="1">  1        2 0.99880347E-01 0.48266400E+03</pdfrwt>
<pdfrwt beam="2">  1       -2 0.11900184E-01 0.48266400E+03</pdfrwt>
<totfact> 0.23167922E+03</totfact>
</mgrwt>
</event>
<event>
 4    1  0.6024609E-005  0.3991189E+03  0.7818608E-02  0.1044085E+00
          2   -1    0    0  501    0  0.00000000000E+00  0.00000000000E+00  0.11948600748E+04  0.11948600748E+04  0.25500000000E-02 0.  1.
         -2   -1    0    0    0  501 -0.00000000000E+00 -0.00000000000E+00 -0.33329398422E+02  0.33329398520E+02  0.25500000000E-02 0. -1.
    5000001    1    1    2    0    0 -0.43901257833E+02  0.22001704581E+02  0.72072356932E+03  0.74645687004E+03  0.18800000000E+03 0.  0.
   -5000001    1    1    2    0    0  0.43901257833E+02 -0.22001704581E+02  0.44080710709E+03  0.48173260333E+03  0.18800000000E+03 0.  0.
<mgrwt>
<rscale>  0 0.39911887E+03</rscale>
<asrwt>0</asrwt>
<pdfrwt beam="1">  1        2 0.17069426E+00 0.39911887E+03</pdfrwt>
<pdfrwt beam="2">  1       -2 0.47613436E-02 0.39911887E+03</pdfrwt>
<totfact> 0.47834688E+03</totfact>
</mgrwt>
</event>
<event>
 4    1  0.6024609E-005  0.8091892E+03  0.7818608E-02  0.9546811E-01
         -2   -1    0    0    0  501 -0.00000000000E+00  0.00000000000E+00  0.83964843119E+02  0.83964843158E+02  0.25500000000E-02 0. -1.
          2   -1    0    0  501    0  0.00000000000E+00 -0.00000000000E+00 -0.19495873981E+04  0.19495873981E+04  0.25500000000E-02 0.  1.
    5000001    1    1    2    0    0 -0.27919281058E+03  0.12029552901E+03 -0.45643190231E+03  0.57973590645E+03  0.18800000000E+03 0.  0.
   -5000001    1    1    2    0    0  0.27919281058E+03 -0.12029552901E+03 -0.14091906526E+04  0.14538163348E+04  0.18800000000E+03 0.  0.
<mgrwt>
<rscale>  0 0.80918922E+03</rscale>
<asrwt>0</asrwt>
<pdfrwt beam="1">  1        2 0.27851246E+00 0.80918922E+03</pdfrwt>
<pdfrwt beam="2">  1       -2 0.11994979E-01 0.80918922E+03</pdfrwt>
<totfact> 0.44024897E+02</totfact>
</mgrwt>
</event>
<event>
 4    1  0.6024609E-005  0.4580920E+03  0.7818608E-02  0.1025336E+00
         -2   -1    0    0    0  501 -0.00000000000E+00  0.00000000000E+00  0.82230477261E+02  0.82230477301E+02  0.25500000000E-02 0. -1.
          2   -1    0    0  501    0  0.00000000000E+00 -0.00000000000E+00 -0.63798803767E+03  0.63798803768E+03  0.25500000000E-02 0.  1.
    5000001    1    1    2    0    0  0.12774087986E+03 -0.56142092945E+00 -0.32234807122E+03  0.39442404415E+03  0.18800000000E+03 0.  0.
   -5000001    1    1    2    0    0 -0.12774087986E+03  0.56142092945E+00 -0.23340948918E+03  0.32579447083E+03  0.18800000000E+03 0.  0.
<mgrwt>
<rscale>  0 0.45809196E+03</rscale>
<asrwt>0</asrwt>
<pdfrwt beam="1">  1        2 0.91141146E-01 0.45809196E+03</pdfrwt>
<pdfrwt beam="2">  1       -2 0.11747211E-01 0.45809196E+03</pdfrwt>
<totfact> 0.26395318E+03</totfact>
</mgrwt>
</event>
<event>
 4    1  0.6024609E-005  0.4664646E+03  0.7818608E-02  0.1022923E+00
         -2   -1    0    0    0  501 -0.00000000000E+00  0.00000000000E+00  0.58943979559E+03  0.58943979559E+03  0.25500000000E-02 0. -1.
          2   -1    0    0  501    0  0.00000000000E+00 -0.00000000000E+00 -0.92286433705E+02  0.92286433740E+02  0.25500000000E-02 0.  1.
    5000001    1    1    2    0    0  0.12122857981E+03 -0.65991823294E+02  0.24650606005E+03  0.33935310069E+03  0.18800000000E+03 0.  0.
   -5000001    1    1    2    0    0 -0.12122857981E+03  0.65991823294E+02  0.25064730183E+03  0.34237312865E+03  0.18800000000E+03 0.  0.
<mgrwt>
<rscale>  0 0.46646456E+03</rscale>
<asrwt>0</asrwt>
<pdfrwt beam="1">  1        2 0.13183777E-01 0.46646456E+03</pdfrwt>
<pdfrwt beam="2">  1       -2 0.84205683E-01 0.46646456E+03</pdfrwt>
<totfact> 0.58251839E+02</totfact>
</mgrwt>
</event>
<event>
 4    1  0.6024609E-005  0.5824448E+03  0.7818608E-02  0.9942512E-01
          2   -1    0    0  501    0  0.00000000000E+00  0.00000000000E+00  0.34370667650E+03  0.34370667651E+03  0.25500000000E-02 0.  1.
         -2   -1    0    0    0  501 -0.00000000000E+00 -0.00000000000E+00 -0.24675251762E+03  0.24675251763E+03  0.25500000000E-02 0. -1.
    5000001    1    1    2    0    0 -0.43351552770E+02 -0.21363876327E+03  0.93193079433E+02  0.30257202176E+03  0.18800000000E+03 0.  0.
   -5000001    1    1    2    0    0  0.43351552770E+02  0.21363876327E+03  0.37610794460E+01  0.28788717237E+03  0.18800000000E+03 0.  0.
<mgrwt>
<rscale>  0 0.58244481E+03</rscale>
<asrwt>0</asrwt>
<pdfrwt beam="1">  1        2 0.49100953E-01 0.58244481E+03</pdfrwt>
<pdfrwt beam="2">  1       -2 0.35250360E-01 0.58244481E+03</pdfrwt>
<totfact> 0.77776828E+02</totfact>
</mgrwt>
</event>
<event>
 4    1  0.6024609E-005  0.4371800E+03  0.7818608E-02  0.1031616E+00
         -2   -1    0    0    0  501 -0.00000000000E+00  0.00000000000E+00  0.17605967827E+04  0.17605967827E+04  0.25500000000E-02 0. -1.
          2   -1    0    0  501    0  0.00000000000E+00 -0.00000000000E+00 -0.27139429587E+02  0.27139429706E+02  0.25500000000E-02 0.  1.
    5000001    1    1    2    0    0 -0.10307343819E+03 -0.11071304158E+02  0.69857739627E+03  0.73082219863E+03  0.18800000000E+03 0.  0.
   -5000001    1    1    2    0    0  0.10307343819E+03  0.11071304158E+02  0.10348799569E+04  0.10569140138E+04  0.18800000000E+03 0.  0.
<mgrwt>
<rscale>  0 0.43718002E+03</rscale>
<asrwt>0</asrwt>
<pdfrwt beam="1">  1        2 0.38770602E-02 0.43718002E+03</pdfrwt>
<pdfrwt beam="2">  1       -2 0.25151390E+00 0.43718002E+03</pdfrwt>
<totfact> 0.15409845E+02</totfact>
</mgrwt>
</event>
<event>
 4    1  0.6024609E-005  0.8873987E+03  0.7818608E-02  0.9441472E-01
         -2   -1    0    0    0  501 -0.00000000000E+00  0.00000000000E+00  0.66517647580E+03  0.66517647580E+03  0.25500000000E-02 0. -1.
          2   -1    0    0  501    0  0.00000000000E+00 -0.00000000000E+00 -0.29596524165E+03  0.29596524166E+03  0.25500000000E-02 0.  1.
    5000001    1    1    2    0    0 -0.98994751155E+02 -0.38790184248E+03  0.22301089405E+03  0.49532379210E+03  0.18800000000E+03 0.  0.
   -5000001    1    1    2    0    0  0.98994751155E+02  0.38790184248E+03  0.14620034010E+03  0.46581792537E+03  0.18800000000E+03 0.  0.
<mgrwt>
<rscale>  0 0.88739871E+03</rscale>
<asrwt>0</asrwt>
<pdfrwt beam="1">  1        2 0.42280749E-01 0.88739871E+03</pdfrwt>
<pdfrwt beam="2">  1       -2 0.95025210E-01 0.88739871E+03</pdfrwt>
<totfact> 0.11324041E+02</totfact>
</mgrwt>
</event>
<event>
 4    1  0.6024609E-005  0.7333446E+03  0.7818608E-02  0.9661849E-01
         -2   -1    0    0    0  501 -0.00000000000E+00  0.00000000000E+00  0.55877694919E+02  0.55877694977E+02  0.25500000000E-02 0. -1.
          2   -1    0    0  501    0  0.00000000000E+00 -0.00000000000E+00 -0.24061221417E+04  0.24061221417E+04  0.25500000000E-02 0.  1.
    5000001    1    1    2    0    0 -0.12274793346E+03  0.24812750461E+03 -0.16783723064E+04  0.17114064136E+04  0.18800000000E+03 0.  0.
   -5000001    1    1    2    0    0  0.12274793346E+03 -0.24812750461E+03 -0.67187214040E+03  0.75059342307E+03  0.18800000000E+03 0.  0.
<mgrwt>
<rscale>  0 0.73334455E+03</rscale>
<asrwt>0</asrwt>
<pdfrwt beam="1">  1        2 0.34373167E+00 0.73334455E+03</pdfrwt>
<pdfrwt beam="2">  1       -2 0.79825294E-02 0.73334455E+03</pdfrwt>
<totfact> 0.50297233E+02</totfact>
</mgrwt>
</event>
<event>
 4    1  0.6024609E-005  0.5635234E+03  0.7818608E-02  0.9984114E-01
         -2   -1    0    0    0  501 -0.00000000000E+00  0.00000000000E+00  0.11953121234E+03  0.11953121236E+03  0.25500000000E-02 0. -1.
          2   -1    0    0  501    0  0.00000000000E+00 -0.00000000000E+00 -0.66417519942E+03  0.66417519942E+03  0.25500000000E-02 0.  1.
    5000001    1    1    2    0    0  0.57046626055E+02 -0.17639558075E+03 -0.40912265125E+03  0.48692408260E+03  0.18800000000E+03 0.  0.
   -5000001    1    1    2    0    0 -0.57046626055E+02  0.17639558075E+03 -0.13552133583E+03  0.29678232919E+03  0.18800000000E+03 0.  0.
<mgrwt>
<rscale>  0 0.56352344E+03</rscale>
<asrwt>0</asrwt>
<pdfrwt beam="1">  1        2 0.94882170E-01 0.56352344E+03</pdfrwt>
<pdfrwt beam="2">  1       -2 0.17075888E-01 0.56352344E+03</pdfrwt>
<totfact> 0.13488423E+03</totfact>
</mgrwt>
</event>
<event>
 4    1  0.6024609E-005  0.6228314E+03  0.7818608E-02  0.9859139E-01
         -2   -1    0    0    0  501 -0.00000000000E+00  0.00000000000E+00  0.80491384642E+02  0.80491384682E+02  0.25500000000E-02 0. -1.
          2   -1    0    0  501    0  0.00000000000E+00 -0.00000000000E+00 -0.12048461032E+04  0.12048461032E+04  0.25500000000E-02 0.  1.
    5000001    1    1    2    0    0  0.19520495016E+03 -0.12380458233E+02 -0.24664379437E+03  0.36665434623E+03  0.18800000000E+03 0.  0.
   -5000001    1    1    2    0    0 -0.19520495016E+03  0.12380458233E+02 -0.87771092416E+03  0.91868314162E+03  0.18800000000E+03 0.  0.
<mgrwt>
<rscale>  0 0.62283138E+03</rscale>
<asrwt>0</asrwt>
<pdfrwt beam="1">  1        2 0.17212086E+00 0.62283138E+03</pdfrwt>
<pdfrwt beam="2">  1       -2 0.11498770E-01 0.62283138E+03</pdfrwt>
<totfact> 0.11688603E+03</totfact>
</mgrwt>
</event>
<event>
 4    1  0.6024609E-005  0.6422006E+03  0.7818608E-02  0.9821525E-01
          2   -1    0    0  501    0  0.00000000000E+00  0.00000000000E+00  0.72574894148E+03  0.72574894148E+03  0.25500000000E-02 0.  1.
         -2   -1    0    0    0  501 -0.00000000000E+00 -0.00000000000E+00 -0.14206757779E+03  0.14206757781E+03  0.25500000000E-02 0. -1.
    5000001    1    1    2    0    0  0.23098130016E+03  0.11946785905E+03  0.30762646074E+03  0.44452555575E+03  0.18800000000E+03 0.  0.
   -5000001    1    1    2    0    0 -0.23098130016E+03 -0.11946785905E+03  0.27605490295E+03  0.42329096353E+03  0.18800000000E+03 0.  0.
<mgrwt>
<rscale>  0 0.64220057E+03</rscale>
<asrwt>0</asrwt>
<pdfrwt beam="1">  1        2 0.10367842E+00 0.64220057E+03</pdfrwt>
<pdfrwt beam="2">  1       -2 0.20295369E-01 0.64220057E+03</pdfrwt>
<totfact> 0.89736993E+02</totfact>
</mgrwt>
</event>
<event>
 4    1  0.6024609E-005  0.7279841E+03  0.7818608E-02  0.9670537E-01
          2   -1    0    0  501    0  0.00000000000E+00  0.00000000000E+00  0.18161848322E+04  0.18161848323E+04  0.25500000000E-02 0.  1.
         -2   -1    0    0    0  501 -0.00000000000E+00 -0.00000000000E+00 -0.72949741724E+02  0.72949741768E+02  0.25500000000E-02 0. -1.
    5000001    1    1    2    0    0  0.22392977505E+03 -0.50435855852E+02  0.32445615309E+03  0.43966363846E+03  0.18800000000E+03 0.  0.
   -5000001    1    1    2    0    0 -0.22392977505E+03  0.50435855852E+02  0.14187789374E+04  0.14494709356E+04  0.18800000000E+03 0.  0.
<mgrwt>
<rscale>  0 0.72798411E+03</rscale>
<asrwt>0</asrwt>
<pdfrwt beam="1">  1        2 0.25945500E+00 0.72798411E+03</pdfrwt>
<pdfrwt beam="2">  1       -2 0.10421391E-01 0.72798411E+03</pdfrwt>
<totfact> 0.65148881E+02</totfact>
</mgrwt>
</event>
<event>
 4    1  0.6024609E-005  0.1162238E+04  0.7818608E-02  0.9146567E-01
          2   -1    0    0  501    0  0.00000000000E+00  0.00000000000E+00  0.10836698242E+04  0.10836698242E+04  0.25500000000E-02 0.  1.
         -2   -1    0    0    0  501 -0.00000000000E+00 -0.00000000000E+00 -0.31162577138E+03  0.31162577139E+03  0.25500000000E-02 0. -1.
    5000001    1    1    2    0    0 -0.16500378044E+03 -0.37766393216E+03 -0.50974115903E+02  0.45584937612E+03  0.18800000000E+03 0.  0.
   -5000001    1    1    2    0    0  0.16500378044E+03  0.37766393216E+03  0.82301816869E+03  0.93944621943E+03  0.18800000000E+03 0.  0.
<mgrwt>
<rscale>  0 0.11622383E+04</rscale>
<asrwt>0</asrwt>
<pdfrwt beam="1">  1        2 0.15480998E+00 0.11622383E+04</pdfrwt>
<pdfrwt beam="2">  1       -2 0.44517967E-01 0.11622383E+04</pdfrwt>
<totfact> 0.11818783E+02</totfact>
</mgrwt>
</event>
<event>
 4    1  0.6024609E-005  0.8074223E+03  0.7818608E-02  0.9549335E-01
          2   -1    0    0  501    0  0.00000000000E+00  0.00000000000E+00  0.38979118529E+03  0.38979118529E+03  0.25500000000E-02 0.  1.
         -2   -1    0    0    0  501 -0.00000000000E+00 -0.00000000000E+00 -0.41812826157E+03  0.41812826158E+03  0.25500000000E-02 0. -1.
    5000001    1    1    2    0    0 -0.22915572345E+03 -0.12452585530E+03 -0.25849027403E+03  0.41252909715E+03  0.18800000000E+03 0.  0.
   -5000001    1    1    2    0    0  0.22915572345E+03  0.12452585530E+03  0.23015319774E+03  0.39539034973E+03  0.18800000000E+03 0.  0.
<mgrwt>
<rscale>  0 0.80742234E+03</rscale>
<asrwt>0</asrwt>
<pdfrwt beam="1">  1        2 0.55684455E-01 0.80742234E+03</pdfrwt>
<pdfrwt beam="2">  1       -2 0.59732609E-01 0.80742234E+03</pdfrwt>
<totfact> 0.23434775E+02</totfact>
</mgrwt>
</event>
<event>
 4    1  0.6024609E-005  0.4959882E+03  0.7818608E-02  0.1014831E+00
          2   -1    0    0  501    0  0.00000000000E+00  0.00000000000E+00  0.86337353935E+02  0.86337353973E+02  0.25500000000E-02 0.  1.
         -2   -1    0    0    0  501 -0.00000000000E+00 -0.00000000000E+00 -0.71233442978E+03  0.71233442979E+03  0.25500000000E-02 0. -1.
    5000001    1    1    2    0    0 -0.55089431646E+01 -0.14565518081E+03 -0.20015029933E+03  0.31088570645E+03  0.18800000000E+03 0.  0.
   -5000001    1    1    2    0    0  0.55089431646E+01  0.14565518081E+03 -0.42584677651E+03  0.48778607731E+03  0.18800000000E+03 0.  0.
<mgrwt>
<rscale>  0 0.49598818E+03</rscale>
<asrwt>0</asrwt>
<pdfrwt beam="1">  1        2 0.12333908E-01 0.49598818E+03</pdfrwt>
<pdfrwt beam="2">  1       -2 0.10176206E+00 0.49598818E+03</pdfrwt>
<totfact> 0.40857178E+02</totfact>
</mgrwt>
</event>
<event>
 4    1  0.6024609E-005  0.5897163E+03  0.7818608E-02  0.9926974E-01
         -2   -1    0    0    0  501 -0.00000000000E+00  0.00000000000E+00  0.33659257430E+03  0.33659257431E+03  0.25500000000E-02 0. -1.
          2   -1    0    0  501    0  0.00000000000E+00 -0.00000000000E+00 -0.25829844486E+03  0.25829844487E+03  0.25500000000E-02 0.  1.
    5000001    1    1    2    0    0 -0.16375602081E+03  0.99290695944E+01  0.19763300625E+03  0.31830398353E+03  0.18800000000E+03 0.  0.
   -5000001    1    1    2    0    0  0.16375602081E+03 -0.99290695944E+01 -0.11933887681E+03  0.27658703565E+03  0.18800000000E+03 0.  0.
<mgrwt>
<rscale>  0 0.58971633E+03</rscale>
<asrwt>0</asrwt>
<pdfrwt beam="1">  1        2 0.36899778E-01 0.58971633E+03</pdfrwt>
<pdfrwt beam="2">  1       -2 0.48084653E-01 0.58971633E+03</pdfrwt>
<totfact> 0.58167962E+02</totfact>
</mgrwt>
</event>
<event>
 4    1  0.6024609E-005  0.9047716E+03  0.7818608E-02  0.9419636E-01
          2   -1    0    0  501    0  0.00000000000E+00  0.00000000000E+00  0.11130112808E+04  0.11130112808E+04  0.25500000000E-02 0.  1.
         -2   -1    0    0    0  501 -0.00000000000E+00 -0.00000000000E+00 -0.18387315745E+03  0.18387315747E+03  0.25500000000E-02 0. -1.
    5000001    1    1    2    0    0 -0.36021638940E+03  0.19715364576E+03  0.50204295523E+03  0.67528996448E+03  0.18800000000E+03 0.  0.
   -5000001    1    1    2    0    0  0.36021638940E+03 -0.19715364576E+03  0.42709516814E+03  0.62159447381E+03  0.18800000000E+03 0.  0.
<mgrwt>
<rscale>  0 0.90477157E+03</rscale>
<asrwt>0</asrwt>
<pdfrwt beam="1">  1        2 0.15900162E+00 0.90477157E+03</pdfrwt>
<pdfrwt beam="2">  1       -2 0.26267593E-01 0.90477157E+03</pdfrwt>
<totfact> 0.31433118E+02</totfact>
</mgrwt>
</event>
<event>
 4    1  0.6024609E-005  0.4365241E+03  0.7818608E-02  0.1031819E+00
          2   -1    0    0  501    0  0.00000000000E+00  0.00000000000E+00  0.10303394296E+04  0.10303394296E+04  0.25500000000E-02 0.  1.
         -2   -1    0    0    0  501 -0.00000000000E+00 -0.00000000000E+00 -0.46235564984E+02  0.46235565054E+02  0.25500000000E-02 0. -1.
    5000001    1    1    2    0    0 -0.94154547667E+02 -0.57083888510E+02  0.45983212527E+03  0.50883517233E+03  0.18800000000E+03 0.  0.
   -5000001    1    1    2    0    0  0.94154547667E+02  0.57083888510E+02  0.52427173934E+03  0.56773982232E+03  0.18800000000E+03 0.  0.
<mgrwt>
<rscale>  0 0.43652411E+03</rscale>
<asrwt>0</asrwt>
<pdfrwt beam="1">  1        2 0.14719133E+00 0.43652411E+03</pdfrwt>
<pdfrwt beam="2">  1       -2 0.66050816E-02 0.43652411E+03</pdfrwt>
<totfact> 0.35825393E+03</totfact>
</mgrwt>
</event>
<event>
 4    1  0.6024609E-005  0.5174320E+03  0.7818608E-02  0.1009326E+00
         -2   -1    0    0    0  501 -0.00000000000E+00  0.00000000000E+00  0.18234742182E+03  0.18234742184E+03  0.25500000000E-02 0. -1.
          2   -1    0    0  501    0  0.00000000000E+00 -0.00000000000E+00 -0.36706833323E+03  0.36706833324E+03  0.25500000000E-02 0.  1.
    5000001    1    1    2    0    0 -0.12915871588E+03  0.20230661159E+02 -0.22021392924E+03  0.31769392215E+03  0.18800000000E+03 0.  0.
   -5000001    1    1    2    0    0  0.12915871588E+03 -0.20230661159E+02  0.35493017839E+02  0.23172183293E+03  0.18800000000E+03 0.  0.
<mgrwt>
<rscale>  0 0.51743198E+03</rscale>
<asrwt>0</asrwt>
<pdfrwt beam="1">  1        2 0.52438333E-01 0.51743198E+03</pdfrwt>
<pdfrwt beam="2">  1       -2 0.26049632E-01 0.51743198E+03</pdfrwt>
<totfact> 0.12652477E+03</totfact>
</mgrwt>
</event>
<event>
 4    1  0.6024609E-005  0.6222468E+03  0.7818608E-02  0.9860296E-01
          2   -1    0    0  501    0  0.00000000000E+00  0.00000000000E+00  0.65856511348E+03  0.65856511349E+03  0.25500000000E-02 0.  1.
         -2   -1    0    0    0  501 -0.00000000000E+00 -0.00000000000E+00 -0.14698283821E+03  0.14698283823E+03  0.25500000000E-02 0. -1.
    5000001    1    1    2    0    0  0.23094601603E+03  0.46183482182E+02  0.15564059643E+03  0.33917100643E+03  0.18800000000E+03 0.  0.
   -5000001    1    1    2    0    0 -0.23094601603E+03 -0.46183482182E+02  0.35594167885E+03  0.46637694528E+03  0.18800000000E+03 0.  0.
<mgrwt>
<rscale>  0 0.62224680E+03</rscale>
<asrwt>0</asrwt>
<pdfrwt beam="1">  1        2 0.94080733E-01 0.62224680E+03</pdfrwt>
<pdfrwt beam="2">  1       -2 0.20997548E-01 0.62224680E+03</pdfrwt>
<totfact> 0.95241213E+02</totfact>
</mgrwt>
</event>
<event>
 4    1  0.6024609E-005  0.6890277E+03  0.7818608E-02  0.9736182E-01
          2   -1    0    0  501    0  0.00000000000E+00  0.00000000000E+00  0.15973001203E+04  0.15973001203E+04  0.25500000000E-02 0.  1.
         -2   -1    0    0    0  501 -0.00000000000E+00 -0.00000000000E+00 -0.74306506526E+02  0.74306506570E+02  0.25500000000E-02 0. -1.
    5000001    1    1    2    0    0  0.22003710415E+03 -0.91152069952E+02  0.36566775277E+03  0.47516516337E+03  0.18800000000E+03 0.  0.
   -5000001    1    1    2    0    0 -0.22003710415E+03  0.91152069952E+02  0.11573258610E+04  0.11964414635E+04  0.18800000000E+03 0.  0.
<mgrwt>
<rscale>  0 0.68902770E+03</rscale>
<asrwt>0</asrwt>
<pdfrwt beam="1">  1        2 0.22818572E+00 0.68902770E+03</pdfrwt>
<pdfrwt beam="2">  1       -2 0.10615216E-01 0.68902770E+03</pdfrwt>
<totfact> 0.81979462E+02</totfact>
</mgrwt>
</event>
<event>
 4    1  0.6024609E-005  0.4774161E+03  0.7818608E-02  0.1019848E+00
         -2   -1    0    0    0  501 -0.00000000000E+00  0.00000000000E+00  0.18076302568E+02  0.18076302748E+02  0.25500000000E-02 0. -1.
          2   -1    0    0  501    0  0.00000000000E+00 -0.00000000000E+00 -0.31522774731E+04  0.31522774731E+04  0.25500000000E-02 0.  1.
    5000001    1    1    2    0    0 -0.27161647509E+02  0.12966877888E+03 -0.11426297073E+04  0.11655463935E+04  0.18800000000E+03 0.  0.
   -5000001    1    1    2    0    0  0.27161647509E+02 -0.12966877888E+03 -0.19915714632E+04  0.20048073824E+04  0.18800000000E+03 0.  0.
<mgrwt>
<rscale>  0 0.47741605E+03</rscale>
<asrwt>0</asrwt>
<pdfrwt beam="1">  1        2 0.45032500E+00 0.47741605E+03</pdfrwt>
<pdfrwt beam="2">  1       -2 0.25823310E-02 0.47741605E+03</pdfrwt>
<totfact> 0.11859549E+03</totfact>
</mgrwt>
</event>
<event>
 4    1  0.6024609E-005  0.6470098E+03  0.7818608E-02  0.9812406E-01
          2   -1    0    0  501    0  0.00000000000E+00  0.00000000000E+00  0.75877923977E+03  0.75877923977E+03  0.25500000000E-02 0.  1.
         -2   -1    0    0    0  501 -0.00000000000E+00 -0.00000000000E+00 -0.13792603788E+03  0.13792603790E+03  0.25500000000E-02 0. -1.
    5000001    1    1    2    0    0 -0.13628425227E+03  0.17092527078E+03  0.51374932980E+03  0.58912750698E+03  0.18800000000E+03 0.  0.
   -5000001    1    1    2    0    0  0.13628425227E+03 -0.17092527078E+03  0.10710387209E+03  0.30757777069E+03  0.18800000000E+03 0.  0.
<mgrwt>
<rscale>  0 0.64700978E+03</rscale>
<asrwt>0</asrwt>
<pdfrwt beam="1">  1        2 0.10839704E+00 0.64700978E+03</pdfrwt>
<pdfrwt beam="2">  1       -2 0.19703719E-01 0.64700978E+03</pdfrwt>
<totfact> 0.89371552E+02</totfact>
</mgrwt>
</event>
<event>
 4    1  0.6024609E-005  0.8909429E+03  0.7818608E-02  0.9436975E-01
          2   -1    0    0  501    0  0.00000000000E+00  0.00000000000E+00  0.23607320599E+04  0.23607320599E+04  0.25500000000E-02 0.  1.
         -2   -1    0    0    0  501 -0.00000000000E+00 -0.00000000000E+00 -0.84060701760E+02  0.84060701799E+02  0.25500000000E-02 0. -1.
    5000001    1    1    2    0    0 -0.19079817242E+03 -0.24476604712E+03  0.42918858766E+03  0.56201530602E+03  0.18800000000E+03 0.  0.
   -5000001    1    1    2    0    0  0.19079817242E+03  0.24476604712E+03  0.18474827705E+04  0.18827774557E+04  0.18800000000E+03 0.  0.
<mgrwt>
<rscale>  0 0.89094286E+03</rscale>
<asrwt>0</asrwt>
<pdfrwt beam="1">  1        2 0.33724749E+00 0.89094286E+03</pdfrwt>
<pdfrwt beam="2">  1       -2 0.12008670E-01 0.89094286E+03</pdfrwt>
<totfact> 0.26974585E+02</totfact>
</mgrwt>
</event>
<event>
 4    1  0.6024609E-005  0.4957474E+03  0.7818608E-02  0.1014895E+00
         -2   -1    0    0    0  501 -0.00000000000E+00  0.00000000000E+00  0.34298585794E+02  0.34298585889E+02  0.25500000000E-02 0. -1.
          2   -1    0    0  501    0  0.00000000000E+00 -0.00000000000E+00 -0.17913676890E+04  0.17913676890E+04  0.25500000000E-02 0.  1.
    5000001    1    1    2    0    0 -0.11645996191E+03 -0.90182346225E+02 -0.63421050292E+03  0.67768926531E+03  0.18800000000E+03 0.  0.
   -5000001    1    1    2    0    0  0.11645996191E+03  0.90182346225E+02 -0.11228586003E+04  0.11479770096E+04  0.18800000000E+03 0.  0.
<mgrwt>
<rscale>  0 0.49574743E+03</rscale>
<asrwt>0</asrwt>
<pdfrwt beam="1">  1        2 0.25590961E+00 0.49574743E+03</pdfrwt>
<pdfrwt beam="2">  1       -2 0.48997991E-02 0.49574743E+03</pdfrwt>
<totfact> 0.22404909E+03</totfact>
</mgrwt>
</event>
<event>
 4    1  0.6024609E-005  0.4647576E+03  0.7818608E-02  0.1023410E+00
         -2   -1    0    0    0  501 -0.00000000000E+00  0.00000000000E+00  0.48074948237E+02  0.48074948305E+02  0.25500000000E-02 0. -1.
          2   -1    0    0  501    0  0.00000000000E+00 -0.00000000000E+00 -0.11232439945E+04  0.11232439945E+04  0.25500000000E-02 0.  1.
    5000001    1    1    2    0    0 -0.60415917280E+02 -0.12121075440E+03 -0.49294163700E+03  0.54468117971E+03  0.18800000000E+03 0.  0.
   -5000001    1    1    2    0    0  0.60415917280E+02  0.12121075440E+03 -0.58222740925E+03  0.62663776309E+03  0.18800000000E+03 0.  0.
<mgrwt>
<rscale>  0 0.46475756E+03</rscale>
<asrwt>0</asrwt>
<pdfrwt beam="1">  1        2 0.16046341E+00 0.46475756E+03</pdfrwt>
<pdfrwt beam="2">  1       -2 0.68678504E-02 0.46475756E+03</pdfrwt>
<totfact> 0.29769299E+03</totfact>
</mgrwt>
</event>
<event>
 4    1  0.6024609E-005  0.8437736E+03  0.7818608E-02  0.9498732E-01
          2   -1    0    0  501    0  0.00000000000E+00  0.00000000000E+00  0.26452026706E+04  0.26452026706E+04  0.25500000000E-02 0.  1.
         -2   -1    0    0    0  501 -0.00000000000E+00 -0.00000000000E+00 -0.67287268318E+02  0.67287268366E+02  0.25500000000E-02 0. -1.
    5000001    1    1    2    0    0  0.35616065824E+03 -0.55925679593E+01  0.16925645184E+04  0.17398276754E+04  0.18800000000E+03 0.  0.
   -5000001    1    1    2    0    0 -0.35616065824E+03  0.55925679593E+01  0.88535088392E+03  0.97266226356E+03  0.18800000000E+03 0.  0.
<mgrwt>
<rscale>  0 0.84377358E+03</rscale>
<asrwt>0</asrwt>
<pdfrwt beam="1">  1        2 0.37788610E+00 0.84377358E+03</pdfrwt>
<pdfrwt beam="2">  1       -2 0.96124669E-02 0.84377358E+03</pdfrwt>
<totfact> 0.27767160E+02</totfact>
</mgrwt>
</event>
<event>
 4    1  0.6024609E-005  0.5171985E+03  0.7818608E-02  0.1009385E+00
         -2   -1    0    0    0  501 -0.00000000000E+00  0.00000000000E+00  0.32117891747E+03  0.32117891748E+03  0.25500000000E-02 0. -1.
          2   -1    0    0  501    0  0.00000000000E+00 -0.00000000000E+00 -0.20821285804E+03  0.20821285806E+03  0.25500000000E-02 0.  1.
    5000001    1    1    2    0    0  0.90053003065E+02 -0.60148319692E+02  0.20052093939E+03  0.29543190562E+03  0.18800000000E+03 0.  0.
   -5000001    1    1    2    0    0 -0.90053003065E+02  0.60148319692E+02 -0.87554879971E+02  0.23395986991E+03  0.18800000000E+03 0.  0.
<mgrwt>
<rscale>  0 0.51719853E+03</rscale>
<asrwt>0</asrwt>
<pdfrwt beam="1">  1        2 0.29744694E-01 0.51719853E+03</pdfrwt>
<pdfrwt beam="2">  1       -2 0.45882702E-01 0.51719853E+03</pdfrwt>
<totfact> 0.81270894E+02</totfact>
</mgrwt>
</event>
<event>
 4    1  0.6024609E-005  0.4388660E+03  0.7818608E-02  0.1031095E+00
         -2   -1    0    0    0  501 -0.00000000000E+00  0.00000000000E+00  0.33741945213E+02  0.33741945309E+02  0.25500000000E-02 0. -1.
          2   -1    0    0  501    0  0.00000000000E+00 -0.00000000000E+00 -0.14270319753E+04  0.14270319753E+04  0.25500000000E-02 0.  1.
    5000001    1    1    2    0    0  0.68088000934E+02 -0.77494332206E+02 -0.54175303503E+03  0.58265057999E+03  0.18800000000E+03 0.  0.
   -5000001    1    1    2    0    0 -0.68088000934E+02  0.77494332206E+02 -0.85153699501E+03  0.87812334057E+03  0.18800000000E+03 0.  0.
<mgrwt>
<rscale>  0 0.43886597E+03</rscale>
<asrwt>0</asrwt>
<pdfrwt beam="1">  1        2 0.20386167E+00 0.43886597E+03</pdfrwt>
<pdfrwt beam="2">  1       -2 0.48202788E-02 0.43886597E+03</pdfrwt>
<totfact> 0.35268986E+03</totfact>
</mgrwt>
</event>
<event>
 4    1  0.6024609E-005  0.6677061E+03  0.7818608E-02  0.9774111E-01
          2   -1    0    0  501    0  0.00000000000E+00  0.00000000000E+00  0.10258448300E+04  0.10258448300E+04  0.25500000000E-02 0.  1.
         -2   -1    0    0    0  501 -0.00000000000E+00 -0.00000000000E+00 -0.10864982957E+03  0.10864982960E+03  0.25500000000E-02 0. -1.
    5000001    1    1    2    0    0  0.84361250324E+02  0.26239814952E+03  0.43819023296E+03  0.55074884448E+03  0.18800000000E+03 0.  0.
   -5000001    1    1    2    0    0 -0.84361250324E+02 -0.26239814952E+03  0.47900476749E+03  0.58374581515E+03  0.18800000000E+03 0.  0.
<mgrwt>
<rscale>  0 0.66770612E+03</rscale>
<asrwt>0</asrwt>
<pdfrwt beam="1">  1        2 0.14654926E+00 0.66770612E+03</pdfrwt>
<pdfrwt beam="2">  1       -2 0.15521405E-01 0.66770612E+03</pdfrwt>
<totfact> 0.89948616E+02</totfact>
</mgrwt>
</event>
<event>
 4    1  0.6024609E-005  0.4289413E+03  0.7818608E-02  0.1034195E+00
         -2   -1    0    0    0  501 -0.00000000000E+00  0.00000000000E+00  0.27675604228E+03  0.27675604229E+03  0.25500000000E-02 0. -1.
          2   -1    0    0  501    0  0.00000000000E+00 -0.00000000000E+00 -0.16620290656E+03  0.16620290658E+03  0.25500000000E-02 0.  1.
    5000001    1    1    2    0    0  0.13017361817E+02 -0.10228644407E+03  0.50467085727E+02  0.22027912995E+03  0.18800000000E+03 0.  0.
   -5000001    1    1    2    0    0 -0.13017361817E+02  0.10228644407E+03  0.60086049994E+02  0.22267981892E+03  0.18800000000E+03 0.  0.
<mgrwt>
<rscale>  0 0.42894130E+03</rscale>
<asrwt>0</asrwt>
<pdfrwt beam="1">  1        2 0.23743273E-01 0.42894130E+03</pdfrwt>
<pdfrwt beam="2">  1       -2 0.39536577E-01 0.42894130E+03</pdfrwt>
<totfact> 0.14013611E+03</totfact>
</mgrwt>
</event>
<event>
 4    1  0.6024609E-005  0.7111591E+03  0.7818608E-02  0.9698337E-01
         -2   -1    0    0    0  501 -0.00000000000E+00  0.00000000000E+00  0.37260521712E+03  0.37260521712E+03  0.25500000000E-02 0. -1.
          2   -1    0    0  501    0  0.00000000000E+00 -0.00000000000E+00 -0.33933185351E+03  0.33933185352E+03  0.25500000000E-02 0.  1.
    5000001    1    1    2    0    0  0.10337100244E+03  0.28355353906E+03  0.18794335556E+02  0.35606937626E+03  0.18800000000E+03 0.  0.
   -5000001    1    1    2    0    0 -0.10337100244E+03 -0.28355353906E+03  0.14479028045E+02  0.35586769439E+03  0.18800000000E+03 0.  0.
<mgrwt>
<rscale>  0 0.71115911E+03</rscale>
<asrwt>0</asrwt>
<pdfrwt beam="1">  1        2 0.48475979E-01 0.71115911E+03</pdfrwt>
<pdfrwt beam="2">  1       -2 0.53229317E-01 0.71115911E+03</pdfrwt>
<totfact> 0.34878098E+02</totfact>
</mgrwt>
</event>
<event>
 4    1  0.6024609E-005  0.4742426E+03  0.7818608E-02  0.1020730E+00
         -2   -1    0    0    0  501 -0.00000000000E+00  0.00000000000E+00  0.55037673504E+02  0.55037673563E+02  0.25500000000E-02 0.  1.
          2   -1    0    0  501    0  0.00000000000E+00 -0.00000000000E+00 -0.10216005264E+04  0.10216005264E+04  0.25500000000E-02 0. -1.
    5000001    1    1    2    0    0 -0.61876327374E+02 -0.48814168330E+02 -0.20830259806E+03  0.29145407061E+03  0.18800000000E+03 0.  0.
   -5000001    1    1    2    0    0  0.61876327374E+02  0.48814168330E+02 -0.75826025482E+03  0.78518412934E+03  0.18800000000E+03 0.  0.
<mgrwt>
<rscale>  0 0.47424262E+03</rscale>
<asrwt>0</asrwt>
<pdfrwt beam="1">  1        2 0.14594292E+00 0.47424262E+03</pdfrwt>
<pdfrwt beam="2">  1       -2 0.78625254E-02 0.47424262E+03</pdfrwt>
<totfact> 0.27575198E+03</totfact>
</mgrwt>
</event>
<event>
 4    1  0.6024609E-005  0.4952436E+03  0.7818608E-02  0.1015028E+00
         -2   -1    0    0    0  501 -0.00000000000E+00  0.00000000000E+00  0.20659804145E+03  0.20659804146E+03  0.25500000000E-02 0. -1.
          2   -1    0    0  501    0  0.00000000000E+00 -0.00000000000E+00 -0.29679159546E+03  0.29679159547E+03  0.25500000000E-02 0.  1.
    5000001    1    1    2    0    0 -0.93351895391E+02  0.67857969322E+01 -0.17844900436E+03  0.27558786361E+03  0.18800000000E+03 0.  0.
   -5000001    1    1    2    0    0  0.93351895391E+02 -0.67857969322E+01  0.88255450344E+02  0.22780177332E+03  0.18800000000E+03 0.  0.
<mgrwt>
<rscale>  0 0.49524363E+03</rscale>
<asrwt>0</asrwt>
<pdfrwt beam="1">  1        2 0.42398799E-01 0.49524363E+03</pdfrwt>
<pdfrwt beam="2">  1       -2 0.29514006E-01 0.49524363E+03</pdfrwt>
<totfact> 0.12734606E+03</totfact>
</mgrwt>
</event>
<event>
 4    1  0.6024609E-005  0.7146351E+03  0.7818608E-02  0.9692526E-01
         -2   -1    0    0    0  501 -0.00000000000E+00  0.00000000000E+00  0.33055834800E+03  0.33055834801E+03  0.25500000000E-02 0. -1.
          2   -1    0    0  501    0  0.00000000000E+00 -0.00000000000E+00 -0.38624295451E+03  0.38624295451E+03  0.25500000000E-02 0.  1.
    5000001    1    1    2    0    0  0.35129741904E+02  0.24767452585E+03 -0.20086173470E+03  0.37184164101E+03  0.18800000000E+03 0.  0.
   -5000001    1    1    2    0    0 -0.35129741904E+02 -0.24767452585E+03  0.14517712819E+03  0.34495966151E+03  0.18800000000E+03 0.  0.
<mgrwt>
<rscale>  0 0.71463510E+03</rscale>
<asrwt>0</asrwt>
<pdfrwt beam="1">  1        2 0.55177564E-01 0.71463510E+03</pdfrwt>
<pdfrwt beam="2">  1       -2 0.47222622E-01 0.71463510E+03</pdfrwt>
<totfact> 0.38521118E+02</totfact>
</mgrwt>
</event>
<event>
 4    1  0.6024609E-005  0.4211723E+03  0.7818608E-02  0.1036685E+00
         -2   -1    0    0    0  501 -0.00000000000E+00  0.00000000000E+00  0.47146760552E+03  0.47146760553E+03  0.25500000000E-02 0. -1.
          2   -1    0    0  501    0  0.00000000000E+00 -0.00000000000E+00 -0.94060593327E+02  0.94060593361E+02  0.25500000000E-02 0.  1.
    5000001    1    1    2    0    0  0.11247489358E+02 -0.47986924050E+02  0.79839257472E+02  0.21011320266E+03  0.18800000000E+03 0.  0.
   -5000001    1    1    2    0    0 -0.11247489358E+02  0.47986924050E+02  0.29756775472E+03  0.35541499623E+03  0.18800000000E+03 0.  0.
<mgrwt>
<rscale>  0 0.42117228E+03</rscale>
<asrwt>0</asrwt>
<pdfrwt beam="1">  1        2 0.13437228E-01 0.42117228E+03</pdfrwt>
<pdfrwt beam="2">  1       -2 0.67352515E-01 0.42117228E+03</pdfrwt>
<totfact> 0.92936161E+02</totfact>
</mgrwt>
</event>
<event>
 4    1  0.6024609E-005  0.4067721E+03  0.7818608E-02  0.1041460E+00
         -2   -1    0    0    0  501 -0.00000000000E+00  0.00000000000E+00  0.35490469933E+02  0.35490470024E+02  0.25500000000E-02 0. -1.
          2   -1    0    0  501    0  0.00000000000E+00 -0.00000000000E+00 -0.11655489292E+04  0.11655489292E+04  0.25500000000E-02 0.  1.
    5000001    1    1    2    0    0  0.42760561273E+02 -0.62502480219E+02 -0.61503686483E+03  0.64757190391E+03  0.18800000000E+03 0.  0.
   -5000001    1    1    2    0    0 -0.42760561273E+02  0.62502480219E+02 -0.51502159441E+03  0.55346749529E+03  0.18800000000E+03 0.  0.
<mgrwt>
<rscale>  0 0.40677207E+03</rscale>
<asrwt>0</asrwt>
<pdfrwt beam="1">  1        2 0.16650697E+00 0.40677207E+03</pdfrwt>
<pdfrwt beam="2">  1       -2 0.50700679E-02 0.40677207E+03</pdfrwt>
<totfact> 0.45105661E+03</totfact>
</mgrwt>
</event>
<event>
 4    1  0.6024609E-005  0.9148054E+03  0.7818608E-02  0.9407261E-01
          2   -1    0    0  501    0  0.00000000000E+00  0.00000000000E+00  0.26742701551E+03  0.26742701552E+03  0.25500000000E-02 0.  1.
         -2   -1    0    0    0  501 -0.00000000000E+00 -0.00000000000E+00 -0.78233390811E+03  0.78233390811E+03  0.25500000000E-02 0. -1.
    5000001    1    1    2    0    0 -0.15109441315E+03 -0.25148977655E+03 -0.59747036090E+03  0.69165848621E+03  0.18800000000E+03 0.  0.
   -5000001    1    1    2    0    0  0.15109441315E+03  0.25148977655E+03  0.82563468300E+02  0.35810243743E+03  0.18800000000E+03 0.  0.
<mgrwt>
<rscale>  0 0.91480538E+03</rscale>
<asrwt>0</asrwt>
<pdfrwt beam="1">  1        2 0.38203860E-01 0.91480538E+03</pdfrwt>
<pdfrwt beam="2">  1       -2 0.11176199E+00 0.91480538E+03</pdfrwt>
<totfact> 0.85943221E+01</totfact>
</mgrwt>
</event>
<event>
 4    1  0.6024609E-005  0.4679928E+03  0.7818608E-02  0.1022488E+00
         -2   -1    0    0    0  501 -0.00000000000E+00  0.00000000000E+00  0.42539045878E+02  0.42539045954E+02  0.25500000000E-02 0. -1.
          2   -1    0    0  501    0  0.00000000000E+00 -0.00000000000E+00 -0.12871545012E+04  0.12871545012E+04  0.25500000000E-02 0.  1.
    5000001    1    1    2    0    0  0.12453034847E+03 -0.93873715582E+00 -0.79978212118E+03  0.83096578166E+03  0.18800000000E+03 0.  0.
   -5000001    1    1    2    0    0 -0.12453034847E+03  0.93873715582E+00 -0.44483333412E+03  0.49872776548E+03  0.18800000000E+03 0.  0.
<mgrwt>
<rscale>  0 0.46799284E+03</rscale>
<asrwt>0</asrwt>
<pdfrwt beam="1">  1        2 0.18387919E+00 0.46799284E+03</pdfrwt>
<pdfrwt beam="2">  1       -2 0.60770073E-02 0.46799284E+03</pdfrwt>
<totfact> 0.29236743E+03</totfact>
</mgrwt>
</event>
<event>
 4    1  0.6024609E-005  0.4559437E+03  0.7818608E-02  0.1025964E+00
         -2   -1    0    0    0  501 -0.00000000000E+00  0.00000000000E+00  0.18834873817E+04  0.18834873817E+04  0.25500000000E-02 0. -1.
          2   -1    0    0  501    0  0.00000000000E+00 -0.00000000000E+00 -0.27593052373E+02  0.27593052491E+02  0.25500000000E-02 0.  1.
    5000001    1    1    2    0    0 -0.88115766738E+02 -0.33894354944E+02  0.12960813615E+04  0.13130438345E+04  0.18800000000E+03 0.  0.
   -5000001    1    1    2    0    0  0.88115766738E+02  0.33894354944E+02  0.55981296782E+03  0.59803659971E+03  0.18800000000E+03 0.  0.
<mgrwt>
<rscale>  0 0.45594371E+03</rscale>
<asrwt>0</asrwt>
<pdfrwt beam="1">  1        2 0.39418645E-02 0.45594371E+03</pdfrwt>
<pdfrwt beam="2">  1       -2 0.26906963E+00 0.45594371E+03</pdfrwt>
<totfact> 0.11838030E+02</totfact>
</mgrwt>
</event>
<event>
 4    1  0.6024609E-005  0.1004698E+04  0.7818608E-02  0.9303407E-01
          2   -1    0    0  501    0  0.00000000000E+00  0.00000000000E+00  0.23979433489E+04  0.23979433489E+04  0.25500000000E-02 0.  1.
         -2   -1    0    0    0  501 -0.00000000000E+00 -0.00000000000E+00 -0.10523787476E+03  0.10523787479E+03  0.25500000000E-02 0. -1.
    5000001    1    1    2    0    0 -0.43142584092E+03 -0.76810149686E+01  0.70893567520E+03  0.85095302208E+03  0.18800000000E+03 0.  0.
   -5000001    1    1    2    0    0  0.43142584092E+03  0.76810149686E+01  0.15837697989E+04  0.16522282016E+04  0.18800000000E+03 0.  0.
<mgrwt>
<rscale>  0 0.10046979E+04</rscale>
<asrwt>0</asrwt>
<pdfrwt beam="1">  1        2 0.34256334E+00 0.10046979E+04</pdfrwt>
<pdfrwt beam="2">  1       -2 0.15033982E-01 0.10046979E+04</pdfrwt>
<totfact> 0.17549709E+02</totfact>
</mgrwt>
</event>
<event>
 4    1  0.6024609E-005  0.1106167E+04  0.7818608E-02  0.9199202E-01
          2   -1    0    0  501    0  0.00000000000E+00  0.00000000000E+00  0.46810033969E+04  0.46810033969E+04  0.25500000000E-02 0.  1.
         -2   -1    0    0    0  501 -0.00000000000E+00 -0.00000000000E+00 -0.65349556219E+02  0.65349556269E+02  0.25500000000E-02 0. -1.
    5000001    1    1    2    0    0 -0.16341811268E+03  0.34482917381E+03  0.38245225170E+04  0.38481072129E+04  0.18800000000E+03 0.  0.
   -5000001    1    1    2    0    0  0.16341811268E+03 -0.34482917381E+03  0.79113132366E+03  0.89824574029E+03  0.18800000000E+03 0.  0.
<mgrwt>
<rscale>  0 0.11061672E+04</rscale>
<asrwt>0</asrwt>
<pdfrwt beam="1">  1        2 0.66871468E+00 0.11061672E+04</pdfrwt>
<pdfrwt beam="2">  1       -2 0.93356522E-02 0.11061672E+04</pdfrwt>
<totfact> 0.13977339E+01</totfact>
</mgrwt>
</event>
<event>
 4    1  0.6024609E-005  0.5822248E+03  0.7818608E-02  0.9942986E-01
          2   -1    0    0  501    0  0.00000000000E+00  0.00000000000E+00  0.86846989067E+03  0.86846989067E+03  0.25500000000E-02 0.  1.
         -2   -1    0    0    0  501 -0.00000000000E+00 -0.00000000000E+00 -0.97581318449E+02  0.97581318483E+02  0.25500000000E-02 0. -1.
    5000001    1    1    2    0    0  0.12938607424E+03  0.17775535993E+03  0.33130336194E+03  0.43982228436E+03  0.18800000000E+03 0.  0.
   -5000001    1    1    2    0    0 -0.12938607424E+03 -0.17775535993E+03  0.43958521028E+03  0.52622892479E+03  0.18800000000E+03 0.  0.
<mgrwt>
<rscale>  0 0.58222483E+03</rscale>
<asrwt>0</asrwt>
<pdfrwt beam="1">  1        2 0.12406713E+00 0.58222483E+03</pdfrwt>
<pdfrwt beam="2">  1       -2 0.13940188E-01 0.58222483E+03</pdfrwt>
<totfact> 0.13561647E+03</totfact>
</mgrwt>
</event>
<event>
 4    1  0.6024609E-005  0.4651577E+03  0.7818608E-02  0.1023296E+00
          2   -1    0    0  501    0  0.00000000000E+00  0.00000000000E+00  0.96389147189E+03  0.96389147189E+03  0.25500000000E-02 0.  1.
         -2   -1    0    0    0  501 -0.00000000000E+00 -0.00000000000E+00 -0.56119314110E+02  0.56119314168E+02  0.25500000000E-02 0. -1.
    5000001    1    1    2    0    0 -0.84725832650E+02  0.10705020772E+03  0.47695923509E+03  0.53053965509E+03  0.18800000000E+03 0.  0.
   -5000001    1    1    2    0    0  0.84725832650E+02 -0.10705020772E+03  0.43081292269E+03  0.48947113097E+03  0.18800000000E+03 0.  0.
<mgrwt>
<rscale>  0 0.46515773E+03</rscale>
<asrwt>0</asrwt>
<pdfrwt beam="1">  1        2 0.13769879E+00 0.46515773E+03</pdfrwt>
<pdfrwt beam="2">  1       -2 0.80170445E-02 0.46515773E+03</pdfrwt>
<totfact> 0.28979075E+03</totfact>
</mgrwt>
</event>
<event>
 4    1  0.6024609E-005  0.5699186E+03  0.7818608E-02  0.9969859E-01
          2   -1    0    0  501    0  0.00000000000E+00  0.00000000000E+00  0.94623922050E+03  0.94623922050E+03  0.25500000000E-02 0.  1.
         -2   -1    0    0    0  501 -0.00000000000E+00 -0.00000000000E+00 -0.85815314338E+02  0.85815314376E+02  0.25500000000E-02 0. -1.
    5000001    1    1    2    0    0 -0.17642832398E+03  0.84049829475E+02  0.27165399912E+03  0.38383749501E+03  0.18800000000E+03 0.  0.
   -5000001    1    1    2    0    0  0.17642832398E+03 -0.84049829475E+02  0.58876990704E+03  0.64821703987E+03  0.18800000000E+03 0.  0.
<mgrwt>
<rscale>  0 0.56991865E+03</rscale>
<asrwt>0</asrwt>
<pdfrwt beam="1">  1        2 0.13517702E+00 0.56991865E+03</pdfrwt>
<pdfrwt beam="2">  1       -2 0.12259331E-01 0.56991865E+03</pdfrwt>
<totfact> 0.14962908E+03</totfact>
</mgrwt>
</event>
<event>
 4    1  0.6024609E-005  0.5371925E+03  0.7818608E-02  0.1004503E+00
          2   -1    0    0  501    0  0.00000000000E+00  0.00000000000E+00  0.22121902074E+04  0.22121902074E+04  0.25500000000E-02 0.  1.
         -2   -1    0    0    0  501 -0.00000000000E+00 -0.00000000000E+00 -0.32612000442E+02  0.32612000541E+02  0.25500000000E-02 0. -1.
    5000001    1    1    2    0    0  0.16318572438E+03  0.10012710248E+03  0.11400961174E+04  0.11712464191E+04  0.18800000000E+03 0.  0.
   -5000001    1    1    2    0    0 -0.16318572438E+03 -0.10012710248E+03  0.10394820895E+04  0.10735557888E+04  0.18800000000E+03 0.  0.
<mgrwt>
<rscale>  0 0.53719251E+03</rscale>
<asrwt>0</asrwt>
<pdfrwt beam="1">  1        2 0.31602727E+00 0.53719251E+03</pdfrwt>
<pdfrwt beam="2">  1       -2 0.46588558E-02 0.53719251E+03</pdfrwt>
<totfact> 0.14886533E+03</totfact>
</mgrwt>
</event>
<event>
 4    1  0.6024609E-005  0.5919187E+03  0.7818608E-02  0.9922315E-01
         -2   -1    0    0    0  501 -0.00000000000E+00  0.00000000000E+00  0.79195745701E+02  0.79195745742E+02  0.25500000000E-02 0. -1.
          2   -1    0    0  501    0  0.00000000000E+00 -0.00000000000E+00 -0.11060183904E+04  0.11060183904E+04  0.25500000000E-02 0.  1.
    5000001    1    1    2    0    0 -0.17805750215E+02 -0.22786346623E+03 -0.50735541029E+03  0.58736046542E+03  0.18800000000E+03 0.  0.
   -5000001    1    1    2    0    0  0.17805750215E+02  0.22786346623E+03 -0.51946723441E+03  0.59785367073E+03  0.18800000000E+03 0.  0.
<mgrwt>
<rscale>  0 0.59191875E+03</rscale>
<asrwt>0</asrwt>
<pdfrwt beam="1">  1        2 0.15800262E+00 0.59191875E+03</pdfrwt>
<pdfrwt beam="2">  1       -2 0.11313679E-01 0.59191875E+03</pdfrwt>
<totfact> 0.13676503E+03</totfact>
</mgrwt>
</event>
<event>
 4    1  0.6024609E-005  0.9236365E+03  0.7818608E-02  0.9396508E-01
         -2   -1    0    0    0  501 -0.00000000000E+00  0.00000000000E+00  0.19880744317E+03  0.19880744319E+03  0.25500000000E-02 0. -1.
          2   -1    0    0  501    0  0.00000000000E+00 -0.00000000000E+00 -0.10727772926E+04  0.10727772926E+04  0.25500000000E-02 0.  1.
    5000001    1    1    2    0    0 -0.26386294367E+03 -0.32900202359E+03 -0.44818009191E+03  0.64348689136E+03  0.18800000000E+03 0.  0.
   -5000001    1    1    2    0    0  0.26386294367E+03  0.32900202359E+03 -0.42578975752E+03  0.62809784443E+03  0.18800000000E+03 0.  0.
<mgrwt>
<rscale>  0 0.92363653E+03</rscale>
<asrwt>0</asrwt>
<pdfrwt beam="1">  1        2 0.15325390E+00 0.92363653E+03</pdfrwt>
<pdfrwt beam="2">  1       -2 0.28401064E-01 0.92363653E+03</pdfrwt>
<totfact> 0.28751232E+02</totfact>
</mgrwt>
</event>
<event>
 4    1  0.6024609E-005  0.4438700E+03  0.7818608E-02  0.1029566E+00
          2   -1    0    0  501    0  0.00000000000E+00  0.00000000000E+00  0.78881653244E+03  0.78881653244E+03  0.25500000000E-02 0.  1.
         -2   -1    0    0    0  501 -0.00000000000E+00 -0.00000000000E+00 -0.62441826815E+02  0.62441826867E+02  0.25500000000E-02 0. -1.
    5000001    1    1    2    0    0 -0.97686447900E+02  0.64988150701E+02  0.38628430743E+03  0.44533770108E+03  0.18800000000E+03 0.  0.
   -5000001    1    1    2    0    0  0.97686447900E+02 -0.64988150701E+02  0.34009039819E+03  0.40592065823E+03  0.18800000000E+03 0.  0.
<mgrwt>
<rscale>  0 0.44387000E+03</rscale>
<asrwt>0</asrwt>
<pdfrwt beam="1">  1        2 0.11268806E+00 0.44387000E+03</pdfrwt>
<pdfrwt beam="2">  1       -2 0.89202621E-02 0.44387000E+03</pdfrwt>
<totfact> 0.31778140E+03</totfact>
</mgrwt>
</event>
<event>
 4    1  0.6024609E-005  0.7389382E+03  0.7818608E-02  0.9652866E-01
         -2   -1    0    0    0  501 -0.00000000000E+00  0.00000000000E+00  0.16638269122E+03  0.16638269124E+03  0.25500000000E-02 0. -1.
          2   -1    0    0  501    0  0.00000000000E+00 -0.00000000000E+00 -0.82044236724E+03  0.82044236724E+03  0.25500000000E-02 0.  1.
    5000001    1    1    2    0    0 -0.29280514637E+03 -0.55964204282E+02 -0.47511922451E+03  0.59156497817E+03  0.18800000000E+03 0.  0.
   -5000001    1    1    2    0    0  0.29280514637E+03  0.55964204282E+02 -0.17894045151E+03  0.39526008031E+03  0.18800000000E+03 0.  0.
<mgrwt>
<rscale>  0 0.73893818E+03</rscale>
<asrwt>0</asrwt>
<pdfrwt beam="1">  1        2 0.11720605E+00 0.73893818E+03</pdfrwt>
<pdfrwt beam="2">  1       -2 0.23768956E-01 0.73893818E+03</pdfrwt>
<totfact> 0.57943468E+02</totfact>
</mgrwt>
</event>
<event>
 4    1  0.6024609E-005  0.8707998E+03  0.7818608E-02  0.9462838E-01
         -2   -1    0    0    0  501 -0.00000000000E+00  0.00000000000E+00  0.85607782116E+03  0.85607782116E+03  0.25500000000E-02 0. -1.
          2   -1    0    0  501    0  0.00000000000E+00 -0.00000000000E+00 -0.22144371326E+03  0.22144371327E+03  0.25500000000E-02 0.  1.
    5000001    1    1    2    0    0 -0.28414297402E+02 -0.36056506726E+03  0.12797363567E+03  0.42724207594E+03  0.18800000000E+03 0.  0.
   -5000001    1    1    2    0    0  0.28414297402E+02  0.36056506726E+03  0.50666047223E+03  0.65027945850E+03  0.18800000000E+03 0.  0.
<mgrwt>
<rscale>  0 0.87079975E+03</rscale>
<asrwt>0</asrwt>
<pdfrwt beam="1">  1        2 0.31634816E-01 0.87079975E+03</pdfrwt>
<pdfrwt beam="2">  1       -2 0.12229683E+00 0.87079975E+03</pdfrwt>
<totfact> 0.85271608E+01</totfact>
</mgrwt>
</event>
<event>
 4    1  0.6024609E-005  0.1070343E+04  0.7818608E-02  0.9234589E-01
          2   -1    0    0  501    0  0.00000000000E+00  0.00000000000E+00  0.11298313582E+04  0.11298313582E+04  0.25500000000E-02 0.  1.
         -2   -1    0    0    0  501 -0.00000000000E+00 -0.00000000000E+00 -0.25349694683E+03  0.25349694684E+03  0.25500000000E-02 0. -1.
    5000001    1    1    2    0    0 -0.10240509013E+03 -0.49047672659E+03  0.43396378972E+03  0.68900130087E+03  0.18800000000E+03 0.  0.
   -5000001    1    1    2    0    0  0.10240509013E+03  0.49047672659E+03  0.44237062161E+03  0.69432700414E+03  0.18800000000E+03 0.  0.
<mgrwt>
<rscale>  0 0.10703435E+04</rscale>
<asrwt>0</asrwt>
<pdfrwt beam="1">  1        2 0.16140448E+00 0.10703435E+04</pdfrwt>
<pdfrwt beam="2">  1       -2 0.36213849E-01 0.10703435E+04</pdfrwt>
<totfact> 0.16714404E+02</totfact>
</mgrwt>
</event>
<event>
 4    1  0.6024609E-005  0.5987605E+03  0.7818608E-02  0.9907981E-01
         -2   -1    0    0    0  501 -0.00000000000E+00  0.00000000000E+00  0.26730816965E+03  0.26730816966E+03  0.25500000000E-02 0. -1.
          2   -1    0    0  501    0  0.00000000000E+00 -0.00000000000E+00 -0.33530040355E+03  0.33530040356E+03  0.25500000000E-02 0.  1.
    5000001    1    1    2    0    0  0.91958123702E+02  0.13931917659E+03  0.12958586851E+03  0.28284735600E+03  0.18800000000E+03 0.  0.
   -5000001    1    1    2    0    0 -0.91958123702E+02 -0.13931917659E+03 -0.19757810241E+03  0.31976121721E+03  0.18800000000E+03 0.  0.
<mgrwt>
<rscale>  0 0.59876051E+03</rscale>
<asrwt>0</asrwt>
<pdfrwt beam="1">  1        2 0.47900058E-01 0.59876051E+03</pdfrwt>
<pdfrwt beam="2">  1       -2 0.38186881E-01 0.59876051E+03</pdfrwt>
<totfact> 0.68588511E+02</totfact>
</mgrwt>
</event>
<event>
 4    1  0.6024609E-005  0.8223681E+03  0.7818608E-02  0.9528193E-01
         -2   -1    0    0    0  501 -0.00000000000E+00  0.00000000000E+00  0.11979958381E+04  0.11979958381E+04  0.25500000000E-02 0.  1.
          2   -1    0    0  501    0  0.00000000000E+00 -0.00000000000E+00 -0.14112931434E+03  0.14112931436E+03  0.25500000000E-02 0. -1.
    5000001    1    1    2    0    0  0.16298557792E+03 -0.75610039003E+02  0.97827193773E+01  0.26023235426E+03  0.18800000000E+03 0.  0.
   -5000001    1    1    2    0    0 -0.16298557792E+03  0.75610039003E+02  0.10470838044E+04  0.10788927982E+04  0.18800000000E+03 0.  0.
<mgrwt>
<rscale>  0 0.82236812E+03</rscale>
<asrwt>0</asrwt>
<pdfrwt beam="1">  1        2 0.20161332E-01 0.82236812E+03</pdfrwt>
<pdfrwt beam="2">  1       -2 0.17114225E+00 0.82236812E+03</pdfrwt>
<totfact> 0.59437407E+01</totfact>
</mgrwt>
</event>
<event>
 4    1  0.6024609E-005  0.5570230E+03  0.7818608E-02  0.9998813E-01
          2   -1    0    0  501    0  0.00000000000E+00  0.00000000000E+00  0.27086200668E+04  0.27086200668E+04  0.25500000000E-02 0.  1.
         -2   -1    0    0    0  501 -0.00000000000E+00 -0.00000000000E+00 -0.28637698525E+02  0.28637698639E+02  0.25500000000E-02 0. -1.
    5000001    1    1    2    0    0 -0.59402387600E+02 -0.19262962175E+03  0.11440534992E+04  0.11767910706E+04  0.18800000000E+03 0.  0.
   -5000001    1    1    2    0    0  0.59402387600E+02  0.19262962175E+03  0.15359288690E+04  0.15604666948E+04  0.18800000000E+03 0.  0.
<mgrwt>
<rscale>  0 0.55702296E+03</rscale>
<asrwt>0</asrwt>
<pdfrwt beam="1">  1        2 0.38694545E+00 0.55702296E+03</pdfrwt>
<pdfrwt beam="2">  1       -2 0.40911027E-02 0.55702296E+03</pdfrwt>
<totfact> 0.10127519E+03</totfact>
</mgrwt>
</event>
<event>
 4    1  0.6024609E-005  0.4626687E+03  0.7818608E-02  0.1024010E+00
         -2   -1    0    0    0  501 -0.00000000000E+00  0.00000000000E+00  0.39890243163E+03  0.39890243163E+03  0.25500000000E-02 0.  1.
          2   -1    0    0  501    0  0.00000000000E+00 -0.00000000000E+00 -0.13415709085E+03  0.13415709087E+03  0.25500000000E-02 0. -1.
    5000001    1    1    2    0    0  0.10273391378E+03  0.61554818518E+02  0.61085621675E+02  0.23112487079E+03  0.18800000000E+03 0.  0.
   -5000001    1    1    2    0    0 -0.10273391378E+03 -0.61554818518E+02  0.20365971910E+03  0.30193465172E+03  0.18800000000E+03 0.  0.
<mgrwt>
<rscale>  0 0.46266874E+03</rscale>
<asrwt>0</asrwt>
<pdfrwt beam="1">  1        2 0.19165298E-01 0.46266874E+03</pdfrwt>
<pdfrwt beam="2">  1       -2 0.56986063E-01 0.46266874E+03</pdfrwt>
<totfact> 0.86545589E+02</totfact>
</mgrwt>
</event>
<event>
 4    1  0.6024609E-005  0.4670352E+03  0.7818608E-02  0.1022760E+00
          2   -1    0    0  501    0  0.00000000000E+00  0.00000000000E+00  0.20326660519E+04  0.20326660519E+04  0.25500000000E-02 0.  1.
         -2   -1    0    0    0  501 -0.00000000000E+00 -0.00000000000E+00 -0.26827072389E+02  0.26827072510E+02  0.25500000000E-02 0. -1.
    5000001    1    1    2    0    0  0.78533468724E+02  0.40481063051E+02  0.53249845518E+03  0.57158098897E+03  0.18800000000E+03 0.  0.
   -5000001    1    1    2    0    0 -0.78533468724E+02 -0.40481063051E+02  0.14733405243E+04  0.14879121354E+04  0.18800000000E+03 0.  0.
<mgrwt>
<rscale>  0 0.46703524E+03</rscale>
<asrwt>0</asrwt>
<pdfrwt beam="1">  1        2 0.29038089E+00 0.46703524E+03</pdfrwt>
<pdfrwt beam="2">  1       -2 0.38324386E-02 0.46703524E+03</pdfrwt>
<totfact> 0.24772423E+03</totfact>
</mgrwt>
</event>
<event>
 4    1  0.6024609E-005  0.7856345E+03  0.7818608E-02  0.9581046E-01
         -2   -1    0    0    0  501 -0.00000000000E+00  0.00000000000E+00  0.10597870970E+03  0.10597870973E+03  0.25500000000E-02 0. -1.
          2   -1    0    0  501    0  0.00000000000E+00 -0.00000000000E+00 -0.14560037660E+04  0.14560037660E+04  0.25500000000E-02 0.  1.
    5000001    1    1    2    0    0 -0.30404785442E+03  0.10588665022E+03 -0.92097147079E+03  0.99357411927E+03  0.18800000000E+03 0.  0.
   -5000001    1    1    2    0    0  0.30404785442E+03 -0.10588665022E+03 -0.42905358554E+03  0.56840835650E+03  0.18800000000E+03 0.  0.
<mgrwt>
<rscale>  0 0.78563452E+03</rscale>
<asrwt>0</asrwt>
<pdfrwt beam="1">  1        2 0.20800053E+00 0.78563452E+03</pdfrwt>
<pdfrwt beam="2">  1       -2 0.15139817E-01 0.78563452E+03</pdfrwt>
<totfact> 0.53613958E+02</totfact>
</mgrwt>
</event>
<event>
 4    1  0.6024609E-005  0.4425269E+03  0.7818608E-02  0.1029974E+00
         -2   -1    0    0    0  501 -0.00000000000E+00  0.00000000000E+00  0.10043534375E+04  0.10043534375E+04  0.25500000000E-02 0. -1.
          2   -1    0    0  501    0  0.00000000000E+00 -0.00000000000E+00 -0.48745306911E+02  0.48745306977E+02  0.25500000000E-02 0.  1.
    5000001    1    1    2    0    0  0.68875199063E+02  0.81685319636E+02  0.36625462966E+03  0.42532662536E+03  0.18800000000E+03 0.  0.
   -5000001    1    1    2    0    0 -0.68875199063E+02 -0.81685319636E+02  0.58935350091E+03  0.62777211910E+03  0.18800000000E+03 0.  0.
<mgrwt>
<rscale>  0 0.44252691E+03</rscale>
<asrwt>0</asrwt>
<pdfrwt beam="1">  1        2 0.69636157E-02 0.44252691E+03</pdfrwt>
<pdfrwt beam="2">  1       -2 0.14347905E+00 0.44252691E+03</pdfrwt>
<totfact> 0.36300211E+02</totfact>
</mgrwt>
</event>
<event>
 4    1  0.6024609E-005  0.6173481E+03  0.7818608E-02  0.9870054E-01
         -2   -1    0    0    0  501 -0.00000000000E+00  0.00000000000E+00  0.12789739245E+03  0.12789739248E+03  0.25500000000E-02 0. -1.
          2   -1    0    0  501    0  0.00000000000E+00 -0.00000000000E+00 -0.74496953459E+03  0.74496953460E+03  0.25500000000E-02 0.  1.
    5000001    1    1    2    0    0  0.13541764140E+03  0.18018364096E+03 -0.44364712401E+03  0.53195004719E+03  0.18800000000E+03 0.  0.
   -5000001    1    1    2    0    0 -0.13541764140E+03 -0.18018364096E+03 -0.17342501814E+03  0.34091687988E+03  0.18800000000E+03 0.  0.
<mgrwt>
<rscale>  0 0.61734807E+03</rscale>
<asrwt>0</asrwt>
<pdfrwt beam="1">  1        2 0.10642422E+00 0.61734807E+03</pdfrwt>
<pdfrwt beam="2">  1       -2 0.18271057E-01 0.61734807E+03</pdfrwt>
<totfact> 0.10428653E+03</totfact>
</mgrwt>
</event>
<event>
 4    1  0.6024609E-005  0.4042536E+03  0.7818608E-02  0.1042317E+00
         -2   -1    0    0    0  501 -0.00000000000E+00  0.00000000000E+00  0.22658394690E+02  0.22658394834E+02  0.25500000000E-02 0. -1.
          2   -1    0    0  501    0  0.00000000000E+00 -0.00000000000E+00 -0.18030953820E+04  0.18030953820E+04  0.25500000000E-02 0.  1.
    5000001    1    1    2    0    0  0.35230715414E+02 -0.93911241000E+00 -0.11853119610E+04  0.12006458804E+04  0.18800000000E+03 0.  0.
   -5000001    1    1    2    0    0 -0.35230715414E+02  0.93911241000E+00 -0.59512502631E+03  0.62510789643E+03  0.18800000000E+03 0.  0.
<mgrwt>
<rscale>  0 0.40425362E+03</rscale>
<asrwt>0</asrwt>
<pdfrwt beam="1">  1        2 0.25758496E+00 0.40425362E+03</pdfrwt>
<pdfrwt beam="2">  1       -2 0.32369147E-02 0.40425362E+03</pdfrwt>
<totfact> 0.41683349E+03</totfact>
</mgrwt>
</event>
<event>
 4    1  0.6024609E-005  0.4644778E+03  0.7818608E-02  0.1023490E+00
          2   -1    0    0  501    0  0.00000000000E+00  0.00000000000E+00  0.11024663126E+03  0.11024663129E+03  0.25500000000E-02 0.  1.
         -2   -1    0    0    0  501 -0.00000000000E+00 -0.00000000000E+00 -0.48922042190E+03  0.48922042191E+03  0.25500000000E-02 0. -1.
    5000001    1    1    2    0    0 -0.10428631137E+03  0.84143336835E+02 -0.15695985575E+03  0.27917043574E+03  0.18800000000E+03 0.  0.
   -5000001    1    1    2    0    0  0.10428631137E+03 -0.84143336835E+02 -0.22201393489E+03  0.32029661746E+03  0.18800000000E+03 0.  0.
<mgrwt>
<rscale>  0 0.46447779E+03</rscale>
<asrwt>0</asrwt>
<pdfrwt beam="1">  1        2 0.15749519E-01 0.46447779E+03</pdfrwt>
<pdfrwt beam="2">  1       -2 0.69888631E-01 0.46447779E+03</pdfrwt>
<totfact> 0.70889248E+02</totfact>
</mgrwt>
</event>
<event>
 4    1  0.6024609E-005  0.1758455E+04  0.7818608E-02  0.8728710E-01
          2   -1    0    0  501    0  0.00000000000E+00  0.00000000000E+00  0.91401840698E+03  0.91401840699E+03  0.25500000000E-02 0.  1.
         -2   -1    0    0    0  501 -0.00000000000E+00 -0.00000000000E+00 -0.84576113666E+03  0.84576113666E+03  0.25500000000E-02 0. -1.
    5000001    1    1    2    0    0  0.79017398068E+03  0.24045866828E+03  0.26989458338E+03  0.88903451959E+03  0.18800000000E+03 0.  0.
   -5000001    1    1    2    0    0 -0.79017398068E+03 -0.24045866828E+03 -0.20163731305E+03  0.87074502405E+03  0.18800000000E+03 0.  0.
<mgrwt>
<rscale>  0 0.17584553E+04</rscale>
<asrwt>0</asrwt>
<pdfrwt beam="1">  1        2 0.13057406E+00 0.17584553E+04</pdfrwt>
<pdfrwt beam="2">  1       -2 0.12082302E+00 0.17584553E+04</pdfrwt>
<totfact> 0.15791117E+01</totfact>
</mgrwt>
</event>
<event>
 4    1  0.6024609E-005  0.5877779E+03  0.7818608E-02  0.9931093E-01
          2   -1    0    0  501    0  0.00000000000E+00  0.00000000000E+00  0.18342426204E+04  0.18342426204E+04  0.25500000000E-02 0.  1.
         -2   -1    0    0    0  501 -0.00000000000E+00 -0.00000000000E+00 -0.47087945210E+02  0.47087945280E+02  0.25500000000E-02 0. -1.
    5000001    1    1    2    0    0 -0.70434890429E+02  0.21391031697E+03  0.94975198018E+03  0.99402792786E+03  0.18800000000E+03 0.  0.
   -5000001    1    1    2    0    0  0.70434890429E+02 -0.21391031697E+03  0.83740269505E+03  0.88730263787E+03  0.18800000000E+03 0.  0.
<mgrwt>
<rscale>  0 0.58777790E+03</rscale>
<asrwt>0</asrwt>
<pdfrwt beam="1">  1        2 0.26203467E+00 0.58777790E+03</pdfrwt>
<pdfrwt beam="2">  1       -2 0.67268489E-02 0.58777790E+03</pdfrwt>
<totfact> 0.12961252E+03</totfact>
</mgrwt>
</event>
<event>
 4    1  0.6024609E-005  0.5156184E+03  0.7818608E-02  0.1009781E+00
         -2   -1    0    0    0  501 -0.00000000000E+00  0.00000000000E+00  0.93641370538E+02  0.93641370572E+02  0.25500000000E-02 0. -1.
          2   -1    0    0  501    0  0.00000000000E+00 -0.00000000000E+00 -0.70978873415E+03  0.70978873416E+03  0.25500000000E-02 0.  1.
    5000001    1    1    2    0    0  0.12425195176E+03  0.12359978647E+03 -0.27667185177E+03  0.37763311334E+03  0.18800000000E+03 0.  0.
   -5000001    1    1    2    0    0 -0.12425195176E+03 -0.12359978647E+03 -0.33947551185E+03  0.42579699139E+03  0.18800000000E+03 0.  0.
<mgrwt>
<rscale>  0 0.51561842E+03</rscale>
<asrwt>0</asrwt>
<pdfrwt beam="1">  1        2 0.10139839E+00 0.51561842E+03</pdfrwt>
<pdfrwt beam="2">  1       -2 0.13377339E-01 0.51561842E+03</pdfrwt>
<totfact> 0.18762066E+03</totfact>
</mgrwt>
</event>
<event>
 4    1  0.6024609E-005  0.8194098E+03  0.7818608E-02  0.9532339E-01
         -2   -1    0    0    0  501 -0.00000000000E+00  0.00000000000E+00  0.76430681261E+02  0.76430681303E+02  0.25500000000E-02 0. -1.
          2   -1    0    0  501    0  0.00000000000E+00 -0.00000000000E+00 -0.21962138353E+04  0.21962138353E+04  0.25500000000E-02 0.  1.
    5000001    1    1    2    0    0 -0.35616321524E+03  0.61833208248E+02 -0.11788147967E+04  0.12472465299E+04  0.18800000000E+03 0.  0.
   -5000001    1    1    2    0    0  0.35616321524E+03 -0.61833208248E+02 -0.94096835735E+03  0.10253979867E+04  0.18800000000E+03 0.  0.
<mgrwt>
<rscale>  0 0.81940984E+03</rscale>
<asrwt>0</asrwt>
<pdfrwt beam="1">  1        2 0.31374480E+00 0.81940984E+03</pdfrwt>
<pdfrwt beam="2">  1       -2 0.10918670E-01 0.81940984E+03</pdfrwt>
<totfact> 0.38507220E+02</totfact>
</mgrwt>
</event>
<event>
 4    1  0.6024609E-005  0.7814416E+03  0.7818608E-02  0.9587275E-01
          2   -1    0    0  501    0  0.00000000000E+00  0.00000000000E+00  0.11266996432E+04  0.11266996432E+04  0.25500000000E-02 0.  1.
         -2   -1    0    0    0  501 -0.00000000000E+00 -0.00000000000E+00 -0.13549549642E+03  0.13549549644E+03  0.25500000000E-02 0. -1.
    5000001    1    1    2    0    0 -0.11134835495E+03  0.26655151844E+03  0.79286529735E+03  0.86453892213E+03  0.18800000000E+03 0.  0.
   -5000001    1    1    2    0    0  0.11134835495E+03 -0.26655151844E+03  0.19833884941E+03  0.39765621750E+03  0.18800000000E+03 0.  0.
<mgrwt>
<rscale>  0 0.78144156E+03</rscale>
<asrwt>0</asrwt>
<pdfrwt beam="1">  1        2 0.16095710E+00 0.78144156E+03</pdfrwt>
<pdfrwt beam="2">  1       -2 0.19356499E-01 0.78144156E+03</pdfrwt>
<totfact> 0.53441100E+02</totfact>
</mgrwt>
</event>
<event>
 4    1  0.6024609E-005  0.6780166E+03  0.7818608E-02  0.9755583E-01
         -2   -1    0    0    0  501 -0.00000000000E+00  0.00000000000E+00  0.45704851681E+02  0.45704851752E+02  0.25500000000E-02 0. -1.
          2   -1    0    0  501    0  0.00000000000E+00 -0.00000000000E+00 -0.25145390816E+04  0.25145390816E+04  0.25500000000E-02 0.  1.
    5000001    1    1    2    0    0 -0.27278764297E+03 -0.71782972509E+02 -0.12498679497E+04  0.12950211523E+04  0.18800000000E+03 0.  0.
   -5000001    1    1    2    0    0  0.27278764297E+03  0.71782972509E+02 -0.12189662802E+04  0.12652227810E+04  0.18800000000E+03 0.  0.
<mgrwt>
<rscale>  0 0.67801662E+03</rscale>
<asrwt>0</asrwt>
<pdfrwt beam="1">  1        2 0.35921978E+00 0.67801662E+03</pdfrwt>
<pdfrwt beam="2">  1       -2 0.65292661E-02 0.67801662E+03</pdfrwt>
<totfact> 0.61136544E+02</totfact>
</mgrwt>
</event>
<event>
 4    1  0.6024609E-005  0.6278820E+03  0.7818608E-02  0.9849191E-01
          2   -1    0    0  501    0  0.00000000000E+00  0.00000000000E+00  0.55511985589E+03  0.55511985590E+03  0.25500000000E-02 0.  1.
         -2   -1    0    0    0  501 -0.00000000000E+00 -0.00000000000E+00 -0.17754535492E+03  0.17754535494E+03  0.25500000000E-02 0. -1.
    5000001    1    1    2    0    0 -0.14462489375E+03 -0.41740821626E+02 -0.46206697380E+02  0.24522992266E+03  0.18800000000E+03 0.  0.
   -5000001    1    1    2    0    0  0.14462489375E+03  0.41740821626E+02  0.42378119836E+03  0.48743528818E+03  0.18800000000E+03 0.  0.
<mgrwt>
<rscale>  0 0.62788200E+03</rscale>
<asrwt>0</asrwt>
<pdfrwt beam="1">  1        2 0.79302838E-01 0.62788200E+03</pdfrwt>
<pdfrwt beam="2">  1       -2 0.25363622E-01 0.62788200E+03</pdfrwt>
<totfact> 0.83299028E+02</totfact>
</mgrwt>
</event>
<event>
 4    1  0.6024609E-005  0.7081888E+03  0.7818608E-02  0.9703330E-01
          2   -1    0    0  501    0  0.00000000000E+00  0.00000000000E+00  0.26328112162E+03  0.26328112163E+03  0.25500000000E-02 0.  1.
         -2   -1    0    0    0  501 -0.00000000000E+00 -0.00000000000E+00 -0.47623184454E+03  0.47623184455E+03  0.25500000000E-02 0. -1.
    5000001    1    1    2    0    0  0.23788656037E+01 -0.29766637359E+03 -0.14593466851E+03  0.38111921552E+03  0.18800000000E+03 0.  0.
   -5000001    1    1    2    0    0 -0.23788656037E+01  0.29766637359E+03 -0.67016054410E+02  0.35839375066E+03  0.18800000000E+03 0.  0.
<mgrwt>
<rscale>  0 0.70818883E+03</rscale>
<asrwt>0</asrwt>
<pdfrwt beam="1">  1        2 0.37611589E-01 0.70818883E+03</pdfrwt>
<pdfrwt beam="2">  1       -2 0.68033121E-01 0.70818883E+03</pdfrwt>
<totfact> 0.27541608E+02</totfact>
</mgrwt>
</event>
<event>
 4    1  0.6024609E-005  0.6098732E+03  0.7818608E-02  0.9885131E-01
         -2   -1    0    0    0  501 -0.00000000000E+00  0.00000000000E+00  0.10592865663E+03  0.10592865666E+03  0.25500000000E-02 0. -1.
          2   -1    0    0  501    0  0.00000000000E+00 -0.00000000000E+00 -0.87782039751E+03  0.87782039751E+03  0.25500000000E-02 0.  1.
    5000001    1    1    2    0    0  0.59753487066E+01  0.16433640558E+03 -0.66811320220E+03  0.71327512921E+03  0.18800000000E+03 0.  0.
   -5000001    1    1    2    0    0 -0.59753487066E+01 -0.16433640558E+03 -0.10377853868E+03  0.27047392496E+03  0.18800000000E+03 0.  0.
<mgrwt>
<rscale>  0 0.60987322E+03</rscale>
<asrwt>0</asrwt>
<pdfrwt beam="1">  1        2 0.12540291E+00 0.60987322E+03</pdfrwt>
<pdfrwt beam="2">  1       -2 0.15132666E-01 0.60987322E+03</pdfrwt>
<totfact> 0.11645689E+03</totfact>
</mgrwt>
</event>
<event>
 4    1  0.6024609E-005  0.4249568E+03  0.7818608E-02  0.1035465E+00
         -2   -1    0    0    0  501 -0.00000000000E+00  0.00000000000E+00  0.17631387666E+02  0.17631387851E+02  0.25500000000E-02 0. -1.
          2   -1    0    0  501    0  0.00000000000E+00 -0.00000000000E+00 -0.25606079784E+04  0.25606079784E+04  0.25500000000E-02 0.  1.
    5000001    1    1    2    0    0 -0.61707162057E+02  0.51517242401E+02 -0.92078942807E+03  0.94321735085E+03  0.18800000000E+03 0.  0.
   -5000001    1    1    2    0    0  0.61707162057E+02 -0.51517242401E+02 -0.16221871627E+04  0.16350220154E+04  0.18800000000E+03 0.  0.
<mgrwt>
<rscale>  0 0.42495681E+03</rscale>
<asrwt>0</asrwt>
<pdfrwt beam="1">  1        2 0.36580090E+00 0.42495681E+03</pdfrwt>
<pdfrwt beam="2">  1       -2 0.25187713E-02 0.42495681E+03</pdfrwt>
<totfact> 0.25433442E+03</totfact>
</mgrwt>
</event>
<event>
 4    1  0.6024609E-005  0.8946394E+03  0.7818608E-02  0.9432307E-01
         -2   -1    0    0    0  501 -0.00000000000E+00  0.00000000000E+00  0.22810277383E+03  0.22810277384E+03  0.25500000000E-02 0. -1.
          2   -1    0    0  501    0  0.00000000000E+00 -0.00000000000E+00 -0.87721393919E+03  0.87721393919E+03  0.25500000000E-02 0.  1.
    5000001    1    1    2    0    0  0.36578134602E+03  0.10836957790E+03 -0.49579880483E+03  0.65322309618E+03  0.18800000000E+03 0.  0.
   -5000001    1    1    2    0    0 -0.36578134602E+03 -0.10836957790E+03 -0.15331236054E+03  0.45209361686E+03  0.18800000000E+03 0.  0.
<mgrwt>
<rscale>  0 0.89463944E+03</rscale>
<asrwt>0</asrwt>
<pdfrwt beam="1">  1        2 0.12531627E+00 0.89463944E+03</pdfrwt>
<pdfrwt beam="2">  1       -2 0.32586111E-01 0.89463944E+03</pdfrwt>
<totfact> 0.29553780E+02</totfact>
</mgrwt>
</event>
<event>
 4    1  0.6024609E-005  0.5640018E+03  0.7818608E-02  0.9983040E-01
         -2   -1    0    0    0  501 -0.00000000000E+00  0.00000000000E+00  0.56725314605E+02  0.56725314662E+02  0.25500000000E-02 0. -1.
          2   -1    0    0  501    0  0.00000000000E+00 -0.00000000000E+00 -0.14019225674E+04  0.14019225674E+04  0.25500000000E-02 0.  1.
    5000001    1    1    2    0    0 -0.18902933023E+03 -0.54028416872E+02 -0.48028648870E+03  0.55196944548E+03  0.18800000000E+03 0.  0.
   -5000001    1    1    2    0    0  0.18902933023E+03  0.54028416872E+02 -0.86491076410E+03  0.90667843658E+03  0.18800000000E+03 0.  0.
<mgrwt>
<rscale>  0 0.56400177E+03</rscale>
<asrwt>0</asrwt>
<pdfrwt beam="1">  1        2 0.20027463E+00 0.56400177E+03</pdfrwt>
<pdfrwt beam="2">  1       -2 0.81036172E-02 0.56400177E+03</pdfrwt>
<totfact> 0.16105304E+03</totfact>
</mgrwt>
</event>
<event>
 4    1  0.6024609E-005  0.5095224E+03  0.7818608E-02  0.1011323E+00
         -2   -1    0    0    0  501 -0.00000000000E+00  0.00000000000E+00  0.32893960777E+03  0.32893960778E+03  0.25500000000E-02 0. -1.
          2   -1    0    0  501    0  0.00000000000E+00 -0.00000000000E+00 -0.19731059065E+03  0.19731059067E+03  0.25500000000E-02 0.  1.
    5000001    1    1    2    0    0  0.90886511795E+02  0.10036896436E+03 -0.43611814424E+02  0.23575469749E+03  0.18800000000E+03 0.  0.
   -5000001    1    1    2    0    0 -0.90886511795E+02 -0.10036896436E+03  0.17524083155E+03  0.29049550096E+03  0.18800000000E+03 0.  0.
<mgrwt>
<rscale>  0 0.50952240E+03</rscale>
<asrwt>0</asrwt>
<pdfrwt beam="1">  1        2 0.28187228E-01 0.50952240E+03</pdfrwt>
<pdfrwt beam="2">  1       -2 0.46991372E-01 0.50952240E+03</pdfrwt>
<totfact> 0.82322390E+02</totfact>
</mgrwt>
</event>
<event>
 4    1  0.6024609E-005  0.4302736E+03  0.7818608E-02  0.1033774E+00
          2   -1    0    0  501    0  0.00000000000E+00  0.00000000000E+00  0.32173566050E+03  0.32173566051E+03  0.25500000000E-02 0.  1.
         -2   -1    0    0    0  501 -0.00000000000E+00 -0.00000000000E+00 -0.14385671808E+03  0.14385671811E+03  0.25500000000E-02 0. -1.
    5000001    1    1    2    0    0  0.10270635000E+03 -0.73721532969E-01  0.67536165785E+02  0.22461908524E+03  0.18800000000E+03 0.  0.
   -5000001    1    1    2    0    0 -0.10270635000E+03  0.73721532969E-01  0.11034277663E+03  0.24097329337E+03  0.18800000000E+03 0.  0.
<mgrwt>
<rscale>  0 0.43027357E+03</rscale>
<asrwt>0</asrwt>
<pdfrwt beam="1">  1        2 0.45962237E-01 0.43027357E+03</pdfrwt>
<pdfrwt beam="2">  1       -2 0.20550960E-01 0.43027357E+03</pdfrwt>
<totfact> 0.22201911E+03</totfact>
</mgrwt>
</event>
<event>
 4    1  0.6024609E-005  0.4240666E+03  0.7818608E-02  0.1035751E+00
         -2   -1    0    0    0  501 -0.00000000000E+00  0.00000000000E+00  0.11615271921E+02  0.11615272201E+02  0.25500000000E-02 0. -1.
          2   -1    0    0  501    0  0.00000000000E+00 -0.00000000000E+00 -0.38706034362E+04  0.38706034362E+04  0.25500000000E-02 0.  1.
    5000001    1    1    2    0    0  0.47127675222E+02  0.37328334637E+02 -0.12203893854E+04  0.12362478207E+04  0.18800000000E+03 0.  0.
   -5000001    1    1    2    0    0 -0.47127675222E+02 -0.37328334637E+02 -0.26385987789E+04  0.26459708876E+04  0.18800000000E+03 0.  0.
<mgrwt>
<rscale>  0 0.42406656E+03</rscale>
<asrwt>0</asrwt>
<pdfrwt beam="1">  1        2 0.55294252E+00 0.42406656E+03</pdfrwt>
<pdfrwt beam="2">  1       -2 0.16593271E-02 0.42406656E+03</pdfrwt>
<totfact> 0.86795152E+02</totfact>
</mgrwt>
</event>
<event>
 4    1  0.6024609E-005  0.1139235E+04  0.7818608E-02  0.9167772E-01
         -2   -1    0    0    0  501 -0.00000000000E+00  0.00000000000E+00  0.45888846077E+03  0.45888846078E+03  0.25500000000E-02 0. -1.
          2   -1    0    0  501    0  0.00000000000E+00 -0.00000000000E+00 -0.70706551392E+03  0.70706551392E+03  0.25500000000E-02 0.  1.
    5000001    1    1    2    0    0 -0.51806199417E+03 -0.12470715869E+03 -0.19774943866E+03  0.59865594938E+03  0.18800000000E+03 0.  0.
   -5000001    1    1    2    0    0  0.51806199417E+03  0.12470715869E+03 -0.50427614487E+02  0.56729802532E+03  0.18800000000E+03 0.  0.
<mgrwt>
<rscale>  0 0.11392352E+04</rscale>
<asrwt>0</asrwt>
<pdfrwt beam="1">  1        2 0.10100936E+00 0.11392352E+04</pdfrwt>
<pdfrwt beam="2">  1       -2 0.65555494E-01 0.11392352E+04</pdfrwt>
<totfact> 0.94466899E+01</totfact>
</mgrwt>
</event>
<event>
 4    1  0.6024609E-005  0.4906165E+03  0.7818608E-02  0.1016258E+00
         -2   -1    0    0    0  501 -0.00000000000E+00  0.00000000000E+00  0.23690862894E+02  0.23690863031E+02  0.25500000000E-02 0. -1.
          2   -1    0    0  501    0  0.00000000000E+00 -0.00000000000E+00 -0.25400564600E+04  0.25400564600E+04  0.25500000000E-02 0.  1.
    5000001    1    1    2    0    0 -0.13926331483E+03  0.21895839961E+02 -0.16261467121E+04  0.16430370745E+04  0.18800000000E+03 0.  0.
   -5000001    1    1    2    0    0  0.13926331483E+03 -0.21895839961E+02 -0.89021888500E+03  0.92071024860E+03  0.18800000000E+03 0.  0.
<mgrwt>
<rscale>  0 0.49061647E+03</rscale>
<asrwt>0</asrwt>
<pdfrwt beam="1">  1        2 0.36286503E+00 0.49061647E+03</pdfrwt>
<pdfrwt beam="2">  1       -2 0.33844106E-02 0.49061647E+03</pdfrwt>
<totfact> 0.16615445E+03</totfact>
</mgrwt>
</event>
<event>
 4    1  0.6024609E-005  0.7350319E+03  0.7818608E-02  0.9659130E-01
          2   -1    0    0  501    0  0.00000000000E+00  0.00000000000E+00  0.18609646038E+04  0.18609646038E+04  0.25500000000E-02 0.  1.
         -2   -1    0    0    0  501 -0.00000000000E+00 -0.00000000000E+00 -0.72579547368E+02  0.72579547413E+02  0.25500000000E-02 0. -1.
    5000001    1    1    2    0    0 -0.10721212663E+03  0.12900138438E+03  0.19036127408E+03  0.31578032228E+03  0.18800000000E+03 0.  0.
   -5000001    1    1    2    0    0  0.10721212663E+03 -0.12900138438E+03  0.15980237824E+04  0.16177638290E+04  0.18800000000E+03 0.  0.
<mgrwt>
<rscale>  0 0.73503189E+03</rscale>
<asrwt>0</asrwt>
<pdfrwt beam="1">  1        2 0.26585205E+00 0.73503189E+03</pdfrwt>
<pdfrwt beam="2">  1       -2 0.10368508E-01 0.73503189E+03</pdfrwt>
<totfact> 0.62317849E+02</totfact>
</mgrwt>
</event>
<event>
 4    1  0.6024609E-005  0.4381119E+03  0.7818608E-02  0.1031328E+00
          2   -1    0    0  501    0  0.00000000000E+00  0.00000000000E+00  0.53335163616E+03  0.53335163617E+03  0.25500000000E-02 0.  1.
         -2   -1    0    0    0  501 -0.00000000000E+00 -0.00000000000E+00 -0.89969760136E+02  0.89969760172E+02  0.25500000000E-02 0. -1.
    5000001    1    1    2    0    0  0.10272300189E+02  0.99767120282E+02  0.14938918656E+03  0.26023091189E+03  0.18800000000E+03 0.  0.
   -5000001    1    1    2    0    0 -0.10272300189E+02 -0.99767120282E+02  0.29399268946E+03  0.36309048445E+03  0.18800000000E+03 0.  0.
<mgrwt>
<rscale>  0 0.43811194E+03</rscale>
<asrwt>0</asrwt>
<pdfrwt beam="1">  1        2 0.76193092E-01 0.43811194E+03</pdfrwt>
<pdfrwt beam="2">  1       -2 0.12852823E-01 0.43811194E+03</pdfrwt>
<totfact> 0.28017466E+03</totfact>
</mgrwt>
</event>
<event>
 4    1  0.6024609E-005  0.1234701E+04  0.7818608E-02  0.9083013E-01
          2   -1    0    0  501    0  0.00000000000E+00  0.00000000000E+00  0.44493902035E+03  0.44493902036E+03  0.25500000000E-02 0.  1.
         -2   -1    0    0    0  501 -0.00000000000E+00 -0.00000000000E+00 -0.85657079555E+03  0.85657079556E+03  0.25500000000E-02 0. -1.
    5000001    1    1    2    0    0 -0.26683296607E+03 -0.41783322252E+03  0.12751158128E+03  0.54533259300E+03  0.18800000000E+03 0.  0.
   -5000001    1    1    2    0    0  0.26683296607E+03  0.41783322252E+03 -0.53914335648E+03  0.75617722292E+03  0.18800000000E+03 0.  0.
<mgrwt>
<rscale>  0 0.12347012E+04</rscale>
<asrwt>0</asrwt>
<pdfrwt beam="1">  1        2 0.63562717E-01 0.12347012E+04</pdfrwt>
<pdfrwt beam="2">  1       -2 0.12236726E+00 0.12347012E+04</pdfrwt>
<totfact> 0.38221054E+01</totfact>
</mgrwt>
</event>
<event>
 4    1  0.6024609E-005  0.4263285E+03  0.7818608E-02  0.1035026E+00
          2   -1    0    0  501    0  0.00000000000E+00  0.00000000000E+00  0.29138181121E+03  0.29138181122E+03  0.25500000000E-02 0.  1.
         -2   -1    0    0    0  501 -0.00000000000E+00 -0.00000000000E+00 -0.15594316353E+03  0.15594316355E+03  0.25500000000E-02 0. -1.
    5000001    1    1    2    0    0 -0.12374421947E+02  0.99315718948E+02  0.77001659456E+02  0.22647294299E+03  0.18800000000E+03 0.  0.
   -5000001    1    1    2    0    0  0.12374421947E+02 -0.99315718948E+02  0.58436988223E+02  0.22085203178E+03  0.18800000000E+03 0.  0.
<mgrwt>
<rscale>  0 0.42632852E+03</rscale>
<asrwt>0</asrwt>
<pdfrwt beam="1">  1        2 0.41625973E-01 0.42632852E+03</pdfrwt>
<pdfrwt beam="2">  1       -2 0.22277595E-01 0.42632852E+03</pdfrwt>
<totfact> 0.21490216E+03</totfact>
</mgrwt>
</event>
<event>
 4    1  0.6024609E-005  0.5462421E+03  0.7818608E-02  0.1002367E+00
         -2   -1    0    0    0  501 -0.00000000000E+00  0.00000000000E+00  0.80555309817E+02  0.80555309857E+02  0.25500000000E-02 0. -1.
          2   -1    0    0  501    0  0.00000000000E+00 -0.00000000000E+00 -0.92601121471E+03  0.92601121471E+03  0.25500000000E-02 0.  1.
    5000001    1    1    2    0    0  0.58842234466E+02 -0.17218473298E+03 -0.27832322695E+03  0.38199189715E+03  0.18800000000E+03 0.  0.
   -5000001    1    1    2    0    0 -0.58842234466E+02  0.17218473298E+03 -0.56713267794E+03  0.62457462742E+03  0.18800000000E+03 0.  0.
<mgrwt>
<rscale>  0 0.54624215E+03</rscale>
<asrwt>0</asrwt>
<pdfrwt beam="1">  1        2 0.13228731E+00 0.54624215E+03</pdfrwt>
<pdfrwt beam="2">  1       -2 0.11507902E-01 0.54624215E+03</pdfrwt>
<totfact> 0.17099550E+03</totfact>
</mgrwt>
</event>
<event>
 4    1  0.6024609E-005  0.8248990E+03  0.7818608E-02  0.9524660E-01
          2   -1    0    0  501    0  0.00000000000E+00  0.00000000000E+00  0.27880177892E+04  0.27880177892E+04  0.25500000000E-02 0.  1.
         -2   -1    0    0    0  501 -0.00000000000E+00 -0.00000000000E+00 -0.61016325399E+02  0.61016325453E+02  0.25500000000E-02 0. -1.
    5000001    1    1    2    0    0 -0.35494254855E+03  0.73624600638E+02  0.11631267136E+04  0.12327256574E+04  0.18800000000E+03 0.  0.
   -5000001    1    1    2    0    0  0.35494254855E+03 -0.73624600638E+02  0.15638747502E+04  0.16163084572E+04  0.18800000000E+03 0.  0.
<mgrwt>
<rscale>  0 0.82489903E+03</rscale>
<asrwt>0</asrwt>
<pdfrwt beam="1">  1        2 0.39828835E+00 0.82489903E+03</pdfrwt>
<pdfrwt beam="2">  1       -2 0.87166159E-02 0.82489903E+03</pdfrwt>
<totfact> 0.27379913E+02</totfact>
</mgrwt>
</event>
<event>
 4    1  0.6024609E-005  0.3923618E+03  0.7818608E-02  0.1046457E+00
         -2   -1    0    0    0  501 -0.00000000000E+00  0.00000000000E+00  0.96517339953E+02  0.96517339987E+02  0.25500000000E-02 0. -1.
          2   -1    0    0  501    0  0.00000000000E+00 -0.00000000000E+00 -0.39875679617E+03  0.39875679617E+03  0.25500000000E-02 0.  1.
    5000001    1    1    2    0    0  0.48764723199E+02 -0.24756781893E+02 -0.16668477420E+03  0.25713558764E+03  0.18800000000E+03 0.  0.
   -5000001    1    1    2    0    0 -0.48764723199E+02  0.24756781893E+02 -0.13555468201E+03  0.23813854853E+03  0.18800000000E+03 0.  0.
<mgrwt>
<rscale>  0 0.39236180E+03</rscale>
<asrwt>0</asrwt>
<pdfrwt beam="1">  1        2 0.56965256E-01 0.39236180E+03</pdfrwt>
<pdfrwt beam="2">  1       -2 0.13788192E-01 0.39236180E+03</pdfrwt>
<totfact> 0.34435680E+03</totfact>
</mgrwt>
</event>
<event>
 4    1  0.6024609E-005  0.6208042E+03  0.7818608E-02  0.9863160E-01
         -2   -1    0    0    0  501 -0.00000000000E+00  0.00000000000E+00  0.47664303337E+03  0.47664303337E+03  0.25500000000E-02 0. -1.
          2   -1    0    0  501    0  0.00000000000E+00 -0.00000000000E+00 -0.20214177891E+03  0.20214177892E+03  0.25500000000E-02 0.  1.
    5000001    1    1    2    0    0 -0.18073507985E+03 -0.75420087192E+02 -0.27312224529E+02  0.27284302492E+03  0.18800000000E+03 0.  0.
   -5000001    1    1    2    0    0  0.18073507985E+03  0.75420087192E+02  0.30181347899E+03  0.40594178738E+03  0.18800000000E+03 0.  0.
<mgrwt>
<rscale>  0 0.62080422E+03</rscale>
<asrwt>0</asrwt>
<pdfrwt beam="1">  1        2 0.28877397E-01 0.62080422E+03</pdfrwt>
<pdfrwt beam="2">  1       -2 0.68091862E-01 0.62080422E+03</pdfrwt>
<totfact> 0.37039849E+02</totfact>
</mgrwt>
</event>
<event>
 4    1  0.6024609E-005  0.1043346E+04  0.7818608E-02  0.9262241E-01
         -2   -1    0    0    0  501 -0.00000000000E+00  0.00000000000E+00  0.28552626130E+03  0.28552626132E+03  0.25500000000E-02 0. -1.
          2   -1    0    0  501    0  0.00000000000E+00 -0.00000000000E+00 -0.95312602370E+03  0.95312602370E+03  0.25500000000E-02 0.  1.
    5000001    1    1    2    0    0 -0.42410164293E+03 -0.22041976239E+03 -0.22530686830E+03  0.56085137077E+03  0.18800000000E+03 0.  0.
   -5000001    1    1    2    0    0  0.42410164293E+03  0.22041976239E+03 -0.44229289409E+03  0.67780091425E+03  0.18800000000E+03 0.  0.
<mgrwt>
<rscale>  0 0.10433456E+04</rscale>
<asrwt>0</asrwt>
<pdfrwt beam="1">  1        2 0.13616086E+00 0.10433456E+04</pdfrwt>
<pdfrwt beam="2">  1       -2 0.40789466E-01 0.10433456E+04</pdfrwt>
<totfact> 0.17014422E+02</totfact>
</mgrwt>
</event>
<event>
 4    1  0.6024609E-005  0.5312098E+03  0.7818608E-02  0.1005939E+00
         -2   -1    0    0    0  501 -0.00000000000E+00  0.00000000000E+00  0.65398874541E+02  0.65398874591E+02  0.25500000000E-02 0. -1.
          2   -1    0    0  501    0  0.00000000000E+00 -0.00000000000E+00 -0.10787031833E+04  0.10787031833E+04  0.25500000000E-02 0.  1.
    5000001    1    1    2    0    0 -0.16852255673E+03  0.76556176054E+02 -0.57273012193E+03  0.63057473212E+03  0.18800000000E+03 0.  0.
   -5000001    1    1    2    0    0  0.16852255673E+03 -0.76556176054E+02 -0.44057418682E+03  0.51352732577E+03  0.18800000000E+03 0.  0.
<mgrwt>
<rscale>  0 0.53120984E+03</rscale>
<asrwt>0</asrwt>
<pdfrwt beam="1">  1        2 0.15410044E+00 0.53120984E+03</pdfrwt>
<pdfrwt beam="2">  1       -2 0.93426970E-02 0.53120984E+03</pdfrwt>
<totfact> 0.19372404E+03</totfact>
</mgrwt>
</event>
<event>
 4    1  0.6024609E-005  0.5264773E+03  0.7818608E-02  0.1007090E+00
         -2   -1    0    0    0  501 -0.00000000000E+00  0.00000000000E+00  0.56311254404E+02  0.56311254461E+02  0.25500000000E-02 0. -1.
          2   -1    0    0  501    0  0.00000000000E+00 -0.00000000000E+00 -0.12305634961E+04  0.12305634961E+04  0.25500000000E-02 0.  1.
    5000001    1    1    2    0    0  0.12610369796E+03 -0.11006962752E+03 -0.39884888336E+03  0.47163746384E+03  0.18800000000E+03 0.  0.
   -5000001    1    1    2    0    0 -0.12610369796E+03  0.11006962752E+03 -0.77540335836E+03  0.81523728675E+03  0.18800000000E+03 0.  0.
<mgrwt>
<rscale>  0 0.52647725E+03</rscale>
<asrwt>0</asrwt>
<pdfrwt beam="1">  1        2 0.17579477E+00 0.52647725E+03</pdfrwt>
<pdfrwt beam="2">  1       -2 0.80444657E-02 0.52647725E+03</pdfrwt>
<totfact> 0.20180460E+03</totfact>
</mgrwt>
</event>
<event>
 4    1  0.6024609E-005  0.5357137E+03  0.7818608E-02  0.1004856E+00
         -2   -1    0    0    0  501 -0.00000000000E+00  0.00000000000E+00  0.17167221502E+03  0.17167221504E+03  0.25500000000E-02 0. -1.
          2   -1    0    0  501    0  0.00000000000E+00 -0.00000000000E+00 -0.41793193019E+03  0.41793193020E+03  0.25500000000E-02 0.  1.
    5000001    1    1    2    0    0 -0.15171733308E+03  0.46079014879E+02 -0.23992724014E+03  0.34358478623E+03  0.18800000000E+03 0.  0.
   -5000001    1    1    2    0    0  0.15171733308E+03 -0.46079014879E+02 -0.63324750265E+01  0.24601935901E+03  0.18800000000E+03 0.  0.
<mgrwt>
<rscale>  0 0.53571373E+03</rscale>
<asrwt>0</asrwt>
<pdfrwt beam="1">  1        2 0.59704561E-01 0.53571373E+03</pdfrwt>
<pdfrwt beam="2">  1       -2 0.24524602E-01 0.53571373E+03</pdfrwt>
<totfact> 0.12212734E+03</totfact>
</mgrwt>
</event>
<event>
 4    1  0.6024609E-005  0.5551240E+03  0.7818608E-02  0.1000315E+00
          2   -1    0    0  501    0  0.00000000000E+00  0.00000000000E+00  0.11029210633E+04  0.11029210633E+04  0.25500000000E-02 0.  1.
         -2   -1    0    0    0  501 -0.00000000000E+00 -0.00000000000E+00 -0.69851488123E+02  0.69851488169E+02  0.25500000000E-02 0. -1.
    5000001    1    1    2    0    0 -0.18076335529E+03 -0.74514447587E+02  0.39210663789E+03  0.47678025231E+03  0.18800000000E+03 0.  0.
   -5000001    1    1    2    0    0  0.18076335529E+03  0.74514447587E+02  0.64096293727E+03  0.69599229915E+03  0.18800000000E+03 0.  0.
<mgrwt>
<rscale>  0 0.55512405E+03</rscale>
<asrwt>0</asrwt>
<pdfrwt beam="1">  1        2 0.15756014E+00 0.55512405E+03</pdfrwt>
<pdfrwt beam="2">  1       -2 0.99787845E-02 0.55512405E+03</pdfrwt>
<totfact> 0.16858171E+03</totfact>
</mgrwt>
</event>
<event>
 4    1  0.6024609E-005  0.5309827E+03  0.7818608E-02  0.1005994E+00
         -2   -1    0    0    0  501 -0.00000000000E+00  0.00000000000E+00  0.16715565060E+04  0.16715565060E+04  0.25500000000E-02 0. -1.
          2   -1    0    0  501    0  0.00000000000E+00 -0.00000000000E+00 -0.42167682546E+02  0.42167682623E+02  0.25500000000E-02 0.  1.
    5000001    1    1    2    0    0  0.14982581692E+03  0.59013388469E+02  0.11244514635E+04  0.11513754598E+04  0.18800000000E+03 0.  0.
   -5000001    1    1    2    0    0 -0.14982581692E+03 -0.59013388469E+02  0.50493735987E+03  0.56234872884E+03  0.18800000000E+03 0.  0.
<mgrwt>
<rscale>  0 0.53098273E+03</rscale>
<asrwt>0</asrwt>
<pdfrwt beam="1">  1        2 0.60239552E-02 0.53098273E+03</pdfrwt>
<pdfrwt beam="2">  1       -2 0.23879376E+00 0.53098273E+03</pdfrwt>
<totfact> 0.10091617E+02</totfact>
</mgrwt>
</event>
<event>
 4    1  0.6024609E-005  0.7557600E+03  0.7818608E-02  0.9626357E-01
         -2   -1    0    0    0  501 -0.00000000000E+00  0.00000000000E+00  0.52865768585E+03  0.52865768585E+03  0.25500000000E-02 0. -1.
          2   -1    0    0  501    0  0.00000000000E+00 -0.00000000000E+00 -0.27010538565E+03  0.27010538566E+03  0.25500000000E-02 0.  1.
    5000001    1    1    2    0    0  0.13085539296E+03 -0.18205561475E+03  0.38200999499E+03  0.48118916967E+03  0.18800000000E+03 0.  0.
   -5000001    1    1    2    0    0 -0.13085539296E+03  0.18205561475E+03 -0.12345769480E+03  0.31757390185E+03  0.18800000000E+03 0.  0.
<mgrwt>
<rscale>  0 0.75575998E+03</rscale>
<asrwt>0</asrwt>
<pdfrwt beam="1">  1        2 0.38586484E-01 0.75575998E+03</pdfrwt>
<pdfrwt beam="2">  1       -2 0.75522526E-01 0.75575998E+03</pdfrwt>
<totfact> 0.21260156E+02</totfact>
</mgrwt>
</event>
<event>
 4    1  0.6024609E-005  0.9742974E+03  0.7818608E-02  0.9337193E-01
          2   -1    0    0  501    0  0.00000000000E+00  0.00000000000E+00  0.30610810670E+03  0.30610810671E+03  0.25500000000E-02 0.  1.
         -2   -1    0    0    0  501 -0.00000000000E+00 -0.00000000000E+00 -0.77526153370E+03  0.77526153371E+03  0.25500000000E-02 0. -1.
    5000001    1    1    2    0    0  0.31301089845E+03 -0.11799517948E+03 -0.56767738640E+03  0.68520091941E+03  0.18800000000E+03 0.  0.
   -5000001    1    1    2    0    0 -0.31301089845E+03  0.11799517948E+03  0.98523959397E+02  0.39616872101E+03  0.18800000000E+03 0.  0.
<mgrwt>
<rscale>  0 0.97429737E+03</rscale>
<asrwt>0</asrwt>
<pdfrwt beam="1">  1        2 0.43729730E-01 0.97429737E+03</pdfrwt>
<pdfrwt beam="2">  1       -2 0.11075165E+00 0.97429737E+03</pdfrwt>
<totfact> 0.75360917E+01</totfact>
</mgrwt>
</event>
<event>
 4    1  0.6024609E-005  0.9636225E+03  0.7818608E-02  0.9349368E-01
          2   -1    0    0  501    0  0.00000000000E+00  0.00000000000E+00  0.18338276300E+04  0.18338276300E+04  0.25500000000E-02 0. -1.
         -2   -1    0    0    0  501 -0.00000000000E+00 -0.00000000000E+00 -0.12658881317E+03  0.12658881320E+03  0.25500000000E-02 0.  1.
    5000001    1    1    2    0    0  0.44116816930E+03  0.46271750721E+02  0.84292469359E+03  0.97089467378E+03  0.18800000000E+03 0.  0.
   -5000001    1    1    2    0    0 -0.44116816930E+03 -0.46271750721E+02  0.86431412323E+03  0.98952176941E+03  0.18800000000E+03 0.  0.
<mgrwt>
<rscale>  0 0.96362246E+03</rscale>
<asrwt>0</asrwt>
<pdfrwt beam="1">  1        2 0.26197537E+00 0.96362246E+03</pdfrwt>
<pdfrwt beam="2">  1       -2 0.18084116E-01 0.96362246E+03</pdfrwt>
<totfact> 0.24924851E+02</totfact>
</mgrwt>
</event>
<event>
 4    1  0.6024609E-005  0.6325043E+03  0.7818608E-02  0.9840174E-01
          2   -1    0    0  501    0  0.00000000000E+00  0.00000000000E+00  0.10879270444E+04  0.10879270444E+04  0.25500000000E-02 0.  1.
         -2   -1    0    0    0  501 -0.00000000000E+00 -0.00000000000E+00 -0.91932109674E+02  0.91932109709E+02  0.25500000000E-02 0. -1.
    5000001    1    1    2    0    0  0.18096287471E+03  0.15222953796E+03  0.32350706478E+03  0.44263101475E+03  0.18800000000E+03 0.  0.
   -5000001    1    1    2    0    0 -0.18096287471E+03 -0.15222953796E+03  0.67248786997E+03  0.73722813939E+03  0.18800000000E+03 0.  0.
<mgrwt>
<rscale>  0 0.63250432E+03</rscale>
<asrwt>0</asrwt>
<pdfrwt beam="1">  1        2 0.15541814E+00 0.63250432E+03</pdfrwt>
<pdfrwt beam="2">  1       -2 0.13133159E-01 0.63250432E+03</pdfrwt>
<totfact> 0.10945916E+03</totfact>
</mgrwt>
</event>
<event>
 4    1  0.6024609E-005  0.7015370E+03  0.7818608E-02  0.9714607E-01
         -2   -1    0    0    0  501 -0.00000000000E+00  0.00000000000E+00  0.48567208081E+02  0.48567208148E+02  0.25500000000E-02 0. -1.
          2   -1    0    0  501    0  0.00000000000E+00 -0.00000000000E+00 -0.25333662282E+04  0.25333662282E+04  0.25500000000E-02 0.  1.
    5000001    1    1    2    0    0  0.11588535522E+03  0.27158750773E+03 -0.11596654861E+04  0.12113452149E+04  0.18800000000E+03 0.  0.
   -5000001    1    1    2    0    0 -0.11588535522E+03 -0.27158750773E+03 -0.13251335340E+04  0.13705882215E+04  0.18800000000E+03 0.  0.
<mgrwt>
<rscale>  0 0.70153696E+03</rscale>
<asrwt>0</asrwt>
<pdfrwt beam="1">  1        2 0.36190938E+00 0.70153696E+03</pdfrwt>
<pdfrwt beam="2">  1       -2 0.69381742E-02 0.70153696E+03</pdfrwt>
<totfact> 0.54207241E+02</totfact>
</mgrwt>
</event>
<event>
 4    1  0.6024609E-005  0.7981317E+03  0.7818608E-02  0.9562725E-01
          2   -1    0    0  501    0  0.00000000000E+00  0.00000000000E+00  0.33096501211E+04  0.33096501211E+04  0.25500000000E-02 0.  1.
         -2   -1    0    0    0  501 -0.00000000000E+00 -0.00000000000E+00 -0.48117946846E+02  0.48117946914E+02  0.25500000000E-02 0. -1.
    5000001    1    1    2    0    0  0.21277954689E+03 -0.26616583158E+03  0.20020874615E+04  0.20395630877E+04  0.18800000000E+03 0.  0.
   -5000001    1    1    2    0    0 -0.21277954689E+03  0.26616583158E+03  0.12594447128E+04  0.13182049803E+04  0.18800000000E+03 0.  0.
<mgrwt>
<rscale>  0 0.79813174E+03</rscale>
<asrwt>0</asrwt>
<pdfrwt beam="1">  1        2 0.47280712E+00 0.79813174E+03</pdfrwt>
<pdfrwt beam="2">  1       -2 0.68739930E-02 0.79813174E+03</pdfrwt>
<totfact> 0.20641763E+02</totfact>
</mgrwt>
</event>
<event>
 4    1  0.6024609E-005  0.4579188E+03  0.7818608E-02  0.1025387E+00
         -2   -1    0    0    0  501 -0.00000000000E+00  0.00000000000E+00  0.12621807956E+03  0.12621807958E+03  0.25500000000E-02 0. -1.
          2   -1    0    0  501    0  0.00000000000E+00 -0.00000000000E+00 -0.41533201914E+03  0.41533201915E+03  0.25500000000E-02 0.  1.
    5000001    1    1    2    0    0 -0.49342133248E+02 -0.10129462145E+03 -0.66260175111E+02  0.22897523284E+03  0.18800000000E+03 0.  0.
   -5000001    1    1    2    0    0  0.49342133248E+02  0.10129462145E+03 -0.22285376448E+03  0.31257486589E+03  0.18800000000E+03 0.  0.
<mgrwt>
<rscale>  0 0.45791881E+03</rscale>
<asrwt>0</asrwt>
<pdfrwt beam="1">  1        2 0.59333145E-01 0.45791881E+03</pdfrwt>
<pdfrwt beam="2">  1       -2 0.18031154E-01 0.45791881E+03</pdfrwt>
<totfact> 0.21028113E+03</totfact>
</mgrwt>
</event>
<event>
 4    1  0.6024609E-005  0.6538799E+03  0.7818608E-02  0.9799526E-01
         -2   -1    0    0    0  501 -0.00000000000E+00  0.00000000000E+00  0.14315331844E+03  0.14315331846E+03  0.25500000000E-02 0. -1.
          2   -1    0    0  501    0  0.00000000000E+00 -0.00000000000E+00 -0.74668002839E+03  0.74668002839E+03  0.25500000000E-02 0.  1.
    5000001    1    1    2    0    0  0.11856456847E+03  0.20766317425E+03 -0.13866446019E+03  0.33429535348E+03  0.18800000000E+03 0.  0.
   -5000001    1    1    2    0    0 -0.11856456847E+03 -0.20766317425E+03 -0.46486224975E+03  0.55553799337E+03  0.18800000000E+03 0.  0.
<mgrwt>
<rscale>  0 0.65387988E+03</rscale>
<asrwt>0</asrwt>
<pdfrwt beam="1">  1        2 0.10666857E+00 0.65387988E+03</pdfrwt>
<pdfrwt beam="2">  1       -2 0.20450474E-01 0.65387988E+03</pdfrwt>
<totfact> 0.85447034E+02</totfact>
</mgrwt>
</event>
<event>
 4    1  0.6024609E-005  0.8055597E+03  0.7818608E-02  0.9552004E-01
         -2   -1    0    0    0  501 -0.00000000000E+00  0.00000000000E+00  0.11141590783E+04  0.11141590783E+04  0.25500000000E-02 0. -1.
          2   -1    0    0  501    0  0.00000000000E+00 -0.00000000000E+00 -0.14560900829E+03  0.14560900832E+03  0.25500000000E-02 0.  1.
    5000001    1    1    2    0    0 -0.31140934310E+03  0.78902212437E+02  0.24359440890E+03  0.44484106616E+03  0.18800000000E+03 0.  0.
   -5000001    1    1    2    0    0  0.31140934310E+03 -0.78902212437E+02  0.72495566115E+03  0.81492702049E+03  0.18800000000E+03 0.  0.
<mgrwt>
<rscale>  0 0.80555968E+03</rscale>
<asrwt>0</asrwt>
<pdfrwt beam="1">  1        2 0.20801287E-01 0.80555968E+03</pdfrwt>
<pdfrwt beam="2">  1       -2 0.15916559E+00 0.80555968E+03</pdfrwt>
<totfact> 0.69967340E+01</totfact>
</mgrwt>
</event>
<event>
 4    1  0.6024609E-005  0.5770897E+03  0.7818608E-02  0.9954112E-01
          2   -1    0    0  501    0  0.00000000000E+00  0.00000000000E+00  0.39684889231E+03  0.39684889231E+03  0.25500000000E-02 0.  1.
         -2   -1    0    0    0  501 -0.00000000000E+00 -0.00000000000E+00 -0.20979806838E+03  0.20979806840E+03  0.25500000000E-02 0. -1.
    5000001    1    1    2    0    0 -0.21875290364E+03  0.25012043490E+01  0.10132444043E+03  0.30572819809E+03  0.18800000000E+03 0.  0.
   -5000001    1    1    2    0    0  0.21875290364E+03 -0.25012043490E+01  0.85726383489E+02  0.30091876263E+03  0.18800000000E+03 0.  0.
<mgrwt>
<rscale>  0 0.57708970E+03</rscale>
<asrwt>0</asrwt>
<pdfrwt beam="1">  1        2 0.56692698E-01 0.57708970E+03</pdfrwt>
<pdfrwt beam="2">  1       -2 0.29971153E-01 0.57708970E+03</pdfrwt>
<totfact> 0.89860813E+02</totfact>
</mgrwt>
</event>
<event>
 4    1  0.6024609E-005  0.5701103E+03  0.7818608E-02  0.9969434E-01
         -2   -1    0    0    0  501 -0.00000000000E+00  0.00000000000E+00  0.15773474881E+03  0.15773474883E+03  0.25500000000E-02 0. -1.
          2   -1    0    0  501    0  0.00000000000E+00 -0.00000000000E+00 -0.51514617096E+03  0.51514617097E+03  0.25500000000E-02 0.  1.
    5000001    1    1    2    0    0 -0.16196317281E+03 -0.12400739843E+03 -0.25612374469E+03  0.37756228202E+03  0.18800000000E+03 0.  0.
   -5000001    1    1    2    0    0  0.16196317281E+03  0.12400739843E+03 -0.10128767746E+03  0.29531863777E+03  0.18800000000E+03 0.  0.
<mgrwt>
<rscale>  0 0.57011035E+03</rscale>
<asrwt>0</asrwt>
<pdfrwt beam="1">  1        2 0.73592309E-01 0.57011035E+03</pdfrwt>
<pdfrwt beam="2">  1       -2 0.22533536E-01 0.57011035E+03</pdfrwt>
<totfact> 0.11219076E+03</totfact>
</mgrwt>
</event>
<event>
 4    1  0.6024609E-005  0.5448388E+03  0.7818608E-02  0.1002696E+00
          2   -1    0    0  501    0  0.00000000000E+00  0.00000000000E+00  0.68776133414E+03  0.68776133414E+03  0.25500000000E-02 0.  1.
         -2   -1    0    0    0  501 -0.00000000000E+00 -0.00000000000E+00 -0.10790417433E+03  0.10790417436E+03  0.25500000000E-02 0. -1.
    5000001    1    1    2    0    0 -0.13353952085E+03  0.10086315603E+03  0.44213052905E+03  0.50875297010E+03  0.18800000000E+03 0.  0.
   -5000001    1    1    2    0    0  0.13353952085E+03 -0.10086315603E+03  0.13772663075E+03  0.28691253840E+03  0.18800000000E+03 0.  0.
<mgrwt>
<rscale>  0 0.54483876E+03</rscale>
<asrwt>0</asrwt>
<pdfrwt beam="1">  1        2 0.98251619E-01 0.54483876E+03</pdfrwt>
<pdfrwt beam="2">  1       -2 0.15414882E-01 0.54483876E+03</pdfrwt>
<totfact> 0.15382412E+03</totfact>
</mgrwt>
</event>
<event>
 4    1  0.6024609E-005  0.4894453E+03  0.7818608E-02  0.1016571E+00
          2   -1    0    0  501    0  0.00000000000E+00  0.00000000000E+00  0.16948581234E+04  0.16948581234E+04  0.25500000000E-02 0.  1.
         -2   -1    0    0    0  501 -0.00000000000E+00 -0.00000000000E+00 -0.35335807491E+02  0.35335807583E+02  0.25500000000E-02 0. -1.
    5000001    1    1    2    0    0  0.11805692937E+03  0.10066005953E+03  0.75269354546E+03  0.79117726177E+03  0.18800000000E+03 0.  0.
   -5000001    1    1    2    0    0 -0.11805692937E+03 -0.10066005953E+03  0.90682877043E+03  0.93901666920E+03  0.18800000000E+03 0.  0.
<mgrwt>
<rscale>  0 0.48944532E+03</rscale>
<asrwt>0</asrwt>
<pdfrwt beam="1">  1        2 0.24212269E+00 0.48944532E+03</pdfrwt>
<pdfrwt beam="2">  1       -2 0.50479704E-02 0.48944532E+03</pdfrwt>
<totfact> 0.23934297E+03</totfact>
</mgrwt>
</event>
<event>
 4    1  0.6024609E-005  0.7844567E+03  0.7818608E-02  0.9582792E-01
         -2   -1    0    0    0  501 -0.00000000000E+00  0.00000000000E+00  0.20730377202E+03  0.20730377203E+03  0.25500000000E-02 0. -1.
          2   -1    0    0  501    0  0.00000000000E+00 -0.00000000000E+00 -0.74211414997E+03  0.74211414998E+03  0.25500000000E-02 0.  1.
    5000001    1    1    2    0    0  0.16574447411E+03  0.30057476887E+03 -0.29902682943E+03  0.49252153973E+03  0.18800000000E+03 0.  0.
   -5000001    1    1    2    0    0 -0.16574447411E+03 -0.30057476887E+03 -0.23578354853E+03  0.45689638228E+03  0.18800000000E+03 0.  0.
<mgrwt>
<rscale>  0 0.78445666E+03</rscale>
<asrwt>0</asrwt>
<pdfrwt beam="1">  1        2 0.10601631E+00 0.78445666E+03</pdfrwt>
<pdfrwt beam="2">  1       -2 0.29614825E-01 0.78445666E+03</pdfrwt>
<totfact> 0.44074395E+02</totfact>
</mgrwt>
</event>
<event>
 4    1  0.6024609E-005  0.7678911E+03  0.7818608E-02  0.9607693E-01
         -2   -1    0    0    0  501 -0.00000000000E+00  0.00000000000E+00  0.21497049164E+03  0.21497049165E+03  0.25500000000E-02 0.  1.
          2   -1    0    0  501    0  0.00000000000E+00 -0.00000000000E+00 -0.68574154672E+03  0.68574154673E+03  0.25500000000E-02 0. -1.
    5000001    1    1    2    0    0 -0.86306251154E+02  0.25667556401E+03 -0.45189923314E+01  0.32969005967E+03  0.18800000000E+03 0.  0.
   -5000001    1    1    2    0    0  0.86306251154E+02 -0.25667556401E+03 -0.46625206275E+03  0.57102197871E+03  0.18800000000E+03 0.  0.
<mgrwt>
<rscale>  0 0.76789113E+03</rscale>
<asrwt>0</asrwt>
<pdfrwt beam="1">  1        2 0.97963077E-01 0.76789113E+03</pdfrwt>
<pdfrwt beam="2">  1       -2 0.30710070E-01 0.76789113E+03</pdfrwt>
<totfact> 0.45468842E+02</totfact>
</mgrwt>
</event>
<event>
 4    1  0.6024609E-005  0.5045533E+03  0.7818608E-02  0.1012597E+00
          2   -1    0    0  501    0  0.00000000000E+00  0.00000000000E+00  0.15433193889E+03  0.15433193891E+03  0.25500000000E-02 0.  1.
         -2   -1    0    0    0  501 -0.00000000000E+00 -0.00000000000E+00 -0.41238073363E+03  0.41238073364E+03  0.25500000000E-02 0. -1.
    5000001    1    1    2    0    0 -0.90658054790E+02 -0.12214968662E+03 -0.48340949316E+02  0.24661767216E+03  0.18800000000E+03 0.  0.
   -5000001    1    1    2    0    0  0.90658054790E+02  0.12214968662E+03 -0.20970784543E+03  0.32009500039E+03  0.18800000000E+03 0.  0.
<mgrwt>
<rscale>  0 0.50455334E+03</rscale>
<asrwt>0</asrwt>
<pdfrwt beam="1">  1        2 0.22047420E-01 0.50455334E+03</pdfrwt>
<pdfrwt beam="2">  1       -2 0.58911533E-01 0.50455334E+03</pdfrwt>
<totfact> 0.68648708E+02</totfact>
</mgrwt>
</event>
<event>
 4    1  0.6024609E-005  0.5587590E+03  0.7818608E-02  0.9994867E-01
          2   -1    0    0  501    0  0.00000000000E+00  0.00000000000E+00  0.57509854880E+03  0.57509854881E+03  0.25500000000E-02 0.  1.
         -2   -1    0    0    0  501 -0.00000000000E+00 -0.00000000000E+00 -0.13572091500E+03  0.13572091502E+03  0.25500000000E-02 0. -1.
    5000001    1    1    2    0    0  0.21626928502E+02 -0.20488168409E+03  0.24038495965E+03  0.36820260365E+03  0.18800000000E+03 0.  0.
   -5000001    1    1    2    0    0 -0.21626928502E+02  0.20488168409E+03  0.19899267415E+03  0.34261686018E+03  0.18800000000E+03 0.  0.
<mgrwt>
<rscale>  0 0.55875899E+03</rscale>
<asrwt>0</asrwt>
<pdfrwt beam="1">  1        2 0.82156936E-01 0.55875899E+03</pdfrwt>
<pdfrwt beam="2">  1       -2 0.19388702E-01 0.55875899E+03</pdfrwt>
<totfact> 0.12856470E+03</totfact>
</mgrwt>
</event>
<event>
 4    1  0.6024609E-005  0.5110080E+03  0.7818608E-02  0.1010945E+00
         -2   -1    0    0    0  501 -0.00000000000E+00  0.00000000000E+00  0.17428184507E+03  0.17428184509E+03  0.25500000000E-02 0. -1.
          2   -1    0    0  501    0  0.00000000000E+00 -0.00000000000E+00 -0.37457886710E+03  0.37457886711E+03  0.25500000000E-02 0.  1.
    5000001    1    1    2    0    0 -0.17059611517E+03  0.85404769129E+01 -0.70493122558E+02  0.26360814590E+03  0.18800000000E+03 0.  0.
   -5000001    1    1    2    0    0  0.17059611517E+03 -0.85404769129E+01 -0.12980389947E+03  0.28525256629E+03  0.18800000000E+03 0.  0.
<mgrwt>
<rscale>  0 0.51100801E+03</rscale>
<asrwt>0</asrwt>
<pdfrwt beam="1">  1        2 0.53511267E-01 0.51100801E+03</pdfrwt>
<pdfrwt beam="2">  1       -2 0.24897407E-01 0.51100801E+03</pdfrwt>
<totfact> 0.13419282E+03</totfact>
</mgrwt>
</event>
<event>
 4    1  0.6024609E-005  0.5752121E+03  0.7818608E-02  0.9958211E-01
          2   -1    0    0  501    0  0.00000000000E+00  0.00000000000E+00  0.24935539046E+04  0.24935539046E+04  0.25500000000E-02 0. -1.
         -2   -1    0    0    0  501 -0.00000000000E+00 -0.00000000000E+00 -0.33172434248E+02  0.33172434346E+02  0.25500000000E-02 0.  1.
    5000001    1    1    2    0    0 -0.81730306559E+02  0.19992474539E+03  0.13483455163E+04  0.13784155318E+04  0.18800000000E+03 0.  0.
   -5000001    1    1    2    0    0  0.81730306559E+02 -0.19992474539E+03  0.11120359540E+04  0.11483108071E+04  0.18800000000E+03 0.  0.
<mgrwt>
<rscale>  0 0.57521215E+03</rscale>
<asrwt>0</asrwt>
<pdfrwt beam="1">  1        2 0.35622208E+00 0.57521215E+03</pdfrwt>
<pdfrwt beam="2">  1       -2 0.47389180E-02 0.57521215E+03</pdfrwt>
<totfact> 0.10417233E+03</totfact>
</mgrwt>
</event>
<event>
 4    1  0.6024609E-005  0.5434841E+03  0.7818608E-02  0.1003013E+00
          2   -1    0    0  501    0  0.00000000000E+00  0.00000000000E+00  0.10844569735E+04  0.10844569735E+04  0.25500000000E-02 0. -1.
         -2   -1    0    0    0  501 -0.00000000000E+00 -0.00000000000E+00 -0.68092830301E+02  0.68092830349E+02  0.25500000000E-02 0.  1.
    5000001    1    1    2    0    0 -0.24797000280E+02 -0.15764063610E+03  0.26607000884E+03  0.36277087945E+03  0.18800000000E+03 0.  0.
   -5000001    1    1    2    0    0  0.24797000280E+02  0.15764063610E+03  0.75029413437E+03  0.78977892441E+03  0.18800000000E+03 0.  0.
<mgrwt>
<rscale>  0 0.54348411E+03</rscale>
<asrwt>0</asrwt>
<pdfrwt beam="1">  1        2 0.15492241E+00 0.54348411E+03</pdfrwt>
<pdfrwt beam="2">  1       -2 0.97275480E-02 0.54348411E+03</pdfrwt>
<totfact> 0.18010094E+03</totfact>
</mgrwt>
</event>
<event>
 4    1  0.6024609E-005  0.5111893E+03  0.7818608E-02  0.1010899E+00
          2   -1    0    0  501    0  0.00000000000E+00  0.00000000000E+00  0.32127926783E+03  0.32127926784E+03  0.25500000000E-02 0.  1.
         -2   -1    0    0    0  501 -0.00000000000E+00 -0.00000000000E+00 -0.20333907827E+03  0.20333907829E+03  0.25500000000E-02 0. -1.
    5000001    1    1    2    0    0 -0.32947186338E+02 -0.16498012396E+03  0.16897125813E+02  0.25285068964E+03  0.18800000000E+03 0.  0.
   -5000001    1    1    2    0    0  0.32947186338E+02  0.16498012396E+03  0.10104306375E+03  0.27176765650E+03  0.18800000000E+03 0.  0.
<mgrwt>
<rscale>  0 0.51118932E+03</rscale>
<asrwt>0</asrwt>
<pdfrwt beam="1">  1        2 0.45897039E-01 0.51118932E+03</pdfrwt>
<pdfrwt beam="2">  1       -2 0.29048440E-01 0.51118932E+03</pdfrwt>
<totfact> 0.12019034E+03</totfact>
</mgrwt>
</event>
<event>
 4    1  0.6024609E-005  0.4821025E+03  0.7818608E-02  0.1018559E+00
         -2   -1    0    0    0  501 -0.00000000000E+00  0.00000000000E+00  0.31416258730E+03  0.31416258731E+03  0.25500000000E-02 0. -1.
          2   -1    0    0  501    0  0.00000000000E+00 -0.00000000000E+00 -0.18495422965E+03  0.18495422967E+03  0.25500000000E-02 0.  1.
    5000001    1    1    2    0    0 -0.13714629630E+03 -0.62495061361E+02  0.71698765361E+02  0.25139501236E+03  0.18800000000E+03 0.  0.
   -5000001    1    1    2    0    0  0.13714629630E+03  0.62495061361E+02  0.57509592290E+02  0.24772180463E+03  0.18800000000E+03 0.  0.
<mgrwt>
<rscale>  0 0.48210248E+03</rscale>
<asrwt>0</asrwt>
<pdfrwt beam="1">  1        2 0.26422033E-01 0.48210248E+03</pdfrwt>
<pdfrwt beam="2">  1       -2 0.44880369E-01 0.48210248E+03</pdfrwt>
<totfact> 0.97008257E+02</totfact>
</mgrwt>
</event>
<event>
 4    1  0.6024609E-005  0.4126014E+03  0.7818608E-02  0.1039502E+00
          2   -1    0    0  501    0  0.00000000000E+00  0.00000000000E+00  0.23681687674E+03  0.23681687676E+03  0.25500000000E-02 0. -1.
         -2   -1    0    0    0  501 -0.00000000000E+00 -0.00000000000E+00 -0.17971681058E+03  0.17971681060E+03  0.25500000000E-02 0.  1.
    5000001    1    1    2    0    0 -0.76247609562E+02  0.42355835517E+01 -0.90112277115E+01  0.20311779921E+03  0.18800000000E+03 0.  0.
   -5000001    1    1    2    0    0  0.76247609562E+02 -0.42355835517E+01  0.66111293877E+02  0.21341588814E+03  0.18800000000E+03 0.  0.
<mgrwt>
<rscale>  0 0.41260138E+03</rscale>
<asrwt>0</asrwt>
<pdfrwt beam="1">  1        2 0.33830982E-01 0.41260138E+03</pdfrwt>
<pdfrwt beam="2">  1       -2 0.25673830E-01 0.41260138E+03</pdfrwt>
<totfact> 0.20979011E+03</totfact>
</mgrwt>
</event>
<event>
 4    1  0.6024609E-005  0.7842270E+03  0.7818608E-02  0.9583133E-01
          2   -1    0    0  501    0  0.00000000000E+00  0.00000000000E+00  0.70698038109E+03  0.70698038110E+03  0.25500000000E-02 0.  1.
         -2   -1    0    0    0  501 -0.00000000000E+00 -0.00000000000E+00 -0.21747847385E+03  0.21747847386E+03  0.25500000000E-02 0. -1.
    5000001    1    1    2    0    0  0.18377307072E+03  0.28380232197E+03  0.16933703369E+03  0.42229767990E+03  0.18800000000E+03 0.  0.
   -5000001    1    1    2    0    0 -0.18377307072E+03 -0.28380232197E+03  0.32016487356E+03  0.50216117506E+03  0.18800000000E+03 0.  0.
<mgrwt>
<rscale>  0 0.78422704E+03</rscale>
<asrwt>0</asrwt>
<pdfrwt beam="1">  1        2 0.10099720E+00 0.78422704E+03</pdfrwt>
<pdfrwt beam="2">  1       -2 0.31068353E-01 0.78422704E+03</pdfrwt>
<totfact> 0.42831940E+02</totfact>
</mgrwt>
</event>
<event>
 4    1  0.6024609E-005  0.8734829E+03  0.7818608E-02  0.9459350E-01
         -2   -1    0    0    0  501 -0.00000000000E+00  0.00000000000E+00  0.48653960740E+02  0.48653960807E+02  0.25500000000E-02 0. -1.
          2   -1    0    0  501    0  0.00000000000E+00 -0.00000000000E+00 -0.39204025552E+04  0.39204025552E+04  0.25500000000E-02 0.  1.
    5000001    1    1    2    0    0  0.13370901456E+03 -0.34896617294E+03 -0.25060191109E+04  0.25406950377E+04  0.18800000000E+03 0.  0.
   -5000001    1    1    2    0    0 -0.13370901456E+03  0.34896617294E+03 -0.13657294836E+04  0.14283614783E+04  0.18800000000E+03 0.  0.
<mgrwt>
<rscale>  0 0.87348294E+03</rscale>
<asrwt>0</asrwt>
<pdfrwt beam="1">  1        2 0.56005731E+00 0.87348294E+03</pdfrwt>
<pdfrwt beam="2">  1       -2 0.69505683E-02 0.87348294E+03</pdfrwt>
<totfact> 0.84622292E+01</totfact>
</mgrwt>
</event>
<event>
 4    1  0.6024609E-005  0.6861990E+03  0.7818608E-02  0.9741129E-01
          2   -1    0    0  501    0  0.00000000000E+00  0.00000000000E+00  0.31503674673E+03  0.31503674674E+03  0.25500000000E-02 0.  1.
         -2   -1    0    0    0  501 -0.00000000000E+00 -0.00000000000E+00 -0.37366198861E+03  0.37366198862E+03  0.25500000000E-02 0. -1.
    5000001    1    1    2    0    0  0.98878278521E+02  0.24401725836E+03  0.85348567680E+02  0.33458887361E+03  0.18800000000E+03 0.  0.
   -5000001    1    1    2    0    0 -0.98878278521E+02 -0.24401725836E+03 -0.14397380956E+03  0.35410986174E+03  0.18800000000E+03 0.  0.
<mgrwt>
<rscale>  0 0.68619897E+03</rscale>
<asrwt>0</asrwt>
<pdfrwt beam="1">  1        2 0.45005249E-01 0.68619897E+03</pdfrwt>
<pdfrwt beam="2">  1       -2 0.53380284E-01 0.68619897E+03</pdfrwt>
<totfact> 0.37675561E+02</totfact>
</mgrwt>
</event>
<event>
 4    1  0.6024609E-005  0.6611973E+03  0.7818608E-02  0.9785992E-01
         -2   -1    0    0    0  501 -0.00000000000E+00  0.00000000000E+00  0.70441141323E+03  0.70441141323E+03  0.25500000000E-02 0. -1.
          2   -1    0    0  501    0  0.00000000000E+00 -0.00000000000E+00 -0.15515858910E+03  0.15515858912E+03  0.25500000000E-02 0.  1.
    5000001    1    1    2    0    0  0.11762018964E+03  0.24394316037E+03  0.24255233755E+03  0.40929013054E+03  0.18800000000E+03 0.  0.
   -5000001    1    1    2    0    0 -0.11762018964E+03 -0.24394316037E+03  0.30670048657E+03  0.45027987182E+03  0.18800000000E+03 0.  0.
<mgrwt>
<rscale>  0 0.66119734E+03</rscale>
<asrwt>0</asrwt>
<pdfrwt beam="1">  1        2 0.22165513E-01 0.66119734E+03</pdfrwt>
<pdfrwt beam="2">  1       -2 0.10063020E+00 0.66119734E+03</pdfrwt>
<totfact> 0.20723629E+02</totfact>
</mgrwt>
</event>
<event>
 4    1  0.6024609E-005  0.6755866E+03  0.7818608E-02  0.9759918E-01
         -2   -1    0    0    0  501 -0.00000000000E+00  0.00000000000E+00  0.13182960581E+04  0.13182960581E+04  0.25500000000E-02 0. -1.
          2   -1    0    0  501    0  0.00000000000E+00 -0.00000000000E+00 -0.86554391905E+02  0.86554391942E+02  0.25500000000E-02 0.  1.
    5000001    1    1    2    0    0 -0.18636245496E+03  0.20845849239E+03  0.56603306797E+03  0.65872857969E+03  0.18800000000E+03 0.  0.
   -5000001    1    1    2    0    0  0.18636245496E+03 -0.20845849239E+03  0.66570859823E+03  0.74612187036E+03  0.18800000000E+03 0.  0.
<mgrwt>
<rscale>  0 0.67558660E+03</rscale>
<asrwt>0</asrwt>
<pdfrwt beam="1">  1        2 0.12364913E-01 0.67558660E+03</pdfrwt>
<pdfrwt beam="2">  1       -2 0.18832801E+00 0.67558660E+03</pdfrwt>
<totfact> 0.82511290E+01</totfact>
</mgrwt>
</event>
<event>
 4    1  0.6024609E-005  0.4559979E+03  0.7818608E-02  0.1025948E+00
         -2   -1    0    0    0  501 -0.00000000000E+00  0.00000000000E+00  0.37551051920E+02  0.37551052007E+02  0.25500000000E-02 0. -1.
          2   -1    0    0  501    0  0.00000000000E+00 -0.00000000000E+00 -0.13843426944E+04  0.13843426944E+04  0.25500000000E-02 0.  1.
    5000001    1    1    2    0    0 -0.97687218789E+02 -0.25694867834E+02 -0.92356244110E+03  0.94790010104E+03  0.18800000000E+03 0.  0.
   -5000001    1    1    2    0    0  0.97687218789E+02  0.25694867834E+02 -0.42322920139E+03  0.47399364537E+03  0.18800000000E+03 0.  0.
<mgrwt>
<rscale>  0 0.45599791E+03</rscale>
<asrwt>0</asrwt>
<pdfrwt beam="1">  1        2 0.19776321E+00 0.45599791E+03</pdfrwt>
<pdfrwt beam="2">  1       -2 0.53644369E-02 0.45599791E+03</pdfrwt>
<totfact> 0.31488197E+03</totfact>
</mgrwt>
</event>
<event>
 4    1  0.6024609E-005  0.4922685E+03  0.7818608E-02  0.1015817E+00
          2   -1    0    0  501    0  0.00000000000E+00  0.00000000000E+00  0.11400772121E+04  0.11400772121E+04  0.25500000000E-02 0.  1.
         -2   -1    0    0    0  501 -0.00000000000E+00 -0.00000000000E+00 -0.53138567093E+02  0.53138567154E+02  0.25500000000E-02 0. -1.
    5000001    1    1    2    0    0  0.87782435799E+02 -0.13466381311E+02  0.86275454567E+03  0.88745507241E+03  0.18800000000E+03 0.  0.
   -5000001    1    1    2    0    0 -0.87782435799E+02  0.13466381311E+02  0.22418409934E+03  0.30576070686E+03  0.18800000000E+03 0.  0.
<mgrwt>
<rscale>  0 0.49226850E+03</rscale>
<asrwt>0</asrwt>
<pdfrwt beam="1">  1        2 0.16286816E+00 0.49226850E+03</pdfrwt>
<pdfrwt beam="2">  1       -2 0.75912245E-02 0.49226850E+03</pdfrwt>
<totfact> 0.24870514E+03</totfact>
</mgrwt>
</event>
<event>
 4    1  0.6024609E-005  0.5540751E+03  0.7818608E-02  0.1000555E+00
         -2   -1    0    0    0  501 -0.00000000000E+00  0.00000000000E+00  0.16732591850E+03  0.16732591852E+03  0.25500000000E-02 0. -1.
          2   -1    0    0  501    0  0.00000000000E+00 -0.00000000000E+00 -0.45868456606E+03  0.45868456607E+03  0.25500000000E-02 0.  1.
    5000001    1    1    2    0    0  0.17008987745E+03  0.17079986111E+02 -0.20969863329E+02  0.25496279632E+03  0.18800000000E+03 0.  0.
   -5000001    1    1    2    0    0 -0.17008987745E+03 -0.17079986111E+02 -0.27038878423E+03  0.37104768828E+03  0.18800000000E+03 0.  0.
<mgrwt>
<rscale>  0 0.55407514E+03</rscale>
<asrwt>0</asrwt>
<pdfrwt beam="1">  1        2 0.65526366E-01 0.55407514E+03</pdfrwt>
<pdfrwt beam="2">  1       -2 0.23903703E-01 0.55407514E+03</pdfrwt>
<totfact> 0.11522614E+03</totfact>
</mgrwt>
</event>
<event>
 4    1  0.6024609E-005  0.1417553E+04  0.7818608E-02  0.8941210E-01
         -2   -1    0    0    0  501 -0.00000000000E+00  0.00000000000E+00  0.55194142069E+03  0.55194142070E+03  0.25500000000E-02 0. -1.
          2   -1    0    0  501    0  0.00000000000E+00 -0.00000000000E+00 -0.91017627830E+03  0.91017627830E+03  0.25500000000E-02 0.  1.
    5000001    1    1    2    0    0  0.39807518838E+03  0.34012890570E+03  0.27385700967E+03  0.62007514855E+03  0.18800000000E+03 0.  0.
   -5000001    1    1    2    0    0 -0.39807518838E+03 -0.34012890570E+03 -0.63209186728E+03  0.84204255046E+03  0.18800000000E+03 0.  0.
<mgrwt>
<rscale>  0 0.14175528E+04</rscale>
<asrwt>0</asrwt>
<pdfrwt beam="1">  1        2 0.13002518E+00 0.14175528E+04</pdfrwt>
<pdfrwt beam="2">  1       -2 0.78848775E-01 0.14175528E+04</pdfrwt>
<totfact> 0.44536916E+01</totfact>
</mgrwt>
</event>
<event>
 4    1  0.6024609E-005  0.7754981E+03  0.7818608E-02  0.9596176E-01
          2   -1    0    0  501    0  0.00000000000E+00  0.00000000000E+00  0.24763139504E+04  0.24763139504E+04  0.25500000000E-02 0.  1.
         -2   -1    0    0    0  501 -0.00000000000E+00 -0.00000000000E+00 -0.60714973873E+02  0.60714973926E+02  0.25500000000E-02 0. -1.
    5000001    1    1    2    0    0  0.20005213195E+03 -0.27328880203E+03  0.12642467492E+04  0.13222599849E+04  0.18800000000E+03 0.  0.
   -5000001    1    1    2    0    0 -0.20005213195E+03  0.27328880203E+03  0.11513522273E+04  0.12147689394E+04  0.18800000000E+03 0.  0.
<mgrwt>
<rscale>  0 0.77549813E+03</rscale>
<asrwt>0</asrwt>
<pdfrwt beam="1">  1        2 0.35375912E+00 0.77549813E+03</pdfrwt>
<pdfrwt beam="2">  1       -2 0.86735682E-02 0.77549813E+03</pdfrwt>
<totfact> 0.40378521E+02</totfact>
</mgrwt>
</event>
<event>
 4    1  0.6024609E-005  0.4153461E+03  0.7818608E-02  0.1038592E+00
         -2   -1    0    0    0  501 -0.00000000000E+00  0.00000000000E+00  0.30539024378E+03  0.30539024379E+03  0.25500000000E-02 0. -1.
          2   -1    0    0  501    0  0.00000000000E+00 -0.00000000000E+00 -0.14122292091E+03  0.14122292093E+03  0.25500000000E-02 0.  1.
    5000001    1    1    2    0    0 -0.78148311057E+02  0.14541694279E+02  0.12324710718E+03  0.23843755749E+03  0.18800000000E+03 0.  0.
   -5000001    1    1    2    0    0  0.78148311057E+02 -0.14541694279E+02  0.40920215692E+02  0.20817560723E+03  0.18800000000E+03 0.  0.
<mgrwt>
<rscale>  0 0.41534613E+03</rscale>
<asrwt>0</asrwt>
<pdfrwt beam="1">  1        2 0.20174703E-01 0.41534613E+03</pdfrwt>
<pdfrwt beam="2">  1       -2 0.43627177E-01 0.41534613E+03</pdfrwt>
<totfact> 0.13952494E+03</totfact>
</mgrwt>
</event>
<event>
 4    1  0.6024609E-005  0.7835919E+03  0.7818608E-02  0.9584076E-01
          2   -1    0    0  501    0  0.00000000000E+00  0.00000000000E+00  0.84189307038E+03  0.84189307038E+03  0.25500000000E-02 0.  1.
         -2   -1    0    0    0  501 -0.00000000000E+00 -0.00000000000E+00 -0.18233200733E+03  0.18233200735E+03  0.25500000000E-02 0. -1.
    5000001    1    1    2    0    0 -0.29863664763E+03  0.13114072923E+03  0.47163632386E+03  0.60346214475E+03  0.18800000000E+03 0.  0.
   -5000001    1    1    2    0    0  0.29863664763E+03 -0.13114072923E+03  0.18792473919E+03  0.42076293298E+03  0.18800000000E+03 0.  0.
<mgrwt>
<rscale>  0 0.78359187E+03</rscale>
<asrwt>0</asrwt>
<pdfrwt beam="1">  1        2 0.12027044E+00 0.78359187E+03</pdfrwt>
<pdfrwt beam="2">  1       -2 0.26047429E-01 0.78359187E+03</pdfrwt>
<totfact> 0.47431363E+02</totfact>
</mgrwt>
</event>
<event>
 4    1  0.6024609E-005  0.5112215E+03  0.7818608E-02  0.1010891E+00
          2   -1    0    0  501    0  0.00000000000E+00  0.00000000000E+00  0.77000218916E+03  0.77000218917E+03  0.25500000000E-02 0.  1.
         -2   -1    0    0    0  501 -0.00000000000E+00 -0.00000000000E+00 -0.84852821088E+02  0.84852821126E+02  0.25500000000E-02 0. -1.
    5000001    1    1    2    0    0 -0.32463286352E+02 -0.95652758764E+02  0.10734007218E+03  0.23889162044E+03  0.18800000000E+03 0.  0.
   -5000001    1    1    2    0    0  0.32463286352E+02  0.95652758764E+02  0.57780929590E+03  0.61596338986E+03  0.18800000000E+03 0.  0.
<mgrwt>
<rscale>  0 0.51122151E+03</rscale>
<asrwt>0</asrwt>
<pdfrwt beam="1">  1        2 0.11000031E+00 0.51122151E+03</pdfrwt>
<pdfrwt beam="2">  1       -2 0.12121831E-01 0.51122151E+03</pdfrwt>
<totfact> 0.19958748E+03</totfact>
</mgrwt>
</event>
<event>
 4    1  0.6024609E-005  0.5077327E+03  0.7818608E-02  0.1011780E+00
         -2   -1    0    0    0  501 -0.00000000000E+00  0.00000000000E+00  0.69003556161E+02  0.69003556208E+02  0.25500000000E-02 0. -1.
          2   -1    0    0  501    0  0.00000000000E+00 -0.00000000000E+00 -0.93398265732E+03  0.93398265732E+03  0.25500000000E-02 0.  1.
    5000001    1    1    2    0    0 -0.15009844976E+03 -0.76543413395E+02 -0.37964245887E+03  0.45591757515E+03  0.18800000000E+03 0.  0.
   -5000001    1    1    2    0    0  0.15009844976E+03  0.76543413395E+02 -0.48533664229E+03  0.54706863838E+03  0.18800000000E+03 0.  0.
<mgrwt>
<rscale>  0 0.50773270E+03</rscale>
<asrwt>0</asrwt>
<pdfrwt beam="1">  1        2 0.13342609E+00 0.50773270E+03</pdfrwt>
<pdfrwt beam="2">  1       -2 0.98576515E-02 0.50773270E+03</pdfrwt>
<totfact> 0.21740648E+03</totfact>
</mgrwt>
</event>
<event>
 4    1  0.6024609E-005  0.4233325E+03  0.7818608E-02  0.1035987E+00
         -2   -1    0    0    0  501 -0.00000000000E+00  0.00000000000E+00  0.53715638261E+03  0.53715638262E+03  0.25500000000E-02 0. -1.
          2   -1    0    0  501    0  0.00000000000E+00 -0.00000000000E+00 -0.83407016868E+02  0.83407016907E+02  0.25500000000E-02 0.  1.
    5000001    1    1    2    0    0  0.34861072586E+02  0.53207647774E+02  0.11903118736E+03  0.23142768142E+03  0.18800000000E+03 0.  0.
   -5000001    1    1    2    0    0 -0.34861072586E+02 -0.53207647774E+02  0.33471817839E+03  0.38913571811E+03  0.18800000000E+03 0.  0.
<mgrwt>
<rscale>  0 0.42333255E+03</rscale>
<asrwt>0</asrwt>
<pdfrwt beam="1">  1        2 0.11915289E-01 0.42333255E+03</pdfrwt>
<pdfrwt beam="2">  1       -2 0.76736623E-01 0.42333255E+03</pdfrwt>
<totfact> 0.81113476E+02</totfact>
</mgrwt>
</event>
<event>
 4    1  0.6024609E-005  0.5953952E+03  0.7818608E-02  0.9915006E-01
         -2   -1    0    0    0  501 -0.00000000000E+00  0.00000000000E+00  0.66628649996E+02  0.66628650045E+02  0.25500000000E-02 0. -1.
          2   -1    0    0  501    0  0.00000000000E+00 -0.00000000000E+00 -0.13301164033E+04  0.13301164033E+04  0.25500000000E-02 0.  1.
    5000001    1    1    2    0    0 -0.20758110496E+03  0.77948213504E+02 -0.78221219854E+03  0.83448532801E+03  0.18800000000E+03 0.  0.
   -5000001    1    1    2    0    0  0.20758110496E+03 -0.77948213504E+02 -0.48127555481E+03  0.56225972538E+03  0.18800000000E+03 0.  0.
<mgrwt>
<rscale>  0 0.59539520E+03</rscale>
<asrwt>0</asrwt>
<pdfrwt beam="1">  1        2 0.19001661E+00 0.59539520E+03</pdfrwt>
<pdfrwt beam="2">  1       -2 0.95183794E-02 0.59539520E+03</pdfrwt>
<totfact> 0.13579902E+03</totfact>
</mgrwt>
</event>
<event>
 4    1  0.6024609E-005  0.4454049E+03  0.7818608E-02  0.1029101E+00
         -2   -1    0    0    0  501 -0.00000000000E+00  0.00000000000E+00  0.83079754365E+02  0.83079754404E+02  0.25500000000E-02 0. -1.
          2   -1    0    0  501    0  0.00000000000E+00 -0.00000000000E+00 -0.59697323909E+03  0.59697323909E+03  0.25500000000E-02 0.  1.
    5000001    1    1    2    0    0  0.27159027201E+02  0.89043711835E+02 -0.37106049497E+03  0.42625847359E+03  0.18800000000E+03 0.  0.
   -5000001    1    1    2    0    0 -0.27159027201E+02 -0.89043711835E+02 -0.14283298975E+03  0.25379451991E+03  0.18800000000E+03 0.  0.
<mgrwt>
<rscale>  0 0.44540494E+03</rscale>
<asrwt>0</asrwt>
<pdfrwt beam="1">  1        2 0.85281889E-01 0.44540494E+03</pdfrwt>
<pdfrwt beam="2">  1       -2 0.11868537E-01 0.44540494E+03</pdfrwt>
<totfact> 0.28050955E+03</totfact>
</mgrwt>
</event>
<event>
 4    1  0.6024609E-005  0.7745379E+03  0.7818608E-02  0.9597622E-01
          2   -1    0    0  501    0  0.00000000000E+00  0.00000000000E+00  0.11532519493E+04  0.11532519493E+04  0.25500000000E-02 0.  1.
         -2   -1    0    0    0  501 -0.00000000000E+00 -0.00000000000E+00 -0.13004724431E+03  0.13004724434E+03  0.25500000000E-02 0. -1.
    5000001    1    1    2    0    0 -0.29032498701E+03 -0.26627762994E+02  0.79683033372E+03  0.86906859142E+03  0.18800000000E+03 0.  0.
   -5000001    1    1    2    0    0  0.29032498701E+03  0.26627762994E+02  0.22637437124E+03  0.41423060220E+03  0.18800000000E+03 0.  0.
<mgrwt>
<rscale>  0 0.77453790E+03</rscale>
<asrwt>0</asrwt>
<pdfrwt beam="1">  1        2 0.16475028E+00 0.77453790E+03</pdfrwt>
<pdfrwt beam="2">  1       -2 0.18578178E-01 0.77453790E+03</pdfrwt>
<totfact> 0.55416738E+02</totfact>
</mgrwt>
</event>
<event>
 4    1  0.6024609E-005  0.5179050E+03  0.7818608E-02  0.1009208E+00
          2   -1    0    0  501    0  0.00000000000E+00  0.00000000000E+00  0.20275131961E+04  0.20275131961E+04  0.25500000000E-02 0. -1.
         -2   -1    0    0    0  501 -0.00000000000E+00 -0.00000000000E+00 -0.33073224180E+02  0.33073224279E+02  0.25500000000E-02 0.  1.
    5000001    1    1    2    0    0 -0.12839121715E+03 -0.97777652082E+02  0.12967506344E+04  0.13202086887E+04  0.18800000000E+03 0.  0.
   -5000001    1    1    2    0    0  0.12839121715E+03  0.97777652082E+02  0.69768933754E+03  0.74037773171E+03  0.18800000000E+03 0.  0.
<mgrwt>
<rscale>  0 0.51790501E+03</rscale>
<asrwt>0</asrwt>
<pdfrwt beam="1">  1        2 0.28964480E+00 0.51790501E+03</pdfrwt>
<pdfrwt beam="2">  1       -2 0.47247454E-02 0.51790501E+03</pdfrwt>
<totfact> 0.18040637E+03</totfact>
</mgrwt>
</event>
<event>
 4    1  0.6024609E-005  0.7122733E+03  0.7818608E-02  0.9696470E-01
          2   -1    0    0  501    0  0.00000000000E+00  0.00000000000E+00  0.13245623690E+04  0.13245623690E+04  0.25500000000E-02 0.  1.
         -2   -1    0    0    0  501 -0.00000000000E+00 -0.00000000000E+00 -0.95754872624E+02  0.95754872658E+02  0.25500000000E-02 0. -1.
    5000001    1    1    2    0    0  0.63487839621E+02  0.29561587198E+03  0.59773794302E+03  0.69573996440E+03  0.18800000000E+03 0.  0.
   -5000001    1    1    2    0    0 -0.63487839621E+02 -0.29561587198E+03  0.63106955336E+03  0.72457727726E+03  0.18800000000E+03 0.  0.
<mgrwt>
<rscale>  0 0.71227326E+03</rscale>
<asrwt>0</asrwt>
<pdfrwt beam="1">  1        2 0.18922318E+00 0.71227326E+03</pdfrwt>
<pdfrwt beam="2">  1       -2 0.13679269E-01 0.71227326E+03</pdfrwt>
<totfact> 0.75059783E+02</totfact>
</mgrwt>
</event>
<event>
 4    1  0.6024609E-005  0.7062173E+03  0.7818608E-02  0.9706658E-01
          2   -1    0    0  501    0  0.00000000000E+00  0.00000000000E+00  0.17655450326E+03  0.17655450328E+03  0.25500000000E-02 0.  1.
         -2   -1    0    0    0  501 -0.00000000000E+00 -0.00000000000E+00 -0.70621663463E+03  0.70621663463E+03  0.25500000000E-02 0. -1.
    5000001    1    1    2    0    0  0.26896389262E+03 -0.11656954336E+03 -0.33784314909E+03  0.48519277340E+03  0.18800000000E+03 0.  0.
   -5000001    1    1    2    0    0 -0.26896389262E+03  0.11656954336E+03 -0.19181898227E+03  0.39757836452E+03  0.18800000000E+03 0.  0.
<mgrwt>
<rscale>  0 0.70621732E+03</rscale>
<asrwt>0</asrwt>
<pdfrwt beam="1">  1        2 0.25222072E-01 0.70621732E+03</pdfrwt>
<pdfrwt beam="2">  1       -2 0.10088809E+00 0.70621732E+03</pdfrwt>
<totfact> 0.17720852E+02</totfact>
</mgrwt>
</event>
<event>
 4    1  0.6024609E-005  0.4871886E+03  0.7818608E-02  0.1017178E+00
          2   -1    0    0  501    0  0.00000000000E+00  0.00000000000E+00  0.14657243005E+04  0.14657243005E+04  0.25500000000E-02 0.  1.
         -2   -1    0    0    0  501 -0.00000000000E+00 -0.00000000000E+00 -0.40483862347E+02  0.40483862427E+02  0.25500000000E-02 0. -1.
    5000001    1    1    2    0    0  0.76198576238E+02  0.29554214557E+02  0.30580897968E+03  0.36816138672E+03  0.18800000000E+03 0.  0.
   -5000001    1    1    2    0    0 -0.76198576238E+02 -0.29554214557E+02  0.11194314584E+04  0.11380467762E+04  0.18800000000E+03 0.  0.
<mgrwt>
<rscale>  0 0.48718859E+03</rscale>
<asrwt>0</asrwt>
<pdfrwt beam="1">  1        2 0.20938918E+00 0.48718859E+03</pdfrwt>
<pdfrwt beam="2">  1       -2 0.57834091E-02 0.48718859E+03</pdfrwt>
<totfact> 0.25395124E+03</totfact>
</mgrwt>
</event>
<event>
 4    1  0.6024609E-005  0.4212288E+03  0.7818608E-02  0.1036667E+00
          2   -1    0    0  501    0  0.00000000000E+00  0.00000000000E+00  0.26647098037E+03  0.26647098038E+03  0.25500000000E-02 0. -1.
         -2   -1    0    0    0  501 -0.00000000000E+00 -0.00000000000E+00 -0.16646627473E+03  0.16646627475E+03  0.25500000000E-02 0.  1.
    5000001    1    1    2    0    0 -0.70012271379E+02  0.59666095167E+02  0.74164747108E+02  0.22204992855E+03  0.18800000000E+03 0.  0.
   -5000001    1    1    2    0    0  0.70012271379E+02 -0.59666095167E+02  0.25839958526E+02  0.21088732658E+03  0.18800000000E+03 0.  0.
<mgrwt>
<rscale>  0 0.42122883E+03</rscale>
<asrwt>0</asrwt>
<pdfrwt beam="1">  1        2 0.38067283E-01 0.42122883E+03</pdfrwt>
<pdfrwt beam="2">  1       -2 0.23780896E-01 0.42122883E+03</pdfrwt>
<totfact> 0.21120801E+03</totfact>
</mgrwt>
</event>
<event>
 4    1  0.6024609E-005  0.6894826E+03  0.7818608E-02  0.9735389E-01
         -2   -1    0    0    0  501 -0.00000000000E+00  0.00000000000E+00  0.16431726683E+03  0.16431726685E+03  0.25500000000E-02 0. -1.
          2   -1    0    0  501    0  0.00000000000E+00 -0.00000000000E+00 -0.72327500133E+03  0.72327500134E+03  0.25500000000E-02 0.  1.
    5000001    1    1    2    0    0 -0.73256822978E+02  0.27942922641E+03 -0.26990431763E+03  0.43776659918E+03  0.18800000000E+03 0.  0.
   -5000001    1    1    2    0    0  0.73256822978E+02 -0.27942922641E+03 -0.28905341688E+03  0.44982566900E+03  0.18800000000E+03 0.  0.
<mgrwt>
<rscale>  0 0.68948262E+03</rscale>
<asrwt>0</asrwt>
<pdfrwt beam="1">  1        2 0.10332500E+00 0.68948262E+03</pdfrwt>
<pdfrwt beam="2">  1       -2 0.23473896E-01 0.68948262E+03</pdfrwt>
<totfact> 0.69627074E+02</totfact>
</mgrwt>
</event>
<event>
 4    1  0.6024609E-005  0.6575309E+03  0.7818608E-02  0.9792750E-01
          2   -1    0    0  501    0  0.00000000000E+00  0.00000000000E+00  0.13846338159E+04  0.13846338159E+04  0.25500000000E-02 0.  1.
         -2   -1    0    0    0  501 -0.00000000000E+00 -0.00000000000E+00 -0.78061582555E+02  0.78061582597E+02  0.25500000000E-02 0. -1.
    5000001    1    1    2    0    0  0.23168359535E+03 -0.13807177630E+03  0.65046947819E+03  0.72883169925E+03  0.18800000000E+03 0.  0.
   -5000001    1    1    2    0    0 -0.23168359535E+03  0.13807177630E+03  0.65610275516E+03  0.73386369926E+03  0.18800000000E+03 0.  0.
<mgrwt>
<rscale>  0 0.65753086E+03</rscale>
<asrwt>0</asrwt>
<pdfrwt beam="1">  1        2 0.19780482E+00 0.65753086E+03</pdfrwt>
<pdfrwt beam="2">  1       -2 0.11151656E-01 0.65753086E+03</pdfrwt>
<totfact> 0.97913165E+02</totfact>
</mgrwt>
</event>
<event>
 4    1  0.6024609E-005  0.5742412E+03  0.7818608E-02  0.9960337E-01
         -2   -1    0    0    0  501 -0.00000000000E+00  0.00000000000E+00  0.19273196246E+03  0.19273196248E+03  0.25500000000E-02 0. -1.
          2   -1    0    0  501    0  0.00000000000E+00 -0.00000000000E+00 -0.42773515927E+03  0.42773515928E+03  0.25500000000E-02 0.  1.
    5000001    1    1    2    0    0  0.14481615437E+03 -0.16095162829E+03 -0.13342169835E+03  0.31626333143E+03  0.18800000000E+03 0.  0.
   -5000001    1    1    2    0    0 -0.14481615437E+03  0.16095162829E+03 -0.10158149846E+03  0.30420379032E+03  0.18800000000E+03 0.  0.
<mgrwt>
<rscale>  0 0.57424119E+03</rscale>
<asrwt>0</asrwt>
<pdfrwt beam="1">  1        2 0.61105022E-01 0.57424119E+03</pdfrwt>
<pdfrwt beam="2">  1       -2 0.27533138E-01 0.57424119E+03</pdfrwt>
<totfact> 0.96587470E+02</totfact>
</mgrwt>
</event>
<event>
 4    1  0.6024609E-005  0.9910231E+03  0.7818608E-02  0.9318446E-01
         -2   -1    0    0    0  501 -0.00000000000E+00  0.00000000000E+00  0.16916881728E+03  0.16916881730E+03  0.25500000000E-02 0. -1.
          2   -1    0    0  501    0  0.00000000000E+00 -0.00000000000E+00 -0.14514004756E+04  0.14514004756E+04  0.25500000000E-02 0.  1.
    5000001    1    1    2    0    0 -0.19024651819E+03  0.12754637850E+03 -0.12905502603E+04  0.13241320896E+04  0.18800000000E+03 0.  0.
   -5000001    1    1    2    0    0  0.19024651819E+03 -0.12754637850E+03  0.83186019980E+01  0.29643720328E+03  0.18800000000E+03 0.  0.
<mgrwt>
<rscale>  0 0.99102311E+03</rscale>
<asrwt>0</asrwt>
<pdfrwt beam="1">  1        2 0.20734292E+00 0.99102311E+03</pdfrwt>
<pdfrwt beam="2">  1       -2 0.24166975E-01 0.99102311E+03</pdfrwt>
<totfact> 0.23585874E+02</totfact>
</mgrwt>
</event>
<event>
 4    1  0.6024609E-005  0.6945927E+03  0.7818608E-02  0.9726524E-01
          2   -1    0    0  501    0  0.00000000000E+00  0.00000000000E+00  0.31547384894E+04  0.31547384894E+04  0.25500000000E-02 0.  1.
         -2   -1    0    0    0  501 -0.00000000000E+00 -0.00000000000E+00 -0.38232887137E+02  0.38232887222E+02  0.25500000000E-02 0. -1.
    5000001    1    1    2    0    0 -0.26670527379E+03  0.42609517396E+02  0.10479457134E+04  0.10983995139E+04  0.18800000000E+03 0.  0.
   -5000001    1    1    2    0    0  0.26670527379E+03 -0.42609517396E+02  0.20685598889E+04  0.20945718627E+04  0.18800000000E+03 0.  0.
<mgrwt>
<rscale>  0 0.69459272E+03</rscale>
<asrwt>0</asrwt>
<pdfrwt beam="1">  1        2 0.45067694E+00 0.69459272E+03</pdfrwt>
<pdfrwt beam="2">  1       -2 0.54618409E-02 0.69459272E+03</pdfrwt>
<totfact> 0.36703762E+02</totfact>
</mgrwt>
</event>
<event>
 4    1  0.6024609E-005  0.5104594E+03  0.7818608E-02  0.1011084E+00
          2   -1    0    0  501    0  0.00000000000E+00  0.00000000000E+00  0.97570783824E+03  0.97570783824E+03  0.25500000000E-02 0.  1.
         -2   -1    0    0    0  501 -0.00000000000E+00 -0.00000000000E+00 -0.66764047767E+02  0.66764047816E+02  0.25500000000E-02 0. -1.
    5000001    1    1    2    0    0  0.76723673596E+02  0.13805604141E+03  0.31221510126E+03  0.39720053136E+03  0.18800000000E+03 0.  0.
   -5000001    1    1    2    0    0 -0.76723673596E+02 -0.13805604141E+03  0.59672868922E+03  0.64527135470E+03  0.18800000000E+03 0.  0.
<mgrwt>
<rscale>  0 0.51045942E+03</rscale>
<asrwt>0</asrwt>
<pdfrwt beam="1">  1        2 0.13938682E+00 0.51045942E+03</pdfrwt>
<pdfrwt beam="2">  1       -2 0.95377218E-02 0.51045942E+03</pdfrwt>
<totfact> 0.21599791E+03</totfact>
</mgrwt>
</event>
<event>
 4    1  0.6024609E-005  0.4731492E+03  0.7818608E-02  0.1021035E+00
         -2   -1    0    0    0  501 -0.00000000000E+00  0.00000000000E+00  0.13321009210E+03  0.13321009212E+03  0.25500000000E-02 0. -1.
          2   -1    0    0  501    0  0.00000000000E+00 -0.00000000000E+00 -0.42014481687E+03  0.42014481687E+03  0.25500000000E-02 0.  1.
    5000001    1    1    2    0    0 -0.26437127041E+02 -0.14023730786E+03 -0.16225639322E+03  0.28642025302E+03  0.18800000000E+03 0.  0.
   -5000001    1    1    2    0    0  0.26437127041E+02  0.14023730786E+03 -0.12467833155E+03  0.26693465597E+03  0.18800000000E+03 0.  0.
<mgrwt>
<rscale>  0 0.47314915E+03</rscale>
<asrwt>0</asrwt>
<pdfrwt beam="1">  1        2 0.60020688E-01 0.47314915E+03</pdfrwt>
<pdfrwt beam="2">  1       -2 0.19030013E-01 0.47314915E+03</pdfrwt>
<totfact> 0.18933742E+03</totfact>
</mgrwt>
</event>
<event>
 4    1  0.6024609E-005  0.6748242E+03  0.7818608E-02  0.9761282E-01
          2   -1    0    0  501    0  0.00000000000E+00  0.00000000000E+00  0.35637765171E+03  0.35637765172E+03  0.25500000000E-02 0.  1.
         -2   -1    0    0    0  501 -0.00000000000E+00 -0.00000000000E+00 -0.31945587080E+03  0.31945587081E+03  0.25500000000E-02 0. -1.
    5000001    1    1    2    0    0  0.14598242140E+03  0.18830221717E+03 -0.12918531902E+03  0.32985063134E+03  0.18800000000E+03 0.  0.
   -5000001    1    1    2    0    0 -0.14598242140E+03 -0.18830221717E+03  0.16610709994E+03  0.34598289119E+03  0.18800000000E+03 0.  0.
<mgrwt>
<rscale>  0 0.67482422E+03</rscale>
<asrwt>0</asrwt>
<pdfrwt beam="1">  1        2 0.50911093E-01 0.67482422E+03</pdfrwt>
<pdfrwt beam="2">  1       -2 0.45636553E-01 0.67482422E+03</pdfrwt>
<totfact> 0.45154844E+02</totfact>
</mgrwt>
</event>
<event>
 4    1  0.6024609E-005  0.1059303E+04  0.7818608E-02  0.9245792E-01
          2   -1    0    0  501    0  0.00000000000E+00  0.00000000000E+00  0.64694809058E+03  0.64694809058E+03  0.25500000000E-02 0.  1.
         -2   -1    0    0    0  501 -0.00000000000E+00 -0.00000000000E+00 -0.43362146413E+03  0.43362146414E+03  0.25500000000E-02 0. -1.
    5000001    1    1    2    0    0 -0.20039590233E+03  0.42253470733E+03  0.27269613515E+03  0.57306306694E+03  0.18800000000E+03 0.  0.
   -5000001    1    1    2    0    0  0.20039590233E+03 -0.42253470733E+03 -0.59369508702E+02  0.50750648777E+03  0.18800000000E+03 0.  0.
<mgrwt>
<rscale>  0 0.10593027E+04</rscale>
<asrwt>0</asrwt>
<pdfrwt beam="1">  1        2 0.92421155E-01 0.10593027E+04</pdfrwt>
<pdfrwt beam="2">  1       -2 0.61945924E-01 0.10593027E+04</pdfrwt>
<totfact> 0.11947510E+02</totfact>
</mgrwt>
</event>
<event>
 4    1  0.6024609E-005  0.4811227E+03  0.7818608E-02  0.1018827E+00
          2   -1    0    0  501    0  0.00000000000E+00  0.00000000000E+00  0.11577292589E+04  0.11577292589E+04  0.25500000000E-02 0. -1.
         -2   -1    0    0    0  501 -0.00000000000E+00 -0.00000000000E+00 -0.49985585176E+02  0.49985585241E+02  0.25500000000E-02 0.  1.
    5000001    1    1    2    0    0 -0.13575904299E+03  0.59671148803E+02  0.49583184208E+03  0.55062181157E+03  0.18800000000E+03 0.  0.
   -5000001    1    1    2    0    0  0.13575904299E+03 -0.59671148803E+02  0.61191183164E+03  0.65709303258E+03  0.18800000000E+03 0.  0.
<mgrwt>
<rscale>  0 0.48112275E+03</rscale>
<asrwt>0</asrwt>
<pdfrwt beam="1">  1        2 0.16538991E+00 0.48112275E+03</pdfrwt>
<pdfrwt beam="2">  1       -2 0.71407972E-02 0.48112275E+03</pdfrwt>
<totfact> 0.26767780E+03</totfact>
</mgrwt>
</event>
<event>
 4    1  0.6024609E-005  0.4496600E+03  0.7818608E-02  0.1027823E+00
          2   -1    0    0  501    0  0.00000000000E+00  0.00000000000E+00  0.11667671728E+04  0.11667671728E+04  0.25500000000E-02 0.  1.
         -2   -1    0    0    0  501 -0.00000000000E+00 -0.00000000000E+00 -0.43323575316E+02  0.43323575391E+02  0.25500000000E-02 0. -1.
    5000001    1    1    2    0    0  0.10256466914E+03 -0.13123661050E+02  0.74250411974E+03  0.77288298575E+03  0.18800000000E+03 0.  0.
   -5000001    1    1    2    0    0 -0.10256466914E+03  0.13123661050E+02  0.38093947773E+03  0.43720776243E+03  0.18800000000E+03 0.  0.
<mgrwt>
<rscale>  0 0.44965999E+03</rscale>
<asrwt>0</asrwt>
<pdfrwt beam="1">  1        2 0.16668100E+00 0.44965999E+03</pdfrwt>
<pdfrwt beam="2">  1       -2 0.61890831E-02 0.44965999E+03</pdfrwt>
<totfact> 0.33096277E+03</totfact>
</mgrwt>
</event>
<event>
 4    1  0.6024609E-005  0.5030193E+03  0.7818608E-02  0.1012994E+00
         -2   -1    0    0    0  501 -0.00000000000E+00  0.00000000000E+00  0.39666656067E+02  0.39666656149E+02  0.25500000000E-02 0. -1.
          2   -1    0    0  501    0  0.00000000000E+00 -0.00000000000E+00 -0.15947172998E+04  0.15947172998E+04  0.25500000000E-02 0.  1.
    5000001    1    1    2    0    0  0.14900419826E+02 -0.16609831388E+03 -0.81040925487E+03  0.84847971854E+03  0.18800000000E+03 0.  0.
   -5000001    1    1    2    0    0 -0.14900419826E+02  0.16609831388E+03 -0.74464138885E+03  0.78590423741E+03  0.18800000000E+03 0.  0.
<mgrwt>
<rscale>  0 0.50301929E+03</rscale>
<asrwt>0</asrwt>
<pdfrwt beam="1">  1        2 0.22781672E+00 0.50301929E+03</pdfrwt>
<pdfrwt beam="2">  1       -2 0.56666662E-02 0.50301929E+03</pdfrwt>
<totfact> 0.22486229E+03</totfact>
</mgrwt>
</event>
<event>
 4    1  0.6024609E-005  0.9131503E+03  0.7818608E-02  0.9409291E-01
          2   -1    0    0  501    0  0.00000000000E+00  0.00000000000E+00  0.17987148812E+04  0.17987148812E+04  0.25500000000E-02 0.  1.
         -2   -1    0    0    0  501 -0.00000000000E+00 -0.00000000000E+00 -0.11589433998E+03  0.11589434001E+03  0.25500000000E-02 0. -1.
    5000001    1    1    2    0    0  0.16000207701E+03  0.35844412542E+03  0.55214045765E+03  0.70305472096E+03  0.18800000000E+03 0.  0.
   -5000001    1    1    2    0    0 -0.16000207701E+03 -0.35844412542E+03  0.11306800835E+04  0.12115545002E+04  0.18800000000E+03 0.  0.
<mgrwt>
<rscale>  0 0.91315031E+03</rscale>
<asrwt>0</asrwt>
<pdfrwt beam="1">  1        2 0.25695927E+00 0.91315031E+03</pdfrwt>
<pdfrwt beam="2">  1       -2 0.16556334E-01 0.91315031E+03</pdfrwt>
<totfact> 0.30342394E+02</totfact>
</mgrwt>
</event>
<event>
 4    1  0.6024609E-005  0.9081529E+03  0.7818608E-02  0.9415447E-01
          2   -1    0    0  501    0  0.00000000000E+00  0.00000000000E+00  0.84077129934E+03  0.84077129934E+03  0.25500000000E-02 0.  1.
         -2   -1    0    0    0  501 -0.00000000000E+00 -0.00000000000E+00 -0.24523368631E+03  0.24523368632E+03  0.25500000000E-02 0. -1.
    5000001    1    1    2    0    0  0.14242246046E+03 -0.29723299386E+03  0.59603384264E+03  0.70656348013E+03  0.18800000000E+03 0.  0.
   -5000001    1    1    2    0    0 -0.14242246046E+03  0.29723299386E+03 -0.49622960990E+00  0.37944150554E+03  0.18800000000E+03 0.  0.
<mgrwt>
<rscale>  0 0.90815295E+03</rscale>
<asrwt>0</asrwt>
<pdfrwt beam="1">  1        2 0.12011018E+00 0.90815295E+03</pdfrwt>
<pdfrwt beam="2">  1       -2 0.35033385E-01 0.90815295E+03</pdfrwt>
<totfact> 0.27240972E+02</totfact>
</mgrwt>
</event>
<event>
 4    1  0.6024609E-005  0.5732268E+03  0.7818608E-02  0.9962564E-01
          2   -1    0    0  501    0  0.00000000000E+00  0.00000000000E+00  0.13734779771E+04  0.13734779771E+04  0.25500000000E-02 0.  1.
         -2   -1    0    0    0  501 -0.00000000000E+00 -0.00000000000E+00 -0.59809648144E+02  0.59809648199E+02  0.25500000000E-02 0. -1.
    5000001    1    1    2    0    0  0.17383633482E+03 -0.93074685188E+02  0.87937216794E+03  0.92060924288E+03  0.18800000000E+03 0.  0.
   -5000001    1    1    2    0    0 -0.17383633482E+03  0.93074685188E+02  0.43429616099E+03  0.51267838240E+03  0.18800000000E+03 0.  0.
<mgrwt>
<rscale>  0 0.57322678E+03</rscale>
<asrwt>0</asrwt>
<pdfrwt beam="1">  1        2 0.19621114E+00 0.57322678E+03</pdfrwt>
<pdfrwt beam="2">  1       -2 0.85442354E-02 0.57322678E+03</pdfrwt>
<totfact> 0.15320290E+03</totfact>
</mgrwt>
</event>
<event>
 4    1  0.6024609E-005  0.7381688E+03  0.7818608E-02  0.9654097E-01
         -2   -1    0    0    0  501 -0.00000000000E+00  0.00000000000E+00  0.88800824772E+02  0.88800824809E+02  0.25500000000E-02 0. -1.
          2   -1    0    0  501    0  0.00000000000E+00 -0.00000000000E+00 -0.15340318459E+04  0.15340318459E+04  0.25500000000E-02 0.  1.
    5000001    1    1    2    0    0  0.23418881800E+03 -0.11117443713E+03 -0.31918129036E+03  0.45213366835E+03  0.18800000000E+03 0.  0.
   -5000001    1    1    2    0    0 -0.23418881800E+03  0.11117443713E+03 -0.11260497307E+04  0.11706990023E+04  0.18800000000E+03 0.  0.
<mgrwt>
<rscale>  0 0.73816880E+03</rscale>
<asrwt>0</asrwt>
<pdfrwt beam="1">  1        2 0.21914739E+00 0.73816880E+03</pdfrwt>
<pdfrwt beam="2">  1       -2 0.12685833E-01 0.73816880E+03</pdfrwt>
<totfact> 0.65776869E+02</totfact>
</mgrwt>
</event>
<event>
 4    1  0.6024609E-005  0.4592249E+03  0.7818608E-02  0.1025006E+00
         -2   -1    0    0    0  501 -0.00000000000E+00  0.00000000000E+00  0.60188233774E+02  0.60188233828E+02  0.25500000000E-02 0. -1.
          2   -1    0    0  501    0  0.00000000000E+00 -0.00000000000E+00 -0.87594992149E+03  0.87594992149E+03  0.25500000000E-02 0.  1.
    5000001    1    1    2    0    0  0.44068640555E+02 -0.11069154019E+03 -0.52289402155E+03  0.56829289977E+03  0.18800000000E+03 0.  0.
   -5000001    1    1    2    0    0 -0.44068640555E+02  0.11069154019E+03 -0.29286766616E+03  0.36784525555E+03  0.18800000000E+03 0.  0.
<mgrwt>
<rscale>  0 0.45922491E+03</rscale>
<asrwt>0</asrwt>
<pdfrwt beam="1">  1        2 0.12513570E+00 0.45922491E+03</pdfrwt>
<pdfrwt beam="2">  1       -2 0.85983196E-02 0.45922491E+03</pdfrwt>
<totfact> 0.29466010E+03</totfact>
</mgrwt>
</event>
<event>
 4    1  0.6024609E-005  0.1030015E+04  0.7818608E-02  0.9276224E-01
          2   -1    0    0  501    0  0.00000000000E+00  0.00000000000E+00  0.35214951848E+04  0.35214951848E+04  0.25500000000E-02 0.  1.
         -2   -1    0    0    0  501 -0.00000000000E+00 -0.00000000000E+00 -0.75318158753E+02  0.75318158796E+02  0.25500000000E-02 0. -1.
    5000001    1    1    2    0    0 -0.31960849020E+02  0.47154192421E+03  0.20049528264E+04  0.20684663687E+04  0.18800000000E+03 0.  0.
   -5000001    1    1    2    0    0  0.31960849020E+02 -0.47154192421E+03  0.14412241996E+04  0.15283469749E+04  0.18800000000E+03 0.  0.
<mgrwt>
<rscale>  0 0.10300146E+04</rscale>
<asrwt>0</asrwt>
<pdfrwt beam="1">  1        2 0.50307066E+00 0.10300146E+04</pdfrwt>
<pdfrwt beam="2">  1       -2 0.10759739E-01 0.10300146E+04</pdfrwt>
<totfact> 0.73227694E+01</totfact>
</mgrwt>
</event>
<event>
 4    1  0.6024609E-005  0.5593876E+03  0.7818608E-02  0.9993441E-01
         -2   -1    0    0    0  501 -0.00000000000E+00  0.00000000000E+00  0.36575502256E+02  0.36575502345E+02  0.25500000000E-02 0. -1.
          2   -1    0    0  501    0  0.00000000000E+00 -0.00000000000E+00 -0.21388253446E+04  0.21388253446E+04  0.25500000000E-02 0.  1.
    5000001    1    1    2    0    0  0.18596998823E+03  0.89967105139E+02 -0.99535010724E+03  0.10338011184E+04  0.18800000000E+03 0.  0.
   -5000001    1    1    2    0    0 -0.18596998823E+03 -0.89967105139E+02 -0.11068997351E+04  0.11415997285E+04  0.18800000000E+03 0.  0.
<mgrwt>
<rscale>  0 0.55938756E+03</rscale>
<asrwt>0</asrwt>
<pdfrwt beam="1">  1        2 0.30554640E+00 0.55938756E+03</pdfrwt>
<pdfrwt beam="2">  1       -2 0.52250731E-02 0.55938756E+03</pdfrwt>
<totfact> 0.13551600E+03</totfact>
</mgrwt>
</event>
<event>
 4    1  0.6024609E-005  0.5507752E+03  0.7818608E-02  0.1001315E+00
          2   -1    0    0  501    0  0.00000000000E+00  0.00000000000E+00  0.13963943804E+04  0.13963943804E+04  0.25500000000E-02 0.  1.
         -2   -1    0    0    0  501 -0.00000000000E+00 -0.00000000000E+00 -0.54310107595E+02  0.54310107655E+02  0.25500000000E-02 0. -1.
    5000001    1    1    2    0    0  0.16159125163E+03  0.19515420352E+01  0.35520316191E+03  0.43316143336E+03  0.18800000000E+03 0.  0.
   -5000001    1    1    2    0    0 -0.16159125163E+03 -0.19515420352E+01  0.98688111086E+03  0.10175430547E+04  0.18800000000E+03 0.  0.
<mgrwt>
<rscale>  0 0.55077520E+03</rscale>
<asrwt>0</asrwt>
<pdfrwt beam="1">  1        2 0.19948493E+00 0.55077520E+03</pdfrwt>
<pdfrwt beam="2">  1       -2 0.77585861E-02 0.55077520E+03</pdfrwt>
<totfact> 0.17382075E+03</totfact>
</mgrwt>
</event>
<event>
 4    1  0.6024609E-005  0.5748220E+03  0.7818608E-02  0.9959065E-01
         -2   -1    0    0    0  501 -0.00000000000E+00  0.00000000000E+00  0.11238029982E+03  0.11238029985E+03  0.25500000000E-02 0. -1.
          2   -1    0    0  501    0  0.00000000000E+00 -0.00000000000E+00 -0.73504945867E+03  0.73504945867E+03  0.25500000000E-02 0.  1.
    5000001    1    1    2    0    0 -0.14018027298E+02  0.21677068504E+03 -0.32410564421E+03  0.43309872269E+03  0.18800000000E+03 0.  0.
   -5000001    1    1    2    0    0  0.14018027298E+02 -0.21677068504E+03 -0.29856351464E+03  0.41433103584E+03  0.18800000000E+03 0.  0.
<mgrwt>
<rscale>  0 0.57482198E+03</rscale>
<asrwt>0</asrwt>
<pdfrwt beam="1">  1        2 0.10500706E+00 0.57482198E+03</pdfrwt>
<pdfrwt beam="2">  1       -2 0.16054329E-01 0.57482198E+03</pdfrwt>
<totfact> 0.13233733E+03</totfact>
</mgrwt>
</event>
<event>
 4    1  0.6024609E-005  0.2151833E+04  0.7818608E-02  0.8538748E-01
         -2   -1    0    0    0  501 -0.00000000000E+00  0.00000000000E+00  0.53489784079E+03  0.53489784079E+03  0.25500000000E-02 0. -1.
          2   -1    0    0  501    0  0.00000000000E+00 -0.00000000000E+00 -0.21641451568E+04  0.21641451568E+04  0.25500000000E-02 0.  1.
    5000001    1    1    2    0    0  0.15897671053E+03 -0.38458994899E+03 -0.20365645850E+04  0.20871325622E+04  0.18800000000E+03 0.  0.
   -5000001    1    1    2    0    0 -0.15897671053E+03  0.38458994899E+03  0.40731726897E+03  0.61191043541E+03  0.18800000000E+03 0.  0.
<mgrwt>
<rscale>  0 0.21518332E+04</rscale>
<asrwt>0</asrwt>
<pdfrwt beam="1">  1        2 0.30916359E+00 0.21518332E+04</pdfrwt>
<pdfrwt beam="2">  1       -2 0.76413978E-01 0.21518332E+04</pdfrwt>
<totfact> 0.93182710E+00</totfact>
</mgrwt>
</event>
<event>
 4    1  0.6024609E-005  0.5875101E+03  0.7818608E-02  0.9931663E-01
          2   -1    0    0  501    0  0.00000000000E+00  0.00000000000E+00  0.77934134674E+03  0.77934134674E+03  0.25500000000E-02 0.  1.
         -2   -1    0    0    0  501 -0.00000000000E+00 -0.00000000000E+00 -0.11072432184E+03  0.11072432187E+03  0.25500000000E-02 0. -1.
    5000001    1    1    2    0    0  0.19517232121E+03  0.88057936551E+02  0.22610031094E+03  0.36374687045E+03  0.18800000000E+03 0.  0.
   -5000001    1    1    2    0    0 -0.19517232121E+03 -0.88057936551E+02  0.44251671396E+03  0.52631879816E+03  0.18800000000E+03 0.  0.
<mgrwt>
<rscale>  0 0.58751014E+03</rscale>
<asrwt>0</asrwt>
<pdfrwt beam="1">  1        2 0.11133447E+00 0.58751014E+03</pdfrwt>
<pdfrwt beam="2">  1       -2 0.15817761E-01 0.58751014E+03</pdfrwt>
<totfact> 0.12609908E+03</totfact>
</mgrwt>
</event>
<event>
 4    1  0.6024609E-005  0.4750145E+03  0.7818608E-02  0.1020514E+00
          2   -1    0    0  501    0  0.00000000000E+00  0.00000000000E+00  0.26187657585E+03  0.26187657586E+03  0.25500000000E-02 0.  1.
         -2   -1    0    0    0  501 -0.00000000000E+00 -0.00000000000E+00 -0.21540567708E+03  0.21540567709E+03  0.25500000000E-02 0. -1.
    5000001    1    1    2    0    0  0.12537300490E+03  0.70685366921E+02  0.44139728345E+01  0.23680856110E+03  0.18800000000E+03 0.  0.
   -5000001    1    1    2    0    0 -0.12537300490E+03 -0.70685366921E+02  0.42056925938E+02  0.24047369185E+03  0.18800000000E+03 0.  0.
<mgrwt>
<rscale>  0 0.47501453E+03</rscale>
<asrwt>0</asrwt>
<pdfrwt beam="1">  1        2 0.37410939E-01 0.47501453E+03</pdfrwt>
<pdfrwt beam="2">  1       -2 0.30772240E-01 0.47501453E+03</pdfrwt>
<totfact> 0.13529346E+03</totfact>
</mgrwt>
</event>
<event>
 4    1  0.6024609E-005  0.1220641E+04  0.7818608E-02  0.9094979E-01
         -2   -1    0    0    0  501 -0.00000000000E+00  0.00000000000E+00  0.22320162956E+04  0.22320162956E+04  0.25500000000E-02 0. -1.
          2   -1    0    0  501    0  0.00000000000E+00 -0.00000000000E+00 -0.16688535012E+03  0.16688535014E+03  0.25500000000E-02 0.  1.
    5000001    1    1    2    0    0  0.52114377793E+03  0.23829184578E+03  0.12166419215E+04  0.13579158318E+04  0.18800000000E+03 0.  0.
   -5000001    1    1    2    0    0 -0.52114377793E+03 -0.23829184578E+03  0.84848902397E+03  0.10409858139E+04  0.18800000000E+03 0.  0.
<mgrwt>
<rscale>  0 0.12206405E+04</rscale>
<asrwt>0</asrwt>
<pdfrwt beam="1">  1        2 0.23840766E-01 0.12206405E+04</pdfrwt>
<pdfrwt beam="2">  1       -2 0.31885945E+00 0.12206405E+04</pdfrwt>
<totfact> 0.56227084E+00</totfact>
</mgrwt>
</event>
<event>
 4    1  0.6024609E-005  0.5602209E+03  0.7818608E-02  0.9991555E-01
          2   -1    0    0  501    0  0.00000000000E+00  0.00000000000E+00  0.89632175985E+03  0.89632175985E+03  0.25500000000E-02 0.  1.
         -2   -1    0    0    0  501 -0.00000000000E+00 -0.00000000000E+00 -0.87537597515E+02  0.87537597552E+02  0.25500000000E-02 0. -1.
    5000001    1    1    2    0    0 -0.16814505100E+03 -0.10344156458E+03  0.29132588969E+03  0.39898331978E+03  0.18800000000E+03 0.  0.
   -5000001    1    1    2    0    0  0.16814505100E+03  0.10344156458E+03  0.51745827265E+03  0.58487603762E+03  0.18800000000E+03 0.  0.
<mgrwt>
<rscale>  0 0.56022086E+03</rscale>
<asrwt>0</asrwt>
<pdfrwt beam="1">  1        2 0.12804597E+00 0.56022086E+03</pdfrwt>
<pdfrwt beam="2">  1       -2 0.12505370E-01 0.56022086E+03</pdfrwt>
<totfact> 0.15580274E+03</totfact>
</mgrwt>
</event>
<event>
 4    1  0.6024609E-005  0.1247709E+04  0.7818608E-02  0.9072092E-01
         -2   -1    0    0    0  501 -0.00000000000E+00  0.00000000000E+00  0.19529287610E+03  0.19529287612E+03  0.25500000000E-02 0. -1.
          2   -1    0    0  501    0  0.00000000000E+00 -0.00000000000E+00 -0.19928750832E+04  0.19928750832E+04  0.25500000000E-02 0.  1.
    5000001    1    1    2    0    0  0.15093686084E+03  0.57460476829E+03 -0.95133720938E+03  0.11372506591E+04  0.18800000000E+03 0.  0.
   -5000001    1    1    2    0    0 -0.15093686084E+03 -0.57460476829E+03 -0.84624499770E+03  0.10509173002E+04  0.18800000000E+03 0.  0.
<mgrwt>
<rscale>  0 0.12477088E+04</rscale>
<asrwt>0</asrwt>
<pdfrwt beam="1">  1        2 0.28469643E+00 0.12477088E+04</pdfrwt>
<pdfrwt beam="2">  1       -2 0.27898983E-01 0.12477088E+04</pdfrwt>
<totfact> 0.93446966E+01</totfact>
</mgrwt>
</event>
<event>
 4    1  0.6024609E-005  0.6001344E+03  0.7818608E-02  0.9905127E-01
         -2   -1    0    0    0  501 -0.00000000000E+00  0.00000000000E+00  0.75190902646E+02  0.75190902689E+02  0.25500000000E-02 0. -1.
          2   -1    0    0  501    0  0.00000000000E+00 -0.00000000000E+00 -0.11974894220E+04  0.11974894220E+04  0.25500000000E-02 0.  1.
    5000001    1    1    2    0    0  0.17044841309E+03 -0.15645347451E+03 -0.48873692487E+03  0.57248417703E+03  0.18800000000E+03 0.  0.
   -5000001    1    1    2    0    0 -0.17044841309E+03  0.15645347451E+03 -0.63356159451E+03  0.70019614770E+03  0.18800000000E+03 0.  0.
<mgrwt>
<rscale>  0 0.60013435E+03</rscale>
<asrwt>0</asrwt>
<pdfrwt beam="1">  1        2 0.17106991E+00 0.60013435E+03</pdfrwt>
<pdfrwt beam="2">  1       -2 0.10741558E-01 0.60013435E+03</pdfrwt>
<totfact> 0.13199500E+03</totfact>
</mgrwt>
</event>
<event>
 4    1  0.6024609E-005  0.4317120E+03  0.7818608E-02  0.1033321E+00
          2   -1    0    0  501    0  0.00000000000E+00  0.00000000000E+00  0.84029601391E+03  0.84029601392E+03  0.25500000000E-02 0.  1.
         -2   -1    0    0    0  501 -0.00000000000E+00 -0.00000000000E+00 -0.55449274653E+02  0.55449274712E+02  0.25500000000E-02 0. -1.
    5000001    1    1    2    0    0  0.84169399033E+01  0.10535905333E+03  0.41079848884E+03  0.46397281540E+03  0.18800000000E+03 0.  0.
   -5000001    1    1    2    0    0 -0.84169399033E+01 -0.10535905333E+03  0.37404825042E+03  0.43177247323E+03  0.18800000000E+03 0.  0.
<mgrwt>
<rscale>  0 0.43171196E+03</rscale>
<asrwt>0</asrwt>
<pdfrwt beam="1">  1        2 0.12004228E+00 0.43171196E+03</pdfrwt>
<pdfrwt beam="2">  1       -2 0.79213254E-02 0.43171196E+03</pdfrwt>
<totfact> 0.35399759E+03</totfact>
</mgrwt>
</event>
<event>
 4    1  0.6024609E-005  0.9387285E+03  0.7818608E-02  0.9378423E-01
         -2   -1    0    0    0  501 -0.00000000000E+00  0.00000000000E+00  0.28039276091E+03  0.28039276092E+03  0.25500000000E-02 0. -1.
          2   -1    0    0  501    0  0.00000000000E+00 -0.00000000000E+00 -0.78569362982E+03  0.78569362982E+03  0.25500000000E-02 0.  1.
    5000001    1    1    2    0    0 -0.29256544857E+03  0.64695255370E+02 -0.60301685400E+03  0.69910896431E+03  0.18800000000E+03 0.  0.
   -5000001    1    1    2    0    0  0.29256544857E+03 -0.64695255370E+02  0.97715985097E+02  0.36697742643E+03  0.18800000000E+03 0.  0.
<mgrwt>
<rscale>  0 0.93872851E+03</rscale>
<asrwt>0</asrwt>
<pdfrwt beam="1">  1        2 0.11224195E+00 0.93872851E+03</pdfrwt>
<pdfrwt beam="2">  1       -2 0.40056109E-01 0.93872851E+03</pdfrwt>
<totfact> 0.22940415E+02</totfact>
</mgrwt>
</event>
<event>
 4    1  0.6024609E-005  0.5718290E+03  0.7818608E-02  0.9965640E-01
         -2   -1    0    0    0  501 -0.00000000000E+00  0.00000000000E+00  0.64252874763E+02  0.64252874814E+02  0.25500000000E-02 0. -1.
          2   -1    0    0  501    0  0.00000000000E+00 -0.00000000000E+00 -0.12722712889E+04  0.12722712889E+04  0.25500000000E-02 0.  1.
    5000001    1    1    2    0    0 -0.24294341502E+01  0.19104032792E+03 -0.37144367327E+03  0.45805754164E+03  0.18800000000E+03 0.  0.
   -5000001    1    1    2    0    0  0.24294341502E+01 -0.19104032792E+03 -0.83657474082E+03  0.87846662203E+03  0.18800000000E+03 0.  0.
<mgrwt>
<rscale>  0 0.57182895E+03</rscale>
<asrwt>0</asrwt>
<pdfrwt beam="1">  1        2 0.18175303E+00 0.57182895E+03</pdfrwt>
<pdfrwt beam="2">  1       -2 0.91789829E-02 0.57182895E+03</pdfrwt>
<totfact> 0.15488319E+03</totfact>
</mgrwt>
</event>
<event>
 4    1  0.6024609E-005  0.3952157E+03  0.7818608E-02  0.1045449E+00
         -2   -1    0    0    0  501 -0.00000000000E+00  0.00000000000E+00  0.48925783920E+02  0.48925783986E+02  0.25500000000E-02 0. -1.
          2   -1    0    0  501    0  0.00000000000E+00 -0.00000000000E+00 -0.79812427368E+03  0.79812427369E+03  0.25500000000E-02 0.  1.
    5000001    1    1    2    0    0 -0.44070090977E+02 -0.40731897383E+02 -0.35278474985E+03  0.40423055316E+03  0.18800000000E+03 0.  0.
   -5000001    1    1    2    0    0  0.44070090977E+02  0.40731897383E+02 -0.39641373991E+03  0.44281950451E+03  0.18800000000E+03 0.  0.
<mgrwt>
<rscale>  0 0.39521567E+03</rscale>
<asrwt>0</asrwt>
<pdfrwt beam="1">  1        2 0.11401775E+00 0.39521567E+03</pdfrwt>
<pdfrwt beam="2">  1       -2 0.69893982E-02 0.39521567E+03</pdfrwt>
<totfact> 0.45956736E+03</totfact>
</mgrwt>
</event>
<event>
 4    1  0.6024609E-005  0.7845481E+03  0.7818608E-02  0.9582656E-01
          2   -1    0    0  501    0  0.00000000000E+00  0.00000000000E+00  0.90774962743E+03  0.90774962744E+03  0.25500000000E-02 0.  1.
         -2   -1    0    0    0  501 -0.00000000000E+00 -0.00000000000E+00 -0.16951692448E+03  0.16951692450E+03  0.25500000000E-02 0. -1.
    5000001    1    1    2    0    0 -0.30955547084E+03  0.12391102097E+03  0.48688674084E+03  0.61933934886E+03  0.18800000000E+03 0.  0.
   -5000001    1    1    2    0    0  0.30955547084E+03 -0.12391102097E+03  0.25134596211E+03  0.45792720308E+03  0.18800000000E+03 0.  0.
<mgrwt>
<rscale>  0 0.78454809E+03</rscale>
<asrwt>0</asrwt>
<pdfrwt beam="1">  1        2 0.12967852E+00 0.78454809E+03</pdfrwt>
<pdfrwt beam="2">  1       -2 0.24216703E-01 0.78454809E+03</pdfrwt>
<totfact> 0.48928518E+02</totfact>
</mgrwt>
</event>
<event>
 4    1  0.6024609E-005  0.5521541E+03  0.7818608E-02  0.1000997E+00
         -2   -1    0    0    0  501 -0.00000000000E+00  0.00000000000E+00  0.41188795093E+02  0.41188795172E+02  0.25500000000E-02 0. -1.
          2   -1    0    0  501    0  0.00000000000E+00 -0.00000000000E+00 -0.18504675282E+04  0.18504675282E+04  0.25500000000E-02 0.  1.
    5000001    1    1    2    0    0 -0.46874571383E+02  0.18385405677E+03 -0.66543519405E+03  0.71704081970E+03  0.18800000000E+03 0.  0.
   -5000001    1    1    2    0    0  0.46874571383E+02 -0.18385405677E+03 -0.11438435390E+04  0.11746155036E+04  0.18800000000E+03 0.  0.
<mgrwt>
<rscale>  0 0.55215407E+03</rscale>
<asrwt>0</asrwt>
<pdfrwt beam="1">  1        2 0.26435245E+00 0.55215407E+03</pdfrwt>
<pdfrwt beam="2">  1       -2 0.58841147E-02 0.55215407E+03</pdfrwt>
<totfact> 0.15716755E+03</totfact>
</mgrwt>
</event>
<event>
 4    1  0.6024609E-005  0.5450616E+03  0.7818608E-02  0.1002643E+00
          2   -1    0    0  501    0  0.00000000000E+00  0.00000000000E+00  0.32171431326E+03  0.32171431327E+03  0.25500000000E-02 0.  1.
         -2   -1    0    0    0  501 -0.00000000000E+00 -0.00000000000E+00 -0.23086641627E+03  0.23086641628E+03  0.25500000000E-02 0. -1.
    5000001    1    1    2    0    0  0.17550873407E+03 -0.76267038850E+02 -0.32915528663E+01  0.26828121677E+03  0.18800000000E+03 0.  0.
   -5000001    1    1    2    0    0 -0.17550873407E+03  0.76267038850E+02  0.94139449857E+02  0.28429951278E+03  0.18800000000E+03 0.  0.
<mgrwt>
<rscale>  0 0.54506158E+03</rscale>
<asrwt>0</asrwt>
<pdfrwt beam="1">  1        2 0.45959188E-01 0.54506158E+03</pdfrwt>
<pdfrwt beam="2">  1       -2 0.32980916E-01 0.54506158E+03</pdfrwt>
<totfact> 0.94859930E+02</totfact>
</mgrwt>
</event>
<event>
 4    1  0.6024609E-005  0.1221516E+04  0.7818608E-02  0.9094229E-01
         -2   -1    0    0    0  501 -0.00000000000E+00  0.00000000000E+00  0.46912556763E+03  0.46912556764E+03  0.25500000000E-02 0. -1.
          2   -1    0    0  501    0  0.00000000000E+00 -0.00000000000E+00 -0.79515066450E+03  0.79515066450E+03  0.25500000000E-02 0.  1.
    5000001    1    1    2    0    0  0.38724082417E+03 -0.16298415496E+03  0.25249060926E+03  0.52499028414E+03  0.18800000000E+03 0.  0.
   -5000001    1    1    2    0    0 -0.38724082417E+03  0.16298415496E+03 -0.57851570614E+03  0.73928594800E+03  0.18800000000E+03 0.  0.
<mgrwt>
<rscale>  0 0.12215163E+04</rscale>
<asrwt>0</asrwt>
<pdfrwt beam="1">  1        2 0.11359295E+00 0.12215163E+04</pdfrwt>
<pdfrwt beam="2">  1       -2 0.67017939E-01 0.12215163E+04</pdfrwt>
<totfact> 0.77234443E+01</totfact>
</mgrwt>
</event>
<event>
 4    1  0.6024609E-005  0.4889750E+03  0.7818608E-02  0.1016697E+00
          2   -1    0    0  501    0  0.00000000000E+00  0.00000000000E+00  0.46723013667E+03  0.46723013668E+03  0.25500000000E-02 0.  1.
         -2   -1    0    0    0  501 -0.00000000000E+00 -0.00000000000E+00 -0.12793294387E+03  0.12793294390E+03  0.25500000000E-02 0. -1.
    5000001    1    1    2    0    0 -0.11940800080E+03  0.48494558496E+02  0.27728432733E+03  0.35894371571E+03  0.18800000000E+03 0.  0.
   -5000001    1    1    2    0    0  0.11940800080E+03 -0.48494558496E+02  0.62012865465E+02  0.23621936488E+03  0.18800000000E+03 0.  0.
<mgrwt>
<rscale>  0 0.48897496E+03</rscale>
<asrwt>0</asrwt>
<pdfrwt beam="1">  1        2 0.66747162E-01 0.48897496E+03</pdfrwt>
<pdfrwt beam="2">  1       -2 0.18276135E-01 0.48897496E+03</pdfrwt>
<totfact> 0.18036182E+03</totfact>
</mgrwt>
</event>
<event>
 4    1  0.6024609E-005  0.3928470E+03  0.7818608E-02  0.1046285E+00
          2   -1    0    0  501    0  0.00000000000E+00  0.00000000000E+00  0.60445339629E+03  0.60445339629E+03  0.25500000000E-02 0.  1.
         -2   -1    0    0    0  501 -0.00000000000E+00 -0.00000000000E+00 -0.63829888185E+02  0.63829888236E+02  0.25500000000E-02 0. -1.
    5000001    1    1    2    0    0 -0.91349231966E+00 -0.55525295414E+02  0.24918076345E+03  0.31704722956E+03  0.18800000000E+03 0.  0.
   -5000001    1    1    2    0    0  0.91349231966E+00  0.55525295414E+02  0.29144274465E+03  0.35123605497E+03  0.18800000000E+03 0.  0.
<mgrwt>
<rscale>  0 0.39284701E+03</rscale>
<asrwt>0</asrwt>
<pdfrwt beam="1">  1        2 0.86350480E-01 0.39284701E+03</pdfrwt>
<pdfrwt beam="2">  1       -2 0.91185560E-02 0.39284701E+03</pdfrwt>
<totfact> 0.42213288E+03</totfact>
</mgrwt>
</event>
<event>
 4    1  0.6024609E-005  0.3866362E+03  0.7818608E-02  0.1048508E+00
          2   -1    0    0  501    0  0.00000000000E+00  0.00000000000E+00  0.97407176410E+03  0.97407176410E+03  0.25500000000E-02 0.  1.
         -2   -1    0    0    0  501 -0.00000000000E+00 -0.00000000000E+00 -0.38366676204E+02  0.38366676289E+02  0.25500000000E-02 0. -1.
    5000001    1    1    2    0    0  0.31128824274E+02  0.29036878981E+02  0.50631557053E+03  0.54176710956E+03  0.18800000000E+03 0.  0.
   -5000001    1    1    2    0    0 -0.31128824274E+02 -0.29036878981E+02  0.42938951737E+03  0.47067133083E+03  0.18800000000E+03 0.  0.
<mgrwt>
<rscale>  0 0.38663624E+03</rscale>
<asrwt>0</asrwt>
<pdfrwt beam="1">  1        2 0.13915309E+00 0.38663624E+03</pdfrwt>
<pdfrwt beam="2">  1       -2 0.54809543E-02 0.38663624E+03</pdfrwt>
<totfact> 0.51651496E+03</totfact>
</mgrwt>
</event>
<event>
 4    1  0.6024609E-005  0.5270866E+03  0.7818608E-02  0.1006941E+00
         -2   -1    0    0    0  501 -0.00000000000E+00  0.00000000000E+00  0.34911299335E+03  0.34911299336E+03  0.25500000000E-02 0. -1.
          2   -1    0    0  501    0  0.00000000000E+00 -0.00000000000E+00 -0.19894723197E+03  0.19894723199E+03  0.25500000000E-02 0.  1.
    5000001    1    1    2    0    0 -0.15650056546E+03 -0.95660075933E+02  0.52593877623E+02  0.26786823828E+03  0.18800000000E+03 0.  0.
   -5000001    1    1    2    0    0  0.15650056546E+03  0.95660075933E+02  0.97571883752E+02  0.28019198707E+03  0.18800000000E+03 0.  0.
<mgrwt>
<rscale>  0 0.52708657E+03</rscale>
<asrwt>0</asrwt>
<pdfrwt beam="1">  1        2 0.28421033E-01 0.52708657E+03</pdfrwt>
<pdfrwt beam="2">  1       -2 0.49873285E-01 0.52708657E+03</pdfrwt>
<totfact> 0.72367767E+02</totfact>
</mgrwt>
</event>
<event>
 4    1  0.6024609E-005  0.4781985E+03  0.7818608E-02  0.1019631E+00
          2   -1    0    0  501    0  0.00000000000E+00  0.00000000000E+00  0.85695127175E+02  0.85695127213E+02  0.25500000000E-02 0.  1.
         -2   -1    0    0    0  501 -0.00000000000E+00 -0.00000000000E+00 -0.66711447086E+03  0.66711447087E+03  0.25500000000E-02 0. -1.
    5000001    1    1    2    0    0  0.43035980532E+02  0.14024502852E+03 -0.31814412413E+03  0.39759331907E+03  0.18800000000E+03 0.  0.
   -5000001    1    1    2    0    0 -0.43035980532E+02 -0.14024502852E+03 -0.26327521955E+03  0.35521627901E+03  0.18800000000E+03 0.  0.
<mgrwt>
<rscale>  0 0.47819853E+03</rscale>
<asrwt>0</asrwt>
<pdfrwt beam="1">  1        2 0.12242161E-01 0.47819853E+03</pdfrwt>
<pdfrwt beam="2">  1       -2 0.95302064E-01 0.47819853E+03</pdfrwt>
<totfact> 0.48082515E+02</totfact>
</mgrwt>
</event>
<event>
 4    1  0.6024609E-005  0.6294790E+03  0.7818608E-02  0.9846066E-01
          2   -1    0    0  501    0  0.00000000000E+00  0.00000000000E+00  0.13240795926E+04  0.13240795926E+04  0.25500000000E-02 0.  1.
         -2   -1    0    0    0  501 -0.00000000000E+00 -0.00000000000E+00 -0.74814949410E+02  0.74814949454E+02  0.25500000000E-02 0. -1.
    5000001    1    1    2    0    0 -0.17561576547E+03 -0.12806151217E+03  0.90988753037E+03  0.95419073875E+03  0.18800000000E+03 0.  0.
   -5000001    1    1    2    0    0  0.17561576547E+03  0.12806151217E+03  0.33937711286E+03  0.44470380335E+03  0.18800000000E+03 0.  0.
<mgrwt>
<rscale>  0 0.62947898E+03</rscale>
<asrwt>0</asrwt>
<pdfrwt beam="1">  1        2 0.18915422E+00 0.62947898E+03</pdfrwt>
<pdfrwt beam="2">  1       -2 0.10687850E-01 0.62947898E+03</pdfrwt>
<totfact> 0.11324432E+03</totfact>
</mgrwt>
</event>
<event>
 4    1  0.6024609E-005  0.1526555E+04  0.7818608E-02  0.8866984E-01
          2   -1    0    0  501    0  0.00000000000E+00  0.00000000000E+00  0.18068071619E+04  0.18068071619E+04  0.25500000000E-02 0.  1.
         -2   -1    0    0    0  501 -0.00000000000E+00 -0.00000000000E+00 -0.32244304774E+03  0.32244304775E+03  0.25500000000E-02 0. -1.
    5000001    1    1    2    0    0 -0.66191074336E+03 -0.32060206809E+03  0.63114898201E+03  0.98722062161E+03  0.18800000000E+03 0.  0.
   -5000001    1    1    2    0    0  0.66191074336E+03  0.32060206809E+03  0.85321513212E+03  0.11420295880E+04  0.18800000000E+03 0.  0.
<mgrwt>
<rscale>  0 0.15265548E+04</rscale>
<asrwt>0</asrwt>
<pdfrwt beam="1">  1        2 0.25811531E+00 0.15265548E+04</pdfrwt>
<pdfrwt beam="2">  1       -2 0.46063292E-01 0.15265548E+04</pdfrwt>
<totfact> 0.43559226E+01</totfact>
</mgrwt>
</event>
<event>
 4    1  0.6024609E-005  0.5497821E+03  0.7818608E-02  0.1001544E+00
          2   -1    0    0  501    0  0.00000000000E+00  0.00000000000E+00  0.18619249843E+03  0.18619249844E+03  0.25500000000E-02 0.  1.
         -2   -1    0    0    0  501 -0.00000000000E+00 -0.00000000000E+00 -0.40584383201E+03  0.40584383202E+03  0.25500000000E-02 0. -1.
    5000001    1    1    2    0    0  0.51229753100E+01  0.10977565612E+03 -0.29048140873E+03  0.36304323210E+03  0.18800000000E+03 0.  0.
   -5000001    1    1    2    0    0 -0.51229753100E+01 -0.10977565612E+03  0.70830075150E+02  0.22899309836E+03  0.18800000000E+03 0.  0.
<mgrwt>
<rscale>  0 0.54978206E+03</rscale>
<asrwt>0</asrwt>
<pdfrwt beam="1">  1        2 0.26598928E-01 0.54978206E+03</pdfrwt>
<pdfrwt beam="2">  1       -2 0.57977690E-01 0.54978206E+03</pdfrwt>
<totfact> 0.57246592E+02</totfact>
</mgrwt>
</event>
<event>
 4    1  0.6024609E-005  0.8272265E+03  0.7818608E-02  0.9521423E-01
          2   -1    0    0  501    0  0.00000000000E+00  0.00000000000E+00  0.93912830222E+03  0.93912830223E+03  0.25500000000E-02 0. -1.
         -2   -1    0    0    0  501 -0.00000000000E+00 -0.00000000000E+00 -0.18216457419E+03  0.18216457421E+03  0.25500000000E-02 0.  1.
    5000001    1    1    2    0    0 -0.32241710299E+03  0.12232675976E+03  0.55425266423E+03  0.67930599899E+03  0.18800000000E+03 0.  0.
   -5000001    1    1    2    0    0  0.32241710299E+03 -0.12232675976E+03  0.20271106380E+03  0.44198687745E+03  0.18800000000E+03 0.  0.
<mgrwt>
<rscale>  0 0.82722647E+03</rscale>
<asrwt>0</asrwt>
<pdfrwt beam="1">  1        2 0.13416118E+00 0.82722647E+03</pdfrwt>
<pdfrwt beam="2">  1       -2 0.26023511E-01 0.82722647E+03</pdfrwt>
<totfact> 0.40950021E+02</totfact>
</mgrwt>
</event>
<event>
 4    1  0.6024609E-005  0.4867765E+03  0.7818608E-02  0.1017289E+00
         -2   -1    0    0    0  501 -0.00000000000E+00  0.00000000000E+00  0.85551524390E+02  0.85551524428E+02  0.25500000000E-02 0. -1.
          2   -1    0    0  501    0  0.00000000000E+00 -0.00000000000E+00 -0.69242300929E+03  0.69242300929E+03  0.25500000000E-02 0.  1.
    5000001    1    1    2    0    0  0.12251713468E+03 -0.17336733810E+02 -0.45150029674E+03  0.50448739190E+03  0.18800000000E+03 0.  0.
   -5000001    1    1    2    0    0 -0.12251713468E+03  0.17336733810E+02 -0.15537118815E+03  0.27348714182E+03  0.18800000000E+03 0.  0.
<mgrwt>
<rscale>  0 0.48677652E+03</rscale>
<asrwt>0</asrwt>
<pdfrwt beam="1">  1        2 0.98917569E-01 0.48677652E+03</pdfrwt>
<pdfrwt beam="2">  1       -2 0.12221647E-01 0.48677652E+03</pdfrwt>
<totfact> 0.22440599E+03</totfact>
</mgrwt>
</event>
<event>
 4    1  0.6024609E-005  0.5167263E+03  0.7818608E-02  0.1009503E+00
         -2   -1    0    0    0  501 -0.00000000000E+00  0.00000000000E+00  0.31910184064E+02  0.31910184165E+02  0.25500000000E-02 0. -1.
          2   -1    0    0  501    0  0.00000000000E+00 -0.00000000000E+00 -0.20918559424E+04  0.20918559424E+04  0.25500000000E-02 0.  1.
    5000001    1    1    2    0    0  0.93800118620E+02  0.10406619161E+03 -0.58390042004E+03  0.62921533279E+03  0.18800000000E+03 0.  0.
   -5000001    1    1    2    0    0 -0.93800118620E+02 -0.10406619161E+03 -0.14760453383E+04  0.14945507938E+04  0.18800000000E+03 0.  0.
<mgrwt>
<rscale>  0 0.51672627E+03</rscale>
<asrwt>0</asrwt>
<pdfrwt beam="1">  1        2 0.29883648E+00 0.51672627E+03</pdfrwt>
<pdfrwt beam="2">  1       -2 0.45585991E-02 0.51672627E+03</pdfrwt>
<totfact> 0.17704587E+03</totfact>
</mgrwt>
</event>
<event>
 4    1  0.6024609E-005  0.5188067E+03  0.7818608E-02  0.1008983E+00
          2   -1    0    0  501    0  0.00000000000E+00  0.00000000000E+00  0.19611256780E+04  0.19611256780E+04  0.25500000000E-02 0.  1.
         -2   -1    0    0    0  501 -0.00000000000E+00 -0.00000000000E+00 -0.34311978942E+02  0.34311979036E+02  0.25500000000E-02 0. -1.
    5000001    1    1    2    0    0 -0.13833005230E+03  0.11261121601E+03  0.10071951471E+04  0.10400012278E+04  0.18800000000E+03 0.  0.
   -5000001    1    1    2    0    0  0.13833005230E+03 -0.11261121601E+03  0.91961855193E+03  0.95543642928E+03  0.18800000000E+03 0.  0.
<mgrwt>
<rscale>  0 0.51880672E+03</rscale>
<asrwt>0</asrwt>
<pdfrwt beam="1">  1        2 0.28016079E+00 0.51880672E+03</pdfrwt>
<pdfrwt beam="2">  1       -2 0.49017116E-02 0.51880672E+03</pdfrwt>
<totfact> 0.18397217E+03</totfact>
</mgrwt>
</event>
<event>
 4    1  0.6024609E-005  0.5118728E+03  0.7818608E-02  0.1010726E+00
          2   -1    0    0  501    0  0.00000000000E+00  0.00000000000E+00  0.13147966761E+03  0.13147966763E+03  0.25500000000E-02 0.  1.
         -2   -1    0    0    0  501 -0.00000000000E+00 -0.00000000000E+00 -0.49820198873E+03  0.49820198873E+03  0.25500000000E-02 0. -1.
    5000001    1    1    2    0    0  0.12768041381E+03  0.67065253881E+02 -0.30237101382E+03  0.38415135864E+03  0.18800000000E+03 0.  0.
   -5000001    1    1    2    0    0 -0.12768041381E+03 -0.67065253881E+02 -0.64351307301E+02  0.24553029772E+03  0.18800000000E+03 0.  0.
<mgrwt>
<rscale>  0 0.51187277E+03</rscale>
<asrwt>0</asrwt>
<pdfrwt beam="1">  1        2 0.18782810E-01 0.51187277E+03</pdfrwt>
<pdfrwt beam="2">  1       -2 0.71171712E-01 0.51187277E+03</pdfrwt>
<totfact> 0.55290858E+02</totfact>
</mgrwt>
</event>
<event>
 4    1  0.6024609E-005  0.9163354E+03  0.7818608E-02  0.9405389E-01
          2   -1    0    0  501    0  0.00000000000E+00  0.00000000000E+00  0.72365148685E+03  0.72365148686E+03  0.25500000000E-02 0.  1.
         -2   -1    0    0    0  501 -0.00000000000E+00 -0.00000000000E+00 -0.29008110292E+03  0.29008110294E+03  0.25500000000E-02 0. -1.
    5000001    1    1    2    0    0 -0.27482979038E+03 -0.30879690023E+03  0.28395696529E+03  0.53559546060E+03  0.18800000000E+03 0.  0.
   -5000001    1    1    2    0    0  0.27482979038E+03  0.30879690023E+03  0.14961341863E+03  0.47813712919E+03  0.18800000000E+03 0.  0.
<mgrwt>
<rscale>  0 0.91633536E+03</rscale>
<asrwt>0</asrwt>
<pdfrwt beam="1">  1        2 0.10337878E+00 0.91633536E+03</pdfrwt>
<pdfrwt beam="2">  1       -2 0.41440158E-01 0.91633536E+03</pdfrwt>
<totfact> 0.23845893E+02</totfact>
</mgrwt>
</event>
<event>
 4    1  0.6024609E-005  0.6151853E+03  0.7818608E-02  0.9874393E-01
          2   -1    0    0  501    0  0.00000000000E+00  0.00000000000E+00  0.21390911300E+04  0.21390911300E+04  0.25500000000E-02 0.  1.
         -2   -1    0    0    0  501 -0.00000000000E+00 -0.00000000000E+00 -0.44230576379E+02  0.44230576453E+02  0.25500000000E-02 0. -1.
    5000001    1    1    2    0    0  0.45056323659E+02 -0.21856163822E+03  0.70205906522E+03  0.76028296907E+03  0.18800000000E+03 0.  0.
   -5000001    1    1    2    0    0 -0.45056323659E+02  0.21856163822E+03  0.13928014884E+04  0.14230387374E+04  0.18800000000E+03 0.  0.
<mgrwt>
<rscale>  0 0.61518528E+03</rscale>
<asrwt>0</asrwt>
<pdfrwt beam="1">  1        2 0.30558447E+00 0.61518528E+03</pdfrwt>
<pdfrwt beam="2">  1       -2 0.63186534E-02 0.61518528E+03</pdfrwt>
<totfact> 0.10035862E+03</totfact>
</mgrwt>
</event>
<event>
 4    1  0.6024609E-005  0.7634173E+03  0.7818608E-02  0.9614533E-01
         -2   -1    0    0    0  501 -0.00000000000E+00  0.00000000000E+00  0.83488897016E+02  0.83488897055E+02  0.25500000000E-02 0. -1.
          2   -1    0    0  501    0  0.00000000000E+00 -0.00000000000E+00 -0.17451601095E+04  0.17451601095E+04  0.25500000000E-02 0.  1.
    5000001    1    1    2    0    0  0.38483728495E+01  0.21505737274E+03 -0.14372558479E+04  0.14653712349E+04  0.18800000000E+03 0.  0.
   -5000001    1    1    2    0    0 -0.38483728495E+01 -0.21505737274E+03 -0.22441536449E+03  0.36327777164E+03  0.18800000000E+03 0.  0.
<mgrwt>
<rscale>  0 0.76341730E+03</rscale>
<asrwt>0</asrwt>
<pdfrwt beam="1">  1        2 0.24930857E+00 0.76341730E+03</pdfrwt>
<pdfrwt beam="2">  1       -2 0.11926986E-01 0.76341730E+03</pdfrwt>
<totfact> 0.56619244E+02</totfact>
</mgrwt>
</event>
<event>
 4    1  0.6024609E-005  0.4185183E+03  0.7818608E-02  0.1037550E+00
         -2   -1    0    0    0  501 -0.00000000000E+00  0.00000000000E+00  0.40426861711E+02  0.40426861792E+02  0.25500000000E-02 0. -1.
          2   -1    0    0  501    0  0.00000000000E+00 -0.00000000000E+00 -0.10831758034E+04  0.10831758034E+04  0.25500000000E-02 0.  1.
    5000001    1    1    2    0    0  0.49449691548E+02 -0.68232907043E+02 -0.42293664329E+03  0.47044702766E+03  0.18800000000E+03 0.  0.
   -5000001    1    1    2    0    0 -0.49449691548E+02  0.68232907043E+02 -0.61981229842E+03  0.65315563756E+03  0.18800000000E+03 0.  0.
<mgrwt>
<rscale>  0 0.41851833E+03</rscale>
<asrwt>0</asrwt>
<pdfrwt beam="1">  1        2 0.15473938E+00 0.41851833E+03</pdfrwt>
<pdfrwt beam="2">  1       -2 0.57752666E-02 0.41851833E+03</pdfrwt>
<totfact> 0.41099920E+03</totfact>
</mgrwt>
</event>
<event>
 4    1  0.6024609E-005  0.5961670E+03  0.7818608E-02  0.9913390E-01
          2   -1    0    0  501    0  0.00000000000E+00  0.00000000000E+00  0.79838586391E+03  0.79838586392E+03  0.25500000000E-02 0.  1.
         -2   -1    0    0    0  501 -0.00000000000E+00 -0.00000000000E+00 -0.11129176063E+03  0.11129176066E+03  0.25500000000E-02 0. -1.
    5000001    1    1    2    0    0 -0.15289039866E+03  0.17356703184E+03  0.33902573411E+03  0.45142378862E+03  0.18800000000E+03 0.  0.
   -5000001    1    1    2    0    0  0.15289039866E+03 -0.17356703184E+03  0.34806836917E+03  0.45825383595E+03  0.18800000000E+03 0.  0.
<mgrwt>
<rscale>  0 0.59616698E+03</rscale>
<asrwt>0</asrwt>
<pdfrwt beam="1">  1        2 0.11405512E+00 0.59616698E+03</pdfrwt>
<pdfrwt beam="2">  1       -2 0.15898824E-01 0.59616698E+03</pdfrwt>
<totfact> 0.12122128E+03</totfact>
</mgrwt>
</event>
<event>
 4    1  0.6024609E-005  0.9561964E+03  0.7818608E-02  0.9357937E-01
         -2   -1    0    0    0  501 -0.00000000000E+00  0.00000000000E+00  0.21593154052E+03  0.21593154054E+03  0.25500000000E-02 0. -1.
          2   -1    0    0  501    0  0.00000000000E+00 -0.00000000000E+00 -0.10585664157E+04  0.10585664157E+04  0.25500000000E-02 0.  1.
    5000001    1    1    2    0    0 -0.32056325850E+03  0.24445402785E+03 -0.18771926090E+03  0.48280544254E+03  0.18800000000E+03 0.  0.
   -5000001    1    1    2    0    0  0.32056325850E+03 -0.24445402785E+03 -0.65491561426E+03  0.79169251369E+03  0.18800000000E+03 0.  0.
<mgrwt>
<rscale>  0 0.95619638E+03</rscale>
<asrwt>0</asrwt>
<pdfrwt beam="1">  1        2 0.15122377E+00 0.95619638E+03</pdfrwt>
<pdfrwt beam="2">  1       -2 0.30847363E-01 0.95619638E+03</pdfrwt>
<totfact> 0.25111720E+02</totfact>
</mgrwt>
</event>
<event>
 4    1  0.6024609E-005  0.4816084E+03  0.7818608E-02  0.1018694E+00
          2   -1    0    0  501    0  0.00000000000E+00  0.00000000000E+00  0.11118832652E+04  0.11118832652E+04  0.25500000000E-02 0.  1.
         -2   -1    0    0    0  501 -0.00000000000E+00 -0.00000000000E+00 -0.52151750623E+02  0.52151750686E+02  0.25500000000E-02 0. -1.
    5000001    1    1    2    0    0 -0.11804774936E+03  0.92778103301E+02  0.50574304428E+03  0.56005631362E+03  0.18800000000E+03 0.  0.
   -5000001    1    1    2    0    0  0.11804774936E+03 -0.92778103301E+02  0.55398847030E+03  0.60397870228E+03  0.18800000000E+03 0.  0.
<mgrwt>
<rscale>  0 0.48160838E+03</rscale>
<asrwt>0</asrwt>
<pdfrwt beam="1">  1        2 0.15884046E+00 0.48160838E+03</pdfrwt>
<pdfrwt beam="2">  1       -2 0.74502503E-02 0.48160838E+03</pdfrwt>
<totfact> 0.26586295E+03</totfact>
</mgrwt>
</event>
<event>
 4    1  0.6024609E-005  0.5977858E+03  0.7818608E-02  0.9910011E-01
          2   -1    0    0  501    0  0.00000000000E+00  0.00000000000E+00  0.28341417386E+04  0.28341417386E+04  0.25500000000E-02 0.  1.
         -2   -1    0    0    0  501 -0.00000000000E+00 -0.00000000000E+00 -0.31521698854E+02  0.31521698957E+02  0.25500000000E-02 0. -1.
    5000001    1    1    2    0    0  0.21721300433E+03 -0.54787238326E+02  0.11054185144E+04  0.11434497027E+04  0.18800000000E+03 0.  0.
   -5000001    1    1    2    0    0 -0.21721300433E+03  0.54787238326E+02  0.16972015253E+04  0.17222137348E+04  0.18800000000E+03 0.  0.
<mgrwt>
<rscale>  0 0.59778579E+03</rscale>
<asrwt>0</asrwt>
<pdfrwt beam="1">  1        2 0.40487723E+00 0.59778579E+03</pdfrwt>
<pdfrwt beam="2">  1       -2 0.45031016E-02 0.59778579E+03</pdfrwt>
<totfact> 0.74761017E+02</totfact>
</mgrwt>
</event>
<event>
 4    1  0.6024609E-005  0.9523073E+03  0.7818608E-02  0.9362458E-01
         -2   -1    0    0    0  501 -0.00000000000E+00  0.00000000000E+00  0.30743794413E+03  0.30743794414E+03  0.25500000000E-02 0. -1.
          2   -1    0    0  501    0  0.00000000000E+00 -0.00000000000E+00 -0.73745703640E+03  0.73745703640E+03  0.25500000000E-02 0.  1.
    5000001    1    1    2    0    0 -0.38152073724E+03 -0.23238694694E+02  0.18470383363E+02  0.42636048707E+03  0.18800000000E+03 0.  0.
   -5000001    1    1    2    0    0  0.38152073724E+03  0.23238694694E+02 -0.44848947563E+03  0.61853449348E+03  0.18800000000E+03 0.  0.
<mgrwt>
<rscale>  0 0.95230725E+03</rscale>
<asrwt>0</asrwt>
<pdfrwt beam="1">  1        2 0.10535100E+00 0.95230725E+03</pdfrwt>
<pdfrwt beam="2">  1       -2 0.43919707E-01 0.95230725E+03</pdfrwt>
<totfact> 0.20726449E+02</totfact>
</mgrwt>
</event>
<event>
 4    1  0.6024609E-005  0.9535827E+03  0.7818608E-02  0.9360973E-01
         -2   -1    0    0    0  501 -0.00000000000E+00  0.00000000000E+00  0.27300927726E+03  0.27300927727E+03  0.25500000000E-02 0. -1.
          2   -1    0    0  501    0  0.00000000000E+00 -0.00000000000E+00 -0.83268236718E+03  0.83268236718E+03  0.25500000000E-02 0.  1.
    5000001    1    1    2    0    0 -0.18394992972E+03  0.37578277492E+03 -0.12894053959E+03  0.47646608832E+03  0.18800000000E+03 0.  0.
   -5000001    1    1    2    0    0  0.18394992972E+03 -0.37578277492E+03 -0.43073255033E+03  0.62922555613E+03  0.18800000000E+03 0.  0.
<mgrwt>
<rscale>  0 0.95358274E+03</rscale>
<asrwt>0</asrwt>
<pdfrwt beam="1">  1        2 0.11895462E+00 0.95358274E+03</pdfrwt>
<pdfrwt beam="2">  1       -2 0.39001326E-01 0.95358274E+03</pdfrwt>
<totfact> 0.22393063E+02</totfact>
</mgrwt>
</event>
<event>
 4    1  0.6024609E-005  0.5270894E+03  0.7818608E-02  0.1006940E+00
          2   -1    0    0  501    0  0.00000000000E+00  0.00000000000E+00  0.95643357507E+03  0.95643357508E+03  0.25500000000E-02 0.  1.
         -2   -1    0    0    0  501 -0.00000000000E+00 -0.00000000000E+00 -0.72619574344E+02  0.72619574389E+02  0.25500000000E-02 0. -1.
    5000001    1    1    2    0    0 -0.14092902682E+03  0.85642125433E+02  0.27954349412E+03  0.37507883085E+03  0.18800000000E+03 0.  0.
   -5000001    1    1    2    0    0  0.14092902682E+03 -0.85642125433E+02  0.60427050661E+03  0.65397431861E+03  0.18800000000E+03 0.  0.
<mgrwt>
<rscale>  0 0.52708936E+03</rscale>
<asrwt>0</asrwt>
<pdfrwt beam="1">  1        2 0.13663336E+00 0.52708936E+03</pdfrwt>
<pdfrwt beam="2">  1       -2 0.10374225E-01 0.52708936E+03</pdfrwt>
<totfact> 0.19379493E+03</totfact>
</mgrwt>
</event>
<event>
 4    1  0.6024609E-005  0.4299612E+03  0.7818608E-02  0.1033872E+00
          2   -1    0    0  501    0  0.00000000000E+00  0.00000000000E+00  0.15354147473E+04  0.15354147473E+04  0.25500000000E-02 0.  1.
         -2   -1    0    0    0  501 -0.00000000000E+00 -0.00000000000E+00 -0.30100432770E+02  0.30100432878E+02  0.25500000000E-02 0. -1.
    5000001    1    1    2    0    0  0.70604759201E+02 -0.56727792739E+02  0.56453106135E+03  0.60186576055E+03  0.18800000000E+03 0.  0.
   -5000001    1    1    2    0    0 -0.70604759201E+02  0.56727792739E+02  0.94078325316E+03  0.96364941961E+03  0.18800000000E+03 0.  0.
<mgrwt>
<rscale>  0 0.42996115E+03</rscale>
<asrwt>0</asrwt>
<pdfrwt beam="1">  1        2 0.21934507E+00 0.42996115E+03</pdfrwt>
<pdfrwt beam="2">  1       -2 0.43000598E-02 0.42996115E+03</pdfrwt>
<totfact> 0.36934306E+03</totfact>
</mgrwt>
</event>
<event>
 4    1  0.6024609E-005  0.5153934E+03  0.7818608E-02  0.1009837E+00
          2   -1    0    0  501    0  0.00000000000E+00  0.00000000000E+00  0.11712841551E+04  0.11712841551E+04  0.25500000000E-02 0.  1.
         -2   -1    0    0    0  501 -0.00000000000E+00 -0.00000000000E+00 -0.56696393975E+02  0.56696394033E+02  0.25500000000E-02 0. -1.
    5000001    1    1    2    0    0 -0.10224822103E+03  0.11565109449E+03  0.75993766790E+03  0.79792175898E+03  0.18800000000E+03 0.  0.
   -5000001    1    1    2    0    0  0.10224822103E+03 -0.11565109449E+03  0.35465009318E+03  0.43005879011E+03  0.18800000000E+03 0.  0.
<mgrwt>
<rscale>  0 0.51539340E+03</rscale>
<asrwt>0</asrwt>
<pdfrwt beam="1">  1        2 0.16732631E+00 0.51539340E+03</pdfrwt>
<pdfrwt beam="2">  1       -2 0.80994849E-02 0.51539340E+03</pdfrwt>
<totfact> 0.21544213E+03</totfact>
</mgrwt>
</event>
<event>
 4    1  0.6024609E-005  0.7168263E+03  0.7818608E-02  0.9688882E-01
         -2   -1    0    0    0  501 -0.00000000000E+00  0.00000000000E+00  0.13085887840E+03  0.13085887842E+03  0.25500000000E-02 0. -1.
          2   -1    0    0  501    0  0.00000000000E+00 -0.00000000000E+00 -0.98166818926E+03  0.98166818927E+03  0.25500000000E-02 0.  1.
    5000001    1    1    2    0    0 -0.37335028691E+02  0.30274884156E+03 -0.41286950373E+03  0.54667722885E+03  0.18800000000E+03 0.  0.
   -5000001    1    1    2    0    0  0.37335028691E+02 -0.30274884156E+03 -0.43793980714E+03  0.56584983884E+03  0.18800000000E+03 0.  0.
<mgrwt>
<rscale>  0 0.71682633E+03</rscale>
<asrwt>0</asrwt>
<pdfrwt beam="1">  1        2 0.14023831E+00 0.71682633E+03</pdfrwt>
<pdfrwt beam="2">  1       -2 0.18694126E-01 0.71682633E+03</pdfrwt>
<totfact> 0.69508420E+02</totfact>
</mgrwt>
</event>
<event>
 4    1  0.6024609E-005  0.6327098E+03  0.7818608E-02  0.9839775E-01
          2   -1    0    0  501    0  0.00000000000E+00  0.00000000000E+00  0.15600187974E+04  0.15600187974E+04  0.25500000000E-02 0.  1.
         -2   -1    0    0    0  501 -0.00000000000E+00 -0.00000000000E+00 -0.64153343062E+02  0.64153343113E+02  0.25500000000E-02 0. -1.
    5000001    1    1    2    0    0 -0.26316308277E+02 -0.25069220734E+03  0.83675609162E+03  0.89389254822E+03  0.18800000000E+03 0.  0.
   -5000001    1    1    2    0    0  0.26316308277E+02  0.25069220734E+03  0.65910936272E+03  0.73027959229E+03  0.18800000000E+03 0.  0.
<mgrwt>
<rscale>  0 0.63270979E+03</rscale>
<asrwt>0</asrwt>
<pdfrwt beam="1">  1        2 0.22285981E+00 0.63270979E+03</pdfrwt>
<pdfrwt beam="2">  1       -2 0.91647641E-02 0.63270979E+03</pdfrwt>
<totfact> 0.10904273E+03</totfact>
</mgrwt>
</event>
<event>
 4    1  0.6024609E-005  0.6600706E+03  0.7818608E-02  0.9788064E-01
         -2   -1    0    0    0  501 -0.00000000000E+00  0.00000000000E+00  0.63029255380E+02  0.63029255431E+02  0.25500000000E-02 0. -1.
          2   -1    0    0  501    0  0.00000000000E+00 -0.00000000000E+00 -0.17281388332E+04  0.17281388332E+04  0.25500000000E-02 0.  1.
    5000001    1    1    2    0    0 -0.14083091425E+03  0.23181062339E+03 -0.84104639494E+03  0.90347802960E+03  0.18800000000E+03 0.  0.
   -5000001    1    1    2    0    0  0.14083091425E+03 -0.23181062339E+03 -0.82406318287E+03  0.88769005903E+03  0.18800000000E+03 0.  0.
<mgrwt>
<rscale>  0 0.66007061E+03</rscale>
<asrwt>0</asrwt>
<pdfrwt beam="1">  1        2 0.24687695E+00 0.66007061E+03</pdfrwt>
<pdfrwt beam="2">  1       -2 0.90041804E-02 0.66007061E+03</pdfrwt>
<totfact> 0.91873901E+02</totfact>
</mgrwt>
</event>
<event>
 4    1  0.6024609E-005  0.5483847E+03  0.7818608E-02  0.1001868E+00
         -2   -1    0    0    0  501 -0.00000000000E+00  0.00000000000E+00  0.43538647942E+03  0.43538647943E+03  0.25500000000E-02 0. -1.
          2   -1    0    0  501    0  0.00000000000E+00 -0.00000000000E+00 -0.17267750358E+03  0.17267750360E+03  0.25500000000E-02 0.  1.
    5000001    1    1    2    0    0 -0.55893327417E+02 -0.19047850055E+03  0.10832589878E+03  0.29408268152E+03  0.18800000000E+03 0.  0.
   -5000001    1    1    2    0    0  0.55893327417E+02  0.19047850055E+03  0.15438307705E+03  0.31398130152E+03  0.18800000000E+03 0.  0.
<mgrwt>
<rscale>  0 0.54838472E+03</rscale>
<asrwt>0</asrwt>
<pdfrwt beam="1">  1        2 0.24668215E-01 0.54838472E+03</pdfrwt>
<pdfrwt beam="2">  1       -2 0.62198068E-01 0.54838472E+03</pdfrwt>
<totfact> 0.53819528E+02</totfact>
</mgrwt>
</event>
<event>
 4    1  0.6024609E-005  0.9384476E+03  0.7818608E-02  0.9378756E-01
          2   -1    0    0  501    0  0.00000000000E+00  0.00000000000E+00  0.14030290451E+03  0.14030290453E+03  0.25500000000E-02 0.  1.
         -2   -1    0    0    0  501 -0.00000000000E+00 -0.00000000000E+00 -0.15692545917E+04  0.15692545917E+04  0.25500000000E-02 0. -1.
    5000001    1    1    2    0    0  0.12517890058E+03  0.38484588211E+03 -0.97878284948E+03  0.10757025502E+04  0.18800000000E+03 0.  0.
   -5000001    1    1    2    0    0 -0.12517890058E+03 -0.38484588211E+03 -0.45016883769E+03  0.63385494599E+03  0.18800000000E+03 0.  0.
<mgrwt>
<rscale>  0 0.93844761E+03</rscale>
<asrwt>0</asrwt>
<pdfrwt beam="1">  1        2 0.20043273E-01 0.93844761E+03</pdfrwt>
<pdfrwt beam="2">  1       -2 0.22417922E+00 0.93844761E+03</pdfrwt>
<totfact> 0.26583307E+01</totfact>
</mgrwt>
</event>
<event>
 4    1  0.6024609E-005  0.4604162E+03  0.7818608E-02  0.1024661E+00
          2   -1    0    0  501    0  0.00000000000E+00  0.00000000000E+00  0.46222224864E+03  0.46222224865E+03  0.25500000000E-02 0.  1.
         -2   -1    0    0    0  501 -0.00000000000E+00 -0.00000000000E+00 -0.11465428666E+03  0.11465428668E+03  0.25500000000E-02 0. -1.
    5000001    1    1    2    0    0  0.45358830218E+02 -0.10645124652E+03  0.91982151322E+02  0.23915268664E+03  0.18800000000E+03 0.  0.
   -5000001    1    1    2    0    0 -0.45358830218E+02  0.10645124652E+03  0.25558581066E+03  0.33772384869E+03  0.18800000000E+03 0.  0.
<mgrwt>
<rscale>  0 0.46041617E+03</rscale>
<asrwt>0</asrwt>
<pdfrwt beam="1">  1        2 0.66031749E-01 0.46041617E+03</pdfrwt>
<pdfrwt beam="2">  1       -2 0.16379184E-01 0.46041617E+03</pdfrwt>
<totfact> 0.21986364E+03</totfact>
</mgrwt>
</event>
<event>
 4    1  0.6024609E-005  0.6489787E+03  0.7818608E-02  0.9808697E-01
         -2   -1    0    0    0  501 -0.00000000000E+00  0.00000000000E+00  0.82262510829E+02  0.82262510868E+02  0.25500000000E-02 0. -1.
          2   -1    0    0  501    0  0.00000000000E+00 -0.00000000000E+00 -0.12799675527E+04  0.12799675527E+04  0.25500000000E-02 0.  1.
    5000001    1    1    2    0    0 -0.15986485450E+02 -0.19148315099E+03 -0.98032306594E+03  0.10165129996E+04  0.18800000000E+03 0.  0.
   -5000001    1    1    2    0    0  0.15986485450E+02  0.19148315099E+03 -0.21738197592E+03  0.34571706392E+03  0.18800000000E+03 0.  0.
<mgrwt>
<rscale>  0 0.64897872E+03</rscale>
<asrwt>0</asrwt>
<pdfrwt beam="1">  1        2 0.18285250E+00 0.64897872E+03</pdfrwt>
<pdfrwt beam="2">  1       -2 0.11751788E-01 0.64897872E+03</pdfrwt>
<totfact> 0.10238475E+03</totfact>
</mgrwt>
</event>
<event>
 4    1  0.6024609E-005  0.3970240E+03  0.7818608E-02  0.1044815E+00
         -2   -1    0    0    0  501 -0.00000000000E+00  0.00000000000E+00  0.24291479423E+02  0.24291479557E+02  0.25500000000E-02 0. -1.
          2   -1    0    0  501    0  0.00000000000E+00 -0.00000000000E+00 -0.16222566942E+04  0.16222566942E+04  0.25500000000E-02 0.  1.
    5000001    1    1    2    0    0  0.60339382676E+01 -0.44041089470E+02 -0.60952249936E+03  0.63940417828E+03  0.18800000000E+03 0.  0.
   -5000001    1    1    2    0    0 -0.60339382676E+01  0.44041089470E+02 -0.98844271537E+03  0.10071439954E+04  0.18800000000E+03 0.  0.
<mgrwt>
<rscale>  0 0.39702401E+03</rscale>
<asrwt>0</asrwt>
<pdfrwt beam="1">  1        2 0.23175089E+00 0.39702401E+03</pdfrwt>
<pdfrwt beam="2">  1       -2 0.34702124E-02 0.39702401E+03</pdfrwt>
<totfact> 0.46220410E+03</totfact>
</mgrwt>
</event>
<event>
 4    1  0.6024609E-005  0.5238760E+03  0.7818608E-02  0.1007728E+00
         -2   -1    0    0    0  501 -0.00000000000E+00  0.00000000000E+00  0.62597784221E+02  0.62597784273E+02  0.25500000000E-02 0. -1.
          2   -1    0    0  501    0  0.00000000000E+00 -0.00000000000E+00 -0.10960693878E+04  0.10960693878E+04  0.25500000000E-02 0.  1.
    5000001    1    1    2    0    0  0.12263934780E+03  0.13441231749E+03 -0.54475004298E+03  0.60432085025E+03  0.18800000000E+03 0.  0.
   -5000001    1    1    2    0    0 -0.12263934780E+03 -0.13441231749E+03 -0.48872156056E+03  0.55434632178E+03  0.18800000000E+03 0.  0.
<mgrwt>
<rscale>  0 0.52387600E+03</rscale>
<asrwt>0</asrwt>
<pdfrwt beam="1">  1        2 0.15658133E+00 0.52387600E+03</pdfrwt>
<pdfrwt beam="2">  1       -2 0.89425413E-02 0.52387600E+03</pdfrwt>
<totfact> 0.20305971E+03</totfact>
</mgrwt>
</event>
<event>
 4    1  0.6024609E-005  0.6365985E+03  0.7818608E-02  0.9832256E-01
         -2   -1    0    0    0  501 -0.00000000000E+00  0.00000000000E+00  0.35479283109E+03  0.35479283109E+03  0.25500000000E-02 0. -1.
          2   -1    0    0  501    0  0.00000000000E+00 -0.00000000000E+00 -0.28555939032E+03  0.28555939033E+03  0.25500000000E-02 0.  1.
    5000001    1    1    2    0    0 -0.23967684244E+03  0.68670918567E+02  0.96703765562E+02  0.32688882228E+03  0.18800000000E+03 0.  0.
   -5000001    1    1    2    0    0  0.23967684244E+03 -0.68670918567E+02 -0.27470324795E+02  0.31346339914E+03  0.18800000000E+03 0.  0.
<mgrwt>
<rscale>  0 0.63659854E+03</rscale>
<asrwt>0</asrwt>
<pdfrwt beam="1">  1        2 0.40794198E-01 0.63659854E+03</pdfrwt>
<pdfrwt beam="2">  1       -2 0.50684690E-01 0.63659854E+03</pdfrwt>
<totfact> 0.46752181E+02</totfact>
</mgrwt>
</event>
<event>
 4    1  0.6024609E-005  0.4205487E+03  0.7818608E-02  0.1036888E+00
          2   -1    0    0  501    0  0.00000000000E+00  0.00000000000E+00  0.30448950263E+04  0.30448950263E+04  0.25500000000E-02 0.  1.
         -2   -1    0    0    0  501 -0.00000000000E+00 -0.00000000000E+00 -0.14521126554E+02  0.14521126778E+02  0.25500000000E-02 0. -1.
    5000001    1    1    2    0    0  0.25761409175E+02 -0.88796834601E+02  0.13844873001E+04  0.14002491251E+04  0.18800000000E+03 0.  0.
   -5000001    1    1    2    0    0 -0.25761409175E+02  0.88796834601E+02  0.16458865996E+04  0.16591670280E+04  0.18800000000E+03 0.  0.
<mgrwt>
<rscale>  0 0.42054872E+03</rscale>
<asrwt>0</asrwt>
<pdfrwt beam="1">  1        2 0.43498495E+00 0.42054872E+03</pdfrwt>
<pdfrwt beam="2">  1       -2 0.20744469E-02 0.42054872E+03</pdfrwt>
<totfact> 0.18950385E+03</totfact>
</mgrwt>
</event>
<event>
 4    1  0.6024609E-005  0.8246338E+03  0.7818608E-02  0.9525030E-01
          2   -1    0    0  501    0  0.00000000000E+00  0.00000000000E+00  0.60325607562E+03  0.60325607562E+03  0.25500000000E-02 0.  1.
         -2   -1    0    0    0  501 -0.00000000000E+00 -0.00000000000E+00 -0.28181267580E+03  0.28181267581E+03  0.25500000000E-02 0. -1.
    5000001    1    1    2    0    0  0.13078940759E+03 -0.83536436080E+02 -0.19617974529E+03  0.31291324317E+03  0.18800000000E+03 0.  0.
   -5000001    1    1    2    0    0 -0.13078940759E+03  0.83536436080E+02  0.51762314510E+03  0.57215550826E+03  0.18800000000E+03 0.  0.
<mgrwt>
<rscale>  0 0.82463376E+03</rscale>
<asrwt>0</asrwt>
<pdfrwt beam="1">  1        2 0.86179438E-01 0.82463376E+03</pdfrwt>
<pdfrwt beam="2">  1       -2 0.40258955E-01 0.82463376E+03</pdfrwt>
<totfact> 0.31613862E+02</totfact>
</mgrwt>
</event>
<event>
 4    1  0.6024609E-005  0.7085064E+03  0.7818608E-02  0.9702795E-01
         -2   -1    0    0    0  501 -0.00000000000E+00  0.00000000000E+00  0.40071299491E+03  0.40071299491E+03  0.25500000000E-02 0. -1.
          2   -1    0    0  501    0  0.00000000000E+00 -0.00000000000E+00 -0.31318007502E+03  0.31318007503E+03  0.25500000000E-02 0.  1.
    5000001    1    1    2    0    0 -0.87113688588E+02 -0.16816682859E+03 -0.19099084283E+03  0.32816212308E+03  0.18800000000E+03 0.  0.
   -5000001    1    1    2    0    0  0.87113688588E+02  0.16816682859E+03  0.27852376271E+03  0.38573094687E+03  0.18800000000E+03 0.  0.
<mgrwt>
<rscale>  0 0.70850639E+03</rscale>
<asrwt>0</asrwt>
<pdfrwt beam="1">  1        2 0.44740010E-01 0.70850639E+03</pdfrwt>
<pdfrwt beam="2">  1       -2 0.57244714E-01 0.70850639E+03</pdfrwt>
<totfact> 0.32788853E+02</totfact>
</mgrwt>
</event>
<event>
 4    1  0.6024609E-005  0.4672228E+03  0.7818608E-02  0.1022707E+00
         -2   -1    0    0    0  501 -0.00000000000E+00  0.00000000000E+00  0.21914504647E+02  0.21914504795E+02  0.25500000000E-02 0. -1.
          2   -1    0    0  501    0  0.00000000000E+00 -0.00000000000E+00 -0.24903268199E+04  0.24903268199E+04  0.25500000000E-02 0.  1.
    5000001    1    1    2    0    0 -0.17642228865E+01 -0.70262709188E+02 -0.59143215320E+03  0.62456060765E+03  0.18800000000E+03 0.  0.
   -5000001    1    1    2    0    0  0.17642228865E+01  0.70262709188E+02 -0.18769801621E+04  0.18876807171E+04  0.18800000000E+03 0.  0.
<mgrwt>
<rscale>  0 0.46722277E+03</rscale>
<asrwt>0</asrwt>
<pdfrwt beam="1">  1        2 0.35576079E+00 0.46722277E+03</pdfrwt>
<pdfrwt beam="2">  1       -2 0.31306451E-02 0.46722277E+03</pdfrwt>
<totfact> 0.19854593E+03</totfact>
</mgrwt>
</event>
<event>
 4    1  0.6024609E-005  0.7280451E+03  0.7818608E-02  0.9670438E-01
          2   -1    0    0  501    0  0.00000000000E+00  0.00000000000E+00  0.39765250270E+04  0.39765250270E+04  0.25500000000E-02 0.  1.
         -2   -1    0    0    0  501 -0.00000000000E+00 -0.00000000000E+00 -0.33323675899E+02  0.33323675996E+02  0.25500000000E-02 0. -1.
    5000001    1    1    2    0    0 -0.22707232420E+03  0.12304585926E+03  0.10102549713E+04  0.10595570919E+04  0.18800000000E+03 0.  0.
   -5000001    1    1    2    0    0  0.22707232420E+03 -0.12304585926E+03  0.29329463798E+04  0.29502916111E+04  0.18800000000E+03 0.  0.
<mgrwt>
<rscale>  0 0.72804514E+03</rscale>
<asrwt>0</asrwt>
<pdfrwt beam="1">  1        2 0.56807459E+00 0.72804514E+03</pdfrwt>
<pdfrwt beam="2">  1       -2 0.47605286E-02 0.72804514E+03</pdfrwt>
<totfact> 0.14346650E+02</totfact>
</mgrwt>
</event>
<event>
 4    1  0.6024609E-005  0.8457641E+03  0.7818608E-02  0.9496040E-01
         -2   -1    0    0    0  501 -0.00000000000E+00  0.00000000000E+00  0.74473369092E+02  0.74473369135E+02  0.25500000000E-02 0. -1.
          2   -1    0    0  501    0  0.00000000000E+00 -0.00000000000E+00 -0.24012504289E+04  0.24012504289E+04  0.25500000000E-02 0.  1.
    5000001    1    1    2    0    0  0.36494291981E+03  0.13168094823E+02 -0.86879376776E+03  0.96099081387E+03  0.18800000000E+03 0.  0.
   -5000001    1    1    2    0    0 -0.36494291981E+03 -0.13168094823E+02 -0.14579832921E+04  0.15147329842E+04  0.18800000000E+03 0.  0.
<mgrwt>
<rscale>  0 0.84576406E+03</rscale>
<asrwt>0</asrwt>
<pdfrwt beam="1">  1        2 0.34303573E+00 0.84576406E+03</pdfrwt>
<pdfrwt beam="2">  1       -2 0.10639054E-01 0.84576406E+03</pdfrwt>
<totfact> 0.31500211E+02</totfact>
</mgrwt>
</event>
<event>
 4    1  0.6024609E-005  0.5558032E+03  0.7818608E-02  0.1000160E+00
          2   -1    0    0  501    0  0.00000000000E+00  0.00000000000E+00  0.19466757180E+03  0.19466757181E+03  0.25500000000E-02 0.  1.
         -2   -1    0    0    0  501 -0.00000000000E+00 -0.00000000000E+00 -0.39672407074E+03  0.39672407075E+03  0.25500000000E-02 0. -1.
    5000001    1    1    2    0    0  0.38992499664E+02  0.14047332764E+03  0.51807957574E+02  0.24347738144E+03  0.18800000000E+03 0.  0.
   -5000001    1    1    2    0    0 -0.38992499664E+02 -0.14047332764E+03 -0.25386445652E+03  0.34791426112E+03  0.18800000000E+03 0.  0.
<mgrwt>
<rscale>  0 0.55580324E+03</rscale>
<asrwt>0</asrwt>
<pdfrwt beam="1">  1        2 0.27809653E-01 0.55580324E+03</pdfrwt>
<pdfrwt beam="2">  1       -2 0.56674867E-01 0.55580324E+03</pdfrwt>
<totfact> 0.57065951E+02</totfact>
</mgrwt>
</event>
<event>
 4    1  0.6024609E-005  0.5959773E+03  0.7818608E-02  0.9913787E-01
          2   -1    0    0  501    0  0.00000000000E+00  0.00000000000E+00  0.15632623568E+04  0.15632623568E+04  0.25500000000E-02 0.  1.
         -2   -1    0    0    0  501 -0.00000000000E+00 -0.00000000000E+00 -0.56802518271E+02  0.56802518328E+02  0.25500000000E-02 0. -1.
    5000001    1    1    2    0    0 -0.17199478521E+03  0.86004760280E+02  0.40432665886E+03  0.48559558482E+03  0.18800000000E+03 0.  0.
   -5000001    1    1    2    0    0  0.17199478521E+03 -0.86004760280E+02  0.11021331797E+04  0.11344692903E+04  0.18800000000E+03 0.  0.
<mgrwt>
<rscale>  0 0.59597731E+03</rscale>
<asrwt>0</asrwt>
<pdfrwt beam="1">  1        2 0.22332321E+00 0.59597731E+03</pdfrwt>
<pdfrwt beam="2">  1       -2 0.81146450E-02 0.59597731E+03</pdfrwt>
<totfact> 0.13221673E+03</totfact>
</mgrwt>
</event>
<event>
 4    1  0.6024609E-005  0.4801384E+03  0.7818608E-02  0.1019097E+00
         -2   -1    0    0    0  501 -0.00000000000E+00  0.00000000000E+00  0.35653295246E+02  0.35653295337E+02  0.25500000000E-02 0. -1.
          2   -1    0    0  501    0  0.00000000000E+00 -0.00000000000E+00 -0.16164907202E+04  0.16164907202E+04  0.25500000000E-02 0.  1.
    5000001    1    1    2    0    0 -0.44303470173E+02 -0.11261337407E+03 -0.48956158417E+03  0.53819988311E+03  0.18800000000E+03 0.  0.
   -5000001    1    1    2    0    0  0.44303470173E+02  0.11261337407E+03 -0.10912758408E+04  0.11139441325E+04  0.18800000000E+03 0.  0.
<mgrwt>
<rscale>  0 0.48013840E+03</rscale>
<asrwt>0</asrwt>
<pdfrwt beam="1">  1        2 0.23092720E+00 0.48013840E+03</pdfrwt>
<pdfrwt beam="2">  1       -2 0.50933289E-02 0.48013840E+03</pdfrwt>
<totfact> 0.25871965E+03</totfact>
</mgrwt>
</event>
<event>
 4    1  0.6024609E-005  0.8710277E+03  0.7818608E-02  0.9462541E-01
         -2   -1    0    0    0  501 -0.00000000000E+00  0.00000000000E+00  0.21400181804E+03  0.21400181805E+03  0.25500000000E-02 0. -1.
          2   -1    0    0  501    0  0.00000000000E+00 -0.00000000000E+00 -0.88631173233E+03  0.88631173233E+03  0.25500000000E-02 0.  1.
    5000001    1    1    2    0    0  0.89581355897E+02 -0.32079554895E+03 -0.59930165158E+03  0.71094379042E+03  0.18800000000E+03 0.  0.
   -5000001    1    1    2    0    0 -0.89581355897E+02  0.32079554895E+03 -0.73008262711E+02  0.38936975996E+03  0.18800000000E+03 0.  0.
<mgrwt>
<rscale>  0 0.87102772E+03</rscale>
<asrwt>0</asrwt>
<pdfrwt beam="1">  1        2 0.12661596E+00 0.87102772E+03</pdfrwt>
<pdfrwt beam="2">  1       -2 0.30571689E-01 0.87102772E+03</pdfrwt>
<totfact> 0.32883242E+02</totfact>
</mgrwt>
</event>
<event>
 4    1  0.6024609E-005  0.6851424E+03  0.7818608E-02  0.9742983E-01
          2   -1    0    0  501    0  0.00000000000E+00  0.00000000000E+00  0.10787526763E+04  0.10787526763E+04  0.25500000000E-02 0.  1.
         -2   -1    0    0    0  501 -0.00000000000E+00 -0.00000000000E+00 -0.10878770580E+03  0.10878770583E+03  0.25500000000E-02 0. -1.
    5000001    1    1    2    0    0 -0.13466859573E+02  0.16956139442E+03  0.88430821417E+03  0.91993338913E+03  0.18800000000E+03 0.  0.
   -5000001    1    1    2    0    0  0.13466859573E+02 -0.16956139442E+03  0.85656756299E+02  0.26760699297E+03  0.18800000000E+03 0.  0.
<mgrwt>
<rscale>  0 0.68514241E+03</rscale>
<asrwt>0</asrwt>
<pdfrwt beam="1">  1        2 0.15410752E+00 0.68514241E+03</pdfrwt>
<pdfrwt beam="2">  1       -2 0.15541101E-01 0.68514241E+03</pdfrwt>
<totfact> 0.83417890E+02</totfact>
</mgrwt>
</event>
<event>
 4    1  0.6024609E-005  0.8504137E+03  0.7818608E-02  0.9489782E-01
          2   -1    0    0  501    0  0.00000000000E+00  0.00000000000E+00  0.59324256997E+03  0.59324256998E+03  0.25500000000E-02 0.  1.
         -2   -1    0    0    0  501 -0.00000000000E+00 -0.00000000000E+00 -0.30476719301E+03  0.30476719302E+03  0.25500000000E-02 0. -1.
    5000001    1    1    2    0    0  0.31324194693E+03 -0.18832927131E+03  0.29198014987E+02  0.41204970067E+03  0.18800000000E+03 0.  0.
   -5000001    1    1    2    0    0 -0.31324194693E+03  0.18832927131E+03  0.25927736197E+03  0.48596006233E+03  0.18800000000E+03 0.  0.
<mgrwt>
<rscale>  0 0.85041372E+03</rscale>
<asrwt>0</asrwt>
<pdfrwt beam="1">  1        2 0.84748939E-01 0.85041372E+03</pdfrwt>
<pdfrwt beam="2">  1       -2 0.43538170E-01 0.85041372E+03</pdfrwt>
<totfact> 0.27616761E+02</totfact>
</mgrwt>
</event>
<event>
 4    1  0.6024609E-005  0.5461151E+03  0.7818608E-02  0.1002397E+00
         -2   -1    0    0    0  501 -0.00000000000E+00  0.00000000000E+00  0.80186973786E+02  0.80186973827E+02  0.25500000000E-02 0. -1.
          2   -1    0    0  501    0  0.00000000000E+00 -0.00000000000E+00 -0.92983210067E+03  0.92983210068E+03  0.25500000000E-02 0.  1.
    5000001    1    1    2    0    0 -0.17139652566E+03  0.95081282472E+02 -0.47710718379E+03  0.54899224412E+03  0.18800000000E+03 0.  0.
   -5000001    1    1    2    0    0  0.17139652566E+03 -0.95081282472E+02 -0.37253794309E+03  0.46102683038E+03  0.18800000000E+03 0.  0.
<mgrwt>
<rscale>  0 0.54611509E+03</rscale>
<asrwt>0</asrwt>
<pdfrwt beam="1">  1        2 0.13283315E+00 0.54611509E+03</pdfrwt>
<pdfrwt beam="2">  1       -2 0.11455283E-01 0.54611509E+03</pdfrwt>
<totfact> 0.17132720E+03</totfact>
</mgrwt>
</event>
<event>
 4    1  0.6024609E-005  0.4363181E+03  0.7818608E-02  0.1031883E+00
          2   -1    0    0  501    0  0.00000000000E+00  0.00000000000E+00  0.15820941976E+04  0.15820941976E+04  0.25500000000E-02 0.  1.
         -2   -1    0    0    0  501 -0.00000000000E+00 -0.00000000000E+00 -0.30082516933E+02  0.30082517041E+02  0.25500000000E-02 0. -1.
    5000001    1    1    2    0    0 -0.79824387133E+02 -0.57483178800E+02  0.96343622709E+03  0.98652400492E+03  0.18800000000E+03 0.  0.
   -5000001    1    1    2    0    0  0.79824387133E+02  0.57483178800E+02  0.58857545361E+03  0.62565270975E+03  0.18800000000E+03 0.  0.
<mgrwt>
<rscale>  0 0.43631812E+03</rscale>
<asrwt>0</asrwt>
<pdfrwt beam="1">  1        2 0.22601353E+00 0.43631812E+03</pdfrwt>
<pdfrwt beam="2">  1       -2 0.42975011E-02 0.43631812E+03</pdfrwt>
<totfact> 0.34993607E+03</totfact>
</mgrwt>
</event>
<event>
 4    1  0.6024609E-005  0.4712390E+03  0.7818608E-02  0.1021571E+00
          2   -1    0    0  501    0  0.00000000000E+00  0.00000000000E+00  0.28959612218E+04  0.28959612218E+04  0.25500000000E-02 0.  1.
         -2   -1    0    0    0  501 -0.00000000000E+00 -0.00000000000E+00 -0.19170338800E+02  0.19170338969E+02  0.25500000000E-02 0. -1.
    5000001    1    1    2    0    0 -0.80366349699E+02 -0.53378957029E+02  0.79360043456E+03  0.82125130925E+03  0.18800000000E+03 0.  0.
   -5000001    1    1    2    0    0  0.80366349699E+02  0.53378957029E+02  0.20831904484E+04  0.20938802515E+04  0.18800000000E+03 0.  0.
<mgrwt>
<rscale>  0 0.47123904E+03</rscale>
<asrwt>0</asrwt>
<pdfrwt beam="1">  1        2 0.41370908E+00 0.47123904E+03</pdfrwt>
<pdfrwt beam="2">  1       -2 0.27386176E-02 0.47123904E+03</pdfrwt>
<totfact> 0.14957492E+03</totfact>
</mgrwt>
</event>
<event>
 4    1  0.6024609E-005  0.4705248E+03  0.7818608E-02  0.1021772E+00
          2   -1    0    0  501    0  0.00000000000E+00  0.00000000000E+00  0.14861369660E+04  0.14861369660E+04  0.25500000000E-02 0.  1.
         -2   -1    0    0    0  501 -0.00000000000E+00 -0.00000000000E+00 -0.37243140883E+02  0.37243140971E+02  0.25500000000E-02 0. -1.
    5000001    1    1    2    0    0  0.13791163803E+03 -0.30506640640E+02  0.70062599343E+03  0.73903386776E+03  0.18800000000E+03 0.  0.
   -5000001    1    1    2    0    0 -0.13791163803E+03  0.30506640640E+02  0.74826783167E+03  0.78434623919E+03  0.18800000000E+03 0.  0.
<mgrwt>
<rscale>  0 0.47052485E+03</rscale>
<asrwt>0</asrwt>
<pdfrwt beam="1">  1        2 0.21230529E+00 0.47052485E+03</pdfrwt>
<pdfrwt beam="2">  1       -2 0.53204486E-02 0.47052485E+03</pdfrwt>
<totfact> 0.28213938E+03</totfact>
</mgrwt>
</event>
<event>
 4    1  0.6024609E-005  0.7755278E+03  0.7818608E-02  0.9596131E-01
         -2   -1    0    0    0  501 -0.00000000000E+00  0.00000000000E+00  0.23110397276E+03  0.23110397277E+03  0.25500000000E-02 0. -1.
          2   -1    0    0  501    0  0.00000000000E+00 -0.00000000000E+00 -0.65061990059E+03  0.65061990060E+03  0.25500000000E-02 0.  1.
    5000001    1    1    2    0    0 -0.21766964154E+03  0.25701646222E+03 -0.16457561608E+03  0.41936460045E+03  0.18800000000E+03 0.  0.
   -5000001    1    1    2    0    0  0.21766964154E+03 -0.25701646222E+03 -0.25494031175E+03  0.46235927292E+03  0.18800000000E+03 0.  0.
<mgrwt>
<rscale>  0 0.77552780E+03</rscale>
<asrwt>0</asrwt>
<pdfrwt beam="1">  1        2 0.92945699E-01 0.77552780E+03</pdfrwt>
<pdfrwt beam="2">  1       -2 0.33014854E-01 0.77552780E+03</pdfrwt>
<totfact> 0.42317909E+02</totfact>
</mgrwt>
</event>
<event>
 4    1  0.6024609E-005  0.5333423E+03  0.7818608E-02  0.1005425E+00
          2   -1    0    0  501    0  0.00000000000E+00  0.00000000000E+00  0.10375853218E+04  0.10375853218E+04  0.25500000000E-02 0.  1.
         -2   -1    0    0    0  501 -0.00000000000E+00 -0.00000000000E+00 -0.68537501091E+02  0.68537501139E+02  0.25500000000E-02 0. -1.
    5000001    1    1    2    0    0 -0.14259130327E+03 -0.11746360213E+03  0.40054762202E+03  0.47949178836E+03  0.18800000000E+03 0.  0.
   -5000001    1    1    2    0    0  0.14259130327E+03  0.11746360213E+03  0.56850019868E+03  0.62663103458E+03  0.18800000000E+03 0.  0.
<mgrwt>
<rscale>  0 0.53334231E+03</rscale>
<asrwt>0</asrwt>
<pdfrwt beam="1">  1        2 0.14822648E+00 0.53334231E+03</pdfrwt>
<pdfrwt beam="2">  1       -2 0.97910713E-02 0.53334231E+03</pdfrwt>
<totfact> 0.18994729E+03</totfact>
</mgrwt>
</event>
<event>
 4    1  0.6024609E-005  0.8562360E+03  0.7818608E-02  0.9482005E-01
         -2   -1    0    0    0  501 -0.00000000000E+00  0.00000000000E+00  0.91866139599E+02  0.91866139634E+02  0.25500000000E-02 0. -1.
          2   -1    0    0  501    0  0.00000000000E+00 -0.00000000000E+00 -0.19951315646E+04  0.19951315646E+04  0.25500000000E-02 0.  1.
    5000001    1    1    2    0    0 -0.35540761522E+03  0.85165599368E+02 -0.12438503697E+04  0.13099906467E+04  0.18800000000E+03 0.  0.
   -5000001    1    1    2    0    0  0.35540761522E+03 -0.85165599368E+02 -0.65941505528E+03  0.77700705750E+03  0.18800000000E+03 0.  0.
<mgrwt>
<rscale>  0 0.85623603E+03</rscale>
<asrwt>0</asrwt>
<pdfrwt beam="1">  1        2 0.28501877E+00 0.85623603E+03</pdfrwt>
<pdfrwt beam="2">  1       -2 0.13123735E-01 0.85623603E+03</pdfrwt>
<totfact> 0.35833586E+02</totfact>
</mgrwt>
</event>
<event>
 4    1  0.6024609E-005  0.6757975E+03  0.7818608E-02  0.9759541E-01
         -2   -1    0    0    0  501 -0.00000000000E+00  0.00000000000E+00  0.94400944726E+03  0.94400944726E+03  0.25500000000E-02 0. -1.
          2   -1    0    0  501    0  0.00000000000E+00 -0.00000000000E+00 -0.12094749331E+03  0.12094749333E+03  0.25500000000E-02 0.  1.
    5000001    1    1    2    0    0  0.80866672519E+02  0.22477602221E+03  0.17903058594E+03  0.35278836374E+03  0.18800000000E+03 0.  0.
   -5000001    1    1    2    0    0 -0.80866672519E+02 -0.22477602221E+03  0.64403136800E+03  0.71216857685E+03  0.18800000000E+03 0.  0.
<mgrwt>
<rscale>  0 0.67579753E+03</rscale>
<asrwt>0</asrwt>
<pdfrwt beam="1">  1        2 0.17278213E-01 0.67579753E+03</pdfrwt>
<pdfrwt beam="2">  1       -2 0.13485850E+00 0.67579753E+03</pdfrwt>
<totfact> 0.13542594E+02</totfact>
</mgrwt>
</event>
<event>
 4    1  0.6024609E-005  0.5807863E+03  0.7818608E-02  0.9946090E-01
          2   -1    0    0  501    0  0.00000000000E+00  0.00000000000E+00  0.14373251180E+04  0.14373251180E+04  0.25500000000E-02 0.  1.
         -2   -1    0    0    0  501 -0.00000000000E+00 -0.00000000000E+00 -0.58670219058E+02  0.58670219113E+02  0.25500000000E-02 0. -1.
    5000001    1    1    2    0    0 -0.12842896731E+03 -0.17544004978E+03  0.79587290593E+03  0.84618608657E+03  0.18800000000E+03 0.  0.
   -5000001    1    1    2    0    0  0.12842896731E+03  0.17544004978E+03  0.58278199301E+03  0.64980925054E+03  0.18800000000E+03 0.  0.
<mgrwt>
<rscale>  0 0.58078629E+03</rscale>
<asrwt>0</asrwt>
<pdfrwt beam="1">  1        2 0.20533217E+00 0.58078629E+03</pdfrwt>
<pdfrwt beam="2">  1       -2 0.83814596E-02 0.58078629E+03</pdfrwt>
<totfact> 0.14611714E+03</totfact>
</mgrwt>
</event>
<event>
 4    1  0.6024609E-005  0.4587092E+03  0.7818608E-02  0.1025156E+00
          2   -1    0    0  501    0  0.00000000000E+00  0.00000000000E+00  0.15149505292E+04  0.15149505292E+04  0.25500000000E-02 0.  1.
         -2   -1    0    0    0  501 -0.00000000000E+00 -0.00000000000E+00 -0.34722933580E+02  0.34722933674E+02  0.25500000000E-02 0. -1.
    5000001    1    1    2    0    0 -0.12848193185E+03  0.16897743796E+02  0.81307224440E+03  0.84452567467E+03  0.18800000000E+03 0.  0.
   -5000001    1    1    2    0    0  0.12848193185E+03 -0.16897743796E+02  0.66715535126E+03  0.70514778825E+03  0.18800000000E+03 0.  0.
<mgrwt>
<rscale>  0 0.45870917E+03</rscale>
<asrwt>0</asrwt>
<pdfrwt beam="1">  1        2 0.21642142E+00 0.45870917E+03</pdfrwt>
<pdfrwt beam="2">  1       -2 0.49604210E-02 0.45870917E+03</pdfrwt>
<totfact> 0.30383210E+03</totfact>
</mgrwt>
</event>
<event>
 4    1  0.6024609E-005  0.5729800E+03  0.7818608E-02  0.9963106E-01
         -2   -1    0    0    0  501 -0.00000000000E+00  0.00000000000E+00  0.35427911524E+03  0.35427911525E+03  0.25500000000E-02 0. -1.
          2   -1    0    0  501    0  0.00000000000E+00 -0.00000000000E+00 -0.23167190632E+03  0.23167190633E+03  0.25500000000E-02 0.  1.
    5000001    1    1    2    0    0 -0.18902625474E+03 -0.90697074746E+01  0.16816477376E+03  0.31533565563E+03  0.18800000000E+03 0.  0.
   -5000001    1    1    2    0    0  0.18902625474E+03  0.90697074746E+01 -0.45557564835E+02  0.27061536595E+03  0.18800000000E+03 0.  0.
<mgrwt>
<rscale>  0 0.57297999E+03</rscale>
<asrwt>0</asrwt>
<pdfrwt beam="1">  1        2 0.33095987E-01 0.57297999E+03</pdfrwt>
<pdfrwt beam="2">  1       -2 0.50611302E-01 0.57297999E+03</pdfrwt>
<totfact> 0.59210252E+02</totfact>
</mgrwt>
</event>
<event>
 4    1  0.6024609E-005  0.6503024E+03  0.7818608E-02  0.9806212E-01
         -2   -1    0    0    0  501 -0.00000000000E+00  0.00000000000E+00  0.48623825757E+02  0.48623825823E+02  0.25500000000E-02 0. -1.
          2   -1    0    0  501    0  0.00000000000E+00 -0.00000000000E+00 -0.21743106263E+04  0.21743106263E+04  0.25500000000E-02 0.  1.
    5000001    1    1    2    0    0  0.26014818000E+03  0.19298215924E+02 -0.12278384961E+04  0.12692442118E+04  0.18800000000E+03 0.  0.
   -5000001    1    1    2    0    0 -0.26014818000E+03 -0.19298215924E+02 -0.89784830450E+03  0.95369024038E+03  0.18800000000E+03 0.  0.
<mgrwt>
<rscale>  0 0.65030239E+03</rscale>
<asrwt>0</asrwt>
<pdfrwt beam="1">  1        2 0.31061574E+00 0.65030239E+03</pdfrwt>
<pdfrwt beam="2">  1       -2 0.69462622E-02 0.65030239E+03</pdfrwt>
<totfact> 0.82794890E+02</totfact>
</mgrwt>
</event>
<event>
 4    1  0.6024609E-005  0.9759494E+03  0.7818608E-02  0.9335324E-01
          2   -1    0    0  501    0  0.00000000000E+00  0.00000000000E+00  0.23543411678E+04  0.23543411678E+04  0.25500000000E-02 0.  1.
         -2   -1    0    0    0  501 -0.00000000000E+00 -0.00000000000E+00 -0.10114052306E+03  0.10114052310E+03  0.25500000000E-02 0. -1.
    5000001    1    1    2    0    0  0.37474932222E+02 -0.41373507708E+03  0.15637913730E+04  0.16289163707E+04  0.18800000000E+03 0.  0.
   -5000001    1    1    2    0    0 -0.37474932222E+02  0.41373507708E+03  0.68940927174E+03  0.82656532017E+03  0.18800000000E+03 0.  0.
<mgrwt>
<rscale>  0 0.97594938E+03</rscale>
<asrwt>0</asrwt>
<pdfrwt beam="1">  1        2 0.33633442E+00 0.97594938E+03</pdfrwt>
<pdfrwt beam="2">  1       -2 0.14448647E-01 0.97594938E+03</pdfrwt>
<totfact> 0.19813530E+02</totfact>
</mgrwt>
</event>
<event>
 4    1  0.6024609E-005  0.7495801E+03  0.7818608E-02  0.9636009E-01
          2   -1    0    0  501    0  0.00000000000E+00  0.00000000000E+00  0.65318341342E+03  0.65318341343E+03  0.25500000000E-02 0. -1.
         -2   -1    0    0    0  501 -0.00000000000E+00 -0.00000000000E+00 -0.21505072254E+03  0.21505072255E+03  0.25500000000E-02 0.  1.
    5000001    1    1    2    0    0  0.19557887808E+03 -0.17025734248E+03  0.44451722513E+03  0.54788522854E+03  0.18800000000E+03 0.  0.
   -5000001    1    1    2    0    0 -0.19557887808E+03  0.17025734248E+03 -0.63845342479E+01  0.32034890743E+03  0.18800000000E+03 0.  0.
<mgrwt>
<rscale>  0 0.74958006E+03</rscale>
<asrwt>0</asrwt>
<pdfrwt beam="1">  1        2 0.93311919E-01 0.74958006E+03</pdfrwt>
<pdfrwt beam="2">  1       -2 0.30721531E-01 0.74958006E+03</pdfrwt>
<totfact> 0.48237568E+02</totfact>
</mgrwt>
</event>
<event>
 4    1  0.6024609E-005  0.1302969E+04  0.7818608E-02  0.9027214E-01
          2   -1    0    0  501    0  0.00000000000E+00  0.00000000000E+00  0.35972548444E+04  0.35972548444E+04  0.25500000000E-02 0.  1.
         -2   -1    0    0    0  501 -0.00000000000E+00 -0.00000000000E+00 -0.11798784893E+03  0.11798784896E+03  0.25500000000E-02 0. -1.
    5000001    1    1    2    0    0  0.57391237488E+03 -0.10630959475E+02  0.24357402117E+04  0.25095144570E+04  0.18800000000E+03 0.  0.
   -5000001    1    1    2    0    0 -0.57391237488E+03  0.10630959475E+02  0.10435267838E+04  0.12057282363E+04  0.18800000000E+03 0.  0.
<mgrwt>
<rscale>  0 0.13029695E+04</rscale>
<asrwt>0</asrwt>
<pdfrwt beam="1">  1        2 0.51389351E+00 0.13029695E+04</pdfrwt>
<pdfrwt beam="2">  1       -2 0.16855408E-01 0.13029695E+04</pdfrwt>
<totfact> 0.30076196E+01</totfact>
</mgrwt>
</event>
<event>
 4    1  0.6024609E-005  0.4442539E+03  0.7818608E-02  0.1029450E+00
          2   -1    0    0  501    0  0.00000000000E+00  0.00000000000E+00  0.50337177428E+03  0.50337177429E+03  0.25500000000E-02 0.  1.
         -2   -1    0    0    0  501 -0.00000000000E+00 -0.00000000000E+00 -0.98019751823E+02  0.98019751856E+02  0.25500000000E-02 0. -1.
    5000001    1    1    2    0    0  0.26210462158E+02  0.11533626227E+03  0.20624084528E+03  0.30309854500E+03  0.18800000000E+03 0.  0.
   -5000001    1    1    2    0    0 -0.26210462158E+02 -0.11533626227E+03  0.19911117718E+03  0.29829298114E+03  0.18800000000E+03 0.  0.
<mgrwt>
<rscale>  0 0.44425388E+03</rscale>
<asrwt>0</asrwt>
<pdfrwt beam="1">  1        2 0.71910255E-01 0.44425388E+03</pdfrwt>
<pdfrwt beam="2">  1       -2 0.14002821E-01 0.44425388E+03</pdfrwt>
<totfact> 0.25968420E+03</totfact>
</mgrwt>
</event>
<event>
 4    1  0.6024609E-005  0.7746950E+03  0.7818608E-02  0.9597385E-01
          2   -1    0    0  501    0  0.00000000000E+00  0.00000000000E+00  0.43041599282E+03  0.43041599283E+03  0.25500000000E-02 0.  1.
         -2   -1    0    0    0  501 -0.00000000000E+00 -0.00000000000E+00 -0.34858852894E+03  0.34858852895E+03  0.25500000000E-02 0. -1.
    5000001    1    1    2    0    0 -0.29702769891E+03  0.12873821938E+03 -0.59113722127E+02  0.37899527068E+03  0.18800000000E+03 0.  0.
   -5000001    1    1    2    0    0  0.29702769891E+03 -0.12873821938E+03  0.14094118601E+03  0.40000925110E+03  0.18800000000E+03 0.  0.
<mgrwt>
<rscale>  0 0.77469498E+03</rscale>
<asrwt>0</asrwt>
<pdfrwt beam="1">  1        2 0.61487999E-01 0.77469498E+03</pdfrwt>
<pdfrwt beam="2">  1       -2 0.49798361E-01 0.77469498E+03</pdfrwt>
<totfact> 0.30594327E+02</totfact>
</mgrwt>
</event>
<event>
 4    1  0.6024609E-005  0.1131328E+04  0.7818608E-02  0.9175184E-01
         -2   -1    0    0    0  501 -0.00000000000E+00  0.00000000000E+00  0.12242502906E+03  0.12242502909E+03  0.25500000000E-02 0. -1.
          2   -1    0    0  501    0  0.00000000000E+00 -0.00000000000E+00 -0.26136487391E+04  0.26136487391E+04  0.25500000000E-02 0.  1.
    5000001    1    1    2    0    0  0.19259358515E+03 -0.48430698601E+03 -0.15212153789E+04  0.16189767678E+04  0.18800000000E+03 0.  0.
   -5000001    1    1    2    0    0 -0.19259358515E+03  0.48430698601E+03 -0.97000833110E+03  0.11170970003E+04  0.18800000000E+03 0.  0.
<mgrwt>
<rscale>  0 0.11313285E+04</rscale>
<asrwt>0</asrwt>
<pdfrwt beam="1">  1        2 0.37337836E+00 0.11313285E+04</pdfrwt>
<pdfrwt beam="2">  1       -2 0.17489291E-01 0.11313285E+04</pdfrwt>
<totfact> 0.10343632E+02</totfact>
</mgrwt>
</event>
<event>
 4    1  0.6024609E-005  0.8115595E+03  0.7818608E-02  0.9543434E-01
          2   -1    0    0  501    0  0.00000000000E+00  0.00000000000E+00  0.23835398934E+04  0.23835398934E+04  0.25500000000E-02 0.  1.
         -2   -1    0    0    0  501 -0.00000000000E+00 -0.00000000000E+00 -0.69080947266E+02  0.69080947313E+02  0.25500000000E-02 0. -1.
    5000001    1    1    2    0    0 -0.79470134450E+02  0.26522893136E+03  0.46378029825E+03  0.57192486687E+03  0.18800000000E+03 0.  0.
   -5000001    1    1    2    0    0  0.79470134450E+02 -0.26522893136E+03  0.18506786479E+04  0.18806959738E+04  0.18800000000E+03 0.  0.
<mgrwt>
<rscale>  0 0.81155947E+03</rscale>
<asrwt>0</asrwt>
<pdfrwt beam="1">  1        2 0.34050571E+00 0.81155947E+03</pdfrwt>
<pdfrwt beam="2">  1       -2 0.98687063E-02 0.81155947E+03</pdfrwt>
<totfact> 0.36466692E+02</totfact>
</mgrwt>
</event>
<event>
 4    1  0.6024609E-005  0.4053847E+03  0.7818608E-02  0.1041931E+00
          2   -1    0    0  501    0  0.00000000000E+00  0.00000000000E+00  0.53782999757E+03  0.53782999758E+03  0.25500000000E-02 0.  1.
         -2   -1    0    0    0  501 -0.00000000000E+00 -0.00000000000E+00 -0.76388817742E+02  0.76388817784E+02  0.25500000000E-02 0. -1.
    5000001    1    1    2    0    0 -0.61603071751E+02  0.43052514817E+02  0.24523286638E+03  0.31801197498E+03  0.18800000000E+03 0.  0.
   -5000001    1    1    2    0    0  0.61603071751E+02 -0.43052514817E+02  0.21620831345E+03  0.29620684038E+03  0.18800000000E+03 0.  0.
<mgrwt>
<rscale>  0 0.40538474E+03</rscale>
<asrwt>0</asrwt>
<pdfrwt beam="1">  1        2 0.76832857E-01 0.40538474E+03</pdfrwt>
<pdfrwt beam="2">  1       -2 0.10912688E-01 0.40538474E+03</pdfrwt>
<totfact> 0.36200845E+03</totfact>
</mgrwt>
</event>
<event>
 4    1  0.6024609E-005  0.4715447E+03  0.7818608E-02  0.1021485E+00
          2   -1    0    0  501    0  0.00000000000E+00  0.00000000000E+00  0.74585314124E+03  0.74585314125E+03  0.25500000000E-02 0.  1.
         -2   -1    0    0    0  501 -0.00000000000E+00 -0.00000000000E+00 -0.74530209697E+02  0.74530209741E+02  0.25500000000E-02 0. -1.
    5000001    1    1    2    0    0  0.10728678851E+03  0.61853496572E+02  0.45754883932E+03  0.50993259397E+03  0.18800000000E+03 0.  0.
   -5000001    1    1    2    0    0 -0.10728678851E+03 -0.61853496572E+02  0.21377409222E+03  0.31045075701E+03  0.18800000000E+03 0.  0.
<mgrwt>
<rscale>  0 0.47154466E+03</rscale>
<asrwt>0</asrwt>
<pdfrwt beam="1">  1        2 0.10655046E+00 0.47154466E+03</pdfrwt>
<pdfrwt beam="2">  1       -2 0.10647172E-01 0.47154466E+03</pdfrwt>
<totfact> 0.25651425E+03</totfact>
</mgrwt>
</event>
<event>
 4    1  0.6024609E-005  0.6583057E+03  0.7818608E-02  0.9791318E-01
          2   -1    0    0  501    0  0.00000000000E+00  0.00000000000E+00  0.70460241340E+03  0.70460241341E+03  0.25500000000E-02 0.  1.
         -2   -1    0    0    0  501 -0.00000000000E+00 -0.00000000000E+00 -0.15376274237E+03  0.15376274240E+03  0.25500000000E-02 0. -1.
    5000001    1    1    2    0    0  0.73099332941E+02 -0.22181173203E+03  0.98292531093E+02  0.31551446656E+03  0.18800000000E+03 0.  0.
   -5000001    1    1    2    0    0 -0.73099332941E+02  0.22181173203E+03  0.45254713993E+03  0.54285068924E+03  0.18800000000E+03 0.  0.
<mgrwt>
<rscale>  0 0.65830570E+03</rscale>
<asrwt>0</asrwt>
<pdfrwt beam="1">  1        2 0.10065749E+00 0.65830570E+03</pdfrwt>
<pdfrwt beam="2">  1       -2 0.21966106E-01 0.65830570E+03</pdfrwt>
<totfact> 0.80969761E+02</totfact>
</mgrwt>
</event>
<event>
 4    1  0.6024609E-005  0.9634324E+03  0.7818608E-02  0.9349587E-01
          2   -1    0    0  501    0  0.00000000000E+00  0.00000000000E+00  0.71913846845E+03  0.71913846845E+03  0.25500000000E-02 0.  1.
         -2   -1    0    0    0  501 -0.00000000000E+00 -0.00000000000E+00 -0.32267846090E+03  0.32267846091E+03  0.25500000000E-02 0. -1.
    5000001    1    1    2    0    0  0.44038983931E+03  0.38593972568E+02  0.23682392402E+03  0.53559525416E+03  0.18800000000E+03 0.  0.
   -5000001    1    1    2    0    0 -0.44038983931E+03 -0.38593972568E+02  0.15963608353E+03  0.50622167521E+03  0.18800000000E+03 0.  0.
<mgrwt>
<rscale>  0 0.96343239E+03</rscale>
<asrwt>0</asrwt>
<pdfrwt beam="1">  1        2 0.10273407E+00 0.96343239E+03</pdfrwt>
<pdfrwt beam="2">  1       -2 0.46096923E-01 0.96343239E+03</pdfrwt>
<totfact> 0.19410606E+02</totfact>
</mgrwt>
</event>
<event>
 4    1  0.6024609E-005  0.6611633E+03  0.7818608E-02  0.9786055E-01
         -2   -1    0    0    0  501 -0.00000000000E+00  0.00000000000E+00  0.14190588589E+03  0.14190588591E+03  0.25500000000E-02 0. -1.
          2   -1    0    0  501    0  0.00000000000E+00 -0.00000000000E+00 -0.77011772186E+03  0.77011772186E+03  0.25500000000E-02 0.  1.
    5000001    1    1    2    0    0  0.94130684300E+02 -0.23543223859E+03 -0.44962190063E+03  0.54935669489E+03  0.18800000000E+03 0.  0.
   -5000001    1    1    2    0    0 -0.94130684300E+02  0.23543223859E+03 -0.17858993533E+03  0.36266691288E+03  0.18800000000E+03 0.  0.
<mgrwt>
<rscale>  0 0.66116333E+03</rscale>
<asrwt>0</asrwt>
<pdfrwt beam="1">  1        2 0.11001681E+00 0.66116333E+03</pdfrwt>
<pdfrwt beam="2">  1       -2 0.20272270E-01 0.66116333E+03</pdfrwt>
<totfact> 0.83441445E+02</totfact>
</mgrwt>
</event>
<event>
 4    1  0.6024609E-005  0.5012798E+03  0.7818608E-02  0.1013445E+00
          2   -1    0    0  501    0  0.00000000000E+00  0.00000000000E+00  0.73459463900E+02  0.73459463945E+02  0.25500000000E-02 0.  1.
         -2   -1    0    0    0  501 -0.00000000000E+00 -0.00000000000E+00 -0.85517051468E+03  0.85517051468E+03  0.25500000000E-02 0. -1.
    5000001    1    1    2    0    0  0.13844494746E+03  0.89807498535E+02 -0.41979143787E+03  0.48867293927E+03  0.18800000000E+03 0.  0.
   -5000001    1    1    2    0    0 -0.13844494746E+03 -0.89807498535E+02 -0.36191961291E+03  0.43995703935E+03  0.18800000000E+03 0.  0.
<mgrwt>
<rscale>  0 0.50127983E+03</rscale>
<asrwt>0</asrwt>
<pdfrwt beam="1">  1        2 0.10494210E-01 0.50127983E+03</pdfrwt>
<pdfrwt beam="2">  1       -2 0.12216721E+00 0.50127983E+03</pdfrwt>
<totfact> 0.32152975E+02</totfact>
</mgrwt>
</event>
<event>
 4    1  0.6024609E-005  0.8052738E+03  0.7818608E-02  0.9552415E-01
         -2   -1    0    0    0  501 -0.00000000000E+00  0.00000000000E+00  0.76505303181E+03  0.76505303182E+03  0.25500000000E-02 0. -1.
          2   -1    0    0  501    0  0.00000000000E+00 -0.00000000000E+00 -0.21190228510E+03  0.21190228512E+03  0.25500000000E-02 0.  1.
    5000001    1    1    2    0    0  0.12777864728E+03 -0.29560951756E+03  0.92344733863E+02  0.38416652567E+03  0.18800000000E+03 0.  0.
   -5000001    1    1    2    0    0 -0.12777864728E+03  0.29560951756E+03  0.46080601284E+03  0.59278879126E+03  0.18800000000E+03 0.  0.
<mgrwt>
<rscale>  0 0.80527383E+03</rscale>
<asrwt>0</asrwt>
<pdfrwt beam="1">  1        2 0.30271755E-01 0.80527383E+03</pdfrwt>
<pdfrwt beam="2">  1       -2 0.10929329E+00 0.80527383E+03</pdfrwt>
<totfact> 0.11839676E+02</totfact>
</mgrwt>
</event>
<event>
 4    1  0.6024609E-005  0.8878140E+03  0.7818608E-02  0.9440944E-01
         -2   -1    0    0    0  501 -0.00000000000E+00  0.00000000000E+00  0.11359894568E+03  0.11359894571E+03  0.25500000000E-02 0. -1.
          2   -1    0    0  501    0  0.00000000000E+00 -0.00000000000E+00 -0.17346413176E+04  0.17346413176E+04  0.25500000000E-02 0.  1.
    5000001    1    1    2    0    0 -0.37753679485E+03  0.94312924182E+02 -0.10215991185E+04  0.11092509717E+04  0.18800000000E+03 0.  0.
   -5000001    1    1    2    0    0  0.37753679485E+03 -0.94312924182E+02 -0.59944325336E+03  0.73898929163E+03  0.18800000000E+03 0.  0.
<mgrwt>
<rscale>  0 0.88781400E+03</rscale>
<asrwt>0</asrwt>
<pdfrwt beam="1">  1        2 0.24780589E+00 0.88781400E+03</pdfrwt>
<pdfrwt beam="2">  1       -2 0.16228422E-01 0.88781400E+03</pdfrwt>
<totfact> 0.33919712E+02</totfact>
</mgrwt>
</event>
<event>
 4    1  0.6024609E-005  0.9682115E+03  0.7818608E-02  0.9344114E-01
         -2   -1    0    0    0  501 -0.00000000000E+00  0.00000000000E+00  0.16212986816E+03  0.16212986818E+03  0.25500000000E-02 0. -1.
          2   -1    0    0  501    0  0.00000000000E+00 -0.00000000000E+00 -0.14454978080E+04  0.14454978080E+04  0.25500000000E-02 0.  1.
    5000001    1    1    2    0    0 -0.24012207985E+03 -0.13815539340E+03 -0.61089163668E+02  0.34032544993E+03  0.18800000000E+03 0.  0.
   -5000001    1    1    2    0    0  0.24012207985E+03  0.13815539340E+03 -0.12222787762E+04  0.12673022263E+04  0.18800000000E+03 0.  0.
<mgrwt>
<rscale>  0 0.96821148E+03</rscale>
<asrwt>0</asrwt>
<pdfrwt beam="1">  1        2 0.20649968E+00 0.96821148E+03</pdfrwt>
<pdfrwt beam="2">  1       -2 0.23161411E-01 0.96821148E+03</pdfrwt>
<totfact> 0.25674455E+02</totfact>
</mgrwt>
</event>
<event>
 4    1  0.6024609E-005  0.6000519E+03  0.7818608E-02  0.9905298E-01
          2   -1    0    0  501    0  0.00000000000E+00  0.00000000000E+00  0.13598352785E+03  0.13598352788E+03  0.25500000000E-02 0.  1.
         -2   -1    0    0    0  501 -0.00000000000E+00 -0.00000000000E+00 -0.66195942439E+03  0.66195942440E+03  0.25500000000E-02 0. -1.
    5000001    1    1    2    0    0  0.11968814756E+03 -0.19296891164E+03 -0.33713877917E+03  0.44784909282E+03  0.18800000000E+03 0.  0.
   -5000001    1    1    2    0    0 -0.11968814756E+03  0.19296891164E+03 -0.18883711737E+03  0.35009385945E+03  0.18800000000E+03 0.  0.
<mgrwt>
<rscale>  0 0.60005192E+03</rscale>
<asrwt>0</asrwt>
<pdfrwt beam="1">  1        2 0.19426219E-01 0.60005192E+03</pdfrwt>
<pdfrwt beam="2">  1       -2 0.94565630E-01 0.60005192E+03</pdfrwt>
<totfact> 0.28014465E+02</totfact>
</mgrwt>
</event>
<event>
 4    1  0.6024609E-005  0.5908396E+03  0.7818608E-02  0.9924595E-01
         -2   -1    0    0    0  501 -0.00000000000E+00  0.00000000000E+00  0.70143974579E+02  0.70143974626E+02  0.25500000000E-02 0.  1.
          2   -1    0    0  501    0  0.00000000000E+00 -0.00000000000E+00 -0.12441960083E+04  0.12441960083E+04  0.25500000000E-02 0. -1.
    5000001    1    1    2    0    0 -0.70182196500E+02  0.14474384156E+03 -0.94608278099E+03  0.97790232071E+03  0.18800000000E+03 0.  0.
   -5000001    1    1    2    0    0  0.70182196500E+02 -0.14474384156E+03 -0.22796925278E+03  0.33643766226E+03  0.18800000000E+03 0.  0.
<mgrwt>
<rscale>  0 0.59083958E+03</rscale>
<asrwt>0</asrwt>
<pdfrwt beam="1">  1        2 0.17774227E+00 0.59083958E+03</pdfrwt>
<pdfrwt beam="2">  1       -2 0.10020569E-01 0.59083958E+03</pdfrwt>
<totfact> 0.13922553E+03</totfact>
</mgrwt>
</event>
<event>
 4    1  0.6024609E-005  0.6690144E+03  0.7818608E-02  0.9771740E-01
         -2   -1    0    0    0  501 -0.00000000000E+00  0.00000000000E+00  0.50190771381E+02  0.50190771445E+02  0.25500000000E-02 0. -1.
          2   -1    0    0  501    0  0.00000000000E+00 -0.00000000000E+00 -0.22293955629E+04  0.22293955629E+04  0.25500000000E-02 0.  1.
    5000001    1    1    2    0    0  0.18883193125E+03  0.12089434721E+03 -0.16419568648E+04  0.16678247172E+04  0.18800000000E+03 0.  0.
   -5000001    1    1    2    0    0 -0.18883193125E+03 -0.12089434721E+03 -0.53724792673E+03  0.61176161716E+03  0.18800000000E+03 0.  0.
<mgrwt>
<rscale>  0 0.66901445E+03</rscale>
<asrwt>0</asrwt>
<pdfrwt beam="1">  1        2 0.31848502E+00 0.66901445E+03</pdfrwt>
<pdfrwt beam="2">  1       -2 0.71701116E-02 0.66901445E+03</pdfrwt>
<totfact> 0.73757238E+02</totfact>
</mgrwt>
</event>
<event>
 4    1  0.6024609E-005  0.5318169E+03  0.7818608E-02  0.1005792E+00
          2   -1    0    0  501    0  0.00000000000E+00  0.00000000000E+00  0.14358095210E+04  0.14358095210E+04  0.25500000000E-02 0.  1.
         -2   -1    0    0    0  501 -0.00000000000E+00 -0.00000000000E+00 -0.49245606700E+02  0.49245606766E+02  0.25500000000E-02 0. -1.
    5000001    1    1    2    0    0 -0.33586231944E+02 -0.17852399686E+03  0.82906523080E+03  0.86930547528E+03  0.18800000000E+03 0.  0.
   -5000001    1    1    2    0    0  0.33586231944E+02  0.17852399686E+03  0.55749868346E+03  0.61574965245E+03  0.18800000000E+03 0.  0.
<mgrwt>
<rscale>  0 0.53181693E+03</rscale>
<asrwt>0</asrwt>
<pdfrwt beam="1">  1        2 0.20511562E+00 0.53181693E+03</pdfrwt>
<pdfrwt beam="2">  1       -2 0.70350875E-02 0.53181693E+03</pdfrwt>
<totfact> 0.19354260E+03</totfact>
</mgrwt>
</event>
<event>
 4    1  0.6024609E-005  0.4356978E+03  0.7818608E-02  0.1032075E+00
         -2   -1    0    0    0  501 -0.00000000000E+00  0.00000000000E+00  0.56621536269E+02  0.56621536326E+02  0.25500000000E-02 0. -1.
          2   -1    0    0  501    0  0.00000000000E+00 -0.00000000000E+00 -0.83816409426E+03  0.83816409427E+03  0.25500000000E-02 0.  1.
    5000001    1    1    2    0    0  0.29180359953E+02 -0.10084163243E+03 -0.45868616579E+03  0.50671246968E+03  0.18800000000E+03 0.  0.
   -5000001    1    1    2    0    0 -0.29180359953E+02  0.10084163243E+03 -0.32285639220E+03  0.38807316092E+03  0.18800000000E+03 0.  0.
<mgrwt>
<rscale>  0 0.43569778E+03</rscale>
<asrwt>0</asrwt>
<pdfrwt beam="1">  1        2 0.11973772E+00 0.43569778E+03</pdfrwt>
<pdfrwt beam="2">  1       -2 0.80887914E-02 0.43569778E+03</pdfrwt>
<totfact> 0.34362688E+03</totfact>
</mgrwt>
</event>
<event>
 4    1  0.6024609E-005  0.4594288E+03  0.7818608E-02  0.1024947E+00
          2   -1    0    0  501    0  0.00000000000E+00  0.00000000000E+00  0.38788693470E+03  0.38788693471E+03  0.25500000000E-02 0.  1.
         -2   -1    0    0    0  501 -0.00000000000E+00 -0.00000000000E+00 -0.13604145133E+03  0.13604145135E+03  0.25500000000E-02 0. -1.
    5000001    1    1    2    0    0 -0.12756901766E+03  0.33726232957E+02  0.12175001721E+03  0.25995841927E+03  0.18800000000E+03 0.  0.
   -5000001    1    1    2    0    0  0.12756901766E+03 -0.33726232957E+02  0.13009546616E+03  0.26396996680E+03  0.18800000000E+03 0.  0.
<mgrwt>
<rscale>  0 0.45942878E+03</rscale>
<asrwt>0</asrwt>
<pdfrwt beam="1">  1        2 0.55412418E-01 0.45942878E+03</pdfrwt>
<pdfrwt beam="2">  1       -2 0.19434493E-01 0.45942878E+03</pdfrwt>
<totfact> 0.19937541E+03</totfact>
</mgrwt>
</event>
<event>
 4    1  0.6024609E-005  0.6931621E+03  0.7818608E-02  0.9728998E-01
         -2   -1    0    0    0  501 -0.00000000000E+00  0.00000000000E+00  0.12780290861E+03  0.12780290864E+03  0.25500000000E-02 0. -1.
          2   -1    0    0  501    0  0.00000000000E+00 -0.00000000000E+00 -0.93987244347E+03  0.93987244347E+03  0.25500000000E-02 0.  1.
    5000001    1    1    2    0    0  0.67499301400E+02 -0.24441326819E+03 -0.62646640975E+03  0.70149708759E+03  0.18800000000E+03 0.  0.
   -5000001    1    1    2    0    0 -0.67499301400E+02  0.24441326819E+03 -0.18560312511E+03  0.36617826452E+03  0.18800000000E+03 0.  0.
<mgrwt>
<rscale>  0 0.69316212E+03</rscale>
<asrwt>0</asrwt>
<pdfrwt beam="1">  1        2 0.13426749E+00 0.69316212E+03</pdfrwt>
<pdfrwt beam="2">  1       -2 0.18257559E-01 0.69316212E+03</pdfrwt>
<totfact> 0.76960132E+02</totfact>
</mgrwt>
</event>
<event>
 4    1  0.6024609E-005  0.7942271E+03  0.7818608E-02  0.9568411E-01
         -2   -1    0    0    0  501 -0.00000000000E+00  0.00000000000E+00  0.75620585751E+02  0.75620585794E+02  0.25500000000E-02 0. -1.
          2   -1    0    0  501    0  0.00000000000E+00 -0.00000000000E+00 -0.20853998143E+04  0.20853998143E+04  0.25500000000E-02 0.  1.
    5000001    1    1    2    0    0  0.17556104619E+03 -0.30063794752E+03 -0.10971721623E+04  0.11663342618E+04  0.18800000000E+03 0.  0.
   -5000001    1    1    2    0    0 -0.17556104619E+03  0.30063794752E+03 -0.91260706617E+03  0.99468613826E+03  0.18800000000E+03 0.  0.
<mgrwt>
<rscale>  0 0.79422706E+03</rscale>
<asrwt>0</asrwt>
<pdfrwt beam="1">  1        2 0.29791422E+00 0.79422706E+03</pdfrwt>
<pdfrwt beam="2">  1       -2 0.10802942E-01 0.79422706E+03</pdfrwt>
<totfact> 0.44684613E+02</totfact>
</mgrwt>
</event>
<event>
 4    1  0.6024609E-005  0.4770029E+03  0.7818608E-02  0.1019962E+00
         -2   -1    0    0    0  501 -0.00000000000E+00  0.00000000000E+00  0.94990666958E+02  0.94990666992E+02  0.25500000000E-02 0. -1.
          2   -1    0    0  501    0  0.00000000000E+00 -0.00000000000E+00 -0.59882659864E+03  0.59882659864E+03  0.25500000000E-02 0.  1.
    5000001    1    1    2    0    0 -0.97904711929E+02  0.10848189923E+03 -0.23211903200E+03  0.33253105132E+03  0.18800000000E+03 0.  0.
   -5000001    1    1    2    0    0  0.97904711929E+02 -0.10848189923E+03 -0.27171689969E+03  0.36128621431E+03  0.18800000000E+03 0.  0.
<mgrwt>
<rscale>  0 0.47700288E+03</rscale>
<asrwt>0</asrwt>
<pdfrwt beam="1">  1        2 0.85546655E-01 0.47700288E+03</pdfrwt>
<pdfrwt beam="2">  1       -2 0.13570096E-01 0.47700288E+03</pdfrwt>
<totfact> 0.22434795E+03</totfact>
</mgrwt>
</event>
<event>
 4    1  0.6024609E-005  0.6665020E+03  0.7818608E-02  0.9776298E-01
          2   -1    0    0  501    0  0.00000000000E+00  0.00000000000E+00  0.40883006766E+04  0.40883006766E+04  0.25500000000E-02 0.  1.
         -2   -1    0    0    0  501 -0.00000000000E+00 -0.00000000000E+00 -0.27164400423E+02  0.27164400543E+02  0.25500000000E-02 0. -1.
    5000001    1    1    2    0    0  0.14039522620E+03 -0.21785663639E+03  0.14599521640E+04  0.14946493417E+04  0.18800000000E+03 0.  0.
   -5000001    1    1    2    0    0 -0.14039522620E+03  0.21785663639E+03  0.26011841122E+04  0.26208157354E+04  0.18800000000E+03 0.  0.
<mgrwt>
<rscale>  0 0.66650202E+03</rscale>
<asrwt>0</asrwt>
<pdfrwt beam="1">  1        2 0.58404322E+00 0.66650202E+03</pdfrwt>
<pdfrwt beam="2">  1       -2 0.38806268E-02 0.66650202E+03</pdfrwt>
<totfact> 0.16680505E+02</totfact>
</mgrwt>
</event>
<event>
 4    1  0.6024609E-005  0.8179929E+03  0.7818608E-02  0.9534332E-01
         -2   -1    0    0    0  501 -0.00000000000E+00  0.00000000000E+00  0.16882792569E+03  0.16882792571E+03  0.25500000000E-02 0. -1.
          2   -1    0    0  501    0  0.00000000000E+00 -0.00000000000E+00 -0.99082014234E+03  0.99082014234E+03  0.25500000000E-02 0.  1.
    5000001    1    1    2    0    0  0.18717256373E+03  0.30234833527E+03 -0.51600003634E+03  0.65425386659E+03  0.18800000000E+03 0.  0.
   -5000001    1    1    2    0    0 -0.18717256373E+03 -0.30234833527E+03 -0.30599218031E+03  0.50539420145E+03  0.18800000000E+03 0.  0.
<mgrwt>
<rscale>  0 0.81799293E+03</rscale>
<asrwt>0</asrwt>
<pdfrwt beam="1">  1        2 0.14154573E+00 0.81799293E+03</pdfrwt>
<pdfrwt beam="2">  1       -2 0.24118276E-01 0.81799293E+03</pdfrwt>
<totfact> 0.43612227E+02</totfact>
</mgrwt>
</event>
<event>
 4    1  0.6024609E-005  0.4325288E+03  0.7818608E-02  0.1033064E+00
         -2   -1    0    0    0  501 -0.00000000000E+00  0.00000000000E+00  0.67234340077E+02  0.67234340125E+02  0.25500000000E-02 0. -1.
          2   -1    0    0  501    0  0.00000000000E+00 -0.00000000000E+00 -0.69563092936E+03  0.69563092937E+03  0.25500000000E-02 0.  1.
    5000001    1    1    2    0    0 -0.58199216717E+01  0.10666851141E+03 -0.30754182590E+03  0.37594948795E+03  0.18800000000E+03 0.  0.
   -5000001    1    1    2    0    0  0.58199216717E+01 -0.10666851141E+03 -0.32085476339E+03  0.38691578154E+03  0.18800000000E+03 0.  0.
<mgrwt>
<rscale>  0 0.43252878E+03</rscale>
<asrwt>0</asrwt>
<pdfrwt beam="1">  1        2 0.99375843E-01 0.43252878E+03</pdfrwt>
<pdfrwt beam="2">  1       -2 0.96049061E-02 0.43252878E+03</pdfrwt>
<totfact> 0.32950593E+03</totfact>
</mgrwt>
</event>
<event>
 4    1  0.6024609E-005  0.4694897E+03  0.7818608E-02  0.1022064E+00
          2   -1    0    0  501    0  0.00000000000E+00  0.00000000000E+00  0.21525634446E+04  0.21525634446E+04  0.25500000000E-02 0.  1.
         -2   -1    0    0    0  501 -0.00000000000E+00 -0.00000000000E+00 -0.25599776868E+02  0.25599776995E+02  0.25500000000E-02 0. -1.
    5000001    1    1    2    0    0 -0.11591286084E+02  0.13218442713E+03  0.12788064033E+04  0.12993447955E+04  0.18800000000E+03 0.  0.
   -5000001    1    1    2    0    0  0.11591286084E+02 -0.13218442713E+03  0.84815726446E+03  0.87881842603E+03  0.18800000000E+03 0.  0.
<mgrwt>
<rscale>  0 0.46948970E+03</rscale>
<asrwt>0</asrwt>
<pdfrwt beam="1">  1        2 0.30750909E+00 0.46948970E+03</pdfrwt>
<pdfrwt beam="2">  1       -2 0.36571107E-02 0.46948970E+03</pdfrwt>
<totfact> 0.23183805E+03</totfact>
</mgrwt>
</event>
<event>
 4    1  0.6024609E-005  0.6899586E+03  0.7818608E-02  0.9734560E-01
          2   -1    0    0  501    0  0.00000000000E+00  0.00000000000E+00  0.90911516653E+02  0.90911516689E+02  0.25500000000E-02 0.  1.
         -2   -1    0    0    0  501 -0.00000000000E+00 -0.00000000000E+00 -0.13090829295E+04  0.13090829295E+04  0.25500000000E-02 0. -1.
    5000001    1    1    2    0    0  0.16595624669E+03  0.23191863079E+03 -0.51095221923E+03  0.61460873526E+03  0.18800000000E+03 0.  0.
   -5000001    1    1    2    0    0 -0.16595624669E+03 -0.23191863079E+03 -0.70721919365E+03  0.78538571097E+03  0.18800000000E+03 0.  0.
<mgrwt>
<rscale>  0 0.68995859E+03</rscale>
<asrwt>0</asrwt>
<pdfrwt beam="1">  1        2 0.12987360E-01 0.68995859E+03</pdfrwt>
<pdfrwt beam="2">  1       -2 0.18701184E+00 0.68995859E+03</pdfrwt>
<totfact> 0.79163821E+01</totfact>
</mgrwt>
</event>
<event>
 4    1  0.6024609E-005  0.7015655E+03  0.7818608E-02  0.9714559E-01
         -2   -1    0    0    0  501 -0.00000000000E+00  0.00000000000E+00  0.20910646968E+03  0.20910646969E+03  0.25500000000E-02 0. -1.
          2   -1    0    0  501    0  0.00000000000E+00 -0.00000000000E+00 -0.58844926971E+03  0.58844926971E+03  0.25500000000E-02 0.  1.
    5000001    1    1    2    0    0 -0.24636742322E+03 -0.80869415682E+02 -0.35231170033E+03  0.47613475383E+03  0.18800000000E+03 0.  0.
   -5000001    1    1    2    0    0  0.24636742322E+03  0.80869415682E+02 -0.27031099703E+02  0.32142098558E+03  0.18800000000E+03 0.  0.
<mgrwt>
<rscale>  0 0.70156553E+03</rscale>
<asrwt>0</asrwt>
<pdfrwt beam="1">  1        2 0.84064181E-01 0.70156553E+03</pdfrwt>
<pdfrwt beam="2">  1       -2 0.29872353E-01 0.70156553E+03</pdfrwt>
<totfact> 0.57628320E+02</totfact>
</mgrwt>
</event>
<event>
 4    1  0.6024609E-005  0.9190742E+03  0.7818608E-02  0.9402047E-01
         -2   -1    0    0    0  501 -0.00000000000E+00  0.00000000000E+00  0.10785688597E+04  0.10785688597E+04  0.25500000000E-02 0. -1.
          2   -1    0    0  501    0  0.00000000000E+00 -0.00000000000E+00 -0.19579126224E+03  0.19579126226E+03  0.25500000000E-02 0.  1.
    5000001    1    1    2    0    0 -0.40275920354E+03  0.79847107347E+02  0.55936802028E+03  0.71890689154E+03  0.18800000000E+03 0.  0.
   -5000001    1    1    2    0    0  0.40275920354E+03 -0.79847107347E+02  0.32340957722E+03  0.55545323046E+03  0.18800000000E+03 0.  0.
<mgrwt>
<rscale>  0 0.91907423E+03</rscale>
<asrwt>0</asrwt>
<pdfrwt beam="1">  1        2 0.27970180E-01 0.91907423E+03</pdfrwt>
<pdfrwt beam="2">  1       -2 0.15408127E+00 0.91907423E+03</pdfrwt>
<totfact> 0.53907248E+01</totfact>
</mgrwt>
</event>
<event>
 4    1  0.6024609E-005  0.4831096E+03  0.7818608E-02  0.1018284E+00
         -2   -1    0    0    0  501 -0.00000000000E+00  0.00000000000E+00  0.26315090122E+02  0.26315090246E+02  0.25500000000E-02 0. -1.
          2   -1    0    0  501    0  0.00000000000E+00 -0.00000000000E+00 -0.22173104481E+04  0.22173104481E+04  0.25500000000E-02 0.  1.
    5000001    1    1    2    0    0 -0.13184382304E+03 -0.74947415260E+02 -0.10853062852E+04  0.11118604415E+04  0.18800000000E+03 0.  0.
   -5000001    1    1    2    0    0  0.13184382304E+03  0.74947415260E+02 -0.11056890727E+04  0.11317650968E+04  0.18800000000E+03 0.  0.
<mgrwt>
<rscale>  0 0.48310961E+03</rscale>
<asrwt>0</asrwt>
<pdfrwt beam="1">  1        2 0.31675852E+00 0.48310961E+03</pdfrwt>
<pdfrwt beam="2">  1       -2 0.37593000E-02 0.48310961E+03</pdfrwt>
<totfact> 0.20622125E+03</totfact>
</mgrwt>
</event>
<event>
 4    1  0.6024609E-005  0.5964067E+03  0.7818608E-02  0.9912889E-01
         -2   -1    0    0    0  501 -0.00000000000E+00  0.00000000000E+00  0.41444995770E+02  0.41444995849E+02  0.25500000000E-02 0.  1.
          2   -1    0    0  501    0  0.00000000000E+00 -0.00000000000E+00 -0.21456208112E+04  0.21456208112E+04  0.25500000000E-02 0. -1.
    5000001    1    1    2    0    0  0.21483425683E+03  0.80915038286E+02 -0.94328990933E+03  0.98885835911E+03  0.18800000000E+03 0.  0.
   -5000001    1    1    2    0    0 -0.21483425683E+03 -0.80915038286E+02 -0.11608859061E+04  0.11982074479E+04  0.18800000000E+03 0.  0.
<mgrwt>
<rscale>  0 0.59640673E+03</rscale>
<asrwt>0</asrwt>
<pdfrwt beam="1">  1        2 0.30651719E+00 0.59640673E+03</pdfrwt>
<pdfrwt beam="2">  1       -2 0.59207150E-02 0.59640673E+03</pdfrwt>
<totfact> 0.11042097E+03</totfact>
</mgrwt>
</event>
<event>
 4    1  0.6024609E-005  0.4929546E+03  0.7818608E-02  0.1015634E+00
          2   -1    0    0  501    0  0.00000000000E+00  0.00000000000E+00  0.14151396200E+03  0.14151396202E+03  0.25500000000E-02 0.  1.
         -2   -1    0    0    0  501 -0.00000000000E+00 -0.00000000000E+00 -0.42929366949E+03  0.42929366950E+03  0.25500000000E-02 0. -1.
    5000001    1    1    2    0    0  0.15018859011E+03  0.63603292673E+01 -0.20527094850E+03  0.31634985172E+03  0.18800000000E+03 0.  0.
   -5000001    1    1    2    0    0 -0.15018859011E+03 -0.63603292673E+01 -0.82508758996E+02  0.25445777980E+03  0.18800000000E+03 0.  0.
<mgrwt>
<rscale>  0 0.49295455E+03</rscale>
<asrwt>0</asrwt>
<pdfrwt beam="1">  1        2 0.20216280E-01 0.49295455E+03</pdfrwt>
<pdfrwt beam="2">  1       -2 0.61327667E-01 0.49295455E+03</pdfrwt>
<totfact> 0.69772431E+02</totfact>
</mgrwt>
</event>
<event>
 4    1  0.6024609E-005  0.4629631E+03  0.7818608E-02  0.1023925E+00
          2   -1    0    0  501    0  0.00000000000E+00  0.00000000000E+00  0.84192170340E+02  0.84192170378E+02  0.25500000000E-02 0.  1.
         -2   -1    0    0    0  501 -0.00000000000E+00 -0.00000000000E+00 -0.63644522824E+03  0.63644522825E+03  0.25500000000E-02 0. -1.
    5000001    1    1    2    0    0  0.66255404906E+02 -0.77640447320E+02 -0.41379237543E+03  0.46581750472E+03  0.18800000000E+03 0.  0.
   -5000001    1    1    2    0    0 -0.66255404906E+02  0.77640447320E+02 -0.13846068247E+03  0.25481989390E+03  0.18800000000E+03 0.  0.
<mgrwt>
<rscale>  0 0.46296309E+03</rscale>
<asrwt>0</asrwt>
<pdfrwt beam="1">  1        2 0.12027453E-01 0.46296309E+03</pdfrwt>
<pdfrwt beam="2">  1       -2 0.90920744E-01 0.46296309E+03</pdfrwt>
<totfact> 0.54779431E+02</totfact>
</mgrwt>
</event>
<event>
 4    1  0.6024609E-005  0.5727557E+03  0.7818608E-02  0.9963599E-01
         -2   -1    0    0    0  501 -0.00000000000E+00  0.00000000000E+00  0.80957019993E+02  0.80957020033E+02  0.25500000000E-02 0. -1.
          2   -1    0    0  501    0  0.00000000000E+00 -0.00000000000E+00 -0.10130347668E+04  0.10130347668E+04  0.25500000000E-02 0.  1.
    5000001    1    1    2    0    0  0.11295370451E+03  0.13017482596E+03 -0.21726086803E+03  0.33503777317E+03  0.18800000000E+03 0.  0.
   -5000001    1    1    2    0    0 -0.11295370451E+03 -0.13017482596E+03 -0.71481687878E+03  0.75895401367E+03  0.18800000000E+03 0.  0.
<mgrwt>
<rscale>  0 0.57275571E+03</rscale>
<asrwt>0</asrwt>
<pdfrwt beam="1">  1        2 0.14471924E+00 0.57275571E+03</pdfrwt>
<pdfrwt beam="2">  1       -2 0.11565289E-01 0.57275571E+03</pdfrwt>
<totfact> 0.14979788E+03</totfact>
</mgrwt>
</event>
<event>
 4    1  0.6024609E-005  0.6535167E+03  0.7818608E-02  0.9800203E-01
         -2   -1    0    0    0  501 -0.00000000000E+00  0.00000000000E+00  0.18125515434E+03  0.18125515435E+03  0.25500000000E-02 0. -1.
          2   -1    0    0  501    0  0.00000000000E+00 -0.00000000000E+00 -0.58906482165E+03  0.58906482166E+03  0.25500000000E-02 0.  1.
    5000001    1    1    2    0    0  0.21979896456E+03 -0.11182561742E+03 -0.82487137824E+02  0.32088110172E+03  0.18800000000E+03 0.  0.
   -5000001    1    1    2    0    0 -0.21979896456E+03  0.11182561742E+03 -0.32532252949E+03  0.44943887429E+03  0.18800000000E+03 0.  0.
<mgrwt>
<rscale>  0 0.65351675E+03</rscale>
<asrwt>0</asrwt>
<pdfrwt beam="1">  1        2 0.84152116E-01 0.65351675E+03</pdfrwt>
<pdfrwt beam="2">  1       -2 0.25893594E-01 0.65351675E+03</pdfrwt>
<totfact> 0.74839953E+02</totfact>
</mgrwt>
</event>
<event>
 4    1  0.6024609E-005  0.9069363E+03  0.7818608E-02  0.9416952E-01
          2   -1    0    0  501    0  0.00000000000E+00  0.00000000000E+00  0.52660234708E+03  0.52660234709E+03  0.25500000000E-02 0.  1.
         -2   -1    0    0    0  501 -0.00000000000E+00 -0.00000000000E+00 -0.39049074896E+03  0.39049074897E+03  0.25500000000E-02 0. -1.
    5000001    1    1    2    0    0  0.19256816654E+03  0.36036051148E+03  0.12655825676E+03  0.46722926851E+03  0.18800000000E+03 0.  0.
   -5000001    1    1    2    0    0 -0.19256816654E+03 -0.36036051148E+03  0.95533413688E+01  0.44986382754E+03  0.18800000000E+03 0.  0.
<mgrwt>
<rscale>  0 0.90693626E+03</rscale>
<asrwt>0</asrwt>
<pdfrwt beam="1">  1        2 0.75228907E-01 0.90693626E+03</pdfrwt>
<pdfrwt beam="2">  1       -2 0.55784393E-01 0.90693626E+03</pdfrwt>
<totfact> 0.19147421E+02</totfact>
</mgrwt>
</event>
<event>
 4    1  0.6024609E-005  0.5832949E+03  0.7818608E-02  0.9940683E-01
          2   -1    0    0  501    0  0.00000000000E+00  0.00000000000E+00  0.88569819071E+03  0.88569819071E+03  0.25500000000E-02 0. -1.
         -2   -1    0    0    0  501 -0.00000000000E+00 -0.00000000000E+00 -0.96035225459E+02  0.96035225492E+02  0.25500000000E-02 0.  1.
    5000001    1    1    2    0    0 -0.19909548012E+03  0.97964823420E+02  0.43163325258E+03  0.52046842514E+03  0.18800000000E+03 0.  0.
   -5000001    1    1    2    0    0  0.19909548012E+03 -0.97964823420E+02  0.35802971266E+03  0.46126499106E+03  0.18800000000E+03 0.  0.
<mgrwt>
<rscale>  0 0.58329487E+03</rscale>
<asrwt>0</asrwt>
<pdfrwt beam="1">  1        2 0.12652831E+00 0.58329487E+03</pdfrwt>
<pdfrwt beam="2">  1       -2 0.13719318E-01 0.58329487E+03</pdfrwt>
<totfact> 0.13570568E+03</totfact>
</mgrwt>
</event>
<event>
 4    1  0.6024609E-005  0.8059979E+03  0.7818608E-02  0.9551376E-01
         -2   -1    0    0    0  501 -0.00000000000E+00  0.00000000000E+00  0.44578170812E+03  0.44578170813E+03  0.25500000000E-02 0. -1.
          2   -1    0    0  501    0  0.00000000000E+00 -0.00000000000E+00 -0.36432215691E+03  0.36432215692E+03  0.25500000000E-02 0.  1.
    5000001    1    1    2    0    0  0.33376308924E+03 -0.45996618433E+02  0.15773010787E+03  0.41681683696E+03  0.18800000000E+03 0.  0.
   -5000001    1    1    2    0    0 -0.33376308924E+03  0.45996618433E+02 -0.76270556659E+02  0.39328702809E+03  0.18800000000E+03 0.  0.
<mgrwt>
<rscale>  0 0.80599790E+03</rscale>
<asrwt>0</asrwt>
<pdfrwt beam="1">  1        2 0.52046023E-01 0.80599790E+03</pdfrwt>
<pdfrwt beam="2">  1       -2 0.63683101E-01 0.80599790E+03</pdfrwt>
<totfact> 0.22059330E+02</totfact>
</mgrwt>
</event>
<event>
 4    1  0.6024609E-005  0.7555772E+03  0.7818608E-02  0.9626641E-01
         -2   -1    0    0    0  501 -0.00000000000E+00  0.00000000000E+00  0.46451665105E+03  0.46451665106E+03  0.25500000000E-02 0. -1.
          2   -1    0    0  501    0  0.00000000000E+00 -0.00000000000E+00 -0.30725320074E+03  0.30725320075E+03  0.25500000000E-02 0.  1.
    5000001    1    1    2    0    0  0.76752821757E+02 -0.21262178242E+03 -0.16368906417E+03  0.33650724767E+03  0.18800000000E+03 0.  0.
   -5000001    1    1    2    0    0 -0.76752821757E+02  0.21262178242E+03  0.32095251448E+03  0.43526260413E+03  0.18800000000E+03 0.  0.
<mgrwt>
<rscale>  0 0.75557720E+03</rscale>
<asrwt>0</asrwt>
<pdfrwt beam="1">  1        2 0.43893315E-01 0.75557720E+03</pdfrwt>
<pdfrwt beam="2">  1       -2 0.66359521E-01 0.75557720E+03</pdfrwt>
<totfact> 0.24445951E+02</totfact>
</mgrwt>
</event>
<event>
 4    1  0.6024609E-005  0.4143021E+03  0.7818608E-02  0.1038937E+00
         -2   -1    0    0    0  501 -0.00000000000E+00  0.00000000000E+00  0.19333540070E+02  0.19333540238E+02  0.25500000000E-02 0. -1.
          2   -1    0    0  501    0  0.00000000000E+00 -0.00000000000E+00 -0.22195397858E+04  0.22195397858E+04  0.25500000000E-02 0.  1.
    5000001    1    1    2    0    0  0.72314003502E+02 -0.30927053281E+02 -0.13009796909E+04  0.13168439368E+04  0.18800000000E+03 0.  0.
   -5000001    1    1    2    0    0 -0.72314003502E+02  0.30927053281E+02 -0.89922655482E+03  0.92202938924E+03  0.18800000000E+03 0.  0.
<mgrwt>
<rscale>  0 0.41430212E+03</rscale>
<asrwt>0</asrwt>
<pdfrwt beam="1">  1        2 0.31707695E+00 0.41430212E+03</pdfrwt>
<pdfrwt beam="2">  1       -2 0.27619357E-02 0.41430212E+03</pdfrwt>
<totfact> 0.32892676E+03</totfact>
</mgrwt>
</event>
<event>
 4    1  0.6024609E-005  0.6703356E+03  0.7818608E-02  0.9769352E-01
          2   -1    0    0  501    0  0.00000000000E+00  0.00000000000E+00  0.19550223834E+03  0.19550223836E+03  0.25500000000E-02 0.  1.
         -2   -1    0    0    0  501 -0.00000000000E+00 -0.00000000000E+00 -0.57460959040E+03  0.57460959041E+03  0.25500000000E-02 0. -1.
    5000001    1    1    2    0    0  0.13541054348E+03  0.23941774047E+03 -0.14755256076E+03  0.36437978528E+03  0.18800000000E+03 0.  0.
   -5000001    1    1    2    0    0 -0.13541054348E+03 -0.23941774047E+03 -0.23155479130E+03  0.40573204348E+03  0.18800000000E+03 0.  0.
<mgrwt>
<rscale>  0 0.67033562E+03</rscale>
<asrwt>0</asrwt>
<pdfrwt beam="1">  1        2 0.27928891E-01 0.67033562E+03</pdfrwt>
<pdfrwt beam="2">  1       -2 0.82087084E-01 0.67033562E+03</pdfrwt>
<totfact> 0.25426872E+02</totfact>
</mgrwt>
</event>
<event>
 4    1  0.6024609E-005  0.4957583E+03  0.7818608E-02  0.1014892E+00
          2   -1    0    0  501    0  0.00000000000E+00  0.00000000000E+00  0.30116073955E+04  0.30116073955E+04  0.25500000000E-02 0.  1.
         -2   -1    0    0    0  501 -0.00000000000E+00 -0.00000000000E+00 -0.20402419706E+02  0.20402419866E+02  0.25500000000E-02 0. -1.
    5000001    1    1    2    0    0  0.69140724538E+02  0.12242690174E+03  0.10089636450E+04  0.10359152586E+04  0.18800000000E+03 0.  0.
   -5000001    1    1    2    0    0 -0.69140724538E+02 -0.12242690174E+03  0.19822413308E+04  0.19960945568E+04  0.18800000000E+03 0.  0.
<mgrwt>
<rscale>  0 0.49575832E+03</rscale>
<asrwt>0</asrwt>
<pdfrwt beam="1">  1        2 0.43022938E+00 0.49575832E+03</pdfrwt>
<pdfrwt beam="2">  1       -2 0.29146331E-02 0.49575832E+03</pdfrwt>
<totfact> 0.11775752E+03</totfact>
</mgrwt>
</event>
<event>
 4    1  0.6024609E-005  0.5367861E+03  0.7818608E-02  0.1004600E+00
         -2   -1    0    0    0  501 -0.00000000000E+00  0.00000000000E+00  0.45601611326E+02  0.45601611398E+02  0.25500000000E-02 0. -1.
          2   -1    0    0  501    0  0.00000000000E+00 -0.00000000000E+00 -0.15796555647E+04  0.15796555647E+04  0.25500000000E-02 0.  1.
    5000001    1    1    2    0    0 -0.17186014909E+03 -0.81052712131E+02 -0.69377117478E+03  0.74348362184E+03  0.18800000000E+03 0.  0.
   -5000001    1    1    2    0    0  0.17186014909E+03  0.81052712131E+02 -0.84028277856E+03  0.88177355423E+03  0.18800000000E+03 0.  0.
<mgrwt>
<rscale>  0 0.53678614E+03</rscale>
<asrwt>0</asrwt>
<pdfrwt beam="1">  1        2 0.22566505E+00 0.53678614E+03</pdfrwt>
<pdfrwt beam="2">  1       -2 0.65145169E-02 0.53678614E+03</pdfrwt>
<totfact> 0.18392441E+03</totfact>
</mgrwt>
</event>
<event>
 4    1  0.6024609E-005  0.5154077E+03  0.7818608E-02  0.1009834E+00
         -2   -1    0    0    0  501 -0.00000000000E+00  0.00000000000E+00  0.53671821843E+03  0.53671821844E+03  0.25500000000E-02 0.  1.
          2   -1    0    0  501    0  0.00000000000E+00 -0.00000000000E+00 -0.12373583341E+03  0.12373583344E+03  0.25500000000E-02 0. -1.
    5000001    1    1    2    0    0 -0.16996539082E+03 -0.46673333346E+02  0.20546449356E+03  0.32958503036E+03  0.18800000000E+03 0.  0.
   -5000001    1    1    2    0    0  0.16996539082E+03  0.46673333346E+02  0.20751789146E+03  0.33086902152E+03  0.18800000000E+03 0.  0.
<mgrwt>
<rscale>  0 0.51540771E+03</rscale>
<asrwt>0</asrwt>
<pdfrwt beam="1">  1        2 0.17676548E-01 0.51540771E+03</pdfrwt>
<pdfrwt beam="2">  1       -2 0.76674031E-01 0.51540771E+03</pdfrwt>
<totfact> 0.50443318E+02</totfact>
</mgrwt>
</event>
<event>
 4    1  0.6024609E-005  0.7522448E+03  0.7818608E-02  0.9631835E-01
         -2   -1    0    0    0  501 -0.00000000000E+00  0.00000000000E+00  0.18681607189E+03  0.18681607191E+03  0.25500000000E-02 0. -1.
          2   -1    0    0  501    0  0.00000000000E+00 -0.00000000000E+00 -0.75725849541E+03  0.75725849541E+03  0.25500000000E-02 0.  1.
    5000001    1    1    2    0    0  0.28994670737E+03 -0.14442575836E+03 -0.32862649604E+03  0.49826425388E+03  0.18800000000E+03 0.  0.
   -5000001    1    1    2    0    0 -0.28994670737E+03  0.14442575836E+03 -0.24181592748E+03  0.44581031345E+03  0.18800000000E+03 0.  0.
<mgrwt>
<rscale>  0 0.75224479E+03</rscale>
<asrwt>0</asrwt>
<pdfrwt beam="1">  1        2 0.10817978E+00 0.75224479E+03</pdfrwt>
<pdfrwt beam="2">  1       -2 0.26688011E-01 0.75224479E+03</pdfrwt>
<totfact> 0.52070209E+02</totfact>
</mgrwt>
</event>
<event>
 4    1  0.6024609E-005  0.5923851E+03  0.7818608E-02  0.9921332E-01
         -2   -1    0    0    0  501 -0.00000000000E+00  0.00000000000E+00  0.11794594623E+03  0.11794594626E+03  0.25500000000E-02 0. -1.
          2   -1    0    0  501    0  0.00000000000E+00 -0.00000000000E+00 -0.74381550756E+03  0.74381550756E+03  0.25500000000E-02 0.  1.
    5000001    1    1    2    0    0  0.65996056852E+02 -0.54237905087E+02 -0.40352455954E+01  0.20653695329E+03  0.18800000000E+03 0.  0.
   -5000001    1    1    2    0    0 -0.65996056852E+02  0.54237905087E+02 -0.62183431574E+03  0.65522450053E+03  0.18800000000E+03 0.  0.
<mgrwt>
<rscale>  0 0.59238509E+03</rscale>
<asrwt>0</asrwt>
<pdfrwt beam="1">  1        2 0.10625936E+00 0.59238509E+03</pdfrwt>
<pdfrwt beam="2">  1       -2 0.16849421E-01 0.59238509E+03</pdfrwt>
<totfact> 0.12009320E+03</totfact>
</mgrwt>
</event>
<event>
 4    1  0.6024609E-005  0.6209274E+03  0.7818608E-02  0.9862915E-01
          2   -1    0    0  501    0  0.00000000000E+00  0.00000000000E+00  0.20855135729E+04  0.20855135729E+04  0.25500000000E-02 0.  1.
         -2   -1    0    0    0  501 -0.00000000000E+00 -0.00000000000E+00 -0.46217739396E+02  0.46217739466E+02  0.25500000000E-02 0. -1.
    5000001    1    1    2    0    0 -0.24558311033E+03 -0.26969736134E+02  0.10275457465E+04  0.10734210227E+04  0.18800000000E+03 0.  0.
   -5000001    1    1    2    0    0  0.24558311033E+03  0.26969736134E+02  0.10117500870E+04  0.10583102897E+04  0.18800000000E+03 0.  0.
<mgrwt>
<rscale>  0 0.62092744E+03</rscale>
<asrwt>0</asrwt>
<pdfrwt beam="1">  1        2 0.29793047E+00 0.62092744E+03</pdfrwt>
<pdfrwt beam="2">  1       -2 0.66025352E-02 0.62092744E+03</pdfrwt>
<totfact> 0.99614679E+02</totfact>
</mgrwt>
</event>
<event>
 4    1  0.6024609E-005  0.4337024E+03  0.7818608E-02  0.1032697E+00
         -2   -1    0    0    0  501 -0.00000000000E+00  0.00000000000E+00  0.13619229765E+03  0.13619229767E+03  0.25500000000E-02 0. -1.
          2   -1    0    0  501    0  0.00000000000E+00 -0.00000000000E+00 -0.34527969408E+03  0.34527969409E+03  0.25500000000E-02 0.  1.
    5000001    1    1    2    0    0  0.57153180003E+02  0.56111694306E+02 -0.18509935149E+03  0.27571865759E+03  0.18800000000E+03 0.  0.
   -5000001    1    1    2    0    0 -0.57153180003E+02 -0.56111694306E+02 -0.23988044943E+02  0.20575333417E+03  0.18800000000E+03 0.  0.
<mgrwt>
<rscale>  0 0.43370236E+03</rscale>
<asrwt>0</asrwt>
<pdfrwt beam="1">  1        2 0.49325670E-01 0.43370236E+03</pdfrwt>
<pdfrwt beam="2">  1       -2 0.19456043E-01 0.43370236E+03</pdfrwt>
<totfact> 0.22595552E+03</totfact>
</mgrwt>
</event>
<event>
 4    1  0.6024609E-005  0.8112587E+03  0.7818608E-02  0.9543862E-01
         -2   -1    0    0    0  501 -0.00000000000E+00  0.00000000000E+00  0.14017393686E+03  0.14017393688E+03  0.25500000000E-02 0. -1.
          2   -1    0    0  501    0  0.00000000000E+00 -0.00000000000E+00 -0.11737929183E+04  0.11737929183E+04  0.25500000000E-02 0.  1.
    5000001    1    1    2    0    0 -0.11362944251E+03 -0.32228139271E+03 -0.33634785156E+03  0.51502507079E+03  0.18800000000E+03 0.  0.
   -5000001    1    1    2    0    0  0.11362944251E+03  0.32228139271E+03 -0.69727112990E+03  0.79894178442E+03  0.18800000000E+03 0.  0.
<mgrwt>
<rscale>  0 0.81125871E+03</rscale>
<asrwt>0</asrwt>
<pdfrwt beam="1">  1        2 0.16768470E+00 0.81125871E+03</pdfrwt>
<pdfrwt beam="2">  1       -2 0.20024849E-01 0.81125871E+03</pdfrwt>
<totfact> 0.47254562E+02</totfact>
</mgrwt>
</event>
<event>
 4    1  0.6024609E-005  0.6241112E+03  0.7818608E-02  0.9856608E-01
         -2   -1    0    0    0  501 -0.00000000000E+00  0.00000000000E+00  0.11541103821E+03  0.11541103824E+03  0.25500000000E-02 0. -1.
          2   -1    0    0  501    0  0.00000000000E+00 -0.00000000000E+00 -0.84375562822E+03  0.84375562823E+03  0.25500000000E-02 0.  1.
    5000001    1    1    2    0    0  0.11416911670E+03 -0.56583372116E+02 -0.69306742762E+03  0.72933032601E+03  0.18800000000E+03 0.  0.
   -5000001    1    1    2    0    0 -0.11416911670E+03  0.56583372116E+02 -0.35277162386E+02  0.22983634046E+03  0.18800000000E+03 0.  0.
<mgrwt>
<rscale>  0 0.62411125E+03</rscale>
<asrwt>0</asrwt>
<pdfrwt beam="1">  1        2 0.12053651E+00 0.62411125E+03</pdfrwt>
<pdfrwt beam="2">  1       -2 0.16487292E-01 0.62411125E+03</pdfrwt>
<totfact> 0.10606547E+03</totfact>
</mgrwt>
</event>
<event>
 4    1  0.6024609E-005  0.1396365E+04  0.7818608E-02  0.8956454E-01
         -2   -1    0    0    0  501 -0.00000000000E+00  0.00000000000E+00  0.62678957516E+03  0.62678957517E+03  0.25500000000E-02 0. -1.
          2   -1    0    0  501    0  0.00000000000E+00 -0.00000000000E+00 -0.77770676719E+03  0.77770676720E+03  0.25500000000E-02 0.  1.
    5000001    1    1    2    0    0  0.53755185677E+03 -0.62566463178E+02  0.32591154552E+03  0.65911978921E+03  0.18800000000E+03 0.  0.
   -5000001    1    1    2    0    0 -0.53755185677E+03  0.62566463178E+02 -0.47682873755E+03  0.74537655315E+03  0.18800000000E+03 0.  0.
<mgrwt>
<rscale>  0 0.13963646E+04</rscale>
<asrwt>0</asrwt>
<pdfrwt beam="1">  1        2 0.11110097E+00 0.13963646E+04</pdfrwt>
<pdfrwt beam="2">  1       -2 0.89541368E-01 0.13963646E+04</pdfrwt>
<totfact> 0.41116410E+01</totfact>
</mgrwt>
</event>
<event>
 4    1  0.6024609E-005  0.4618127E+03  0.7818608E-02  0.1024257E+00
         -2   -1    0    0    0  501 -0.00000000000E+00  0.00000000000E+00  0.16902042784E+03  0.16902042786E+03  0.25500000000E-02 0. -1.
          2   -1    0    0  501    0  0.00000000000E+00 -0.00000000000E+00 -0.31545144001E+03  0.31545144002E+03  0.25500000000E-02 0.  1.
    5000001    1    1    2    0    0 -0.10508303177E+03 -0.23581660169E+02 -0.15697799793E+03  0.26755304165E+03  0.18800000000E+03 0.  0.
   -5000001    1    1    2    0    0  0.10508303177E+03  0.23581660169E+02  0.10546985759E+02  0.21691882623E+03  0.18800000000E+03 0.  0.
<mgrwt>
<rscale>  0 0.46181268E+03</rscale>
<asrwt>0</asrwt>
<pdfrwt beam="1">  1        2 0.45064491E-01 0.46181268E+03</pdfrwt>
<pdfrwt beam="2">  1       -2 0.24145776E-01 0.46181268E+03</pdfrwt>
<totfact> 0.17106632E+03</totfact>
</mgrwt>
</event>
<event>
 4    1  0.6024609E-005  0.4758426E+03  0.7818608E-02  0.1020284E+00
          2   -1    0    0  501    0  0.00000000000E+00  0.00000000000E+00  0.35702246470E+04  0.35702246470E+04  0.25500000000E-02 0.  1.
         -2   -1    0    0    0  501 -0.00000000000E+00 -0.00000000000E+00 -0.15855180191E+02  0.15855180396E+02  0.25500000000E-02 0. -1.
    5000001    1    1    2    0    0 -0.62815636538E+02 -0.12774336916E+03  0.15390596407E+04  0.15570204720E+04  0.18800000000E+03 0.  0.
   -5000001    1    1    2    0    0  0.62815636538E+02  0.12774336916E+03  0.20153098260E+04  0.20290593553E+04  0.18800000000E+03 0.  0.
<mgrwt>
<rscale>  0 0.47584264E+03</rscale>
<asrwt>0</asrwt>
<pdfrwt beam="1">  1        2 0.51003331E+00 0.47584264E+03</pdfrwt>
<pdfrwt beam="2">  1       -2 0.22650203E-02 0.47584264E+03</pdfrwt>
<totfact> 0.83085334E+02</totfact>
</mgrwt>
</event>
<event>
 4    1  0.6024609E-005  0.7527240E+03  0.7818608E-02  0.9631087E-01
         -2   -1    0    0    0  501 -0.00000000000E+00  0.00000000000E+00  0.68799780538E+03  0.68799780539E+03  0.25500000000E-02 0. -1.
          2   -1    0    0  501    0  0.00000000000E+00 -0.00000000000E+00 -0.20588487753E+03  0.20588487754E+03  0.25500000000E-02 0.  1.
    5000001    1    1    2    0    0  0.29473216282E+03  0.21620358872E+02  0.77496578837E+02  0.35872581096E+03  0.18800000000E+03 0.  0.
   -5000001    1    1    2    0    0 -0.29473216282E+03 -0.21620358872E+02  0.40461634902E+03  0.53515687197E+03  0.18800000000E+03 0.  0.
<mgrwt>
<rscale>  0 0.75272397E+03</rscale>
<asrwt>0</asrwt>
<pdfrwt beam="1">  1        2 0.29412125E-01 0.75272397E+03</pdfrwt>
<pdfrwt beam="2">  1       -2 0.98285403E-01 0.75272397E+03</pdfrwt>
<totfact> 0.15797146E+02</totfact>
</mgrwt>
</event>
<event>
 4    1  0.6024609E-005  0.5012642E+03  0.7818608E-02  0.1013449E+00
          2   -1    0    0  501    0  0.00000000000E+00  0.00000000000E+00  0.15994300819E+04  0.15994300819E+04  0.25500000000E-02 0.  1.
         -2   -1    0    0    0  501 -0.00000000000E+00 -0.00000000000E+00 -0.39274264191E+02  0.39274264274E+02  0.25500000000E-02 0. -1.
    5000001    1    1    2    0    0 -0.16648041883E+02  0.12342732176E+03  0.11376118760E+04  0.11597483527E+04  0.18800000000E+03 0.  0.
   -5000001    1    1    2    0    0  0.16648041883E+02 -0.12342732176E+03  0.42254394166E+03  0.47895599348E+03  0.18800000000E+03 0.  0.
<mgrwt>
<rscale>  0 0.50126416E+03</rscale>
<asrwt>0</asrwt>
<pdfrwt beam="1">  1        2 0.22848995E+00 0.50126416E+03</pdfrwt>
<pdfrwt beam="2">  1       -2 0.56106108E-02 0.50126416E+03</pdfrwt>
<totfact> 0.22711130E+03</totfact>
</mgrwt>
</event>
<event>
 4    1  0.6024609E-005  0.5426001E+03  0.7818608E-02  0.1003221E+00
         -2   -1    0    0    0  501 -0.00000000000E+00  0.00000000000E+00  0.30067271719E+02  0.30067271827E+02  0.25500000000E-02 0. -1.
          2   -1    0    0  501    0  0.00000000000E+00 -0.00000000000E+00 -0.24479679652E+04  0.24479679652E+04  0.25500000000E-02 0.  1.
    5000001    1    1    2    0    0  0.17822766704E+03  0.80482280017E+02 -0.12279015480E+04  0.12575089305E+04  0.18800000000E+03 0.  0.
   -5000001    1    1    2    0    0 -0.17822766704E+03 -0.80482280017E+02 -0.11899991455E+04  0.12205263066E+04  0.18800000000E+03 0.  0.
<mgrwt>
<rscale>  0 0.54260010E+03</rscale>
<asrwt>0</asrwt>
<pdfrwt beam="1">  1        2 0.34970958E+00 0.54260010E+03</pdfrwt>
<pdfrwt beam="2">  1       -2 0.42953261E-02 0.54260010E+03</pdfrwt>
<totfact> 0.12818627E+03</totfact>
</mgrwt>
</event>
<event>
 4    1  0.6024609E-005  0.6403768E+03  0.7818608E-02  0.9825006E-01
         -2   -1    0    0    0  501 -0.00000000000E+00  0.00000000000E+00  0.25075128056E+03  0.25075128057E+03  0.25500000000E-02 0. -1.
          2   -1    0    0  501    0  0.00000000000E+00 -0.00000000000E+00 -0.40885378474E+03  0.40885378474E+03  0.25500000000E-02 0.  1.
    5000001    1    1    2    0    0  0.10217506662E+03  0.16146126976E+03  0.10132731042E+03  0.28656711205E+03  0.18800000000E+03 0.  0.
   -5000001    1    1    2    0    0 -0.10217506662E+03 -0.16146126976E+03 -0.25942981459E+03  0.37303795326E+03  0.18800000000E+03 0.  0.
<mgrwt>
<rscale>  0 0.64037680E+03</rscale>
<asrwt>0</asrwt>
<pdfrwt beam="1">  1        2 0.58407683E-01 0.64037680E+03</pdfrwt>
<pdfrwt beam="2">  1       -2 0.35821612E-01 0.64037680E+03</pdfrwt>
<totfact> 0.62170609E+02</totfact>
</mgrwt>
</event>
<event>
 4    1  0.6024609E-005  0.7297428E+03  0.7818608E-02  0.9667678E-01
         -2   -1    0    0    0  501 -0.00000000000E+00  0.00000000000E+00  0.83843506348E+02  0.83843506386E+02  0.25500000000E-02 0. -1.
          2   -1    0    0  501    0  0.00000000000E+00 -0.00000000000E+00 -0.15878526075E+04  0.15878526075E+04  0.25500000000E-02 0.  1.
    5000001    1    1    2    0    0 -0.27361454246E+03  0.15065789168E+03 -0.71768744890E+03  0.80497328681E+03  0.18800000000E+03 0.  0.
   -5000001    1    1    2    0    0  0.27361454246E+03 -0.15065789168E+03 -0.78632165224E+03  0.86672282706E+03  0.18800000000E+03 0.  0.
<mgrwt>
<rscale>  0 0.72974278E+03</rscale>
<asrwt>0</asrwt>
<pdfrwt beam="1">  1        2 0.22683607E+00 0.72974278E+03</pdfrwt>
<pdfrwt beam="2">  1       -2 0.11977645E-01 0.72974278E+03</pdfrwt>
<totfact> 0.67855875E+02</totfact>
</mgrwt>
</event>
<event>
 4    1  0.6024609E-005  0.5632445E+03  0.7818608E-02  0.9984740E-01
          2   -1    0    0  501    0  0.00000000000E+00  0.00000000000E+00  0.67316223491E+03  0.67316223492E+03  0.25500000000E-02 0.  1.
         -2   -1    0    0    0  501 -0.00000000000E+00 -0.00000000000E+00 -0.11781869875E+03  0.11781869878E+03  0.25500000000E-02 0. -1.
    5000001    1    1    2    0    0  0.13909535461E+03  0.87351303439E+02  0.94627062586E+02  0.26697574583E+03  0.18800000000E+03 0.  0.
   -5000001    1    1    2    0    0 -0.13909535461E+03 -0.87351303439E+02  0.46071647358E+03  0.52400518787E+03  0.18800000000E+03 0.  0.
<mgrwt>
<rscale>  0 0.56324452E+03</rscale>
<asrwt>0</asrwt>
<pdfrwt beam="1">  1        2 0.96166033E-01 0.56324452E+03</pdfrwt>
<pdfrwt beam="2">  1       -2 0.16831243E-01 0.56324452E+03</pdfrwt>
<totfact> 0.13602032E+03</totfact>
</mgrwt>
</event>
<event>
 4    1  0.6024609E-005  0.5205662E+03  0.7818608E-02  0.1008546E+00
          2   -1    0    0  501    0  0.00000000000E+00  0.00000000000E+00  0.20960007067E+04  0.20960007067E+04  0.25500000000E-02 0.  1.
         -2   -1    0    0    0  501 -0.00000000000E+00 -0.00000000000E+00 -0.32322173303E+02  0.32322173404E+02  0.25500000000E-02 0. -1.
    5000001    1    1    2    0    0 -0.92634159122E+01  0.12725010655E+03  0.15510097727E+04  0.15675629862E+04  0.18800000000E+03 0.  0.
   -5000001    1    1    2    0    0  0.92634159122E+01 -0.12725010655E+03  0.51266876069E+03  0.56075989396E+03  0.18800000000E+03 0.  0.
<mgrwt>
<rscale>  0 0.52056622E+03</rscale>
<asrwt>0</asrwt>
<pdfrwt beam="1">  1        2 0.29942857E+00 0.52056622E+03</pdfrwt>
<pdfrwt beam="2">  1       -2 0.46174549E-02 0.52056622E+03</pdfrwt>
<totfact> 0.17272389E+03</totfact>
</mgrwt>
</event>
<event>
 4    1  0.6024609E-005  0.7689129E+03  0.7818608E-02  0.9606137E-01
         -2   -1    0    0    0  501 -0.00000000000E+00  0.00000000000E+00  0.56136481354E+02  0.56136481412E+02  0.25500000000E-02 0. -1.
          2   -1    0    0  501    0  0.00000000000E+00 -0.00000000000E+00 -0.26329896545E+04  0.26329896545E+04  0.25500000000E-02 0.  1.
    5000001    1    1    2    0    0  0.12382135045E+02 -0.28873263925E+03 -0.69344272836E+03  0.77442021652E+03  0.18800000000E+03 0.  0.
   -5000001    1    1    2    0    0 -0.12382135045E+02  0.28873263925E+03 -0.18834104447E+04  0.19147059193E+04  0.18800000000E+03 0.  0.
<mgrwt>
<rscale>  0 0.76891293E+03</rscale>
<asrwt>0</asrwt>
<pdfrwt beam="1">  1        2 0.37614130E+00 0.76891293E+03</pdfrwt>
<pdfrwt beam="2">  1       -2 0.80194990E-02 0.76891293E+03</pdfrwt>
<totfact> 0.37987904E+02</totfact>
</mgrwt>
</event>
<event>
 4    1  0.6024609E-005  0.9854426E+03  0.7818608E-02  0.9324657E-01
         -2   -1    0    0    0  501 -0.00000000000E+00  0.00000000000E+00  0.87966243586E+03  0.87966243587E+03  0.25500000000E-02 0. -1.
          2   -1    0    0  501    0  0.00000000000E+00 -0.00000000000E+00 -0.27598572480E+03  0.27598572481E+03  0.25500000000E-02 0.  1.
    5000001    1    1    2    0    0  0.11910312892E+03  0.41107493680E+03  0.48450474341E+03  0.67324364488E+03  0.18800000000E+03 0.  0.
   -5000001    1    1    2    0    0 -0.11910312892E+03 -0.41107493680E+03  0.11917196766E+03  0.48240451580E+03  0.18800000000E+03 0.  0.
<mgrwt>
<rscale>  0 0.98544259E+03</rscale>
<asrwt>0</asrwt>
<pdfrwt beam="1">  1        2 0.39426531E-01 0.98544259E+03</pdfrwt>
<pdfrwt beam="2">  1       -2 0.12566606E+00 0.98544259E+03</pdfrwt>
<totfact> 0.61874093E+01</totfact>
</mgrwt>
</event>
<event>
 4    1  0.6024609E-005  0.7647999E+03  0.7818608E-02  0.9612414E-01
          2   -1    0    0  501    0  0.00000000000E+00  0.00000000000E+00  0.19706992011E+04  0.19706992011E+04  0.25500000000E-02 0.  1.
         -2   -1    0    0    0  501 -0.00000000000E+00 -0.00000000000E+00 -0.74201943543E+02  0.74201943587E+02  0.25500000000E-02 0. -1.
    5000001    1    1    2    0    0 -0.18491964367E+03  0.21187491308E+03  0.47145069231E+03  0.58025512379E+03  0.18800000000E+03 0.  0.
   -5000001    1    1    2    0    0  0.18491964367E+03 -0.21187491308E+03  0.14250465653E+04  0.14646460209E+04  0.18800000000E+03 0.  0.
<mgrwt>
<rscale>  0 0.76479987E+03</rscale>
<asrwt>0</asrwt>
<pdfrwt beam="1">  1        2 0.28152846E+00 0.76479987E+03</pdfrwt>
<pdfrwt beam="2">  1       -2 0.10600277E-01 0.76479987E+03</pdfrwt>
<totfact> 0.52790444E+02</totfact>
</mgrwt>
</event>
<event>
 4    1  0.6024609E-005  0.6119686E+03  0.7818608E-02  0.9880881E-01
         -2   -1    0    0    0  501 -0.00000000000E+00  0.00000000000E+00  0.37999624405E+03  0.37999624406E+03  0.25500000000E-02 0. -1.
          2   -1    0    0  501    0  0.00000000000E+00 -0.00000000000E+00 -0.24638768822E+03  0.24638768824E+03  0.25500000000E-02 0.  1.
    5000001    1    1    2    0    0  0.14582106814E+02 -0.17298804720E+03 -0.10491192121E+03  0.27656466427E+03  0.18800000000E+03 0.  0.
   -5000001    1    1    2    0    0 -0.14582106814E+02  0.17298804720E+03  0.23852047704E+03  0.34981926802E+03  0.18800000000E+03 0.  0.
<mgrwt>
<rscale>  0 0.61196861E+03</rscale>
<asrwt>0</asrwt>
<pdfrwt beam="1">  1        2 0.35198241E-01 0.61196861E+03</pdfrwt>
<pdfrwt beam="2">  1       -2 0.54285178E-01 0.61196861E+03</pdfrwt>
<totfact> 0.47874493E+02</totfact>
</mgrwt>
</event>
<event>
 4    1  0.6024609E-005  0.4883083E+03  0.7818608E-02  0.1016876E+00
         -2   -1    0    0    0  501 -0.00000000000E+00  0.00000000000E+00  0.10421769546E+03  0.10421769549E+03  0.25500000000E-02 0. -1.
          2   -1    0    0  501    0  0.00000000000E+00 -0.00000000000E+00 -0.57198784460E+03  0.57198784461E+03  0.25500000000E-02 0.  1.
    5000001    1    1    2    0    0 -0.14137342115E+03  0.62870091997E+02 -0.25897093265E+03  0.35545609664E+03  0.18800000000E+03 0.  0.
   -5000001    1    1    2    0    0  0.14137342115E+03 -0.62870091997E+02 -0.20879921649E+03  0.32074944346E+03  0.18800000000E+03 0.  0.
<mgrwt>
<rscale>  0 0.48830832E+03</rscale>
<asrwt>0</asrwt>
<pdfrwt beam="1">  1        2 0.81712548E-01 0.48830832E+03</pdfrwt>
<pdfrwt beam="2">  1       -2 0.14888243E-01 0.48830832E+03</pdfrwt>
<totfact> 0.20279093E+03</totfact>
</mgrwt>
</event>
<event>
 4    1  0.6024609E-005  0.5995291E+03  0.7818608E-02  0.9906383E-01
         -2   -1    0    0    0  501 -0.00000000000E+00  0.00000000000E+00  0.86372560482E+02  0.86372560520E+02  0.25500000000E-02 0. -1.
          2   -1    0    0  501    0  0.00000000000E+00 -0.00000000000E+00 -0.10403626947E+04  0.10403626947E+04  0.25500000000E-02 0.  1.
    5000001    1    1    2    0    0 -0.15411410943E+03  0.82476745117E+02 -0.76791002154E+03  0.80968103188E+03  0.18800000000E+03 0.  0.
   -5000001    1    1    2    0    0  0.15411410943E+03 -0.82476745117E+02 -0.18608011271E+03  0.31705422337E+03  0.18800000000E+03 0.  0.
<mgrwt>
<rscale>  0 0.59952911E+03</rscale>
<asrwt>0</asrwt>
<pdfrwt beam="1">  1        2 0.14862323E+00 0.59952911E+03</pdfrwt>
<pdfrwt beam="2">  1       -2 0.12338938E-01 0.59952911E+03</pdfrwt>
<totfact> 0.12960325E+03</totfact>
</mgrwt>
</event>
<event>
 4    1  0.6024609E-005  0.6856128E+03  0.7818608E-02  0.9742157E-01
         -2   -1    0    0    0  501 -0.00000000000E+00  0.00000000000E+00  0.88995787656E+02  0.88995787693E+02  0.25500000000E-02 0. -1.
          2   -1    0    0  501    0  0.00000000000E+00 -0.00000000000E+00 -0.13204697308E+04  0.13204697308E+04  0.25500000000E-02 0.  1.
    5000001    1    1    2    0    0  0.25819144083E+03  0.11524729315E+03 -0.51871213649E+03  0.61996051426E+03  0.18800000000E+03 0.  0.
   -5000001    1    1    2    0    0 -0.25819144083E+03 -0.11524729315E+03 -0.71276180666E+03  0.78950500425E+03  0.18800000000E+03 0.  0.
<mgrwt>
<rscale>  0 0.68561285E+03</rscale>
<asrwt>0</asrwt>
<pdfrwt beam="1">  1        2 0.18863852E+00 0.68561285E+03</pdfrwt>
<pdfrwt beam="2">  1       -2 0.12713685E-01 0.68561285E+03</pdfrwt>
<totfact> 0.85325003E+02</totfact>
</mgrwt>
</event>
<event>
 4    1  0.6024609E-005  0.7950585E+03  0.7818608E-02  0.9567197E-01
          2   -1    0    0  501    0  0.00000000000E+00  0.00000000000E+00  0.24773338572E+04  0.24773338572E+04  0.25500000000E-02 0.  1.
         -2   -1    0    0    0  501 -0.00000000000E+00 -0.00000000000E+00 -0.63790148163E+02  0.63790148214E+02  0.25500000000E-02 0. -1.
    5000001    1    1    2    0    0  0.21972640579E+03 -0.27092030328E+03  0.11052978399E+04  0.11741826174E+04  0.18800000000E+03 0.  0.
   -5000001    1    1    2    0    0 -0.21972640579E+03  0.27092030328E+03  0.13082458691E+04  0.13669413880E+04  0.18800000000E+03 0.  0.
<mgrwt>
<rscale>  0 0.79505847E+03</rscale>
<asrwt>0</asrwt>
<pdfrwt beam="1">  1        2 0.35390480E+00 0.79505847E+03</pdfrwt>
<pdfrwt beam="2">  1       -2 0.91128793E-02 0.79505847E+03</pdfrwt>
<totfact> 0.37180597E+02</totfact>
</mgrwt>
</event>
<event>
 4    1  0.6024609E-005  0.6372760E+03  0.7818608E-02  0.9830952E-01
         -2   -1    0    0    0  501 -0.00000000000E+00  0.00000000000E+00  0.16193771446E+03  0.16193771448E+03  0.25500000000E-02 0. -1.
          2   -1    0    0  501    0  0.00000000000E+00 -0.00000000000E+00 -0.62697052218E+03  0.62697052218E+03  0.25500000000E-02 0.  1.
    5000001    1    1    2    0    0  0.24712537244E+03  0.52971454074E+02 -0.29200507801E+03  0.42952053529E+03  0.18800000000E+03 0.  0.
   -5000001    1    1    2    0    0 -0.24712537244E+03 -0.52971454074E+02 -0.17302772971E+03  0.35938770138E+03  0.18800000000E+03 0.  0.
<mgrwt>
<rscale>  0 0.63727599E+03</rscale>
<asrwt>0</asrwt>
<pdfrwt beam="1">  1        2 0.89567216E-01 0.63727599E+03</pdfrwt>
<pdfrwt beam="2">  1       -2 0.23133960E-01 0.63727599E+03</pdfrwt>
<totfact> 0.85108091E+02</totfact>
</mgrwt>
</event>
<event>
 4    1  0.6024609E-005  0.4263318E+03  0.7818608E-02  0.1035025E+00
          2   -1    0    0  501    0  0.00000000000E+00  0.00000000000E+00  0.12107833775E+04  0.12107833775E+04  0.25500000000E-02 0.  1.
         -2   -1    0    0    0  501 -0.00000000000E+00 -0.00000000000E+00 -0.37529172433E+02  0.37529172519E+02  0.25500000000E-02 0. -1.
    5000001    1    1    2    0    0 -0.83070189766E+02 -0.22436815764E+02  0.73853606206E+03  0.76693127599E+03  0.18800000000E+03 0.  0.
   -5000001    1    1    2    0    0  0.83070189766E+02  0.22436815764E+02  0.43471814301E+03  0.48138127404E+03  0.18800000000E+03 0.  0.
<mgrwt>
<rscale>  0 0.42633179E+03</rscale>
<asrwt>0</asrwt>
<pdfrwt beam="1">  1        2 0.17296907E+00 0.42633179E+03</pdfrwt>
<pdfrwt beam="2">  1       -2 0.53613100E-02 0.42633179E+03</pdfrwt>
<totfact> 0.39075923E+03</totfact>
</mgrwt>
</event>
<event>
 4    1  0.6024609E-005  0.8559664E+03  0.7818608E-02  0.9482364E-01
          2   -1    0    0  501    0  0.00000000000E+00  0.00000000000E+00  0.37257368259E+04  0.37257368259E+04  0.25500000000E-02 0.  1.
         -2   -1    0    0    0  501 -0.00000000000E+00 -0.00000000000E+00 -0.49163332667E+02  0.49163332733E+02  0.25500000000E-02 0. -1.
    5000001    1    1    2    0    0  0.29712384748E+03 -0.12405402889E+03  0.27649716017E+04  0.27899971221E+04  0.18800000000E+03 0.  0.
   -5000001    1    1    2    0    0 -0.29712384748E+03  0.12405402889E+03  0.91160189149E+03  0.98490303654E+03  0.18800000000E+03 0.  0.
<mgrwt>
<rscale>  0 0.85596645E+03</rscale>
<asrwt>0</asrwt>
<pdfrwt beam="1">  1        2 0.53224832E+00 0.85596645E+03</pdfrwt>
<pdfrwt beam="2">  1       -2 0.70233305E-02 0.85596645E+03</pdfrwt>
<totfact> 0.11133593E+02</totfact>
</mgrwt>
</event>
<event>
 4    1  0.6024609E-005  0.5870667E+03  0.7818608E-02  0.9932608E-01
          2   -1    0    0  501    0  0.00000000000E+00  0.00000000000E+00  0.58908044362E+03  0.58908044362E+03  0.25500000000E-02 0.  1.
         -2   -1    0    0    0  501 -0.00000000000E+00 -0.00000000000E+00 -0.14626497047E+03  0.14626497049E+03  0.25500000000E-02 0. -1.
    5000001    1    1    2    0    0  0.13109124726E+03  0.18198654061E+03  0.24980054981E+03  0.38477049102E+03  0.18800000000E+03 0.  0.
   -5000001    1    1    2    0    0 -0.13109124726E+03 -0.18198654061E+03  0.19301492333E+03  0.35057492309E+03  0.18800000000E+03 0.  0.
<mgrwt>
<rscale>  0 0.58706672E+03</rscale>
<asrwt>0</asrwt>
<pdfrwt beam="1">  1        2 0.84154349E-01 0.58706672E+03</pdfrwt>
<pdfrwt beam="2">  1       -2 0.20894996E-01 0.58706672E+03</pdfrwt>
<totfact> 0.10971427E+03</totfact>
</mgrwt>
</event>
<event>
 4    1  0.6024609E-005  0.5367959E+03  0.7818608E-02  0.1004597E+00
         -2   -1    0    0    0  501 -0.00000000000E+00  0.00000000000E+00  0.41471211409E+02  0.41471211487E+02  0.25500000000E-02 0. -1.
          2   -1    0    0  501    0  0.00000000000E+00 -0.00000000000E+00 -0.17370470732E+04  0.17370470732E+04  0.25500000000E-02 0.  1.
    5000001    1    1    2    0    0 -0.12889474656E+03 -0.86633396377E+02 -0.12193147335E+04  0.12434595371E+04  0.18800000000E+03 0.  0.
   -5000001    1    1    2    0    0  0.12889474656E+03  0.86633396377E+02 -0.47626112830E+03  0.53505874761E+03  0.18800000000E+03 0.  0.
<mgrwt>
<rscale>  0 0.53679585E+03</rscale>
<asrwt>0</asrwt>
<pdfrwt beam="1">  1        2 0.24814954E+00 0.53679585E+03</pdfrwt>
<pdfrwt beam="2">  1       -2 0.59244599E-02 0.53679585E+03</pdfrwt>
<totfact> 0.17746331E+03</totfact>
</mgrwt>
</event>
<event>
 4    1  0.6024609E-005  0.7239944E+03  0.7818608E-02  0.9677056E-01
          2   -1    0    0  501    0  0.00000000000E+00  0.00000000000E+00  0.95007185713E+02  0.95007185747E+02  0.25500000000E-02 0.  1.
         -2   -1    0    0    0  501 -0.00000000000E+00 -0.00000000000E+00 -0.13792848715E+04  0.13792848715E+04  0.25500000000E-02 0. -1.
    5000001    1    1    2    0    0 -0.11948674763E+02 -0.27728990500E+03 -0.36393170572E+03  0.49479566355E+03  0.18800000000E+03 0.  0.
   -5000001    1    1    2    0    0  0.11948674763E+02  0.27728990500E+03 -0.92034598010E+03  0.97949639373E+03  0.18800000000E+03 0.  0.
<mgrwt>
<rscale>  0 0.72399440E+03</rscale>
<asrwt>0</asrwt>
<pdfrwt beam="1">  1        2 0.13572456E-01 0.72399440E+03</pdfrwt>
<pdfrwt beam="2">  1       -2 0.19704068E+00 0.72399440E+03</pdfrwt>
<totfact> 0.64231116E+01</totfact>
</mgrwt>
</event>
<event>
 4    1  0.6024609E-005  0.5889013E+03  0.7818608E-02  0.9928704E-01
         -2   -1    0    0    0  501 -0.00000000000E+00  0.00000000000E+00  0.59140740504E+02  0.59140740559E+02  0.25500000000E-02 0. -1.
          2   -1    0    0  501    0  0.00000000000E+00 -0.00000000000E+00 -0.14660144970E+04  0.14660144970E+04  0.25500000000E-02 0.  1.
    5000001    1    1    2    0    0 -0.17655785842E+02  0.20351914171E+03 -0.44935056096E+03  0.52819664374E+03  0.18800000000E+03 0.  0.
   -5000001    1    1    2    0    0  0.17655785842E+02 -0.20351914171E+03 -0.95752319555E+03  0.99695859384E+03  0.18800000000E+03 0.  0.
<mgrwt>
<rscale>  0 0.58890129E+03</rscale>
<asrwt>0</asrwt>
<pdfrwt beam="1">  1        2 0.20943062E+00 0.58890129E+03</pdfrwt>
<pdfrwt beam="2">  1       -2 0.84486781E-02 0.58890129E+03</pdfrwt>
<totfact> 0.13930730E+03</totfact>
</mgrwt>
</event>
<event>
 4    1  0.6024609E-005  0.6868469E+03  0.7818608E-02  0.9739994E-01
         -2   -1    0    0    0  501 -0.00000000000E+00  0.00000000000E+00  0.85462541930E+02  0.85462541968E+02  0.25500000000E-02 0. -1.
          2   -1    0    0  501    0  0.00000000000E+00 -0.00000000000E+00 -0.13800157399E+04  0.13800157399E+04  0.25500000000E-02 0.  1.
    5000001    1    1    2    0    0  0.26813214171E+03  0.10297497979E+03 -0.66828623028E+03  0.75129832787E+03  0.18800000000E+03 0.  0.
   -5000001    1    1    2    0    0 -0.26813214171E+03 -0.10297497979E+03 -0.62626696770E+03  0.71417995401E+03  0.18800000000E+03 0.  0.
<mgrwt>
<rscale>  0 0.68684686E+03</rscale>
<asrwt>0</asrwt>
<pdfrwt beam="1">  1        2 0.19714509E+00 0.68684686E+03</pdfrwt>
<pdfrwt beam="2">  1       -2 0.12208935E-01 0.68684686E+03</pdfrwt>
<totfact> 0.84735018E+02</totfact>
</mgrwt>
</event>
<event>
 4    1  0.6024609E-005  0.7076109E+03  0.7818608E-02  0.9704304E-01
          2   -1    0    0  501    0  0.00000000000E+00  0.00000000000E+00  0.20868086934E+03  0.20868086936E+03  0.25500000000E-02 0.  1.
         -2   -1    0    0    0  501 -0.00000000000E+00 -0.00000000000E+00 -0.59985513898E+03  0.59985513899E+03  0.25500000000E-02 0. -1.
    5000001    1    1    2    0    0 -0.22858659851E+03  0.18298860475E+03 -0.26872987030E+03  0.43965487110E+03  0.18800000000E+03 0.  0.
   -5000001    1    1    2    0    0  0.22858659851E+03 -0.18298860475E+03 -0.12244439934E+03  0.36888113725E+03  0.18800000000E+03 0.  0.
<mgrwt>
<rscale>  0 0.70761089E+03</rscale>
<asrwt>0</asrwt>
<pdfrwt beam="1">  1        2 0.29811553E-01 0.70761089E+03</pdfrwt>
<pdfrwt beam="2">  1       -2 0.85693591E-01 0.70761089E+03</pdfrwt>
<totfact> 0.21402209E+02</totfact>
</mgrwt>
</event>
<event>
 4    1  0.6024609E-005  0.5163545E+03  0.7818608E-02  0.1009596E+00
         -2   -1    0    0    0  501 -0.00000000000E+00  0.00000000000E+00  0.20814206899E+02  0.20814207055E+02  0.25500000000E-02 0. -1.
          2   -1    0    0  501    0  0.00000000000E+00 -0.00000000000E+00 -0.32024032505E+04  0.32024032505E+04  0.25500000000E-02 0.  1.
    5000001    1    1    2    0    0 -0.73660304285E+02  0.12611890656E+03 -0.22143852517E+04  0.22271456759E+04  0.18800000000E+03 0.  0.
   -5000001    1    1    2    0    0  0.73660304285E+02 -0.12611890656E+03 -0.96720379197E+03  0.99607178166E+03  0.18800000000E+03 0.  0.
<mgrwt>
<rscale>  0 0.51635447E+03</rscale>
<asrwt>0</asrwt>
<pdfrwt beam="1">  1        2 0.45748586E+00 0.51635447E+03</pdfrwt>
<pdfrwt beam="2">  1       -2 0.29734602E-02 0.51635447E+03</pdfrwt>
<totfact> 0.89539341E+02</totfact>
</mgrwt>
</event>
<event>
 4    1  0.6024609E-005  0.4939609E+03  0.7818608E-02  0.1015367E+00
          2   -1    0    0  501    0  0.00000000000E+00  0.00000000000E+00  0.24856329314E+04  0.24856329314E+04  0.25500000000E-02 0.  1.
         -2   -1    0    0    0  501 -0.00000000000E+00 -0.00000000000E+00 -0.24540769359E+02  0.24540769492E+02  0.25500000000E-02 0. -1.
    5000001    1    1    2    0    0 -0.73989098739E+02 -0.14197508152E+03  0.12554590514E+04  0.12795126964E+04  0.18800000000E+03 0.  0.
   -5000001    1    1    2    0    0  0.73989098739E+02  0.14197508152E+03  0.12056331106E+04  0.12306610045E+04  0.18800000000E+03 0.  0.
<mgrwt>
<rscale>  0 0.49396091E+03</rscale>
<asrwt>0</asrwt>
<pdfrwt beam="1">  1        2 0.35509033E+00 0.49396091E+03</pdfrwt>
<pdfrwt beam="2">  1       -2 0.35058250E-02 0.49396091E+03</pdfrwt>
<totfact> 0.16784807E+03</totfact>
</mgrwt>
</event>
<event>
 4    1  0.6024609E-005  0.4381286E+03  0.7818608E-02  0.1031323E+00
          2   -1    0    0  501    0  0.00000000000E+00  0.00000000000E+00  0.87226987511E+03  0.87226987511E+03  0.25500000000E-02 0.  1.
         -2   -1    0    0    0  501 -0.00000000000E+00 -0.00000000000E+00 -0.55016420082E+02  0.55016420141E+02  0.25500000000E-02 0. -1.
    5000001    1    1    2    0    0 -0.49921477819E+02 -0.99211186862E+02  0.44590019424E+03  0.49649370265E+03  0.18800000000E+03 0.  0.
   -5000001    1    1    2    0    0  0.49921477819E+02  0.99211186862E+02  0.37135326079E+03  0.43079259260E+03  0.18800000000E+03 0.  0.
<mgrwt>
<rscale>  0 0.43812859E+03</rscale>
<asrwt>0</asrwt>
<pdfrwt beam="1">  1        2 0.12460998E+00 0.43812859E+03</pdfrwt>
<pdfrwt beam="2">  1       -2 0.78594884E-02 0.43812859E+03</pdfrwt>
<totfact> 0.34153607E+03</totfact>
</mgrwt>
</event>
<event>
 4    1  0.6024609E-005  0.5849595E+03  0.7818608E-02  0.9937111E-01
          2   -1    0    0  501    0  0.00000000000E+00  0.00000000000E+00  0.10339561690E+04  0.10339561690E+04  0.25500000000E-02 0.  1.
         -2   -1    0    0    0  501 -0.00000000000E+00 -0.00000000000E+00 -0.82735025848E+02  0.82735025887E+02  0.25500000000E-02 0. -1.
    5000001    1    1    2    0    0  0.21169758194E+03  0.66425359093E+02  0.53513348939E+03  0.60904847590E+03  0.18800000000E+03 0.  0.
   -5000001    1    1    2    0    0 -0.21169758194E+03 -0.66425359093E+02  0.41608765376E+03  0.50764271899E+03  0.18800000000E+03 0.  0.
<mgrwt>
<rscale>  0 0.58495945E+03</rscale>
<asrwt>0</asrwt>
<pdfrwt beam="1">  1        2 0.14770802E+00 0.58495945E+03</pdfrwt>
<pdfrwt beam="2">  1       -2 0.11819290E-01 0.58495945E+03</pdfrwt>
<totfact> 0.14039292E+03</totfact>
</mgrwt>
</event>
<event>
 4    1  0.6024609E-005  0.1636983E+04  0.7818608E-02  0.8798145E-01
          2   -1    0    0  501    0  0.00000000000E+00  0.00000000000E+00  0.21627638736E+04  0.21627638736E+04  0.25500000000E-02 0.  1.
         -2   -1    0    0    0  501 -0.00000000000E+00 -0.00000000000E+00 -0.30975569768E+03  0.30975569769E+03  0.25500000000E-02 0. -1.
    5000001    1    1    2    0    0  0.16869002080E+03  0.69534853253E+03  0.14554041111E+04  0.16326392839E+04  0.18800000000E+03 0.  0.
   -5000001    1    1    2    0    0 -0.16869002080E+03 -0.69534853253E+03  0.39760406491E+03  0.83988028745E+03  0.18800000000E+03 0.  0.
<mgrwt>
<rscale>  0 0.16369831E+04</rscale>
<asrwt>0</asrwt>
<pdfrwt beam="1">  1        2 0.30896628E+00 0.16369831E+04</pdfrwt>
<pdfrwt beam="2">  1       -2 0.44250812E-01 0.16369831E+04</pdfrwt>
<totfact> 0.30685443E+01</totfact>
</mgrwt>
</event>
<event>
 4    1  0.6024609E-005  0.6440496E+03  0.7818608E-02  0.9818009E-01
          2   -1    0    0  501    0  0.00000000000E+00  0.00000000000E+00  0.11627463621E+04  0.11627463621E+04  0.25500000000E-02 0.  1.
         -2   -1    0    0    0  501 -0.00000000000E+00 -0.00000000000E+00 -0.89185376030E+02  0.89185376066E+02  0.25500000000E-02 0. -1.
    5000001    1    1    2    0    0  0.16792558299E+03 -0.18541589376E+03  0.68453711872E+03  0.75267065971E+03  0.18800000000E+03 0.  0.
   -5000001    1    1    2    0    0 -0.16792558299E+03  0.18541589376E+03  0.38902386730E+03  0.49926107841E+03  0.18800000000E+03 0.  0.
<mgrwt>
<rscale>  0 0.64404960E+03</rscale>
<asrwt>0</asrwt>
<pdfrwt beam="1">  1        2 0.16610662E+00 0.64404960E+03</pdfrwt>
<pdfrwt beam="2">  1       -2 0.12740768E-01 0.64404960E+03</pdfrwt>
<totfact> 0.10418086E+03</totfact>
</mgrwt>
</event>
<event>
 4    1  0.6024609E-005  0.6693733E+03  0.7818608E-02  0.9771091E-01
          2   -1    0    0  501    0  0.00000000000E+00  0.00000000000E+00  0.34024350207E+03  0.34024350208E+03  0.25500000000E-02 0.  1.
         -2   -1    0    0    0  501 -0.00000000000E+00 -0.00000000000E+00 -0.32922055189E+03  0.32922055190E+03  0.25500000000E-02 0. -1.
    5000001    1    1    2    0    0  0.73467564177E+02  0.25279357011E+03  0.91366468054E+02  0.33614565825E+03  0.18800000000E+03 0.  0.
   -5000001    1    1    2    0    0 -0.73467564177E+02 -0.25279357011E+03 -0.80343517869E+02  0.33331839574E+03  0.18800000000E+03 0.  0.
<mgrwt>
<rscale>  0 0.66937330E+03</rscale>
<asrwt>0</asrwt>
<pdfrwt beam="1">  1        2 0.48606215E-01 0.66937330E+03</pdfrwt>
<pdfrwt beam="2">  1       -2 0.47031507E-01 0.66937330E+03</pdfrwt>
<totfact> 0.44762792E+02</totfact>
</mgrwt>
</event>
<event>
 4    1  0.6024609E-005  0.6882354E+03  0.7818608E-02  0.9737565E-01
          2   -1    0    0  501    0  0.00000000000E+00  0.00000000000E+00  0.66826474669E+03  0.66826474670E+03  0.25500000000E-02 0. -1.
         -2   -1    0    0    0  501 -0.00000000000E+00 -0.00000000000E+00 -0.17720073763E+03  0.17720073765E+03  0.25500000000E-02 0.  1.
    5000001    1    1    2    0    0 -0.25579427964E+03 -0.13174196421E+03  0.26631965908E+03  0.43480664605E+03  0.18800000000E+03 0.  0.
   -5000001    1    1    2    0    0  0.25579427964E+03  0.13174196421E+03  0.22474434997E+03  0.41065883830E+03  0.18800000000E+03 0.  0.
<mgrwt>
<rscale>  0 0.68823544E+03</rscale>
<asrwt>0</asrwt>
<pdfrwt beam="1">  1        2 0.95466392E-01 0.68823544E+03</pdfrwt>
<pdfrwt beam="2">  1       -2 0.25314391E-01 0.68823544E+03</pdfrwt>
<totfact> 0.67011554E+02</totfact>
</mgrwt>
</event>
<event>
 4    1  0.6024609E-005  0.5597634E+03  0.7818608E-02  0.9992590E-01
          2   -1    0    0  501    0  0.00000000000E+00  0.00000000000E+00  0.48521425791E+03  0.48521425792E+03  0.25500000000E-02 0.  1.
         -2   -1    0    0    0  501 -0.00000000000E+00 -0.00000000000E+00 -0.16144157280E+03  0.16144157282E+03  0.25500000000E-02 0. -1.
    5000001    1    1    2    0    0  0.47465367433E+02 -0.19560229232E+03  0.10439651879E+03  0.29454346200E+03  0.18800000000E+03 0.  0.
   -5000001    1    1    2    0    0 -0.47465367433E+02  0.19560229232E+03  0.21937616632E+03  0.35211236874E+03  0.18800000000E+03 0.  0.
<mgrwt>
<rscale>  0 0.55976335E+03</rscale>
<asrwt>0</asrwt>
<pdfrwt beam="1">  1        2 0.69316324E-01 0.55976335E+03</pdfrwt>
<pdfrwt beam="2">  1       -2 0.23063081E-01 0.55976335E+03</pdfrwt>
<totfact> 0.11525479E+03</totfact>
</mgrwt>
</event>
<event>
 4    1  0.6024609E-005  0.5289613E+03  0.7818608E-02  0.1006484E+00
          2   -1    0    0  501    0  0.00000000000E+00  0.00000000000E+00  0.71953604084E+03  0.71953604085E+03  0.25500000000E-02 0.  1.
         -2   -1    0    0    0  501 -0.00000000000E+00 -0.00000000000E+00 -0.97215460006E+02  0.97215460039E+02  0.25500000000E-02 0. -1.
    5000001    1    1    2    0    0 -0.12643214314E+03 -0.13505065059E+03  0.34134914696E+03  0.43137803048E+03  0.18800000000E+03 0.  0.
   -5000001    1    1    2    0    0  0.12643214314E+03  0.13505065059E+03  0.28097143388E+03  0.38537347041E+03  0.18800000000E+03 0.  0.
<mgrwt>
<rscale>  0 0.52896135E+03</rscale>
<asrwt>0</asrwt>
<pdfrwt beam="1">  1        2 0.10279086E+00 0.52896135E+03</pdfrwt>
<pdfrwt beam="2">  1       -2 0.13887923E-01 0.52896135E+03</pdfrwt>
<totfact> 0.17337402E+03</totfact>
</mgrwt>
</event>
<event>
 4    1  0.6024609E-005  0.5094405E+03  0.7818608E-02  0.1011344E+00
         -2   -1    0    0    0  501 -0.00000000000E+00  0.00000000000E+00  0.21825134864E+02  0.21825135013E+02  0.25500000000E-02 0. -1.
          2   -1    0    0  501    0  0.00000000000E+00 -0.00000000000E+00 -0.29728298530E+04  0.29728298530E+04  0.25500000000E-02 0.  1.
    5000001    1    1    2    0    0 -0.15422582312E+03 -0.63302272581E+02 -0.12299017384E+04  0.12553067627E+04  0.18800000000E+03 0.  0.
   -5000001    1    1    2    0    0  0.15422582312E+03  0.63302272581E+02 -0.17211029797E+04  0.17393482253E+04  0.18800000000E+03 0.  0.
<mgrwt>
<rscale>  0 0.50944053E+03</rscale>
<asrwt>0</asrwt>
<pdfrwt beam="1">  1        2 0.42468972E+00 0.50944053E+03</pdfrwt>
<pdfrwt beam="2">  1       -2 0.31178783E-02 0.50944053E+03</pdfrwt>
<totfact> 0.11145144E+03</totfact>
</mgrwt>
</event>
<event>
 4    1  0.6024609E-005  0.7651291E+03  0.7818608E-02  0.9611910E-01
          2   -1    0    0  501    0  0.00000000000E+00  0.00000000000E+00  0.19785350599E+04  0.19785350599E+04  0.25500000000E-02 0.  1.
         -2   -1    0    0    0  501 -0.00000000000E+00 -0.00000000000E+00 -0.73971711532E+02  0.73971711576E+02  0.25500000000E-02 0. -1.
    5000001    1    1    2    0    0  0.24558664956E+03  0.21074356913E+03  0.11649662812E+04  0.12236078174E+04  0.18800000000E+03 0.  0.
   -5000001    1    1    2    0    0 -0.24558664956E+03 -0.21074356913E+03  0.73959706714E+03  0.82889895409E+03  0.18800000000E+03 0.  0.
<mgrwt>
<rscale>  0 0.76512907E+03</rscale>
<asrwt>0</asrwt>
<pdfrwt beam="1">  1        2 0.28264791E+00 0.76512907E+03</pdfrwt>
<pdfrwt beam="2">  1       -2 0.10567386E-01 0.76512907E+03</pdfrwt>
<totfact> 0.52575919E+02</totfact>
</mgrwt>
</event>
<event>
 4    1  0.6024609E-005  0.4669887E+03  0.7818608E-02  0.1022774E+00
          2   -1    0    0  501    0  0.00000000000E+00  0.00000000000E+00  0.18523880795E+03  0.18523880797E+03  0.25500000000E-02 0.  1.
         -2   -1    0    0    0  501 -0.00000000000E+00 -0.00000000000E+00 -0.29432061535E+03  0.29432061536E+03  0.25500000000E-02 0. -1.
    5000001    1    1    2    0    0 -0.91630469321E+02 -0.10191088896E+03 -0.34166779049E+02  0.23514536140E+03  0.18800000000E+03 0.  0.
   -5000001    1    1    2    0    0  0.91630469321E+02  0.10191088896E+03 -0.74915028345E+02  0.24441406193E+03  0.18800000000E+03 0.  0.
<mgrwt>
<rscale>  0 0.46698865E+03</rscale>
<asrwt>0</asrwt>
<pdfrwt beam="1">  1        2 0.26462687E-01 0.46698865E+03</pdfrwt>
<pdfrwt beam="2">  1       -2 0.42045802E-01 0.46698865E+03</pdfrwt>
<totfact> 0.11005524E+03</totfact>
</mgrwt>
</event>
<event>
 4    1  0.6024609E-005  0.4823375E+03  0.7818608E-02  0.1018495E+00
          2   -1    0    0  501    0  0.00000000000E+00  0.00000000000E+00  0.33531200977E+03  0.33531200978E+03  0.25500000000E-02 0.  1.
         -2   -1    0    0    0  501 -0.00000000000E+00 -0.00000000000E+00 -0.17345745637E+03  0.17345745639E+03  0.25500000000E-02 0. -1.
    5000001    1    1    2    0    0  0.32243928952E+02 -0.13436410633E+03  0.14530449766E+03  0.27486502336E+03  0.18800000000E+03 0.  0.
   -5000001    1    1    2    0    0 -0.32243928952E+02  0.13436410633E+03  0.16550055734E+02  0.23390444281E+03  0.18800000000E+03 0.  0.
<mgrwt>
<rscale>  0 0.48233751E+03</rscale>
<asrwt>0</asrwt>
<pdfrwt beam="1">  1        2 0.47901715E-01 0.48233751E+03</pdfrwt>
<pdfrwt beam="2">  1       -2 0.24779637E-01 0.48233751E+03</pdfrwt>
<totfact> 0.15282781E+03</totfact>
</mgrwt>
</event>
<event>
 4    1  0.6024609E-005  0.6460673E+03  0.7818608E-02  0.9814187E-01
          2   -1    0    0  501    0  0.00000000000E+00  0.00000000000E+00  0.97745553695E+03  0.97745553695E+03  0.25500000000E-02 0.  1.
         -2   -1    0    0    0  501 -0.00000000000E+00 -0.00000000000E+00 -0.10675753419E+03  0.10675753422E+03  0.25500000000E-02 0. -1.
    5000001    1    1    2    0    0  0.16420946564E+03 -0.11956195173E+03  0.15580873727E+03  0.31761639050E+03  0.18800000000E+03 0.  0.
   -5000001    1    1    2    0    0 -0.16420946564E+03  0.11956195173E+03  0.71488926548E+03  0.76659668067E+03  0.18800000000E+03 0.  0.
<mgrwt>
<rscale>  0 0.64606731E+03</rscale>
<asrwt>0</asrwt>
<pdfrwt beam="1">  1        2 0.13963651E+00 0.64606731E+03</pdfrwt>
<pdfrwt beam="2">  1       -2 0.15251076E-01 0.64606731E+03</pdfrwt>
<totfact> 0.99248175E+02</totfact>
</mgrwt>
</event>
<event>
 4    1  0.6024609E-005  0.6466884E+03  0.7818608E-02  0.9813013E-01
         -2   -1    0    0    0  501 -0.00000000000E+00  0.00000000000E+00  0.14357325543E+03  0.14357325545E+03  0.25500000000E-02 0. -1.
          2   -1    0    0  501    0  0.00000000000E+00 -0.00000000000E+00 -0.72820983206E+03  0.72820983207E+03  0.25500000000E-02 0.  1.
    5000001    1    1    2    0    0 -0.22270139630E+03  0.12853589804E+03 -0.21738110494E+03  0.38563704928E+03  0.18800000000E+03 0.  0.
   -5000001    1    1    2    0    0  0.22270139630E+03 -0.12853589804E+03 -0.36725547170E+03  0.48614603824E+03  0.18800000000E+03 0.  0.
<mgrwt>
<rscale>  0 0.64668835E+03</rscale>
<asrwt>0</asrwt>
<pdfrwt beam="1">  1        2 0.10402997E+00 0.64668835E+03</pdfrwt>
<pdfrwt beam="2">  1       -2 0.20510465E-01 0.64668835E+03</pdfrwt>
<totfact> 0.87720285E+02</totfact>
</mgrwt>
</event>
<event>
 4    1  0.6024609E-005  0.7032698E+03  0.7818608E-02  0.9711657E-01
         -2   -1    0    0    0  501 -0.00000000000E+00  0.00000000000E+00  0.25417518928E+03  0.25417518929E+03  0.25500000000E-02 0. -1.
          2   -1    0    0  501    0  0.00000000000E+00 -0.00000000000E+00 -0.48646416177E+03  0.48646416178E+03  0.25500000000E-02 0.  1.
    5000001    1    1    2    0    0 -0.24625515106E+03 -0.69487495551E+02  0.42990751496E+02  0.32040960687E+03  0.18800000000E+03 0.  0.
   -5000001    1    1    2    0    0  0.24625515106E+03  0.69487495551E+02 -0.27527972399E+03  0.42022974419E+03  0.18800000000E+03 0.  0.
<mgrwt>
<rscale>  0 0.70326985E+03</rscale>
<asrwt>0</asrwt>
<pdfrwt beam="1">  1        2 0.69494880E-01 0.70326985E+03</pdfrwt>
<pdfrwt beam="2">  1       -2 0.36310741E-01 0.70326985E+03</pdfrwt>
<totfact> 0.49746365E+02</totfact>
</mgrwt>
</event>
<event>
 4    1  0.6024609E-005  0.6982594E+03  0.7818608E-02  0.9720213E-01
          2   -1    0    0  501    0  0.00000000000E+00  0.00000000000E+00  0.25504974064E+03  0.25504974065E+03  0.25500000000E-02 0. -1.
         -2   -1    0    0    0  501 -0.00000000000E+00 -0.00000000000E+00 -0.47791287079E+03  0.47791287080E+03  0.25500000000E-02 0.  1.
    5000001    1    1    2    0    0 -0.17622213255E+03  0.22881144518E+03 -0.52623686040E+02  0.34860030089E+03  0.18800000000E+03 0.  0.
   -5000001    1    1    2    0    0  0.17622213255E+03 -0.22881144518E+03 -0.17023944411E+03  0.38436231056E+03  0.18800000000E+03 0.  0.
<mgrwt>
<rscale>  0 0.69825942E+03</rscale>
<asrwt>0</asrwt>
<pdfrwt beam="1">  1        2 0.36435677E-01 0.69825942E+03</pdfrwt>
<pdfrwt beam="2">  1       -2 0.68273267E-01 0.69825942E+03</pdfrwt>
<totfact> 0.28324726E+02</totfact>
</mgrwt>
</event>
<event>
 4    1  0.6024609E-005  0.4668273E+03  0.7818608E-02  0.1022820E+00
         -2   -1    0    0    0  501 -0.00000000000E+00  0.00000000000E+00  0.41046791111E+02  0.41046791190E+02  0.25500000000E-02 0. -1.
          2   -1    0    0  501    0  0.00000000000E+00 -0.00000000000E+00 -0.13273127347E+04  0.13273127347E+04  0.25500000000E-02 0.  1.
    5000001    1    1    2    0    0  0.95359848322E+01 -0.72674182675E+02 -0.98703861429E+03  0.10074530748E+04  0.18800000000E+03 0.  0.
   -5000001    1    1    2    0    0 -0.95359848322E+01  0.72674182675E+02 -0.29922732927E+03  0.36090645106E+03  0.18800000000E+03 0.  0.
<mgrwt>
<rscale>  0 0.46682729E+03</rscale>
<asrwt>0</asrwt>
<pdfrwt beam="1">  1        2 0.18961608E+00 0.46682729E+03</pdfrwt>
<pdfrwt beam="2">  1       -2 0.58638281E-02 0.46682729E+03</pdfrwt>
<totfact> 0.29408368E+03</totfact>
</mgrwt>
</event>
<event>
 4    1  0.6024609E-005  0.4905974E+03  0.7818608E-02  0.1016263E+00
         -2   -1    0    0    0  501 -0.00000000000E+00  0.00000000000E+00  0.64166513866E+02  0.64166513916E+02  0.25500000000E-02 0. -1.
          2   -1    0    0  501    0  0.00000000000E+00 -0.00000000000E+00 -0.93773920832E+03  0.93773920832E+03  0.25500000000E-02 0.  1.
    5000001    1    1    2    0    0  0.92181379174E+02 -0.39356755601E+02 -0.68507387626E+03  0.71743750725E+03  0.18800000000E+03 0.  0.
   -5000001    1    1    2    0    0 -0.92181379174E+02  0.39356755601E+02 -0.18849881819E+03  0.28446821499E+03  0.18800000000E+03 0.  0.
<mgrwt>
<rscale>  0 0.49059742E+03</rscale>
<asrwt>0</asrwt>
<pdfrwt beam="1">  1        2 0.13396274E+00 0.49059742E+03</pdfrwt>
<pdfrwt beam="2">  1       -2 0.91666454E-02 0.49059742E+03</pdfrwt>
<totfact> 0.24303185E+03</totfact>
</mgrwt>
</event>
<event>
 4    1  0.6024609E-005  0.6818001E+03  0.7818608E-02  0.9748873E-01
         -2   -1    0    0    0  501 -0.00000000000E+00  0.00000000000E+00  0.11759293527E+04  0.11759293527E+04  0.25500000000E-02 0. -1.
          2   -1    0    0  501    0  0.00000000000E+00 -0.00000000000E+00 -0.98826373947E+02  0.98826373980E+02  0.25500000000E-02 0.  1.
    5000001    1    1    2    0    0 -0.23112409083E+03  0.16427563434E+03  0.49827690585E+03  0.60334791315E+03  0.18800000000E+03 0.  0.
   -5000001    1    1    2    0    0  0.23112409083E+03 -0.16427563434E+03  0.57882607291E+03  0.67140781354E+03  0.18800000000E+03 0.  0.
<mgrwt>
<rscale>  0 0.68180007E+03</rscale>
<asrwt>0</asrwt>
<pdfrwt beam="1">  1        2 0.14118054E-01 0.68180007E+03</pdfrwt>
<pdfrwt beam="2">  1       -2 0.16798990E+00 0.68180007E+03</pdfrwt>
<totfact> 0.96669265E+01</totfact>
</mgrwt>
</event>
<event>
 4    1  0.6024609E-005  0.5198002E+03  0.7818608E-02  0.1008736E+00
          2   -1    0    0  501    0  0.00000000000E+00  0.00000000000E+00  0.20039651467E+04  0.20039651467E+04  0.25500000000E-02 0.  1.
         -2   -1    0    0    0  501 -0.00000000000E+00 -0.00000000000E+00 -0.33707201547E+02  0.33707201643E+02  0.25500000000E-02 0. -1.
    5000001    1    1    2    0    0  0.27292791977E+02  0.17586411240E+03  0.89479838669E+03  0.93149408766E+03  0.18800000000E+03 0.  0.
   -5000001    1    1    2    0    0 -0.27292791977E+02 -0.17586411240E+03  0.10754595585E+04  0.11061782607E+04  0.18800000000E+03 0.  0.
<mgrwt>
<rscale>  0 0.51980018E+03</rscale>
<asrwt>0</asrwt>
<pdfrwt beam="1">  1        2 0.28628068E+00 0.51980018E+03</pdfrwt>
<pdfrwt beam="2">  1       -2 0.48153154E-02 0.51980018E+03</pdfrwt>
<totfact> 0.17999275E+03</totfact>
</mgrwt>
</event>
<event>
 4    1  0.6024609E-005  0.4545804E+03  0.7818608E-02  0.1026365E+00
         -2   -1    0    0    0  501 -0.00000000000E+00  0.00000000000E+00  0.58437294565E+02  0.58437294621E+02  0.25500000000E-02 0. -1.
          2   -1    0    0  501    0  0.00000000000E+00 -0.00000000000E+00 -0.88403869653E+03  0.88403869654E+03  0.25500000000E-02 0.  1.
    5000001    1    1    2    0    0  0.70099604885E+02  0.10662066510E+03 -0.42505046630E+03  0.48196869165E+03  0.18800000000E+03 0.  0.
   -5000001    1    1    2    0    0 -0.70099604885E+02 -0.10662066510E+03 -0.40055093567E+03  0.46050729951E+03  0.18800000000E+03 0.  0.
<mgrwt>
<rscale>  0 0.45458038E+03</rscale>
<asrwt>0</asrwt>
<pdfrwt beam="1">  1        2 0.12629123E+00 0.45458038E+03</pdfrwt>
<pdfrwt beam="2">  1       -2 0.83481855E-02 0.45458038E+03</pdfrwt>
<totfact> 0.30509944E+03</totfact>
</mgrwt>
</event>
<event>
 4    1  0.6024609E-005  0.4875122E+03  0.7818608E-02  0.1017091E+00
          2   -1    0    0  501    0  0.00000000000E+00  0.00000000000E+00  0.10988032411E+04  0.10988032411E+04  0.25500000000E-02 0.  1.
         -2   -1    0    0    0  501 -0.00000000000E+00 -0.00000000000E+00 -0.54074327974E+02  0.54074328034E+02  0.25500000000E-02 0. -1.
    5000001    1    1    2    0    0  0.86871231199E+02  0.12841093366E+03  0.50796658423E+03  0.56339154181E+03  0.18800000000E+03 0.  0.
   -5000001    1    1    2    0    0 -0.86871231199E+02 -0.12841093366E+03  0.53676232894E+03  0.58948602737E+03  0.18800000000E+03 0.  0.
<mgrwt>
<rscale>  0 0.48751224E+03</rscale>
<asrwt>0</asrwt>
<pdfrwt beam="1">  1        2 0.15697189E+00 0.48751224E+03</pdfrwt>
<pdfrwt beam="2">  1       -2 0.77249039E-02 0.48751224E+03</pdfrwt>
<totfact> 0.25547002E+03</totfact>
</mgrwt>
</event>
<event>
 4    1  0.6024609E-005  0.8009006E+03  0.7818608E-02  0.9558714E-01
          2   -1    0    0  501    0  0.00000000000E+00  0.00000000000E+00  0.21513593160E+04  0.21513593160E+04  0.25500000000E-02 0.  1.
         -2   -1    0    0    0  501 -0.00000000000E+00 -0.00000000000E+00 -0.74539130849E+02  0.74539130893E+02  0.25500000000E-02 0. -1.
    5000001    1    1    2    0    0 -0.12526473568E+03 -0.26280850729E+03  0.15960409691E+04  0.16332330943E+04  0.18800000000E+03 0.  0.
   -5000001    1    1    2    0    0  0.12526473568E+03  0.26280850729E+03  0.48077921612E+03  0.59266535259E+03  0.18800000000E+03 0.  0.
<mgrwt>
<rscale>  0 0.80090063E+03</rscale>
<asrwt>0</asrwt>
<pdfrwt beam="1">  1        2 0.30733704E+00 0.80090063E+03</pdfrwt>
<pdfrwt beam="2">  1       -2 0.10648447E-01 0.80090063E+03</pdfrwt>
<totfact> 0.42340139E+02</totfact>
</mgrwt>
</event>
<event>
 4    1  0.6024609E-005  0.3938410E+03  0.7818608E-02  0.1045933E+00
         -2   -1    0    0    0  501 -0.00000000000E+00  0.00000000000E+00  0.23309992917E+02  0.23309993057E+02  0.25500000000E-02 0. -1.
          2   -1    0    0  501    0  0.00000000000E+00 -0.00000000000E+00 -0.16635651229E+04  0.16635651229E+04  0.25500000000E-02 0.  1.
    5000001    1    1    2    0    0  0.48920056765E+02  0.19428802699E+02 -0.70983857453E+03  0.73619661247E+03  0.18800000000E+03 0.  0.
   -5000001    1    1    2    0    0 -0.48920056765E+02 -0.19428802699E+02 -0.93041655549E+03  0.95067850353E+03  0.18800000000E+03 0.  0.
<mgrwt>
<rscale>  0 0.39384104E+03</rscale>
<asrwt>0</asrwt>
<pdfrwt beam="1">  1        2 0.23765208E+00 0.39384104E+03</pdfrwt>
<pdfrwt beam="2">  1       -2 0.33300001E-02 0.39384104E+03</pdfrwt>
<totfact> 0.46891874E+03</totfact>
</mgrwt>
</event>
<event>
 4    1  0.6024609E-005  0.4604807E+03  0.7818608E-02  0.1024642E+00
          2   -1    0    0  501    0  0.00000000000E+00  0.00000000000E+00  0.31722345423E+03  0.31722345424E+03  0.25500000000E-02 0.  1.
         -2   -1    0    0    0  501 -0.00000000000E+00 -0.00000000000E+00 -0.16710815939E+03  0.16710815941E+03  0.25500000000E-02 0. -1.
    5000001    1    1    2    0    0 -0.11657509465E+03 -0.19867646803E+01  0.14218270881E+03  0.26297076380E+03  0.18800000000E+03 0.  0.
   -5000001    1    1    2    0    0  0.11657509465E+03  0.19867646803E+01  0.79325860285E+01  0.22136084985E+03  0.18800000000E+03 0.  0.
<mgrwt>
<rscale>  0 0.46048074E+03</rscale>
<asrwt>0</asrwt>
<pdfrwt beam="1">  1        2 0.45317636E-01 0.46048074E+03</pdfrwt>
<pdfrwt beam="2">  1       -2 0.23872594E-01 0.46048074E+03</pdfrwt>
<totfact> 0.17348538E+03</totfact>
</mgrwt>
</event>
<event>
 4    1  0.6024609E-005  0.1051957E+04  0.7818608E-02  0.9253326E-01
         -2   -1    0    0    0  501 -0.00000000000E+00  0.00000000000E+00  0.58425606182E+02  0.58425606238E+02  0.25500000000E-02 0. -1.
          2   -1    0    0  501    0  0.00000000000E+00 -0.00000000000E+00 -0.47351385905E+04  0.47351385905E+04  0.25500000000E-02 0.  1.
    5000001    1    1    2    0    0 -0.21732516183E+03  0.30744139473E+03 -0.90054931203E+03  0.99402389336E+03  0.18800000000E+03 0.  0.
   -5000001    1    1    2    0    0  0.21732516183E+03 -0.30744139473E+03 -0.37761636723E+04  0.37995403034E+04  0.18800000000E+03 0.  0.
<mgrwt>
<rscale>  0 0.10519569E+04</rscale>
<asrwt>0</asrwt>
<pdfrwt beam="1">  1        2 0.67644812E+00 0.10519569E+04</pdfrwt>
<pdfrwt beam="2">  1       -2 0.83465182E-02 0.10519569E+04</pdfrwt>
<totfact> 0.15195344E+01</totfact>
</mgrwt>
</event>
<event>
 4    1  0.6024609E-005  0.4535568E+03  0.7818608E-02  0.1026667E+00
          2   -1    0    0  501    0  0.00000000000E+00  0.00000000000E+00  0.11918042453E+04  0.11918042453E+04  0.25500000000E-02 0.  1.
         -2   -1    0    0    0  501 -0.00000000000E+00 -0.00000000000E+00 -0.43151743708E+02  0.43151743784E+02  0.25500000000E-02 0. -1.
    5000001    1    1    2    0    0 -0.83341005015E+02  0.38226711534E+02  0.33574973703E+03  0.39557412771E+03  0.18800000000E+03 0.  0.
   -5000001    1    1    2    0    0  0.83341005015E+02 -0.38226711534E+02  0.81290276460E+03  0.83938186142E+03  0.18800000000E+03 0.  0.
<mgrwt>
<rscale>  0 0.45355675E+03</rscale>
<asrwt>0</asrwt>
<pdfrwt beam="1">  1        2 0.17025775E+00 0.45355675E+03</pdfrwt>
<pdfrwt beam="2">  1       -2 0.61645348E-02 0.45355675E+03</pdfrwt>
<totfact> 0.32247753E+03</totfact>
</mgrwt>
</event>
<event>
 4    1  0.6024609E-005  0.4713959E+03  0.7818608E-02  0.1021527E+00
         -2   -1    0    0    0  501 -0.00000000000E+00  0.00000000000E+00  0.17865710516E+02  0.17865710698E+02  0.25500000000E-02 0. -1.
          2   -1    0    0  501    0  0.00000000000E+00 -0.00000000000E+00 -0.31095057128E+04  0.31095057129E+04  0.25500000000E-02 0.  1.
    5000001    1    1    2    0    0  0.26461128859E+01 -0.13624215024E+03 -0.18145372196E+04  0.18293327326E+04  0.18800000000E+03 0.  0.
   -5000001    1    1    2    0    0 -0.26461128859E+01  0.13624215024E+03 -0.12771027827E+04  0.12980386909E+04  0.18800000000E+03 0.  0.
<mgrwt>
<rscale>  0 0.47139592E+03</rscale>
<asrwt>0</asrwt>
<pdfrwt beam="1">  1        2 0.44421476E+00 0.47139592E+03</pdfrwt>
<pdfrwt beam="2">  1       -2 0.25522464E-02 0.47139592E+03</pdfrwt>
<totfact> 0.12751447E+03</totfact>
</mgrwt>
</event>
<event>
 4    1  0.6024609E-005  0.9848889E+03  0.7818608E-02  0.9325275E-01
         -2   -1    0    0    0  501 -0.00000000000E+00  0.00000000000E+00  0.14502383037E+03  0.14502383040E+03  0.25500000000E-02 0. -1.
          2   -1    0    0  501    0  0.00000000000E+00 -0.00000000000E+00 -0.16721495151E+04  0.16721495151E+04  0.25500000000E-02 0.  1.
    5000001    1    1    2    0    0  0.24178131283E+03 -0.37186656852E+03 -0.57527165436E+03  0.75034953476E+03  0.18800000000E+03 0.  0.
   -5000001    1    1    2    0    0 -0.24178131283E+03  0.37186656852E+03 -0.95185403036E+03  0.10668238107E+04  0.18800000000E+03 0.  0.
<mgrwt>
<rscale>  0 0.98488888E+03</rscale>
<asrwt>0</asrwt>
<pdfrwt beam="1">  1        2 0.23887849E+00 0.98488888E+03</pdfrwt>
<pdfrwt beam="2">  1       -2 0.20717691E-01 0.98488888E+03</pdfrwt>
<totfact> 0.23770590E+02</totfact>
</mgrwt>
</event>
<event>
 4    1  0.6024609E-005  0.6082915E+03  0.7818608E-02  0.9888352E-01
         -2   -1    0    0    0  501 -0.00000000000E+00  0.00000000000E+00  0.75657773689E+02  0.75657773732E+02  0.25500000000E-02 0. -1.
          2   -1    0    0  501    0  0.00000000000E+00 -0.00000000000E+00 -0.12226719961E+04  0.12226719961E+04  0.25500000000E-02 0.  1.
    5000001    1    1    2    0    0 -0.22918675409E+03 -0.95460132298E+01 -0.71736777957E+03  0.77625912284E+03  0.18800000000E+03 0.  0.
   -5000001    1    1    2    0    0  0.22918675409E+03  0.95460132298E+01 -0.42964644287E+03  0.52207064703E+03  0.18800000000E+03 0.  0.
<mgrwt>
<rscale>  0 0.60829151E+03</rscale>
<asrwt>0</asrwt>
<pdfrwt beam="1">  1        2 0.17466742E+00 0.60829151E+03</pdfrwt>
<pdfrwt beam="2">  1       -2 0.10808254E-01 0.60829151E+03</pdfrwt>
<totfact> 0.12647495E+03</totfact>
</mgrwt>
</event>
<event>
 4    1  0.6024609E-005  0.4646875E+03  0.7818608E-02  0.1023430E+00
         -2   -1    0    0    0  501 -0.00000000000E+00  0.00000000000E+00  0.61065365077E+03  0.61065365077E+03  0.25500000000E-02 0. -1.
          2   -1    0    0  501    0  0.00000000000E+00 -0.00000000000E+00 -0.88403015851E+02  0.88403015888E+02  0.25500000000E-02 0.  1.
    5000001    1    1    2    0    0 -0.14915617204E+02 -0.13546621854E+03  0.24889900171E+03  0.34039430819E+03  0.18800000000E+03 0.  0.
   -5000001    1    1    2    0    0  0.14915617204E+02  0.13546621854E+03  0.27335163321E+03  0.35866235847E+03  0.18800000000E+03 0.  0.
<mgrwt>
<rscale>  0 0.46468753E+03</rscale>
<asrwt>0</asrwt>
<pdfrwt beam="1">  1        2 0.12629003E-01 0.46468753E+03</pdfrwt>
<pdfrwt beam="2">  1       -2 0.87236234E-01 0.46468753E+03</pdfrwt>
<totfact> 0.56686126E+02</totfact>
</mgrwt>
</event>
<event>
 4    1  0.6024609E-005  0.7113822E+03  0.7818608E-02  0.9697963E-01
          2   -1    0    0  501    0  0.00000000000E+00  0.00000000000E+00  0.13819309885E+03  0.13819309887E+03  0.25500000000E-02 0.  1.
         -2   -1    0    0    0  501 -0.00000000000E+00 -0.00000000000E+00 -0.91550281730E+03  0.91550281730E+03  0.25500000000E-02 0. -1.
    5000001    1    1    2    0    0  0.12386145761E+03  0.22555750615E+03 -0.15467139378E+03  0.35423874621E+03  0.18800000000E+03 0.  0.
   -5000001    1    1    2    0    0 -0.12386145761E+03 -0.22555750615E+03 -0.62263832467E+03  0.69945716996E+03  0.18800000000E+03 0.  0.
<mgrwt>
<rscale>  0 0.71138224E+03</rscale>
<asrwt>0</asrwt>
<pdfrwt beam="1">  1        2 0.19741872E-01 0.71138224E+03</pdfrwt>
<pdfrwt beam="2">  1       -2 0.13078611E+00 0.71138224E+03</pdfrwt>
<totfact> 0.12479583E+02</totfact>
</mgrwt>
</event>
<event>
 4    1  0.6024609E-005  0.5068973E+03  0.7818608E-02  0.1011994E+00
         -2   -1    0    0    0  501 -0.00000000000E+00  0.00000000000E+00  0.13852083980E+03  0.13852083983E+03  0.25500000000E-02 0. -1.
          2   -1    0    0  501    0  0.00000000000E+00 -0.00000000000E+00 -0.46372969737E+03  0.46372969737E+03  0.25500000000E-02 0.  1.
    5000001    1    1    2    0    0  0.60112480190E+02  0.15563979293E+03 -0.20119467904E+03  0.32196359156E+03  0.18800000000E+03 0.  0.
   -5000001    1    1    2    0    0 -0.60112480190E+02 -0.15563979293E+03 -0.12401417852E+03  0.28028694564E+03  0.18800000000E+03 0.  0.
<mgrwt>
<rscale>  0 0.50689734E+03</rscale>
<asrwt>0</asrwt>
<pdfrwt beam="1">  1        2 0.66247099E-01 0.50689734E+03</pdfrwt>
<pdfrwt beam="2">  1       -2 0.19788692E-01 0.50689734E+03</pdfrwt>
<totfact> 0.15861618E+03</totfact>
</mgrwt>
</event>
<event>
 4    1  0.6024609E-005  0.1121800E+04  0.7818608E-02  0.9184201E-01
         -2   -1    0    0    0  501 -0.00000000000E+00  0.00000000000E+00  0.12141255836E+03  0.12141255838E+03  0.25500000000E-02 0. -1.
          2   -1    0    0  501    0  0.00000000000E+00 -0.00000000000E+00 -0.25912378412E+04  0.25912378412E+04  0.25500000000E-02 0.  1.
    5000001    1    1    2    0    0  0.35824174390E+03 -0.31634677112E+03 -0.17802108451E+04  0.18528105892E+04  0.18800000000E+03 0.  0.
   -5000001    1    1    2    0    0 -0.35824174390E+03  0.31634677112E+03 -0.68961443775E+03  0.85983981033E+03  0.18800000000E+03 0.  0.
<mgrwt>
<rscale>  0 0.11218000E+04</rscale>
<asrwt>0</asrwt>
<pdfrwt beam="1">  1        2 0.37017680E+00 0.11218000E+04</pdfrwt>
<pdfrwt beam="2">  1       -2 0.17344653E-01 0.11218000E+04</pdfrwt>
<totfact> 0.10791004E+02</totfact>
</mgrwt>
</event>
<event>
 4    1  0.6024609E-005  0.6456287E+03  0.7818608E-02  0.9815016E-01
          2   -1    0    0  501    0  0.00000000000E+00  0.00000000000E+00  0.37696761218E+03  0.37696761219E+03  0.25500000000E-02 0.  1.
         -2   -1    0    0    0  501 -0.00000000000E+00 -0.00000000000E+00 -0.27644050637E+03  0.27644050638E+03  0.25500000000E-02 0. -1.
    5000001    1    1    2    0    0 -0.93976619138E+02 -0.20963297686E+03 -0.78101358331E+02  0.30695506529E+03  0.18800000000E+03 0.  0.
   -5000001    1    1    2    0    0  0.93976619138E+02  0.20963297686E+03  0.17862846414E+03  0.34645305329E+03  0.18800000000E+03 0.  0.
<mgrwt>
<rscale>  0 0.64562874E+03</rscale>
<asrwt>0</asrwt>
<pdfrwt beam="1">  1        2 0.53852516E-01 0.64562874E+03</pdfrwt>
<pdfrwt beam="2">  1       -2 0.39491501E-01 0.64562874E+03</pdfrwt>
<totfact> 0.56414317E+02</totfact>
</mgrwt>
</event>
<event>
 4    1  0.6024609E-005  0.4545495E+03  0.7818608E-02  0.1026374E+00
         -2   -1    0    0    0  501 -0.00000000000E+00  0.00000000000E+00  0.77863662983E+02  0.77863663025E+02  0.25500000000E-02 0. -1.
          2   -1    0    0  501    0  0.00000000000E+00 -0.00000000000E+00 -0.66338779597E+03  0.66338779598E+03  0.25500000000E-02 0.  1.
    5000001    1    1    2    0    0  0.62851163542E+02  0.61806234446E+02 -0.44345790299E+03  0.48966232354E+03  0.18800000000E+03 0.  0.
   -5000001    1    1    2    0    0 -0.62851163542E+02 -0.61806234446E+02 -0.14206623000E+03  0.25158913546E+03  0.18800000000E+03 0.  0.
<mgrwt>
<rscale>  0 0.45454946E+03</rscale>
<asrwt>0</asrwt>
<pdfrwt beam="1">  1        2 0.94769682E-01 0.45454946E+03</pdfrwt>
<pdfrwt beam="2">  1       -2 0.11123381E-01 0.45454946E+03</pdfrwt>
<totfact> 0.27539425E+03</totfact>
</mgrwt>
</event>
<event>
 4    1  0.6024609E-005  0.7918050E+03  0.7818608E-02  0.9571955E-01
          2   -1    0    0  501    0  0.00000000000E+00  0.00000000000E+00  0.19108583286E+03  0.19108583288E+03  0.25500000000E-02 0.  1.
         -2   -1    0    0    0  501 -0.00000000000E+00 -0.00000000000E+00 -0.82025330789E+03  0.82025330790E+03  0.25500000000E-02 0. -1.
    5000001    1    1    2    0    0 -0.30406178881E+03  0.15600446248E+03 -0.22791990744E+03  0.45175485380E+03  0.18800000000E+03 0.  0.
   -5000001    1    1    2    0    0  0.30406178881E+03 -0.15600446248E+03 -0.40124756759E+03  0.55958428697E+03  0.18800000000E+03 0.  0.
<mgrwt>
<rscale>  0 0.79180499E+03</rscale>
<asrwt>0</asrwt>
<pdfrwt beam="1">  1        2 0.27297977E-01 0.79180499E+03</pdfrwt>
<pdfrwt beam="2">  1       -2 0.11717904E+00 0.79180499E+03</pdfrwt>
<totfact> 0.11243651E+02</totfact>
</mgrwt>
</event>
<event>
 4    1  0.6024609E-005  0.7120915E+03  0.7818608E-02  0.9696775E-01
         -2   -1    0    0    0  501 -0.00000000000E+00  0.00000000000E+00  0.43675672829E+02  0.43675672904E+02  0.25500000000E-02 0. -1.
          2   -1    0    0  501    0  0.00000000000E+00 -0.00000000000E+00 -0.29024985716E+04  0.29024985716E+04  0.25500000000E-02 0.  1.
    5000001    1    1    2    0    0 -0.11246619278E+03 -0.20322675814E+03 -0.62848545026E+03  0.69590783940E+03  0.18800000000E+03 0.  0.
   -5000001    1    1    2    0    0  0.11246619278E+03  0.20322675814E+03 -0.22303374485E+04  0.22502664051E+04  0.18800000000E+03 0.  0.
<mgrwt>
<rscale>  0 0.71209151E+03</rscale>
<asrwt>0</asrwt>
<pdfrwt beam="1">  1        2 0.41464253E+00 0.71209151E+03</pdfrwt>
<pdfrwt beam="2">  1       -2 0.62393837E-02 0.71209151E+03</pdfrwt>
<totfact> 0.40906923E+02</totfact>
</mgrwt>
</event>
<event>
 4    1  0.6024609E-005  0.7908383E+03  0.7818608E-02  0.9573374E-01
          2   -1    0    0  501    0  0.00000000000E+00  0.00000000000E+00  0.59924852015E+03  0.59924852016E+03  0.25500000000E-02 0.  1.
         -2   -1    0    0    0  501 -0.00000000000E+00 -0.00000000000E+00 -0.26092060899E+03  0.26092060900E+03  0.25500000000E-02 0. -1.
    5000001    1    1    2    0    0 -0.24766771849E+03 -0.24426665773E+03  0.17199815060E+03  0.43119933056E+03  0.18800000000E+03 0.  0.
   -5000001    1    1    2    0    0  0.24766771849E+03  0.24426665773E+03  0.16632976057E+03  0.42896979860E+03  0.18800000000E+03 0.  0.
<mgrwt>
<rscale>  0 0.79083826E+03</rscale>
<asrwt>0</asrwt>
<pdfrwt beam="1">  1        2 0.85606932E-01 0.79083826E+03</pdfrwt>
<pdfrwt beam="2">  1       -2 0.37274373E-01 0.79083826E+03</pdfrwt>
<totfact> 0.37041521E+02</totfact>
</mgrwt>
</event>
<event>
 4    1  0.6024609E-005  0.8763872E+03  0.7818608E-02  0.9455590E-01
          2   -1    0    0  501    0  0.00000000000E+00  0.00000000000E+00  0.34042990716E+04  0.34042990716E+04  0.25500000000E-02 0.  1.
         -2   -1    0    0    0  501 -0.00000000000E+00 -0.00000000000E+00 -0.56403283829E+02  0.56403283886E+02  0.25500000000E-02 0. -1.
    5000001    1    1    2    0    0 -0.31522486779E+03 -0.82128381248E+02  0.78605099278E+03  0.87139655240E+03  0.18800000000E+03 0.  0.
   -5000001    1    1    2    0    0  0.31522486779E+03  0.82128381248E+02  0.25618447950E+04  0.25893058031E+04  0.18800000000E+03 0.  0.
<mgrwt>
<rscale>  0 0.87638724E+03</rscale>
<asrwt>0</asrwt>
<pdfrwt beam="1">  1        2 0.48632840E+00 0.87638724E+03</pdfrwt>
<pdfrwt beam="2">  1       -2 0.80576126E-02 0.87638724E+03</pdfrwt>
<totfact> 0.13989075E+02</totfact>
</mgrwt>
</event>
<event>
 4    1  0.6024609E-005  0.4416613E+03  0.7818608E-02  0.1030238E+00
          2   -1    0    0  501    0  0.00000000000E+00  0.00000000000E+00  0.55680067874E+03  0.55680067875E+03  0.25500000000E-02 0.  1.
         -2   -1    0    0    0  501 -0.00000000000E+00 -0.00000000000E+00 -0.87582809794E+02  0.87582809831E+02  0.25500000000E-02 0. -1.
    5000001    1    1    2    0    0 -0.88320035175E+02  0.66011349523E+02  0.28648535965E+03  0.35996637089E+03  0.18800000000E+03 0.  0.
   -5000001    1    1    2    0    0  0.88320035175E+02 -0.66011349523E+02  0.18273250930E+03  0.28441711769E+03  0.18800000000E+03 0.  0.
<mgrwt>
<rscale>  0 0.44166126E+03</rscale>
<asrwt>0</asrwt>
<pdfrwt beam="1">  1        2 0.79542955E-01 0.44166126E+03</pdfrwt>
<pdfrwt beam="2">  1       -2 0.12511830E-01 0.44166126E+03</pdfrwt>
<totfact> 0.27881291E+03</totfact>
</mgrwt>
</event>
<event>
 4    1  0.6024609E-005  0.5599340E+03  0.7818608E-02  0.9992204E-01
          2   -1    0    0  501    0  0.00000000000E+00  0.00000000000E+00  0.14764221376E+03  0.14764221379E+03  0.25500000000E-02 0.  1.
         -2   -1    0    0    0  501 -0.00000000000E+00 -0.00000000000E+00 -0.53088827707E+03  0.53088827708E+03  0.25500000000E-02 0. -1.
    5000001    1    1    2    0    0 -0.18136017778E+03  0.79947791552E+02 -0.26587369131E+03  0.38120333575E+03  0.18800000000E+03 0.  0.
   -5000001    1    1    2    0    0  0.18136017778E+03 -0.79947791552E+02 -0.11737237200E+03  0.29732715511E+03  0.18800000000E+03 0.  0.
<mgrwt>
<rscale>  0 0.55993400E+03</rscale>
<asrwt>0</asrwt>
<pdfrwt beam="1">  1        2 0.21091745E-01 0.55993400E+03</pdfrwt>
<pdfrwt beam="2">  1       -2 0.75841182E-01 0.55993400E+03</pdfrwt>
<totfact> 0.41981999E+02</totfact>
</mgrwt>
</event>
<event>
 4    1  0.6024609E-005  0.5080349E+03  0.7818608E-02  0.1011703E+00
         -2   -1    0    0    0  501 -0.00000000000E+00  0.00000000000E+00  0.13980193005E+03  0.13980193008E+03  0.25500000000E-02 0. -1.
          2   -1    0    0  501    0  0.00000000000E+00 -0.00000000000E+00 -0.46154491655E+03  0.46154491655E+03  0.25500000000E-02 0.  1.
    5000001    1    1    2    0    0  0.10247671542E+02  0.12067585234E+03 -0.18273644561E+02  0.22437825696E+03  0.18800000000E+03 0.  0.
   -5000001    1    1    2    0    0 -0.10247671542E+02 -0.12067585234E+03 -0.30346934193E+03  0.37696858968E+03  0.18800000000E+03 0.  0.
<mgrwt>
<rscale>  0 0.50803492E+03</rscale>
<asrwt>0</asrwt>
<pdfrwt beam="1">  1        2 0.65934987E-01 0.50803492E+03</pdfrwt>
<pdfrwt beam="2">  1       -2 0.19971704E-01 0.50803492E+03</pdfrwt>
<totfact> 0.15693287E+03</totfact>
</mgrwt>
</event>
<event>
 4    1  0.6024609E-005  0.6522414E+03  0.7818608E-02  0.9802582E-01
          2   -1    0    0  501    0  0.00000000000E+00  0.00000000000E+00  0.25050723498E+03  0.25050723499E+03  0.25500000000E-02 0. -1.
         -2   -1    0    0    0  501 -0.00000000000E+00 -0.00000000000E+00 -0.42455742608E+03  0.42455742609E+03  0.25500000000E-02 0.  1.
    5000001    1    1    2    0    0  0.55197455514E+02  0.52990438814E+02 -0.35121371082E+03  0.40564740400E+03  0.18800000000E+03 0.  0.
   -5000001    1    1    2    0    0 -0.55197455514E+02 -0.52990438814E+02  0.17716351972E+03  0.26941725709E+03  0.18800000000E+03 0.  0.
<mgrwt>
<rscale>  0 0.65224139E+03</rscale>
<asrwt>0</asrwt>
<pdfrwt beam="1">  1        2 0.35786748E-01 0.65224139E+03</pdfrwt>
<pdfrwt beam="2">  1       -2 0.60651061E-01 0.65224139E+03</pdfrwt>
<totfact> 0.37264515E+02</totfact>
</mgrwt>
</event>
<event>
 4    1  0.6024609E-005  0.5112294E+03  0.7818608E-02  0.1010889E+00
          2   -1    0    0  501    0  0.00000000000E+00  0.00000000000E+00  0.47825564125E+03  0.47825564126E+03  0.25500000000E-02 0.  1.
         -2   -1    0    0    0  501 -0.00000000000E+00 -0.00000000000E+00 -0.13661914291E+03  0.13661914294E+03  0.25500000000E-02 0. -1.
    5000001    1    1    2    0    0  0.17504725291E+02  0.12992741909E+03  0.34705096415E+02  0.23181025291E+03  0.18800000000E+03 0.  0.
   -5000001    1    1    2    0    0 -0.17504725291E+02 -0.12992741909E+03  0.30693140193E+03  0.38306453128E+03  0.18800000000E+03 0.  0.
<mgrwt>
<rscale>  0 0.51122940E+03</rscale>
<asrwt>0</asrwt>
<pdfrwt beam="1">  1        2 0.68322236E-01 0.51122940E+03</pdfrwt>
<pdfrwt beam="2">  1       -2 0.19517020E-01 0.51122940E+03</pdfrwt>
<totfact> 0.15693249E+03</totfact>
</mgrwt>
</event>
<event>
 4    1  0.6024609E-005  0.4794235E+03  0.7818608E-02  0.1019294E+00
          2   -1    0    0  501    0  0.00000000000E+00  0.00000000000E+00  0.63271963963E+03  0.63271963964E+03  0.25500000000E-02 0.  1.
         -2   -1    0    0    0  501 -0.00000000000E+00 -0.00000000000E+00 -0.90817040220E+02  0.90817040256E+02  0.25500000000E-02 0. -1.
    5000001    1    1    2    0    0 -0.10405308640E+03 -0.10151415080E+03  0.31832989530E+03  0.39725318103E+03  0.18800000000E+03 0.  0.
   -5000001    1    1    2    0    0  0.10405308640E+03  0.10151415080E+03  0.22357270412E+03  0.32628349886E+03  0.18800000000E+03 0.  0.
<mgrwt>
<rscale>  0 0.47942351E+03</rscale>
<asrwt>0</asrwt>
<pdfrwt beam="1">  1        2 0.90388523E-01 0.47942351E+03</pdfrwt>
<pdfrwt beam="2">  1       -2 0.12973862E-01 0.47942351E+03</pdfrwt>
<totfact> 0.22653909E+03</totfact>
</mgrwt>
</event>
<event>
 4    1  0.6024609E-005  0.1616142E+04  0.7818608E-02  0.8810692E-01
          2   -1    0    0  501    0  0.00000000000E+00  0.00000000000E+00  0.63202013372E+03  0.63202013373E+03  0.25500000000E-02 0.  1.
         -2   -1    0    0    0  501 -0.00000000000E+00 -0.00000000000E+00 -0.10331609071E+04  0.10331609071E+04  0.25500000000E-02 0. -1.
    5000001    1    1    2    0    0  0.18383852839E+03  0.75014710091E+03 -0.50843303139E+02  0.79652138640E+03  0.18800000000E+03 0.  0.
   -5000001    1    1    2    0    0 -0.18383852839E+03 -0.75014710091E+03 -0.35029747019E+03  0.86865965438E+03  0.18800000000E+03 0.  0.
<mgrwt>
<rscale>  0 0.16161417E+04</rscale>
<asrwt>0</asrwt>
<pdfrwt beam="1">  1        2 0.90288590E-01 0.16161417E+04</pdfrwt>
<pdfrwt beam="2">  1       -2 0.14759442E+00 0.16161417E+04</pdfrwt>
<totfact> 0.15299427E+01</totfact>
</mgrwt>
</event>
<event>
 4    1  0.6024609E-005  0.6820433E+03  0.7818608E-02  0.9748443E-01
          2   -1    0    0  501    0  0.00000000000E+00  0.00000000000E+00  0.31563657031E+04  0.31563657031E+04  0.25500000000E-02 0.  1.
         -2   -1    0    0    0  501 -0.00000000000E+00 -0.00000000000E+00 -0.36844831795E+02  0.36844831883E+02  0.25500000000E-02 0. -1.
    5000001    1    1    2    0    0 -0.64969001820E+02  0.27698863662E+03  0.15730749054E+04  0.16096124795E+04  0.18800000000E+03 0.  0.
   -5000001    1    1    2    0    0  0.64969001820E+02 -0.27698863662E+03  0.15464459659E+04  0.15835980555E+04  0.18800000000E+03 0.  0.
<mgrwt>
<rscale>  0 0.68204329E+03</rscale>
<asrwt>0</asrwt>
<pdfrwt beam="1">  1        2 0.45090929E+00 0.68204329E+03</pdfrwt>
<pdfrwt beam="2">  1       -2 0.52635485E-02 0.68204329E+03</pdfrwt>
<totfact> 0.38854058E+02</totfact>
</mgrwt>
</event>
<event>
 4    1  0.6024609E-005  0.7615718E+03  0.7818608E-02  0.9617369E-01
          2   -1    0    0  501    0  0.00000000000E+00  0.00000000000E+00  0.69282782922E+03  0.69282782922E+03  0.25500000000E-02 0.  1.
         -2   -1    0    0    0  501 -0.00000000000E+00 -0.00000000000E+00 -0.20928417729E+03  0.20928417731E+03  0.25500000000E-02 0. -1.
    5000001    1    1    2    0    0 -0.31355555582E+03  0.10755795393E+02  0.11629374262E+03  0.38379813482E+03  0.18800000000E+03 0.  0.
   -5000001    1    1    2    0    0  0.31355555582E+03 -0.10755795393E+02  0.36724990931E+03  0.51831387171E+03  0.18800000000E+03 0.  0.
<mgrwt>
<rscale>  0 0.76157180E+03</rscale>
<asrwt>0</asrwt>
<pdfrwt beam="1">  1        2 0.98975406E-01 0.76157180E+03</pdfrwt>
<pdfrwt beam="2">  1       -2 0.29897739E-01 0.76157180E+03</pdfrwt>
<totfact> 0.47201314E+02</totfact>
</mgrwt>
</event>
<event>
 4    1  0.6024609E-005  0.4045252E+03  0.7818608E-02  0.1042224E+00
          2   -1    0    0  501    0  0.00000000000E+00  0.00000000000E+00  0.24800831381E+04  0.24800831381E+04  0.25500000000E-02 0.  1.
         -2   -1    0    0    0  501 -0.00000000000E+00 -0.00000000000E+00 -0.16495477842E+02  0.16495478039E+02  0.25500000000E-02 0. -1.
    5000001    1    1    2    0    0 -0.49710620914E+02  0.39374754792E+02  0.98923714164E+03  0.10089378770E+04  0.18800000000E+03 0.  0.
   -5000001    1    1    2    0    0  0.49710620914E+02 -0.39374754792E+02  0.14743505186E+04  0.14876407392E+04  0.18800000000E+03 0.  0.
<mgrwt>
<rscale>  0 0.40452519E+03</rscale>
<asrwt>0</asrwt>
<pdfrwt beam="1">  1        2 0.35429729E+00 0.40452519E+03</pdfrwt>
<pdfrwt beam="2">  1       -2 0.23564989E-02 0.40452519E+03</pdfrwt>
<totfact> 0.30905339E+03</totfact>
</mgrwt>
</event>
<event>
 4    1  0.6024609E-005  0.5000651E+03  0.7818608E-02  0.1013762E+00
         -2   -1    0    0    0  501 -0.00000000000E+00  0.00000000000E+00  0.36854839154E+02  0.36854839242E+02  0.25500000000E-02 0. -1.
          2   -1    0    0  501    0  0.00000000000E+00 -0.00000000000E+00 -0.16962837750E+04  0.16962837750E+04  0.25500000000E-02 0.  1.
    5000001    1    1    2    0    0  0.16037503641E+03 -0.13766271735E+02 -0.95286611799E+03  0.98448336774E+03  0.18800000000E+03 0.  0.
   -5000001    1    1    2    0    0 -0.16037503641E+03  0.13766271735E+02 -0.70656281783E+03  0.74865524648E+03  0.18800000000E+03 0.  0.
<mgrwt>
<rscale>  0 0.50006506E+03</rscale>
<asrwt>0</asrwt>
<pdfrwt beam="1">  1        2 0.24232620E+00 0.50006506E+03</pdfrwt>
<pdfrwt beam="2">  1       -2 0.52649781E-02 0.50006506E+03</pdfrwt>
<totfact> 0.22382146E+03</totfact>
</mgrwt>
</event>
<event>
 4    1  0.6024609E-005  0.4456619E+03  0.7818608E-02  0.1029024E+00
         -2   -1    0    0    0  501 -0.00000000000E+00  0.00000000000E+00  0.35711828007E+02  0.35711828098E+02  0.25500000000E-02 0. -1.
          2   -1    0    0  501    0  0.00000000000E+00 -0.00000000000E+00 -0.13903973071E+04  0.13903973071E+04  0.25500000000E-02 0.  1.
    5000001    1    1    2    0    0  0.96799049887E+02 -0.38819897350E+02 -0.48986134560E+03  0.53496278226E+03  0.18800000000E+03 0.  0.
   -5000001    1    1    2    0    0 -0.96799049887E+02  0.38819897350E+02 -0.86482413353E+03  0.89114635298E+03  0.18800000000E+03 0.  0.
<mgrwt>
<rscale>  0 0.44566189E+03</rscale>
<asrwt>0</asrwt>
<pdfrwt beam="1">  1        2 0.19862815E+00 0.44566189E+03</pdfrwt>
<pdfrwt beam="2">  1       -2 0.51016906E-02 0.44566189E+03</pdfrwt>
<totfact> 0.33779209E+03</totfact>
</mgrwt>
</event>
<event>
 4    1  0.6024609E-005  0.5224416E+03  0.7818608E-02  0.1008082E+00
         -2   -1    0    0    0  501 -0.00000000000E+00  0.00000000000E+00  0.44805294987E+03  0.44805294987E+03  0.25500000000E-02 0. -1.
          2   -1    0    0  501    0  0.00000000000E+00 -0.00000000000E+00 -0.15229519438E+03  0.15229519441E+03  0.25500000000E-02 0.  1.
    5000001    1    1    2    0    0  0.13103261672E+03  0.71044955736E+02  0.26660794395E+03  0.35866520344E+03  0.18800000000E+03 0.  0.
   -5000001    1    1    2    0    0 -0.13103261672E+03 -0.71044955736E+02  0.29149811530E+02  0.24168294084E+03  0.18800000000E+03 0.  0.
<mgrwt>
<rscale>  0 0.52244162E+03</rscale>
<asrwt>0</asrwt>
<pdfrwt beam="1">  1        2 0.21756456E-01 0.52244162E+03</pdfrwt>
<pdfrwt beam="2">  1       -2 0.64007566E-01 0.52244162E+03</pdfrwt>
<totfact> 0.58522948E+02</totfact>
</mgrwt>
</event>
<event>
 4    1  0.6024609E-005  0.1131044E+04  0.7818608E-02  0.9175451E-01
         -2   -1    0    0    0  501 -0.00000000000E+00  0.00000000000E+00  0.44356807047E+03  0.44356807048E+03  0.25500000000E-02 0. -1.
          2   -1    0    0  501    0  0.00000000000E+00 -0.00000000000E+00 -0.72100598187E+03  0.72100598188E+03  0.25500000000E-02 0.  1.
    5000001    1    1    2    0    0 -0.19830261620E+03  0.36915713759E+03  0.20101759725E+03  0.50135116857E+03  0.18800000000E+03 0.  0.
   -5000001    1    1    2    0    0  0.19830261620E+03 -0.36915713759E+03 -0.47845550865E+03  0.66322288379E+03  0.18800000000E+03 0.  0.
<mgrwt>
<rscale>  0 0.11310442E+04</rscale>
<asrwt>0</asrwt>
<pdfrwt beam="1">  1        2 0.10300085E+00 0.11310442E+04</pdfrwt>
<pdfrwt beam="2">  1       -2 0.63366867E-01 0.11310442E+04</pdfrwt>
<totfact> 0.99213498E+01</totfact>
</mgrwt>
</event>
<event>
 4    1  0.6024609E-005  0.5537929E+03  0.7818608E-02  0.1000620E+00
          2   -1    0    0  501    0  0.00000000000E+00  0.00000000000E+00  0.57327447593E+03  0.57327447594E+03  0.25500000000E-02 0.  1.
         -2   -1    0    0    0  501 -0.00000000000E+00 -0.00000000000E+00 -0.13374334092E+03  0.13374334094E+03  0.25500000000E-02 0. -1.
    5000001    1    1    2    0    0  0.40360543471E+02  0.18090368958E+03  0.11316045683E+03  0.28723580446E+03  0.18800000000E+03 0.  0.
   -5000001    1    1    2    0    0 -0.40360543471E+02 -0.18090368958E+03  0.32637067818E+03  0.41978201242E+03  0.18800000000E+03 0.  0.
<mgrwt>
<rscale>  0 0.55379290E+03</rscale>
<asrwt>0</asrwt>
<pdfrwt beam="1">  1        2 0.81896355E-01 0.55379290E+03</pdfrwt>
<pdfrwt beam="2">  1       -2 0.19106191E-01 0.55379290E+03</pdfrwt>
<totfact> 0.13236356E+03</totfact>
</mgrwt>
</event>
<event>
 4    1  0.6024609E-005  0.6623177E+03  0.7818608E-02  0.9783937E-01
         -2   -1    0    0    0  501 -0.00000000000E+00  0.00000000000E+00  0.23777646076E+03  0.23777646077E+03  0.25500000000E-02 0. -1.
          2   -1    0    0  501    0  0.00000000000E+00 -0.00000000000E+00 -0.46121543409E+03  0.46121543410E+03  0.25500000000E-02 0.  1.
    5000001    1    1    2    0    0 -0.22452412467E+03  0.13828535669E+03 -0.38690670722E+02  0.32615163718E+03  0.18800000000E+03 0.  0.
   -5000001    1    1    2    0    0  0.22452412467E+03 -0.13828535669E+03 -0.18474830261E+03  0.37284025769E+03  0.18800000000E+03 0.  0.
<mgrwt>
<rscale>  0 0.66231767E+03</rscale>
<asrwt>0</asrwt>
<pdfrwt beam="1">  1        2 0.65887919E-01 0.66231767E+03</pdfrwt>
<pdfrwt beam="2">  1       -2 0.33968066E-01 0.66231767E+03</pdfrwt>
<totfact> 0.60044475E+02</totfact>
</mgrwt>
</event>
<event>
 4    1  0.6024609E-005  0.1083305E+04  0.7818608E-02  0.9221619E-01
          2   -1    0    0  501    0  0.00000000000E+00  0.00000000000E+00  0.77525063037E+03  0.77525063037E+03  0.25500000000E-02 0.  1.
         -2   -1    0    0    0  501 -0.00000000000E+00 -0.00000000000E+00 -0.37844175274E+03  0.37844175275E+03  0.25500000000E-02 0. -1.
    5000001    1    1    2    0    0  0.43737313165E+03  0.87485533908E+02  0.45729248093E+03  0.66588992187E+03  0.18800000000E+03 0.  0.
   -5000001    1    1    2    0    0 -0.43737313165E+03 -0.87485533908E+02 -0.60483603299E+02  0.48780246125E+03  0.18800000000E+03 0.  0.
<mgrwt>
<rscale>  0 0.10833046E+04</rscale>
<asrwt>0</asrwt>
<pdfrwt beam="1">  1        2 0.11075009E+00 0.10833046E+04</pdfrwt>
<pdfrwt beam="2">  1       -2 0.54063108E-01 0.10833046E+04</pdfrwt>
<totfact> 0.12676417E+02</totfact>
</mgrwt>
</event>
<event>
 4    1  0.6024609E-005  0.8094766E+03  0.7818608E-02  0.9546400E-01
          2   -1    0    0  501    0  0.00000000000E+00  0.00000000000E+00  0.40340507655E+03  0.40340507656E+03  0.25500000000E-02 0.  1.
         -2   -1    0    0    0  501 -0.00000000000E+00 -0.00000000000E+00 -0.40607595053E+03  0.40607595054E+03  0.25500000000E-02 0. -1.
    5000001    1    1    2    0    0  0.24657678229E+03  0.22953413532E+03 -0.12374145888E+03  0.40514439091E+03  0.18800000000E+03 0.  0.
   -5000001    1    1    2    0    0 -0.24657678229E+03 -0.22953413532E+03  0.12107058489E+03  0.40433663619E+03  0.18800000000E+03 0.  0.
<mgrwt>
<rscale>  0 0.80947662E+03</rscale>
<asrwt>0</asrwt>
<pdfrwt beam="1">  1        2 0.57629297E-01 0.80947662E+03</pdfrwt>
<pdfrwt beam="2">  1       -2 0.58010850E-01 0.80947662E+03</pdfrwt>
<totfact> 0.23979711E+02</totfact>
</mgrwt>
</event>
<event>
 4    1  0.6024609E-005  0.1019399E+04  0.7818608E-02  0.9287521E-01
          2   -1    0    0  501    0  0.00000000000E+00  0.00000000000E+00  0.37926175021E+04  0.37926175021E+04  0.25500000000E-02 0.  1.
         -2   -1    0    0    0  501 -0.00000000000E+00 -0.00000000000E+00 -0.68499795602E+02  0.68499795650E+02  0.25500000000E-02 0. -1.
    5000001    1    1    2    0    0  0.23936000291E+03 -0.27826163013E+03  0.72749256308E+03  0.83624887153E+03  0.18800000000E+03 0.  0.
   -5000001    1    1    2    0    0 -0.23936000291E+03  0.27826163013E+03  0.29966251434E+04  0.30248684262E+04  0.18800000000E+03 0.  0.
<mgrwt>
<rscale>  0 0.10193989E+04</rscale>
<asrwt>0</asrwt>
<pdfrwt beam="1">  1        2 0.54180255E+00 0.10193989E+04</pdfrwt>
<pdfrwt beam="2">  1       -2 0.97856841E-02 0.10193989E+04</pdfrwt>
<totfact> 0.58056776E+01</totfact>
</mgrwt>
</event>
<event>
 4    1  0.6024609E-005  0.8439832E+03  0.7818608E-02  0.9498448E-01
          2   -1    0    0  501    0  0.00000000000E+00  0.00000000000E+00  0.18500248189E+03  0.18500248190E+03  0.25500000000E-02 0.  1.
         -2   -1    0    0    0  501 -0.00000000000E+00 -0.00000000000E+00 -0.96256499885E+03  0.96256499885E+03  0.25500000000E-02 0. -1.
    5000001    1    1    2    0    0 -0.20865919035E+03  0.31438344685E+03 -0.41448306272E+03  0.59119862877E+03  0.18800000000E+03 0.  0.
   -5000001    1    1    2    0    0  0.20865919035E+03 -0.31438344685E+03 -0.36307945424E+03  0.55636885199E+03  0.18800000000E+03 0.  0.
<mgrwt>
<rscale>  0 0.84398321E+03</rscale>
<asrwt>0</asrwt>
<pdfrwt beam="1">  1        2 0.26428927E-01 0.84398321E+03</pdfrwt>
<pdfrwt beam="2">  1       -2 0.13750928E+00 0.84398321E+03</pdfrwt>
<totfact> 0.77830307E+01</totfact>
</mgrwt>
</event>
<event>
 4    1  0.6024609E-005  0.4241980E+03  0.7818608E-02  0.1035709E+00
         -2   -1    0    0    0  501 -0.00000000000E+00  0.00000000000E+00  0.82485430169E+02  0.82485430208E+02  0.25500000000E-02 0. -1.
          2   -1    0    0  501    0  0.00000000000E+00 -0.00000000000E+00 -0.54538096659E+03  0.54538096660E+03  0.25500000000E-02 0.  1.
    5000001    1    1    2    0    0 -0.84250113390E+02  0.42806216466E+02 -0.27092941002E+03  0.34304110393E+03  0.18800000000E+03 0.  0.
   -5000001    1    1    2    0    0  0.84250113390E+02 -0.42806216466E+02 -0.19196612641E+03  0.28482529288E+03  0.18800000000E+03 0.  0.
<mgrwt>
<rscale>  0 0.42419799E+03</rscale>
<asrwt>0</asrwt>
<pdfrwt beam="1">  1        2 0.77911565E-01 0.42419799E+03</pdfrwt>
<pdfrwt beam="2">  1       -2 0.11783633E-01 0.42419799E+03</pdfrwt>
<totfact> 0.31475872E+03</totfact>
</mgrwt>
</event>
<event>
 4    1  0.6024609E-005  0.5721163E+03  0.7818608E-02  0.9965006E-01
          2   -1    0    0  501    0  0.00000000000E+00  0.00000000000E+00  0.66740038943E+03  0.66740038944E+03  0.25500000000E-02 0.  1.
         -2   -1    0    0    0  501 -0.00000000000E+00 -0.00000000000E+00 -0.12260897491E+03  0.12260897494E+03  0.25500000000E-02 0. -1.
    5000001    1    1    2    0    0  0.41877053926E+02  0.17810774799E+03  0.11489826139E+03  0.28639425276E+03  0.18800000000E+03 0.  0.
   -5000001    1    1    2    0    0 -0.41877053926E+02 -0.17810774799E+03  0.42989315313E+03  0.50361511162E+03  0.18800000000E+03 0.  0.
<mgrwt>
<rscale>  0 0.57211634E+03</rscale>
<asrwt>0</asrwt>
<pdfrwt beam="1">  1        2 0.95342913E-01 0.57211634E+03</pdfrwt>
<pdfrwt beam="2">  1       -2 0.17515568E-01 0.57211634E+03</pdfrwt>
<totfact> 0.12839195E+03</totfact>
</mgrwt>
</event>
<event>
 4    1  0.6024609E-005  0.4805717E+03  0.7818608E-02  0.1018978E+00
         -2   -1    0    0    0  501 -0.00000000000E+00  0.00000000000E+00  0.87953389562E+02  0.87953389599E+02  0.25500000000E-02 0.  1.
          2   -1    0    0  501    0  0.00000000000E+00 -0.00000000000E+00 -0.65645324167E+03  0.65645324168E+03  0.25500000000E-02 0. -1.
    5000001    1    1    2    0    0  0.52573094360E+02  0.74309025180E+02 -0.10026701691E+03  0.23169643103E+03  0.18800000000E+03 0.  0.
   -5000001    1    1    2    0    0 -0.52573094360E+02 -0.74309025180E+02 -0.46823283520E+03  0.51271020024E+03  0.18800000000E+03 0.  0.
<mgrwt>
<rscale>  0 0.48057169E+03</rscale>
<asrwt>0</asrwt>
<pdfrwt beam="1">  1        2 0.93779032E-01 0.48057169E+03</pdfrwt>
<pdfrwt beam="2">  1       -2 0.12564770E-01 0.48057169E+03</pdfrwt>
<totfact> 0.22860540E+03</totfact>
</mgrwt>
</event>
<event>
 4    1  0.6024609E-005  0.6545981E+03  0.7818608E-02  0.9798189E-01
          2   -1    0    0  501    0  0.00000000000E+00  0.00000000000E+00  0.14742972884E+04  0.14742972884E+04  0.25500000000E-02 0. -1.
         -2   -1    0    0    0  501 -0.00000000000E+00 -0.00000000000E+00 -0.72661513185E+02  0.72661513230E+02  0.25500000000E-02 0.  1.
    5000001    1    1    2    0    0 -0.24380825834E+03 -0.89140153451E+02  0.54419798940E+03  0.63157254964E+03  0.18800000000E+03 0.  0.
   -5000001    1    1    2    0    0  0.24380825834E+03  0.89140153451E+02  0.85743778580E+03  0.91538625198E+03  0.18800000000E+03 0.  0.
<mgrwt>
<rscale>  0 0.65459811E+03</rscale>
<asrwt>0</asrwt>
<pdfrwt beam="1">  1        2 0.21061386E+00 0.65459811E+03</pdfrwt>
<pdfrwt beam="2">  1       -2 0.10380218E-01 0.65459811E+03</pdfrwt>
<totfact> 0.98686688E+02</totfact>
</mgrwt>
</event>
<event>
 4    1  0.6024609E-005  0.1206961E+04  0.7818608E-02  0.9106786E-01
          2   -1    0    0  501    0  0.00000000000E+00  0.00000000000E+00  0.93641296016E+03  0.93641296017E+03  0.25500000000E-02 0.  1.
         -2   -1    0    0    0  501 -0.00000000000E+00 -0.00000000000E+00 -0.38891863124E+03  0.38891863125E+03  0.25500000000E-02 0. -1.
    5000001    1    1    2    0    0  0.13205826037E+03  0.55200479871E+03  0.18389437423E+03  0.62554761834E+03  0.18800000000E+03 0.  0.
   -5000001    1    1    2    0    0 -0.13205826037E+03 -0.55200479871E+03  0.36359995469E+03  0.69978397308E+03  0.18800000000E+03 0.  0.
<mgrwt>
<rscale>  0 0.12069606E+04</rscale>
<asrwt>0</asrwt>
<pdfrwt beam="1">  1        2 0.13377328E+00 0.12069606E+04</pdfrwt>
<pdfrwt beam="2">  1       -2 0.55559804E-01 0.12069606E+04</pdfrwt>
<totfact> 0.92512201E+01</totfact>
</mgrwt>
</event>
<event>
 4    1  0.6024609E-005  0.6869289E+03  0.7818608E-02  0.9739850E-01
         -2   -1    0    0    0  501 -0.00000000000E+00  0.00000000000E+00  0.71036782293E+02  0.71036782338E+02  0.25500000000E-02 0. -1.
          2   -1    0    0  501    0  0.00000000000E+00 -0.00000000000E+00 -0.16606584658E+04  0.16606584658E+04  0.25500000000E-02 0.  1.
    5000001    1    1    2    0    0  0.14696113927E+03 -0.55113275687E+02 -0.18775076970E+03  0.30859261354E+03  0.18800000000E+03 0.  0.
   -5000001    1    1    2    0    0 -0.14696113927E+03  0.55113275687E+02 -0.14018709139E+04  0.14231026346E+04  0.18800000000E+03 0.  0.
<mgrwt>
<rscale>  0 0.68692892E+03</rscale>
<asrwt>0</asrwt>
<pdfrwt beam="1">  1        2 0.23723690E+00 0.68692892E+03</pdfrwt>
<pdfrwt beam="2">  1       -2 0.10148113E-01 0.68692892E+03</pdfrwt>
<totfact> 0.81846767E+02</totfact>
</mgrwt>
</event>
<event>
 4    1  0.6024609E-005  0.5652093E+03  0.7818608E-02  0.9980336E-01
          2   -1    0    0  501    0  0.00000000000E+00  0.00000000000E+00  0.93964689551E+02  0.93964689586E+02  0.25500000000E-02 0.  1.
         -2   -1    0    0    0  501 -0.00000000000E+00 -0.00000000000E+00 -0.84995095755E+03  0.84995095756E+03  0.25500000000E-02 0. -1.
    5000001    1    1    2    0    0 -0.18618176067E+03  0.85088427644E+02 -0.29254885928E+03  0.40352512139E+03  0.18800000000E+03 0.  0.
   -5000001    1    1    2    0    0  0.18618176067E+03 -0.85088427644E+02 -0.46343740872E+03  0.54039052575E+03  0.18800000000E+03 0.  0.
<mgrwt>
<rscale>  0 0.56520926E+03</rscale>
<asrwt>0</asrwt>
<pdfrwt beam="1">  1        2 0.13423528E-01 0.56520926E+03</pdfrwt>
<pdfrwt beam="2">  1       -2 0.12142156E+00 0.56520926E+03</pdfrwt>
<totfact> 0.24009826E+02</totfact>
</mgrwt>
</event>
<event>
 4    1  0.6024609E-005  0.4411023E+03  0.7818608E-02  0.1030409E+00
         -2   -1    0    0    0  501 -0.00000000000E+00  0.00000000000E+00  0.16416759964E+02  0.16416760162E+02  0.25500000000E-02 0. -1.
          2   -1    0    0  501    0  0.00000000000E+00 -0.00000000000E+00 -0.29629971877E+04  0.29629971877E+04  0.25500000000E-02 0.  1.
    5000001    1    1    2    0    0 -0.80051941897E+02  0.16211358986E+02 -0.20231762304E+04  0.20335331768E+04  0.18800000000E+03 0.  0.
   -5000001    1    1    2    0    0  0.80051941897E+02 -0.16211358986E+02 -0.92340419728E+03  0.94588077109E+03  0.18800000000E+03 0.  0.
<mgrwt>
<rscale>  0 0.44110232E+03</rscale>
<asrwt>0</asrwt>
<pdfrwt beam="1">  1        2 0.42328497E+00 0.44110232E+03</pdfrwt>
<pdfrwt beam="2">  1       -2 0.23452533E-02 0.44110232E+03</pdfrwt>
<totfact> 0.17432064E+03</totfact>
</mgrwt>
</event>
<event>
 4    1  0.6024609E-005  0.5339173E+03  0.7818608E-02  0.1005287E+00
          2   -1    0    0  501    0  0.00000000000E+00  0.00000000000E+00  0.30372111669E+04  0.30372111669E+04  0.25500000000E-02 0. -1.
         -2   -1    0    0    0  501 -0.00000000000E+00 -0.00000000000E+00 -0.23464591464E+02  0.23464591603E+02  0.25500000000E-02 0.  1.
    5000001    1    1    2    0    0 -0.13769277808E+03 -0.12468961323E+03  0.17225946512E+04  0.17427515982E+04  0.18800000000E+03 0.  0.
   -5000001    1    1    2    0    0  0.13769277808E+03  0.12468961323E+03  0.12911519243E+04  0.13179241603E+04  0.18800000000E+03 0.  0.
<mgrwt>
<rscale>  0 0.53391729E+03</rscale>
<asrwt>0</asrwt>
<pdfrwt beam="1">  1        2 0.43388737E+00 0.53391729E+03</pdfrwt>
<pdfrwt beam="2">  1       -2 0.33520840E-02 0.53391729E+03</pdfrwt>
<totfact> 0.91921786E+02</totfact>
</mgrwt>
</event>
<event>
 4    1  0.6024609E-005  0.5825875E+03  0.7818608E-02  0.9942205E-01
          2   -1    0    0  501    0  0.00000000000E+00  0.00000000000E+00  0.36964031507E+03  0.36964031508E+03  0.25500000000E-02 0.  1.
         -2   -1    0    0    0  501 -0.00000000000E+00 -0.00000000000E+00 -0.22955302009E+03  0.22955302010E+03  0.25500000000E-02 0. -1.
    5000001    1    1    2    0    0 -0.18863459848E+03 -0.11392173597E+03  0.38395186735E+02  0.29219747438E+03  0.18800000000E+03 0.  0.
   -5000001    1    1    2    0    0  0.18863459848E+03  0.11392173597E+03  0.10169210825E+03  0.30699586080E+03  0.18800000000E+03 0.  0.
<mgrwt>
<rscale>  0 0.58258751E+03</rscale>
<asrwt>0</asrwt>
<pdfrwt beam="1">  1        2 0.52805759E-01 0.58258751E+03</pdfrwt>
<pdfrwt beam="2">  1       -2 0.32793288E-01 0.58258751E+03</pdfrwt>
<totfact> 0.82239517E+02</totfact>
</mgrwt>
</event>
<event>
 4    1  0.6024609E-005  0.7065888E+03  0.7818608E-02  0.9706030E-01
         -2   -1    0    0    0  501 -0.00000000000E+00  0.00000000000E+00  0.58367985380E+02  0.58367985436E+02  0.25500000000E-02 0. -1.
          2   -1    0    0  501    0  0.00000000000E+00 -0.00000000000E+00 -0.21384484155E+04  0.21384484155E+04  0.25500000000E-02 0.  1.
    5000001    1    1    2    0    0 -0.29498259085E+03  0.26439426141E+02 -0.90963981460E+03  0.97493710796E+03  0.18800000000E+03 0.  0.
   -5000001    1    1    2    0    0  0.29498259085E+03 -0.26439426141E+02 -0.11704406155E+04  0.12218792929E+04  0.18800000000E+03 0.  0.
<mgrwt>
<rscale>  0 0.70658878E+03</rscale>
<asrwt>0</asrwt>
<pdfrwt beam="1">  1        2 0.30549258E+00 0.70658878E+03</pdfrwt>
<pdfrwt beam="2">  1       -2 0.83382850E-02 0.70658878E+03</pdfrwt>
<totfact> 0.64294643E+02</totfact>
</mgrwt>
</event>
<event>
 4    1  0.6024609E-005  0.6637002E+03  0.7818608E-02  0.9781406E-01
          2   -1    0    0  501    0  0.00000000000E+00  0.00000000000E+00  0.14437509221E+04  0.14437509221E+04  0.25500000000E-02 0.  1.
         -2   -1    0    0    0  501 -0.00000000000E+00 -0.00000000000E+00 -0.76276664126E+02  0.76276664169E+02  0.25500000000E-02 0. -1.
    5000001    1    1    2    0    0  0.25074094399E+03 -0.10837193159E+03  0.71315637426E+03  0.78648045793E+03  0.18800000000E+03 0.  0.
   -5000001    1    1    2    0    0 -0.25074094399E+03  0.10837193159E+03  0.65431788367E+03  0.73354712830E+03  0.18800000000E+03 0.  0.
<mgrwt>
<rscale>  0 0.66370025E+03</rscale>
<asrwt>0</asrwt>
<pdfrwt beam="1">  1        2 0.20625013E+00 0.66370025E+03</pdfrwt>
<pdfrwt beam="2">  1       -2 0.10896666E-01 0.66370025E+03</pdfrwt>
<totfact> 0.94573346E+02</totfact>
</mgrwt>
</event>
<event>
 4    1  0.6024609E-005  0.4885451E+03  0.7818608E-02  0.1016813E+00
         -2   -1    0    0    0  501 -0.00000000000E+00  0.00000000000E+00  0.71933834485E+02  0.71933834530E+02  0.25500000000E-02 0. -1.
          2   -1    0    0  501    0  0.00000000000E+00 -0.00000000000E+00 -0.82949956722E+03  0.82949956722E+03  0.25500000000E-02 0.  1.
    5000001    1    1    2    0    0  0.82719260020E+02 -0.12290385485E+03 -0.28881933597E+03  0.37511123996E+03  0.18800000000E+03 0.  0.
   -5000001    1    1    2    0    0 -0.82719260020E+02  0.12290385485E+03 -0.46874639676E+03  0.52632216179E+03  0.18800000000E+03 0.  0.
<mgrwt>
<rscale>  0 0.48854512E+03</rscale>
<asrwt>0</asrwt>
<pdfrwt beam="1">  1        2 0.11849993E+00 0.48854512E+03</pdfrwt>
<pdfrwt beam="2">  1       -2 0.10276263E-01 0.48854512E+03</pdfrwt>
<totfact> 0.23765432E+03</totfact>
</mgrwt>
</event>
<event>
 4    1  0.6024609E-005  0.9760405E+03  0.7818608E-02  0.9335221E-01
          2   -1    0    0  501    0  0.00000000000E+00  0.00000000000E+00  0.50507209866E+03  0.50507209866E+03  0.25500000000E-02 0.  1.
         -2   -1    0    0    0  501 -0.00000000000E+00 -0.00000000000E+00 -0.47154410121E+03  0.47154410122E+03  0.25500000000E-02 0. -1.
    5000001    1    1    2    0    0 -0.34858270144E+03  0.16818575481E+03 -0.21363996876E+03  0.48039815166E+03  0.18800000000E+03 0.  0.
   -5000001    1    1    2    0    0  0.34858270144E+03 -0.16818575481E+03  0.24716796621E+03  0.49621804822E+03  0.18800000000E+03 0.  0.
<mgrwt>
<rscale>  0 0.97604051E+03</rscale>
<asrwt>0</asrwt>
<pdfrwt beam="1">  1        2 0.72153157E-01 0.97604051E+03</pdfrwt>
<pdfrwt beam="2">  1       -2 0.67363443E-01 0.97604051E+03</pdfrwt>
<totfact> 0.13418660E+02</totfact>
</mgrwt>
</event>
<event>
 4    1  0.6024609E-005  0.5845843E+03  0.7818608E-02  0.9937915E-01
          2   -1    0    0  501    0  0.00000000000E+00  0.00000000000E+00  0.76399383365E+03  0.76399383365E+03  0.25500000000E-02 0.  1.
         -2   -1    0    0    0  501 -0.00000000000E+00 -0.00000000000E+00 -0.11182644518E+03  0.11182644521E+03  0.25500000000E-02 0. -1.
    5000001    1    1    2    0    0 -0.50830572077E+02  0.20215963116E+03  0.44815151544E+03  0.52880624459E+03  0.18800000000E+03 0.  0.
   -5000001    1    1    2    0    0  0.50830572077E+02 -0.20215963116E+03  0.20401587303E+03  0.34701403427E+03  0.18800000000E+03 0.  0.
<mgrwt>
<rscale>  0 0.58458435E+03</rscale>
<asrwt>0</asrwt>
<pdfrwt beam="1">  1        2 0.10914198E+00 0.58458435E+03</pdfrwt>
<pdfrwt beam="2">  1       -2 0.15975206E-01 0.58458435E+03</pdfrwt>
<totfact> 0.12715526E+03</totfact>
</mgrwt>
</event>
<event>
 4    1  0.6024609E-005  0.5041333E+03  0.7818608E-02  0.1012706E+00
         -2   -1    0    0    0  501 -0.00000000000E+00  0.00000000000E+00  0.18251482380E+03  0.18251482382E+03  0.25500000000E-02 0. -1.
          2   -1    0    0  501    0  0.00000000000E+00 -0.00000000000E+00 -0.34812286814E+03  0.34812286815E+03  0.25500000000E-02 0.  1.
    5000001    1    1    2    0    0  0.89064598829E+02 -0.85306632742E+02  0.37133385171E+02  0.22788728058E+03  0.18800000000E+03 0.  0.
   -5000001    1    1    2    0    0 -0.89064598829E+02  0.85306632742E+02 -0.20274142951E+03  0.30275041139E+03  0.18800000000E+03 0.  0.
<mgrwt>
<rscale>  0 0.50413325E+03</rscale>
<asrwt>0</asrwt>
<pdfrwt beam="1">  1        2 0.49731838E-01 0.50413325E+03</pdfrwt>
<pdfrwt beam="2">  1       -2 0.26073547E-01 0.50413325E+03</pdfrwt>
<totfact> 0.13389875E+03</totfact>
</mgrwt>
</event>
<event>
 4    1  0.6024609E-005  0.4073395E+03  0.7818608E-02  0.1041267E+00
          2   -1    0    0  501    0  0.00000000000E+00  0.00000000000E+00  0.60135576667E+03  0.60135576667E+03  0.25500000000E-02 0.  1.
         -2   -1    0    0    0  501 -0.00000000000E+00 -0.00000000000E+00 -0.68979757254E+02  0.68979757301E+02  0.25500000000E-02 0. -1.
    5000001    1    1    2    0    0  0.51598923891E+02 -0.58365359071E+02  0.27979924841E+03  0.34597772110E+03  0.18800000000E+03 0.  0.
   -5000001    1    1    2    0    0 -0.51598923891E+02  0.58365359071E+02  0.25257676101E+03  0.32435780288E+03  0.18800000000E+03 0.  0.
<mgrwt>
<rscale>  0 0.40733954E+03</rscale>
<asrwt>0</asrwt>
<pdfrwt beam="1">  1        2 0.85907968E-01 0.40733954E+03</pdfrwt>
<pdfrwt beam="2">  1       -2 0.98542509E-02 0.40733954E+03</pdfrwt>
<totfact> 0.37537341E+03</totfact>
</mgrwt>
</event>
<event>
 4    1  0.6024609E-005  0.4267488E+03  0.7818608E-02  0.1034892E+00
         -2   -1    0    0    0  501 -0.00000000000E+00  0.00000000000E+00  0.40296421653E+02  0.40296421733E+02  0.25500000000E-02 0. -1.
          2   -1    0    0  501    0  0.00000000000E+00 -0.00000000000E+00 -0.11298430323E+04  0.11298430323E+04  0.25500000000E-02 0.  1.
    5000001    1    1    2    0    0  0.59473014387E+02  0.58274832811E+02 -0.38841668604E+03  0.43948210154E+03  0.18800000000E+03 0.  0.
   -5000001    1    1    2    0    0 -0.59473014387E+02 -0.58274832811E+02 -0.70112992463E+03  0.73065735252E+03  0.18800000000E+03 0.  0.
<mgrwt>
<rscale>  0 0.42674878E+03</rscale>
<asrwt>0</asrwt>
<pdfrwt beam="1">  1        2 0.16140613E+00 0.42674878E+03</pdfrwt>
<pdfrwt beam="2">  1       -2 0.57566324E-02 0.42674878E+03</pdfrwt>
<totfact> 0.38847710E+03</totfact>
</mgrwt>
</event>
<event>
 4    1  0.6024609E-005  0.4347864E+03  0.7818608E-02  0.1032359E+00
          2   -1    0    0  501    0  0.00000000000E+00  0.00000000000E+00  0.94590712457E+03  0.94590712457E+03  0.25500000000E-02 0.  1.
         -2   -1    0    0    0  501 -0.00000000000E+00 -0.00000000000E+00 -0.49962403319E+02  0.49962403384E+02  0.25500000000E-02 0. -1.
    5000001    1    1    2    0    0 -0.59006206298E+02  0.88694978006E+02  0.39341940259E+03  0.44885560912E+03  0.18800000000E+03 0.  0.
   -5000001    1    1    2    0    0  0.59006206298E+02 -0.88694978006E+02  0.50252531866E+03  0.54701391883E+03  0.18800000000E+03 0.  0.
<mgrwt>
<rscale>  0 0.43478635E+03</rscale>
<asrwt>0</asrwt>
<pdfrwt beam="1">  1        2 0.13512957E+00 0.43478635E+03</pdfrwt>
<pdfrwt beam="2">  1       -2 0.71374871E-02 0.43478635E+03</pdfrwt>
<totfact> 0.35694918E+03</totfact>
</mgrwt>
</event>
<event>
 4    1  0.6024609E-005  0.9051087E+03  0.7818608E-02  0.9419218E-01
         -2   -1    0    0    0  501 -0.00000000000E+00  0.00000000000E+00  0.77862690854E+02  0.77862690896E+02  0.25500000000E-02 0.  1.
          2   -1    0    0  501    0  0.00000000000E+00 -0.00000000000E+00 -0.26303409408E+04  0.26303409408E+04  0.25500000000E-02 0. -1.
    5000001    1    1    2    0    0  0.87223811900E+02  0.27768875762E+03 -0.21472647520E+04  0.21750422880E+04  0.18800000000E+03 0.  0.
   -5000001    1    1    2    0    0 -0.87223811900E+02 -0.27768875762E+03 -0.40521349792E+03  0.53316134366E+03  0.18800000000E+03 0.  0.
<mgrwt>
<rscale>  0 0.90510866E+03</rscale>
<asrwt>0</asrwt>
<pdfrwt beam="1">  1        2 0.37576294E+00 0.90510866E+03</pdfrwt>
<pdfrwt beam="2">  1       -2 0.11123243E-01 0.90510866E+03</pdfrwt>
<totfact> 0.22149877E+02</totfact>
</mgrwt>
</event>
