<event>
 8    1  0.7583103E-052  0.1445844E+04  0.7818608E-02  0.8921287E-01
         -2   -1    0    0    0  501 -0.00000000000E+00  0.00000000000E+00  0.15159075713E+04  0.15159075713E+04  0.25500000000E-02 0. -1.
          2   -1    0    0  501    0  0.00000000000E+00 -0.00000000000E+00 -0.34475450793E+03  0.34475450794E+03  0.25500000000E-02 0.  1.
     200001    2    1    2    0    0  0.85428440913E+00 -0.37324392379E+03  0.69466066527E+03  0.99919486461E+03  0.61361647724E+03 0.  0.
    5000001    2    3    3    0    0  0.25204331555E+03 -0.27620947425E+03  0.55489874730E+03  0.67943556845E+03  0.11790914024E+03 0.  0.
        -13    1    4    4    0    0  0.18821758112E+03 -0.20913746979E+03  0.48094289160E+03  0.55719872152E+03  0.10566000000E+00 0. -1.
     200003    1    4    4    0    0  0.63825734433E+02 -0.67072004458E+02  0.73955855693E+02  0.12223684694E+03  0.30000000000E+02 0. -1.
     200000    1    3    3    0    0 -0.25118903114E+03 -0.97034449539E+02  0.13976191797E+03  0.31975929616E+03  0.10100000000E+03 0. -1.
    -200001    1    1    2    0    0 -0.85428440913E+00  0.37324392379E+03  0.47649239809E+03  0.86146721463E+03  0.61300000000E+03 0.  1.
<mgrwt>
<rscale>  0 0.14458437E+04</rscale>
<asrwt>0</asrwt>
<pdfrwt beam="1">  1        2 0.49250644E-01 0.14458437E+04</pdfrwt>
<pdfrwt beam="2">  1       -2 0.21655822E+00 0.14458437E+04</pdfrwt>
<totfact> 0.10311405E+01</totfact>
</mgrwt>
</event>
<event>
 8    1  0.7583103E-052  0.1437747E+04  0.7818608E-02  0.8926940E-01
          2   -1    0    0  501    0  0.00000000000E+00  0.00000000000E+00  0.45427302780E+04  0.45427302780E+04  0.25500000000E-02 0.  1.
         -2   -1    0    0    0  501 -0.00000000000E+00 -0.00000000000E+00 -0.11375955696E+03  0.11375955698E+03  0.25500000000E-02 0. -1.
     200001    2    1    2    0    0  0.32910529009E+03  0.17545315607E+03  0.20699048760E+04  0.21907131291E+04  0.61288148648E+03 0.  0.
    5000001    2    3    3    0    0  0.27905359544E+03  0.19604608529E+03  0.20439594952E+04  0.20732252419E+04  0.64710964063E+02 0.  0.
        -13    1    4    4    0    0  0.10380354156E+03  0.10253601761E+03  0.90443543353E+03  0.91612896185E+03  0.10566000000E+00 0. -1.
     200003    1    4    4    0    0  0.17525005387E+03  0.93510067673E+02  0.11395240616E+04  0.11570962800E+04  0.30000000000E+02 0. -1.
     200000    1    3    3    0    0  0.50051694651E+02 -0.20592929218E+02  0.25945380848E+02  0.11748788728E+03  0.10100000000E+03 0. -1.
    -200001    1    1    2    0    0 -0.32910529009E+03 -0.17545315607E+03  0.23590658450E+04  0.24657767058E+04  0.61300000000E+03 0. -1.
<mgrwt>
<rscale>  0 0.14377468E+04</rscale>
<asrwt>0</asrwt>
<pdfrwt beam="1">  1        2 0.64896131E+00 0.14377468E+04</pdfrwt>
<pdfrwt beam="2">  1       -2 0.16251369E-01 0.14377468E+04</pdfrwt>
<totfact> 0.68941865E+00</totfact>
</mgrwt>
</event>
<event>
 8    1  0.7583103E-052  0.2079412E+04  0.7818608E-02  0.8570367E-01
         -2   -1    0    0    0  501 -0.00000000000E+00  0.00000000000E+00  0.39645425886E+03  0.39645425886E+03  0.25500000000E-02 0. -1.
          2   -1    0    0  501    0  0.00000000000E+00 -0.00000000000E+00 -0.27266404636E+04  0.27266404636E+04  0.25500000000E-02 0.  1.
     200001    2    1    2    0    0 -0.18082876272E+03 -0.52627088151E+03 -0.21098510465E+04  0.22663703420E+04  0.61261978942E+03 0.  0.
    5000001    2    3    3    0    0 -0.19535072209E+02 -0.58499904558E+03 -0.16624198051E+04  0.17766149259E+04  0.22386487874E+03 0.  0.
        -13    1    4    4    0    0 -0.10265421529E+03 -0.45658179068E+03 -0.11704300923E+04  0.12605203019E+04  0.10566000000E+00 0. -1.
     200003    1    4    4    0    0  0.83119143083E+02 -0.12841725490E+03 -0.49198971284E+03  0.51609462393E+03  0.30000000000E+02 0. -1.
     200000    1    3    3    0    0 -0.16129369051E+03  0.58728164068E+02 -0.44743124138E+03  0.48975541612E+03  0.10100000000E+03 0. -1.
    -200001    1    1    2    0    0  0.18082876272E+03  0.52627088151E+03 -0.22033515822E+03  0.85672438048E+03  0.61300000000E+03 0. -1.
<mgrwt>
<rscale>  0 0.20794117E+04</rscale>
<asrwt>0</asrwt>
<pdfrwt beam="1">  1        2 0.38952006E+00 0.20794117E+04</pdfrwt>
<pdfrwt beam="2">  1       -2 0.56636324E-01 0.20794117E+04</pdfrwt>
<totfact> 0.90413562E+00</totfact>
</mgrwt>
</event>
<event>
 8    1  0.7583103E-052  0.1355300E+04  0.7818608E-02  0.8986826E-01
         -2   -1    0    0    0  501 -0.00000000000E+00  0.00000000000E+00  0.29850473238E+03  0.29850473239E+03  0.25500000000E-02 0. -1.
          2   -1    0    0  501    0  0.00000000000E+00 -0.00000000000E+00 -0.15383663204E+04  0.15383663204E+04  0.25500000000E-02 0.  1.
     200001    2    1    2    0    0  0.26207048901E+03 -0.12102828799E+03 -0.63375204361E+03  0.92776898616E+03  0.61301292906E+03 0.  0.
    5000001    2    3    3    0    0 -0.65037984239E+02 -0.21549126605E+03 -0.33403280168E+03  0.46305850480E+03  0.22842688357E+03 0.  0.
        -13    1    4    4    0    0  0.57756071812E+02 -0.44801460754E+01 -0.14321722983E+02  0.59673766877E+02  0.10566000000E+00 0. -1.
     200003    1    4    4    0    0 -0.12279405605E+03 -0.21101111997E+03 -0.31971107869E+03  0.40338473793E+03  0.30000000000E+02 0. -1.
     200000    1    3    3    0    0  0.32710847325E+03  0.94462978062E+02 -0.29971924193E+03  0.46471048135E+03  0.10100000000E+03 0. -1.
    -200001    1    1    2    0    0 -0.26207048901E+03  0.12102828799E+03 -0.60610954436E+03  0.90910206659E+03  0.61300000000E+03 0. -1.
<mgrwt>
<rscale>  0 0.13553002E+04</rscale>
<asrwt>0</asrwt>
<pdfrwt beam="1">  1        2 0.21976661E+00 0.13553002E+04</pdfrwt>
<pdfrwt beam="2">  1       -2 0.42643534E-01 0.13553002E+04</pdfrwt>
<totfact> 0.71018135E+01</totfact>
</mgrwt>
</event>
<event>
 8    1  0.7583103E-052  0.1326795E+04  0.7818608E-02  0.9008583E-01
         -2   -1    0    0    0  501 -0.00000000000E+00  0.00000000000E+00  0.21220883638E+04  0.21220883638E+04  0.25500000000E-02 0. -1.
          2   -1    0    0  501    0  0.00000000000E+00 -0.00000000000E+00 -0.20738813763E+03  0.20738813765E+03  0.25500000000E-02 0.  1.
     200001    2    1    2    0    0 -0.12730554510E+03 -0.20873062892E+03  0.84214029860E+03  0.10701397810E+04  0.61337076151E+03 0.  0.
    5000001    2    3    3    0    0 -0.10774981644E+03  0.13175189227E+03  0.52466116351E+03  0.59337487564E+03  0.21875973687E+03 0.  0.
        -13    1    4    4    0    0 -0.67441142064E+02 -0.10473714356E+02  0.27068320911E+02  0.73421464819E+02  0.10566000000E+00 0. -1.
     200003    1    4    4    0    0 -0.40308674374E+02  0.14222560663E+03  0.49759284260E+03  0.51995341082E+03  0.30000000000E+02 0. -1.
     200000    1    3    3    0    0 -0.19555728661E+02 -0.34048252120E+03  0.31747913509E+03  0.47676490536E+03  0.10100000000E+03 0.  1.
    -200001    1    1    2    0    0  0.12730554510E+03  0.20873062892E+03  0.10725599276E+04  0.12593367205E+04  0.61300000000E+03 0.  1.
<mgrwt>
<rscale>  0 0.13267946E+04</rscale>
<asrwt>0</asrwt>
<pdfrwt beam="1">  1        2 0.29626876E-01 0.13267946E+04</pdfrwt>
<pdfrwt beam="2">  1       -2 0.30315548E+00 0.13267946E+04</pdfrwt>
<totfact> 0.54142170E+00</totfact>
</mgrwt>
</event>
<event>
 8    1  0.7583103E-052  0.1369389E+04  0.7818608E-02  0.8976279E-01
          2   -1    0    0  501    0  0.00000000000E+00  0.00000000000E+00  0.96887327728E+03  0.96887327729E+03  0.25500000000E-02 0.  1.
         -2   -1    0    0    0  501 -0.00000000000E+00 -0.00000000000E+00 -0.48386765376E+03  0.48386765377E+03  0.25500000000E-02 0. -1.
     200001    2    1    2    0    0  0.97793496145E+02 -0.18777917739E+03  0.47547653641E+03  0.80413905714E+03  0.61297397921E+03 0.  0.
    5000001    2    3    3    0    0  0.48632141132E+02 -0.12905652222E+03  0.60257100961E+03  0.62464199818E+03  0.89806086567E+02 0.  0.
        -13    1    4    4    0    0  0.34242426954E+02 -0.19372297547E+02  0.74235828999E+02  0.84016660176E+02  0.10566000000E+00 0. -1.
     200003    1    4    4    0    0  0.14389714177E+02 -0.10968422467E+03  0.52833518062E+03  0.54062533800E+03  0.30000000000E+02 0. -1.
     200000    1    3    3    0    0  0.49161355014E+02 -0.58722655166E+02 -0.12709447320E+03  0.17949705896E+03  0.10100000000E+03 0. -1.
    -200001    1    1    2    0    0 -0.97793496145E+02  0.18777917739E+03  0.95290871109E+01  0.64860187392E+03  0.61300000000E+03 0. -1.
<mgrwt>
<rscale>  0 0.13693888E+04</rscale>
<asrwt>0</asrwt>
<pdfrwt beam="1">  1        2 0.13841047E+00 0.13693888E+04</pdfrwt>
<pdfrwt beam="2">  1       -2 0.69123950E-01 0.13693888E+04</pdfrwt>
<totfact> 0.54822325E+01</totfact>
</mgrwt>
</event>
<event>
 8    1  0.7583103E-052  0.1842026E+04  0.7818608E-02  0.8684264E-01
          2   -1    0    0  501    0  0.00000000000E+00  0.00000000000E+00  0.26423439372E+04  0.26423439372E+04  0.25500000000E-02 0.  1.
         -2   -1    0    0    0  501 -0.00000000000E+00 -0.00000000000E+00 -0.32102754218E+03  0.32102754219E+03  0.25500000000E-02 0. -1.
     200001    2    1    2    0    0  0.63190355323E+03 -0.45590798391E+02  0.15901325502E+04  0.18180420786E+04  0.61267842354E+03 0.  0.
    5000001    2    3    3    0    0  0.51273961882E+03 -0.28805504461E+03  0.10864666785E+04  0.12376376814E+04  0.73888844804E+02 0.  0.
        -13    1    4    4    0    0  0.35096889533E+01 -0.90042803719E+01  0.32691562898E+02  0.34090239517E+02  0.10566000000E+00 0. -1.
     200003    1    4    4    0    0  0.50922992986E+03 -0.27905076424E+03  0.10537751156E+04  0.12035474419E+04  0.30000000000E+02 0. -1.
     200000    1    3    3    0    0  0.11916393441E+03  0.24246424622E+03  0.50366587173E+03  0.58040439721E+03  0.10100000000E+03 0.  1.
    -200001    1    1    2    0    0 -0.63190355323E+03  0.45590798391E+02  0.73118384473E+03  0.11453294008E+04  0.61300000000E+03 0. -1.
<mgrwt>
<rscale>  0 0.18420263E+04</rscale>
<asrwt>0</asrwt>
<pdfrwt beam="1">  1        2 0.37747771E+00 0.18420263E+04</pdfrwt>
<pdfrwt beam="2">  1       -2 0.45861077E-01 0.18420263E+04</pdfrwt>
<totfact> 0.15763853E+01</totfact>
</mgrwt>
</event>
<event>
 8    1  0.7583103E-052  0.1339424E+04  0.7818608E-02  0.8998873E-01
         -2   -1    0    0    0  501 -0.00000000000E+00  0.00000000000E+00  0.20644480258E+03  0.20644480260E+03  0.25500000000E-02 0. -1.
          2   -1    0    0  501    0  0.00000000000E+00 -0.00000000000E+00 -0.21725606432E+04  0.21725606432E+04  0.25500000000E-02 0.  1.
     200001    2    1    2    0    0 -0.20978988076E+02  0.52830549928E+02 -0.51403314257E+03  0.80181035739E+03  0.61273044041E+03 0.  0.
    5000001    2    3    3    0    0  0.12178657427E+03  0.28258355915E+03 -0.19857078913E+03  0.37415869133E+03  0.76674183584E+02 0.  0.
        -13    1    4    4    0    0  0.66672083808E+02  0.76068854538E+02 -0.68377561074E+02  0.12209479683E+03  0.10566000000E+00 0. -1.
     200003    1    4    4    0    0  0.55114490459E+02  0.20651470462E+03 -0.13019322805E+03  0.25206389450E+03  0.30000000000E+02 0. -1.
     200000    1    3    3    0    0 -0.14276556234E+03 -0.22975300923E+03 -0.31546235345E+03  0.42765166606E+03  0.10100000000E+03 0.  1.
    -200001    1    1    2    0    0  0.20978988076E+02 -0.52830549928E+02 -0.14520826981E+04  0.15771950885E+04  0.61300000000E+03 0.  1.
<mgrwt>
<rscale>  0 0.13394235E+04</rscale>
<asrwt>0</asrwt>
<pdfrwt beam="1">  1        2 0.31036579E+00 0.13394235E+04</pdfrwt>
<pdfrwt beam="2">  1       -2 0.29492116E-01 0.13394235E+04</pdfrwt>
<totfact> 0.67723331E+01</totfact>
</mgrwt>
</event>
<event>
 8    1  0.7583103E-052  0.1469433E+04  0.7818608E-02  0.8905038E-01
         -2   -1    0    0    0  501 -0.00000000000E+00  0.00000000000E+00  0.23863791430E+04  0.23863791430E+04  0.25500000000E-02 0. -1.
          2   -1    0    0  501    0  0.00000000000E+00 -0.00000000000E+00 -0.22620390586E+03  0.22620390588E+03  0.25500000000E-02 0.  1.
     200001    2    1    2    0    0  0.12738037709E+03  0.15101041560E+03  0.45283978187E+03  0.78781093629E+03  0.61363857213E+03 0.  0.
    5000001    2    3    3    0    0  0.29402939706E+03  0.16435184184E+03  0.47932814691E+03  0.59070050279E+03  0.75543347326E+02 0.  0.
        -13    1    4    4    0    0  0.17899945188E+02 -0.64307437909E+01  0.22830291872E+02  0.29715246834E+02  0.10566000000E+00 0. -1.
     200003    1    4    4    0    0  0.27612945187E+03  0.17078258563E+03  0.45649785504E+03  0.56098525596E+03  0.30000000000E+02 0. -1.
     200000    1    3    3    0    0 -0.16664901997E+03 -0.13341426242E+02 -0.26488365039E+02  0.19711043350E+03  0.10100000000E+03 0. -1.
    -200001    1    1    2    0    0 -0.12738037709E+03 -0.15101041560E+03  0.17073354553E+04  0.18247721126E+04  0.61300000000E+03 0. -1.
<mgrwt>
<rscale>  0 0.14694329E+04</rscale>
<asrwt>0</asrwt>
<pdfrwt beam="1">  1        2 0.32314845E-01 0.14694329E+04</pdfrwt>
<pdfrwt beam="2">  1       -2 0.34091130E+00 0.14694329E+04</pdfrwt>
<totfact> 0.28386000E+00</totfact>
</mgrwt>
</event>
<event>
 8    1  0.7583103E-052  0.1552862E+04  0.7818608E-02  0.8850042E-01
         -2   -1    0    0    0  501 -0.00000000000E+00  0.00000000000E+00  0.43952279580E+03  0.43952279581E+03  0.25500000000E-02 0. -1.
          2   -1    0    0  501    0  0.00000000000E+00 -0.00000000000E+00 -0.13715894253E+04  0.13715894253E+04  0.25500000000E-02 0.  1.
     200001    2    1    2    0    0 -0.10213252870E+03 -0.44937574276E+03 -0.60797186303E+03  0.97854028475E+03  0.61281456498E+03 0.  0.
    5000001    2    3    3    0    0  0.10134950217E+03 -0.12766304711E+03 -0.55325471639E+03  0.58092368353E+03  0.69368362347E+02 0.  0.
        -13    1    4    4    0    0  0.27825682694E+02 -0.27267262714E+01 -0.66018555610E+02  0.71694940564E+02  0.10566000000E+00 0. -1.
     200003    1    4    4    0    0  0.73523819477E+02 -0.12493632084E+03 -0.48723616078E+03  0.50922874297E+03  0.30000000000E+02 0. -1.
     200000    1    3    3    0    0 -0.20348203087E+03 -0.32171269565E+03 -0.54717146646E+02  0.39761660122E+03  0.10100000000E+03 0. -1.
    -200001    1    1    2    0    0  0.10213252870E+03  0.44937574276E+03 -0.32409476651E+03  0.83257193640E+03  0.61300000000E+03 0. -1.
<mgrwt>
<rscale>  0 0.15528616E+04</rscale>
<asrwt>0</asrwt>
<pdfrwt beam="1">  1        2 0.19594135E+00 0.15528616E+04</pdfrwt>
<pdfrwt beam="2">  1       -2 0.62788971E-01 0.15528616E+04</pdfrwt>
<totfact> 0.38868228E+01</totfact>
</mgrwt>
</event>
<event>
 8    1  0.7583103E-052  0.1627011E+04  0.7818608E-02  0.8804124E-01
         -2   -1    0    0    0  501 -0.00000000000E+00  0.00000000000E+00  0.21637679841E+03  0.21637679842E+03  0.25500000000E-02 0.  1.
          2   -1    0    0  501    0  0.00000000000E+00 -0.00000000000E+00 -0.30585116186E+04  0.30585116186E+04  0.25500000000E-02 0. -1.
     200001    2    1    2    0    0 -0.49709663066E+03 -0.10908682143E+03 -0.11021951479E+04  0.13612102680E+04  0.61567382178E+03 0.  0.
    5000001    2    3    3    0    0  0.53096718156E+02  0.97349551246E+02 -0.17690251884E+03  0.26043956234E+03  0.15568579850E+03 0.  0.
        -13    1    4    4    0    0  0.16545047479E+02 -0.39826427247E+02 -0.22819547731E+02  0.48791657340E+02  0.10566000000E+00 0. -1.
     200003    1    4    4    0    0  0.36551670677E+02  0.13717597849E+03 -0.15408297111E+03  0.21164790500E+03  0.30000000000E+02 0. -1.
     200000    1    3    3    0    0 -0.55019334882E+03 -0.20643637268E+03 -0.92529262906E+03  0.11007707057E+04  0.10100000000E+03 0. -1.
    -200001    1    1    2    0    0  0.49709663066E+03  0.10908682143E+03 -0.17399396722E+04  0.19136781490E+04  0.61300000000E+03 0.  1.
<mgrwt>
<rscale>  0 0.16270107E+04</rscale>
<asrwt>0</asrwt>
<pdfrwt beam="1">  1        2 0.43693021E+00 0.16270107E+04</pdfrwt>
<pdfrwt beam="2">  1       -2 0.30910973E-01 0.16270107E+04</pdfrwt>
<totfact> 0.20405584E+01</totfact>
</mgrwt>
</event>
<event>
 8    1  0.7583103E-052  0.1456932E+04  0.7818608E-02  0.8913609E-01
          2   -1    0    0  501    0  0.00000000000E+00  0.00000000000E+00  0.53474421973E+03  0.53474421973E+03  0.25500000000E-02 0.  1.
         -2   -1    0    0    0  501 -0.00000000000E+00 -0.00000000000E+00 -0.99236688179E+03  0.99236688179E+03  0.25500000000E-02 0. -1.
     200001    2    1    2    0    0 -0.14217230596E+03  0.37053267272E+03 -0.31019781390E+03  0.78212082508E+03  0.59831670138E+03 0.  0.
    5000001    2    3    3    0    0 -0.29493360524E+03  0.21216568597E+03  0.17452218331E+02  0.37472462889E+03  0.90076954735E+02 0.  0.
        -13    1    4    4    0    0 -0.97068408631E+02  0.11358557950E+03 -0.11060869953E+02  0.14982093923E+03  0.10566000000E+00 0. -1.
     200003    1    4    4    0    0 -0.19786519660E+03  0.98580106466E+02  0.28513088284E+02  0.22490368966E+03  0.30000000000E+02 0. -1.
     200000    1    3    3    0    0  0.15276129927E+03  0.15836698675E+03 -0.32765003224E+03  0.40739619619E+03  0.10100000000E+03 0. -1.
    -200001    1    1    2    0    0  0.14217230596E+03 -0.37053267272E+03 -0.14742484816E+03  0.74499027644E+03  0.61300000000E+03 0. -1.
<mgrwt>
<rscale>  0 0.14569316E+04</rscale>
<asrwt>0</asrwt>
<pdfrwt beam="1">  1        2 0.76392032E-01 0.14569316E+04</pdfrwt>
<pdfrwt beam="2">  1       -2 0.14176670E+00 0.14569316E+04</pdfrwt>
<totfact> 0.20958587E+01</totfact>
</mgrwt>
</event>
<event>
 8    1  0.7583103E-052  0.1501332E+04  0.7818608E-02  0.8883568E-01
          2   -1    0    0  501    0  0.00000000000E+00  0.00000000000E+00  0.18085631838E+04  0.18085631838E+04  0.25500000000E-02 0. -1.
         -2   -1    0    0    0  501 -0.00000000000E+00 -0.00000000000E+00 -0.31157290238E+03  0.31157290239E+03  0.25500000000E-02 0.  1.
     200001    2    1    2    0    0 -0.30333281002E+03  0.11959351209E+03  0.34729535083E+03  0.77704977654E+03  0.61390462837E+03 0.  0.
    5000001    2    3    3    0    0 -0.76166658990E+02  0.33059787629E+03  0.27641776390E+03  0.44335540408E+03  0.71140131940E+02 0.  0.
        -13    1    4    4    0    0 -0.55309970392E+02  0.26283712746E+03  0.19994064286E+03  0.33484148523E+03  0.10566000000E+00 0. -1.
     200003    1    4    4    0    0 -0.20856688598E+02  0.67760748830E+02  0.76477121043E+02  0.10851391885E+03  0.30000000000E+02 0.  1.
     200000    1    3    3    0    0 -0.22716615103E+03 -0.21100436420E+03  0.70877586928E+02  0.33369437246E+03  0.10100000000E+03 0.  1.
    -200001    1    1    2    0    0  0.30333281002E+03 -0.11959351209E+03  0.11496949306E+04  0.13430863096E+04  0.61300000000E+03 0. -1.
<mgrwt>
<rscale>  0 0.15013318E+04</rscale>
<asrwt>0</asrwt>
<pdfrwt beam="1">  1        2 0.25836617E+00 0.15013318E+04</pdfrwt>
<pdfrwt beam="2">  1       -2 0.44510414E-01 0.15013318E+04</pdfrwt>
<totfact> 0.46644375E+01</totfact>
</mgrwt>
</event>
<event>
 8    1  0.7583103E-052  0.2174721E+04  0.7818608E-02  0.8529024E-01
         -2   -1    0    0    0  501 -0.00000000000E+00  0.00000000000E+00  0.58139339948E+03  0.58139339948E+03  0.25500000000E-02 0. -1.
          2   -1    0    0  501    0  0.00000000000E+00 -0.00000000000E+00 -0.20336532402E+04  0.20336532402E+04  0.25500000000E-02 0.  1.
     200001    2    1    2    0    0  0.31930992517E+03  0.90017308162E+02 -0.17298250543E+04  0.18647977531E+04  0.61246550694E+03 0.  0.
    5000001    2    3    3    0    0  0.17755951995E+03  0.24128984262E+03 -0.37136591830E+03  0.48690487577E+03  0.97033713192E+02 0.  0.
        -13    1    4    4    0    0  0.71054262007E+02  0.14518296154E+03 -0.24429611495E+03  0.29292900747E+03  0.10566000000E+00 0. -1.
     200003    1    4    4    0    0  0.10650525795E+03  0.96106881074E+02 -0.12706980335E+03  0.19397586830E+03  0.30000000000E+02 0. -1.
     200000    1    3    3    0    0  0.14175040521E+03 -0.15127253446E+03 -0.13584591360E+04  0.13778928773E+04  0.10100000000E+03 0.  1.
    -200001    1    1    2    0    0 -0.31930992517E+03 -0.90017308162E+02  0.27756521360E+03  0.75024888662E+03  0.61300000000E+03 0. -1.
<mgrwt>
<rscale>  0 0.21747207E+04</rscale>
<asrwt>0</asrwt>
<pdfrwt beam="1">  1        2 0.29052189E+00 0.21747207E+04</pdfrwt>
<pdfrwt beam="2">  1       -2 0.83056201E-01 0.21747207E+04</pdfrwt>
<totfact> 0.90072354E+00</totfact>
</mgrwt>
</event>
<event>
 8    1  0.7583103E-052  0.1572167E+04  0.7818608E-02  0.8837832E-01
          2   -1    0    0  501    0  0.00000000000E+00  0.00000000000E+00  0.52974720526E+03  0.52974720527E+03  0.25500000000E-02 0.  1.
         -2   -1    0    0    0  501 -0.00000000000E+00 -0.00000000000E+00 -0.11664565828E+04  0.11664565828E+04  0.25500000000E-02 0. -1.
     200001    2    1    2    0    0  0.37852240982E+03  0.55435275077E+02  0.15359736479E+02  0.72290249150E+03  0.61318823068E+03 0.  0.
    5000001    2    3    3    0    0  0.49039353385E+02 -0.14684823695E+03 -0.10268988993E+03  0.30623185657E+03  0.24344090372E+03 0.  0.
        -13    1    4    4    0    0 -0.13791271017E+02  0.38468406258E+02  0.43843263849E+02  0.59935468508E+02  0.10566000000E+00 0. -1.
     200003    1    4    4    0    0  0.62830624401E+02 -0.18531664321E+03 -0.14653315378E+03  0.24629638806E+03  0.30000000000E+02 0. -1.
     200000    1    3    3    0    0  0.32948305644E+03  0.20228351203E+03  0.11804962641E+03  0.41667063493E+03  0.10100000000E+03 0.  1.
    -200001    1    1    2    0    0 -0.37852240982E+03 -0.55435275077E+02 -0.65206911401E+03  0.97330129657E+03  0.61300000000E+03 0. -1.
<mgrwt>
<rscale>  0 0.15721668E+04</rscale>
<asrwt>0</asrwt>
<pdfrwt beam="1">  1        2 0.75678173E-01 0.15721668E+04</pdfrwt>
<pdfrwt beam="2">  1       -2 0.16663665E+00 0.15721668E+04</pdfrwt>
<totfact> 0.13615722E+01</totfact>
</mgrwt>
</event>
<event>
 8    1  0.7583103E-052  0.1270779E+04  0.7818608E-02  0.9053064E-01
         -2   -1    0    0    0  501 -0.00000000000E+00  0.00000000000E+00  0.29545819527E+03  0.29545819528E+03  0.25500000000E-02 0. -1.
          2   -1    0    0  501    0  0.00000000000E+00 -0.00000000000E+00 -0.13664192375E+04  0.13664192375E+04  0.25500000000E-02 0.  1.
     200001    2    1    2    0    0 -0.67331470072E+02 -0.96318251406E+02 -0.69169308734E+03  0.93151867570E+03  0.61276176749E+03 0.  0.
    5000001    2    3    3    0    0  0.14514421947E+03 -0.22239407637E+03 -0.51730411962E+03  0.61268714597E+03  0.19301817792E+03 0.  0.
        -13    1    4    4    0    0  0.40106167633E+01 -0.17667835323E+03 -0.26739874165E+03  0.32052055121E+03  0.10566000000E+00 0. -1.
     200003    1    4    4    0    0  0.14113360271E+03 -0.45715723149E+02 -0.24990537797E+03  0.29216659476E+03  0.30000000000E+02 0. -1.
     200000    1    3    3    0    0 -0.21247568955E+03  0.12607582497E+03 -0.17438896772E+03  0.31883152973E+03  0.10100000000E+03 0. -1.
    -200001    1    1    2    0    0  0.67331470072E+02  0.96318251406E+02 -0.37926795485E+03  0.73035875704E+03  0.61300000000E+03 0. -1.
<mgrwt>
<rscale>  0 0.12707789E+04</rscale>
<asrwt>0</asrwt>
<pdfrwt beam="1">  1        2 0.19520275E+00 0.12707789E+04</pdfrwt>
<pdfrwt beam="2">  1       -2 0.42208314E-01 0.12707789E+04</pdfrwt>
<totfact> 0.90150514E+01</totfact>
</mgrwt>
</event>
<event>
 8    1  0.7583103E-052  0.2180338E+04  0.7818608E-02  0.8526657E-01
         -2   -1    0    0    0  501 -0.00000000000E+00  0.00000000000E+00  0.60603630346E+03  0.60603630346E+03  0.25500000000E-02 0. -1.
          2   -1    0    0  501    0  0.00000000000E+00 -0.00000000000E+00 -0.19610508391E+04  0.19610508391E+04  0.25500000000E-02 0.  1.
     200001    2    1    2    0    0  0.73003070823E+03  0.46622785256E+02 -0.12975914706E+04  0.16109569593E+04  0.61344941188E+03 0.  0.
    5000001    2    3    3    0    0  0.24292745529E+03 -0.18228700968E+03 -0.83335062462E+03  0.89305039408E+03  0.10403576494E+03 0.  0.
        -13    1    4    4    0    0  0.22334207881E+01 -0.39026437438E+02 -0.90628049090E+02  0.98699065008E+02  0.10566000000E+00 0. -1.
     200003    1    4    4    0    0  0.24069403450E+03 -0.14326057225E+03 -0.74272257553E+03  0.79435132907E+03  0.30000000000E+02 0. -1.
     200000    1    3    3    0    0  0.48710325295E+03  0.22890979494E+03 -0.46424084601E+03  0.71790656520E+03  0.10100000000E+03 0.  1.
    -200001    1    1    2    0    0 -0.73003070823E+03 -0.46622785256E+02 -0.57423065054E+02  0.95613018332E+03  0.61300000000E+03 0. -1.
<mgrwt>
<rscale>  0 0.21803376E+04</rscale>
<asrwt>0</asrwt>
<pdfrwt beam="1">  1        2 0.28015012E+00 0.21803376E+04</pdfrwt>
<pdfrwt beam="2">  1       -2 0.86576616E-01 0.21803376E+04</pdfrwt>
<totfact> 0.89290448E+00</totfact>
</mgrwt>
</event>
<event>
 8    1  0.7583103E-052  0.1694164E+04  0.7818608E-02  0.8764700E-01
          2   -1    0    0  501    0  0.00000000000E+00  0.00000000000E+00  0.37344495632E+04  0.37344495632E+04  0.25500000000E-02 0.  1.
         -2   -1    0    0    0  501 -0.00000000000E+00 -0.00000000000E+00 -0.19214278934E+03  0.19214278936E+03  0.25500000000E-02 0. -1.
     200001    2    1    2    0    0 -0.49055076785E+03 -0.16852262891E+03  0.23974733565E+04  0.25282174080E+04  0.61234372231E+03 0.  0.
    5000001    2    3    3    0    0 -0.50420521764E+03  0.97518243107E+01  0.16790411363E+04  0.17810132325E+04  0.31386461656E+03 0.  0.
        -13    1    4    4    0    0 -0.16570602885E+03  0.21739819015E+02  0.18736582123E+03  0.25107184202E+03  0.10566000000E+00 0. -1.
     200003    1    4    4    0    0 -0.33849918879E+03 -0.11987994704E+02  0.14916753150E+04  0.15299413905E+04  0.30000000000E+02 0. -1.
     200000    1    3    3    0    0  0.13654449788E+02 -0.17827445322E+03  0.71843222027E+03  0.74720417544E+03  0.10100000000E+03 0. -1.
    -200001    1    1    2    0    0  0.49055076785E+03  0.16852262891E+03  0.11448334173E+04  0.13983749446E+04  0.61300000000E+03 0. -1.
<mgrwt>
<rscale>  0 0.16941636E+04</rscale>
<asrwt>0</asrwt>
<pdfrwt beam="1">  1        2 0.53349285E+00 0.16941636E+04</pdfrwt>
<pdfrwt beam="2">  1       -2 0.27448967E-01 0.16941636E+04</pdfrwt>
<totfact> 0.99697937E+00</totfact>
</mgrwt>
</event>
<event>
 8    1  0.7583103E-052  0.1331185E+04  0.7818608E-02  0.9005194E-01
          2   -1    0    0  501    0  0.00000000000E+00  0.00000000000E+00  0.50335750762E+03  0.50335750762E+03  0.25500000000E-02 0.  1.
         -2   -1    0    0    0  501 -0.00000000000E+00 -0.00000000000E+00 -0.88011662540E+03  0.88011662540E+03  0.25500000000E-02 0. -1.
     200001    2    1    2    0    0 -0.12565772850E+03 -0.10300348632E+03 -0.39765050450E+03  0.74896248383E+03  0.61353019121E+03 0.  0.
    5000001    2    3    3    0    0  0.23451988465E+03 -0.30352944386E+02 -0.17377798000E+03  0.30700556117E+03  0.90181764927E+02 0.  0.
        -13    1    4    4    0    0  0.66016595642E+02  0.28570479276E+02 -0.54107890064E+02  0.90011877647E+02  0.10566000000E+00 0. -1.
     200003    1    4    4    0    0  0.16850328901E+03 -0.58923423661E+02 -0.11967008994E+03  0.21699368352E+03  0.30000000000E+02 0. -1.
     200000    1    3    3    0    0 -0.36017761315E+03 -0.72650541935E+02 -0.22387252450E+03  0.44195692266E+03  0.10100000000E+03 0.  1.
    -200001    1    1    2    0    0  0.12565772850E+03  0.10300348632E+03  0.20891386720E+02  0.63451164920E+03  0.61300000000E+03 0.  1.
<mgrwt>
<rscale>  0 0.13311849E+04</rscale>
<asrwt>0</asrwt>
<pdfrwt beam="1">  1        2 0.71908216E-01 0.13311849E+04</pdfrwt>
<pdfrwt beam="2">  1       -2 0.12573095E+00 0.13311849E+04</pdfrwt>
<totfact> 0.30825243E+01</totfact>
</mgrwt>
</event>
<event>
 8    1  0.7583103E-052  0.1551666E+04  0.7818608E-02  0.8850805E-01
          2   -1    0    0  501    0  0.00000000000E+00  0.00000000000E+00  0.19909095836E+04  0.19909095836E+04  0.25500000000E-02 0.  1.
         -2   -1    0    0    0  501 -0.00000000000E+00 -0.00000000000E+00 -0.30233245960E+03  0.30233245961E+03  0.25500000000E-02 0. -1.
     200001    2    1    2    0    0 -0.57258939843E+02 -0.27327258161E+03  0.27628713654E+03  0.72854127350E+03  0.61358073252E+03 0.  0.
    5000001    2    3    3    0    0  0.69578098132E+02  0.61758120737E+02  0.37027857074E+02  0.28607182989E+03  0.26797546985E+03 0.  0.
        -13    1    4    4    0    0  0.16079640682E+03  0.91598759366E+01 -0.20559161410E+02  0.16236402944E+03  0.10566000000E+00 0. -1.
     200003    1    4    4    0    0 -0.91218308686E+02  0.52598244800E+02  0.57587018484E+02  0.12370780045E+03  0.30000000000E+02 0. -1.
     200000    1    3    3    0    0 -0.12683703798E+03 -0.33503070235E+03  0.23925927947E+03  0.44246944361E+03  0.10100000000E+03 0.  1.
    -200001    1    1    2    0    0  0.57258939843E+02  0.27327258161E+03  0.14122899874E+04  0.15647007697E+04  0.61300000000E+03 0.  1.
<mgrwt>
<rscale>  0 0.15516657E+04</rscale>
<asrwt>0</asrwt>
<pdfrwt beam="1">  1        2 0.28441566E+00 0.15516657E+04</pdfrwt>
<pdfrwt beam="2">  1       -2 0.43190350E-01 0.15516657E+04</pdfrwt>
<totfact> 0.39739053E+01</totfact>
</mgrwt>
</event>
<event>
 8    1  0.7583103E-052  0.1653940E+04  0.7818608E-02  0.8788079E-01
          2   -1    0    0  501    0  0.00000000000E+00  0.00000000000E+00  0.12847612297E+04  0.12847612297E+04  0.25500000000E-02 0.  1.
         -2   -1    0    0    0  501 -0.00000000000E+00 -0.00000000000E+00 -0.53230106091E+03  0.53230106092E+03  0.25500000000E-02 0. -1.
     200001    2    1    2    0    0  0.44876369961E+02 -0.15311523333E+03  0.96068162494E+03  0.11502914619E+04  0.61221164602E+03 0.  0.
    5000001    2    3    3    0    0  0.30116087764E+03 -0.16624284485E+03  0.60287069252E+03  0.69853517092E+03  0.78509588161E+02 0.  0.
        -13    1    4    4    0    0  0.23091417609E+03 -0.14750695611E+03  0.47772708739E+03  0.55072937093E+03  0.10566000000E+00 0. -1.
     200003    1    4    4    0    0  0.70246701547E+02 -0.18735888742E+02  0.12514360513E+03  0.14780579999E+03  0.30000000000E+02 0.  1.
     200000    1    3    3    0    0 -0.25628450768E+03  0.13127611522E+02  0.35781093243E+03  0.45175629096E+03  0.10100000000E+03 0.  1.
    -200001    1    1    2    0    0 -0.44876369961E+02  0.15311523333E+03 -0.20822145615E+03  0.66677082874E+03  0.61300000000E+03 0. -1.
<mgrwt>
<rscale>  0 0.16539405E+04</rscale>
<asrwt>0</asrwt>
<pdfrwt beam="1">  1        2 0.18353732E+00 0.16539405E+04</pdfrwt>
<pdfrwt beam="2">  1       -2 0.76043009E-01 0.16539405E+04</pdfrwt>
<totfact> 0.28380096E+01</totfact>
</mgrwt>
</event>
<event>
 8    1  0.7583103E-052  0.1850587E+04  0.7818608E-02  0.8679851E-01
          2   -1    0    0  501    0  0.00000000000E+00  0.00000000000E+00  0.20950871935E+04  0.20950871935E+04  0.25500000000E-02 0.  1.
         -2   -1    0    0    0  501 -0.00000000000E+00 -0.00000000000E+00 -0.40865531027E+03  0.40865531028E+03  0.25500000000E-02 0. -1.
     200001    2    1    2    0    0 -0.19546987656E+03  0.52531766007E+03  0.29061705824E+03  0.87947801107E+03  0.61225499655E+03 0.  0.
    5000001    2    3    3    0    0 -0.17955610660E+03  0.59754104628E+03  0.36502778208E+03  0.73385033028E+03  0.12647263792E+03 0.  0.
        -13    1    4    4    0    0 -0.14074015631E+03  0.28454430284E+03  0.21424985001E+03  0.38298336944E+03  0.10566000000E+00 0. -1.
     200003    1    4    4    0    0 -0.38815950292E+02  0.31299674345E+03  0.15077793207E+03  0.35086696083E+03  0.30000000000E+02 0. -1.
     200000    1    3    3    0    0 -0.15913769959E+02 -0.72223386219E+02 -0.74410723837E+02  0.14562768079E+03  0.10100000000E+03 0.  1.
    -200001    1    1    2    0    0  0.19546987656E+03 -0.52531766007E+03  0.13958148250E+04  0.16242644927E+04  0.61300000000E+03 0.  1.
<mgrwt>
<rscale>  0 0.18505875E+04</rscale>
<asrwt>0</asrwt>
<pdfrwt beam="1">  1        2 0.29929817E+00 0.18505875E+04</pdfrwt>
<pdfrwt beam="2">  1       -2 0.58379330E-01 0.18505875E+04</pdfrwt>
<totfact> 0.18544598E+01</totfact>
</mgrwt>
</event>
<event>
 8    1  0.7583103E-052  0.1294971E+04  0.7818608E-02  0.9033563E-01
         -2   -1    0    0    0  501 -0.00000000000E+00  0.00000000000E+00  0.16140094573E+03  0.16140094575E+03  0.25500000000E-02 0. -1.
          2   -1    0    0  501    0  0.00000000000E+00 -0.00000000000E+00 -0.25974919002E+04  0.25974919002E+04  0.25500000000E-02 0.  1.
     200001    2    1    2    0    0  0.84831271682E+02  0.17390455177E+03 -0.10482580879E+04  0.12294196676E+04  0.61252637693E+03 0.  0.
    5000001    2    3    3    0    0  0.13526687899E+03 -0.18237992065E+03 -0.24109273126E+03  0.33992582909E+03  0.76578719023E+02 0.  0.
        -13    1    4    4    0    0  0.11843077377E+03 -0.12135178841E+03 -0.16905601284E+03  0.23944112296E+03  0.10566000000E+00 0. -1.
     200003    1    4    4    0    0  0.16836105220E+02 -0.61028132241E+02 -0.72036718425E+02  0.10048470613E+03  0.30000000000E+02 0.  1.
     200000    1    3    3    0    0 -0.50435607307E+02  0.35628447242E+03 -0.80716535664E+03  0.88949383850E+03  0.10100000000E+03 0. -1.
    -200001    1    1    2    0    0 -0.84831271682E+02 -0.17390455177E+03 -0.13878328666E+04  0.15294731783E+04  0.61300000000E+03 0.  1.
<mgrwt>
<rscale>  0 0.12949713E+04</rscale>
<asrwt>0</asrwt>
<pdfrwt beam="1">  1        2 0.37107025E+00 0.12949713E+04</pdfrwt>
<pdfrwt beam="2">  1       -2 0.23057279E-01 0.12949713E+04</pdfrwt>
<totfact> 0.63992789E+01</totfact>
</mgrwt>
</event>
<event>
 8    1  0.7583103E-052  0.1547473E+04  0.7818608E-02  0.8853483E-01
         -2   -1    0    0    0  501 -0.00000000000E+00  0.00000000000E+00  0.89577704878E+03  0.89577704878E+03  0.25500000000E-02 0. -1.
          2   -1    0    0  501    0  0.00000000000E+00 -0.00000000000E+00 -0.66832281783E+03  0.66832281783E+03  0.25500000000E-02 0.  1.
     200001    2    1    2    0    0 -0.44825616601E+02  0.39734106293E+03 -0.13929556144E+03  0.74546462035E+03  0.61353483239E+03 0.  0.
    5000001    2    3    3    0    0  0.16501941982E+03  0.16250614728E+03  0.72454825150E+02  0.35275403590E+03  0.25601963076E+03 0.  0.
        -13    1    4    4    0    0 -0.49327594600E+02  0.11284823368E+03  0.27415404171E+02  0.12617270300E+03  0.10566000000E+00 0. -1.
     200003    1    4    4    0    0  0.21434701442E+03  0.49657913601E+02  0.45039420979E+02  0.22658133289E+03  0.30000000000E+02 0. -1.
     200000    1    3    3    0    0 -0.20984503642E+03  0.23483491565E+03 -0.21175038659E+03  0.39271058445E+03  0.10100000000E+03 0.  1.
    -200001    1    1    2    0    0  0.44825616601E+02 -0.39734106293E+03  0.36674979239E+03  0.81863524626E+03  0.61300000000E+03 0.  1.
<mgrwt>
<rscale>  0 0.15474731E+04</rscale>
<asrwt>0</asrwt>
<pdfrwt beam="1">  1        2 0.95474689E-01 0.15474731E+04</pdfrwt>
<pdfrwt beam="2">  1       -2 0.12796815E+00 0.15474731E+04</pdfrwt>
<totfact> 0.20773106E+01</totfact>
</mgrwt>
</event>
<event>
 8    1  0.7583103E-052  0.1536232E+04  0.7818608E-02  0.8860710E-01
         -2   -1    0    0    0  501 -0.00000000000E+00  0.00000000000E+00  0.41825949784E+03  0.41825949785E+03  0.25500000000E-02 0. -1.
          2   -1    0    0  501    0  0.00000000000E+00 -0.00000000000E+00 -0.14106135488E+04  0.14106135488E+04  0.25500000000E-02 0.  1.
     200001    2    1    2    0    0  0.36411851807E+03 -0.12332854876E+02 -0.15626707356E+03  0.72998960046E+03  0.61296902367E+03 0.  0.
    5000001    2    3    3    0    0  0.32193825201E+03  0.69858440304E+02 -0.35403713510E+03  0.48947228072E+03  0.75606750901E+02 0.  0.
        -13    1    4    4    0    0  0.18961793846E+03  0.14974485566E+02 -0.22217089968E+03  0.29247071244E+03  0.10566000000E+00 0. -1.
     200003    1    4    4    0    0  0.13232031354E+03  0.54883954738E+02 -0.13186623542E+03  0.19700156829E+03  0.30000000000E+02 0. -1.
     200000    1    3    3    0    0  0.42180266062E+02 -0.82191295180E+02  0.19777006154E+03  0.24051731973E+03  0.10100000000E+03 0. -1.
    -200001    1    1    2    0    0 -0.36411851807E+03  0.12332854876E+02 -0.83608697736E+03  0.10988834461E+04  0.61300000000E+03 0. -1.
<mgrwt>
<rscale>  0 0.15362324E+04</rscale>
<asrwt>0</asrwt>
<pdfrwt beam="1">  1        2 0.20151622E+00 0.15362324E+04</pdfrwt>
<pdfrwt beam="2">  1       -2 0.59751358E-01 0.15362324E+04</pdfrwt>
<totfact> 0.41175902E+01</totfact>
</mgrwt>
</event>
<event>
 8    1  0.7583103E-052  0.1628763E+04  0.7818608E-02  0.8803070E-01
         -2   -1    0    0    0  501 -0.00000000000E+00  0.00000000000E+00  0.49429601938E+03  0.49429601939E+03  0.25500000000E-02 0. -1.
          2   -1    0    0  501    0  0.00000000000E+00 -0.00000000000E+00 -0.13417414697E+04  0.13417414697E+04  0.25500000000E-02 0.  1.
     200001    2    1    2    0    0 -0.52772397763E+03  0.86911129761E+02 -0.46703780575E+03  0.93797005447E+03  0.61287630893E+03 0.  0.
    5000001    2    3    3    0    0 -0.48741815352E+03  0.18575546027E+03 -0.55618698139E+03  0.76608830253E+03  0.73930924573E+02 0.  0.
        -13    1    4    4    0    0 -0.19725107716E+03  0.48632355258E+02 -0.18879787782E+03  0.27734048253E+03  0.10566000000E+00 0. -1.
     200003    1    4    4    0    0 -0.29016707636E+03  0.13712310501E+03 -0.36738910357E+03  0.48874782000E+03  0.30000000000E+02 0. -1.
     200000    1    3    3    0    0 -0.40305824112E+02 -0.98844330511E+02  0.89149175643E+02  0.17188175194E+03  0.10100000000E+03 0. -1.
    -200001    1    1    2    0    0  0.52772397763E+03 -0.86911129761E+02 -0.38040764453E+03  0.89806743458E+03  0.61300000000E+03 0. -1.
<mgrwt>
<rscale>  0 0.16287633E+04</rscale>
<asrwt>0</asrwt>
<pdfrwt beam="1">  1        2 0.19167735E+00 0.16287633E+04</pdfrwt>
<pdfrwt beam="2">  1       -2 0.70613718E-01 0.16287633E+04</pdfrwt>
<totfact> 0.31137400E+01</totfact>
</mgrwt>
</event>
<event>
 8    1  0.7583103E-052  0.1327947E+04  0.7818608E-02  0.9007692E-01
         -2   -1    0    0    0  501 -0.00000000000E+00  0.00000000000E+00  0.24517870321E+03  0.24517870322E+03  0.25500000000E-02 0. -1.
          2   -1    0    0  501    0  0.00000000000E+00 -0.00000000000E+00 -0.17981196057E+04  0.17981196057E+04  0.25500000000E-02 0.  1.
     200001    2    1    2    0    0 -0.11866239070E+03  0.19404351769E+03 -0.95200559947E+03  0.11552522019E+04  0.61364430978E+03 0.  0.
    5000001    2    3    3    0    0 -0.50214687780E+01  0.24663134610E+03 -0.84716387123E+02  0.27316869303E+03  0.81191333119E+02 0.  0.
        -13    1    4    4    0    0 -0.64836476327E+01  0.14131215440E+03 -0.82225227216E+02  0.16362200898E+03  0.10566000000E+00 0. -1.
     200003    1    4    4    0    0  0.14621788547E+01  0.10531919171E+03 -0.24911599063E+01  0.10954668405E+03  0.30000000000E+02 0. -1.
     200000    1    3    3    0    0 -0.11364092192E+03 -0.52587828414E+02 -0.86728921235E+03  0.88208350891E+03  0.10100000000E+03 0.  1.
    -200001    1    1    2    0    0  0.11866239070E+03 -0.19404351769E+03 -0.60093530304E+03  0.88804610700E+03  0.61300000000E+03 0. -1.
<mgrwt>
<rscale>  0 0.13279467E+04</rscale>
<asrwt>0</asrwt>
<pdfrwt beam="1">  1        2 0.25687422E+00 0.13279467E+04</pdfrwt>
<pdfrwt beam="2">  1       -2 0.35025530E-01 0.13279467E+04</pdfrwt>
<totfact> 0.76357247E+01</totfact>
</mgrwt>
</event>
<event>
 8    1  0.7583103E-052  0.1728056E+04  0.7818608E-02  0.8745523E-01
          2   -1    0    0  501    0  0.00000000000E+00  0.00000000000E+00  0.21795259941E+04  0.21795259941E+04  0.25500000000E-02 0. -1.
         -2   -1    0    0    0  501 -0.00000000000E+00 -0.00000000000E+00 -0.34252590352E+03  0.34252590353E+03  0.25500000000E-02 0.  1.
     200001    2    1    2    0    0  0.57688627922E+03 -0.17706629554E+03  0.10369279439E+04  0.13473031194E+04  0.61307086249E+03 0.  0.
    5000001    2    3    3    0    0  0.32117327236E+03 -0.76209381081E+02  0.88030385735E+02  0.35424278134E+03  0.93693429174E+02 0.  0.
        -13    1    4    4    0    0 -0.32153551078E+01  0.47647285265E+01 -0.29287295428E+01  0.64521133879E+01  0.10566000000E+00 0. -1.
     200003    1    4    4    0    0  0.32438862747E+03 -0.80974109607E+02  0.90959115278E+02  0.34779066795E+03  0.30000000000E+02 0. -1.
     200000    1    3    3    0    0  0.25571300686E+03 -0.10085691446E+03  0.94889755816E+03  0.99306033802E+03  0.10100000000E+03 0. -1.
    -200001    1    1    2    0    0 -0.57688627922E+03  0.17706629554E+03  0.80007214670E+03  0.11747487783E+04  0.61300000000E+03 0.  1.
<mgrwt>
<rscale>  0 0.17280557E+04</rscale>
<asrwt>0</asrwt>
<pdfrwt beam="1">  1        2 0.31136084E+00 0.17280557E+04</pdfrwt>
<pdfrwt beam="2">  1       -2 0.48932274E-01 0.17280557E+04</pdfrwt>
<totfact> 0.24395201E+01</totfact>
</mgrwt>
</event>
<event>
 8    1  0.7583103E-052  0.1254378E+04  0.7818608E-02  0.9066547E-01
          2   -1    0    0  501    0  0.00000000000E+00  0.00000000000E+00  0.14995636257E+04  0.14995636257E+04  0.25500000000E-02 0.  1.
         -2   -1    0    0    0  501 -0.00000000000E+00 -0.00000000000E+00 -0.26232027370E+03  0.26232027371E+03  0.25500000000E-02 0. -1.
     200001    2    1    2    0    0 -0.83972239975E+02 -0.92788474134E+02  0.70917472652E+03  0.94317362633E+03  0.60908674149E+03 0.  0.
    5000001    2    3    3    0    0  0.93578979945E+02 -0.22087110466E+03  0.66456636265E+02  0.25672105005E+03  0.62834247641E+02 0.  0.
        -13    1    4    4    0    0  0.75890751571E+02 -0.16756346130E+03  0.43390926991E+02  0.18899656994E+03  0.10566000000E+00 0. -1.
     200003    1    4    4    0    0  0.17688228374E+02 -0.53307643354E+02  0.23065709274E+02  0.67724480118E+02  0.30000000000E+02 0.  1.
     200000    1    3    3    0    0 -0.17755121992E+03  0.12808263052E+03  0.64271809026E+03  0.68645257628E+03  0.10100000000E+03 0.  1.
    -200001    1    1    2    0    0  0.83972239975E+02  0.92788474134E+02  0.52806862544E+03  0.81871027304E+03  0.61300000000E+03 0. -1.
<mgrwt>
<rscale>  0 0.12543778E+04</rscale>
<asrwt>0</asrwt>
<pdfrwt beam="1">  1        2 0.21422337E+00 0.12543778E+04</pdfrwt>
<pdfrwt beam="2">  1       -2 0.37474326E-01 0.12543778E+04</pdfrwt>
<totfact> 0.96537014E+01</totfact>
</mgrwt>
</event>
<event>
 8    1  0.7583103E-052  0.1888074E+04  0.7818608E-02  0.8660816E-01
         -2   -1    0    0    0  501 -0.00000000000E+00  0.00000000000E+00  0.24011064197E+04  0.24011064197E+04  0.25500000000E-02 0. -1.
          2   -1    0    0  501    0  0.00000000000E+00 -0.00000000000E+00 -0.37116461486E+03  0.37116461487E+03  0.25500000000E-02 0.  1.
     200001    2    1    2    0    0  0.83403316092E+02 -0.68721541038E+03  0.73492620474E+03  0.11810276409E+04  0.61277126953E+03 0.  0.
    5000001    2    3    3    0    0  0.57792305375E+02 -0.77630306191E+02  0.48590590712E+03  0.51434778389E+03  0.13814006379E+03 0.  0.
        -13    1    4    4    0    0  0.11179750920E+02 -0.65023102822E+02  0.76530490633E+02  0.10104413833E+03  0.10566000000E+00 0. -1.
     200003    1    4    4    0    0  0.46612554455E+02 -0.12607203369E+02  0.40937541648E+03  0.41330364556E+03  0.30000000000E+02 0. -1.
     200000    1    3    3    0    0  0.25611010716E+02 -0.60958510418E+03  0.24902029762E+03  0.66667985701E+03  0.10100000000E+03 0.  1.
    -200001    1    1    2    0    0 -0.83403316092E+02  0.68721541038E+03  0.12950156001E+04  0.15912433937E+04  0.61300000000E+03 0. -1.
<mgrwt>
<rscale>  0 0.18880739E+04</rscale>
<asrwt>0</asrwt>
<pdfrwt beam="1">  1        2 0.53023515E-01 0.18880739E+04</pdfrwt>
<pdfrwt beam="2">  1       -2 0.34301521E+00 0.18880739E+04</pdfrwt>
<totfact> 0.15265494E+00</totfact>
</mgrwt>
</event>
<event>
 8    1  0.7583103E-052  0.1498941E+04  0.7818608E-02  0.8885158E-01
          2   -1    0    0  501    0  0.00000000000E+00  0.00000000000E+00  0.46984154028E+03  0.46984154028E+03  0.25500000000E-02 0.  1.
         -2   -1    0    0    0  501 -0.00000000000E+00 -0.00000000000E+00 -0.11955216500E+04  0.11955216500E+04  0.25500000000E-02 0. -1.
     200001    2    1    2    0    0  0.38154841844E+03 -0.21716975780E+02 -0.14002213433E+03  0.73540884368E+03  0.61251052775E+03 0.  0.
    5000001    2    3    3    0    0  0.28513848194E+03 -0.17798616045E+03 -0.31134732358E+03  0.46472775013E+03  0.77792664445E+02 0.  0.
        -13    1    4    4    0    0  0.15484442634E+03 -0.75176010659E+02 -0.12096908398E+03  0.21038478888E+03  0.10566000000E+00 0. -1.
     200003    1    4    4    0    0  0.13029405560E+03 -0.10281014979E+03 -0.19037823960E+03  0.25434296125E+03  0.30000000000E+02 0. -1.
     200000    1    3    3    0    0  0.96409936500E+02  0.15626918467E+03  0.17132518925E+03  0.27068109355E+03  0.10100000000E+03 0.  1.
    -200001    1    1    2    0    0 -0.38154841844E+03  0.21716975780E+02 -0.58565797542E+03  0.92995434663E+03  0.61300000000E+03 0. -1.
<mgrwt>
<rscale>  0 0.14989406E+04</rscale>
<asrwt>0</asrwt>
<pdfrwt beam="1">  1        2 0.67120220E-01 0.14989406E+04</pdfrwt>
<pdfrwt beam="2">  1       -2 0.17078881E+00 0.14989406E+04</pdfrwt>
<totfact> 0.14671864E+01</totfact>
</mgrwt>
</event>
<event>
 8    1  0.7583103E-052  0.1246007E+04  0.7818608E-02  0.9073513E-01
          2   -1    0    0  501    0  0.00000000000E+00  0.00000000000E+00  0.17177189950E+04  0.17177189950E+04  0.25500000000E-02 0.  1.
         -2   -1    0    0    0  501 -0.00000000000E+00 -0.00000000000E+00 -0.22595868090E+03  0.22595868091E+03  0.25500000000E-02 0. -1.
     200001    2    1    2    0    0 -0.57172991886E+02 -0.89167859206E+02  0.79467521846E+03  0.10093777837E+04  0.61328227529E+03 0.  0.
    5000001    2    3    3    0    0 -0.38343401952E+01 -0.23903285938E+03  0.77116727042E+03  0.81948793753E+03  0.14039270196E+03 0.  0.
        -13    1    4    4    0    0 -0.32269527984E+02 -0.46948407634E+02  0.35169981437E+03  0.35628394014E+03  0.10566000000E+00 0. -1.
     200003    1    4    4    0    0  0.28435187789E+02 -0.19208445174E+03  0.41946745605E+03  0.46320399738E+03  0.30000000000E+02 0. -1.
     200000    1    3    3    0    0 -0.53338651690E+02  0.14986500017E+03  0.23507948045E+02  0.18988984613E+03  0.10100000000E+03 0. -1.
    -200001    1    1    2    0    0  0.57172991886E+02  0.89167859206E+02  0.69708509566E+03  0.93429989228E+03  0.61300000000E+03 0.  1.
<mgrwt>
<rscale>  0 0.12460073E+04</rscale>
<asrwt>0</asrwt>
<pdfrwt beam="1">  1        2 0.24538844E+00 0.12460073E+04</pdfrwt>
<pdfrwt beam="2">  1       -2 0.32279810E-01 0.12460073E+04</pdfrwt>
<totfact> 0.98678299E+01</totfact>
</mgrwt>
</event>
<event>
 8    1  0.7583103E-052  0.2191668E+04  0.7818608E-02  0.8521904E-01
          2   -1    0    0  501    0  0.00000000000E+00  0.00000000000E+00  0.26605644605E+04  0.26605644605E+04  0.25500000000E-02 0.  1.
         -2   -1    0    0    0  501 -0.00000000000E+00 -0.00000000000E+00 -0.45135236674E+03  0.45135236675E+03  0.25500000000E-02 0. -1.
     200001    2    1    2    0    0 -0.21883441238E+03  0.29749157508E+03 -0.73109778727E+02  0.72002388088E+03  0.61375859424E+03 0.  0.
    5000001    2    3    3    0    0  0.14199818017E+02 -0.10256771798E+03  0.14132369576E+03  0.19989398799E+03  0.96246806946E+02 0.  0.
        -13    1    4    4    0    0  0.41356662028E+02 -0.89832109989E+02  0.10135108236E+03  0.14160591280E+03  0.10566000000E+00 0. -1.
     200003    1    4    4    0    0 -0.27156844011E+02 -0.12735607988E+02  0.39972613398E+02  0.58288075189E+02  0.30000000000E+02 0. -1.
     200000    1    3    3    0    0 -0.23303423040E+03  0.40005929306E+03 -0.21443347449E+03  0.52012989289E+03  0.10100000000E+03 0. -1.
    -200001    1    1    2    0    0  0.21883441238E+03 -0.29749157508E+03  0.22823218725E+04  0.23918929464E+04  0.61300000000E+03 0.  1.
<mgrwt>
<rscale>  0 0.21916679E+04</rscale>
<asrwt>0</asrwt>
<pdfrwt beam="1">  1        2 0.38008064E+00 0.21916679E+04</pdfrwt>
<pdfrwt beam="2">  1       -2 0.64478909E-01 0.21916679E+04</pdfrwt>
<totfact> 0.73874454E+00</totfact>
</mgrwt>
</event>
<event>
 8    1  0.7583103E-052  0.1469768E+04  0.7818608E-02  0.8904809E-01
          2   -1    0    0  501    0  0.00000000000E+00  0.00000000000E+00  0.31071081582E+04  0.31071081582E+04  0.25500000000E-02 0.  1.
         -2   -1    0    0    0  501 -0.00000000000E+00 -0.00000000000E+00 -0.17381264538E+03  0.17381264540E+03  0.25500000000E-02 0. -1.
     200001    2    1    2    0    0  0.38127539120E+03 -0.38513527927E+02  0.17603420873E+04  0.19030808440E+04  0.61323585903E+03 0.  0.
    5000001    2    3    3    0    0 -0.16578073391E+02 -0.42227122611E+02  0.12181575202E+04  0.12230321142E+04  0.99206078786E+02 0.  0.
        -13    1    4    4    0    0  0.20905199246E+01 -0.50972779903E+02  0.31196365700E+03  0.31610746435E+03  0.10566000000E+00 0. -1.
     200003    1    4    4    0    0 -0.18668593316E+02  0.87456572920E+01  0.90619386315E+03  0.90692464986E+03  0.30000000000E+02 0. -1.
     200000    1    3    3    0    0  0.39785346459E+03  0.37135946842E+01  0.54218456711E+03  0.68004872979E+03  0.10100000000E+03 0. -1.
    -200001    1    1    2    0    0 -0.38127539120E+03  0.38513527927E+02  0.11729534255E+04  0.13778399596E+04  0.61300000000E+03 0.  1.
<mgrwt>
<rscale>  0 0.14697683E+04</rscale>
<asrwt>0</asrwt>
<pdfrwt beam="1">  1        2 0.44387256E+00 0.14697683E+04</pdfrwt>
<pdfrwt beam="2">  1       -2 0.24830380E-01 0.14697683E+04</pdfrwt>
<totfact> 0.29079226E+01</totfact>
</mgrwt>
</event>
<event>
 8    1  0.7583103E-052  0.1651360E+04  0.7818608E-02  0.8789602E-01
         -2   -1    0    0    0  501 -0.00000000000E+00  0.00000000000E+00  0.17479363853E+03  0.17479363855E+03  0.25500000000E-02 0. -1.
          2   -1    0    0  501    0  0.00000000000E+00 -0.00000000000E+00 -0.39002982956E+04  0.39002982956E+04  0.25500000000E-02 0.  1.
     200001    2    1    2    0    0 -0.24813721069E+03  0.73442166706E+02 -0.66394374398E+03  0.94205984818E+03  0.61618960977E+03 0.  0.
    5000001    2    3    3    0    0 -0.35148196175E+03  0.16683916364E+03 -0.19797825976E+03  0.44534265591E+03  0.88089805746E+02 0.  0.
        -13    1    4    4    0    0 -0.29732420027E+03  0.14624647629E+03 -0.14675092462E+03  0.36238868213E+03  0.10566000000E+00 0. -1.
     200003    1    4    4    0    0 -0.54157761476E+02  0.20592687350E+02 -0.51227335138E+02  0.82953973779E+02  0.30000000000E+02 0.  1.
     200000    1    3    3    0    0  0.10334475106E+03 -0.93396996931E+02 -0.46596548422E+03  0.49671719227E+03  0.10100000000E+03 0.  1.
    -200001    1    1    2    0    0  0.24813721069E+03 -0.73442166706E+02 -0.30615609131E+04  0.31330320860E+04  0.61300000000E+03 0.  1.
<mgrwt>
<rscale>  0 0.16513598E+04</rscale>
<asrwt>0</asrwt>
<pdfrwt beam="1">  1        2 0.55718542E+00 0.16513598E+04</pdfrwt>
<pdfrwt beam="2">  1       -2 0.24970522E-01 0.16513598E+04</pdfrwt>
<totfact> 0.92749179E+00</totfact>
</mgrwt>
</event>
<event>
 8    1  0.7583103E-052  0.1439587E+04  0.7818608E-02  0.8925651E-01
         -2   -1    0    0    0  501 -0.00000000000E+00  0.00000000000E+00  0.58536023057E+03  0.58536023058E+03  0.25500000000E-02 0. -1.
          2   -1    0    0  501    0  0.00000000000E+00 -0.00000000000E+00 -0.88510118179E+03  0.88510118179E+03  0.25500000000E-02 0.  1.
     200001    2    1    2    0    0  0.30451342088E+03  0.22224823251E+03 -0.15257396871E+03  0.73592086135E+03  0.61333351278E+03 0.  0.
    5000001    2    3    3    0    0 -0.34240139298E+02  0.15485583396E+03 -0.73899164333E+02  0.36756446497E+03  0.32324887156E+03 0.  0.
        -13    1    4    4    0    0  0.27465155111E+02 -0.95875714102E+02 -0.28057249325E+02  0.10360360854E+03  0.10566000000E+00 0. -1.
     200003    1    4    4    0    0 -0.61705294408E+02  0.25073154806E+03 -0.45841915008E+02  0.26396085642E+03  0.30000000000E+02 0. -1.
     200000    1    3    3    0    0  0.33875356018E+03  0.67392398546E+02 -0.78674804374E+02  0.36835639638E+03  0.10100000000E+03 0.  1.
    -200001    1    1    2    0    0 -0.30451342088E+03 -0.22224823251E+03 -0.14716698251E+03  0.73454055102E+03  0.61300000000E+03 0. -1.
<mgrwt>
<rscale>  0 0.14395875E+04</rscale>
<asrwt>0</asrwt>
<pdfrwt beam="1">  1        2 0.12644303E+00 0.14395875E+04</pdfrwt>
<pdfrwt beam="2">  1       -2 0.83622890E-01 0.14395875E+04</pdfrwt>
<totfact> 0.40446148E+01</totfact>
</mgrwt>
</event>
<event>
 8    1  0.7583103E-052  0.1739565E+04  0.7818608E-02  0.8739115E-01
         -2   -1    0    0    0  501 -0.00000000000E+00  0.00000000000E+00  0.45493442914E+03  0.45493442914E+03  0.25500000000E-02 0. -1.
          2   -1    0    0  501    0  0.00000000000E+00 -0.00000000000E+00 -0.16629237377E+04  0.16629237377E+04  0.25500000000E-02 0.  1.
     200001    2    1    2    0    0 -0.49637700189E+03  0.26212257263E+03 -0.91545832575E+03  0.12366988469E+04  0.61340176130E+03 0.  0.
    5000001    2    3    3    0    0  0.10788114842E+03  0.16047585021E+03 -0.26765510174E+03  0.33930819320E+03  0.78102213820E+02 0.  0.
        -13    1    4    4    0    0 -0.60417643143E+00  0.20947247645E+01 -0.39784138647E+02  0.39843967585E+02  0.10566000000E+00 0. -1.
     200003    1    4    4    0    0  0.10848532485E+03  0.15838112544E+03 -0.22787096309E+03  0.29946422562E+03  0.30000000000E+02 0. -1.
     200000    1    3    3    0    0 -0.60425815030E+03  0.10164672242E+03 -0.64780322401E+03  0.89739065374E+03  0.10100000000E+03 0.  1.
    -200001    1    1    2    0    0  0.49637700189E+03 -0.26212257263E+03 -0.29253098276E+03  0.88115931985E+03  0.61300000000E+03 0. -1.
<mgrwt>
<rscale>  0 0.17395646E+04</rscale>
<asrwt>0</asrwt>
<pdfrwt beam="1">  1        2 0.23756053E+00 0.17395646E+04</pdfrwt>
<pdfrwt beam="2">  1       -2 0.64990634E-01 0.17395646E+04</pdfrwt>
<totfact> 0.24909860E+01</totfact>
</mgrwt>
</event>
<event>
 8    1  0.7583103E-052  0.2235302E+04  0.7818608E-02  0.8503877E-01
         -2   -1    0    0    0  501 -0.00000000000E+00  0.00000000000E+00  0.99278481422E+03  0.99278481422E+03  0.25500000000E-02 0. -1.
          2   -1    0    0  501    0  0.00000000000E+00 -0.00000000000E+00 -0.12582216790E+04  0.12582216790E+04  0.25500000000E-02 0.  1.
     200001    2    1    2    0    0  0.27420377033E+03 -0.53307362261E+03 -0.85451635584E+03  0.12107474670E+04  0.61347863169E+03 0.  0.
    5000001    2    3    3    0    0  0.17623890695E+03 -0.19517897785E+03 -0.78854336832E+03  0.83882900747E+03  0.11259873156E+03 0.  0.
        -13    1    4    4    0    0 -0.11332559132E+02 -0.37534266211E+02 -0.10599086261E+03  0.11301027456E+03  0.10566000000E+00 0. -1.
     200003    1    4    4    0    0  0.18757146608E+03 -0.15764471164E+03 -0.68255250571E+03  0.72581873291E+03  0.30000000000E+02 0. -1.
     200000    1    3    3    0    0  0.97964863379E+02 -0.33789464477E+03 -0.65972987525E+02  0.37191845948E+03  0.10100000000E+03 0.  1.
    -200001    1    1    2    0    0 -0.27420377033E+03  0.53307362261E+03  0.58907949111E+03  0.10402590262E+04  0.61300000000E+03 0. -1.
<mgrwt>
<rscale>  0 0.22353017E+04</rscale>
<asrwt>0</asrwt>
<pdfrwt beam="1">  1        2 0.17974595E+00 0.22353017E+04</pdfrwt>
<pdfrwt beam="2">  1       -2 0.14182640E+00 0.22353017E+04</pdfrwt>
<totfact> 0.63003869E+00</totfact>
</mgrwt>
</event>
<event>
 8    1  0.7583103E-052  0.2251732E+04  0.7818608E-02  0.8497199E-01
         -2   -1    0    0    0  501 -0.00000000000E+00  0.00000000000E+00  0.39619354654E+03  0.39619354654E+03  0.25500000000E-02 0. -1.
          2   -1    0    0  501    0  0.00000000000E+00 -0.00000000000E+00 -0.31993818400E+04  0.31993818400E+04  0.25500000000E-02 0.  1.
     200001    2    1    2    0    0  0.86729437923E+03  0.17429373824E+03 -0.19291933999E+04  0.22091360906E+04  0.61312090565E+03 0.  0.
    5000001    2    3    3    0    0  0.74280995656E+03 -0.30499447697E+02 -0.10237252107E+04  0.12670584600E+04  0.68753079651E+02 0.  0.
        -13    1    4    4    0    0  0.76390440361E+02  0.69779593933E+01 -0.80852090223E+02  0.11145071984E+03  0.10566000000E+00 0. -1.
     200003    1    4    4    0    0  0.66641951620E+03 -0.37477407090E+02 -0.94287312051E+03  0.11556077401E+04  0.30000000000E+02 0. -1.
     200000    1    3    3    0    0  0.12448442267E+03  0.20479318594E+03 -0.90546818918E+03  0.94207763061E+03  0.10100000000E+03 0.  1.
    -200001    1    1    2    0    0 -0.86729437923E+03 -0.17429373824E+03 -0.87399489352E+03  0.13864392959E+04  0.61300000000E+03 0. -1.
<mgrwt>
<rscale>  0 0.22517322E+04</rscale>
<asrwt>0</asrwt>
<pdfrwt beam="1">  1        2 0.45705453E+00 0.22517322E+04</pdfrwt>
<pdfrwt beam="2">  1       -2 0.56599080E-01 0.22517322E+04</pdfrwt>
<totfact> 0.48635611E+00</totfact>
</mgrwt>
</event>
<event>
 8    1  0.7583103E-052  0.3099081E+04  0.7818608E-02  0.8215990E-01
         -2   -1    0    0    0  501 -0.00000000000E+00  0.00000000000E+00  0.15713358368E+04  0.15713358368E+04  0.25500000000E-02 0.  1.
          2   -1    0    0  501    0  0.00000000000E+00 -0.00000000000E+00 -0.15280478002E+04  0.15280478002E+04  0.25500000000E-02 0. -1.
     200001    2    1    2    0    0 -0.56971376196E+03  0.10292491801E+04 -0.77972264379E+03  0.15382804292E+04  0.61189184703E+03 0.  0.
    5000001    2    3    3    0    0 -0.21078348010E+03  0.65789934104E+03 -0.34353067250E+03  0.85476299273E+03  0.36789296320E+03 0.  0.
        -13    1    4    4    0    0  0.23316296714E+02  0.12752907623E+03 -0.22886561873E+03  0.26303383353E+03  0.10566000000E+00 0. -1.
     200003    1    4    4    0    0 -0.23409977682E+03  0.53037026480E+03 -0.11466505376E+03  0.59172915920E+03  0.30000000000E+02 0. -1.
     200000    1    3    3    0    0 -0.35893028185E+03  0.37134983906E+03 -0.43619197129E+03  0.68351743652E+03  0.10100000000E+03 0. -1.
    -200001    1    1    2    0    0  0.56971376196E+03 -0.10292491801E+04  0.82301068033E+03  0.15611032077E+04  0.61300000000E+03 0.  1.
<mgrwt>
<rscale>  0 0.30990813E+04</rscale>
<asrwt>0</asrwt>
<pdfrwt beam="1">  1        2 0.21829254E+00 0.30990813E+04</pdfrwt>
<pdfrwt beam="2">  1       -2 0.22447655E+00 0.30990813E+04</pdfrwt>
<totfact> 0.11194663E+00</totfact>
</mgrwt>
</event>
<event>
 8    1  0.7583103E-052  0.1506550E+04  0.7818608E-02  0.8880109E-01
         -2   -1    0    0    0  501 -0.00000000000E+00  0.00000000000E+00  0.20426250626E+03  0.20426250628E+03  0.25500000000E-02 0. -1.
          2   -1    0    0  501    0  0.00000000000E+00 -0.00000000000E+00 -0.27779127866E+04  0.27779127866E+04  0.25500000000E-02 0.  1.
     200001    2    1    2    0    0  0.31556211848E+03  0.83679260554E+02 -0.70973111419E+03  0.99306862726E+03  0.61309491494E+03 0.  0.
    5000001    2    3    3    0    0  0.14849941562E+03  0.27071113771E+03 -0.12767560057E+03  0.35128946688E+03  0.10847411690E+03 0.  0.
        -13    1    4    4    0    0  0.12306215636E+03  0.12690656923E+03 -0.85411010041E+02  0.19632784683E+03  0.10566000000E+00 0. -1.
     200003    1    4    4    0    0  0.25437259262E+02  0.14380456848E+03 -0.42264590527E+02  0.15496162005E+03  0.30000000000E+02 0. -1.
     200000    1    3    3    0    0  0.16706270287E+03 -0.18703187716E+03 -0.58205551362E+03  0.64177916038E+03  0.10100000000E+03 0. -1.
    -200001    1    1    2    0    0 -0.31556211848E+03 -0.83679260554E+02 -0.18639191661E+04  0.19891066656E+04  0.61300000000E+03 0.  1.
<mgrwt>
<rscale>  0 0.15065503E+04</rscale>
<asrwt>0</asrwt>
<pdfrwt beam="1">  1        2 0.39684466E+00 0.15065503E+04</pdfrwt>
<pdfrwt beam="2">  1       -2 0.29180360E-01 0.15065503E+04</pdfrwt>
<totfact> 0.32774342E+01</totfact>
</mgrwt>
</event>
<event>
 8    1  0.7583103E-052  0.1484105E+04  0.7818608E-02  0.8895092E-01
         -2   -1    0    0    0  501 -0.00000000000E+00  0.00000000000E+00  0.40265142805E+03  0.40265142806E+03  0.25500000000E-02 0. -1.
          2   -1    0    0  501    0  0.00000000000E+00 -0.00000000000E+00 -0.13675393577E+04  0.13675393577E+04  0.25500000000E-02 0.  1.
     200001    2    1    2    0    0 -0.38834336873E+03  0.81726019544E+02 -0.32536793599E+03  0.79949797309E+03  0.61306035666E+03 0.  0.
    5000001    2    3    3    0    0  0.11414105531E+03 -0.11142234699E+02 -0.23362419501E+03  0.27060004054E+03  0.74106595818E+02 0.  0.
        -13    1    4    4    0    0  0.14982694645E+02 -0.15244734559E+02 -0.95674374489E+02  0.98033056509E+02  0.10566000000E+00 0. -1.
     200003    1    4    4    0    0  0.99158360669E+02  0.41024998607E+01 -0.13794982052E+03  0.17256698403E+03  0.30000000000E+02 0. -1.
     200000    1    3    3    0    0 -0.50248442404E+03  0.92868254243E+02 -0.91743740982E+02  0.52889793255E+03  0.10100000000E+03 0. -1.
    -200001    1    1    2    0    0  0.38834336873E+03 -0.81726019544E+02 -0.63951999368E+03  0.97069281269E+03  0.61300000000E+03 0.  1.
<mgrwt>
<rscale>  0 0.14841047E+04</rscale>
<asrwt>0</asrwt>
<pdfrwt beam="1">  1        2 0.19536276E+00 0.14841047E+04</pdfrwt>
<pdfrwt beam="2">  1       -2 0.57521633E-01 0.14841047E+04</pdfrwt>
<totfact> 0.47255706E+01</totfact>
</mgrwt>
</event>
<event>
 8    1  0.7583103E-052  0.1346928E+04  0.7818608E-02  0.8993157E-01
         -2   -1    0    0    0  501 -0.00000000000E+00  0.00000000000E+00  0.21660545650E+03  0.21660545651E+03  0.25500000000E-02 0. -1.
          2   -1    0    0  501    0  0.00000000000E+00 -0.00000000000E+00 -0.20939171381E+04  0.20939171381E+04  0.25500000000E-02 0.  1.
     200001    2    1    2    0    0  0.13348695303E+03 -0.35069065725E+02 -0.13539033555E+04  0.14927366313E+04  0.61331863520E+03 0.  0.
    5000001    2    3    3    0    0  0.31251496168E+03 -0.47768474540E+02 -0.39482185118E+03  0.51179288426E+03  0.78103993310E+02 0.  0.
        -13    1    4    4    0    0  0.22208359609E+03 -0.27966680559E+02 -0.23399468786E+03  0.32381597241E+03  0.10566000000E+00 0. -1.
     200003    1    4    4    0    0  0.90431365592E+02 -0.19801793982E+02 -0.16082716332E+03  0.18797691185E+03  0.30000000000E+02 0. -1.
     200000    1    3    3    0    0 -0.17902800865E+03  0.12699408816E+02 -0.95908150434E+03  0.98094374703E+03  0.10100000000E+03 0. -1.
    -200001    1    1    2    0    0 -0.13348695303E+03  0.35069065725E+02 -0.52340832608E+03  0.81778596332E+03  0.61300000000E+03 0. -1.
<mgrwt>
<rscale>  0 0.13469282E+04</rscale>
<asrwt>0</asrwt>
<pdfrwt beam="1">  1        2 0.29913101E+00 0.13469282E+04</pdfrwt>
<pdfrwt beam="2">  1       -2 0.30943638E-01 0.13469282E+04</pdfrwt>
<totfact> 0.67918928E+01</totfact>
</mgrwt>
</event>
<event>
 8    1  0.7583103E-052  0.2252127E+04  0.7818608E-02  0.8497040E-01
         -2   -1    0    0    0  501 -0.00000000000E+00  0.00000000000E+00  0.53235849765E+03  0.53235849765E+03  0.25500000000E-02 0. -1.
          2   -1    0    0  501    0  0.00000000000E+00 -0.00000000000E+00 -0.23818887932E+04  0.23818887932E+04  0.25500000000E-02 0.  1.
     200001    2    1    2    0    0 -0.51726659537E+03  0.50893940471E+03 -0.17069836084E+04  0.19536888042E+04  0.61361458261E+03 0.  0.
    5000001    2    3    3    0    0 -0.39767580151E+03  0.22682548695E+01 -0.90143562576E+03  0.98925831714E+03  0.88851801036E+02 0.  0.
        -13    1    4    4    0    0 -0.32411074580E+03  0.22568919559E+02 -0.74039301527E+03  0.80854125429E+03  0.10566000000E+00 0. -1.
     200003    1    4    4    0    0 -0.73565055713E+02 -0.20300664689E+02 -0.16104261050E+03  0.18071706285E+03  0.30000000000E+02 0. -1.
     200000    1    3    3    0    0 -0.11959079386E+03  0.50667114984E+03 -0.80554798261E+03  0.96443048705E+03  0.10100000000E+03 0.  1.
    -200001    1    1    2    0    0  0.51726659537E+03 -0.50893940471E+03 -0.14254668723E+03  0.96055848671E+03  0.61300000000E+03 0. -1.
<mgrwt>
<rscale>  0 0.22521268E+04</rscale>
<asrwt>0</asrwt>
<pdfrwt beam="1">  1        2 0.34026982E+00 0.22521268E+04</pdfrwt>
<pdfrwt beam="2">  1       -2 0.76051215E-01 0.22521268E+04</pdfrwt>
<totfact> 0.71987954E+00</totfact>
</mgrwt>
</event>
<event>
 8    1  0.7583103E-052  0.1461225E+04  0.7818608E-02  0.8910655E-01
         -2   -1    0    0    0  501 -0.00000000000E+00  0.00000000000E+00  0.20675788751E+03  0.20675788752E+03  0.25500000000E-02 0. -1.
          2   -1    0    0  501    0  0.00000000000E+00 -0.00000000000E+00 -0.25817377929E+04  0.25817377929E+04  0.25500000000E-02 0.  1.
     200001    2    1    2    0    0  0.36802840391E+03  0.10548797024E+03 -0.13968296275E+04  0.15723050769E+04  0.61191308912E+03 0.  0.
    5000001    2    3    3    0    0  0.11549824221E+03 -0.16027260066E+03 -0.27736948282E+03  0.39002246300E+03  0.19014873433E+03 0.  0.
        -13    1    4    4    0    0 -0.20133711134E+02 -0.62647379355E+01  0.18938132121E+02  0.28342146667E+02  0.10566000000E+00 0. -1.
     200003    1    4    4    0    0  0.13563195334E+03 -0.15400786272E+03 -0.29630761494E+03  0.36168031633E+03  0.30000000000E+02 0. -1.
     200000    1    3    3    0    0  0.25253016170E+03  0.26576057090E+03 -0.11194601446E+04  0.11822826139E+04  0.10100000000E+03 0.  1.
    -200001    1    1    2    0    0 -0.36802840391E+03 -0.10548797024E+03 -0.97815027789E+03  0.12161906035E+04  0.61300000000E+03 0.  1.
<mgrwt>
<rscale>  0 0.14612250E+04</rscale>
<asrwt>0</asrwt>
<pdfrwt beam="1">  1        2 0.36881967E+00 0.14612250E+04</pdfrwt>
<pdfrwt beam="2">  1       -2 0.29536843E-01 0.14612250E+04</pdfrwt>
<totfact> 0.40952059E+01</totfact>
</mgrwt>
</event>
<event>
 8    1  0.7583103E-052  0.1453842E+04  0.7818608E-02  0.8915741E-01
          2   -1    0    0  501    0  0.00000000000E+00  0.00000000000E+00  0.29221246989E+04  0.29221246989E+04  0.25500000000E-02 0.  1.
         -2   -1    0    0    0  501 -0.00000000000E+00 -0.00000000000E+00 -0.18083211405E+03  0.18083211407E+03  0.25500000000E-02 0. -1.
     200001    2    1    2    0    0  0.18490686158E+03  0.15442803492E+03  0.71947999037E+03  0.97656697745E+03  0.61481138528E+03 0.  0.
    5000001    2    3    3    0    0 -0.19342245655E+03  0.77411486007E+02  0.10890473145E+03  0.24713722170E+03  0.76235037567E+02 0.  0.
        -13    1    4    4    0    0 -0.13237786145E+02 -0.74974672357E+01 -0.46387789038E+01  0.15905358554E+02  0.10566000000E+00 0. -1.
     200003    1    4    4    0    0 -0.18018467041E+03  0.84908953243E+02  0.11354351036E+03  0.23123186315E+03  0.30000000000E+02 0. -1.
     200000    1    3    3    0    0  0.37832931813E+03  0.77016548915E+02  0.61057525892E+03  0.72942975575E+03  0.10100000000E+03 0. -1.
    -200001    1    1    2    0    0 -0.18490686158E+03 -0.15442803492E+03  0.20218125945E+04  0.21263898355E+04  0.61300000000E+03 0.  1.
<mgrwt>
<rscale>  0 0.14538418E+04</rscale>
<asrwt>0</asrwt>
<pdfrwt beam="1">  1        2 0.41744637E+00 0.14538418E+04</pdfrwt>
<pdfrwt beam="2">  1       -2 0.25833160E-01 0.14538418E+04</pdfrwt>
<totfact> 0.34367997E+01</totfact>
</mgrwt>
</event>
<event>
 8    1  0.7583103E-052  0.1725662E+04  0.7818608E-02  0.8746862E-01
          2   -1    0    0  501    0  0.00000000000E+00  0.00000000000E+00  0.28234069586E+04  0.28234069586E+04  0.25500000000E-02 0.  1.
         -2   -1    0    0    0  501 -0.00000000000E+00 -0.00000000000E+00 -0.26368041183E+03  0.26368041185E+03  0.25500000000E-02 0. -1.
     200001    2    1    2    0    0 -0.48802696974E+03  0.22883128280E+03  0.17807417406E+04  0.19587609959E+04  0.61251074549E+03 0.  0.
    5000001    2    3    3    0    0 -0.97406493318E+02 -0.19596072682E+03  0.53292247143E+03  0.58025218693E+03  0.69264770869E+02 0.  0.
        -13    1    4    4    0    0 -0.56373380070E+01 -0.67798017140E+01  0.74469511300E+02  0.74989763091E+02  0.10566000000E+00 0. -1.
     200003    1    4    4    0    0 -0.91769155311E+02 -0.18918092510E+03  0.45845296013E+03  0.50526242384E+03  0.30000000000E+02 0. -1.
     200000    1    3    3    0    0 -0.39062047642E+03  0.42479200961E+03  0.12478192691E+04  0.13785088090E+04  0.10100000000E+03 0. -1.
    -200001    1    1    2    0    0  0.48802696974E+03 -0.22883128280E+03  0.77898480620E+03  0.11283263745E+04  0.61300000000E+03 0. -1.
<mgrwt>
<rscale>  0 0.17256617E+04</rscale>
<asrwt>0</asrwt>
<pdfrwt beam="1">  1        2 0.40334382E+00 0.17256617E+04</pdfrwt>
<pdfrwt beam="2">  1       -2 0.37668633E-01 0.17256617E+04</pdfrwt>
<totfact> 0.18735554E+01</totfact>
</mgrwt>
</event>
<event>
 8    1  0.7583103E-052  0.1351865E+04  0.7818608E-02  0.8989418E-01
         -2   -1    0    0    0  501 -0.00000000000E+00  0.00000000000E+00  0.23344781543E+03  0.23344781544E+03  0.25500000000E-02 0. -1.
          2   -1    0    0  501    0  0.00000000000E+00 -0.00000000000E+00 -0.19571172900E+04  0.19571172900E+04  0.25500000000E-02 0.  1.
     200001    2    1    2    0    0 -0.83705045585E+02 -0.19380087700E+03 -0.11710905336E+04  0.13386978620E+04  0.61326471694E+03 0.  0.
    5000001    2    3    3    0    0  0.18202159223E+03 -0.24648682771E+03 -0.83642225142E+03  0.89644192410E+03  0.10058988192E+03 0.  0.
        -13    1    4    4    0    0  0.10858197190E+03 -0.11732066565E+03 -0.31223422903E+03  0.35077686376E+03  0.10566000000E+00 0. -1.
     200003    1    4    4    0    0  0.73439620328E+02 -0.12916616206E+03 -0.52418802240E+03  0.54566506034E+03  0.30000000000E+02 0. -1.
     200000    1    3    3    0    0 -0.26572663781E+03  0.52685950703E+02 -0.33466828222E+03  0.44225593786E+03  0.10100000000E+03 0. -1.
    -200001    1    1    2    0    0  0.83705045585E+02  0.19380087700E+03 -0.55257894096E+03  0.85186724352E+03  0.61300000000E+03 0. -1.
<mgrwt>
<rscale>  0 0.13518650E+04</rscale>
<asrwt>0</asrwt>
<pdfrwt beam="1">  1        2 0.27958817E+00 0.13518650E+04</pdfrwt>
<pdfrwt beam="2">  1       -2 0.33349689E-01 0.13518650E+04</pdfrwt>
<totfact> 0.69310807E+01</totfact>
</mgrwt>
</event>
<event>
 8    1  0.7583103E-052  0.1282628E+04  0.7818608E-02  0.9043456E-01
          2   -1    0    0  501    0  0.00000000000E+00  0.00000000000E+00  0.61435228095E+03  0.61435228095E+03  0.25500000000E-02 0.  1.
         -2   -1    0    0    0  501 -0.00000000000E+00 -0.00000000000E+00 -0.66945881932E+03  0.66945881933E+03  0.25500000000E-02 0. -1.
     200001    2    1    2    0    0  0.18629849092E+03 -0.45052328437E+02  0.38402680339E+01  0.63884554616E+03  0.60940302278E+03 0.  0.
    5000001    2    3    3    0    0 -0.14319545521E+03 -0.16836146739E+03  0.11179620162E+03  0.25723463452E+03  0.69431580753E+02 0.  0.
        -13    1    4    4    0    0 -0.10424354669E+03 -0.13699408980E+03  0.71806384989E+02  0.18652148873E+03  0.10566000000E+00 0. -1.
     200003    1    4    4    0    0 -0.38951908515E+02 -0.31367377589E+02  0.39989816631E+02  0.70713145793E+02  0.30000000000E+02 0.  1.
     200000    1    3    3    0    0  0.32949394613E+03  0.12330913896E+03 -0.10795593359E+03  0.38161091164E+03  0.10100000000E+03 0.  1.
    -200001    1    1    2    0    0 -0.18629849092E+03  0.45052328437E+02 -0.58946806407E+02  0.64496555412E+03  0.61300000000E+03 0.  1.
<mgrwt>
<rscale>  0 0.12826279E+04</rscale>
<asrwt>0</asrwt>
<pdfrwt beam="1">  1        2 0.87764611E-01 0.12826279E+04</pdfrwt>
<pdfrwt beam="2">  1       -2 0.95636974E-01 0.12826279E+04</pdfrwt>
<totfact> 0.47573316E+01</totfact>
</mgrwt>
</event>
<event>
 8    1  0.7583103E-052  0.1469880E+04  0.7818608E-02  0.8904733E-01
         -2   -1    0    0    0  501 -0.00000000000E+00  0.00000000000E+00  0.45315102157E+03  0.45315102158E+03  0.25500000000E-02 0. -1.
          2   -1    0    0  501    0  0.00000000000E+00 -0.00000000000E+00 -0.11919571919E+04  0.11919571919E+04  0.25500000000E-02 0.  1.
     200001    2    1    2    0    0  0.33634562972E+03 -0.22725851081E+03 -0.44622950025E+03  0.85381501797E+03  0.60423878116E+03 0.  0.
    5000001    2    3    3    0    0  0.40089633387E+03 -0.14822896206E+03 -0.53256759984E+03  0.68628075155E+03  0.68288548480E+02 0.  0.
        -13    1    4    4    0    0  0.26001773290E+03 -0.11464559375E+03 -0.33052645976E+03  0.43589056580E+03  0.10566000000E+00 0. -1.
     200003    1    4    4    0    0  0.14087860097E+03 -0.33583368319E+02 -0.20204114008E+03  0.25039018576E+03  0.30000000000E+02 0. -1.
     200000    1    3    3    0    0 -0.64550704151E+02 -0.79029548751E+02  0.86338099593E+02  0.16753426642E+03  0.10100000000E+03 0. -1.
    -200001    1    1    2    0    0 -0.33634562972E+03  0.22725851081E+03 -0.29257667006E+03  0.79129319549E+03  0.61300000000E+03 0. -1.
<mgrwt>
<rscale>  0 0.14698797E+04</rscale>
<asrwt>0</asrwt>
<pdfrwt beam="1">  1        2 0.17027960E+00 0.14698797E+04</pdfrwt>
<pdfrwt beam="2">  1       -2 0.64735861E-01 0.14698797E+04</pdfrwt>
<totfact> 0.46136973E+01</totfact>
</mgrwt>
</event>
<event>
 8    1  0.7583103E-052  0.1712155E+04  0.7818608E-02  0.8754462E-01
         -2   -1    0    0    0  501 -0.00000000000E+00  0.00000000000E+00  0.74662435607E+03  0.74662435608E+03  0.25500000000E-02 0. -1.
          2   -1    0    0  501    0  0.00000000000E+00 -0.00000000000E+00 -0.98157573980E+03  0.98157573980E+03  0.25500000000E-02 0.  1.
     200001    2    1    2    0    0  0.17738662341E+03 -0.55524673011E+03 -0.24505347524E+03  0.88224737988E+03  0.61525952907E+03 0.  0.
    5000001    2    3    3    0    0 -0.39873404150E+02 -0.10267672218E+03  0.17569505579E+03  0.21948659496E+03  0.71925065887E+02 0.  0.
        -13    1    4    4    0    0 -0.11238348219E+02 -0.83843790983E+02  0.12893841039E+03  0.15421156440E+03  0.10566000000E+00 0. -1.
     200003    1    4    4    0    0 -0.28635055931E+02 -0.18832931196E+02  0.46756645400E+02  0.65275030560E+02  0.30000000000E+02 0.  1.
     200000    1    3    3    0    0  0.21726002756E+03 -0.45257000793E+03 -0.42074853103E+03  0.66276078491E+03  0.10100000000E+03 0.  1.
    -200001    1    1    2    0    0 -0.17738662341E+03  0.55524673011E+03  0.10102091506E+02  0.84595271600E+03  0.61300000000E+03 0. -1.
<mgrwt>
<rscale>  0 0.17121546E+04</rscale>
<asrwt>0</asrwt>
<pdfrwt beam="1">  1        2 0.14022510E+00 0.17121546E+04</pdfrwt>
<pdfrwt beam="2">  1       -2 0.10666062E+00 0.17121546E+04</pdfrwt>
<totfact> 0.19461283E+01</totfact>
</mgrwt>
</event>
<event>
 8    1  0.7583103E-052  0.2420883E+04  0.7818608E-02  0.8431726E-01
         -2   -1    0    0    0  501 -0.00000000000E+00  0.00000000000E+00  0.57619264015E+03  0.57619264016E+03  0.25500000000E-02 0. -1.
          2   -1    0    0  501    0  0.00000000000E+00 -0.00000000000E+00 -0.25428453586E+04  0.25428453586E+04  0.25500000000E-02 0.  1.
     200001    2    1    2    0    0 -0.19601238696E+03  0.20410216801E+03 -0.22777144598E+04  0.23756626173E+04  0.61295282034E+03 0.  0.
    5000001    2    3    3    0    0 -0.22677631450E+03  0.74783184481E+02 -0.28768120518E+03  0.37863903875E+03  0.59891771998E+02 0.  0.
        -13    1    4    4    0    0  0.23080058838E+01  0.34307254207E+01 -0.72960923047E+01  0.83869478969E+01  0.10566000000E+00 0. -1.
     200003    1    4    4    0    0 -0.22908432038E+03  0.71352459061E+02 -0.28038511288E+03  0.37025209085E+03  0.30000000000E+02 0. -1.
     200000    1    3    3    0    0  0.30763927536E+02  0.12931898353E+03 -0.19900332547E+04  0.19970235786E+04  0.10100000000E+03 0.  1.
    -200001    1    1    2    0    0  0.19601238696E+03 -0.20410216801E+03  0.31106174136E+03  0.74337538146E+03  0.61300000000E+03 0. -1.
<mgrwt>
<rscale>  0 0.24208831E+04</rscale>
<asrwt>0</asrwt>
<pdfrwt beam="1">  1        2 0.36326362E+00 0.24208831E+04</pdfrwt>
<pdfrwt beam="2">  1       -2 0.82313236E-01 0.24208831E+04</pdfrwt>
<totfact> 0.48927918E+00</totfact>
</mgrwt>
</event>
<event>
 8    1  0.7583103E-052  0.1637765E+04  0.7818608E-02  0.8797678E-01
          2   -1    0    0  501    0  0.00000000000E+00  0.00000000000E+00  0.21489834679E+04  0.21489834679E+04  0.25500000000E-02 0.  1.
         -2   -1    0    0    0  501 -0.00000000000E+00 -0.00000000000E+00 -0.31203982853E+03  0.31203982854E+03  0.25500000000E-02 0. -1.
     200001    2    1    2    0    0 -0.53759693964E+02  0.28951759849E+03  0.23378615830E+03  0.71958898713E+03  0.61354852950E+03 0.  0.
    5000001    2    3    3    0    0  0.70132244391E+02 -0.11886595224E+03 -0.81857971955E+02  0.17925709481E+03  0.79904519031E+02 0.  0.
        -13    1    4    4    0    0  0.28253042535E+01  0.10095210816E+02 -0.90138374976E+01  0.13825919717E+02  0.10566000000E+00 0. -1.
     200003    1    4    4    0    0  0.67306940137E+02 -0.12896116306E+03 -0.72844134457E+02  0.16543117509E+03  0.30000000000E+02 0. -1.
     200000    1    3    3    0    0 -0.12389193835E+03  0.40838355073E+03  0.31564413025E+03  0.54033189232E+03  0.10100000000E+03 0. -1.
    -200001    1    1    2    0    0  0.53759693964E+02 -0.28951759849E+03  0.16031574811E+04  0.17414343093E+04  0.61300000000E+03 0.  1.
<mgrwt>
<rscale>  0 0.16377649E+04</rscale>
<asrwt>0</asrwt>
<pdfrwt beam="1">  1        2 0.30699765E+00 0.16377649E+04</pdfrwt>
<pdfrwt beam="2">  1       -2 0.44577117E-01 0.16377649E+04</pdfrwt>
<totfact> 0.30736230E+01</totfact>
</mgrwt>
</event>
<event>
 8    1  0.7583103E-052  0.1387697E+04  0.7818608E-02  0.8962772E-01
         -2   -1    0    0    0  501 -0.00000000000E+00  0.00000000000E+00  0.84359388878E+03  0.84359388878E+03  0.25500000000E-02 0. -1.
          2   -1    0    0  501    0  0.00000000000E+00 -0.00000000000E+00 -0.57068460516E+03  0.57068460516E+03  0.25500000000E-02 0.  1.
     200001    2    1    2    0    0 -0.55302131563E+02  0.79674814564E+02  0.45474906099E+03  0.76756286365E+03  0.61069602860E+03 0.  0.
    5000001    2    3    3    0    0  0.16659844155E+03  0.21874962284E+03  0.84353263769E+02  0.30283099123E+03  0.94787646435E+02 0.  0.
        -13    1    4    4    0    0  0.80661841270E+02  0.11657871805E+03 -0.60711834936E+00  0.14176498121E+03  0.10566000000E+00 0. -1.
     200003    1    4    4    0    0  0.85936600283E+02  0.10217090479E+03  0.84960382118E+02  0.16106601002E+03  0.30000000000E+02 0. -1.
     200000    1    3    3    0    0 -0.22190057312E+03 -0.13907480828E+03  0.37039579722E+03  0.46473187242E+03  0.10100000000E+03 0. -1.
    -200001    1    1    2    0    0  0.55302131563E+02 -0.79674814564E+02 -0.18183977737E+03  0.64671563029E+03  0.61300000000E+03 0.  1.
<mgrwt>
<rscale>  0 0.13876974E+04</rscale>
<asrwt>0</asrwt>
<pdfrwt beam="1">  1        2 0.81526372E-01 0.13876974E+04</pdfrwt>
<pdfrwt beam="2">  1       -2 0.12051341E+00 0.13876974E+04</pdfrwt>
<totfact> 0.29510323E+01</totfact>
</mgrwt>
</event>
<event>
 8    1  0.7583103E-052  0.1364120E+04  0.7818608E-02  0.8980208E-01
          2   -1    0    0  501    0  0.00000000000E+00  0.00000000000E+00  0.16701973241E+04  0.16701973241E+04  0.25500000000E-02 0.  1.
         -2   -1    0    0    0  501 -0.00000000000E+00 -0.00000000000E+00 -0.27853356291E+03  0.27853356292E+03  0.25500000000E-02 0. -1.
     200001    2    1    2    0    0 -0.36891569812E+02 -0.15449532791E+03  0.10560323802E+04  0.12320390298E+04  0.61439888403E+03 0.  0.
    5000001    2    3    3    0    0 -0.77755512637E+02 -0.64325982711E+02 -0.33039378221E+02  0.13382290008E+03  0.81444559514E+02 0.  0.
        -13    1    4    4    0    0 -0.71798515069E+02 -0.67165869608E+02 -0.30779257100E+02  0.10302259285E+03  0.10566000000E+00 0. -1.
     200003    1    4    4    0    0 -0.59569975679E+01  0.28398868970E+01 -0.22601211204E+01  0.30800307224E+02  0.30000000000E+02 0.  1.
     200000    1    3    3    0    0  0.40863942825E+02 -0.90169345202E+02  0.10890717584E+04  0.10982161297E+04  0.10100000000E+03 0.  1.
    -200001    1    1    2    0    0  0.36891569812E+02  0.15449532791E+03  0.33563138098E+03  0.71669185719E+03  0.61300000000E+03 0. -1.
<mgrwt>
<rscale>  0 0.13641202E+04</rscale>
<asrwt>0</asrwt>
<pdfrwt beam="1">  1        2 0.23859962E+00 0.13641202E+04</pdfrwt>
<pdfrwt beam="2">  1       -2 0.39790509E-01 0.13641202E+04</pdfrwt>
<totfact> 0.69347204E+01</totfact>
</mgrwt>
</event>
<event>
 8    1  0.7583103E-052  0.1644548E+04  0.7818608E-02  0.8793638E-01
         -2   -1    0    0    0  501 -0.00000000000E+00  0.00000000000E+00  0.28370023664E+03  0.28370023665E+03  0.25500000000E-02 0. -1.
          2   -1    0    0  501    0  0.00000000000E+00 -0.00000000000E+00 -0.23832716209E+04  0.23832716209E+04  0.25500000000E-02 0.  1.
     200001    2    1    2    0    0  0.32188848169E+03 -0.35521162778E+03 -0.61770796235E+03  0.99321091394E+03  0.61246820135E+03 0.  0.
    5000001    2    3    3    0    0  0.30073235312E+02 -0.63911170194E+02 -0.54710034506E+03  0.56286392577E+03  0.11183905493E+03 0.  0.
        -13    1    4    4    0    0 -0.30227435311E+02 -0.50272961683E+02 -0.32917299271E+03  0.33435899692E+03  0.10566000000E+00 0. -1.
     200003    1    4    4    0    0  0.60300670622E+02 -0.13638208511E+02 -0.21792735234E+03  0.22850492885E+03  0.30000000000E+02 0. -1.
     200000    1    3    3    0    0  0.29181524638E+03 -0.29130045758E+03 -0.70607617287E+02  0.43034698817E+03  0.10100000000E+03 0. -1.
    -200001    1    1    2    0    0 -0.32188848169E+03  0.35521162778E+03 -0.14818634219E+04  0.16737609436E+04  0.61300000000E+03 0.  1.
<mgrwt>
<rscale>  0 0.16445482E+04</rscale>
<asrwt>0</asrwt>
<pdfrwt beam="1">  1        2 0.34046736E+00 0.16445482E+04</pdfrwt>
<pdfrwt beam="2">  1       -2 0.40528607E-01 0.16445482E+04</pdfrwt>
<totfact> 0.28041486E+01</totfact>
</mgrwt>
</event>
<event>
 8    1  0.7583103E-052  0.1523255E+04  0.7818608E-02  0.8869134E-01
          2   -1    0    0  501    0  0.00000000000E+00  0.00000000000E+00  0.11727636411E+04  0.11727636411E+04  0.25500000000E-02 0.  1.
         -2   -1    0    0    0  501 -0.00000000000E+00 -0.00000000000E+00 -0.49462380642E+03  0.49462380643E+03  0.25500000000E-02 0. -1.
     200001    2    1    2    0    0  0.30259560623E+03 -0.30205745296E+03  0.18069129256E+03  0.76959746213E+03  0.61386326223E+03 0.  0.
    5000001    2    3    3    0    0  0.98826882087E+02 -0.23518454200E+03  0.28941869874E+03  0.50879806026E+03  0.33171337254E+03 0.  0.
        -13    1    4    4    0    0  0.14222108833E+03 -0.59027829305E+02 -0.13350276386E+02  0.15456184407E+03  0.10566000000E+00 0. -1.
     200003    1    4    4    0    0 -0.43394206240E+02 -0.17615671269E+03  0.30276897513E+03  0.35423621619E+03  0.30000000000E+02 0. -1.
     200000    1    3    3    0    0  0.20376872414E+03 -0.66872910960E+02 -0.10872740619E+03  0.26079940187E+03  0.10100000000E+03 0. -1.
    -200001    1    1    2    0    0 -0.30259560623E+03  0.30205745296E+03  0.49744854207E+03  0.89778998536E+03  0.61300000000E+03 0.  1.
<mgrwt>
<rscale>  0 0.15232555E+04</rscale>
<asrwt>0</asrwt>
<pdfrwt beam="1">  1        2 0.16753766E+00 0.15232555E+04</pdfrwt>
<pdfrwt beam="2">  1       -2 0.70660544E-01 0.15232555E+04</pdfrwt>
<totfact> 0.38988922E+01</totfact>
</mgrwt>
</event>
<event>
 8    1  0.7583103E-052  0.1431468E+04  0.7818608E-02  0.8931350E-01
          2   -1    0    0  501    0  0.00000000000E+00  0.00000000000E+00  0.25494560557E+04  0.25494560557E+04  0.25500000000E-02 0.  1.
         -2   -1    0    0    0  501 -0.00000000000E+00 -0.00000000000E+00 -0.20093507077E+03  0.20093507079E+03  0.25500000000E-02 0. -1.
     200001    2    1    2    0    0 -0.34846963001E+01 -0.26326319272E+03  0.67520576660E+03  0.94898265765E+03  0.61265455643E+03 0.  0.
    5000001    2    3    3    0    0  0.11493788595E+03 -0.36089547560E+03  0.55016831835E+03  0.72674104563E+03  0.28637581418E+03 0.  0.
        -13    1    4    4    0    0  0.18219593815E+03 -0.11350734873E+03  0.21638227041E+03  0.30479595832E+03  0.10566000000E+00 0. -1.
     200003    1    4    4    0    0 -0.67258052201E+02 -0.24738812688E+03  0.33378604794E+03  0.42194508731E+03  0.30000000000E+02 0. -1.
     200000    1    3    3    0    0 -0.11842258225E+03  0.97632282883E+02  0.12503744825E+03  0.22224161202E+03  0.10100000000E+03 0. -1.
    -200001    1    1    2    0    0  0.34846963001E+01  0.26326319272E+03  0.16733152184E+04  0.18014084689E+04  0.61300000000E+03 0.  1.
<mgrwt>
<rscale>  0 0.14314680E+04</rscale>
<asrwt>0</asrwt>
<pdfrwt beam="1">  1        2 0.36420798E+00 0.14314680E+04</pdfrwt>
<pdfrwt beam="2">  1       -2 0.28705012E-01 0.14314680E+04</pdfrwt>
<totfact> 0.45020456E+01</totfact>
</mgrwt>
</event>
<event>
 8    1  0.7583103E-052  0.1611254E+04  0.7818608E-02  0.8813664E-01
          2   -1    0    0  501    0  0.00000000000E+00  0.00000000000E+00  0.10286557726E+04  0.10286557726E+04  0.25500000000E-02 0.  1.
         -2   -1    0    0    0  501 -0.00000000000E+00 -0.00000000000E+00 -0.63095438514E+03  0.63095438515E+03  0.25500000000E-02 0. -1.
     200001    2    1    2    0    0 -0.16104776126E+03 -0.35715282389E+03 -0.15744069326E+03  0.74448926368E+03  0.61317385040E+03 0.  0.
    5000001    2    3    3    0    0  0.10390693607E+03 -0.10786022947E+03  0.17089051144E+03  0.24413921696E+03  0.89274351830E+02 0.  0.
        -13    1    4    4    0    0  0.78374009474E+02 -0.10977114190E+03  0.13433081667E+03  0.19036010198E+03  0.10566000000E+00 0. -1.
     200003    1    4    4    0    0  0.25532926595E+02  0.19109124260E+01  0.36559694767E+02  0.53779114982E+02  0.30000000000E+02 0.  1.
     200000    1    3    3    0    0 -0.26495469733E+03 -0.24929259442E+03 -0.32833120469E+03  0.50035004671E+03  0.10100000000E+03 0.  1.
    -200001    1    1    2    0    0  0.16104776126E+03  0.35715282389E+03  0.55514208074E+03  0.91512089411E+03  0.61300000000E+03 0.  1.
<mgrwt>
<rscale>  0 0.16112540E+04</rscale>
<asrwt>0</asrwt>
<pdfrwt beam="1">  1        2 0.14695082E+00 0.16112540E+04</pdfrwt>
<pdfrwt beam="2">  1       -2 0.90136341E-01 0.16112540E+04</pdfrwt>
<totfact> 0.27280275E+01</totfact>
</mgrwt>
</event>
<event>
 8    1  0.7583103E-052  0.1398626E+04  0.7818608E-02  0.8954814E-01
          2   -1    0    0  501    0  0.00000000000E+00  0.00000000000E+00  0.22429719740E+04  0.22429719740E+04  0.25500000000E-02 0. -1.
         -2   -1    0    0    0  501 -0.00000000000E+00 -0.00000000000E+00 -0.21803155848E+03  0.21803155849E+03  0.25500000000E-02 0.  1.
     200001    2    1    2    0    0 -0.17427625242E+03 -0.35771641964E+02  0.51356594538E+03  0.82037145566E+03  0.61449778070E+03 0.  0.
    5000001    2    3    3    0    0 -0.22676043778E+03 -0.24689452285E+03  0.15121291561E+03  0.38582781144E+03  0.11670712352E+03 0.  0.
        -13    1    4    4    0    0 -0.27258522955E+02 -0.79384195575E+02  0.75497632255E+02  0.11289278640E+03  0.10566000000E+00 0. -1.
     200003    1    4    4    0    0 -0.19950191482E+03 -0.16751032728E+03  0.75715283355E+02  0.27293502504E+03  0.30000000000E+02 0. -1.
     200000    1    3    3    0    0  0.52484185354E+02  0.21112288089E+03  0.36235302977E+03  0.43454364422E+03  0.10100000000E+03 0. -1.
    -200001    1    1    2    0    0  0.17427625242E+03  0.35771641964E+02  0.15113744701E+04  0.16406320768E+04  0.61300000000E+03 0. -1.
<mgrwt>
<rscale>  0 0.13986260E+04</rscale>
<asrwt>0</asrwt>
<pdfrwt beam="1">  1        2 0.32042456E+00 0.13986260E+04</pdfrwt>
<pdfrwt beam="2">  1       -2 0.31147366E-01 0.13986260E+04</pdfrwt>
<totfact> 0.56002141E+01</totfact>
</mgrwt>
</event>
<event>
 8    1  0.7583103E-052  0.2247307E+04  0.7818608E-02  0.8498992E-01
          2   -1    0    0  501    0  0.00000000000E+00  0.00000000000E+00  0.15960974938E+04  0.15960974938E+04  0.25500000000E-02 0.  1.
         -2   -1    0    0    0  501 -0.00000000000E+00 -0.00000000000E+00 -0.79105286472E+03  0.79105286472E+03  0.25500000000E-02 0. -1.
     200001    2    1    2    0    0  0.19217919495E+02  0.13147637143E+03  0.13929106492E+04  0.15274929720E+04  0.61268208571E+03 0.  0.
    5000001    2    3    3    0    0  0.22066844794E+03  0.26780374030E+03  0.91607443826E+03  0.98275336541E+03  0.78729877130E+02 0.  0.
        -13    1    4    4    0    0 -0.23419595354E+01  0.17502683984E+02  0.69916136378E+02  0.72111760561E+02  0.10566000000E+00 0. -1.
     200003    1    4    4    0    0  0.22301040748E+03  0.25030105631E+03  0.84615830188E+03  0.91064160485E+03  0.30000000000E+02 0. -1.
     200000    1    3    3    0    0 -0.20145052845E+03 -0.13632736887E+03  0.47683621094E+03  0.54473960658E+03  0.10100000000E+03 0.  1.
    -200001    1    1    2    0    0 -0.19217919495E+02 -0.13147637143E+03 -0.58786602010E+03  0.85965738656E+03  0.61300000000E+03 0. -1.
<mgrwt>
<rscale>  0 0.22473073E+04</rscale>
<asrwt>0</asrwt>
<pdfrwt beam="1">  1        2 0.22801393E+00 0.22473073E+04</pdfrwt>
<pdfrwt beam="2">  1       -2 0.11300755E+00 0.22473073E+04</pdfrwt>
<totfact> 0.73225357E+00</totfact>
</mgrwt>
</event>
<event>
 8    1  0.7583103E-052  0.1679468E+04  0.7818608E-02  0.8773162E-01
          2   -1    0    0  501    0  0.00000000000E+00  0.00000000000E+00  0.26226569141E+04  0.26226569141E+04  0.25500000000E-02 0.  1.
         -2   -1    0    0    0  501 -0.00000000000E+00 -0.00000000000E+00 -0.26886982515E+03  0.26886982517E+03  0.25500000000E-02 0. -1.
     200001    2    1    2    0    0 -0.17505110636E+03  0.48916501258E+03  0.15917347666E+04  0.17840891377E+04  0.61597823397E+03 0.  0.
    5000001    2    3    3    0    0 -0.24344013460E+03  0.46307321922E+03  0.15715807706E+04  0.16577363601E+04  0.67259315318E+02 0.  0.
        -13    1    4    4    0    0 -0.11993774313E+03  0.27104770623E+03  0.92930125170E+03  0.97542439422E+03  0.10566000000E+00 0. -1.
     200003    1    4    4    0    0 -0.12350239147E+03  0.19202551299E+03  0.64227951892E+03  0.68231196587E+03  0.30000000000E+02 0. -1.
     200000    1    3    3    0    0  0.68389028242E+02  0.26091793359E+02  0.20153996017E+02  0.12635277765E+03  0.10100000000E+03 0. -1.
    -200001    1    1    2    0    0  0.17505110636E+03 -0.48916501258E+03  0.76205232235E+03  0.11074376016E+04  0.61300000000E+03 0. -1.
<mgrwt>
<rscale>  0 0.16794681E+04</rscale>
<asrwt>0</asrwt>
<pdfrwt beam="1">  1        2 0.37466529E+00 0.16794681E+04</pdfrwt>
<pdfrwt beam="2">  1       -2 0.38409974E-01 0.16794681E+04</pdfrwt>
<totfact> 0.23228040E+01</totfact>
</mgrwt>
</event>
<event>
 8    1  0.7583103E-052  0.1515706E+04  0.7818608E-02  0.8874075E-01
          2   -1    0    0  501    0  0.00000000000E+00  0.00000000000E+00  0.71642620643E+03  0.71642620644E+03  0.25500000000E-02 0.  1.
         -2   -1    0    0    0  501 -0.00000000000E+00 -0.00000000000E+00 -0.80167542605E+03  0.80167542605E+03  0.25500000000E-02 0. -1.
     200001    2    1    2    0    0  0.41989924934E+03  0.15259840456E+03  0.47613650395E+01  0.75424787815E+03  0.60767222943E+03 0.  0.
    5000001    2    3    3    0    0  0.47301305542E+03 -0.48561712017E+02 -0.49182074763E+02  0.51676658710E+03  0.19628866140E+03 0.  0.
        -13    1    4    4    0    0  0.33416045440E+03 -0.88259877065E+02  0.34238668854E+02  0.34731155005E+03  0.10566000000E+00 0. -1.
     200003    1    4    4    0    0  0.13885260102E+03  0.39698165049E+02 -0.83420743617E+02  0.16945503705E+03  0.30000000000E+02 0.  1.
     200000    1    3    3    0    0 -0.53113806080E+02  0.20116011658E+03  0.53943439802E+02  0.23748129104E+03  0.10100000000E+03 0. -1.
    -200001    1    1    2    0    0 -0.41989924934E+03 -0.15259840456E+03 -0.90010584655E+02  0.76385375434E+03  0.61300000000E+03 0. -1.
<mgrwt>
<rscale>  0 0.15157062E+04</rscale>
<asrwt>0</asrwt>
<pdfrwt beam="1">  1        2 0.10234660E+00 0.15157062E+04</pdfrwt>
<pdfrwt beam="2">  1       -2 0.11452506E+00 0.15157062E+04</pdfrwt>
<totfact> 0.25188984E+01</totfact>
</mgrwt>
</event>
<event>
 8    1  0.7583103E-052  0.1320834E+04  0.7818608E-02  0.9013205E-01
         -2   -1    0    0    0  501 -0.00000000000E+00  0.00000000000E+00  0.21411488945E+03  0.21411488947E+03  0.25500000000E-02 0. -1.
          2   -1    0    0  501    0  0.00000000000E+00 -0.00000000000E+00 -0.20369943575E+04  0.20369943575E+04  0.25500000000E-02 0.  1.
     200001    2    1    2    0    0 -0.15463920706E+02  0.47164185694E+02 -0.50020673482E+03  0.79244693085E+03  0.61261877820E+03 0.  0.
    5000001    2    3    3    0    0  0.22809664968E+03 -0.11904250955E+03 -0.10310997305E+03  0.28763681288E+03  0.76837939241E+02 0.  0.
        -13    1    4    4    0    0  0.13651280806E+03 -0.98297194930E+02 -0.80537792007E+02  0.18650585085E+03  0.10566000000E+00 0. -1.
     200003    1    4    4    0    0  0.91583841618E+02 -0.20745314622E+02 -0.22572181040E+02  0.10113096203E+03  0.30000000000E+02 0. -1.
     200000    1    3    3    0    0 -0.24356057039E+03  0.16620669525E+03 -0.39709676177E+03  0.50481011797E+03  0.10100000000E+03 0. -1.
    -200001    1    1    2    0    0  0.15463920706E+02 -0.47164185694E+02 -0.13226727332E+04  0.14586623161E+04  0.61300000000E+03 0.  1.
<mgrwt>
<rscale>  0 0.13208343E+04</rscale>
<asrwt>0</asrwt>
<pdfrwt beam="1">  1        2 0.29099918E+00 0.13208343E+04</pdfrwt>
<pdfrwt beam="2">  1       -2 0.30587842E-01 0.13208343E+04</pdfrwt>
<totfact> 0.74380054E+01</totfact>
</mgrwt>
</event>
<event>
 8    1  0.7583103E-052  0.1284696E+04  0.7818608E-02  0.9041790E-01
          2   -1    0    0  501    0  0.00000000000E+00  0.00000000000E+00  0.76112097739E+03  0.76112097740E+03  0.25500000000E-02 0.  1.
         -2   -1    0    0    0  501 -0.00000000000E+00 -0.00000000000E+00 -0.54210976760E+03  0.54210976761E+03  0.25500000000E-02 0. -1.
     200001    2    1    2    0    0  0.11215818113E+03  0.15036720555E+03  0.15292833258E+03  0.65877306543E+03  0.61270312774E+03 0.  0.
    5000001    2    3    3    0    0  0.14201350581E+03  0.32781093016E+03 -0.51204203780E+02  0.36851678520E+03  0.74531260083E+02 0.  0.
        -13    1    4    4    0    0 -0.33710016312E+01  0.34043684079E+02  0.51102035493E+01  0.34589903470E+02  0.10566000000E+00 0. -1.
     200003    1    4    4    0    0  0.14538450744E+03  0.29376724608E+03 -0.56314407329E+02  0.33392688173E+03  0.30000000000E+02 0. -1.
     200000    1    3    3    0    0 -0.29855324682E+02 -0.17744372461E+03  0.20413253636E+03  0.29025628023E+03  0.10100000000E+03 0.  1.
    -200001    1    1    2    0    0 -0.11215818113E+03 -0.15036720555E+03  0.66082877215E+02  0.64445767957E+03  0.61300000000E+03 0.  1.
<mgrwt>
<rscale>  0 0.12846963E+04</rscale>
<asrwt>0</asrwt>
<pdfrwt beam="1">  1        2 0.10873157E+00 0.12846963E+04</pdfrwt>
<pdfrwt beam="2">  1       -2 0.77444253E-01 0.12846963E+04</pdfrwt>
<totfact> 0.59198950E+01</totfact>
</mgrwt>
</event>
<event>
 8    1  0.7583103E-052  0.1448920E+04  0.7818608E-02  0.8919150E-01
         -2   -1    0    0    0  501 -0.00000000000E+00  0.00000000000E+00  0.10909825795E+03  0.10909825798E+03  0.25500000000E-02 0. -1.
          2   -1    0    0  501    0  0.00000000000E+00 -0.00000000000E+00 -0.48107289984E+04  0.48107289984E+04  0.25500000000E-02 0.  1.
     200001    2    1    2    0    0 -0.30051685064E+03 -0.39312597466E+02 -0.15399694938E+04  0.16850588417E+04  0.61323845314E+03 0.  0.
    5000001    2    3    3    0    0 -0.26646611474E+03 -0.28040695635E+03 -0.67948232880E+03  0.78510045178E+03  0.71093127388E+02 0.  0.
        -13    1    4    4    0    0 -0.75525081001E+01 -0.80898140468E+01 -0.44078510925E+01  0.11913260897E+02  0.10566000000E+00 0. -1.
     200003    1    4    4    0    0 -0.25891360664E+03 -0.27231714231E+03 -0.67507447771E+03  0.77318719089E+03  0.30000000000E+02 0. -1.
     200000    1    3    3    0    0 -0.34050735900E+02  0.24109435889E+03 -0.86048716495E+03  0.89995838990E+03  0.10100000000E+03 0. -1.
    -200001    1    1    2    0    0  0.30051685064E+03  0.39312597466E+02 -0.31616612467E+04  0.32347684147E+04  0.61300000000E+03 0.  1.
<mgrwt>
<rscale>  0 0.14489198E+04</rscale>
<asrwt>0</asrwt>
<pdfrwt beam="1">  1        2 0.68724687E+00 0.14489198E+04</pdfrwt>
<pdfrwt beam="2">  1       -2 0.15585468E-01 0.14489198E+04</pdfrwt>
<totfact> 0.43994364E+00</totfact>
</mgrwt>
</event>
<event>
 8    1  0.7583103E-052  0.1515247E+04  0.7818608E-02  0.8874377E-01
          2   -1    0    0  501    0  0.00000000000E+00  0.00000000000E+00  0.19441510383E+04  0.19441510383E+04  0.25500000000E-02 0.  1.
         -2   -1    0    0    0  501 -0.00000000000E+00 -0.00000000000E+00 -0.29524098949E+03  0.29524098950E+03  0.25500000000E-02 0. -1.
     200001    2    1    2    0    0 -0.37408396138E+03  0.24050994105E+03  0.84758887795E+03  0.11368184653E+04  0.61332330388E+03 0.  0.
    5000001    2    3    3    0    0 -0.52302993918E+02  0.19442181680E+03  0.75207720990E+03  0.78327838983E+03  0.85845560760E+02 0.  0.
        -13    1    4    4    0    0 -0.16219017505E+02  0.12061418228E+03  0.54618887253E+03  0.55958299933E+03  0.10566000000E+00 0. -1.
     200003    1    4    4    0    0 -0.36083976413E+02  0.73807634518E+02  0.20588833737E+03  0.22369539050E+03  0.30000000000E+02 0. -1.
     200000    1    3    3    0    0 -0.32178096746E+03  0.46088124259E+02  0.95511668044E+02  0.35354007545E+03  0.10100000000E+03 0. -1.
    -200001    1    1    2    0    0  0.37408396138E+03 -0.24050994105E+03  0.80132117090E+03  0.11025735626E+04  0.61300000000E+03 0. -1.
<mgrwt>
<rscale>  0 0.15152466E+04</rscale>
<asrwt>0</asrwt>
<pdfrwt beam="1">  1        2 0.27773587E+00 0.15152466E+04</pdfrwt>
<pdfrwt beam="2">  1       -2 0.42177283E-01 0.15152466E+04</pdfrwt>
<totfact> 0.44144361E+01</totfact>
</mgrwt>
</event>
<event>
 8    1  0.7583103E-052  0.1966039E+04  0.7818608E-02  0.8622665E-01
          2   -1    0    0  501    0  0.00000000000E+00  0.00000000000E+00  0.20471575139E+04  0.20471575139E+04  0.25500000000E-02 0.  1.
         -2   -1    0    0    0  501 -0.00000000000E+00 -0.00000000000E+00 -0.47203370908E+03  0.47203370909E+03  0.25500000000E-02 0. -1.
     200001    2    1    2    0    0 -0.32127557293E+03 -0.31338694019E+03  0.15864529062E+04  0.17593710360E+04  0.61410442962E+03 0.  0.
    5000001    2    3    3    0    0 -0.25276584422E+03  0.87713981252E+02  0.10103826678E+04  0.10468870350E+04  0.59287553810E+02 0.  0.
        -13    1    4    4    0    0 -0.38260153517E+02 -0.18085759069E+01  0.18215070002E+03  0.18613435733E+03  0.10566000000E+00 0. -1.
     200003    1    4    4    0    0 -0.21450569070E+03  0.89522557159E+02  0.82823196778E+03  0.86075267762E+03  0.30000000000E+02 0. -1.
     200000    1    3    3    0    0 -0.68509728708E+02 -0.40110092144E+03  0.57607023843E+03  0.71248400102E+03  0.10100000000E+03 0.  1.
    -200001    1    1    2    0    0  0.32127557293E+03  0.31338694019E+03 -0.11329101434E+02  0.75982018700E+03  0.61300000000E+03 0. -1.
<mgrwt>
<rscale>  0 0.19660390E+04</rscale>
<asrwt>0</asrwt>
<pdfrwt beam="1">  1        2 0.29245107E+00 0.19660390E+04</pdfrwt>
<pdfrwt beam="2">  1       -2 0.67433387E-01 0.19660390E+04</pdfrwt>
<totfact> 0.14300957E+01</totfact>
</mgrwt>
</event>
<event>
 8    1  0.7583103E-052  0.2142501E+04  0.7818608E-02  0.8542749E-01
          2   -1    0    0  501    0  0.00000000000E+00  0.00000000000E+00  0.16084819329E+04  0.16084819329E+04  0.25500000000E-02 0.  1.
         -2   -1    0    0    0  501 -0.00000000000E+00 -0.00000000000E+00 -0.71345396426E+03  0.71345396426E+03  0.25500000000E-02 0. -1.
     200001    2    1    2    0    0 -0.61213870812E+03  0.41200685058E+02  0.11282024611E+04  0.14238542537E+04  0.61490556042E+03 0.  0.
    5000001    2    3    3    0    0 -0.59518684143E+02  0.13707705214E+03  0.83067677648E+02  0.23343882867E+03  0.15893664044E+03 0.  0.
        -13    1    4    4    0    0  0.25316966212E+02  0.96319198309E+02 -0.68946614626E+01  0.99829275575E+02  0.10566000000E+00 0. -1.
     200003    1    4    4    0    0 -0.84835650355E+02  0.40757853834E+02  0.89962339111E+02  0.13360955310E+03  0.30000000000E+02 0. -1.
     200000    1    3    3    0    0 -0.55262002398E+03 -0.95876367085E+02  0.10451347835E+04  0.11904154251E+04  0.10100000000E+03 0.  1.
    -200001    1    1    2    0    0  0.61213870812E+03 -0.41200685058E+02 -0.23317449241E+03  0.89808164347E+03  0.61300000000E+03 0. -1.
<mgrwt>
<rscale>  0 0.21425012E+04</rscale>
<asrwt>0</asrwt>
<pdfrwt beam="1">  1        2 0.22978314E+00 0.21425012E+04</pdfrwt>
<pdfrwt beam="2">  1       -2 0.10192199E+00 0.21425012E+04</pdfrwt>
<totfact> 0.93290336E+00</totfact>
</mgrwt>
</event>
<event>
 8    1  0.7583103E-052  0.1570203E+04  0.7818608E-02  0.8839065E-01
         -2   -1    0    0    0  501 -0.00000000000E+00  0.00000000000E+00  0.24397050437E+03  0.24397050438E+03  0.25500000000E-02 0. -1.
          2   -1    0    0  501    0  0.00000000000E+00 -0.00000000000E+00 -0.25264713637E+04  0.25264713637E+04  0.25500000000E-02 0.  1.
     200001    2    1    2    0    0 -0.15241564321E+03 -0.46456705995E+03 -0.10635236779E+04  0.13210532210E+04  0.61240992624E+03 0.  0.
    5000001    2    3    3    0    0 -0.11234354056E+03  0.12331313535E+03 -0.25745226918E+03  0.31747910146E+03  0.81756397328E+02 0.  0.
        -13    1    4    4    0    0 -0.90547491649E+02  0.11642585463E+03 -0.21453523724E+03  0.26034440085E+03  0.10566000000E+00 0. -1.
     200003    1    4    4    0    0 -0.21796048914E+02  0.68872807160E+01 -0.42917031941E+02  0.57134700616E+02  0.30000000000E+02 0. -1.
     200000    1    3    3    0    0 -0.40072102646E+02 -0.58788019530E+03 -0.80607140873E+03  0.10035741195E+04  0.10100000000E+03 0.  1.
    -200001    1    1    2    0    0  0.15241564321E+03  0.46456705995E+03 -0.12189771814E+04  0.14493886471E+04  0.61300000000E+03 0.  1.
<mgrwt>
<rscale>  0 0.15702032E+04</rscale>
<asrwt>0</asrwt>
<pdfrwt beam="1">  1        2 0.36092447E+00 0.15702032E+04</pdfrwt>
<pdfrwt beam="2">  1       -2 0.34852931E-01 0.15702032E+04</pdfrwt>
<totfact> 0.31778567E+01</totfact>
</mgrwt>
</event>
<event>
 8    1  0.7583103E-052  0.1337026E+04  0.7818608E-02  0.9000707E-01
          2   -1    0    0  501    0  0.00000000000E+00  0.00000000000E+00  0.13689879207E+04  0.13689879207E+04  0.25500000000E-02 0.  1.
         -2   -1    0    0    0  501 -0.00000000000E+00 -0.00000000000E+00 -0.32645279735E+03  0.32645279736E+03  0.25500000000E-02 0. -1.
     200001    2    1    2    0    0 -0.20419142797E+03 -0.16640177503E+03  0.46841240074E+03  0.81523074846E+03  0.61303124396E+03 0.  0.
    5000001    2    3    3    0    0 -0.23259334980E+02  0.72399386420E+02 -0.61050150438E+02  0.19855092060E+03  0.17295282416E+03 0.  0.
        -13    1    4    4    0    0 -0.65285898390E+02  0.10280712410E+03 -0.65827329324E+02  0.13843699558E+03  0.10566000000E+00 0. -1.
     200003    1    4    4    0    0  0.42026563410E+02 -0.30407737685E+02  0.47771788857E+01  0.60113925020E+02  0.30000000000E+02 0. -1.
     200000    1    3    3    0    0 -0.18093209299E+03 -0.23880116145E+03  0.52946255118E+03  0.61667982786E+03  0.10100000000E+03 0.  1.
    -200001    1    1    2    0    0  0.20419142797E+03  0.16640177503E+03  0.57412272263E+03  0.88020996962E+03  0.61300000000E+03 0.  1.
<mgrwt>
<rscale>  0 0.13370265E+04</rscale>
<asrwt>0</asrwt>
<pdfrwt beam="1">  1        2 0.19556971E+00 0.13370265E+04</pdfrwt>
<pdfrwt beam="2">  1       -2 0.46636113E-01 0.13370265E+04</pdfrwt>
<totfact> 0.73329314E+01</totfact>
</mgrwt>
</event>
<event>
 8    1  0.7583103E-052  0.2169344E+04  0.7818608E-02  0.8531297E-01
          2   -1    0    0  501    0  0.00000000000E+00  0.00000000000E+00  0.40431562824E+04  0.40431562824E+04  0.25500000000E-02 0.  1.
         -2   -1    0    0    0  501 -0.00000000000E+00 -0.00000000000E+00 -0.29098876511E+03  0.29098876512E+03  0.25500000000E-02 0. -1.
     200001    2    1    2    0    0  0.88927599751E+03 -0.80736748143E+02  0.17540149119E+04  0.20613245406E+04  0.61250332917E+03 0.  0.
    5000001    2    3    3    0    0  0.48858452724E+03 -0.32361048839E+03  0.11167036254E+04  0.12638861518E+04  0.83322441414E+02 0.  0.
        -13    1    4    4    0    0  0.33571845256E+03 -0.23695710143E+03  0.83273222355E+03  0.92860029863E+03  0.10566000000E+00 0. -1.
     200003    1    4    4    0    0  0.15286607469E+03 -0.86653386962E+02  0.28397140183E+03  0.33528585315E+03  0.30000000000E+02 0. -1.
     200000    1    3    3    0    0  0.40069147027E+03  0.24287374025E+03  0.63731128655E+03  0.79743838885E+03  0.10100000000E+03 0. -1.
    -200001    1    1    2    0    0 -0.88927599751E+03  0.80736748143E+02  0.19981526054E+04  0.22728205069E+04  0.61300000000E+03 0.  1.
<mgrwt>
<rscale>  0 0.21693437E+04</rscale>
<asrwt>0</asrwt>
<pdfrwt beam="1">  1        2 0.57759367E+00 0.21693437E+04</pdfrwt>
<pdfrwt beam="2">  1       -2 0.41569830E-01 0.21693437E+04</pdfrwt>
<totfact> 0.26949679E+00</totfact>
</mgrwt>
</event>
<event>
 8    1  0.7583103E-052  0.1310199E+04  0.7818608E-02  0.9021516E-01
         -2   -1    0    0    0  501 -0.00000000000E+00  0.00000000000E+00  0.84142784292E+03  0.84142784293E+03  0.25500000000E-02 0. -1.
          2   -1    0    0  501    0  0.00000000000E+00 -0.00000000000E+00 -0.51003251097E+03  0.51003251097E+03  0.25500000000E-02 0.  1.
     200001    2    1    2    0    0 -0.47878556154E+02 -0.22459532606E+03  0.14882996119E+03  0.67187626695E+03  0.61362198797E+03 0.  0.
    5000001    2    3    3    0    0  0.20811870391E+03 -0.14652780527E+03  0.25386615091E+03  0.36714238943E+03  0.74576932770E+02 0.  0.
        -13    1    4    4    0    0  0.78655957237E+02 -0.74265510788E+02  0.69145974435E+02  0.12838731497E+03  0.10566000000E+00 0. -1.
     200003    1    4    4    0    0  0.12946274667E+03 -0.72262294481E+02  0.18472017648E+03  0.23875507445E+03  0.30000000000E+02 0. -1.
     200000    1    3    3    0    0 -0.25599726006E+03 -0.78067520793E+02 -0.10503618972E+03  0.30473387753E+03  0.10100000000E+03 0.  1.
    -200001    1    1    2    0    0  0.47878556154E+02  0.22459532606E+03  0.18256537077E+03  0.67958408695E+03  0.61300000000E+03 0.  1.
<mgrwt>
<rscale>  0 0.13101993E+04</rscale>
<asrwt>0</asrwt>
<pdfrwt beam="1">  1        2 0.72861788E-01 0.13101993E+04</pdfrwt>
<pdfrwt beam="2">  1       -2 0.12020398E+00 0.13101993E+04</pdfrwt>
<totfact> 0.34026984E+01</totfact>
</mgrwt>
</event>
<event>
 8    1  0.7583103E-052  0.1866335E+04  0.7818608E-02  0.8671797E-01
          2   -1    0    0  501    0  0.00000000000E+00  0.00000000000E+00  0.17953547385E+04  0.17953547385E+04  0.25500000000E-02 0.  1.
         -2   -1    0    0    0  501 -0.00000000000E+00 -0.00000000000E+00 -0.48503036471E+03  0.48503036472E+03  0.25500000000E-02 0. -1.
     200001    2    1    2    0    0  0.66721851540E+02 -0.59918310174E+03  0.21256908946E+03  0.88600070171E+03  0.61346510151E+03 0.  0.
    5000001    2    3    3    0    0  0.46877867930E+01 -0.59259038515E+03 -0.24889534116E+02  0.62052134845E+03  0.18232365467E+03 0.  0.
        -13    1    4    4    0    0  0.85397823784E+02 -0.24435148665E+03 -0.37650211595E+02  0.26156832173E+03  0.10566000000E+00 0. -1.
     200003    1    4    4    0    0 -0.80710036991E+02 -0.34823889850E+03  0.12760677479E+02  0.35895302672E+03  0.30000000000E+02 0. -1.
     200000    1    3    3    0    0  0.62034064747E+02 -0.65927165825E+01  0.23745862357E+03  0.26547935326E+03  0.10100000000E+03 0.  1.
    -200001    1    1    2    0    0 -0.66721851540E+02  0.59918310174E+03  0.10977552843E+04  0.13943844015E+04  0.61300000000E+03 0.  1.
<mgrwt>
<rscale>  0 0.18663350E+04</rscale>
<asrwt>0</asrwt>
<pdfrwt beam="1">  1        2 0.25647926E+00 0.18663350E+04</pdfrwt>
<pdfrwt beam="2">  1       -2 0.69290050E-01 0.18663350E+04</pdfrwt>
<totfact> 0.18325179E+01</totfact>
</mgrwt>
</event>
<event>
 8    1  0.7583103E-052  0.1421812E+04  0.7818608E-02  0.8938179E-01
          2   -1    0    0  501    0  0.00000000000E+00  0.00000000000E+00  0.23941033577E+04  0.23941033577E+04  0.25500000000E-02 0.  1.
         -2   -1    0    0    0  501 -0.00000000000E+00 -0.00000000000E+00 -0.21109684521E+03  0.21109684522E+03  0.25500000000E-02 0. -1.
     200001    2    1    2    0    0 -0.12630970305E+02 -0.34684722223E+03  0.12655786875E+04  0.14485216170E+04  0.61323969523E+03 0.  0.
    5000001    2    3    3    0    0 -0.16906602107E+03  0.10293657800E+03  0.30199693771E+03  0.36895310111E+03  0.75795658629E+02 0.  0.
        -13    1    4    4    0    0 -0.32189321962E+02  0.55234468157E+02  0.91598505991E+02  0.11170181908E+03  0.10566000000E+00 0. -1.
     200003    1    4    4    0    0 -0.13687669910E+03  0.47702109839E+02  0.21039843172E+03  0.25725128204E+03  0.30000000000E+02 0. -1.
     200000    1    3    3    0    0  0.15643505076E+03 -0.44978380023E+03  0.96358174978E+03  0.10795685159E+04  0.10100000000E+03 0.  1.
    -200001    1    1    2    0    0  0.12630970305E+02  0.34684722223E+03  0.91742782504E+03  0.11566785859E+04  0.61300000000E+03 0. -1.
<mgrwt>
<rscale>  0 0.14218125E+04</rscale>
<asrwt>0</asrwt>
<pdfrwt beam="1">  1        2 0.34201477E+00 0.14218125E+04</pdfrwt>
<pdfrwt beam="2">  1       -2 0.30156692E-01 0.14218125E+04</pdfrwt>
<totfact> 0.49581833E+01</totfact>
</mgrwt>
</event>
<event>
 8    1  0.7583103E-052  0.1776095E+04  0.7818608E-02  0.8719116E-01
         -2   -1    0    0    0  501 -0.00000000000E+00  0.00000000000E+00  0.93935199188E+03  0.93935199189E+03  0.25500000000E-02 0. -1.
          2   -1    0    0  501    0  0.00000000000E+00 -0.00000000000E+00 -0.83954538078E+03  0.83954538078E+03  0.25500000000E-02 0.  1.
     200001    2    1    2    0    0  0.27953361101E+03  0.39307722430E+03 -0.37557441947E+03  0.86543972823E+03  0.61260185659E+03 0.  0.
    5000001    2    3    3    0    0 -0.93935565850E+02 -0.65837350555E+01  0.70896889398E+02  0.15217558492E+03  0.96248655155E+02 0.  0.
        -13    1    4    4    0    0 -0.40778320089E+01 -0.30628929054E+02  0.38159793949E+02  0.49101334475E+02  0.10566000000E+00 0. -1.
     200003    1    4    4    0    0 -0.89857733841E+02  0.24045193999E+02  0.32737095449E+02  0.10307425044E+03  0.30000000000E+02 0. -1.
     200000    1    3    3    0    0  0.37346917686E+03  0.39966095935E+03 -0.44647130887E+03  0.71326414332E+03  0.10100000000E+03 0.  1.
    -200001    1    1    2    0    0 -0.27953361101E+03 -0.39307722430E+03  0.47538103058E+03  0.91345764444E+03  0.61300000000E+03 0. -1.
<mgrwt>
<rscale>  0 0.17760953E+04</rscale>
<asrwt>0</asrwt>
<pdfrwt beam="1">  1        2 0.11993505E+00 0.17760953E+04</pdfrwt>
<pdfrwt beam="2">  1       -2 0.13419314E+00 0.17760953E+04</pdfrwt>
<totfact> 0.13561666E+01</totfact>
</mgrwt>
</event>
<event>
 8    1  0.7583103E-052  0.1904596E+04  0.7818608E-02  0.8652572E-01
         -2   -1    0    0    0  501 -0.00000000000E+00  0.00000000000E+00  0.11888531884E+04  0.11888531884E+04  0.25500000000E-02 0. -1.
          2   -1    0    0  501    0  0.00000000000E+00 -0.00000000000E+00 -0.76281189990E+03  0.76281189990E+03  0.25500000000E-02 0.  1.
     200001    2    1    2    0    0  0.39155992827E+03 -0.59076233577E+03  0.40017472309E+02  0.93820433354E+03  0.61343839022E+03 0.  0.
    5000001    2    3    3    0    0  0.15035232663E+03 -0.14684703154E+03 -0.26046848392E+03  0.34176932928E+03  0.69228393893E+02 0.  0.
        -13    1    4    4    0    0  0.11044844786E+02 -0.17028739087E+02 -0.61381065552E+02  0.64649925936E+02  0.10566000000E+00 0. -1.
     200003    1    4    4    0    0  0.13930748185E+03 -0.12981829245E+03 -0.19908741837E+03  0.27711940334E+03  0.30000000000E+02 0. -1.
     200000    1    3    3    0    0  0.24120760163E+03 -0.44391530423E+03  0.30048595623E+03  0.59643500426E+03  0.10100000000E+03 0.  1.
    -200001    1    1    2    0    0 -0.39155992827E+03  0.59076233577E+03  0.38602381620E+03  0.10134607548E+04  0.61300000000E+03 0. -1.
<mgrwt>
<rscale>  0 0.19045959E+04</rscale>
<asrwt>0</asrwt>
<pdfrwt beam="1">  1        2 0.10897313E+00 0.19045959E+04</pdfrwt>
<pdfrwt beam="2">  1       -2 0.16983617E+00 0.19045959E+04</pdfrwt>
<totfact> 0.81075258E+00</totfact>
</mgrwt>
</event>
<event>
 8    1  0.7583103E-052  0.1336345E+04  0.7818608E-02  0.9001230E-01
         -2   -1    0    0    0  501 -0.00000000000E+00  0.00000000000E+00  0.57050740260E+03  0.57050740260E+03  0.25500000000E-02 0. -1.
          2   -1    0    0  501    0  0.00000000000E+00 -0.00000000000E+00 -0.78255694735E+03  0.78255694736E+03  0.25500000000E-02 0.  1.
     200001    2    1    2    0    0 -0.90233505686E+02 -0.24062188738E+03 -0.37996229760E+02  0.66596571461E+03  0.61320929651E+03 0.  0.
    5000001    2    3    3    0    0 -0.91657610703E+02 -0.69996778400E+02 -0.23607764512E+03  0.38569405532E+03  0.28235896161E+03 0.  0.
        -13    1    4    4    0    0 -0.64316471215E+02 -0.77372876897E+01  0.55184559758E+02  0.85098888888E+02  0.10566000000E+00 0. -1.
     200003    1    4    4    0    0 -0.27341139488E+02 -0.62259490711E+02 -0.29126220488E+03  0.30059516644E+03  0.30000000000E+02 0. -1.
     200000    1    3    3    0    0  0.14241050170E+01 -0.17062510898E+03  0.19808141536E+03  0.28027165929E+03  0.10100000000E+03 0. -1.
    -200001    1    1    2    0    0  0.90233505686E+02  0.24062188738E+03 -0.17405331500E+03  0.68709863535E+03  0.61300000000E+03 0. -1.
<mgrwt>
<rscale>  0 0.13363451E+04</rscale>
<asrwt>0</asrwt>
<pdfrwt beam="1">  1        2 0.11179385E+00 0.13363451E+04</pdfrwt>
<pdfrwt beam="2">  1       -2 0.81501058E-01 0.13363451E+04</pdfrwt>
<totfact> 0.50766829E+01</totfact>
</mgrwt>
</event>
<event>
 8    1  0.7583103E-052  0.2790106E+04  0.7818608E-02  0.8306347E-01
         -2   -1    0    0    0  501 -0.00000000000E+00  0.00000000000E+00  0.11919416730E+04  0.11919416730E+04  0.25500000000E-02 0. -1.
          2   -1    0    0  501    0  0.00000000000E+00 -0.00000000000E+00 -0.16327756425E+04  0.16327756425E+04  0.25500000000E-02 0.  1.
     200001    2    1    2    0    0 -0.43440581157E+02 -0.29829306894E+03  0.10111577881E+04  0.12200631773E+04  0.61257509341E+03 0.  0.
    5000001    2    3    3    0    0 -0.74235266945E+02 -0.96587319362E+02 -0.22435287326E+01  0.18140213968E+03  0.13439389027E+03 0.  0.
        -13    1    4    4    0    0 -0.56799395982E+02 -0.94405739365E+02  0.48102178584E+02  0.12021832538E+03  0.10566000000E+00 0. -1.
     200003    1    4    4    0    0 -0.17435870963E+02 -0.21815799966E+01 -0.50345707316E+02  0.61183814303E+02  0.30000000000E+02 0. -1.
     200000    1    3    3    0    0  0.30794685788E+02 -0.20170574958E+03  0.10134013168E+04  0.10386610376E+04  0.10100000000E+03 0. -1.
    -200001    1    1    2    0    0  0.43440581157E+02  0.29829306894E+03 -0.14519917576E+04  0.16046541382E+04  0.61300000000E+03 0.  1.
<mgrwt>
<rscale>  0 0.27901063E+04</rscale>
<asrwt>0</asrwt>
<pdfrwt beam="1">  1        2 0.23325366E+00 0.27901063E+04</pdfrwt>
<pdfrwt beam="2">  1       -2 0.17027738E+00 0.27901063E+04</pdfrwt>
<totfact> 0.23147593E+00</totfact>
</mgrwt>
</event>
<event>
 8    1  0.7583103E-052  0.1392558E+04  0.7818608E-02  0.8959223E-01
         -2   -1    0    0    0  501 -0.00000000000E+00  0.00000000000E+00  0.39015294844E+03  0.39015294844E+03  0.25500000000E-02 0. -1.
          2   -1    0    0  501    0  0.00000000000E+00 -0.00000000000E+00 -0.12426006890E+04  0.12426006890E+04  0.25500000000E-02 0.  1.
     200001    2    1    2    0    0 -0.31433188291E+03 -0.92342478592E+02 -0.37043755742E+03  0.78692003525E+03  0.61211722077E+03 0.  0.
    5000001    2    3    3    0    0 -0.43150818612E+03  0.73646605672E+02 -0.33393621788E+03  0.55710269492E+03  0.85011045466E+02 0.  0.
        -13    1    4    4    0    0 -0.26207570095E+03  0.75348187315E+02 -0.22408373550E+03  0.35295120632E+03  0.10566000000E+00 0. -1.
     200003    1    4    4    0    0 -0.16943248517E+03 -0.17015816430E+01 -0.10985248238E+03  0.20415148860E+03  0.30000000000E+02 0. -1.
     200000    1    3    3    0    0  0.11717630322E+03 -0.16598908426E+03 -0.36501339540E+02  0.22981734034E+03  0.10100000000E+03 0.  1.
    -200001    1    1    2    0    0  0.31433188291E+03  0.92342478592E+02 -0.48201018316E+03  0.84583360222E+03  0.61300000000E+03 0. -1.
<mgrwt>
<rscale>  0 0.13925578E+04</rscale>
<asrwt>0</asrwt>
<pdfrwt beam="1">  1        2 0.17751438E+00 0.13925578E+04</pdfrwt>
<pdfrwt beam="2">  1       -2 0.55736136E-01 0.13925578E+04</pdfrwt>
<totfact> 0.59586801E+01</totfact>
</mgrwt>
</event>
<event>
 8    1  0.7583103E-052  0.1728666E+04  0.7818608E-02  0.8745182E-01
         -2   -1    0    0    0  501 -0.00000000000E+00  0.00000000000E+00  0.31335947628E+03  0.31335947629E+03  0.25500000000E-02 0. -1.
          2   -1    0    0  501    0  0.00000000000E+00 -0.00000000000E+00 -0.23840707688E+04  0.23840707688E+04  0.25500000000E-02 0.  1.
     200001    2    1    2    0    0  0.55719087665E+03 -0.13741747701E+03 -0.71613299521E+03  0.11036935668E+04  0.61314581191E+03 0.  0.
    5000001    2    3    3    0    0  0.50533525067E+03 -0.26448087350E+03 -0.29913720006E+03  0.65322646944E+03  0.10912336095E+03 0.  0.
        -13    1    4    4    0    0  0.32820271799E+03 -0.13891718252E+03 -0.14249983584E+03  0.38382446779E+03  0.10566000000E+00 0. -1.
     200003    1    4    4    0    0  0.17713253269E+03 -0.12556369098E+03 -0.15663736422E+03  0.26940200166E+03  0.30000000000E+02 0. -1.
     200000    1    3    3    0    0  0.51855625977E+02  0.12706339649E+03 -0.41699579515E+03  0.45046709740E+03  0.10100000000E+03 0. -1.
    -200001    1    1    2    0    0 -0.55719087665E+03  0.13741747701E+03 -0.13545782973E+04  0.15937366782E+04  0.61300000000E+03 0. -1.
<mgrwt>
<rscale>  0 0.17286656E+04</rscale>
<asrwt>0</asrwt>
<pdfrwt beam="1">  1        2 0.34058153E+00 0.17286656E+04</pdfrwt>
<pdfrwt beam="2">  1       -2 0.44765641E-01 0.17286656E+04</pdfrwt>
<totfact> 0.22855314E+01</totfact>
</mgrwt>
</event>
<event>
 8    1  0.7583103E-052  0.1226560E+04  0.7818608E-02  0.9089921E-01
          2   -1    0    0  501    0  0.00000000000E+00  0.00000000000E+00  0.21919580158E+04  0.21919580158E+04  0.25500000000E-02 0.  1.
         -2   -1    0    0    0  501 -0.00000000000E+00 -0.00000000000E+00 -0.17158744549E+03  0.17158744551E+03  0.25500000000E-02 0. -1.
     200001    2    1    2    0    0 -0.16315533594E+02  0.81133611237E+01  0.10215810604E+04  0.11915038630E+04  0.61296131128E+03 0.  0.
    5000001    2    3    3    0    0 -0.18134500968E+03 -0.17549306960E+03  0.20920727901E+03  0.33646105108E+03  0.75858574276E+02 0.  0.
        -13    1    4    4    0    0 -0.14501707193E+03 -0.15447157715E+03  0.17067878724E+03  0.27207109158E+03  0.10566000000E+00 0. -1.
     200003    1    4    4    0    0 -0.36327937755E+02 -0.21021492449E+02  0.38528491766E+02  0.64389959497E+02  0.30000000000E+02 0.  1.
     200000    1    3    3    0    0  0.16502947609E+03  0.18360643072E+03  0.81237378143E+03  0.85504281188E+03  0.10100000000E+03 0.  1.
    -200001    1    1    2    0    0  0.16315533594E+02 -0.81133611237E+01  0.99878950985E+03  0.11720415983E+04  0.61300000000E+03 0. -1.
<mgrwt>
<rscale>  0 0.12265602E+04</rscale>
<asrwt>0</asrwt>
<pdfrwt beam="1">  1        2 0.31313686E+00 0.12265602E+04</pdfrwt>
<pdfrwt beam="2">  1       -2 0.24512492E-01 0.12265602E+04</pdfrwt>
<totfact> 0.93674751E+01</totfact>
</mgrwt>
</event>
<event>
 8    1  0.7583103E-052  0.1260974E+04  0.7818608E-02  0.9061099E-01
          2   -1    0    0  501    0  0.00000000000E+00  0.00000000000E+00  0.86885251966E+03  0.86885251967E+03  0.25500000000E-02 0.  1.
         -2   -1    0    0    0  501 -0.00000000000E+00 -0.00000000000E+00 -0.45751604192E+03  0.45751604193E+03  0.25500000000E-02 0. -1.
     200001    2    1    2    0    0  0.94112425893E+02 -0.89239257840E+02  0.13068887192E+03  0.63981712689E+03  0.61275246288E+03 0.  0.
    5000001    2    3    3    0    0  0.22548443979E+03 -0.28067682491E+03  0.10836934775E+03  0.38563980831E+03  0.85740501466E+02 0.  0.
        -13    1    4    4    0    0  0.13141823907E+03 -0.19078180293E+03  0.98540207201E+02  0.25175113404E+03  0.10566000000E+00 0. -1.
     200003    1    4    4    0    0  0.94066200711E+02 -0.89895021977E+02  0.98291405487E+01  0.13388867426E+03  0.30000000000E+02 0. -1.
     200000    1    3    3    0    0 -0.13137201389E+03  0.19143756707E+03  0.22319524166E+02  0.25417731858E+03  0.10100000000E+03 0.  1.
    -200001    1    1    2    0    0 -0.94112425893E+02  0.89239257840E+02  0.28064760582E+03  0.68655143471E+03  0.61300000000E+03 0. -1.
<mgrwt>
<rscale>  0 0.12609742E+04</rscale>
<asrwt>0</asrwt>
<pdfrwt beam="1">  1        2 0.12412179E+00 0.12609742E+04</pdfrwt>
<pdfrwt beam="2">  1       -2 0.65359435E-01 0.12609742E+04</pdfrwt>
<totfact> 0.72376936E+01</totfact>
</mgrwt>
</event>
<event>
 8    1  0.7583103E-052  0.1823847E+04  0.7818608E-02  0.8693720E-01
         -2   -1    0    0    0  501 -0.00000000000E+00  0.00000000000E+00  0.42939411101E+03  0.42939411102E+03  0.25500000000E-02 0. -1.
          2   -1    0    0  501    0  0.00000000000E+00 -0.00000000000E+00 -0.19366923533E+04  0.19366923533E+04  0.25500000000E-02 0.  1.
     200001    2    1    2    0    0  0.11363136731E+03 -0.68027472845E+02 -0.16136361307E+04  0.17299916827E+04  0.60951606650E+03 0.  0.
    5000001    2    3    3    0    0 -0.22256339434E+03 -0.21943365459E+02 -0.57819341340E+03  0.63569132016E+03  0.14064087399E+03 0.  0.
        -13    1    4    4    0    0 -0.15603199012E+03  0.43509827672E+02 -0.41255443803E+03  0.44321581938E+03  0.10566000000E+00 0. -1.
     200003    1    4    4    0    0 -0.66531404222E+02 -0.65453193130E+02 -0.16563897537E+03  0.19247550078E+03  0.30000000000E+02 0. -1.
     200000    1    3    3    0    0  0.33619476165E+03 -0.46084107386E+02 -0.10354427173E+04  0.10943003626E+04  0.10100000000E+03 0.  1.
    -200001    1    1    2    0    0 -0.11363136731E+03  0.68027472845E+02  0.10633788839E+03  0.63609478162E+03  0.61300000000E+03 0. -1.
<mgrwt>
<rscale>  0 0.18238468E+04</rscale>
<asrwt>0</asrwt>
<pdfrwt beam="1">  1        2 0.27667033E+00 0.18238468E+04</pdfrwt>
<pdfrwt beam="2">  1       -2 0.61342017E-01 0.18238468E+04</pdfrwt>
<totfact> 0.20198680E+01</totfact>
</mgrwt>
</event>
<event>
 8    1  0.7583103E-052  0.1986941E+04  0.7818608E-02  0.8612750E-01
         -2   -1    0    0    0  501 -0.00000000000E+00  0.00000000000E+00  0.74970063812E+03  0.74970063812E+03  0.25500000000E-02 0. -1.
          2   -1    0    0  501    0  0.00000000000E+00 -0.00000000000E+00 -0.13165041395E+04  0.13165041395E+04  0.25500000000E-02 0.  1.
     200001    2    1    2    0    0  0.30370800767E+03 -0.52332435342E+03 -0.79711751160E+03  0.11746216486E+04  0.61500630658E+03 0.  0.
    5000001    2    3    3    0    0  0.10421279098E+03  0.55697529911E+02 -0.40019929787E+03  0.43786541257E+03  0.13268052183E+03 0.  0.
        -13    1    4    4    0    0 -0.11124107399E+02  0.47110535260E+02 -0.58801748688E+02  0.76163016686E+02  0.10566000000E+00 0. -1.
     200003    1    4    4    0    0  0.11533689838E+03  0.85869946508E+01 -0.34139754918E+03  0.36170239589E+03  0.30000000000E+02 0. -1.
     200000    1    3    3    0    0  0.19949521669E+03 -0.57902188333E+03 -0.39691821374E+03  0.73675623598E+03  0.10100000000E+03 0.  1.
    -200001    1    1    2    0    0 -0.30370800767E+03  0.52332435342E+03  0.23031401019E+03  0.89158312910E+03  0.61300000000E+03 0.  1.
<mgrwt>
<rscale>  0 0.19869414E+04</rscale>
<asrwt>0</asrwt>
<pdfrwt beam="1">  1        2 0.18807202E+00 0.19869414E+04</pdfrwt>
<pdfrwt beam="2">  1       -2 0.10710009E+00 0.19869414E+04</pdfrwt>
<totfact> 0.12031515E+01</totfact>
</mgrwt>
</event>
<event>
 8    1  0.7583103E-052  0.1723568E+04  0.7818608E-02  0.8748036E-01
          2   -1    0    0  501    0  0.00000000000E+00  0.00000000000E+00  0.89013715236E+03  0.89013715237E+03  0.25500000000E-02 0.  1.
         -2   -1    0    0    0  501 -0.00000000000E+00 -0.00000000000E+00 -0.83433412576E+03  0.83433412577E+03  0.25500000000E-02 0. -1.
     200001    2    1    2    0    0  0.24108945966E+03 -0.38815098359E+03 -0.37244914596E+03  0.84814129638E+03  0.60978683052E+03 0.  0.
    5000001    2    3    3    0    0  0.40716863678E+03 -0.27357543438E+03 -0.15034521482E+03  0.53153269608E+03  0.13890106663E+03 0.  0.
        -13    1    4    4    0    0  0.22332837102E+03 -0.13785729068E+03 -0.11993072193E+02  0.26272426390E+03  0.10566000000E+00 0. -1.
     200003    1    4    4    0    0  0.18384026576E+03 -0.13571814370E+03 -0.13835214262E+03  0.26880843218E+03  0.30000000000E+02 0. -1.
     200000    1    3    3    0    0 -0.16607917712E+03 -0.11457554921E+03 -0.22210393115E+03  0.31660860030E+03  0.10100000000E+03 0.  1.
    -200001    1    1    2    0    0 -0.24108945966E+03  0.38815098359E+03  0.42825217256E+03  0.87632998176E+03  0.61300000000E+03 0.  1.
<mgrwt>
<rscale>  0 0.17235682E+04</rscale>
<asrwt>0</asrwt>
<pdfrwt beam="1">  1        2 0.12716245E+00 0.17235682E+04</pdfrwt>
<pdfrwt beam="2">  1       -2 0.11919059E+00 0.17235682E+04</pdfrwt>
<totfact> 0.16977456E+01</totfact>
</mgrwt>
</event>
<event>
 8    1  0.7583103E-052  0.1606880E+04  0.7818608E-02  0.8816332E-01
         -2   -1    0    0    0  501 -0.00000000000E+00  0.00000000000E+00  0.33176096422E+03  0.33176096423E+03  0.25500000000E-02 0. -1.
          2   -1    0    0  501    0  0.00000000000E+00 -0.00000000000E+00 -0.19457266310E+04  0.19457266310E+04  0.25500000000E-02 0.  1.
     200001    2    1    2    0    0  0.38733792281E+03  0.34458285154E+03 -0.79321619779E+03  0.11293731851E+04  0.61442969221E+03 0.  0.
    5000001    2    3    3    0    0 -0.13319261014E+03 -0.66166435977E+01 -0.22718783553E+03  0.27797302767E+03  0.88716628288E+02 0.  0.
        -13    1    4    4    0    0  0.15512547250E+01 -0.81069090154E+01  0.36330065269E+01  0.90187729468E+01  0.10566000000E+00 0. -1.
     200003    1    4    4    0    0 -0.13474386486E+03  0.14902654177E+01 -0.23082084206E+03  0.26895425473E+03  0.30000000000E+02 0. -1.
     200000    1    3    3    0    0  0.52053053294E+03  0.35119949513E+03 -0.56602836226E+03  0.85140015738E+03  0.10100000000E+03 0.  1.
    -200001    1    1    2    0    0 -0.38733792281E+03 -0.34458285154E+03 -0.82074946902E+03  0.11481144102E+04  0.61300000000E+03 0. -1.
<mgrwt>
<rscale>  0 0.16068804E+04</rscale>
<asrwt>0</asrwt>
<pdfrwt beam="1">  1        2 0.27796094E+00 0.16068804E+04</pdfrwt>
<pdfrwt beam="2">  1       -2 0.47394425E-01 0.16068804E+04</pdfrwt>
<totfact> 0.34667202E+01</totfact>
</mgrwt>
</event>
<event>
 8    1  0.7583103E-052  0.1244842E+04  0.7818608E-02  0.9074487E-01
         -2   -1    0    0    0  501 -0.00000000000E+00  0.00000000000E+00  0.12494727560E+03  0.12494727563E+03  0.25500000000E-02 0. -1.
          2   -1    0    0  501    0  0.00000000000E+00 -0.00000000000E+00 -0.31005708764E+04  0.31005708764E+04  0.25500000000E-02 0.  1.
     200001    2    1    2    0    0  0.41954306015E+02  0.33666037808E+02 -0.17411161662E+04  0.18461446812E+04  0.61145000931E+03 0.  0.
    5000001    2    3    3    0    0  0.14985885802E+03  0.27731225281E+03 -0.10536139794E+04  0.11019221827E+04  0.69067476278E+02 0.  0.
        -13    1    4    4    0    0  0.10834736960E+03  0.14778398161E+03 -0.61565858564E+03  0.64235096556E+03  0.10566000000E+00 0. -1.
     200003    1    4    4    0    0  0.41511488421E+02  0.12952827120E+03 -0.43795539373E+03  0.45957121712E+03  0.30000000000E+02 0. -1.
     200000    1    3    3    0    0 -0.10790455200E+03 -0.24364621500E+03 -0.68750218679E+03  0.74422249850E+03  0.10100000000E+03 0.  1.
    -200001    1    1    2    0    0 -0.41954306015E+02 -0.33666037808E+02 -0.12345074346E+04  0.13793734708E+04  0.61300000000E+03 0. -1.
<mgrwt>
<rscale>  0 0.12448420E+04</rscale>
<asrwt>0</asrwt>
<pdfrwt beam="1">  1        2 0.44293865E+00 0.12448420E+04</pdfrwt>
<pdfrwt beam="2">  1       -2 0.17849613E-01 0.12448420E+04</pdfrwt>
<totfact> 0.53711519E+01</totfact>
</mgrwt>
</event>
<event>
 8    1  0.7583103E-052  0.1484816E+04  0.7818608E-02  0.8894613E-01
          2   -1    0    0  501    0  0.00000000000E+00  0.00000000000E+00  0.23230605919E+04  0.23230605919E+04  0.25500000000E-02 0.  1.
         -2   -1    0    0    0  501 -0.00000000000E+00 -0.00000000000E+00 -0.23726025340E+03  0.23726025341E+03  0.25500000000E-02 0. -1.
     200001    2    1    2    0    0 -0.12249045198E+03  0.28292200962E+03  0.56762685230E+03  0.89428707958E+03  0.61846613723E+03 0.  0.
    5000001    2    3    3    0    0  0.78995333081E+01  0.44718746326E+03  0.32393877940E+03  0.55728624221E+03  0.74783641474E+02 0.  0.
        -13    1    4    4    0    0  0.22741982838E+02  0.33694536398E+03  0.25322600064E+03  0.42210519382E+03  0.10566000000E+00 0. -1.
     200003    1    4    4    0    0 -0.14842449530E+02  0.11024209928E+03  0.70712778760E+02  0.13518104838E+03  0.30000000000E+02 0.  1.
     200000    1    3    3    0    0 -0.13038998528E+03 -0.16426545363E+03  0.24368807290E+03  0.33700083738E+03  0.10100000000E+03 0. -1.
    -200001    1    1    2    0    0  0.12249045198E+03 -0.28292200962E+03  0.15181734862E+04  0.16660337657E+04  0.61300000000E+03 0. -1.
<mgrwt>
<rscale>  0 0.14848164E+04</rscale>
<asrwt>0</asrwt>
<pdfrwt beam="1">  1        2 0.33186581E+00 0.14848164E+04</pdfrwt>
<pdfrwt beam="2">  1       -2 0.33894321E-01 0.14848164E+04</pdfrwt>
<totfact> 0.43103931E+01</totfact>
</mgrwt>
</event>
<event>
 8    1  0.7583103E-052  0.1651105E+04  0.7818608E-02  0.8789753E-01
          2   -1    0    0  501    0  0.00000000000E+00  0.00000000000E+00  0.22544659098E+04  0.22544659098E+04  0.25500000000E-02 0.  1.
         -2   -1    0    0    0  501 -0.00000000000E+00 -0.00000000000E+00 -0.30230530139E+03  0.30230530140E+03  0.25500000000E-02 0. -1.
     200001    2    1    2    0    0 -0.34073235798E+03  0.14673615737E+03  0.16112636411E+04  0.17632916702E+04  0.61269646121E+03 0.  0.
    5000001    2    3    3    0    0 -0.98020106002E+02 -0.54274051581E+02  0.13035100994E+04  0.13113762093E+04  0.89528595211E+02 0.  0.
        -13    1    4    4    0    0 -0.10080568172E+01 -0.40981703648E+02  0.36451311944E+03  0.36681104349E+03  0.10566000000E+00 0. -1.
     200003    1    4    4    0    0 -0.97012049184E+02 -0.13292347932E+02  0.93899697994E+03  0.94456516585E+03  0.30000000000E+02 0. -1.
     200000    1    3    3    0    0 -0.24271225198E+03  0.20101020895E+03  0.30775354167E+03  0.45191546087E+03  0.10100000000E+03 0.  1.
    -200001    1    1    2    0    0  0.34073235798E+03 -0.14673615737E+03  0.34089696738E+03  0.79347954102E+03  0.61300000000E+03 0. -1.
<mgrwt>
<rscale>  0 0.16511051E+04</rscale>
<asrwt>0</asrwt>
<pdfrwt beam="1">  1        2 0.32206657E+00 0.16511051E+04</pdfrwt>
<pdfrwt beam="2">  1       -2 0.43186470E-01 0.16511051E+04</pdfrwt>
<totfact> 0.28845948E+01</totfact>
</mgrwt>
</event>
<event>
 8    1  0.7583103E-052  0.1837664E+04  0.7818608E-02  0.8686523E-01
          2   -1    0    0  501    0  0.00000000000E+00  0.00000000000E+00  0.26900656213E+04  0.26900656213E+04  0.25500000000E-02 0.  1.
         -2   -1    0    0    0  501 -0.00000000000E+00 -0.00000000000E+00 -0.31384085532E+03  0.31384085533E+03  0.25500000000E-02 0. -1.
     200001    2    1    2    0    0 -0.26926109899E+03  0.62935364553E+03  0.12785762565E+04  0.15724076814E+04  0.60755339030E+03 0.  0.
    5000001    2    3    3    0    0  0.10497143864E+03  0.42173607674E+03  0.83887705324E+03  0.95056249446E+03  0.10475697626E+03 0.  0.
        -13    1    4    4    0    0  0.71687645116E+02  0.12182956565E+03  0.31479742123E+03  0.34507823621E+03  0.10566000000E+00 0. -1.
     200003    1    4    4    0    0  0.33283793525E+02  0.29990651109E+03  0.52407963200E+03  0.60548425825E+03  0.30000000000E+02 0. -1.
     200000    1    3    3    0    0 -0.37423253763E+03  0.20761756880E+03  0.43969920330E+03  0.62184518691E+03  0.10100000000E+03 0. -1.
    -200001    1    1    2    0    0  0.26926109899E+03 -0.62935364553E+03  0.10976485095E+04  0.14314987953E+04  0.61300000000E+03 0.  1.
<mgrwt>
<rscale>  0 0.18376643E+04</rscale>
<asrwt>0</asrwt>
<pdfrwt beam="1">  1        2 0.38429509E+00 0.18376643E+04</pdfrwt>
<pdfrwt beam="2">  1       -2 0.44834407E-01 0.18376643E+04</pdfrwt>
<totfact> 0.15557964E+01</totfact>
</mgrwt>
</event>
<event>
 8    1  0.7583103E-052  0.1709491E+04  0.7818608E-02  0.8755970E-01
          2   -1    0    0  501    0  0.00000000000E+00  0.00000000000E+00  0.98974811590E+03  0.98974811591E+03  0.25500000000E-02 0.  1.
         -2   -1    0    0    0  501 -0.00000000000E+00 -0.00000000000E+00 -0.73815758323E+03  0.73815758324E+03  0.25500000000E-02 0. -1.
     200001    2    1    2    0    0  0.22347275090E+02 -0.55513469131E+03 -0.91644746862E+02  0.83221971437E+03  0.61279439224E+03 0.  0.
    5000001    2    3    3    0    0  0.25476562065E+03 -0.48988103693E+03 -0.53579268557E+01  0.55667889694E+03  0.70524712756E+02 0.  0.
        -13    1    4    4    0    0  0.10621557405E+03 -0.24242295321E+03  0.19819065831E+02  0.26541183649E+03  0.10566000000E+00 0. -1.
     200003    1    4    4    0    0  0.14855004660E+03 -0.24745808372E+03 -0.25176992687E+02  0.29126706045E+03  0.30000000000E+02 0. -1.
     200000    1    3    3    0    0 -0.23241834556E+03 -0.65253654387E+02 -0.86286820006E+02  0.27554081743E+03  0.10100000000E+03 0. -1.
    -200001    1    1    2    0    0 -0.22347275090E+02  0.55513469131E+03  0.34323527953E+03  0.89568598477E+03  0.61300000000E+03 0.  1.
<mgrwt>
<rscale>  0 0.17094912E+04</rscale>
<asrwt>0</asrwt>
<pdfrwt beam="1">  1        2 0.14139259E+00 0.17094912E+04</pdfrwt>
<pdfrwt beam="2">  1       -2 0.10545108E+00 0.17094912E+04</pdfrwt>
<totfact> 0.19773555E+01</totfact>
</mgrwt>
</event>
<event>
 8    1  0.7583103E-052  0.1779666E+04  0.7818608E-02  0.8717188E-01
         -2   -1    0    0    0  501 -0.00000000000E+00  0.00000000000E+00  0.10203949539E+04  0.10203949539E+04  0.25500000000E-02 0. -1.
          2   -1    0    0  501    0  0.00000000000E+00 -0.00000000000E+00 -0.77597650444E+03  0.77597650445E+03  0.25500000000E-02 0.  1.
     200001    2    1    2    0    0  0.39947951344E+03  0.35053475532E+03  0.48577547089E+03  0.94991962382E+03  0.61960550937E+03 0.  0.
    5000001    2    3    3    0    0  0.32069310481E+03  0.31829319295E+03  0.14047143955E+03  0.58021340181E+03  0.33579866314E+03 0.  0.
        -13    1    4    4    0    0  0.38208207765E+03  0.30721919631E+03  0.10113562039E+03  0.50059841542E+03  0.10566000000E+00 0. -1.
     200003    1    4    4    0    0 -0.61388972848E+02  0.11073996642E+02  0.39335819168E+02  0.79614986394E+02  0.30000000000E+02 0. -1.
     200000    1    3    3    0    0  0.78786408639E+02  0.32241562365E+02  0.34530403134E+03  0.36970622200E+03  0.10100000000E+03 0. -1.
    -200001    1    1    2    0    0 -0.39947951344E+03 -0.35053475532E+03 -0.24135702145E+03  0.84645183451E+03  0.61300000000E+03 0.  1.
<mgrwt>
<rscale>  0 0.17796657E+04</rscale>
<asrwt>0</asrwt>
<pdfrwt beam="1">  1        2 0.11085379E+00 0.17796657E+04</pdfrwt>
<pdfrwt beam="2">  1       -2 0.14577071E+00 0.17796657E+04</pdfrwt>
<totfact> 0.12111803E+01</totfact>
</mgrwt>
</event>
<event>
 8    1  0.7583103E-052  0.1233380E+04  0.7818608E-02  0.9084130E-01
         -2   -1    0    0    0  501 -0.00000000000E+00  0.00000000000E+00  0.20957592580E+03  0.20957592582E+03  0.25500000000E-02 0. -1.
          2   -1    0    0  501    0  0.00000000000E+00 -0.00000000000E+00 -0.18146489230E+04  0.18146489230E+04  0.25500000000E-02 0.  1.
     200001    2    1    2    0    0  0.18479847786E+02  0.53993197907E+02 -0.85811362361E+03  0.10562506364E+04  0.61322886886E+03 0.  0.
    5000001    2    3    3    0    0 -0.36580009584E+01  0.17510897664E+03 -0.12904663003E+02  0.19617023123E+03  0.87405346638E+02 0.  0.
        -13    1    4    4    0    0 -0.32123661405E+02  0.36410876438E+02  0.10170890019E+02  0.49609875155E+02  0.10566000000E+00 0. -1.
     200003    1    4    4    0    0  0.28465660447E+02  0.13869810021E+03 -0.23075553022E+02  0.14656035608E+03  0.30000000000E+02 0. -1.
     200000    1    3    3    0    0  0.22137848744E+02 -0.12111577874E+03 -0.84520896060E+03  0.86008040513E+03  0.10100000000E+03 0.  1.
    -200001    1    1    2    0    0 -0.18479847786E+02 -0.53993197907E+02 -0.74695937361E+03  0.96797421248E+03  0.61300000000E+03 0. -1.
<mgrwt>
<rscale>  0 0.12333803E+04</rscale>
<asrwt>0</asrwt>
<pdfrwt beam="1">  1        2 0.25923555E+00 0.12333803E+04</pdfrwt>
<pdfrwt beam="2">  1       -2 0.29939419E-01 0.12333803E+04</pdfrwt>
<totfact> 0.10133662E+02</totfact>
</mgrwt>
</event>
<event>
 8    1  0.7583103E-052  0.1384056E+04  0.7818608E-02  0.8965441E-01
          2   -1    0    0  501    0  0.00000000000E+00  0.00000000000E+00  0.72515929487E+03  0.72515929488E+03  0.25500000000E-02 0.  1.
         -2   -1    0    0    0  501 -0.00000000000E+00 -0.00000000000E+00 -0.66041073882E+03  0.66041073883E+03  0.25500000000E-02 0. -1.
     200001    2    1    2    0    0 -0.13031353346E+03  0.27350954522E+03 -0.75781386073E+02  0.68749643231E+03  0.61246994835E+03 0.  0.
    5000001    2    3    3    0    0  0.98398721906E+02 -0.95902078261E+02 -0.13781160883E+03  0.23713769546E+03  0.13550915095E+03 0.  0.
        -13    1    4    4    0    0 -0.48386710487E+01 -0.23608750020E+02 -0.99005480884E+02  0.10189642891E+03  0.10566000000E+00 0. -1.
     200003    1    4    4    0    0  0.10323739295E+03 -0.72293328241E+02 -0.38806127948E+02  0.13524126655E+03  0.30000000000E+02 0. -1.
     200000    1    3    3    0    0 -0.22871225537E+03  0.36941162348E+03  0.62030222759E+02  0.45035873685E+03  0.10100000000E+03 0. -1.
    -200001    1    1    2    0    0  0.13031353346E+03 -0.27350954522E+03  0.14052994212E+03  0.69807360139E+03  0.61300000000E+03 0.  1.
<mgrwt>
<rscale>  0 0.13840563E+04</rscale>
<asrwt>0</asrwt>
<pdfrwt beam="1">  1        2 0.10359418E+00 0.13840563E+04</pdfrwt>
<pdfrwt beam="2">  1       -2 0.94344391E-01 0.13840563E+04</pdfrwt>
<totfact> 0.39828471E+01</totfact>
</mgrwt>
</event>
<event>
 8    1  0.7583103E-052  0.1642325E+04  0.7818608E-02  0.8794960E-01
          2   -1    0    0  501    0  0.00000000000E+00  0.00000000000E+00  0.88977173049E+03  0.88977173050E+03  0.25500000000E-02 0.  1.
         -2   -1    0    0    0  501 -0.00000000000E+00 -0.00000000000E+00 -0.75784407261E+03  0.75784407262E+03  0.25500000000E-02 0. -1.
     200001    2    1    2    0    0 -0.51136199779E+03 -0.49330804913E+02 -0.11666594235E+03  0.81006437235E+03  0.61536064559E+03 0.  0.
    5000001    2    3    3    0    0  0.10889081694E+03  0.63804406868E+02 -0.27027259431E+02  0.16527818778E+03  0.10323853086E+03 0.  0.
        -13    1    4    4    0    0 -0.15531956252E+02  0.40576007576E+01 -0.17443604850E+02  0.23706461211E+02  0.10566000000E+00 0. -1.
     200003    1    4    4    0    0  0.12442277319E+03  0.59746806110E+02 -0.95836545813E+01  0.14157172657E+03  0.30000000000E+02 0. -1.
     200000    1    3    3    0    0 -0.62025281473E+03 -0.11313521178E+03 -0.89638682922E+02  0.64478618456E+03  0.10100000000E+03 0.  1.
    -200001    1    1    2    0    0  0.51136199779E+03  0.49330804913E+02  0.24859360023E+03  0.83755143077E+03  0.61300000000E+03 0.  1.
<mgrwt>
<rscale>  0 0.16423255E+04</rscale>
<asrwt>0</asrwt>
<pdfrwt beam="1">  1        2 0.12711025E+00 0.16423255E+04</pdfrwt>
<pdfrwt beam="2">  1       -2 0.10826344E+00 0.16423255E+04</pdfrwt>
<totfact> 0.21610861E+01</totfact>
</mgrwt>
</event>
<event>
 8    1  0.7583103E-052  0.1873362E+04  0.7818608E-02  0.8668231E-01
         -2   -1    0    0    0  501 -0.00000000000E+00  0.00000000000E+00  0.61757156292E+03  0.61757156293E+03  0.25500000000E-02 0. -1.
          2   -1    0    0  501    0  0.00000000000E+00 -0.00000000000E+00 -0.14206788885E+04  0.14206788885E+04  0.25500000000E-02 0.  1.
     200001    2    1    2    0    0 -0.47293688292E+03  0.42159347179E+03 -0.55381628899E+02  0.88227767140E+03  0.61150340469E+03 0.  0.
    5000001    2    3    3    0    0 -0.47582093539E+03  0.48727717388E+03 -0.74798938324E+02  0.76020925459E+03  0.32936093097E+03 0.  0.
        -13    1    4    4    0    0 -0.16138434365E+01  0.16719060654E+03 -0.84237497237E+02  0.18721984540E+03  0.10566000000E+00 0. -1.
     200003    1    4    4    0    0 -0.47420709195E+03  0.32008656733E+03  0.94385589128E+01  0.57298940919E+03  0.30000000000E+02 0. -1.
     200000    1    3    3    0    0  0.28840524705E+01 -0.65683702084E+02  0.19417309425E+02  0.12206841681E+03  0.10100000000E+03 0. -1.
    -200001    1    1    2    0    0  0.47293688292E+03 -0.42159347179E+03 -0.74772569666E+03  0.11559727800E+04  0.61300000000E+03 0.  1.
<mgrwt>
<rscale>  0 0.18733616E+04</rscale>
<asrwt>0</asrwt>
<pdfrwt beam="1">  1        2 0.20295413E+00 0.18733616E+04</pdfrwt>
<pdfrwt beam="2">  1       -2 0.88224510E-01 0.18733616E+04</pdfrwt>
<totfact> 0.16803965E+01</totfact>
</mgrwt>
</event>
<event>
 8    1  0.7583103E-052  0.2197278E+04  0.7818608E-02  0.8519562E-01
          2   -1    0    0  501    0  0.00000000000E+00  0.00000000000E+00  0.19785211865E+04  0.19785211865E+04  0.25500000000E-02 0.  1.
         -2   -1    0    0    0  501 -0.00000000000E+00 -0.00000000000E+00 -0.61005519217E+03  0.61005519217E+03  0.25500000000E-02 0. -1.
     200001    2    1    2    0    0 -0.20895986266E+02  0.74119766910E+03  0.13096055722E+04  0.16247070015E+04  0.61220540587E+03 0.  0.
    5000001    2    3    3    0    0  0.31561851715E+02  0.81371139103E+03  0.10392522956E+04  0.13225448615E+04  0.77182890043E+02 0.  0.
        -13    1    4    4    0    0  0.21704356809E+02  0.98250565776E+02  0.15271324733E+03  0.18288138192E+03  0.10566000000E+00 0. -1.
     200003    1    4    4    0    0  0.98574949062E+01  0.71546082526E+03  0.88653904824E+03  0.11396634796E+04  0.30000000000E+02 0. -1.
     200000    1    3    3    0    0 -0.52457837981E+02 -0.72513721933E+02  0.27035327664E+03  0.30216213996E+03  0.10100000000E+03 0.  1.
    -200001    1    1    2    0    0  0.20895986266E+02 -0.74119766910E+03  0.58860422088E+02  0.96386937715E+03  0.61300000000E+03 0. -1.
<mgrwt>
<rscale>  0 0.21972775E+04</rscale>
<asrwt>0</asrwt>
<pdfrwt beam="1">  1        2 0.28264588E+00 0.21972775E+04</pdfrwt>
<pdfrwt beam="2">  1       -2 0.87150742E-01 0.21972775E+04</pdfrwt>
<totfact> 0.86028414E+00</totfact>
</mgrwt>
</event>
<event>
 8    1  0.7583103E-052  0.1285668E+04  0.7818608E-02  0.9041008E-01
          2   -1    0    0  501    0  0.00000000000E+00  0.00000000000E+00  0.12326804952E+04  0.12326804952E+04  0.25500000000E-02 0.  1.
         -2   -1    0    0    0  501 -0.00000000000E+00 -0.00000000000E+00 -0.33523351005E+03  0.33523351006E+03  0.25500000000E-02 0. -1.
     200001    2    1    2    0    0 -0.32217324655E+02  0.16618715305E+03  0.56592360304E+03  0.85074395658E+03  0.61224147960E+03 0.  0.
    5000001    2    3    3    0    0  0.26058284550E+03  0.79079036172E+02  0.34101647905E+03  0.45818316118E+03  0.13958028828E+03 0.  0.
        -13    1    4    4    0    0  0.12580420235E+03  0.74138934533E+02  0.25949663750E+03  0.29776130538E+03  0.10566000000E+00 0. -1.
     200003    1    4    4    0    0  0.13477864315E+03  0.49401016389E+01  0.81519841549E+02  0.16042185580E+03  0.30000000000E+02 0. -1.
     200000    1    3    3    0    0 -0.29280017015E+03  0.87108116875E+02  0.22490712399E+03  0.39256079540E+03  0.10100000000E+03 0.  1.
    -200001    1    1    2    0    0  0.32217324655E+02 -0.16618715305E+03  0.33152338211E+03  0.71717004868E+03  0.61300000000E+03 0. -1.
<mgrwt>
<rscale>  0 0.12856684E+04</rscale>
<asrwt>0</asrwt>
<pdfrwt beam="1">  1        2 0.17609721E+00 0.12856684E+04</pdfrwt>
<pdfrwt beam="2">  1       -2 0.47890502E-01 0.12856684E+04</pdfrwt>
<totfact> 0.83011169E+01</totfact>
</mgrwt>
</event>
<event>
 8    1  0.7583103E-052  0.1574239E+04  0.7818608E-02  0.8836532E-01
         -2   -1    0    0    0  501 -0.00000000000E+00  0.00000000000E+00  0.59531151905E+03  0.59531151905E+03  0.25500000000E-02 0. -1.
          2   -1    0    0  501    0  0.00000000000E+00 -0.00000000000E+00 -0.10407275706E+04  0.10407275706E+04  0.25500000000E-02 0.  1.
     200001    2    1    2    0    0  0.96845048472E+02  0.39815987670E+03 -0.50902748356E+03  0.89595418566E+03  0.61295568597E+03 0.  0.
    5000001    2    3    3    0    0  0.12040242954E+03  0.36443229048E+03 -0.23738317844E+02  0.39856191126E+03  0.10478764233E+03 0.  0.
        -13    1    4    4    0    0  0.12345744499E+02  0.17508924771E+03 -0.31666914438E+02  0.17835769315E+03  0.10566000000E+00 0. -1.
     200003    1    4    4    0    0  0.10805668504E+03  0.18934304277E+03  0.79285965945E+01  0.22020421811E+03  0.30000000000E+02 0. -1.
     200000    1    3    3    0    0 -0.23557381071E+02  0.33727586213E+02 -0.48528916571E+03  0.49739227440E+03  0.10100000000E+03 0.  1.
    -200001    1    1    2    0    0 -0.96845048472E+02 -0.39815987670E+03  0.63611432016E+02  0.74008490398E+03  0.61300000000E+03 0. -1.
<mgrwt>
<rscale>  0 0.15742390E+04</rscale>
<asrwt>0</asrwt>
<pdfrwt beam="1">  1        2 0.14867537E+00 0.15742390E+04</pdfrwt>
<pdfrwt beam="2">  1       -2 0.85044503E-01 0.15742390E+04</pdfrwt>
<totfact> 0.30732927E+01</totfact>
</mgrwt>
</event>
<event>
 8    1  0.7583103E-052  0.1351305E+04  0.7818608E-02  0.8989841E-01
         -2   -1    0    0    0  501 -0.00000000000E+00  0.00000000000E+00  0.49034262814E+03  0.49034262815E+03  0.25500000000E-02 0.  1.
          2   -1    0    0  501    0  0.00000000000E+00 -0.00000000000E+00 -0.93099413879E+03  0.93099413879E+03  0.25500000000E-02 0. -1.
     200001    2    1    2    0    0  0.29156689109E+02  0.34394998089E+02 -0.52893496031E+03  0.80037292266E+03  0.59899206562E+03 0.  0.
    5000001    2    3    3    0    0 -0.78856370557E+02  0.24135623196E+03 -0.68748841285E+02  0.27456683908E+03  0.78672664007E+02 0.  0.
        -13    1    4    4    0    0 -0.35740730621E+02  0.11951777420E+03 -0.67594253900E+02  0.14188337640E+03  0.10566000000E+00 0. -1.
     200003    1    4    4    0    0 -0.43115639936E+02  0.12183845776E+03 -0.11545873847E+01  0.13268346268E+03  0.30000000000E+02 0. -1.
     200000    1    3    3    0    0  0.10801305967E+03 -0.20696123387E+03 -0.46018611903E+03  0.52580608358E+03  0.10100000000E+03 0. -1.
    -200001    1    1    2    0    0 -0.29156689109E+02 -0.34394998089E+02  0.88283449666E+02  0.62096384428E+03  0.61300000000E+03 0.  1.
<mgrwt>
<rscale>  0 0.13513047E+04</rscale>
<asrwt>0</asrwt>
<pdfrwt beam="1">  1        2 0.13299916E+00 0.13513047E+04</pdfrwt>
<pdfrwt beam="2">  1       -2 0.70048947E-01 0.13513047E+04</pdfrwt>
<totfact> 0.56363182E+01</totfact>
</mgrwt>
</event>
<event>
 8    1  0.7583103E-052  0.1330383E+04  0.7818608E-02  0.9005812E-01
         -2   -1    0    0    0  501 -0.00000000000E+00  0.00000000000E+00  0.28328413809E+03  0.28328413810E+03  0.25500000000E-02 0. -1.
          2   -1    0    0  501    0  0.00000000000E+00 -0.00000000000E+00 -0.15619651931E+04  0.15619651931E+04  0.25500000000E-02 0.  1.
     200001    2    1    2    0    0 -0.12461281978E+03 -0.22540277014E+03 -0.65805235045E+03  0.93569792938E+03  0.61332124981E+03 0.  0.
    5000001    2    3    3    0    0  0.10312692395E+03 -0.33563794526E+03 -0.51533938997E+03  0.62815090241E+03  0.75570342101E+02 0.  0.
        -13    1    4    4    0    0  0.27386518946E+02 -0.22029379800E+02 -0.50348276927E+02  0.61402566297E+02  0.10566000000E+00 0. -1.
     200003    1    4    4    0    0  0.75740404999E+02 -0.31360856546E+03 -0.46499111304E+03  0.56674833611E+03  0.30000000000E+02 0. -1.
     200000    1    3    3    0    0 -0.22773974373E+03  0.11023517512E+03 -0.14271296049E+03  0.30754702697E+03  0.10100000000E+03 0. -1.
    -200001    1    1    2    0    0  0.12461281978E+03  0.22540277014E+03 -0.62062870457E+03  0.90955140184E+03  0.61300000000E+03 0. -1.
<mgrwt>
<rscale>  0 0.13303833E+04</rscale>
<asrwt>0</asrwt>
<pdfrwt beam="1">  1        2 0.22313788E+00 0.13303833E+04</pdfrwt>
<pdfrwt beam="2">  1       -2 0.40469164E-01 0.13303833E+04</pdfrwt>
<totfact> 0.76632371E+01</totfact>
</mgrwt>
</event>
<event>
 8    1  0.7583103E-052  0.1634334E+04  0.7818608E-02  0.8799729E-01
         -2   -1    0    0    0  501 -0.00000000000E+00  0.00000000000E+00  0.59011987336E+03  0.59011987336E+03  0.25500000000E-02 0. -1.
          2   -1    0    0  501    0  0.00000000000E+00 -0.00000000000E+00 -0.11315699905E+04  0.11315699905E+04  0.25500000000E-02 0.  1.
     200001    2    1    2    0    0 -0.19021741423E+03  0.49015305002E+03 -0.13873028928E+03  0.81925707584E+03  0.61278331083E+03 0.  0.
    5000001    2    3    3    0    0  0.26188420365E+02  0.24991390990E+03  0.20038688642E+03  0.33993694426E+03  0.11072229269E+03 0.  0.
        -13    1    4    4    0    0 -0.19331439567E+02  0.17388419227E+03  0.16321768077E+03  0.23926855070E+03  0.10566000000E+00 0. -1.
     200003    1    4    4    0    0  0.45519859932E+02  0.76029717635E+02  0.37169205645E+02  0.10066839355E+03  0.30000000000E+02 0. -1.
     200000    1    3    3    0    0 -0.21640583459E+03  0.24023914012E+03 -0.33911717570E+03  0.47932013159E+03  0.10100000000E+03 0.  1.
    -200001    1    1    2    0    0  0.19021741423E+03 -0.49015305002E+03 -0.40271982783E+03  0.90243278799E+03  0.61300000000E+03 0. -1.
<mgrwt>
<rscale>  0 0.16343340E+04</rscale>
<asrwt>0</asrwt>
<pdfrwt beam="1">  1        2 0.16165285E+00 0.16343340E+04</pdfrwt>
<pdfrwt beam="2">  1       -2 0.84302840E-01 0.16343340E+04</pdfrwt>
<totfact> 0.27557202E+01</totfact>
</mgrwt>
</event>
<event>
 8    1  0.7583103E-052  0.1585510E+04  0.7818608E-02  0.8829500E-01
         -2   -1    0    0    0  501 -0.00000000000E+00  0.00000000000E+00  0.24663461214E+03  0.24663461215E+03  0.25500000000E-02 0. -1.
          2   -1    0    0  501    0  0.00000000000E+00 -0.00000000000E+00 -0.25481439671E+04  0.25481439671E+04  0.25500000000E-02 0.  1.
     200001    2    1    2    0    0  0.23019990100E+03 -0.44550486523E+03 -0.12115210114E+04  0.14474441113E+04  0.61306175464E+03 0.  0.
    5000001    2    3    3    0    0  0.49822383158E+01  0.16116130497E+02  0.45935925125E+02  0.85381012026E+02  0.69966103484E+02 0.  0.
        -13    1    4    4    0    0  0.65069432220E+00  0.34906382869E+02  0.31098634592E+02  0.46754841521E+02  0.10566000000E+00 0. -1.
     200003    1    4    4    0    0  0.43315439936E+01 -0.18790252372E+02  0.14837290533E+02  0.38626170506E+02  0.30000000000E+02 0. -1.
     200000    1    3    3    0    0  0.22521766268E+03 -0.46162099573E+03 -0.12574569365E+04  0.13620630993E+04  0.10100000000E+03 0.  1.
    -200001    1    1    2    0    0 -0.23019990100E+03  0.44550486523E+03 -0.10899883436E+04  0.13473344680E+04  0.61300000000E+03 0. -1.
<mgrwt>
<rscale>  0 0.15855100E+04</rscale>
<asrwt>0</asrwt>
<pdfrwt beam="1">  1        2 0.36402055E+00 0.15855100E+04</pdfrwt>
<pdfrwt beam="2">  1       -2 0.35233517E-01 0.15855100E+04</pdfrwt>
<totfact> 0.30279049E+01</totfact>
</mgrwt>
</event>
<event>
 8    1  0.7583103E-052  0.1653973E+04  0.7818608E-02  0.8788060E-01
         -2   -1    0    0    0  501 -0.00000000000E+00  0.00000000000E+00  0.12875016012E+04  0.12875016012E+04  0.25500000000E-02 0.  1.
          2   -1    0    0  501    0  0.00000000000E+00 -0.00000000000E+00 -0.53118878086E+03  0.53118878086E+03  0.25500000000E-02 0. -1.
     200001    2    1    2    0    0  0.68714015742E+02  0.48584131675E+03  0.66332758104E+03  0.10280079832E+04  0.61321573107E+03 0.  0.
    5000001    2    3    3    0    0 -0.10485790142E+03  0.55234960177E+03  0.41962021461E+03  0.70529318213E+03  0.72609132986E+02 0.  0.
        -13    1    4    4    0    0 -0.34616594302E+02  0.31410151669E+03  0.21687805251E+03  0.38326775525E+03  0.10566000000E+00 0. -1.
     200003    1    4    4    0    0 -0.70241307114E+02  0.23824808508E+03  0.20274216210E+03  0.32202542688E+03  0.30000000000E+02 0. -1.
     200000    1    3    3    0    0  0.17357191716E+03 -0.66508285023E+02  0.24370736643E+03  0.32271480111E+03  0.10100000000E+03 0. -1.
    -200001    1    1    2    0    0 -0.68714015742E+02 -0.48584131675E+03  0.92985239258E+02  0.79068239878E+03  0.61300000000E+03 0. -1.
<mgrwt>
<rscale>  0 0.16539727E+04</rscale>
<asrwt>0</asrwt>
<pdfrwt beam="1">  1        2 0.75884112E-01 0.16539727E+04</pdfrwt>
<pdfrwt beam="2">  1       -2 0.18392880E+00 0.16539727E+04</pdfrwt>
<totfact> 0.10203411E+01</totfact>
</mgrwt>
</event>
<event>
 8    1  0.7583103E-052  0.1457231E+04  0.7818608E-02  0.8913403E-01
         -2   -1    0    0    0  501 -0.00000000000E+00  0.00000000000E+00  0.23228598892E+03  0.23228598893E+03  0.25500000000E-02 0. -1.
          2   -1    0    0  501    0  0.00000000000E+00 -0.00000000000E+00 -0.22854603118E+04  0.22854603118E+04  0.25500000000E-02 0.  1.
     200001    2    1    2    0    0 -0.12083333367E+03 -0.87072428609E+02 -0.39426266974E+03  0.74293950132E+03  0.61182820098E+03 0.  0.
    5000001    2    3    3    0    0  0.14815107707E+03  0.32943143682E+02  0.58431737080E+02  0.19349471175E+03  0.10484246862E+03 0.  0.
        -13    1    4    4    0    0 -0.10124961764E+02  0.18059868447E+02 -0.19888276253E+01  0.20800007173E+02  0.10566000000E+00 0. -1.
     200003    1    4    4    0    0  0.15827603883E+03  0.14883275235E+02  0.60420564705E+02  0.17269470458E+03  0.30000000000E+02 0. -1.
     200000    1    3    3    0    0 -0.26898441074E+03 -0.12001557229E+03 -0.45269440682E+03  0.54944478957E+03  0.10100000000E+03 0.  1.
    -200001    1    1    2    0    0  0.12083333367E+03  0.87072428609E+02 -0.16589116531E+04  0.17748067994E+04  0.61300000000E+03 0.  1.
<mgrwt>
<rscale>  0 0.14572308E+04</rscale>
<asrwt>0</asrwt>
<pdfrwt beam="1">  1        2 0.32649432E+00 0.14572308E+04</pdfrwt>
<pdfrwt beam="2">  1       -2 0.33183714E-01 0.14572308E+04</pdfrwt>
<totfact> 0.47034390E+01</totfact>
</mgrwt>
</event>
<event>
 8    1  0.7583103E-052  0.1515120E+04  0.7818608E-02  0.8874460E-01
         -2   -1    0    0    0  501 -0.00000000000E+00  0.00000000000E+00  0.38790020810E+03  0.38790020811E+03  0.25500000000E-02 0. -1.
          2   -1    0    0  501    0  0.00000000000E+00 -0.00000000000E+00 -0.14794977376E+04  0.14794977376E+04  0.25500000000E-02 0.  1.
     200001    2    1    2    0    0  0.18045570998E+03  0.16279980159E+03 -0.10055955270E+04  0.12023916427E+04  0.61274404098E+03 0.  0.
    5000001    2    3    3    0    0  0.97476739985E+02  0.68085930769E+01  0.53888555918E+02  0.12353748729E+03  0.53004363312E+02 0.  0.
        -13    1    4    4    0    0  0.28385161011E+02  0.16258168723E+02  0.28805573795E+02  0.43586897820E+02  0.10566000000E+00 0. -1.
     200003    1    4    4    0    0  0.69091578974E+02 -0.94495756463E+01  0.25082982123E+02  0.79950589474E+02  0.30000000000E+02 0. -1.
     200000    1    3    3    0    0  0.82978969993E+02  0.15599120852E+03 -0.10594840829E+04  0.10788541554E+04  0.10100000000E+03 0.  1.
    -200001    1    1    2    0    0 -0.18045570998E+03 -0.16279980159E+03 -0.86002002500E+02  0.66500630305E+03  0.61300000000E+03 0. -1.
<mgrwt>
<rscale>  0 0.15151204E+04</rscale>
<asrwt>0</asrwt>
<pdfrwt beam="1">  1        2 0.21135682E+00 0.15151204E+04</pdfrwt>
<pdfrwt beam="2">  1       -2 0.55414316E-01 0.15151204E+04</pdfrwt>
<totfact> 0.44349431E+01</totfact>
</mgrwt>
</event>
<event>
 8    1  0.7583103E-052  0.1235047E+04  0.7818608E-02  0.9082721E-01
          2   -1    0    0  501    0  0.00000000000E+00  0.00000000000E+00  0.19535499261E+04  0.19535499261E+04  0.25500000000E-02 0.  1.
         -2   -1    0    0    0  501 -0.00000000000E+00 -0.00000000000E+00 -0.19520121553E+03  0.19520121554E+03  0.25500000000E-02 0. -1.
     200001    2    1    2    0    0 -0.27744428253E+02 -0.80550640833E+02  0.85672938460E+03  0.10551586362E+04  0.61001340153E+03 0.  0.
    5000001    2    3    3    0    0 -0.25379775789E+03 -0.39236000796E+02  0.15795784043E+03  0.31266979569E+03  0.82818814990E+02 0.  0.
        -13    1    4    4    0    0 -0.73597425768E+02  0.20701722163E+01  0.82959716689E+02  0.11091975681E+03  0.10566000000E+00 0. -1.
     200003    1    4    4    0    0 -0.18020033212E+03 -0.41306173012E+02  0.74998123738E+02  0.20175003888E+03  0.30000000000E+02 0. -1.
     200000    1    3    3    0    0  0.22605332964E+03 -0.41314640037E+02  0.69877154417E+03  0.74248884050E+03  0.10100000000E+03 0.  1.
    -200001    1    1    2    0    0  0.27744428253E+02  0.80550640833E+02  0.90161932602E+03  0.10935925055E+04  0.61300000000E+03 0.  1.
<mgrwt>
<rscale>  0 0.12350471E+04</rscale>
<asrwt>0</asrwt>
<pdfrwt beam="1">  1        2 0.27907858E+00 0.12350471E+04</pdfrwt>
<pdfrwt beam="2">  1       -2 0.27885886E-01 0.12350471E+04</pdfrwt>
<totfact> 0.98063135E+01</totfact>
</mgrwt>
</event>
<event>
 8    1  0.7583103E-052  0.1433834E+04  0.7818608E-02  0.8929685E-01
         -2   -1    0    0    0  501 -0.00000000000E+00  0.00000000000E+00  0.11090238842E+03  0.11090238845E+03  0.25500000000E-02 0. -1.
          2   -1    0    0  501    0  0.00000000000E+00 -0.00000000000E+00 -0.46344378550E+04  0.46344378550E+04  0.25500000000E-02 0.  1.
     200001    2    1    2    0    0  0.24085618843E+03  0.26585015879E+03 -0.25736212701E+04  0.26700999239E+04  0.61418169222E+03 0.  0.
    5000001    2    3    3    0    0 -0.16276264173E+03  0.21067124944E+03 -0.13262874827E+04  0.13540469427E+04  0.59418711847E+02 0.  0.
        -13    1    4    4    0    0 -0.29202687915E+02  0.22374404799E+02 -0.26396017964E+03  0.26651153553E+03  0.10566000000E+00 0. -1.
     200003    1    4    4    0    0 -0.13355995382E+03  0.18829684464E+03 -0.10623273030E+04  0.10875354071E+04  0.30000000000E+02 0. -1.
     200000    1    3    3    0    0  0.40361883016E+03  0.55178909353E+02 -0.12473337874E+04  0.13160529812E+04  0.10100000000E+03 0. -1.
    -200001    1    1    2    0    0 -0.24085618843E+03 -0.26585015879E+03 -0.19499141964E+04  0.20752403196E+04  0.61300000000E+03 0.  1.
<mgrwt>
<rscale>  0 0.14338343E+04</rscale>
<asrwt>0</asrwt>
<pdfrwt beam="1">  1        2 0.66206243E+00 0.14338343E+04</pdfrwt>
<pdfrwt beam="2">  1       -2 0.15843201E-01 0.14338343E+04</pdfrwt>
<totfact> 0.60661980E+00</totfact>
</mgrwt>
</event>
<event>
 8    1  0.7583103E-052  0.1598427E+04  0.7818608E-02  0.8821515E-01
          2   -1    0    0  501    0  0.00000000000E+00  0.00000000000E+00  0.30955635226E+04  0.30955635226E+04  0.25500000000E-02 0.  1.
         -2   -1    0    0    0  501 -0.00000000000E+00 -0.00000000000E+00 -0.20634113042E+03  0.20634113043E+03  0.25500000000E-02 0. -1.
     200001    2    1    2    0    0  0.20640944473E+03  0.36372347317E+03  0.83393516160E+03  0.11167560942E+04  0.61383767924E+03 0.  0.
    5000001    2    3    3    0    0  0.77521015897E+02  0.48387250288E+03  0.74428211304E+03  0.89475004581E+03  0.80496420570E+02 0.  0.
        -13    1    4    4    0    0  0.35475186337E+02  0.22975989681E+03  0.41431541010E+03  0.47508459167E+03  0.10566000000E+00 0. -1.
     200003    1    4    4    0    0  0.42045829560E+02  0.25411260607E+03  0.32996670294E+03  0.41966545414E+03  0.30000000000E+02 0. -1.
     200000    1    3    3    0    0  0.12888842883E+03 -0.12014902971E+03  0.89653048556E+02  0.22200604843E+03  0.10100000000E+03 0. -1.
    -200001    1    1    2    0    0 -0.20640944473E+03 -0.36372347317E+03  0.20552872305E+04  0.21851485588E+04  0.61300000000E+03 0.  1.
<mgrwt>
<rscale>  0 0.15984268E+04</rscale>
<asrwt>0</asrwt>
<pdfrwt beam="1">  1        2 0.44222338E+00 0.15984268E+04</pdfrwt>
<pdfrwt beam="2">  1       -2 0.29477303E-01 0.15984268E+04</pdfrwt>
<totfact> 0.21302616E+01</totfact>
</mgrwt>
</event>
<event>
 8    1  0.7583103E-052  0.1258369E+04  0.7818608E-02  0.9063247E-01
          2   -1    0    0  501    0  0.00000000000E+00  0.00000000000E+00  0.15899870543E+04  0.15899870543E+04  0.25500000000E-02 0.  1.
         -2   -1    0    0    0  501 -0.00000000000E+00 -0.00000000000E+00 -0.24897865975E+03  0.24897865977E+03  0.25500000000E-02 0. -1.
     200001    2    1    2    0    0 -0.53528858452E+01 -0.66392986791E+02  0.85229093392E+03  0.10521681299E+04  0.61336877611E+03 0.  0.
    5000001    2    3    3    0    0 -0.88473045446E+01 -0.29970977270E+03  0.25906175538E+03  0.40674517416E+03  0.91784644432E+02 0.  0.
        -13    1    4    4    0    0  0.26012243499E+02 -0.31576897024E+02  0.25643993733E+02  0.48284188055E+02  0.10566000000E+00 0. -1.
     200003    1    4    4    0    0 -0.34859548044E+02 -0.26813287568E+03  0.23341776165E+03  0.35846098611E+03  0.30000000000E+02 0. -1.
     200000    1    3    3    0    0  0.34944186995E+01  0.23331678591E+03  0.59322917854E+03  0.64542295576E+03  0.10100000000E+03 0. -1.
    -200001    1    1    2    0    0  0.53528858452E+01  0.66392986791E+02  0.48871746060E+03  0.78679758412E+03  0.61300000000E+03 0. -1.
<mgrwt>
<rscale>  0 0.12583685E+04</rscale>
<asrwt>0</asrwt>
<pdfrwt beam="1">  1        2 0.22714101E+00 0.12583685E+04</pdfrwt>
<pdfrwt beam="2">  1       -2 0.35568380E-01 0.12583685E+04</pdfrwt>
<totfact> 0.95590933E+01</totfact>
</mgrwt>
</event>
<event>
 8    1  0.7583103E-052  0.1240569E+04  0.7818608E-02  0.9078069E-01
         -2   -1    0    0    0  501 -0.00000000000E+00  0.00000000000E+00  0.39027993393E+03  0.39027993394E+03  0.25500000000E-02 0.  1.
          2   -1    0    0  501    0  0.00000000000E+00 -0.00000000000E+00 -0.98583833388E+03  0.98583833389E+03  0.25500000000E-02 0. -1.
     200001    2    1    2    0    0  0.74212475641E+02  0.11359720614E+02 -0.22072468861E+03  0.65368775494E+03  0.61069776322E+03 0.  0.
    5000001    2    3    3    0    0  0.17738949014E+03  0.15223998294E+03  0.78771401354E+02  0.29258991150E+03  0.15735272168E+03 0.  0.
        -13    1    4    4    0    0  0.36189528792E+02 -0.61933013249E+01 -0.34313419673E+02  0.50253964115E+02  0.10566000000E+00 0. -1.
     200003    1    4    4    0    0  0.14119996135E+03  0.15843328426E+03  0.11308482103E+03  0.24233594738E+03  0.30000000000E+02 0. -1.
     200000    1    3    3    0    0 -0.10317701450E+03 -0.14088026232E+03 -0.29949608996E+03  0.36109784344E+03  0.10100000000E+03 0.  1.
    -200001    1    1    2    0    0 -0.74212475641E+02 -0.11359720614E+02 -0.37483371134E+03  0.72243051289E+03  0.61300000000E+03 0. -1.
<mgrwt>
<rscale>  0 0.12405691E+04</rscale>
<asrwt>0</asrwt>
<pdfrwt beam="1">  1        2 0.14083405E+00 0.12405691E+04</pdfrwt>
<pdfrwt beam="2">  1       -2 0.55754277E-01 0.12405691E+04</pdfrwt>
<totfact> 0.85282803E+01</totfact>
</mgrwt>
</event>
<event>
 8    1  0.7583103E-052  0.1300403E+04  0.7818608E-02  0.9029246E-01
          2   -1    0    0  501    0  0.00000000000E+00  0.00000000000E+00  0.11997961477E+04  0.11997961477E+04  0.25500000000E-02 0.  1.
         -2   -1    0    0    0  501 -0.00000000000E+00 -0.00000000000E+00 -0.35236133512E+03  0.35236133513E+03  0.25500000000E-02 0. -1.
     200001    2    1    2    0    0  0.14640087130E+03  0.88325477254E+02  0.58395842963E+03  0.86337347503E+03  0.61251261604E+03 0.  0.
    5000001    2    3    3    0    0 -0.10081038940E+03  0.10507859435E+03  0.57014254785E+03  0.59544446776E+03  0.91034848870E+02 0.  0.
        -13    1    4    4    0    0 -0.62314554139E+02  0.49908441739E+02  0.42765907417E+03  0.43504741247E+03  0.10566000000E+00 0. -1.
     200003    1    4    4    0    0 -0.38495835262E+02  0.55170152610E+02  0.14248347369E+03  0.16039705529E+03  0.30000000000E+02 0. -1.
     200000    1    3    3    0    0  0.24721126070E+03 -0.16753117096E+02  0.13815881780E+02  0.26792900728E+03  0.10100000000E+03 0.  1.
    -200001    1    1    2    0    0 -0.14640087130E+03 -0.88325477254E+02  0.26347638297E+03  0.68878400782E+03  0.61300000000E+03 0. -1.
<mgrwt>
<rscale>  0 0.13004027E+04</rscale>
<asrwt>0</asrwt>
<pdfrwt beam="1">  1        2 0.17139945E+00 0.13004027E+04</pdfrwt>
<pdfrwt beam="2">  1       -2 0.50337334E-01 0.13004027E+04</pdfrwt>
<totfact> 0.78237807E+01</totfact>
</mgrwt>
</event>
<event>
 8    1  0.7583103E-052  0.1783820E+04  0.7818608E-02  0.8714952E-01
          2   -1    0    0  501    0  0.00000000000E+00  0.00000000000E+00  0.39682838162E+04  0.39682838162E+04  0.25500000000E-02 0.  1.
         -2   -1    0    0    0  501 -0.00000000000E+00 -0.00000000000E+00 -0.20046531394E+03  0.20046531395E+03  0.25500000000E-02 0. -1.
     200001    2    1    2    0    0  0.33762582071E+03 -0.53768593709E+03  0.15757712970E+04  0.18057135164E+04  0.61192218550E+03 0.  0.
    5000001    2    3    3    0    0  0.20839482316E+03 -0.40956772246E+03  0.14947527218E+04  0.15823753486E+04  0.24176832501E+03 0.  0.
        -13    1    4    4    0    0  0.88876817762E+02 -0.19129920204E+01  0.34550447198E+03  0.35675776039E+03  0.10566000000E+00 0. -1.
     200003    1    4    4    0    0  0.11951800540E+03 -0.40765473044E+03  0.11492482498E+04  0.12256175883E+04  0.30000000000E+02 0. -1.
     200000    1    3    3    0    0  0.12923099755E+03 -0.12811821463E+03  0.81018575142E+02  0.22333816773E+03  0.10100000000E+03 0. -1.
    -200001    1    1    2    0    0 -0.33762582071E+03  0.53768593709E+03  0.21920472053E+04  0.23630356138E+04  0.61300000000E+03 0.  1.
<mgrwt>
<rscale>  0 0.17838198E+04</rscale>
<asrwt>0</asrwt>
<pdfrwt beam="1">  1        2 0.56689764E+00 0.17838198E+04</pdfrwt>
<pdfrwt beam="2">  1       -2 0.28637905E-01 0.17838198E+04</pdfrwt>
<totfact> 0.64102932E+00</totfact>
</mgrwt>
</event>
<event>
 8    1  0.7583103E-052  0.1324605E+04  0.7818608E-02  0.9010278E-01
         -2   -1    0    0    0  501 -0.00000000000E+00  0.00000000000E+00  0.98722692531E+03  0.98722692531E+03  0.25500000000E-02 0. -1.
          2   -1    0    0  501    0  0.00000000000E+00 -0.00000000000E+00 -0.44431998337E+03  0.44431998337E+03  0.25500000000E-02 0.  1.
     200001    2    1    2    0    0  0.20058010748E+03 -0.14973316985E+03  0.25931768294E+03  0.71123845428E+03  0.61315746468E+03 0.  0.
    5000001    2    3    3    0    0  0.31391706329E+03  0.94617221118E+02  0.22253554386E+03  0.42122758401E+03  0.14287850817E+03 0.  0.
        -13    1    4    4    0    0  0.30418941683E+03  0.98657770680E+02  0.22224251725E+03  0.38943074437E+03  0.10566000000E+00 0. -1.
     200003    1    4    4    0    0  0.97276464558E+01 -0.40405495620E+01  0.29302661308E+00  0.31796839637E+02  0.30000000000E+02 0.  1.
     200000    1    3    3    0    0 -0.11333695581E+03 -0.24435039097E+03  0.36782139078E+02  0.29001087027E+03  0.10100000000E+03 0. -1.
    -200001    1    1    2    0    0 -0.20058010748E+03  0.14973316985E+03  0.28358925900E+03  0.72030845441E+03  0.61300000000E+03 0. -1.
<mgrwt>
<rscale>  0 0.13246051E+04</rscale>
<asrwt>0</asrwt>
<pdfrwt beam="1">  1        2 0.63474284E-01 0.13246051E+04</pdfrwt>
<pdfrwt beam="2">  1       -2 0.14103242E+00 0.13246051E+04</pdfrwt>
<totfact> 0.26505316E+01</totfact>
</mgrwt>
</event>
<event>
 8    1  0.7583103E-052  0.1296607E+04  0.7818608E-02  0.9032260E-01
          2   -1    0    0  501    0  0.00000000000E+00  0.00000000000E+00  0.62075897971E+03  0.62075897971E+03  0.25500000000E-02 0.  1.
         -2   -1    0    0    0  501 -0.00000000000E+00 -0.00000000000E+00 -0.67706996850E+03  0.67706996851E+03  0.25500000000E-02 0. -1.
     200001    2    1    2    0    0 -0.77369951094E+02  0.17635921232E+03 -0.11351442420E+03  0.65274762457E+03  0.61327420929E+03 0.  0.
    5000001    2    3    3    0    0  0.19372734528E+03  0.89355046101E+02  0.84421676936E+02  0.29157845483E+03  0.17993434138E+03 0.  0.
        -13    1    4    4    0    0  0.44018060199E+02  0.55843309499E+02 -0.48758964954E+02  0.86217821052E+02  0.10566000000E+00 0. -1.
     200003    1    4    4    0    0  0.14970928508E+03  0.33511736602E+02  0.13318064189E+03  0.20536063377E+03  0.30000000000E+02 0. -1.
     200000    1    3    3    0    0 -0.27109729637E+03  0.87004166217E+02 -0.19793610113E+03  0.36116916974E+03  0.10100000000E+03 0. -1.
    -200001    1    1    2    0    0  0.77369951094E+02 -0.17635921232E+03  0.57203435399E+02  0.64508132365E+03  0.61300000000E+03 0.  1.
<mgrwt>
<rscale>  0 0.12966067E+04</rscale>
<asrwt>0</asrwt>
<pdfrwt beam="1">  1        2 0.88679854E-01 0.12966067E+04</pdfrwt>
<pdfrwt beam="2">  1       -2 0.96724281E-01 0.12966067E+04</pdfrwt>
<totfact> 0.45713769E+01</totfact>
</mgrwt>
</event>
<event>
 8    1  0.7583103E-052  0.2120126E+04  0.7818608E-02  0.8552429E-01
         -2   -1    0    0    0  501 -0.00000000000E+00  0.00000000000E+00  0.46668838688E+03  0.46668838689E+03  0.25500000000E-02 0. -1.
          2   -1    0    0  501    0  0.00000000000E+00 -0.00000000000E+00 -0.24078886160E+04  0.24078886160E+04  0.25500000000E-02 0.  1.
     200001    2    1    2    0    0 -0.67761829771E+03 -0.52844147140E+03 -0.83767633892E+03  0.13475043385E+04  0.61290239631E+03 0.  0.
    5000001    2    3    3    0    0 -0.31802462169E+03 -0.33703883694E+02 -0.59958739143E+03  0.68345596719E+03  0.73016486830E+02 0.  0.
        -13    1    4    4    0    0 -0.24985247494E+03 -0.37159435200E+02 -0.44114450284E+03  0.50834591216E+03  0.10566000000E+00 0. -1.
     200003    1    4    4    0    0 -0.68172146755E+02  0.34555515064E+01 -0.15844288859E+03  0.17511005503E+03  0.30000000000E+02 0.  1.
     200000    1    3    3    0    0 -0.35959367602E+03 -0.49473758771E+03 -0.23808894749E+03  0.66404837131E+03  0.10100000000E+03 0. -1.
    -200001    1    1    2    0    0  0.67761829771E+03  0.52844147140E+03 -0.11035238902E+04  0.15270726644E+04  0.61300000000E+03 0. -1.
<mgrwt>
<rscale>  0 0.21201261E+04</rscale>
<asrwt>0</asrwt>
<pdfrwt beam="1">  1        2 0.34398408E+00 0.21201261E+04</pdfrwt>
<pdfrwt beam="2">  1       -2 0.66669771E-01 0.21201261E+04</pdfrwt>
<totfact> 0.94104005E+00</totfact>
</mgrwt>
</event>
<event>
 8    1  0.7583103E-052  0.1674619E+04  0.7818608E-02  0.8775974E-01
         -2   -1    0    0    0  501 -0.00000000000E+00  0.00000000000E+00  0.94314255475E+03  0.94314255476E+03  0.25500000000E-02 0. -1.
          2   -1    0    0  501    0  0.00000000000E+00 -0.00000000000E+00 -0.74335226282E+03  0.74335226282E+03  0.25500000000E-02 0.  1.
     200001    2    1    2    0    0 -0.10731138064E+03  0.36055365504E+03 -0.33309639004E+03  0.79136807437E+03  0.61138821832E+03 0.  0.
    5000001    2    3    3    0    0 -0.22713453201E+03  0.42502966386E+03 -0.37614142899E+03  0.61652923803E+03  0.79910049088E+02 0.  0.
        -13    1    4    4    0    0 -0.48743700165E+02  0.96782428935E+02 -0.12470394524E+03  0.16520857114E+03  0.10566000000E+00 0. -1.
     200003    1    4    4    0    0 -0.17839083184E+03  0.32824723493E+03 -0.25143748375E+03  0.45132066689E+03  0.30000000000E+02 0. -1.
     200000    1    3    3    0    0  0.11982315137E+03 -0.64476008820E+02  0.43045038949E+02  0.17483883635E+03  0.10100000000E+03 0. -1.
    -200001    1    1    2    0    0  0.10731138064E+03 -0.36055365504E+03  0.53288668198E+03  0.89512674321E+03  0.61300000000E+03 0. -1.
<mgrwt>
<rscale>  0 0.16746189E+04</rscale>
<asrwt>0</asrwt>
<pdfrwt beam="1">  1        2 0.10619318E+00 0.16746189E+04</pdfrwt>
<pdfrwt beam="2">  1       -2 0.13473465E+00 0.16746189E+04</pdfrwt>
<totfact> 0.15820961E+01</totfact>
</mgrwt>
</event>
<event>
 8    1  0.7583103E-052  0.1953130E+04  0.7818608E-02  0.8628853E-01
          2   -1    0    0  501    0  0.00000000000E+00  0.00000000000E+00  0.15011496244E+04  0.15011496244E+04  0.25500000000E-02 0.  1.
         -2   -1    0    0    0  501 -0.00000000000E+00 -0.00000000000E+00 -0.63529948446E+03  0.63529948447E+03  0.25500000000E-02 0. -1.
     200001    2    1    2    0    0 -0.79429534372E+02  0.38090402019E+03 -0.27994044429E+03  0.77998238003E+03  0.61531206496E+03 0.  0.
    5000001    2    3    3    0    0  0.12916263243E+03 -0.81343976542E+01  0.63920346858E+02  0.21138513567E+03  0.15443027811E+03 0.  0.
        -13    1    4    4    0    0 -0.83343960915E+01  0.48598782048E+02  0.21786736197E+02  0.53907112823E+02  0.10566000000E+00 0. -1.
     200003    1    4    4    0    0  0.13749702852E+03 -0.56733179702E+02  0.42133610661E+02  0.15747802284E+03  0.30000000000E+02 0. -1.
     200000    1    3    3    0    0 -0.20859216680E+03  0.38903841785E+03 -0.34386079115E+03  0.56859724437E+03  0.10100000000E+03 0. -1.
    -200001    1    1    2    0    0  0.79429534372E+02 -0.38090402019E+03  0.11457905842E+04  0.13564667288E+04  0.61300000000E+03 0.  1.
<mgrwt>
<rscale>  0 0.19531304E+04</rscale>
<asrwt>0</asrwt>
<pdfrwt beam="1">  1        2 0.21444995E+00 0.19531304E+04</pdfrwt>
<pdfrwt beam="2">  1       -2 0.90757069E-01 0.19531304E+04</pdfrwt>
<totfact> 0.14165964E+01</totfact>
</mgrwt>
</event>
<event>
 8    1  0.7583103E-052  0.1628997E+04  0.7818608E-02  0.8802929E-01
         -2   -1    0    0    0  501 -0.00000000000E+00  0.00000000000E+00  0.17670291973E+03  0.17670291975E+03  0.25500000000E-02 0. -1.
          2   -1    0    0  501    0  0.00000000000E+00 -0.00000000000E+00 -0.37543697734E+04  0.37543697734E+04  0.25500000000E-02 0.  1.
     200001    2    1    2    0    0  0.41678503254E+02  0.16916436906E+03 -0.30124964617E+04  0.30792861862E+04  0.61360802121E+03 0.  0.
    5000001    2    3    3    0    0  0.28244226835E+03  0.16912202414E+03 -0.14003630853E+04  0.14461474243E+04  0.14815433924E+03 0.  0.
        -13    1    4    4    0    0  0.91403422203E+02  0.10752462170E+03 -0.80147762343E+03  0.81380742310E+03  0.10566000000E+00 0. -1.
     200003    1    4    4    0    0  0.19103884615E+03  0.61597402439E+02 -0.59888546182E+03  0.63234000119E+03  0.30000000000E+02 0. -1.
     200000    1    3    3    0    0 -0.24076376510E+03  0.42344924948E-01 -0.16121333764E+04  0.16331387619E+04  0.10100000000E+03 0. -1.
    -200001    1    1    2    0    0 -0.41678503254E+02 -0.16916436906E+03 -0.56517039201E+03  0.85178650694E+03  0.61300000000E+03 0. -1.
<mgrwt>
<rscale>  0 0.16289974E+04</rscale>
<asrwt>0</asrwt>
<pdfrwt beam="1">  1        2 0.53633849E+00 0.16289974E+04</pdfrwt>
<pdfrwt beam="2">  1       -2 0.25243277E-01 0.16289974E+04</pdfrwt>
<totfact> 0.11353559E+01</totfact>
</mgrwt>
</event>
<event>
 8    1  0.7583103E-052  0.1640072E+04  0.7818608E-02  0.8796301E-01
         -2   -1    0    0    0  501 -0.00000000000E+00  0.00000000000E+00  0.17645406563E+04  0.17645406563E+04  0.25500000000E-02 0. -1.
          2   -1    0    0  501    0  0.00000000000E+00 -0.00000000000E+00 -0.38109588162E+03  0.38109588163E+03  0.25500000000E-02 0.  1.
     200001    2    1    2    0    0 -0.53887109737E+03 -0.57081076222E+02  0.62439132882E+03  0.10295848176E+04  0.61362859795E+03 0.  0.
    5000001    2    3    3    0    0 -0.43711884038E+03 -0.25738627229E+03  0.51672871284E+03  0.76075786160E+03  0.23328820703E+03 0.  0.
        -13    1    4    4    0    0 -0.24624412603E+03 -0.10461306954E+03  0.11873810804E+03  0.29270943509E+03  0.10566000000E+00 0. -1.
     200003    1    4    4    0    0 -0.19087471435E+03 -0.15277320275E+03  0.39799060480E+03  0.46804842651E+03  0.30000000000E+02 0. -1.
     200000    1    3    3    0    0 -0.10175225699E+03  0.20030519607E+03  0.10766261598E+03  0.26882695597E+03  0.10100000000E+03 0.  1.
    -200001    1    1    2    0    0  0.53887109737E+03  0.57081076222E+02  0.75905344588E+03  0.11160517204E+04  0.61300000000E+03 0. -1.
<mgrwt>
<rscale>  0 0.16400722E+04</rscale>
<asrwt>0</asrwt>
<pdfrwt beam="1">  1        2 0.54442268E-01 0.16400722E+04</pdfrwt>
<pdfrwt beam="2">  1       -2 0.25207724E+00 0.16400722E+04</pdfrwt>
<totfact> 0.54611585E+00</totfact>
</mgrwt>
</event>
<event>
 8    1  0.7583103E-052  0.2303497E+04  0.7818608E-02  0.8476543E-01
         -2   -1    0    0    0  501 -0.00000000000E+00  0.00000000000E+00  0.14257257902E+04  0.14257257902E+04  0.25500000000E-02 0. -1.
          2   -1    0    0  501    0  0.00000000000E+00 -0.00000000000E+00 -0.93042086628E+03  0.93042086628E+03  0.25500000000E-02 0.  1.
     200001    2    1    2    0    0  0.43069606009E+02 -0.87010819433E+03  0.69504278365E+03  0.12723535612E+04  0.61388586297E+03 0.  0.
    5000001    2    3    3    0    0  0.50099793762E+02 -0.31677073370E+03 -0.49872435452E+02  0.33890219527E+03  0.97538459480E+02 0.  0.
        -13    1    4    4    0    0  0.59585991058E+02 -0.25505003245E+03 -0.60498065131E+02  0.26881412990E+03  0.10566000000E+00 0. -1.
     200003    1    4    4    0    0 -0.94861972958E+01 -0.61720701248E+02  0.10625629678E+02  0.70088065373E+02  0.30000000000E+02 0.  1.
     200000    1    3    3    0    0 -0.70301877532E+01 -0.55333746063E+03  0.74491521911E+03  0.93345136592E+03  0.10100000000E+03 0.  1.
    -200001    1    1    2    0    0 -0.43069606009E+02  0.87010819433E+03 -0.19973785973E+03  0.10837930953E+04  0.61300000000E+03 0. -1.
<mgrwt>
<rscale>  0 0.23034974E+04</rscale>
<asrwt>0</asrwt>
<pdfrwt beam="1">  1        2 0.13291727E+00 0.23034974E+04</pdfrwt>
<pdfrwt beam="2">  1       -2 0.20367511E+00 0.23034974E+04</pdfrwt>
<totfact> 0.35595002E+00</totfact>
</mgrwt>
</event>
<event>
 8    1  0.7583103E-052  0.1669908E+04  0.7818608E-02  0.8778715E-01
          2   -1    0    0  501    0  0.00000000000E+00  0.00000000000E+00  0.42690493536E+04  0.42690493536E+04  0.25500000000E-02 0.  1.
         -2   -1    0    0    0  501 -0.00000000000E+00 -0.00000000000E+00 -0.16330297327E+03  0.16330297329E+03  0.25500000000E-02 0. -1.
     200001    2    1    2    0    0 -0.65958660434E+02 -0.50088609714E+03  0.13741020296E+04  0.15875522836E+04  0.61394497992E+03 0.  0.
    5000001    2    3    3    0    0 -0.14371811820E+03 -0.14323490850E+03  0.66471369532E+02  0.22591362043E+03  0.73806398200E+02 0.  0.
        -13    1    4    4    0    0 -0.73422326030E+02 -0.98462704000E+02  0.61075976509E+02  0.13717152806E+03  0.10566000000E+00 0. -1.
     200003    1    4    4    0    0 -0.70295792174E+02 -0.44772204505E+02  0.53953930222E+01  0.88742092377E+02  0.30000000000E+02 0. -1.
     200000    1    3    3    0    0  0.77759457770E+02 -0.35765118863E+03  0.13076306601E+04  0.13616386632E+04  0.10100000000E+03 0.  1.
    -200001    1    1    2    0    0  0.65958660434E+02  0.50088609714E+03  0.27316443508E+04  0.28448000433E+04  0.61300000000E+03 0.  1.
<mgrwt>
<rscale>  0 0.16699083E+04</rscale>
<asrwt>0</asrwt>
<pdfrwt beam="1">  1        2 0.60986406E+00 0.16699083E+04</pdfrwt>
<pdfrwt beam="2">  1       -2 0.23329001E-01 0.16699083E+04</pdfrwt>
<totfact> 0.57792983E+00</totfact>
</mgrwt>
</event>
<event>
 8    1  0.7583103E-052  0.2121767E+04  0.7818608E-02  0.8551715E-01
          2   -1    0    0  501    0  0.00000000000E+00  0.00000000000E+00  0.10264696205E+04  0.10264696205E+04  0.25500000000E-02 0.  1.
         -2   -1    0    0    0  501 -0.00000000000E+00 -0.00000000000E+00 -0.10964509697E+04  0.10964509697E+04  0.25500000000E-02 0. -1.
     200001    2    1    2    0    0 -0.65445833856E+03 -0.52532376440E+03 -0.24751980766E+03  0.10686105417E+04  0.61349951931E+03 0.  0.
    5000001    2    3    3    0    0 -0.91887844753E+02 -0.52117656398E+01  0.13871310772E+03  0.20467830086E+03  0.11908544023E+03 0.  0.
        -13    1    4    4    0    0 -0.70142532497E+02 -0.29114235094E+02  0.20727273951E+02  0.78722579986E+02  0.10566000000E+00 0. -1.
     200003    1    4    4    0    0 -0.21745312256E+02  0.23902469454E+02  0.11798583377E+03  0.12595572087E+03  0.30000000000E+02 0. -1.
     200000    1    3    3    0    0 -0.56257049381E+03 -0.52011199876E+03 -0.38623291538E+03  0.86393224079E+03  0.10100000000E+03 0. -1.
    -200001    1    1    2    0    0  0.65445833856E+03  0.52532376440E+03  0.17753845844E+03  0.10543100486E+04  0.61300000000E+03 0.  1.
<mgrwt>
<rscale>  0 0.21217668E+04</rscale>
<asrwt>0</asrwt>
<pdfrwt beam="1">  1        2 0.14663852E+00 0.21217668E+04</pdfrwt>
<pdfrwt beam="2">  1       -2 0.15663585E+00 0.21217668E+04</pdfrwt>
<totfact> 0.66685748E+00</totfact>
</mgrwt>
</event>
<event>
 8    1  0.7583103E-052  0.1312582E+04  0.7818608E-02  0.9019646E-01
          2   -1    0    0  501    0  0.00000000000E+00  0.00000000000E+00  0.77561529895E+03  0.77561529895E+03  0.25500000000E-02 0.  1.
         -2   -1    0    0    0  501 -0.00000000000E+00 -0.00000000000E+00 -0.55532450328E+03  0.55532450329E+03  0.25500000000E-02 0. -1.
     200001    2    1    2    0    0  0.20134512422E+03  0.11749586465E+03  0.95654372546E+02  0.66337079815E+03  0.61364967171E+03 0.  0.
    5000001    2    3    3    0    0 -0.60711329063E+02 -0.11295992540E+03  0.22975465929E+03  0.27611462611E+03  0.83703482990E+02 0.  0.
        -13    1    4    4    0    0 -0.44243679057E+02 -0.45264520478E+02  0.48862542693E+02  0.79962110984E+02  0.10566000000E+00 0. -1.
     200003    1    4    4    0    0 -0.16467650006E+02 -0.67695404924E+02  0.18089211659E+03  0.19615251513E+03  0.30000000000E+02 0.  1.
     200000    1    3    3    0    0  0.26205645329E+03  0.23045579005E+03 -0.13410028674E+03  0.38725617204E+03  0.10100000000E+03 0. -1.
    -200001    1    1    2    0    0 -0.20134512422E+03 -0.11749586465E+03  0.12463642312E+03  0.66756900409E+03  0.61300000000E+03 0.  1.
<mgrwt>
<rscale>  0 0.13125825E+04</rscale>
<asrwt>0</asrwt>
<pdfrwt beam="1">  1        2 0.11080218E+00 0.13125825E+04</pdfrwt>
<pdfrwt beam="2">  1       -2 0.79332073E-01 0.13125825E+04</pdfrwt>
<totfact> 0.54654401E+01</totfact>
</mgrwt>
</event>
<event>
 8    1  0.7583103E-052  0.1278350E+04  0.7818608E-02  0.9046912E-01
          2   -1    0    0  501    0  0.00000000000E+00  0.00000000000E+00  0.13665260481E+04  0.13665260481E+04  0.25500000000E-02 0.  1.
         -2   -1    0    0    0  501 -0.00000000000E+00 -0.00000000000E+00 -0.29896599828E+03  0.29896599829E+03  0.25500000000E-02 0. -1.
     200001    2    1    2    0    0  0.13434626105E+02 -0.16343985966E+03  0.62732773204E+03  0.89317956398E+03  0.61427727714E+03 0.  0.
    5000001    2    3    3    0    0 -0.58068566309E+02 -0.12845639605E+03  0.71055553805E+03  0.73999856991E+03  0.15111487927E+03 0.  0.
        -13    1    4    4    0    0  0.39393009487E+02 -0.34587874686E+02  0.34666437524E+03  0.35060566239E+03  0.10566000000E+00 0. -1.
     200003    1    4    4    0    0 -0.97461575796E+02 -0.93868521368E+02  0.36389116281E+03  0.38939290752E+03  0.30000000000E+02 0. -1.
     200000    1    3    3    0    0  0.71503192414E+02 -0.34983463610E+02 -0.83227806003E+02  0.15318099407E+03  0.10100000000E+03 0. -1.
    -200001    1    1    2    0    0 -0.13434626105E+02  0.16343985966E+03  0.44023231781E+03  0.77231248245E+03  0.61300000000E+03 0. -1.
<mgrwt>
<rscale>  0 0.12783502E+04</rscale>
<asrwt>0</asrwt>
<pdfrwt beam="1">  1        2 0.19521801E+00 0.12783502E+04</pdfrwt>
<pdfrwt beam="2">  1       -2 0.42709428E-01 0.12783502E+04</pdfrwt>
<totfact> 0.88015453E+01</totfact>
</mgrwt>
</event>
<event>
 8    1  0.7583103E-052  0.2060586E+04  0.7818608E-02  0.8578807E-01
         -2   -1    0    0    0  501 -0.00000000000E+00  0.00000000000E+00  0.11368529992E+04  0.11368529992E+04  0.25500000000E-02 0. -1.
          2   -1    0    0  501    0  0.00000000000E+00 -0.00000000000E+00 -0.93372153189E+03  0.93372153189E+03  0.25500000000E-02 0.  1.
     200001    2    1    2    0    0 -0.14194976744E+03 -0.23935202659E+03 -0.68458310150E+03  0.95646264947E+03  0.60722948534E+03 0.  0.
    5000001    2    3    3    0    0 -0.20219868342E+03 -0.14681564733E+03 -0.73914134455E+03  0.79718140371E+03  0.16349043189E+03 0.  0.
        -13    1    4    4    0    0 -0.15048058146E+03 -0.13138659660E+02 -0.40972633299E+03  0.43668376302E+03  0.10566000000E+00 0. -1.
     200003    1    4    4    0    0 -0.51718101965E+02 -0.13367698767E+03 -0.32941501157E+03  0.36049764070E+03  0.30000000000E+02 0. -1.
     200000    1    3    3    0    0  0.60248915984E+02 -0.92536379259E+02  0.54558243058E+02  0.15928124576E+03  0.10100000000E+03 0. -1.
    -200001    1    1    2    0    0  0.14194976744E+03  0.23935202659E+03  0.88771456882E+03  0.11141118816E+04  0.61300000000E+03 0. -1.
<mgrwt>
<rscale>  0 0.20605864E+04</rscale>
<asrwt>0</asrwt>
<pdfrwt beam="1">  1        2 0.13338879E+00 0.20605864E+04</pdfrwt>
<pdfrwt beam="2">  1       -2 0.16240757E+00 0.20605864E+04</pdfrwt>
<totfact> 0.69390341E+00</totfact>
</mgrwt>
</event>
<event>
 8    1  0.7583103E-052  0.1396929E+04  0.7818608E-02  0.8956045E-01
          2   -1    0    0  501    0  0.00000000000E+00  0.00000000000E+00  0.25355499227E+04  0.25355499227E+04  0.25500000000E-02 0.  1.
         -2   -1    0    0    0  501 -0.00000000000E+00 -0.00000000000E+00 -0.19240495258E+03  0.19240495259E+03  0.25500000000E-02 0. -1.
     200001    2    1    2    0    0  0.79979874997E+02 -0.32359683367E+03  0.12348730053E+04  0.14183184986E+04  0.61286567294E+03 0.  0.
    5000001    2    3    3    0    0 -0.18643374737E+03 -0.67393261220E+02  0.14080810022E+03  0.25909655899E+03  0.89469055995E+02 0.  0.
        -13    1    4    4    0    0 -0.33633893172E+02  0.17893651639E+02  0.12696267542E+02  0.40157538675E+02  0.10566000000E+00 0. -1.
     200003    1    4    4    0    0 -0.15279985419E+03 -0.85286912859E+02  0.12811183268E+03  0.21893902032E+03  0.30000000000E+02 0. -1.
     200000    1    3    3    0    0  0.26641362236E+03 -0.25620357245E+03  0.10940649051E+04  0.11592219396E+04  0.10100000000E+03 0.  1.
    -200001    1    1    2    0    0 -0.79979874997E+02  0.32359683367E+03  0.11082719648E+04  0.13096363767E+04  0.61300000000E+03 0. -1.
<mgrwt>
<rscale>  0 0.13969286E+04</rscale>
<asrwt>0</asrwt>
<pdfrwt beam="1">  1        2 0.36222141E+00 0.13969286E+04</pdfrwt>
<pdfrwt beam="2">  1       -2 0.27486423E-01 0.13969286E+04</pdfrwt>
<totfact> 0.49742063E+01</totfact>
</mgrwt>
</event>
<event>
 8    1  0.7583103E-052  0.1562132E+04  0.7818608E-02  0.8844155E-01
          2   -1    0    0  501    0  0.00000000000E+00  0.00000000000E+00  0.32055555100E+04  0.32055555100E+04  0.25500000000E-02 0.  1.
         -2   -1    0    0    0  501 -0.00000000000E+00 -0.00000000000E+00 -0.19031465361E+03  0.19031465362E+03  0.25500000000E-02 0. -1.
     200001    2    1    2    0    0 -0.90967899642E+02  0.22889877915E+03  0.24137790932E+04  0.25024525331E+04  0.61259232773E+03 0.  0.
    5000001    2    3    3    0    0 -0.20022128864E+03  0.21885210368E+03  0.52408608269E+03  0.60688456742E+03  0.75218670533E+02 0.  0.
        -13    1    4    4    0    0 -0.12219807144E+03  0.16720792744E+03  0.37354056392E+03  0.42711055211E+03  0.10566000000E+00 0. -1.
     200003    1    4    4    0    0 -0.78023217193E+02  0.51644176239E+02  0.15054551876E+03  0.17977401531E+03  0.30000000000E+02 0. -1.
     200000    1    3    3    0    0  0.10925338899E+03  0.10046675470E+02  0.18896930105E+04  0.18955679657E+04  0.10100000000E+03 0. -1.
    -200001    1    1    2    0    0  0.90967899642E+02 -0.22889877915E+03  0.60146176318E+03  0.89341763047E+03  0.61300000000E+03 0. -1.
<mgrwt>
<rscale>  0 0.15621321E+04</rscale>
<asrwt>0</asrwt>
<pdfrwt beam="1">  1        2 0.45793654E+00 0.15621321E+04</pdfrwt>
<pdfrwt beam="2">  1       -2 0.27187805E-01 0.15621321E+04</pdfrwt>
<totfact> 0.21476892E+01</totfact>
</mgrwt>
</event>
<event>
 8    1  0.7583103E-052  0.1546322E+04  0.7818608E-02  0.8854221E-01
          2   -1    0    0  501    0  0.00000000000E+00  0.00000000000E+00  0.17909197664E+04  0.17909197664E+04  0.25500000000E-02 0.  1.
         -2   -1    0    0    0  501 -0.00000000000E+00 -0.00000000000E+00 -0.33378257934E+03  0.33378257935E+03  0.25500000000E-02 0. -1.
     200001    2    1    2    0    0  0.36592168558E+03 -0.29063822355E+03  0.64680655758E+03  0.10063222735E+04  0.61315294847E+03 0.  0.
    5000001    2    3    3    0    0  0.16332029003E+03 -0.34298626845E+03  0.10939624211E+03  0.42083231588E+03  0.14428860945E+03 0.  0.
        -13    1    4    4    0    0  0.45419021795E+02 -0.21875498964E+03  0.10508371266E+03  0.24689923220E+03  0.10566000000E+00 0. -1.
     200003    1    4    4    0    0  0.11790126823E+03 -0.12423127882E+03  0.43125294542E+01  0.17393308368E+03  0.30000000000E+02 0. -1.
     200000    1    3    3    0    0  0.20260139555E+03  0.52348044904E+02  0.53741031546E+03  0.58548995760E+03  0.10100000000E+03 0.  1.
    -200001    1    1    2    0    0 -0.36592168558E+03  0.29063822355E+03  0.81033062949E+03  0.11183800723E+04  0.61300000000E+03 0.  1.
<mgrwt>
<rscale>  0 0.15463219E+04</rscale>
<asrwt>0</asrwt>
<pdfrwt beam="1">  1        2 0.25584569E+00 0.15463219E+04</pdfrwt>
<pdfrwt beam="2">  1       -2 0.47683225E-01 0.15463219E+04</pdfrwt>
<totfact> 0.41344768E+01</totfact>
</mgrwt>
</event>
<event>
 8    1  0.7583103E-052  0.1438923E+04  0.7818608E-02  0.8926116E-01
          2   -1    0    0  501    0  0.00000000000E+00  0.00000000000E+00  0.95792438201E+03  0.95792438201E+03  0.25500000000E-02 0.  1.
         -2   -1    0    0    0  501 -0.00000000000E+00 -0.00000000000E+00 -0.54036099308E+03  0.54036099308E+03  0.25500000000E-02 0. -1.
     200001    2    1    2    0    0 -0.24075849870E+03 -0.23955794239E+03  0.41039418422E+02  0.70274030231E+03  0.61384610137E+03 0.  0.
    5000001    2    3    3    0    0 -0.33581034351E+02 -0.16804590798E+03  0.28541476659E+03  0.35929193124E+03  0.13513692985E+03 0.  0.
        -13    1    4    4    0    0 -0.12363813504E+02 -0.31226063759E+02  0.17896113545E+03  0.18208522760E+03  0.10566000000E+00 0. -1.
     200003    1    4    4    0    0 -0.21217220847E+02 -0.13681984422E+03  0.10645363114E+03  0.17720670364E+03  0.30000000000E+02 0. -1.
     200000    1    3    3    0    0 -0.20717746435E+03 -0.71512034411E+02 -0.24437534817E+03  0.34344837107E+03  0.10100000000E+03 0. -1.
    -200001    1    1    2    0    0  0.24075849870E+03  0.23955794239E+03  0.37652397051E+03  0.79554507278E+03  0.61300000000E+03 0.  1.
<mgrwt>
<rscale>  0 0.14389232E+04</rscale>
<asrwt>0</asrwt>
<pdfrwt beam="1">  1        2 0.13684634E+00 0.14389232E+04</pdfrwt>
<pdfrwt beam="2">  1       -2 0.77194427E-01 0.14389232E+04</pdfrwt>
<totfact> 0.43453157E+01</totfact>
</mgrwt>
</event>
<event>
 8    1  0.7583103E-052  0.1370258E+04  0.7818608E-02  0.8975634E-01
         -2   -1    0    0    0  501 -0.00000000000E+00  0.00000000000E+00  0.98366930273E+02  0.98366930306E+02  0.25500000000E-02 0. -1.
          2   -1    0    0  501    0  0.00000000000E+00 -0.00000000000E+00 -0.47719436352E+04  0.47719436352E+04  0.25500000000E-02 0.  1.
     200001    2    1    2    0    0 -0.24419880917E+03 -0.90282442352E+02 -0.17690666359E+04  0.18904226953E+04  0.61344700417E+03 0.  0.
    5000001    2    3    3    0    0 -0.17163292322E+02  0.12793546608E+02 -0.15245253818E+04  0.15268691086E+04  0.81813090728E+02 0.  0.
        -13    1    4    4    0    0 -0.32145083329E+02  0.31945393644E+02 -0.91505742077E+03  0.91617897216E+03  0.10566000000E+00 0. -1.
     200003    1    4    4    0    0  0.14981791007E+02 -0.19151847036E+02 -0.60946796100E+03  0.61069013648E+03  0.30000000000E+02 0.  1.
     200000    1    3    3    0    0 -0.22703551685E+03 -0.10307598896E+03 -0.24454125410E+03  0.36355358665E+03  0.10100000000E+03 0. -1.
    -200001    1    1    2    0    0  0.24419880917E+03  0.90282442352E+02 -0.29045100690E+04  0.29798878702E+04  0.61300000000E+03 0. -1.
<mgrwt>
<rscale>  0 0.13702576E+04</rscale>
<asrwt>0</asrwt>
<pdfrwt beam="1">  1        2 0.68170609E+00 0.13702576E+04</pdfrwt>
<pdfrwt beam="2">  1       -2 0.14052422E-01 0.13702576E+04</pdfrwt>
<totfact> 0.57306816E+00</totfact>
</mgrwt>
</event>
<event>
 8    1  0.7583103E-052  0.1234152E+04  0.7818608E-02  0.9083478E-01
         -2   -1    0    0    0  501 -0.00000000000E+00  0.00000000000E+00  0.24484619701E+03  0.24484619703E+03  0.25500000000E-02 0. -1.
          2   -1    0    0  501    0  0.00000000000E+00 -0.00000000000E+00 -0.15551909755E+04  0.15551909756E+04  0.25500000000E-02 0.  1.
     200001    2    1    2    0    0 -0.69581397986E+02  0.10683877965E+02 -0.65191651050E+03  0.89767776506E+03  0.61308606005E+03 0.  0.
    5000001    2    3    3    0    0  0.14635555812E+03  0.14684725770E+03 -0.56532332451E+03  0.60980867180E+03  0.96395479554E+02 0.  0.
        -13    1    4    4    0    0  0.49123449613E+02  0.76752182281E+02 -0.14119061801E+03  0.16804407923E+03  0.10566000000E+00 0. -1.
     200003    1    4    4    0    0  0.97232108507E+02  0.70095075422E+02 -0.42413270650E+03  0.44176459256E+03  0.30000000000E+02 0. -1.
     200000    1    3    3    0    0 -0.21593695611E+03 -0.13616337974E+03 -0.86593185990E+02  0.28786909326E+03  0.10100000000E+03 0. -1.
    -200001    1    1    2    0    0  0.69581397986E+02 -0.10683877965E+02 -0.65842826803E+03  0.90235940752E+03  0.61300000000E+03 0. -1.
<mgrwt>
<rscale>  0 0.12341517E+04</rscale>
<asrwt>0</asrwt>
<pdfrwt beam="1">  1        2 0.22217014E+00 0.12341517E+04</pdfrwt>
<pdfrwt beam="2">  1       -2 0.34978029E-01 0.12341517E+04</pdfrwt>
<totfact> 0.10312106E+02</totfact>
</mgrwt>
</event>
<event>
 8    1  0.7583103E-052  0.2192127E+04  0.7818608E-02  0.8521712E-01
         -2   -1    0    0    0  501 -0.00000000000E+00  0.00000000000E+00  0.29478110193E+03  0.29478110194E+03  0.25500000000E-02 0. -1.
          2   -1    0    0  501    0  0.00000000000E+00 -0.00000000000E+00 -0.40754144303E+04  0.40754144303E+04  0.25500000000E-02 0.  1.
     200001    2    1    2    0    0 -0.83148421918E+03 -0.30248698668E+03 -0.23024538118E+04  0.25416310497E+04  0.61296855806E+03 0.  0.
    5000001    2    3    3    0    0 -0.36687787689E+02 -0.48725039752E+02 -0.90438316943E+03  0.91040481939E+03  0.84899321270E+02 0.  0.
        -13    1    4    4    0    0 -0.19529688461E+02  0.18810571171E+02 -0.17522487671E+03  0.17731050421E+03  0.10566000000E+00 0. -1.
     200003    1    4    4    0    0 -0.17158099228E+02 -0.67535610923E+02 -0.72915829272E+03  0.73309431518E+03  0.30000000000E+02 0. -1.
     200000    1    3    3    0    0 -0.79479643149E+03 -0.25376194693E+03 -0.13980706424E+04  0.16312262303E+04  0.10100000000E+03 0. -1.
    -200001    1    1    2    0    0  0.83148421918E+03  0.30248698668E+03 -0.14781795166E+04  0.18285644826E+04  0.61300000000E+03 0. -1.
<mgrwt>
<rscale>  0 0.21921270E+04</rscale>
<asrwt>0</asrwt>
<pdfrwt beam="1">  1        2 0.58220203E+00 0.21921270E+04</pdfrwt>
<pdfrwt beam="2">  1       -2 0.42111588E-01 0.21921270E+04</pdfrwt>
<totfact> 0.24890719E+00</totfact>
</mgrwt>
</event>
<event>
 8    1  0.7583103E-052  0.1525246E+04  0.7818608E-02  0.8867836E-01
         -2   -1    0    0    0  501 -0.00000000000E+00  0.00000000000E+00  0.28546389527E+03  0.28546389528E+03  0.25500000000E-02 0. -1.
          2   -1    0    0  501    0  0.00000000000E+00 -0.00000000000E+00 -0.20373640745E+04  0.20373640745E+04  0.25500000000E-02 0.  1.
     200001    2    1    2    0    0 -0.10665439908E+03 -0.12917606453E+03 -0.23372923989E+03  0.67702311575E+03  0.61291869378E+03 0.  0.
    5000001    2    3    3    0    0  0.35733364392E+01  0.18123034236E+03 -0.26503057881E+03  0.33107071305E+03  0.80680875113E+02 0.  0.
        -13    1    4    4    0    0 -0.30925687450E+02  0.64285678130E+02 -0.76973361189E+02  0.10494739660E+03  0.10566000000E+00 0. -1.
     200003    1    4    4    0    0  0.34499023889E+02  0.11694466423E+03 -0.18805721762E+03  0.22612331645E+03  0.30000000000E+02 0. -1.
     200000    1    3    3    0    0 -0.11022773552E+03 -0.31040640689E+03  0.31301338919E+02  0.34595240270E+03  0.10100000000E+03 0. -1.
    -200001    1    1    2    0    0  0.10665439908E+03  0.12917606453E+03 -0.15181709393E+04  0.16458048540E+04  0.61300000000E+03 0.  1.
<mgrwt>
<rscale>  0 0.15252461E+04</rscale>
<asrwt>0</asrwt>
<pdfrwt beam="1">  1        2 0.29105200E+00 0.15252461E+04</pdfrwt>
<pdfrwt beam="2">  1       -2 0.40780558E-01 0.15252461E+04</pdfrwt>
<totfact> 0.42208608E+01</totfact>
</mgrwt>
</event>
<event>
 8    1  0.7583103E-052  0.2740040E+04  0.7818608E-02  0.8322129E-01
          2   -1    0    0  501    0  0.00000000000E+00  0.00000000000E+00  0.11059117330E+04  0.11059117330E+04  0.25500000000E-02 0.  1.
         -2   -1    0    0    0  501 -0.00000000000E+00 -0.00000000000E+00 -0.16972011904E+04  0.16972011904E+04  0.25500000000E-02 0. -1.
     200001    2    1    2    0    0  0.33609624355E+03  0.93931557459E+03 -0.10270733611E+04  0.15537326593E+04  0.60326698409E+03 0.  0.
    5000001    2    3    3    0    0 -0.11930972033E+03  0.51136850581E+03 -0.41718311035E+03  0.67469886958E+03  0.73785221825E+02 0.  0.
        -13    1    4    4    0    0 -0.85888119060E+02  0.23591705517E+03 -0.19079090240E+03  0.31533284878E+03  0.10566000000E+00 0. -1.
     200003    1    4    4    0    0 -0.33421601271E+02  0.27545145064E+03 -0.22639220794E+03  0.35936602080E+03  0.30000000000E+02 0. -1.
     200000    1    3    3    0    0  0.45540596388E+03  0.42794706878E+03 -0.60989025072E+03  0.87903378976E+03  0.10100000000E+03 0.  1.
    -200001    1    1    2    0    0 -0.33609624355E+03 -0.93931557459E+03  0.43578390363E+03  0.12493802641E+04  0.61300000000E+03 0.  1.
<mgrwt>
<rscale>  0 0.27400399E+04</rscale>
<asrwt>0</asrwt>
<pdfrwt beam="1">  1        2 0.15798739E+00 0.27400399E+04</pdfrwt>
<pdfrwt beam="2">  1       -2 0.24245731E+00 0.27400399E+04</pdfrwt>
<totfact> 0.15250304E+00</totfact>
</mgrwt>
</event>
<event>
 8    1  0.7583103E-052  0.1512269E+04  0.7818608E-02  0.8876335E-01
         -2   -1    0    0    0  501 -0.00000000000E+00  0.00000000000E+00  0.13462836135E+03  0.13462836138E+03  0.25500000000E-02 0. -1.
          2   -1    0    0  501    0  0.00000000000E+00 -0.00000000000E+00 -0.42467962522E+04  0.42467962522E+04  0.25500000000E-02 0.  1.
     200001    2    1    2    0    0 -0.18086201586E+03  0.39057681237E+03 -0.17572770388E+04  0.19102829260E+04  0.61310435575E+03 0.  0.
    5000001    2    3    3    0    0 -0.97739966954E+02 -0.13421930133E+03 -0.54265280356E+03  0.58068401322E+03  0.12310132416E+03 0.  0.
        -13    1    4    4    0    0 -0.26740273073E+02  0.18224217812E+02 -0.53090706673E+02  0.62175546784E+02  0.10566000000E+00 0. -1.
     200003    1    4    4    0    0 -0.70999693881E+02 -0.15244351914E+03 -0.48956209688E+03  0.51850846644E+03  0.30000000000E+02 0. -1.
     200000    1    3    3    0    0 -0.83122048906E+02  0.52479611370E+03 -0.12146242352E+04  0.13295989127E+04  0.10100000000E+03 0.  1.
    -200001    1    1    2    0    0  0.18086201586E+03 -0.39057681237E+03 -0.23548908520E+04  0.24711416876E+04  0.61300000000E+03 0. -1.
<mgrwt>
<rscale>  0 0.15122688E+04</rscale>
<asrwt>0</asrwt>
<pdfrwt beam="1">  1        2 0.60668510E+00 0.15122688E+04</pdfrwt>
<pdfrwt beam="2">  1       -2 0.19232626E-01 0.15122688E+04</pdfrwt>
<totfact> 0.85948400E+00</totfact>
</mgrwt>
</event>
<event>
 8    1  0.7583103E-052  0.2110558E+04  0.7818608E-02  0.8556607E-01
          2   -1    0    0  501    0  0.00000000000E+00  0.00000000000E+00  0.17766551714E+04  0.17766551714E+04  0.25500000000E-02 0.  1.
         -2   -1    0    0    0  501 -0.00000000000E+00 -0.00000000000E+00 -0.62680364822E+03  0.62680364823E+03  0.25500000000E-02 0. -1.
     200001    2    1    2    0    0  0.77402119333E+03 -0.28622165598E+03  0.30196701769E+03  0.10709015868E+04  0.61205758289E+03 0.  0.
    5000001    2    3    3    0    0  0.20534668651E+01 -0.22233812272E+03  0.13297698541E+03  0.27166826197E+03  0.81745387457E+02 0.  0.
        -13    1    4    4    0    0  0.12294541537E+02 -0.91180464364E+02  0.16622118954E+02  0.93495127337E+02  0.10566000000E+00 0. -1.
     200003    1    4    4    0    0 -0.10241074672E+02 -0.13115765836E+03  0.11635486645E+03  0.17817313463E+03  0.30000000000E+02 0. -1.
     200000    1    3    3    0    0  0.77196772647E+03 -0.63883533257E+02  0.16899003228E+03  0.79923332484E+03  0.10100000000E+03 0. -1.
    -200001    1    1    2    0    0 -0.77402119333E+03  0.28622165598E+03  0.84788450547E+03  0.13325572328E+04  0.61300000000E+03 0.  1.
<mgrwt>
<rscale>  0 0.21105582E+04</rscale>
<asrwt>0</asrwt>
<pdfrwt beam="1">  1        2 0.25380788E+00 0.21105582E+04</pdfrwt>
<pdfrwt beam="2">  1       -2 0.89543379E-01 0.21105582E+04</pdfrwt>
<totfact> 0.10348922E+01</totfact>
</mgrwt>
</event>
<event>
 8    1  0.7583103E-052  0.1315865E+04  0.7818608E-02  0.9017078E-01
         -2   -1    0    0    0  501 -0.00000000000E+00  0.00000000000E+00  0.34303957770E+04  0.34303957770E+04  0.25500000000E-02 0. -1.
          2   -1    0    0  501    0  0.00000000000E+00 -0.00000000000E+00 -0.12618816344E+03  0.12618816346E+03  0.25500000000E-02 0.  1.
     200001    2    1    2    0    0 -0.23528259297E+03 -0.30868358037E+02  0.17231466195E+04  0.18443241409E+04  0.61317738910E+03 0.  0.
    5000001    2    3    3    0    0  0.23492613352E+02 -0.26265690477E+03  0.94903260277E+03  0.98983947245E+03  0.97871076364E+02 0.  0.
        -13    1    4    4    0    0  0.57342116073E+01 -0.17976642885E+03  0.48731211898E+03  0.51944389745E+03  0.10566000000E+00 0. -1.
     200003    1    4    4    0    0  0.17758401745E+02 -0.82890475924E+02  0.46172048379E+03  0.47039557501E+03  0.30000000000E+02 0. -1.
     200000    1    3    3    0    0 -0.25877520632E+03  0.23178854673E+03  0.77411401669E+03  0.85448466847E+03  0.10100000000E+03 0. -1.
    -200001    1    1    2    0    0  0.23528259297E+03  0.30868358037E+02  0.15810609941E+04  0.17122597995E+04  0.61300000000E+03 0. -1.
<mgrwt>
<rscale>  0 0.13158653E+04</rscale>
<asrwt>0</asrwt>
<pdfrwt beam="1">  1        2 0.18026879E-01 0.13158653E+04</pdfrwt>
<pdfrwt beam="2">  1       -2 0.49005658E+00 0.13158653E+04</pdfrwt>
<totfact> 0.60757216E-01</totfact>
</mgrwt>
</event>
<event>
 8    1  0.7583103E-052  0.1492961E+04  0.7818608E-02  0.8889148E-01
         -2   -1    0    0    0  501 -0.00000000000E+00  0.00000000000E+00  0.11356306708E+04  0.11356306708E+04  0.25500000000E-02 0.  1.
          2   -1    0    0  501    0  0.00000000000E+00 -0.00000000000E+00 -0.49068142198E+03  0.49068142199E+03  0.25500000000E-02 0. -1.
     200001    2    1    2    0    0  0.23333111608E+03  0.31156173633E+03  0.51004764571E+03  0.88774485289E+03  0.61353744602E+03 0.  0.
    5000001    2    3    3    0    0  0.29849540232E+03  0.35420930661E+03  0.13230033176E+03  0.48904793461E+03  0.84266045725E+02 0.  0.
        -13    1    4    4    0    0  0.14664067860E+03  0.13145883709E+03  0.30320907476E+02  0.19925933620E+03  0.10566000000E+00 0. -1.
     200003    1    4    4    0    0  0.15185472372E+03  0.22275046952E+03  0.10197942428E+03  0.28978859841E+03  0.30000000000E+02 0. -1.
     200000    1    3    3    0    0 -0.65164286239E+02 -0.42647570284E+02  0.37774731395E+03  0.39869691829E+03  0.10100000000E+03 0. -1.
    -200001    1    1    2    0    0 -0.23333111608E+03 -0.31156173633E+03  0.13490160306E+03  0.73856723985E+03  0.61300000000E+03 0. -1.
<mgrwt>
<rscale>  0 0.14929606E+04</rscale>
<asrwt>0</asrwt>
<pdfrwt beam="1">  1        2 0.70097347E-01 0.14929606E+04</pdfrwt>
<pdfrwt beam="2">  1       -2 0.16223295E+00 0.14929606E+04</pdfrwt>
<totfact> 0.16102328E+01</totfact>
</mgrwt>
</event>
<event>
 8    1  0.7583103E-052  0.1426943E+04  0.7818608E-02  0.8934544E-01
         -2   -1    0    0    0  501 -0.00000000000E+00  0.00000000000E+00  0.18006384467E+03  0.18006384469E+03  0.25500000000E-02 0. -1.
          2   -1    0    0  501    0  0.00000000000E+00 -0.00000000000E+00 -0.28270058604E+04  0.28270058604E+04  0.25500000000E-02 0.  1.
     200001    2    1    2    0    0 -0.32512575526E+03  0.10007372085E+03 -0.16032632786E+04  0.17497885859E+04  0.61285026595E+03 0.  0.
    5000001    2    3    3    0    0 -0.12844533428E+03  0.18969331485E+02 -0.25159380419E+02  0.15420906001E+03  0.79305739576E+02 0.  0.
        -13    1    4    4    0    0 -0.42310857945E+02 -0.21082277788E+02  0.10461581629E+02  0.48416185218E+02  0.10566000000E+00 0. -1.
     200003    1    4    4    0    0 -0.86134476339E+02  0.40051609273E+02 -0.35620962048E+02  0.10579287479E+03  0.30000000000E+02 0. -1.
     200000    1    3    3    0    0 -0.19668042097E+03  0.81104389369E+02 -0.15781038982E+04  0.15955795259E+04  0.10100000000E+03 0.  1.
    -200001    1    1    2    0    0  0.32512575526E+03 -0.10007372085E+03 -0.10436787371E+04  0.12572811192E+04  0.61300000000E+03 0. -1.
<mgrwt>
<rscale>  0 0.14269429E+04</rscale>
<asrwt>0</asrwt>
<pdfrwt beam="1">  1        2 0.40385795E+00 0.14269429E+04</pdfrwt>
<pdfrwt beam="2">  1       -2 0.25723408E-01 0.14269429E+04</pdfrwt>
<totfact> 0.39133436E+01</totfact>
</mgrwt>
</event>
<event>
 8    1  0.7583103E-052  0.1306653E+04  0.7818608E-02  0.9024306E-01
          2   -1    0    0  501    0  0.00000000000E+00  0.00000000000E+00  0.21758412699E+04  0.21758412699E+04  0.25500000000E-02 0.  1.
         -2   -1    0    0    0  501 -0.00000000000E+00 -0.00000000000E+00 -0.19617037757E+03  0.19617037758E+03  0.25500000000E-02 0. -1.
     200001    2    1    2    0    0  0.71121499793E+02  0.20475955957E+03  0.11094157865E+04  0.12856886319E+04  0.61254152991E+03 0.  0.
    5000001    2    3    3    0    0 -0.22502626106E+03  0.80681753024E+02  0.75870480807E+03  0.79958371654E+03  0.80961537311E+02 0.  0.
        -13    1    4    4    0    0 -0.11968062961E+03  0.47650044793E+02  0.50682093086E+03  0.52293541379E+03  0.10566000000E+00 0. -1.
     200003    1    4    4    0    0 -0.10534563146E+03  0.33031708231E+02  0.25188387721E+03  0.27664830275E+03  0.30000000000E+02 0. -1.
     200000    1    3    3    0    0  0.29614776086E+03  0.12407780655E+03  0.35071097844E+03  0.48610491536E+03  0.10100000000E+03 0. -1.
    -200001    1    1    2    0    0 -0.71121499793E+02 -0.20475955957E+03  0.87025510580E+03  0.10863230156E+04  0.61300000000E+03 0. -1.
<mgrwt>
<rscale>  0 0.13066531E+04</rscale>
<asrwt>0</asrwt>
<pdfrwt beam="1">  1        2 0.31083445E+00 0.13066531E+04</pdfrwt>
<pdfrwt beam="2">  1       -2 0.28024341E-01 0.13066531E+04</pdfrwt>
<totfact> 0.74331178E+01</totfact>
</mgrwt>
</event>
<event>
 8    1  0.7583103E-052  0.2205720E+04  0.7818608E-02  0.8516051E-01
          2   -1    0    0  501    0  0.00000000000E+00  0.00000000000E+00  0.66168028945E+03  0.66168028946E+03  0.25500000000E-02 0.  1.
         -2   -1    0    0    0  501 -0.00000000000E+00 -0.00000000000E+00 -0.18381987991E+04  0.18381987991E+04  0.25500000000E-02 0. -1.
     200001    2    1    2    0    0 -0.54581896536E+03 -0.57674655579E+03 -0.11074898293E+04  0.14943499287E+04  0.61318272548E+03 0.  0.
    5000001    2    3    3    0    0 -0.13027202703E+03  0.90285158426E+02 -0.35274865099E+03  0.40007125671E+03  0.10248506628E+03 0.  0.
        -13    1    4    4    0    0 -0.30812956304E+02  0.31698545433E+02 -0.20737263595E+03  0.21203220831E+03  0.10566000000E+00 0. -1.
     200003    1    4    4    0    0 -0.99459070724E+02  0.58586612993E+02 -0.14537601505E+03  0.18803904840E+03  0.30000000000E+02 0. -1.
     200000    1    3    3    0    0 -0.41554693833E+03 -0.66703171422E+03 -0.75474117831E+03  0.10942786720E+04  0.10100000000E+03 0. -1.
    -200001    1    1    2    0    0  0.54581896536E+03  0.57674655579E+03 -0.69028680318E+02  0.10055291598E+04  0.61300000000E+03 0.  1.
<mgrwt>
<rscale>  0 0.22057198E+04</rscale>
<asrwt>0</asrwt>
<pdfrwt beam="1">  1        2 0.94525756E-01 0.22057198E+04</pdfrwt>
<pdfrwt beam="2">  1       -2 0.26259983E+00 0.22057198E+04</pdfrwt>
<totfact> 0.23795156E+00</totfact>
</mgrwt>
</event>
<event>
 8    1  0.7583103E-052  0.1925954E+04  0.7818608E-02  0.8642044E-01
          2   -1    0    0  501    0  0.00000000000E+00  0.00000000000E+00  0.63383882391E+03  0.63383882392E+03  0.25500000000E-02 0.  1.
         -2   -1    0    0    0  501 -0.00000000000E+00 -0.00000000000E+00 -0.14630295347E+04  0.14630295347E+04  0.25500000000E-02 0. -1.
     200001    2    1    2    0    0  0.70179569908E+02  0.98751109432E+02 -0.12122919655E+04  0.13639205262E+04  0.61314797432E+03 0.  0.
    5000001    2    3    3    0    0  0.89855492941E+01  0.18297687307E+03 -0.11930679148E+04  0.12176015201E+04  0.15994103978E+03 0.  0.
        -13    1    4    4    0    0  0.61828669747E+01  0.18315809104E+03 -0.69928552087E+03  0.72290066055E+03  0.10566000000E+00 0. -1.
     200003    1    4    4    0    0  0.28026823194E+01 -0.18121797349E+00 -0.49378239392E+03  0.49470085952E+03  0.30000000000E+02 0. -1.
     200000    1    3    3    0    0  0.61194020614E+02 -0.84225763639E+02 -0.19224050726E+02  0.14631900610E+03  0.10100000000E+03 0. -1.
    -200001    1    1    2    0    0 -0.70179569908E+02 -0.98751109432E+02  0.38310125476E+03  0.73294783242E+03  0.61300000000E+03 0.  1.
<mgrwt>
<rscale>  0 0.19259542E+04</rscale>
<asrwt>0</asrwt>
<pdfrwt beam="1">  1        2 0.90548404E-01 0.19259542E+04</pdfrwt>
<pdfrwt beam="2">  1       -2 0.20900422E+00 0.19259542E+04</pdfrwt>
<totfact> 0.55335076E+00</totfact>
</mgrwt>
</event>
<event>
 8    1  0.7583103E-052  0.1512835E+04  0.7818608E-02  0.8875962E-01
          2   -1    0    0  501    0  0.00000000000E+00  0.00000000000E+00  0.35114301878E+04  0.35114301878E+04  0.25500000000E-02 0.  1.
         -2   -1    0    0    0  501 -0.00000000000E+00 -0.00000000000E+00 -0.16294430565E+03  0.16294430567E+03  0.25500000000E-02 0. -1.
     200001    2    1    2    0    0  0.26688973307E+03 -0.23664371157E+03  0.10354096517E+04  0.12550107292E+04  0.61298320353E+03 0.  0.
    5000001    2    3    3    0    0 -0.26111649426E+02 -0.66330659518E+02  0.84783570759E+03  0.85470917996E+03  0.81368425163E+02 0.  0.
        -13    1    4    4    0    0  0.19055411071E+02 -0.11020863700E+02  0.79889527604E+02  0.82866856539E+02  0.10566000000E+00 0. -1.
     200003    1    4    4    0    0 -0.45167060497E+02 -0.55309795818E+02  0.76794617999E+03  0.77184232342E+03  0.30000000000E+02 0. -1.
     200000    1    3    3    0    0  0.29300138249E+03 -0.17031305205E+03  0.18757394411E+03  0.40030154927E+03  0.10100000000E+03 0. -1.
    -200001    1    1    2    0    0 -0.26688973307E+03  0.23664371157E+03  0.23130762304E+04  0.24193637642E+04  0.61300000000E+03 0. -1.
<mgrwt>
<rscale>  0 0.15128352E+04</rscale>
<asrwt>0</asrwt>
<pdfrwt beam="1">  1        2 0.50163289E+00 0.15128352E+04</pdfrwt>
<pdfrwt beam="2">  1       -2 0.23277758E-01 0.15128352E+04</pdfrwt>
<totfact> 0.18855180E+01</totfact>
</mgrwt>
</event>
<event>
 8    1  0.7583103E-052  0.1356819E+04  0.7818608E-02  0.8985683E-01
         -2   -1    0    0    0  501 -0.00000000000E+00  0.00000000000E+00  0.96594866070E+03  0.96594866071E+03  0.25500000000E-02 0. -1.
          2   -1    0    0  501    0  0.00000000000E+00 -0.00000000000E+00 -0.47646338418E+03  0.47646338418E+03  0.25500000000E-02 0.  1.
     200001    2    1    2    0    0  0.24608845563E+03  0.10875635336E+03  0.13031876070E+03  0.68270350967E+03  0.61377001420E+03 0.  0.
    5000001    2    3    3    0    0  0.17828376123E+03 -0.19383474493E+03  0.21012705791E+03  0.34695179537E+03  0.82856260995E+02 0.  0.
        -13    1    4    4    0    0  0.13749390416E+03 -0.16533763019E+03  0.18493450507E+03  0.28362279169E+03  0.10566000000E+00 0. -1.
     200003    1    4    4    0    0  0.40789857077E+02 -0.28497114746E+02  0.25192552834E+02  0.63329003683E+02  0.30000000000E+02 0. -1.
     200000    1    3    3    0    0  0.67804694402E+02  0.30259109830E+03 -0.79808297206E+02  0.33575171430E+03  0.10100000000E+03 0.  1.
    -200001    1    1    2    0    0 -0.24608845563E+03 -0.10875635336E+03  0.35916651583E+03  0.75970853522E+03  0.61300000000E+03 0. -1.
<mgrwt>
<rscale>  0 0.13568186E+04</rscale>
<asrwt>0</asrwt>
<pdfrwt beam="1">  1        2 0.68066198E-01 0.13568186E+04</pdfrwt>
<pdfrwt beam="2">  1       -2 0.13799267E+00 0.13568186E+04</pdfrwt>
<totfact> 0.25854512E+01</totfact>
</mgrwt>
</event>
<event>
 8    1  0.7583103E-052  0.1502430E+04  0.7818608E-02  0.8882839E-01
         -2   -1    0    0    0  501 -0.00000000000E+00  0.00000000000E+00  0.44178198089E+03  0.44178198089E+03  0.25500000000E-02 0. -1.
          2   -1    0    0  501    0  0.00000000000E+00 -0.00000000000E+00 -0.12773806379E+04  0.12773806379E+04  0.25500000000E-02 0.  1.
     200001    2    1    2    0    0  0.20089215153E+03 -0.18659175176E+00 -0.85814736412E+03  0.10736898188E+04  0.61321712063E+03 0.  0.
    5000001    2    3    3    0    0  0.40529484146E+03  0.28414875099E+02 -0.54524494799E+03  0.68547927593E+03  0.86709115942E+02 0.  0.
        -13    1    4    4    0    0  0.32602834791E+03  0.48696385463E+00 -0.43609853344E+03  0.54449670597E+03  0.10566000000E+00 0. -1.
     200003    1    4    4    0    0  0.79266493550E+02  0.27927911245E+02 -0.10914641455E+03  0.14098256997E+03  0.30000000000E+02 0. -1.
     200000    1    3    3    0    0 -0.20440268993E+03 -0.28601466851E+02 -0.31290241613E+03  0.38821054284E+03  0.10100000000E+03 0.  1.
    -200001    1    1    2    0    0 -0.20089215153E+03  0.18659175176E+00  0.22548707113E+02  0.64547280001E+03  0.61300000000E+03 0. -1.
<mgrwt>
<rscale>  0 0.15024297E+04</rscale>
<asrwt>0</asrwt>
<pdfrwt beam="1">  1        2 0.18248295E+00 0.15024297E+04</pdfrwt>
<pdfrwt beam="2">  1       -2 0.63111712E-01 0.15024297E+04</pdfrwt>
<totfact> 0.43490962E+01</totfact>
</mgrwt>
</event>
<event>
 8    1  0.7583103E-052  0.1541568E+04  0.7818608E-02  0.8857272E-01
         -2   -1    0    0    0  501 -0.00000000000E+00  0.00000000000E+00  0.42833331889E+03  0.42833331890E+03  0.25500000000E-02 0. -1.
          2   -1    0    0  501    0  0.00000000000E+00 -0.00000000000E+00 -0.13870219480E+04  0.13870219480E+04  0.25500000000E-02 0.  1.
     200001    2    1    2    0    0  0.26502333376E+03  0.23683154596E+03 -0.12297797946E+03  0.71967838089E+03  0.61358523442E+03 0.  0.
    5000001    2    3    3    0    0 -0.95925914237E+02  0.22022044347E+03  0.10080059991E+03  0.28282813087E+03  0.11014611171E+03 0.  0.
        -13    1    4    4    0    0 -0.53229659151E+02  0.63627872626E+02 -0.10690975255E+02  0.83643355410E+02  0.10566000000E+00 0. -1.
     200003    1    4    4    0    0 -0.42696255086E+02  0.15659257085E+03  0.11149157517E+03  0.19918477546E+03  0.30000000000E+02 0. -1.
     200000    1    3    3    0    0  0.36094924800E+03  0.16611102482E+02 -0.22377857937E+03  0.43685025002E+03  0.10100000000E+03 0.  1.
    -200001    1    1    2    0    0 -0.26502333376E+03 -0.23683154596E+03 -0.83571064965E+03  0.10956768860E+04  0.61300000000E+03 0.  1.
<mgrwt>
<rscale>  0 0.15415677E+04</rscale>
<asrwt>0</asrwt>
<pdfrwt beam="1">  1        2 0.19814599E+00 0.15415677E+04</pdfrwt>
<pdfrwt beam="2">  1       -2 0.61190475E-01 0.15415677E+04</pdfrwt>
<totfact> 0.40307410E+01</totfact>
</mgrwt>
</event>
<event>
 8    1  0.7583103E-052  0.1729361E+04  0.7818608E-02  0.8744794E-01
         -2   -1    0    0    0  501 -0.00000000000E+00  0.00000000000E+00  0.85486707668E+03  0.85486707669E+03  0.25500000000E-02 0. -1.
          2   -1    0    0  501    0  0.00000000000E+00 -0.00000000000E+00 -0.87460665080E+03  0.87460665080E+03  0.25500000000E-02 0.  1.
     200001    2    1    2    0    0 -0.25260433340E+03 -0.70501786731E+02 -0.56016316366E+03  0.87121612786E+03  0.61355954913E+03 0.  0.
    5000001    2    3    3    0    0 -0.33208250788E+03  0.10641780099E+03 -0.52384931585E+03  0.64954741947E+03  0.16090433185E+03 0.  0.
        -13    1    4    4    0    0 -0.53269165858E+02  0.19090768484E+02 -0.96858891498E+01  0.57409834394E+02  0.10566000000E+00 0. -1.
     200003    1    4    4    0    0 -0.27881334202E+03  0.87327032504E+02 -0.51416342670E+03  0.59213758507E+03  0.30000000000E+02 0. -1.
     200000    1    3    3    0    0  0.79478174475E+02 -0.17691958772E+03 -0.36313847808E+02  0.22166870839E+03  0.10100000000E+03 0. -1.
    -200001    1    1    2    0    0  0.25260433340E+03  0.70501786731E+02  0.54042358955E+03  0.85825759963E+03  0.61300000000E+03 0. -1.
<mgrwt>
<rscale>  0 0.17293611E+04</rscale>
<asrwt>0</asrwt>
<pdfrwt beam="1">  1        2 0.12494381E+00 0.17293611E+04</pdfrwt>
<pdfrwt beam="2">  1       -2 0.12212387E+00 0.17293611E+04</pdfrwt>
<totfact> 0.16355212E+01</totfact>
</mgrwt>
</event>
<event>
 8    1  0.7583103E-052  0.1470919E+04  0.7818608E-02  0.8904025E-01
          2   -1    0    0  501    0  0.00000000000E+00  0.00000000000E+00  0.43758073301E+03  0.43758073302E+03  0.25500000000E-02 0.  1.
         -2   -1    0    0    0  501 -0.00000000000E+00 -0.00000000000E+00 -0.12361164212E+04  0.12361164212E+04  0.25500000000E-02 0. -1.
     200001    2    1    2    0    0 -0.78692994520E+01 -0.25192815930E+03 -0.36092771801E+02  0.66344078871E+03  0.61263469427E+03 0.  0.
    5000001    2    3    3    0    0  0.13280324444E+03 -0.69869487160E+02  0.23441482563E+03  0.29423964438E+03  0.95436947119E+02 0.  0.
        -13    1    4    4    0    0 -0.35019018627E+00 -0.37471230056E+02  0.45829251910E+02  0.59199216293E+02  0.10566000000E+00 0. -1.
     200003    1    4    4    0    0  0.13315343463E+03 -0.32398257104E+02  0.18858557372E+03  0.23504042808E+03  0.30000000000E+02 0. -1.
     200000    1    3    3    0    0 -0.14067254389E+03 -0.18205867214E+03 -0.27050759743E+03  0.36920114433E+03  0.10100000000E+03 0. -1.
    -200001    1    1    2    0    0  0.78692994520E+01  0.25192815930E+03 -0.76244291643E+03  0.10102563656E+04  0.61300000000E+03 0. -1.
<mgrwt>
<rscale>  0 0.14709191E+04</rscale>
<asrwt>0</asrwt>
<pdfrwt beam="1">  1        2 0.62511534E-01 0.14709191E+04</pdfrwt>
<pdfrwt beam="2">  1       -2 0.17658806E+00 0.14709191E+04</pdfrwt>
<totfact> 0.14505625E+01</totfact>
</mgrwt>
</event>
<event>
 8    1  0.7583103E-052  0.1334438E+04  0.7818608E-02  0.9002693E-01
          2   -1    0    0  501    0  0.00000000000E+00  0.00000000000E+00  0.14677876808E+04  0.14677876808E+04  0.25500000000E-02 0.  1.
         -2   -1    0    0    0  501 -0.00000000000E+00 -0.00000000000E+00 -0.30330079756E+03  0.30330079757E+03  0.25500000000E-02 0. -1.
     200001    2    1    2    0    0 -0.54362375632E+02  0.25743872371E+03  0.60672926548E+03  0.90155266858E+03  0.61273717716E+03 0.  0.
    5000001    2    3    3    0    0 -0.28050666223E+03  0.28314282844E+03  0.44936718695E+03  0.60699238083E+03  0.87493044442E+02 0.  0.
        -13    1    4    4    0    0 -0.10366760681E+03  0.13103535457E+03  0.23796295332E+03  0.29076384776E+03  0.10566000000E+00 0. -1.
     200003    1    4    4    0    0 -0.17683905542E+03  0.15210747386E+03  0.21140423363E+03  0.31622853306E+03  0.30000000000E+02 0. -1.
     200000    1    3    3    0    0  0.22614428660E+03 -0.25704104727E+02  0.15736207853E+03  0.29456028775E+03  0.10100000000E+03 0.  1.
    -200001    1    1    2    0    0  0.54362375632E+02 -0.25743872371E+03  0.55775761774E+03  0.86953580979E+03  0.61300000000E+03 0.  1.
<mgrwt>
<rscale>  0 0.13344380E+04</rscale>
<asrwt>0</asrwt>
<pdfrwt beam="1">  1        2 0.20968395E+00 0.13344380E+04</pdfrwt>
<pdfrwt beam="2">  1       -2 0.43328686E-01 0.13344380E+04</pdfrwt>
<totfact> 0.75133047E+01</totfact>
</mgrwt>
</event>
<event>
 8    1  0.7583103E-052  0.1816930E+04  0.7818608E-02  0.8697348E-01
         -2   -1    0    0    0  501 -0.00000000000E+00  0.00000000000E+00  0.36182071791E+03  0.36182071792E+03  0.25500000000E-02 0. -1.
          2   -1    0    0  501    0  0.00000000000E+00 -0.00000000000E+00 -0.22809866423E+04  0.22809866423E+04  0.25500000000E-02 0.  1.
     200001    2    1    2    0    0  0.44165492442E+03 -0.20603225661E+03 -0.16294162291E+04  0.18078030196E+04  0.61289978530E+03 0.  0.
    5000001    2    3    3    0    0 -0.10574679977E+03 -0.14033257171E+03 -0.65981571066E+03  0.68785156453E+03  0.83110687992E+02 0.  0.
        -13    1    4    4    0    0 -0.77322914316E+02 -0.66185065495E+02 -0.26189699378E+03  0.28097925633E+03  0.10566000000E+00 0. -1.
     200003    1    4    4    0    0 -0.28423885450E+02 -0.74147506219E+02 -0.39791871687E+03  0.40687230820E+03  0.30000000000E+02 0.  1.
     200000    1    3    3    0    0  0.54740172418E+03 -0.65699684896E+02 -0.96960051849E+03  0.11199514551E+04  0.10100000000E+03 0. -1.
    -200001    1    1    2    0    0 -0.44165492442E+03  0.20603225661E+03 -0.28974969529E+03  0.83500434067E+03  0.61300000000E+03 0. -1.
<mgrwt>
<rscale>  0 0.18169295E+04</rscale>
<asrwt>0</asrwt>
<pdfrwt beam="1">  1        2 0.32585523E+00 0.18169295E+04</pdfrwt>
<pdfrwt beam="2">  1       -2 0.51688675E-01 0.18169295E+04</pdfrwt>
<totfact> 0.19191145E+01</totfact>
</mgrwt>
</event>
<event>
 8    1  0.7583103E-052  0.1314995E+04  0.7818608E-02  0.9017758E-01
         -2   -1    0    0    0  501 -0.00000000000E+00  0.00000000000E+00  0.76874715718E+03  0.76874715719E+03  0.25500000000E-02 0. -1.
          2   -1    0    0  501    0  0.00000000000E+00 -0.00000000000E+00 -0.56234711212E+03  0.56234711213E+03  0.25500000000E-02 0.  1.
     200001    2    1    2    0    0 -0.19782577394E+03  0.70582783192E+02 -0.11909341183E+02  0.64732167975E+03  0.61218180188E+03 0.  0.
    5000001    2    3    3    0    0  0.10825958401E+03  0.10542146112E+03 -0.20605646576E+03  0.26943798624E+03  0.85461917557E+02 0.  0.
        -13    1    4    4    0    0  0.46240337384E+02  0.88576369842E+02 -0.14354779674E+03  0.17489975188E+03  0.10566000000E+00 0. -1.
     200003    1    4    4    0    0  0.62019246631E+02  0.16845091273E+02 -0.62508669023E+02  0.94538234359E+02  0.30000000000E+02 0.  1.
     200000    1    3    3    0    0 -0.30608535796E+03 -0.34838677924E+02  0.19414712458E+03  0.37788369351E+03  0.10100000000E+03 0. -1.
    -200001    1    1    2    0    0  0.19782577394E+03 -0.70582783192E+02  0.21830938624E+03  0.68377258957E+03  0.61300000000E+03 0.  1.
<mgrwt>
<rscale>  0 0.13149947E+04</rscale>
<asrwt>0</asrwt>
<pdfrwt beam="1">  1        2 0.80335302E-01 0.13149947E+04</pdfrwt>
<pdfrwt beam="2">  1       -2 0.10982102E+00 0.13149947E+04</pdfrwt>
<totfact> 0.37888936E+01</totfact>
</mgrwt>
</event>
<event>
 8    1  0.7583103E-052  0.1583648E+04  0.7818608E-02  0.8830657E-01
         -2   -1    0    0    0  501 -0.00000000000E+00  0.00000000000E+00  0.50321764196E+03  0.50321764197E+03  0.25500000000E-02 0. -1.
          2   -1    0    0  501    0  0.00000000000E+00 -0.00000000000E+00 -0.12459524806E+04  0.12459524806E+04  0.25500000000E-02 0.  1.
     200001    2    1    2    0    0  0.18671398757E+03 -0.35507735222E+03 -0.41578589951E+02  0.73510349543E+03  0.61457817292E+03 0.  0.
    5000001    2    3    3    0    0 -0.38110569666E+02  0.13350535490E+03 -0.51787675264E+02  0.18777875758E+03  0.11533777865E+03 0.  0.
        -13    1    4    4    0    0 -0.52248364512E+02  0.21922162725E+02 -0.42829604139E+02  0.71027170628E+02  0.10566000000E+00 0. -1.
     200003    1    4    4    0    0  0.14137794846E+02  0.11158319217E+03 -0.89580711252E+01  0.11675158695E+03  0.30000000000E+02 0. -1.
     200000    1    3    3    0    0  0.22482455723E+03 -0.48858270712E+03  0.10209085313E+02  0.54732473784E+03  0.10100000000E+03 0. -1.
    -200001    1    1    2    0    0 -0.18671398757E+03  0.35507735222E+03 -0.70115624869E+03  0.10140666271E+04  0.61300000000E+03 0.  1.
<mgrwt>
<rscale>  0 0.15836480E+04</rscale>
<asrwt>0</asrwt>
<pdfrwt beam="1">  1        2 0.17799321E+00 0.15836480E+04</pdfrwt>
<pdfrwt beam="2">  1       -2 0.71888235E-01 0.15836480E+04</pdfrwt>
<totfact> 0.33958295E+01</totfact>
</mgrwt>
</event>
<event>
 8    1  0.7583103E-052  0.1737414E+04  0.7818608E-02  0.8740309E-01
         -2   -1    0    0    0  501 -0.00000000000E+00  0.00000000000E+00  0.74566892248E+03  0.74566892248E+03  0.25500000000E-02 0. -1.
          2   -1    0    0  501    0  0.00000000000E+00 -0.00000000000E+00 -0.10120463952E+04  0.10120463952E+04  0.25500000000E-02 0.  1.
     200001    2    1    2    0    0  0.50318945395E+03 -0.24600563813E+03 -0.39121296381E+03  0.91803007885E+03  0.61319918628E+03 0.  0.
    5000001    2    3    3    0    0  0.18821950106E+03 -0.16683512041E+03 -0.49284682808E+03  0.56305897514E+03  0.10429226026E+03 0.  0.
        -13    1    4    4    0    0 -0.20918113589E+00  0.31402208652E+01 -0.62388851583E+02  0.62468269623E+02  0.10566000000E+00 0. -1.
     200003    1    4    4    0    0  0.18842868220E+03 -0.16997534127E+03 -0.43045797650E+03  0.50059070551E+03  0.30000000000E+02 0. -1.
     200000    1    3    3    0    0  0.31496995289E+03 -0.79170517729E+02  0.10163386428E+03  0.35497110371E+03  0.10100000000E+03 0. -1.
    -200001    1    1    2    0    0 -0.50318945395E+03  0.24600563813E+03  0.12483549105E+03  0.83968523888E+03  0.61300000000E+03 0. -1.
<mgrwt>
<rscale>  0 0.17374136E+04</rscale>
<asrwt>0</asrwt>
<pdfrwt beam="1">  1        2 0.14457806E+00 0.17374136E+04</pdfrwt>
<pdfrwt beam="2">  1       -2 0.10652413E+00 0.17374136E+04</pdfrwt>
<totfact> 0.18654779E+01</totfact>
</mgrwt>
</event>
<event>
 8    1  0.7583103E-052  0.1356417E+04  0.7818608E-02  0.8985985E-01
         -2   -1    0    0    0  501 -0.00000000000E+00  0.00000000000E+00  0.51134417140E+03  0.51134417141E+03  0.25500000000E-02 0. -1.
          2   -1    0    0  501    0  0.00000000000E+00 -0.00000000000E+00 -0.89952483545E+03  0.89952483545E+03  0.25500000000E-02 0.  1.
     200001    2    1    2    0    0  0.76651372631E+02  0.76940064967E+02  0.84862546407E+02  0.62899044501E+03  0.61370361055E+03 0.  0.
    5000001    2    3    3    0    0 -0.12317208643E+03  0.12912653256E+03 -0.78204613843E+02  0.34713101029E+03  0.28729593173E+03 0.  0.
        -13    1    4    4    0    0  0.46730792829E+02  0.11528223685E+03  0.47563833144E+02  0.13317691436E+03  0.10566000000E+00 0. -1.
     200003    1    4    4    0    0 -0.16990287926E+03  0.13844295704E+02 -0.12576844699E+03  0.21395409592E+03  0.30000000000E+02 0. -1.
     200000    1    3    3    0    0  0.19982345906E+03 -0.52186467590E+02  0.16306716025E+03  0.28185943472E+03  0.10100000000E+03 0.  1.
    -200001    1    1    2    0    0 -0.76651372631E+02 -0.76940064967E+02 -0.47304321045E+03  0.78187856185E+03  0.61300000000E+03 0.  1.
<mgrwt>
<rscale>  0 0.13564170E+04</rscale>
<asrwt>0</asrwt>
<pdfrwt beam="1">  1        2 0.12850355E+00 0.13564170E+04</pdfrwt>
<pdfrwt beam="2">  1       -2 0.73049167E-01 0.13564170E+04</pdfrwt>
<totfact> 0.53863473E+01</totfact>
</mgrwt>
</event>
<event>
 8    1  0.7583103E-052  0.1311144E+04  0.7818608E-02  0.9020774E-01
          2   -1    0    0  501    0  0.00000000000E+00  0.00000000000E+00  0.39917666142E+04  0.39917666142E+04  0.25500000000E-02 0. -1.
         -2   -1    0    0    0  501 -0.00000000000E+00 -0.00000000000E+00 -0.10766527940E+03  0.10766527943E+03  0.25500000000E-02 0.  1.
     200001    2    1    2    0    0 -0.23436356419E+02 -0.76487392454E+02  0.12511097592E+04  0.13948407561E+04  0.61147814459E+03 0.  0.
    5000001    2    3    3    0    0  0.31352407091E+02 -0.24156910888E+03  0.11324115043E+04  0.11612940639E+04  0.83123282592E+02 0.  0.
        -13    1    4    4    0    0  0.49756085396E+02 -0.17653667446E+03  0.79935215585E+03  0.82012483543E+03  0.10566000000E+00 0. -1.
     200003    1    4    4    0    0 -0.18403678305E+02 -0.65032434422E+02  0.33305934844E+03  0.34116922852E+03  0.30000000000E+02 0.  1.
     200000    1    3    3    0    0 -0.54788763510E+02  0.16508171643E+03  0.11869825495E+03  0.23354669219E+03  0.10100000000E+03 0.  1.
    -200001    1    1    2    0    0  0.23436356419E+02  0.76487392454E+02  0.26329915755E+04  0.27045911375E+04  0.61300000000E+03 0. -1.
<mgrwt>
<rscale>  0 0.13111440E+04</rscale>
<asrwt>0</asrwt>
<pdfrwt beam="1">  1        2 0.57025234E+00 0.13111440E+04</pdfrwt>
<pdfrwt beam="2">  1       -2 0.15380755E-01 0.13111440E+04</pdfrwt>
<totfact> 0.19539933E+01</totfact>
</mgrwt>
</event>
<event>
 8    1  0.7583103E-052  0.1759917E+04  0.7818608E-02  0.8727910E-01
         -2   -1    0    0    0  501 -0.00000000000E+00  0.00000000000E+00  0.17479000805E+04  0.17479000805E+04  0.25500000000E-02 0. -1.
          2   -1    0    0  501    0  0.00000000000E+00 -0.00000000000E+00 -0.44300424137E+03  0.44300424138E+03  0.25500000000E-02 0.  1.
     200001    2    1    2    0    0  0.30897172427E+03  0.34563191814E+03  0.11851921079E+04  0.14130721211E+04  0.61413967274E+03 0.  0.
    5000001    2    3    3    0    0  0.44740360280E+03  0.14033874583E+03  0.58821214788E+03  0.75893548077E+03  0.10062100018E+03 0.  0.
        -13    1    4    4    0    0  0.20123361933E+03  0.10310242476E+03  0.31916674160E+03  0.39114255669E+03  0.10566000000E+00 0. -1.
     200003    1    4    4    0    0  0.24616998347E+03  0.37236321068E+02  0.26904540628E+03  0.36779292409E+03  0.30000000000E+02 0. -1.
     200000    1    3    3    0    0 -0.13843187853E+03  0.20529317231E+03  0.59697996002E+03  0.65413664036E+03  0.10100000000E+03 0. -1.
    -200001    1    1    2    0    0 -0.30897172427E+03 -0.34563191814E+03  0.11970373121E+03  0.77783220073E+03  0.61300000000E+03 0.  1.
<mgrwt>
<rscale>  0 0.17599172E+04</rscale>
<asrwt>0</asrwt>
<pdfrwt beam="1">  1        2 0.63286319E-01 0.17599172E+04</pdfrwt>
<pdfrwt beam="2">  1       -2 0.24970001E+00 0.17599172E+04</pdfrwt>
<totfact> 0.47237390E+00</totfact>
</mgrwt>
</event>
<event>
 8    1  0.7583103E-052  0.1362021E+04  0.7818608E-02  0.8981778E-01
         -2   -1    0    0    0  501 -0.00000000000E+00  0.00000000000E+00  0.53314878678E+03  0.53314878678E+03  0.25500000000E-02 0. -1.
          2   -1    0    0  501    0  0.00000000000E+00 -0.00000000000E+00 -0.86987931524E+03  0.86987931524E+03  0.25500000000E-02 0.  1.
     200001    2    1    2    0    0 -0.68985270414E+02 -0.26885458907E+03 -0.27362830337E+03  0.72716373071E+03  0.61388344599E+03 0.  0.
    5000001    2    3    3    0    0 -0.71393342384E+02 -0.40228364187E+03 -0.19657899299E+03  0.54291740871E+03  0.29864171568E+03 0.  0.
        -13    1    4    4    0    0  0.43186214778E+01  0.18713782142E+02 -0.10202141726E+03  0.10381347156E+03  0.10566000000E+00 0. -1.
     200003    1    4    4    0    0 -0.75711963861E+02 -0.42099742401E+03 -0.94557575732E+02  0.43910393715E+03  0.30000000000E+02 0. -1.
     200000    1    3    3    0    0  0.24080719691E+01  0.13342905280E+03 -0.77049310378E+02  0.18424632200E+03  0.10100000000E+03 0. -1.
    -200001    1    1    2    0    0  0.68985270414E+02  0.26885458907E+03 -0.63102225092E+02  0.67586437131E+03  0.61300000000E+03 0. -1.
<mgrwt>
<rscale>  0 0.13620207E+04</rscale>
<asrwt>0</asrwt>
<pdfrwt beam="1">  1        2 0.12426847E+00 0.13620207E+04</pdfrwt>
<pdfrwt beam="2">  1       -2 0.76164112E-01 0.13620207E+04</pdfrwt>
<totfact> 0.51353645E+01</totfact>
</mgrwt>
</event>
<event>
 8    1  0.7583103E-052  0.1315240E+04  0.7818608E-02  0.9017566E-01
          2   -1    0    0  501    0  0.00000000000E+00  0.00000000000E+00  0.15527529125E+04  0.15527529125E+04  0.25500000000E-02 0.  1.
         -2   -1    0    0    0  501 -0.00000000000E+00 -0.00000000000E+00 -0.27851433636E+03  0.27851433637E+03  0.25500000000E-02 0. -1.
     200001    2    1    2    0    0  0.63256201621E+02  0.13765760419E+03  0.38156787604E+03  0.73784100910E+03  0.61307776639E+03 0.  0.
    5000001    2    3    3    0    0 -0.61091044802E+02  0.33247412658E+03  0.97330607134E+02  0.35783108801E+03  0.65564318538E+02 0.  0.
        -13    1    4    4    0    0 -0.48482319764E+02  0.18842234218E+03  0.35712954103E+02  0.19781036529E+03  0.10566000000E+00 0. -1.
     200003    1    4    4    0    0 -0.12608725038E+02  0.14405178440E+03  0.61617653030E+02  0.16002072272E+03  0.30000000000E+02 0.  1.
     200000    1    3    3    0    0  0.12434724642E+03 -0.19481652238E+03  0.28423726890E+03  0.38000992108E+03  0.10100000000E+03 0.  1.
    -200001    1    1    2    0    0 -0.63256201621E+02 -0.13765760419E+03  0.89267070013E+03  0.10934262398E+04  0.61300000000E+03 0.  1.
<mgrwt>
<rscale>  0 0.13152398E+04</rscale>
<asrwt>0</asrwt>
<pdfrwt beam="1">  1        2 0.22182185E+00 0.13152398E+04</pdfrwt>
<pdfrwt beam="2">  1       -2 0.39787762E-01 0.13152398E+04</pdfrwt>
<totfact> 0.80197297E+01</totfact>
</mgrwt>
</event>
<event>
 8    1  0.7583103E-052  0.1563371E+04  0.7818608E-02  0.8843372E-01
          2   -1    0    0  501    0  0.00000000000E+00  0.00000000000E+00  0.10622274511E+04  0.10622274511E+04  0.25500000000E-02 0.  1.
         -2   -1    0    0    0  501 -0.00000000000E+00 -0.00000000000E+00 -0.57523664676E+03  0.57523664677E+03  0.25500000000E-02 0. -1.
     200001    2    1    2    0    0  0.22271686842E+03 -0.42430921565E+03  0.15673250555E+03  0.79219452080E+03  0.61103679638E+03 0.  0.
    5000001    2    3    3    0    0 -0.89095251945E+01  0.46873242623E+02  0.18269727868E+03  0.25690126972E+03  0.17419381801E+03 0.  0.
        -13    1    4    4    0    0  0.65971613305E+01 -0.43722331088E+02 -0.62467627293E+01  0.44656443902E+02  0.10566000000E+00 0. -1.
     200003    1    4    4    0    0 -0.15506686525E+02  0.90595573711E+02  0.18894404141E+03  0.21224482582E+03  0.30000000000E+02 0. -1.
     200000    1    3    3    0    0  0.23162639361E+03 -0.47118245828E+03 -0.25964773135E+02  0.53529325108E+03  0.10100000000E+03 0.  1.
    -200001    1    1    2    0    0 -0.22271686842E+03  0.42430921565E+03  0.33025829875E+03  0.84526957703E+03  0.61300000000E+03 0. -1.
<mgrwt>
<rscale>  0 0.15633709E+04</rscale>
<asrwt>0</asrwt>
<pdfrwt beam="1">  1        2 0.15174678E+00 0.15633709E+04</pdfrwt>
<pdfrwt beam="2">  1       -2 0.82176664E-01 0.15633709E+04</pdfrwt>
<totfact> 0.32268274E+01</totfact>
</mgrwt>
</event>
<event>
 8    1  0.7583103E-052  0.3172456E+04  0.7818608E-02  0.8196130E-01
         -2   -1    0    0    0  501 -0.00000000000E+00  0.00000000000E+00  0.13017914589E+04  0.13017914589E+04  0.25500000000E-02 0. -1.
          2   -1    0    0  501    0  0.00000000000E+00 -0.00000000000E+00 -0.19328124587E+04  0.19328124587E+04  0.25500000000E-02 0.  1.
     200001    2    1    2    0    0 -0.90676394514E+03 -0.10236087218E+04  0.21430083969E+03  0.15140418932E+04  0.61351637042E+03 0.  0.
    5000001    2    3    3    0    0 -0.48915250196E+03 -0.41666691555E+03  0.35824867142E+03  0.75661225819E+03  0.17674419363E+03 0.  0.
        -13    1    4    4    0    0 -0.24118473329E+03 -0.30806143169E+03  0.24510959973E+03  0.46168241066E+03  0.10566000000E+00 0. -1.
     200003    1    4    4    0    0 -0.24796776866E+03 -0.10860548386E+03  0.11313907169E+03  0.29492984753E+03  0.30000000000E+02 0. -1.
     200000    1    3    3    0    0 -0.41761144318E+03 -0.60694180629E+03 -0.14394783173E+03  0.75742963499E+03  0.10100000000E+03 0.  1.
    -200001    1    1    2    0    0  0.90676394514E+03  0.10236087218E+04 -0.84532183947E+03  0.17205620244E+04  0.61300000000E+03 0.  1.
<mgrwt>
<rscale>  0 0.31724557E+04</rscale>
<asrwt>0</asrwt>
<pdfrwt beam="1">  1        2 0.27611606E+00 0.31724557E+04</pdfrwt>
<pdfrwt beam="2">  1       -2 0.18597021E+00 0.31724557E+04</pdfrwt>
<totfact> 0.12207839E+00</totfact>
</mgrwt>
</event>
<event>
 8    1  0.7583103E-052  0.1575533E+04  0.7818608E-02  0.8835722E-01
         -2   -1    0    0    0  501 -0.00000000000E+00  0.00000000000E+00  0.66834489143E+03  0.66834489143E+03  0.25500000000E-02 0. -1.
          2   -1    0    0  501    0  0.00000000000E+00 -0.00000000000E+00 -0.92852614667E+03  0.92852614667E+03  0.25500000000E-02 0.  1.
     200001    2    1    2    0    0 -0.19893371276E+03 -0.40067681127E+03 -0.34803226648E+03  0.83293168886E+03  0.61035416820E+03 0.  0.
    5000001    2    3    3    0    0 -0.20902089346E+03 -0.42580939984E+03 -0.15842210077E+02  0.48467225712E+03  0.98248879423E+02 0.  0.
        -13    1    4    4    0    0 -0.17290832390E+03 -0.30026644826E+03 -0.38899038011E+02  0.34866943477E+03  0.10566000000E+00 0. -1.
     200003    1    4    4    0    0 -0.36112569562E+02 -0.12554295158E+03  0.23056827935E+02  0.13600282235E+03  0.30000000000E+02 0. -1.
     200000    1    3    3    0    0  0.10087180705E+02  0.25132588571E+02 -0.33219005640E+03  0.34825943174E+03  0.10100000000E+03 0.  1.
    -200001    1    1    2    0    0  0.19893371276E+03  0.40067681127E+03  0.87851011236E+02  0.76393934925E+03  0.61300000000E+03 0.  1.
<mgrwt>
<rscale>  0 0.15755326E+04</rscale>
<asrwt>0</asrwt>
<pdfrwt beam="1">  1        2 0.13264659E+00 0.15755326E+04</pdfrwt>
<pdfrwt beam="2">  1       -2 0.95477842E-01 0.15755326E+04</pdfrwt>
<totfact> 0.27642257E+01</totfact>
</mgrwt>
</event>
<event>
 8    1  0.7583103E-052  0.1385662E+04  0.7818608E-02  0.8964263E-01
         -2   -1    0    0    0  501 -0.00000000000E+00  0.00000000000E+00  0.13461041850E+04  0.13461041850E+04  0.25500000000E-02 0.  1.
          2   -1    0    0  501    0  0.00000000000E+00 -0.00000000000E+00 -0.35659544676E+03  0.35659544677E+03  0.25500000000E-02 0. -1.
     200001    2    1    2    0    0  0.76176302870E+01 -0.14207575520E+03  0.13855771510E+03  0.64433759906E+03  0.61296749721E+03 0.  0.
    5000001    2    3    3    0    0  0.49960759055E+02 -0.17496166943E+03 -0.12955879480E+03  0.35285537526E+03  0.27315521471E+03 0.  0.
        -13    1    4    4    0    0  0.38871808957E+02  0.55035175479E+02 -0.97392488168E+02  0.11842802028E+03  0.10566000000E+00 0. -1.
     200003    1    4    4    0    0  0.11088950098E+02 -0.22999684491E+03 -0.32166306637E+02  0.23442735498E+03  0.30000000000E+02 0. -1.
     200000    1    3    3    0    0 -0.42343128768E+02  0.32885914229E+02  0.26811650990E+03  0.29148222380E+03  0.10100000000E+03 0.  1.
    -200001    1    1    2    0    0 -0.76176302870E+01  0.14207575520E+03  0.85095102312E+03  0.10583620327E+04  0.61300000000E+03 0.  1.
<mgrwt>
<rscale>  0 0.13856618E+04</rscale>
<asrwt>0</asrwt>
<pdfrwt beam="1">  1        2 0.50942206E-01 0.13856618E+04</pdfrwt>
<pdfrwt beam="2">  1       -2 0.19230060E+00 0.13856618E+04</pdfrwt>
<totfact> 0.14344258E+01</totfact>
</mgrwt>
</event>
<event>
 8    1  0.7583103E-052  0.1260202E+04  0.7818608E-02  0.9061734E-01
          2   -1    0    0  501    0  0.00000000000E+00  0.00000000000E+00  0.16527149967E+04  0.16527149967E+04  0.25500000000E-02 0.  1.
         -2   -1    0    0    0  501 -0.00000000000E+00 -0.00000000000E+00 -0.24022747519E+03  0.24022747520E+03  0.25500000000E-02 0. -1.
     200001    2    1    2    0    0  0.14211744117E+03 -0.10091317197E+02  0.68627302490E+03  0.93197644917E+03  0.61425583866E+03 0.  0.
    5000001    2    3    3    0    0 -0.34923549724E+02  0.62057471471E+02  0.76944591876E+01  0.21978347672E+03  0.20778543704E+03 0.  0.
        -13    1    4    4    0    0  0.24830377717E+02 -0.65883529403E+02  0.24277411817E+02  0.74475438856E+02  0.10566000000E+00 0. -1.
     200003    1    4    4    0    0 -0.59753927442E+02  0.12794100087E+03 -0.16582952630E+02  0.14530803786E+03  0.30000000000E+02 0. -1.
     200000    1    3    3    0    0  0.17704099090E+03 -0.72148788668E+02  0.67857856572E+03  0.71219297245E+03  0.10100000000E+03 0.  1.
    -200001    1    1    2    0    0 -0.14211744117E+03  0.10091317197E+02  0.72621449664E+03  0.96096602276E+03  0.61300000000E+03 0.  1.
<mgrwt>
<rscale>  0 0.12602024E+04</rscale>
<asrwt>0</asrwt>
<pdfrwt beam="1">  1        2 0.23610215E+00 0.12602024E+04</pdfrwt>
<pdfrwt beam="2">  1       -2 0.34318210E-01 0.12602024E+04</pdfrwt>
<totfact> 0.94888452E+01</totfact>
</mgrwt>
</event>
<event>
 8    1  0.7583103E-052  0.1408708E+04  0.7818608E-02  0.8947539E-01
         -2   -1    0    0    0  501 -0.00000000000E+00  0.00000000000E+00  0.13915460279E+03  0.13915460281E+03  0.25500000000E-02 0. -1.
          2   -1    0    0  501    0  0.00000000000E+00 -0.00000000000E+00 -0.35652031955E+04  0.35652031955E+04  0.25500000000E-02 0.  1.
     200001    2    1    2    0    0  0.31633483919E+03  0.10385336588E+03 -0.15106898944E+04  0.16659218304E+04  0.61827043910E+03 0.  0.
    5000001    2    3    3    0    0  0.35634300296E+03 -0.15871833031E+03 -0.68562773697E+03  0.79329756278E+03  0.84046328166E+02 0.  0.
        -13    1    4    4    0    0  0.26918215283E+03 -0.13991559881E+03 -0.49175823461E+03  0.57780756196E+03  0.10566000000E+00 0. -1.
     200003    1    4    4    0    0  0.87160850134E+02 -0.18802731501E+02 -0.19386950236E+03  0.21549000082E+03  0.30000000000E+02 0.  1.
     200000    1    3    3    0    0 -0.40008163768E+02  0.26257169619E+03 -0.82506215742E+03  0.87262426760E+03  0.10100000000E+03 0.  1.
    -200001    1    1    2    0    0 -0.31633483919E+03 -0.10385336588E+03 -0.19153586984E+04  0.20384359680E+04  0.61300000000E+03 0.  1.
<mgrwt>
<rscale>  0 0.14087078E+04</rscale>
<asrwt>0</asrwt>
<pdfrwt beam="1">  1        2 0.50931468E+00 0.14087078E+04</pdfrwt>
<pdfrwt beam="2">  1       -2 0.19879231E-01 0.14087078E+04</pdfrwt>
<totfact> 0.23373806E+01</totfact>
</mgrwt>
</event>
<event>
 8    1  0.7583103E-052  0.1288285E+04  0.7818608E-02  0.9038907E-01
         -2   -1    0    0    0  501 -0.00000000000E+00  0.00000000000E+00  0.15024648042E+03  0.15024648044E+03  0.25500000000E-02 0. -1.
          2   -1    0    0  501    0  0.00000000000E+00 -0.00000000000E+00 -0.27615915860E+04  0.27615915860E+04  0.25500000000E-02 0.  1.
     200001    2    1    2    0    0 -0.43190318730E+02  0.60287348863E+02 -0.17147184101E+04  0.18231652969E+04  0.61495732037E+03 0.  0.
    5000001    2    3    3    0    0 -0.26345641721E+03  0.15566260636E+03 -0.12191301347E+04  0.12633239510E+04  0.12676351620E+03 0.  0.
        -13    1    4    4    0    0 -0.23500582391E+03  0.10787554213E+03 -0.10798630947E+04  0.11103914555E+04  0.10566000000E+00 0. -1.
     200003    1    4    4    0    0 -0.28450593300E+02  0.47787064221E+02 -0.13926704002E+03  0.15293249557E+03  0.30000000000E+02 0. -1.
     200000    1    3    3    0    0  0.22026609848E+03 -0.95375257492E+02 -0.49558827531E+03  0.55984134584E+03  0.10100000000E+03 0. -1.
    -200001    1    1    2    0    0  0.43190318730E+02 -0.60287348863E+02 -0.89662669551E+03  0.10886727696E+04  0.61300000000E+03 0. -1.
<mgrwt>
<rscale>  0 0.12882848E+04</rscale>
<asrwt>0</asrwt>
<pdfrwt beam="1">  1        2 0.39451305E+00 0.12882848E+04</pdfrwt>
<pdfrwt beam="2">  1       -2 0.21463785E-01 0.12882848E+04</pdfrwt>
<totfact> 0.59476338E+01</totfact>
</mgrwt>
</event>
<event>
 8    1  0.7583103E-052  0.1663000E+04  0.7818608E-02  0.8782753E-01
         -2   -1    0    0    0  501 -0.00000000000E+00  0.00000000000E+00  0.78372829212E+03  0.78372829212E+03  0.25500000000E-02 0. -1.
          2   -1    0    0  501    0  0.00000000000E+00 -0.00000000000E+00 -0.88218381533E+03  0.88218381533E+03  0.25500000000E-02 0.  1.
     200001    2    1    2    0    0 -0.36314880588E+03 -0.38297588004E+03  0.15166183709E+03  0.81922723465E+03  0.60793451066E+03 0.  0.
    5000001    2    3    3    0    0 -0.53426465552E+01 -0.41870229421E+03  0.11570695172E+03  0.44400013262E+03  0.91694405730E+02 0.  0.
        -13    1    4    4    0    0 -0.27855762813E+02 -0.76450810068E+02  0.43287916767E+02  0.92165746262E+02  0.10566000000E+00 0. -1.
     200003    1    4    4    0    0  0.22513116258E+02 -0.34225148414E+03  0.72419034950E+02  0.35183438635E+03  0.30000000000E+02 0. -1.
     200000    1    3    3    0    0 -0.35780615933E+03  0.35726414161E+02  0.35954885375E+02  0.37522710204E+03  0.10100000000E+03 0.  1.
    -200001    1    1    2    0    0  0.36314880588E+03  0.38297588004E+03 -0.25011736030E+03  0.84668487280E+03  0.61300000000E+03 0.  1.
<mgrwt>
<rscale>  0 0.16630002E+04</rscale>
<asrwt>0</asrwt>
<pdfrwt beam="1">  1        2 0.12602626E+00 0.16630002E+04</pdfrwt>
<pdfrwt beam="2">  1       -2 0.11196119E+00 0.16630002E+04</pdfrwt>
<totfact> 0.20121208E+01</totfact>
</mgrwt>
</event>
<event>
 8    1  0.7583103E-052  0.1567221E+04  0.7818608E-02  0.8840943E-01
          2   -1    0    0  501    0  0.00000000000E+00  0.00000000000E+00  0.44055602977E+03  0.44055602977E+03  0.25500000000E-02 0.  1.
         -2   -1    0    0    0  501 -0.00000000000E+00 -0.00000000000E+00 -0.13937957591E+04  0.13937957591E+04  0.25500000000E-02 0. -1.
     200001    2    1    2    0    0  0.99187475372E+01 -0.15223330844E+03 -0.10194212924E+04  0.11991964055E+04  0.61284491177E+03 0.  0.
    5000001    2    3    3    0    0 -0.11256434034E+03 -0.26458832327E+03 -0.21111167018E+03  0.36781730936E+03  0.89686812030E+02 0.  0.
        -13    1    4    4    0    0 -0.69520355325E+02 -0.16655890449E+03 -0.17373244805E+03  0.25051531518E+03  0.10566000000E+00 0. -1.
     200003    1    4    4    0    0 -0.43043985017E+02 -0.98029418776E+02 -0.37379222130E+02  0.11730199418E+03  0.30000000000E+02 0.  1.
     200000    1    3    3    0    0  0.12248308788E+03  0.11235501483E+03 -0.80830962219E+03  0.83137909614E+03  0.10100000000E+03 0. -1.
    -200001    1    1    2    0    0 -0.99187475372E+01  0.15223330844E+03  0.66181563026E+02  0.63515538338E+03  0.61300000000E+03 0.  1.
<mgrwt>
<rscale>  0 0.15672206E+04</rscale>
<asrwt>0</asrwt>
<pdfrwt beam="1">  1        2 0.62936576E-01 0.15672206E+04</pdfrwt>
<pdfrwt beam="2">  1       -2 0.19911368E+00 0.15672206E+04</pdfrwt>
<totfact> 0.10063275E+01</totfact>
</mgrwt>
</event>
<event>
 8    1  0.7583103E-052  0.1619852E+04  0.7818608E-02  0.8808444E-01
          2   -1    0    0  501    0  0.00000000000E+00  0.00000000000E+00  0.62006639973E+03  0.62006639974E+03  0.25500000000E-02 0.  1.
         -2   -1    0    0    0  501 -0.00000000000E+00 -0.00000000000E+00 -0.10579187758E+04  0.10579187758E+04  0.25500000000E-02 0. -1.
     200001    2    1    2    0    0 -0.16601128238E+03  0.22374099273E+03  0.24868618100E+03  0.71635948535E+03  0.61131523613E+03 0.  0.
    5000001    2    3    3    0    0 -0.29155756588E+03 -0.66691427044E+02  0.15576427166E+02  0.31058366413E+03  0.82255861053E+02 0.  0.
        -13    1    4    4    0    0 -0.18771240214E+03 -0.27785829850E+02 -0.18757321682E+02  0.19068258059E+03  0.10566000000E+00 0. -1.
     200003    1    4    4    0    0 -0.10384516374E+03 -0.38905597193E+02  0.34333748848E+02  0.11990108354E+03  0.30000000000E+02 0. -1.
     200000    1    3    3    0    0  0.12554628350E+03  0.29043241977E+03  0.23310975384E+03  0.40577582122E+03  0.10100000000E+03 0.  1.
    -200001    1    1    2    0    0  0.16601128238E+03 -0.22374099273E+03 -0.68653855711E+03  0.96162569023E+03  0.61300000000E+03 0. -1.
<mgrwt>
<rscale>  0 0.16198517E+04</rscale>
<asrwt>0</asrwt>
<pdfrwt beam="1">  1        2 0.88580914E-01 0.16198517E+04</pdfrwt>
<pdfrwt beam="2">  1       -2 0.15113125E+00 0.16198517E+04</pdfrwt>
<totfact> 0.14697243E+01</totfact>
</mgrwt>
</event>
<event>
 8    1  0.7583103E-052  0.1327350E+04  0.7818608E-02  0.9008153E-01
         -2   -1    0    0    0  501 -0.00000000000E+00  0.00000000000E+00  0.19796567874E+03  0.19796567875E+03  0.25500000000E-02 0. -1.
          2   -1    0    0  501    0  0.00000000000E+00 -0.00000000000E+00 -0.22249537109E+04  0.22249537109E+04  0.25500000000E-02 0.  1.
     200001    2    1    2    0    0 -0.12129509400E+03 -0.14329671984E+03 -0.13320089832E+04  0.14773976669E+04  0.61090873703E+03 0.  0.
    5000001    2    3    3    0    0 -0.66687609222E+02 -0.16738694040E+03 -0.13445916980E+04  0.13594076638E+04  0.87159261408E+02 0.  0.
        -13    1    4    4    0    0  0.16681673434E+02 -0.49393964382E+02 -0.39323238949E+03  0.39667337352E+03  0.10566000000E+00 0. -1.
     200003    1    4    4    0    0 -0.83369282656E+02 -0.11799297602E+03 -0.95135930854E+03  0.96273429025E+03  0.30000000000E+02 0. -1.
     200000    1    3    3    0    0 -0.54607484779E+02  0.24090220560E+02  0.12582714823E+02  0.11799000311E+03  0.10100000000E+03 0. -1.
    -200001    1    1    2    0    0  0.12129509400E+03  0.14329671984E+03 -0.69497904890E+03  0.94552172273E+03  0.61300000000E+03 0. -1.
<mgrwt>
<rscale>  0 0.13273499E+04</rscale>
<asrwt>0</asrwt>
<pdfrwt beam="1">  1        2 0.31785052E+00 0.13273499E+04</pdfrwt>
<pdfrwt beam="2">  1       -2 0.28280812E-01 0.13273499E+04</pdfrwt>
<totfact> 0.68849396E+01</totfact>
</mgrwt>
</event>
<event>
 8    1  0.7583103E-052  0.2421169E+04  0.7818608E-02  0.8431620E-01
         -2   -1    0    0    0  501 -0.00000000000E+00  0.00000000000E+00  0.50905479513E+03  0.50905479514E+03  0.25500000000E-02 0. -1.
          2   -1    0    0  501    0  0.00000000000E+00 -0.00000000000E+00 -0.28788949627E+04  0.28788949627E+04  0.25500000000E-02 0.  1.
     200001    2    1    2    0    0 -0.14019253619E+03  0.10195719264E+04 -0.94042841066E+03  0.15229650847E+04  0.61305480459E+03 0.  0.
    5000001    2    3    3    0    0  0.59534463208E+02  0.13137184173E+03 -0.45913579673E+03  0.48825070631E+03  0.82341722524E+02 0.  0.
        -13    1    4    4    0    0 -0.77411429682E+01 -0.23157851134E+01 -0.59074949009E+01  0.10009885873E+02  0.10566000000E+00 0. -1.
     200003    1    4    4    0    0  0.67275606176E+02  0.13368762684E+03 -0.45322830183E+03  0.47824082044E+03  0.30000000000E+02 0. -1.
     200000    1    3    3    0    0 -0.19972699940E+03  0.88820008463E+03 -0.48129261393E+03  0.10347143784E+04  0.10100000000E+03 0. -1.
    -200001    1    1    2    0    0  0.14019253619E+03 -0.10195719264E+04 -0.14294117569E+04  0.18649846731E+04  0.61300000000E+03 0. -1.
<mgrwt>
<rscale>  0 0.24211694E+04</rscale>
<asrwt>0</asrwt>
<pdfrwt beam="1">  1        2 0.41127070E+00 0.24211694E+04</pdfrwt>
<pdfrwt beam="2">  1       -2 0.72722115E-01 0.24211694E+04</pdfrwt>
<totfact> 0.42477961E+00</totfact>
</mgrwt>
</event>
<event>
 8    1  0.7583103E-052  0.1976167E+04  0.7818608E-02  0.8617845E-01
          2   -1    0    0  501    0  0.00000000000E+00  0.00000000000E+00  0.25392695048E+04  0.25392695048E+04  0.25500000000E-02 0.  1.
         -2   -1    0    0    0  501 -0.00000000000E+00 -0.00000000000E+00 -0.38448427877E+03  0.38448427877E+03  0.25500000000E-02 0. -1.
     200001    2    1    2    0    0 -0.24740145010E+03 -0.42434053061E+03  0.19623766398E+04  0.21150125224E+04  0.61731963377E+03 0.  0.
    5000001    2    3    3    0    0 -0.17617385904E+02 -0.47464933647E+03  0.16018413346E+04  0.16728378981E+04  0.82997634030E+02 0.  0.
        -13    1    4    4    0    0 -0.41016209839E+02 -0.16185926348E+03  0.53853176796E+03  0.56382375518E+03  0.10566000000E+00 0. -1.
     200003    1    4    4    0    0  0.23398823935E+02 -0.31279007299E+03  0.10633095666E+04  0.11090141429E+04  0.30000000000E+02 0. -1.
     200000    1    3    3    0    0 -0.22978406419E+03  0.50308805854E+02  0.36053530518E+03  0.44217462431E+03  0.10100000000E+03 0.  1.
    -200001    1    1    2    0    0  0.24740145010E+03  0.42434053061E+03  0.19240858627E+03  0.80874126116E+03  0.61300000000E+03 0.  1.
<mgrwt>
<rscale>  0 0.19761672E+04</rscale>
<asrwt>0</asrwt>
<pdfrwt beam="1">  1        2 0.36275278E+00 0.19761672E+04</pdfrwt>
<pdfrwt beam="2">  1       -2 0.54926326E-01 0.19761672E+04</pdfrwt>
<totfact> 0.12239998E+01</totfact>
</mgrwt>
</event>
<event>
 8    1  0.7583103E-052  0.1295509E+04  0.7818608E-02  0.9033134E-01
          2   -1    0    0  501    0  0.00000000000E+00  0.00000000000E+00  0.61603209006E+03  0.61603209006E+03  0.25500000000E-02 0.  1.
         -2   -1    0    0    0  501 -0.00000000000E+00 -0.00000000000E+00 -0.68111090461E+03  0.68111090462E+03  0.25500000000E-02 0. -1.
     200001    2    1    2    0    0 -0.35309493377E+00  0.15906465196E+03 -0.17235696669E+03  0.65481964145E+03  0.61137562160E+03 0.  0.
    5000001    2    3    3    0    0  0.16898865985E+03 -0.16458647889E+03 -0.10349251564E+03  0.26963137965E+03  0.79652394253E+02 0.  0.
        -13    1    4    4    0    0  0.28095529912E+02 -0.34278555054E+02 -0.52691723110E+02  0.68853518326E+02  0.10566000000E+00 0. -1.
     200003    1    4    4    0    0  0.14089312993E+03 -0.13030792384E+03 -0.50800792526E+02  0.20077786132E+03  0.30000000000E+02 0. -1.
     200000    1    3    3    0    0 -0.16934175478E+03  0.32365113085E+03 -0.68864451054E+02  0.38518826180E+03  0.10100000000E+03 0. -1.
    -200001    1    1    2    0    0  0.35309493377E+00 -0.15906465196E+03  0.10727815214E+03  0.64232335323E+03  0.61300000000E+03 0.  1.
<mgrwt>
<rscale>  0 0.12955094E+04</rscale>
<asrwt>0</asrwt>
<pdfrwt beam="1">  1        2 0.88004585E-01 0.12955094E+04</pdfrwt>
<pdfrwt beam="2">  1       -2 0.97301558E-01 0.12955094E+04</pdfrwt>
<totfact> 0.45496415E+01</totfact>
</mgrwt>
</event>
<event>
 8    1  0.7583103E-052  0.1671812E+04  0.7818608E-02  0.8777606E-01
         -2   -1    0    0    0  501 -0.00000000000E+00  0.00000000000E+00  0.29766037618E+03  0.29766037619E+03  0.25500000000E-02 0. -1.
          2   -1    0    0  501    0  0.00000000000E+00 -0.00000000000E+00 -0.23474379152E+04  0.23474379153E+04  0.25500000000E-02 0.  1.
     200001    2    1    2    0    0 -0.31564150247E+03  0.40731973003E+03 -0.64666172560E+03  0.10295358796E+04  0.61337901779E+03 0.  0.
    5000001    2    3    3    0    0 -0.44904408285E+03  0.31009616277E+03 -0.28830355410E+03  0.62226416493E+03  0.79331791565E+02 0.  0.
        -13    1    4    4    0    0 -0.33844902900E+03  0.24208090584E+03 -0.19465948819E+03  0.45939442499E+03  0.10566000000E+00 0. -1.
     200003    1    4    4    0    0 -0.11059505385E+03  0.68015256923E+02 -0.93644065907E+02  0.16286973994E+03  0.30000000000E+02 0. -1.
     200000    1    3    3    0    0  0.13340258037E+03  0.97223567267E+02 -0.35835817150E+03  0.40727171466E+03  0.10100000000E+03 0.  1.
    -200001    1    1    2    0    0  0.31564150247E+03 -0.40731973003E+03 -0.14031158135E+04  0.16155624118E+04  0.61300000000E+03 0.  1.
<mgrwt>
<rscale>  0 0.16718125E+04</rscale>
<asrwt>0</asrwt>
<pdfrwt beam="1">  1        2 0.33534826E+00 0.16718125E+04</pdfrwt>
<pdfrwt beam="2">  1       -2 0.42522912E-01 0.16718125E+04</pdfrwt>
<totfact> 0.26572565E+01</totfact>
</mgrwt>
</event>
<event>
 8    1  0.7583103E-052  0.1639817E+04  0.7818608E-02  0.8796453E-01
         -2   -1    0    0    0  501 -0.00000000000E+00  0.00000000000E+00  0.63805585630E+03  0.63805585630E+03  0.25500000000E-02 0. -1.
          2   -1    0    0  501    0  0.00000000000E+00 -0.00000000000E+00 -0.10535914343E+04  0.10535914343E+04  0.25500000000E-02 0.  1.
     200001    2    1    2    0    0 -0.30258800219E+03 -0.36548563773E+03 -0.48475540135E+03  0.91338021922E+03  0.61166688260E+03 0.  0.
    5000001    2    3    3    0    0 -0.14248280748E+03 -0.44861700371E+03 -0.11593477955E+03  0.49056329850E+03  0.75185838297E+02 0.  0.
        -13    1    4    4    0    0 -0.12561963081E+03 -0.32828527556E+03 -0.83972461932E+02  0.36139023136E+03  0.10566000000E+00 0. -1.
     200003    1    4    4    0    0 -0.16863176666E+02 -0.12033172815E+03 -0.31962317620E+02  0.12917306714E+03  0.30000000000E+02 0.  1.
     200000    1    3    3    0    0 -0.16010519472E+03  0.83131365981E+02 -0.36882062179E+03  0.42281692072E+03  0.10100000000E+03 0.  1.
    -200001    1    1    2    0    0  0.30258800219E+03  0.36548563773E+03  0.69219823346E+02  0.77826707138E+03  0.61300000000E+03 0. -1.
<mgrwt>
<rscale>  0 0.16398173E+04</rscale>
<asrwt>0</asrwt>
<pdfrwt beam="1">  1        2 0.15051306E+00 0.16398173E+04</pdfrwt>
<pdfrwt beam="2">  1       -2 0.91150837E-01 0.16398173E+04</pdfrwt>
<totfact> 0.25618396E+01</totfact>
</mgrwt>
</event>
<event>
 8    1  0.7583103E-052  0.2059614E+04  0.7818608E-02  0.8579245E-01
         -2   -1    0    0    0  501 -0.00000000000E+00  0.00000000000E+00  0.64855285852E+03  0.64855285852E+03  0.25500000000E-02 0. -1.
          2   -1    0    0  501    0  0.00000000000E+00 -0.00000000000E+00 -0.16351831346E+04  0.16351831346E+04  0.25500000000E-02 0.  1.
     200001    2    1    2    0    0 -0.72302689091E+03 -0.24790907837E+03 -0.84464081268E+03  0.12937073047E+04  0.61321586062E+03 0.  0.
    5000001    2    3    3    0    0 -0.10149196621E+03 -0.25717846217E+03 -0.15024902364E+03  0.35627861901E+03  0.16708771544E+03 0.  0.
        -13    1    4    4    0    0 -0.93017044750E+02 -0.49051080596E+02 -0.87139788376E+02  0.13657061545E+03  0.10566000000E+00 0. -1.
     200003    1    4    4    0    0 -0.84749214556E+01 -0.20812738157E+03 -0.63109235268E+02  0.21970800356E+03  0.30000000000E+02 0. -1.
     200000    1    3    3    0    0 -0.62153492470E+03  0.92693838028E+01 -0.69439178904E+03  0.93742868570E+03  0.10100000000E+03 0.  1.
    -200001    1    1    2    0    0  0.72302689091E+03  0.24790907837E+03 -0.14198946338E+03  0.99002868838E+03  0.61300000000E+03 0.  1.
<mgrwt>
<rscale>  0 0.20596142E+04</rscale>
<asrwt>0</asrwt>
<pdfrwt beam="1">  1        2 0.23359759E+00 0.20596142E+04</pdfrwt>
<pdfrwt beam="2">  1       -2 0.92650409E-01 0.20596142E+04</pdfrwt>
<totfact> 0.11378015E+01</totfact>
</mgrwt>
</event>
<event>
 8    1  0.7583103E-052  0.1310899E+04  0.7818608E-02  0.9020966E-01
          2   -1    0    0  501    0  0.00000000000E+00  0.00000000000E+00  0.14404850810E+04  0.14404850810E+04  0.25500000000E-02 0.  1.
         -2   -1    0    0    0  501 -0.00000000000E+00 -0.00000000000E+00 -0.29824278530E+03  0.29824278531E+03  0.25500000000E-02 0. -1.
     200001    2    1    2    0    0  0.56423991401E+02 -0.21857879630E+03  0.50300519918E+03  0.82475115841E+03  0.61338396287E+03 0.  0.
    5000001    2    3    3    0    0 -0.23123981382E+03 -0.10525339815E+03  0.67297687157E+02  0.28102774828E+03  0.99486116053E+02 0.  0.
        -13    1    4    4    0    0 -0.13676770342E+03 -0.70922997933E+02 -0.41330745087E+01  0.15411868739E+03  0.10566000000E+00 0. -1.
     200003    1    4    4    0    0 -0.94472110401E+02 -0.34330400214E+02  0.71430761665E+02  0.12690906088E+03  0.30000000000E+02 0.  1.
     200000    1    3    3    0    0  0.28766380522E+03 -0.11332539815E+03  0.43570751202E+03  0.54372341014E+03  0.10100000000E+03 0.  1.
    -200001    1    1    2    0    0 -0.56423991401E+02  0.21857879630E+03  0.63923709651E+03  0.91397670788E+03  0.61300000000E+03 0.  1.
<mgrwt>
<rscale>  0 0.13108994E+04</rscale>
<asrwt>0</asrwt>
<pdfrwt beam="1">  1        2 0.20578358E+00 0.13108994E+04</pdfrwt>
<pdfrwt beam="2">  1       -2 0.42606112E-01 0.13108994E+04</pdfrwt>
<totfact> 0.80471807E+01</totfact>
</mgrwt>
</event>
<event>
 8    1  0.7583103E-052  0.1479982E+04  0.7818608E-02  0.8897875E-01
         -2   -1    0    0    0  501 -0.00000000000E+00  0.00000000000E+00  0.82001503065E+03  0.82001503066E+03  0.25500000000E-02 0. -1.
          2   -1    0    0  501    0  0.00000000000E+00 -0.00000000000E+00 -0.66777642714E+03  0.66777642715E+03  0.25500000000E-02 0.  1.
     200001    2    1    2    0    0  0.25990267890E+03  0.29251896029E+02  0.39927482659E+03  0.77701654869E+03  0.61313069885E+03 0.  0.
    5000001    2    3    3    0    0  0.38767376984E+03 -0.13845469268E+03  0.30521120246E+03  0.52502465008E+03  0.11417684239E+03 0.  0.
        -13    1    4    4    0    0  0.30190578373E+03 -0.72032951752E+02  0.18977677030E+03  0.36380088249E+03  0.10566000000E+00 0. -1.
     200003    1    4    4    0    0  0.85767986107E+02 -0.66421740929E+02  0.11543443216E+03  0.16122376759E+03  0.30000000000E+02 0. -1.
     200000    1    3    3    0    0 -0.12777109095E+03  0.16770658871E+03  0.94063624132E+02  0.25199189861E+03  0.10100000000E+03 0. -1.
    -200001    1    1    2    0    0 -0.25990267890E+03 -0.29251896029E+02 -0.24703622308E+03  0.71077490912E+03  0.61300000000E+03 0.  1.
<mgrwt>
<rscale>  0 0.14799820E+04</rscale>
<asrwt>0</asrwt>
<pdfrwt beam="1">  1        2 0.95396632E-01 0.14799820E+04</pdfrwt>
<pdfrwt beam="2">  1       -2 0.11714500E+00 0.14799820E+04</pdfrwt>
<totfact> 0.26058187E+01</totfact>
</mgrwt>
</event>
<event>
 8    1  0.7583103E-052  0.2245934E+04  0.7818608E-02  0.8499549E-01
          2   -1    0    0  501    0  0.00000000000E+00  0.00000000000E+00  0.10228716481E+04  0.10228716481E+04  0.25500000000E-02 0.  1.
         -2   -1    0    0    0  501 -0.00000000000E+00 -0.00000000000E+00 -0.12328568670E+04  0.12328568670E+04  0.25500000000E-02 0. -1.
     200001    2    1    2    0    0 -0.22800129047E+01  0.75234602557E+03 -0.67215451138E+03  0.11808335455E+04  0.61363379507E+03 0.  0.
    5000001    2    3    3    0    0 -0.25583848054E+03  0.27868913324E+03 -0.14513517029E+03  0.42149624628E+03  0.11607715911E+03 0.  0.
        -13    1    4    4    0    0 -0.14375390814E+03  0.19323592479E+03 -0.13719053161E+03  0.27717604850E+03  0.10566000000E+00 0. -1.
     200003    1    4    4    0    0 -0.11208457240E+03  0.85453208450E+02 -0.79446386779E+01  0.14432019778E+03  0.30000000000E+02 0. -1.
     200000    1    3    3    0    0  0.25355846763E+03  0.47365689233E+03 -0.52701934109E+03  0.75933729926E+03  0.10100000000E+03 0. -1.
    -200001    1    1    2    0    0  0.22800129047E+01 -0.75234602557E+03  0.46216929249E+03  0.10748949696E+04  0.61300000000E+03 0. -1.
<mgrwt>
<rscale>  0 0.22459335E+04</rscale>
<asrwt>0</asrwt>
<pdfrwt beam="1">  1        2 0.14612452E+00 0.22459335E+04</pdfrwt>
<pdfrwt beam="2">  1       -2 0.17612241E+00 0.22459335E+04</pdfrwt>
<totfact> 0.47987810E+00</totfact>
</mgrwt>
</event>
<event>
 8    1  0.7583103E-052  0.1569739E+04  0.7818608E-02  0.8839357E-01
         -2   -1    0    0    0  501 -0.00000000000E+00  0.00000000000E+00  0.18512666872E+03  0.18512666873E+03  0.25500000000E-02 0. -1.
          2   -1    0    0  501    0  0.00000000000E+00 -0.00000000000E+00 -0.33275586914E+04  0.33275586914E+04  0.25500000000E-02 0.  1.
     200001    2    1    2    0    0 -0.48965062171E+03 -0.90718804989E+01 -0.16195403219E+04  0.17995571797E+04  0.61290713678E+03 0.  0.
    5000001    2    3    3    0    0 -0.48391680684E+03  0.68628439965E+02 -0.63862094108E+03  0.81037870837E+03  0.99958020563E+02 0.  0.
        -13    1    4    4    0    0 -0.12868208569E+03  0.53884680832E+02 -0.14401814020E+03  0.20050903690E+03  0.10566000000E+00 0. -1.
     200003    1    4    4    0    0 -0.35523472115E+03  0.14743759134E+02 -0.49460280088E+03  0.60986967147E+03  0.30000000000E+02 0. -1.
     200000    1    3    3    0    0 -0.57338148753E+01 -0.77700320464E+02 -0.98091938087E+03  0.98917847135E+03  0.10100000000E+03 0.  1.
    -200001    1    1    2    0    0  0.48965062171E+03  0.90718804989E+01 -0.15228917007E+04  0.17131281804E+04  0.61300000000E+03 0.  1.
<mgrwt>
<rscale>  0 0.15697386E+04</rscale>
<asrwt>0</asrwt>
<pdfrwt beam="1">  1        2 0.47536549E+00 0.15697386E+04</pdfrwt>
<pdfrwt beam="2">  1       -2 0.26446669E-01 0.15697386E+04</pdfrwt>
<totfact> 0.19173309E+01</totfact>
</mgrwt>
</event>
<event>
 8    1  0.7583103E-052  0.3136127E+04  0.7818608E-02  0.8205892E-01
         -2   -1    0    0    0  501 -0.00000000000E+00  0.00000000000E+00  0.14205559990E+04  0.14205559990E+04  0.25500000000E-02 0. -1.
          2   -1    0    0  501    0  0.00000000000E+00 -0.00000000000E+00 -0.17308883702E+04  0.17308883702E+04  0.25500000000E-02 0.  1.
     200001    2    1    2    0    0 -0.12984801356E+04  0.63068017502E+03 -0.16672126176E+03  0.15765788840E+04  0.61155282081E+03 0.  0.
    5000001    2    3    3    0    0 -0.87603584842E+03  0.69901067274E+03 -0.93780987591E+02  0.11308777327E+04  0.11846874824E+03 0.  0.
        -13    1    4    4    0    0 -0.54165702799E+03  0.40257854456E+03 -0.10430080548E+03  0.68289127224E+03  0.10566000000E+00 0. -1.
     200003    1    4    4    0    0 -0.33437882043E+03  0.29643212818E+03  0.10519817885E+02  0.44798646044E+03  0.30000000000E+02 0. -1.
     200000    1    3    3    0    0 -0.42244428718E+03 -0.68330497727E+02 -0.72940274165E+02  0.44570115132E+03  0.10100000000E+03 0. -1.
    -200001    1    1    2    0    0  0.12984801356E+04 -0.63068017502E+03 -0.14361110950E+03  0.15748654852E+04  0.61300000000E+03 0.  1.
<mgrwt>
<rscale>  0 0.31361275E+04</rscale>
<asrwt>0</asrwt>
<pdfrwt beam="1">  1        2 0.24726977E+00 0.31361275E+04</pdfrwt>
<pdfrwt beam="2">  1       -2 0.20293657E+00 0.31361275E+04</pdfrwt>
<totfact> 0.12005728E+00</totfact>
</mgrwt>
</event>
<event>
 8    1  0.7583103E-052  0.1279717E+04  0.7818608E-02  0.9045806E-01
          2   -1    0    0  501    0  0.00000000000E+00  0.00000000000E+00  0.13164477616E+04  0.13164477616E+04  0.25500000000E-02 0.  1.
         -2   -1    0    0    0  501 -0.00000000000E+00 -0.00000000000E+00 -0.31100300458E+03  0.31100300459E+03  0.25500000000E-02 0. -1.
     200001    2    1    2    0    0  0.29842004764E+02 -0.17870123382E+03  0.52511362366E+03  0.82788108576E+03  0.61385511173E+03 0.  0.
    5000001    2    3    3    0    0 -0.71797454258E+00 -0.35576857776E+03  0.29172631372E+03  0.51650126453E+03  0.23472860444E+03 0.  0.
        -13    1    4    4    0    0 -0.39012637180E+02 -0.14605125826E+03 -0.33838112527E+01  0.15120984506E+03  0.10566000000E+00 0. -1.
     200003    1    4    4    0    0  0.38294662638E+02 -0.20971731950E+03  0.29511012497E+03  0.36529141948E+03  0.30000000000E+02 0. -1.
     200000    1    3    3    0    0  0.30559979307E+02  0.17706734394E+03  0.23338730994E+03  0.31137982123E+03  0.10100000000E+03 0.  1.
    -200001    1    1    2    0    0 -0.29842004764E+02  0.17870123382E+03  0.48033113339E+03  0.79956968046E+03  0.61300000000E+03 0.  1.
<mgrwt>
<rscale>  0 0.12797175E+04</rscale>
<asrwt>0</asrwt>
<pdfrwt beam="1">  1        2 0.18806396E+00 0.12797175E+04</pdfrwt>
<pdfrwt beam="2">  1       -2 0.44429001E-01 0.12797175E+04</pdfrwt>
<totfact> 0.86686778E+01</totfact>
</mgrwt>
</event>
<event>
 8    1  0.7583103E-052  0.1663236E+04  0.7818608E-02  0.8782615E-01
          2   -1    0    0  501    0  0.00000000000E+00  0.00000000000E+00  0.89130263337E+03  0.89130263337E+03  0.25500000000E-02 0.  1.
         -2   -1    0    0    0  501 -0.00000000000E+00 -0.00000000000E+00 -0.77592960863E+03  0.77592960863E+03  0.25500000000E-02 0. -1.
     200001    2    1    2    0    0  0.46237024910E+03  0.27635775700E+03  0.21766055287E+03  0.84480194373E+03  0.61331423492E+03 0.  0.
    5000001    2    3    3    0    0  0.35253912221E+03  0.24999733852E+02  0.36548029703E+03  0.51724216445E+03  0.95156659195E+02 0.  0.
        -13    1    4    4    0    0  0.31254175548E+02 -0.24267156400E+02  0.41175033099E+02  0.57106154516E+02  0.10566000000E+00 0. -1.
     200003    1    4    4    0    0  0.32128494666E+03  0.49266890251E+02  0.32430526393E+03  0.46013600994E+03  0.30000000000E+02 0. -1.
     200000    1    3    3    0    0  0.10983112689E+03  0.25135802315E+03 -0.14781974417E+03  0.32755977928E+03  0.10100000000E+03 0. -1.
    -200001    1    1    2    0    0 -0.46237024910E+03 -0.27635775700E+03 -0.10228752812E+03  0.82243029827E+03  0.61300000000E+03 0. -1.
<mgrwt>
<rscale>  0 0.16632355E+04</rscale>
<asrwt>0</asrwt>
<pdfrwt beam="1">  1        2 0.12732895E+00 0.16632355E+04</pdfrwt>
<pdfrwt beam="2">  1       -2 0.11084709E+00 0.16632355E+04</pdfrwt>
<totfact> 0.20331918E+01</totfact>
</mgrwt>
</event>
<event>
 8    1  0.7583103E-052  0.1445707E+04  0.7818608E-02  0.8921382E-01
         -2   -1    0    0    0  501 -0.00000000000E+00  0.00000000000E+00  0.41618193941E+03  0.41618193942E+03  0.25500000000E-02 0. -1.
          2   -1    0    0  501    0  0.00000000000E+00 -0.00000000000E+00 -0.12555022890E+04  0.12555022890E+04  0.25500000000E-02 0.  1.
     200001    2    1    2    0    0  0.27961282859E+03  0.21685092314E+03 -0.27051594907E+03  0.76365608853E+03  0.62030966950E+03 0.  0.
    5000001    2    3    3    0    0  0.36497840529E+03 -0.71010063617E+01 -0.20237987178E+03  0.49479688106E+03  0.26571917579E+03 0.  0.
        -13    1    4    4    0    0  0.20751363574E+03  0.90218983812E+02 -0.20776422965E+03  0.30719270880E+03  0.10566000000E+00 0. -1.
     200003    1    4    4    0    0  0.15746476955E+03 -0.97319990174E+02  0.53843578682E+01  0.18760417225E+03  0.30000000000E+02 0. -1.
     200000    1    3    3    0    0 -0.85365576699E+02  0.22395192950E+03 -0.68136077288E+02  0.26885920747E+03  0.10100000000E+03 0.  1.
    -200001    1    1    2    0    0 -0.27961282859E+03 -0.21685092314E+03 -0.56880440052E+03  0.90802813989E+03  0.61300000000E+03 0.  1.
<mgrwt>
<rscale>  0 0.14457073E+04</rscale>
<asrwt>0</asrwt>
<pdfrwt beam="1">  1        2 0.17935747E+00 0.14457073E+04</pdfrwt>
<pdfrwt beam="2">  1       -2 0.59454563E-01 0.14457073E+04</pdfrwt>
<totfact> 0.50986892E+01</totfact>
</mgrwt>
</event>
<event>
 8    1  0.7583103E-052  0.1438185E+04  0.7818608E-02  0.8926633E-01
          2   -1    0    0  501    0  0.00000000000E+00  0.00000000000E+00  0.84126205768E+03  0.84126205768E+03  0.25500000000E-02 0.  1.
         -2   -1    0    0    0  501 -0.00000000000E+00 -0.00000000000E+00 -0.61466442578E+03  0.61466442579E+03  0.25500000000E-02 0. -1.
     200001    2    1    2    0    0 -0.30194445670E+03  0.18180981890E+03  0.24644368665E+03  0.74854530542E+03  0.61266656380E+03 0.  0.
    5000001    2    3    3    0    0  0.43725815571E+02  0.17278813872E+03 -0.12333712218E+03  0.23230100819E+03  0.83570478456E+02 0.  0.
        -13    1    4    4    0    0  0.10825768721E+02  0.11857157631E+03 -0.10742365761E+03  0.16036293011E+03  0.10566000000E+00 0. -1.
     200003    1    4    4    0    0  0.32900046850E+02  0.54216562416E+02 -0.15913464565E+02  0.71938078077E+02  0.30000000000E+02 0. -1.
     200000    1    3    3    0    0 -0.34567027227E+03  0.90216801815E+01  0.36978080882E+03  0.51624429723E+03  0.10100000000E+03 0.  1.
    -200001    1    1    2    0    0  0.30194445670E+03 -0.18180981890E+03 -0.19846054750E+02  0.70738117806E+03  0.61300000000E+03 0. -1.
<mgrwt>
<rscale>  0 0.14381848E+04</rscale>
<asrwt>0</asrwt>
<pdfrwt beam="1">  1        2 0.12018029E+00 0.14381848E+04</pdfrwt>
<pdfrwt beam="2">  1       -2 0.87809204E-01 0.14381848E+04</pdfrwt>
<totfact> 0.38718163E+01</totfact>
</mgrwt>
</event>
<event>
 8    1  0.7583103E-052  0.1418704E+04  0.7818608E-02  0.8940390E-01
         -2   -1    0    0    0  501 -0.00000000000E+00  0.00000000000E+00  0.64657757128E+03  0.64657757128E+03  0.25500000000E-02 0. -1.
          2   -1    0    0  501    0  0.00000000000E+00 -0.00000000000E+00 -0.77822148971E+03  0.77822148971E+03  0.25500000000E-02 0.  1.
     200001    2    1    2    0    0  0.27282032156E+03 -0.14010601429E+03  0.11706381872E+03  0.69563161684E+03  0.61330154540E+03 0.  0.
    5000001    2    3    3    0    0  0.12741422857E+03 -0.36157398434E+03  0.13013904684E+03  0.41179547532E+03  0.75294157774E+02 0.  0.
        -13    1    4    4    0    0  0.80438924613E+02 -0.13479870475E+03  0.46006990472E+02  0.16357801115E+03  0.10566000000E+00 0. -1.
     200003    1    4    4    0    0  0.46975303956E+02 -0.22677527958E+03  0.84132056369E+02  0.24821746417E+03  0.30000000000E+02 0. -1.
     200000    1    3    3    0    0  0.14540609300E+03  0.22146797005E+03 -0.13075228120E+02  0.28383614151E+03  0.10100000000E+03 0. -1.
    -200001    1    1    2    0    0 -0.27282032156E+03  0.14010601429E+03 -0.24870773715E+03  0.72916744416E+03  0.61300000000E+03 0.  1.
<mgrwt>
<rscale>  0 0.14187044E+04</rscale>
<asrwt>0</asrwt>
<pdfrwt beam="1">  1        2 0.11117450E+00 0.14187044E+04</pdfrwt>
<pdfrwt beam="2">  1       -2 0.92368225E-01 0.14187044E+04</pdfrwt>
<totfact> 0.38170022E+01</totfact>
</mgrwt>
</event>
<event>
 8    1  0.7583103E-052  0.1344898E+04  0.7818608E-02  0.8994699E-01
          2   -1    0    0  501    0  0.00000000000E+00  0.00000000000E+00  0.18976719911E+04  0.18976719911E+04  0.25500000000E-02 0.  1.
         -2   -1    0    0    0  501 -0.00000000000E+00 -0.00000000000E+00 -0.23828542942E+03  0.23828542943E+03  0.25500000000E-02 0. -1.
     200001    2    1    2    0    0  0.83241454157E+02  0.25721303801E+03  0.94047877244E+03  0.11532646425E+04  0.61027151955E+03 0.  0.
    5000001    2    3    3    0    0  0.14390165943E+03 -0.13460188592E+03  0.14453208269E+03  0.25831730993E+03  0.83743384220E+02 0.  0.
        -13    1    4    4    0    0  0.71279271225E+02 -0.60928940915E+02  0.11142724171E+03  0.14563348415E+03  0.10566000000E+00 0. -1.
     200003    1    4    4    0    0  0.72622388208E+02 -0.73672945002E+02  0.33104840978E+02  0.11268382577E+03  0.30000000000E+02 0. -1.
     200000    1    3    3    0    0 -0.60660205277E+02  0.39181492393E+03  0.79594668975E+03  0.89494733256E+03  0.10100000000E+03 0.  1.
    -200001    1    1    2    0    0 -0.83241454157E+02 -0.25721303801E+03  0.71890778927E+03  0.98269277808E+03  0.61300000000E+03 0. -1.
<mgrwt>
<rscale>  0 0.13448979E+04</rscale>
<asrwt>0</asrwt>
<pdfrwt beam="1">  1        2 0.27109598E+00 0.13448979E+04</pdfrwt>
<pdfrwt beam="2">  1       -2 0.34040778E-01 0.13448979E+04</pdfrwt>
<totfact> 0.71557457E+01</totfact>
</mgrwt>
</event>
<event>
 8    1  0.7583103E-052  0.1644418E+04  0.7818608E-02  0.8793716E-01
          2   -1    0    0  501    0  0.00000000000E+00  0.00000000000E+00  0.12152834016E+04  0.12152834016E+04  0.25500000000E-02 0.  1.
         -2   -1    0    0    0  501 -0.00000000000E+00 -0.00000000000E+00 -0.55627140463E+03  0.55627140464E+03  0.25500000000E-02 0. -1.
     200001    2    1    2    0    0  0.22948774955E+03  0.34199990075E+03 -0.59808233539E+02  0.74097240630E+03  0.61305344203E+03 0.  0.
    5000001    2    3    3    0    0  0.19298397460E+03 -0.87574471104E+02 -0.17056714341E+03  0.28453489398E+03  0.83395761518E+02 0.  0.
        -13    1    4    4    0    0  0.52494192106E+02  0.84180313093E+01 -0.25650684996E+02  0.59029418604E+02  0.10566000000E+00 0. -1.
     200003    1    4    4    0    0  0.14048978249E+03 -0.95992502413E+02 -0.14491645841E+03  0.22550547537E+03  0.30000000000E+02 0. -1.
     200000    1    3    3    0    0  0.36503774948E+02  0.42957437185E+03  0.11075890987E+03  0.45643751232E+03  0.10100000000E+03 0.  1.
    -200001    1    1    2    0    0 -0.22948774955E+03 -0.34199990075E+03  0.71882023055E+03  0.10305824000E+04  0.61300000000E+03 0.  1.
<mgrwt>
<rscale>  0 0.16444177E+04</rscale>
<asrwt>0</asrwt>
<pdfrwt beam="1">  1        2 0.17361191E+00 0.16444177E+04</pdfrwt>
<pdfrwt beam="2">  1       -2 0.79467344E-01 0.16444177E+04</pdfrwt>
<totfact> 0.28161221E+01</totfact>
</mgrwt>
</event>
<event>
 8    1  0.7583103E-052  0.1515710E+04  0.7818608E-02  0.8874073E-01
         -2   -1    0    0    0  501 -0.00000000000E+00  0.00000000000E+00  0.41993130852E+03  0.41993130853E+03  0.25500000000E-02 0. -1.
          2   -1    0    0  501    0  0.00000000000E+00 -0.00000000000E+00 -0.13677095285E+04  0.13677095285E+04  0.25500000000E-02 0.  1.
     200001    2    1    2    0    0 -0.21333585376E+03 -0.15617137220E+03 -0.50873842600E+02  0.66955848490E+03  0.61304056379E+03 0.  0.
    5000001    2    3    3    0    0 -0.28951508761E+03 -0.32501023501E+03 -0.91021915590E+02  0.45479651194E+03  0.95416137721E+02 0.  0.
        -13    1    4    4    0    0 -0.13304966745E+03 -0.16536713530E+03 -0.18058534928E+01  0.21225403581E+03  0.10566000000E+00 0. -1.
     200003    1    4    4    0    0 -0.15646542016E+03 -0.15964309971E+03 -0.89216062097E+02  0.24254247613E+03  0.30000000000E+02 0. -1.
     200000    1    3    3    0    0  0.76179233852E+02  0.16883886281E+03  0.40148072990E+02  0.21476197296E+03  0.10100000000E+03 0.  1.
    -200001    1    1    2    0    0  0.21333585376E+03  0.15617137220E+03 -0.89690437739E+03  0.11180823521E+04  0.61300000000E+03 0.  1.
<mgrwt>
<rscale>  0 0.15157098E+04</rscale>
<asrwt>0</asrwt>
<pdfrwt beam="1">  1        2 0.19538707E+00 0.15157098E+04</pdfrwt>
<pdfrwt beam="2">  1       -2 0.59990188E-01 0.15157098E+04</pdfrwt>
<totfact> 0.43147070E+01</totfact>
</mgrwt>
</event>
<event>
 8    1  0.7583103E-052  0.1456581E+04  0.7818608E-02  0.8913851E-01
         -2   -1    0    0    0  501 -0.00000000000E+00  0.00000000000E+00  0.17299637593E+04  0.17299637593E+04  0.25500000000E-02 0. -1.
          2   -1    0    0  501    0  0.00000000000E+00 -0.00000000000E+00 -0.30659997613E+03  0.30659997614E+03  0.25500000000E-02 0.  1.
     200001    2    1    2    0    0 -0.25701083758E+03  0.40176554323E+01  0.11254428131E+04  0.13081431038E+04  0.61526103590E+03 0.  0.
    5000001    2    3    3    0    0  0.88988377956E+02 -0.20997033787E+03  0.52603579554E+03  0.57670883394E+03  0.62233003809E+02 0.  0.
        -13    1    4    4    0    0  0.45491261409E+02 -0.14461755335E+03  0.31606410196E+03  0.35054274962E+03  0.10566000000E+00 0. -1.
     200003    1    4    4    0    0  0.43497116547E+02 -0.65352784527E+02  0.20997169358E+03  0.22616608432E+03  0.30000000000E+02 0. -1.
     200000    1    3    3    0    0 -0.34599921554E+03  0.21398799331E+03  0.59940701758E+03  0.73143426988E+03  0.10100000000E+03 0. -1.
    -200001    1    1    2    0    0  0.25701083758E+03 -0.40176554323E+01  0.29792097008E+03  0.72842063164E+03  0.61300000000E+03 0. -1.
<mgrwt>
<rscale>  0 0.14565807E+04</rscale>
<asrwt>0</asrwt>
<pdfrwt beam="1">  1        2 0.43799995E-01 0.14565807E+04</pdfrwt>
<pdfrwt beam="2">  1       -2 0.24713769E+00 0.14565807E+04</pdfrwt>
<totfact> 0.75708552E+00</totfact>
</mgrwt>
</event>
<event>
 8    1  0.7583103E-052  0.1512218E+04  0.7818608E-02  0.8876369E-01
         -2   -1    0    0    0  501 -0.00000000000E+00  0.00000000000E+00  0.33282317956E+03  0.33282317957E+03  0.25500000000E-02 0. -1.
          2   -1    0    0  501    0  0.00000000000E+00 -0.00000000000E+00 -0.17177308298E+04  0.17177308298E+04  0.25500000000E-02 0.  1.
     200001    2    1    2    0    0  0.25769767767E+03  0.12191871303E+03 -0.23330260703E+03  0.71517562060E+03  0.61300391205E+03 0.  0.
    5000001    2    3    3    0    0 -0.59590565883E+02 -0.11337937940E+03 -0.23642169054E+03  0.30744071839E+03  0.14905925116E+03 0.  0.
        -13    1    4    4    0    0 -0.34708857325E+02  0.29978926179E+02 -0.37966060095E+02  0.59538841732E+02  0.10566000000E+00 0. -1.
     200003    1    4    4    0    0 -0.24881708558E+02 -0.14335830558E+03 -0.19845563044E+03  0.24790187666E+03  0.30000000000E+02 0. -1.
     200000    1    3    3    0    0  0.31728824355E+03  0.23529809242E+03  0.31190835081E+01  0.40773490221E+03  0.10100000000E+03 0. -1.
    -200001    1    1    2    0    0 -0.25769767767E+03 -0.12191871303E+03 -0.11516050432E+04  0.13353783888E+04  0.61300000000E+03 0. -1.
<mgrwt>
<rscale>  0 0.15122178E+04</rscale>
<asrwt>0</asrwt>
<pdfrwt beam="1">  1        2 0.24539011E+00 0.15122178E+04</pdfrwt>
<pdfrwt beam="2">  1       -2 0.47546169E-01 0.15122178E+04</pdfrwt>
<totfact> 0.45497833E+01</totfact>
</mgrwt>
</event>
<event>
 8    1  0.7583103E-052  0.1326632E+04  0.7818608E-02  0.9008708E-01
          2   -1    0    0  501    0  0.00000000000E+00  0.00000000000E+00  0.36849543773E+03  0.36849543774E+03  0.25500000000E-02 0. -1.
         -2   -1    0    0    0  501 -0.00000000000E+00 -0.00000000000E+00 -0.11940124295E+04  0.11940124295E+04  0.25500000000E-02 0.  1.
     200001    2    1    2    0    0 -0.77331947018E+02  0.10870724641E+01 -0.12805769653E+03  0.63073542705E+03  0.61273729570E+03 0.  0.
    5000001    2    3    3    0    0  0.28437424301E+02  0.26295864063E+03  0.40138566102E+02  0.28685338203E+03  0.10352692652E+03 0.  0.
        -13    1    4    4    0    0  0.40617417319E+02  0.23563617386E+03  0.47687467057E+02  0.24382019338E+03  0.10566000000E+00 0. -1.
     200003    1    4    4    0    0 -0.12179993018E+02  0.27322466767E+02 -0.75489009546E+01  0.43033188655E+02  0.30000000000E+02 0.  1.
     200000    1    3    3    0    0 -0.10576937132E+03 -0.26187156816E+03 -0.16819626263E+03  0.34388204502E+03  0.10100000000E+03 0.  1.
    -200001    1    1    2    0    0  0.77331947018E+02 -0.10870724641E+01 -0.69745929521E+03  0.93177244015E+03  0.61300000000E+03 0.  1.
<mgrwt>
<rscale>  0 0.13266320E+04</rscale>
<asrwt>0</asrwt>
<pdfrwt beam="1">  1        2 0.52642206E-01 0.13266320E+04</pdfrwt>
<pdfrwt beam="2">  1       -2 0.17057320E+00 0.13266320E+04</pdfrwt>
<totfact> 0.19591956E+01</totfact>
</mgrwt>
</event>
<event>
 8    1  0.7583103E-052  0.1456328E+04  0.7818608E-02  0.8914025E-01
         -2   -1    0    0    0  501 -0.00000000000E+00  0.00000000000E+00  0.39113865824E+03  0.39113865825E+03  0.25500000000E-02 0. -1.
          2   -1    0    0  501    0  0.00000000000E+00 -0.00000000000E+00 -0.13555887662E+04  0.13555887662E+04  0.25500000000E-02 0.  1.
     200001    2    1    2    0    0  0.17319635374E+03 -0.34817550699E+03 -0.55039609791E+03  0.91100445371E+03  0.61300088864E+03 0.  0.
    5000001    2    3    3    0    0  0.29664775699E+03 -0.40168296913E+03 -0.51685909846E+03  0.73945554581E+03  0.17407491824E+03 0.  0.
        -13    1    4    4    0    0 -0.15589549042E+02 -0.17537338179E+02 -0.45197901448E+00  0.23469293104E+02  0.10566000000E+00 0. -1.
     200003    1    4    4    0    0  0.31223730603E+03 -0.38414563095E+03 -0.51640711944E+03  0.71598625271E+03  0.30000000000E+02 0. -1.
     200000    1    3    3    0    0 -0.12345140325E+03  0.53507462141E+02 -0.33536999452E+02  0.17154890790E+03  0.10100000000E+03 0. -1.
    -200001    1    1    2    0    0 -0.17319635374E+03  0.34817550699E+03 -0.41405401009E+03  0.83572297078E+03  0.61300000000E+03 0.  1.
<mgrwt>
<rscale>  0 0.14563285E+04</rscale>
<asrwt>0</asrwt>
<pdfrwt beam="1">  1        2 0.19365554E+00 0.14563285E+04</pdfrwt>
<pdfrwt beam="2">  1       -2 0.55876952E-01 0.14563285E+04</pdfrwt>
<totfact> 0.51073430E+01</totfact>
</mgrwt>
</event>
<event>
 8    1  0.7583103E-052  0.1615531E+04  0.7818608E-02  0.8811063E-01
         -2   -1    0    0    0  501 -0.00000000000E+00  0.00000000000E+00  0.75007993722E+03  0.75007993723E+03  0.25500000000E-02 0. -1.
          2   -1    0    0  501    0  0.00000000000E+00 -0.00000000000E+00 -0.86988705291E+03  0.86988705291E+03  0.25500000000E-02 0.  1.
     200001    2    1    2    0    0 -0.45368374523E+03  0.48943192557E+02 -0.32156117337E+03  0.82958855130E+03  0.61367026932E+03 0.  0.
    5000001    2    3    3    0    0 -0.30168348752E+03 -0.25513560033E+03 -0.19868141275E+03  0.45426412338E+03  0.10380023514E+03 0.  0.
        -13    1    4    4    0    0 -0.70934457296E+02 -0.10569332815E+03 -0.95353500256E+02  0.15904426435E+03  0.10566000000E+00 0. -1.
     200003    1    4    4    0    0 -0.23074903023E+03 -0.14944227218E+03 -0.10332791250E+03  0.29521985903E+03  0.30000000000E+02 0. -1.
     200000    1    3    3    0    0 -0.15200025771E+03  0.30407879289E+03 -0.12287976062E+03  0.37532442792E+03  0.10100000000E+03 0.  1.
    -200001    1    1    2    0    0  0.45368374523E+03 -0.48943192557E+02  0.20175405769E+03  0.79037843884E+03  0.61300000000E+03 0. -1.
<mgrwt>
<rscale>  0 0.16155307E+04</rscale>
<asrwt>0</asrwt>
<pdfrwt beam="1">  1        2 0.12426958E+00 0.16155307E+04</pdfrwt>
<pdfrwt beam="2">  1       -2 0.10715428E+00 0.16155307E+04</pdfrwt>
<totfact> 0.22883522E+01</totfact>
</mgrwt>
</event>
<event>
 8    1  0.7583103E-052  0.1546300E+04  0.7818608E-02  0.8854235E-01
         -2   -1    0    0    0  501 -0.00000000000E+00  0.00000000000E+00  0.27542820243E+03  0.27542820244E+03  0.25500000000E-02 0. -1.
          2   -1    0    0  501    0  0.00000000000E+00 -0.00000000000E+00 -0.21702959148E+04  0.21702959148E+04  0.25500000000E-02 0.  1.
     200001    2    1    2    0    0 -0.20598735005E+03 -0.42124526062E+03 -0.87140127638E+03  0.11638774401E+04  0.61269254379E+03 0.  0.
    5000001    2    3    3    0    0 -0.12060862073E+03  0.13016052013E+03 -0.31695241850E+03  0.37081224833E+03  0.74529776074E+02 0.  0.
        -13    1    4    4    0    0 -0.15151316720E+02 -0.24881588855E+01 -0.57180073942E+02  0.59205788172E+02  0.10566000000E+00 0. -1.
     200003    1    4    4    0    0 -0.10545730401E+03  0.13264867902E+03 -0.25977234456E+03  0.31160646016E+03  0.30000000000E+02 0. -1.
     200000    1    3    3    0    0 -0.85378729327E+02 -0.55140578075E+03 -0.55444885788E+03  0.79306519182E+03  0.10100000000E+03 0. -1.
    -200001    1    1    2    0    0  0.20598735005E+03  0.42124526062E+03 -0.10234664359E+04  0.12818466771E+04  0.61300000000E+03 0. -1.
<mgrwt>
<rscale>  0 0.15462997E+04</rscale>
<asrwt>0</asrwt>
<pdfrwt beam="1">  1        2 0.31004226E+00 0.15462997E+04</pdfrwt>
<pdfrwt beam="2">  1       -2 0.39346888E-01 0.15462997E+04</pdfrwt>
<totfact> 0.38608080E+01</totfact>
</mgrwt>
</event>
<event>
 8    1  0.7583103E-052  0.1301275E+04  0.7818608E-02  0.9028554E-01
          2   -1    0    0  501    0  0.00000000000E+00  0.00000000000E+00  0.23563541070E+04  0.23563541070E+04  0.25500000000E-02 0.  1.
         -2   -1    0    0    0  501 -0.00000000000E+00 -0.00000000000E+00 -0.17965436937E+03  0.17965436939E+03  0.25500000000E-02 0. -1.
     200001    2    1    2    0    0 -0.11515135566E+03 -0.16503367344E+03  0.12615349153E+04  0.14162801164E+04  0.61145979229E+03 0.  0.
    5000001    2    3    3    0    0  0.22069375560E+03  0.45183711817E+02  0.46066177997E+03  0.51706820218E+03  0.66354718042E+02 0.  0.
        -13    1    4    4    0    0  0.49235610077E+02 -0.95234263877E+01  0.13119632709E+03  0.14045400797E+03  0.10566000000E+00 0. -1.
     200003    1    4    4    0    0  0.17145814553E+03  0.54707138204E+02  0.32946545288E+03  0.37661419421E+03  0.30000000000E+02 0. -1.
     200000    1    3    3    0    0 -0.33584511127E+03 -0.21021738526E+03  0.80087313528E+03  0.89921191420E+03  0.10100000000E+03 0. -1.
    -200001    1    1    2    0    0  0.11515135566E+03  0.16503367344E+03  0.91516482235E+03  0.11197283600E+04  0.61300000000E+03 0. -1.
<mgrwt>
<rscale>  0 0.13012752E+04</rscale>
<asrwt>0</asrwt>
<pdfrwt beam="1">  1        2 0.33662203E+00 0.13012752E+04</pdfrwt>
<pdfrwt beam="2">  1       -2 0.25664908E-01 0.13012752E+04</pdfrwt>
<totfact> 0.70484965E+01</totfact>
</mgrwt>
</event>
<event>
 8    1  0.7583103E-052  0.1649212E+04  0.7818608E-02  0.8790873E-01
          2   -1    0    0  501    0  0.00000000000E+00  0.00000000000E+00  0.18338208950E+04  0.18338208950E+04  0.25500000000E-02 0.  1.
         -2   -1    0    0    0  501 -0.00000000000E+00 -0.00000000000E+00 -0.37079708350E+03  0.37079708351E+03  0.25500000000E-02 0. -1.
     200001    2    1    2    0    0  0.54270198297E+03  0.66568453223E+02  0.82899111868E+03  0.11669652154E+04  0.61288231967E+03 0.  0.
    5000001    2    3    3    0    0  0.22049712874E+03  0.12413564878E+03  0.35518663075E+02  0.30271439073E+03  0.16231384367E+03 0.  0.
        -13    1    4    4    0    0  0.23353593623E+03  0.10645928488E+03  0.52283889417E+02  0.26192790821E+03  0.10566000000E+00 0. -1.
     200003    1    4    4    0    0 -0.13038807489E+02  0.17676363905E+02 -0.16765226341E+02  0.40786482515E+02  0.30000000000E+02 0. -1.
     200000    1    3    3    0    0  0.32220485423E+03 -0.57567195559E+02  0.79347245561E+03  0.86425082465E+03  0.10100000000E+03 0.  1.
    -200001    1    1    2    0    0 -0.54270198297E+03 -0.66568453223E+02  0.63403269280E+03  0.10376527631E+04  0.61300000000E+03 0. -1.
<mgrwt>
<rscale>  0 0.16492125E+04</rscale>
<asrwt>0</asrwt>
<pdfrwt beam="1">  1        2 0.26197441E+00 0.16492125E+04</pdfrwt>
<pdfrwt beam="2">  1       -2 0.52971013E-01 0.16492125E+04</pdfrwt>
<totfact> 0.31450436E+01</totfact>
</mgrwt>
</event>
<event>
 8    1  0.7583103E-052  0.1700250E+04  0.7818608E-02  0.8761222E-01
         -2   -1    0    0    0  501 -0.00000000000E+00  0.00000000000E+00  0.79514844804E+03  0.79514844804E+03  0.25500000000E-02 0. -1.
          2   -1    0    0  501    0  0.00000000000E+00 -0.00000000000E+00 -0.90890299437E+03  0.90890299438E+03  0.25500000000E-02 0.  1.
     200001    2    1    2    0    0 -0.11475072816E+03  0.12030436190E+03 -0.62244003575E+03  0.89031266600E+03  0.61447878403E+03 0.  0.
    5000001    2    3    3    0    0 -0.15833797488E+03 -0.46315787233E+02 -0.66286788888E+03  0.68660323204E+03  0.69383670371E+02 0.  0.
        -13    1    4    4    0    0 -0.23838088690E+02 -0.45730352803E+00 -0.36349121997E+02  0.43471064318E+02  0.10566000000E+00 0. -1.
     200003    1    4    4    0    0 -0.13449988619E+03 -0.45858483705E+02 -0.62651876688E+03  0.64313216772E+03  0.30000000000E+02 0. -1.
     200000    1    3    3    0    0  0.43587246721E+02  0.16662014913E+03  0.40427853122E+02  0.20370943395E+03  0.10100000000E+03 0. -1.
    -200001    1    1    2    0    0  0.11475072816E+03 -0.12030436190E+03  0.50868548942E+03  0.81373877642E+03  0.61300000000E+03 0. -1.
<mgrwt>
<rscale>  0 0.17002503E+04</rscale>
<asrwt>0</asrwt>
<pdfrwt beam="1">  1        2 0.12984328E+00 0.17002503E+04</pdfrwt>
<pdfrwt beam="2">  1       -2 0.11359264E+00 0.17002503E+04</pdfrwt>
<totfact> 0.18603722E+01</totfact>
</mgrwt>
</event>
<event>
 8    1  0.7583103E-052  0.1314238E+04  0.7818608E-02  0.9018350E-01
         -2   -1    0    0    0  501 -0.00000000000E+00  0.00000000000E+00  0.12722942337E+03  0.12722942340E+03  0.25500000000E-02 0. -1.
          2   -1    0    0  501    0  0.00000000000E+00 -0.00000000000E+00 -0.33939134097E+04  0.33939134097E+04  0.25500000000E-02 0.  1.
     200001    2    1    2    0    0 -0.16281577328E+03  0.16582238138E+03 -0.15610563899E+04  0.16938660243E+04  0.61504391528E+03 0.  0.
    5000001    2    3    3    0    0  0.13789823997E+03 -0.92510018282E+02 -0.88790616604E+03  0.90614985059E+03  0.71806434048E+02 0.  0.
        -13    1    4    4    0    0  0.54445960499E+02 -0.53363735323E+02 -0.52558692505E+03  0.53108726007E+03  0.10566000000E+00 0. -1.
     200003    1    4    4    0    0  0.83452279469E+02 -0.39146282960E+02 -0.36231924099E+03  0.37506259052E+03  0.30000000000E+02 0. -1.
     200000    1    3    3    0    0 -0.30071401325E+03  0.25833239966E+03 -0.67315022388E+03  0.78771617375E+03  0.10100000000E+03 0.  1.
    -200001    1    1    2    0    0  0.16281577328E+03 -0.16582238138E+03 -0.17056275964E+04  0.18272768088E+04  0.61300000000E+03 0.  1.
<mgrwt>
<rscale>  0 0.13142384E+04</rscale>
<asrwt>0</asrwt>
<pdfrwt beam="1">  1        2 0.48484472E+00 0.13142384E+04</pdfrwt>
<pdfrwt beam="2">  1       -2 0.18175634E-01 0.13142384E+04</pdfrwt>
<totfact> 0.35006503E+01</totfact>
</mgrwt>
</event>
<event>
 8    1  0.7583103E-052  0.1838211E+04  0.7818608E-02  0.8686239E-01
         -2   -1    0    0    0  501 -0.00000000000E+00  0.00000000000E+00  0.24961645263E+03  0.24961645264E+03  0.25500000000E-02 0. -1.
          2   -1    0    0  501    0  0.00000000000E+00 -0.00000000000E+00 -0.33842132861E+04  0.33842132861E+04  0.25500000000E-02 0.  1.
     200001    2    1    2    0    0 -0.26997538759E+03  0.56436947950E+03 -0.21203038657E+04  0.22936958485E+04  0.61151659272E+03 0.  0.
    5000001    2    3    3    0    0 -0.39810087767E+02  0.58730025013E+03 -0.11961644252E+04  0.13357101539E+04  0.82497614017E+02 0.  0.
        -13    1    4    4    0    0 -0.29163712809E+02  0.82048208439E+02 -0.20546322719E+03  0.22315371281E+03  0.10566000000E+00 0. -1.
     200003    1    4    4    0    0 -0.10646374958E+02  0.50525204169E+03 -0.99070119803E+03  0.11125564411E+04  0.30000000000E+02 0. -1.
     200000    1    3    3    0    0 -0.23016529983E+03 -0.22930770621E+02 -0.92413944053E+03  0.95798569458E+03  0.10100000000E+03 0. -1.
    -200001    1    1    2    0    0  0.26997538759E+03 -0.56436947950E+03 -0.10142929677E+04  0.13401338902E+04  0.61300000000E+03 0. -1.
<mgrwt>
<rscale>  0 0.18382114E+04</rscale>
<asrwt>0</asrwt>
<pdfrwt beam="1">  1        2 0.48345901E+00 0.18382114E+04</pdfrwt>
<pdfrwt beam="2">  1       -2 0.35659495E-01 0.18382114E+04</pdfrwt>
<totfact> 0.98975012E+00</totfact>
</mgrwt>
</event>
<event>
 8    1  0.7583103E-052  0.1463471E+04  0.7818608E-02  0.8909114E-01
          2   -1    0    0  501    0  0.00000000000E+00  0.00000000000E+00  0.19243516795E+04  0.19243516795E+04  0.25500000000E-02 0.  1.
         -2   -1    0    0    0  501 -0.00000000000E+00 -0.00000000000E+00 -0.27824278147E+03  0.27824278148E+03  0.25500000000E-02 0. -1.
     200001    2    1    2    0    0 -0.33002897614E+03  0.16633195367E+03  0.59346381098E+03  0.92963879671E+03  0.61273448859E+03 0.  0.
    5000001    2    3    3    0    0 -0.16010612235E+03 -0.21155048828E+03  0.19642135126E+03  0.34696167257E+03  0.10683386869E+03 0.  0.
        -13    1    4    4    0    0 -0.89714961269E+02 -0.40133282383E+02  0.66404545131E+02  0.11861293946E+03  0.10566000000E+00 0. -1.
     200003    1    4    4    0    0 -0.70391161078E+02 -0.17141720590E+03  0.13001680613E+03  0.22834873311E+03  0.30000000000E+02 0. -1.
     200000    1    3    3    0    0 -0.16992285380E+03  0.37788244195E+03  0.39704245971E+03  0.58267712414E+03  0.10100000000E+03 0.  1.
    -200001    1    1    2    0    0  0.33002897614E+03 -0.16633195367E+03  0.10526450871E+04  0.12729556643E+04  0.61300000000E+03 0. -1.
<mgrwt>
<rscale>  0 0.14634712E+04</rscale>
<asrwt>0</asrwt>
<pdfrwt beam="1">  1        2 0.27490740E+00 0.14634712E+04</pdfrwt>
<pdfrwt beam="2">  1       -2 0.39748966E-01 0.14634712E+04</pdfrwt>
<totfact> 0.50974573E+01</totfact>
</mgrwt>
</event>
<event>
 8    1  0.7583103E-052  0.1388048E+04  0.7818608E-02  0.8962516E-01
         -2   -1    0    0    0  501 -0.00000000000E+00  0.00000000000E+00  0.93539978098E+03  0.93539978098E+03  0.25500000000E-02 0. -1.
          2   -1    0    0  501    0  0.00000000000E+00 -0.00000000000E+00 -0.51493428741E+03  0.51493428741E+03  0.25500000000E-02 0.  1.
     200001    2    1    2    0    0 -0.80276922732E+02 -0.12734385729E+03 -0.91504981059E+02  0.63759572846E+03  0.61277590445E+03 0.  0.
    5000001    2    3    3    0    0  0.15475107937E+03 -0.52102929290E+01 -0.15560081632E+03  0.34696874173E+03  0.26870178634E+03 0.  0.
        -13    1    4    4    0    0 -0.25439437558E+02 -0.10036296194E+03 -0.62483121703E+02  0.12092990025E+03  0.10566000000E+00 0. -1.
     200003    1    4    4    0    0  0.18019051692E+03  0.95152669011E+02 -0.93117694617E+02  0.22603884148E+03  0.30000000000E+02 0. -1.
     200000    1    3    3    0    0 -0.23502800210E+03 -0.12213356436E+03  0.64095835261E+02  0.29062698672E+03  0.10100000000E+03 0. -1.
    -200001    1    1    2    0    0  0.80276922732E+02  0.12734385729E+03  0.51197047463E+03  0.81273833994E+03  0.61300000000E+03 0. -1.
<mgrwt>
<rscale>  0 0.13880482E+04</rscale>
<asrwt>0</asrwt>
<pdfrwt beam="1">  1        2 0.73562040E-01 0.13880482E+04</pdfrwt>
<pdfrwt beam="2">  1       -2 0.13362854E+00 0.13880482E+04</pdfrwt>
<totfact> 0.25631548E+01</totfact>
</mgrwt>
</event>
<event>
 8    1  0.7583103E-052  0.1690872E+04  0.7818608E-02  0.8766587E-01
         -2   -1    0    0    0  501 -0.00000000000E+00  0.00000000000E+00  0.56576467769E+03  0.56576467770E+03  0.25500000000E-02 0. -1.
          2   -1    0    0  501    0  0.00000000000E+00 -0.00000000000E+00 -0.12633561908E+04  0.12633561908E+04  0.25500000000E-02 0.  1.
     200001    2    1    2    0    0 -0.33564176910E+03 -0.46103032176E+03 -0.47381135024E+03  0.96248893046E+03  0.61374537953E+03 0.  0.
    5000001    2    3    3    0    0 -0.36764515316E+03 -0.10297465604E+02 -0.18164417322E+03  0.41499739305E+03  0.62922445406E+02 0.  0.
        -13    1    4    4    0    0 -0.11268987927E+03 -0.25387954071E+02 -0.46846055142E+02  0.12465200018E+03  0.10566000000E+00 0. -1.
     200003    1    4    4    0    0 -0.25495527388E+03  0.15090488467E+02 -0.13479811808E+03  0.29034539287E+03  0.30000000000E+02 0. -1.
     200000    1    3    3    0    0  0.32003384056E+02 -0.45073285616E+03 -0.29216717702E+03  0.54749153741E+03  0.10100000000E+03 0. -1.
    -200001    1    1    2    0    0  0.33564176910E+03  0.46103032176E+03 -0.22378016289E+03  0.86663193805E+03  0.61300000000E+03 0.  1.
<mgrwt>
<rscale>  0 0.16908723E+04</rscale>
<asrwt>0</asrwt>
<pdfrwt beam="1">  1        2 0.18047945E+00 0.16908723E+04</pdfrwt>
<pdfrwt beam="2">  1       -2 0.80823526E-01 0.16908723E+04</pdfrwt>
<totfact> 0.25379516E+01</totfact>
</mgrwt>
</event>
<event>
 8    1  0.7583103E-052  0.1473729E+04  0.7818608E-02  0.8902113E-01
         -2   -1    0    0    0  501 -0.00000000000E+00  0.00000000000E+00  0.31916374136E+03  0.31916374137E+03  0.25500000000E-02 0. -1.
          2   -1    0    0  501    0  0.00000000000E+00 -0.00000000000E+00 -0.17012242963E+04  0.17012242963E+04  0.25500000000E-02 0.  1.
     200001    2    1    2    0    0 -0.29111220969E+03  0.12334391374E+03 -0.33763409406E+03  0.76876682026E+03  0.61404039181E+03 0.  0.
    5000001    2    3    3    0    0 -0.12587251572E+03 -0.20265528856E+02  0.15708196975E+03  0.21842800439E+03  0.82349656999E+02 0.  0.
        -13    1    4    4    0    0 -0.51200899453E+02 -0.44263409683E+02  0.74434446613E+02  0.10060457022E+03  0.10566000000E+00 0. -1.
     200003    1    4    4    0    0 -0.74671616265E+02  0.23997880827E+02  0.82647523134E+02  0.11782343417E+03  0.30000000000E+02 0. -1.
     200000    1    3    3    0    0 -0.16523969398E+03  0.14360944260E+03 -0.49471606381E+03  0.55033881587E+03  0.10100000000E+03 0.  1.
    -200001    1    1    2    0    0  0.29111220969E+03 -0.12334391374E+03 -0.10444264609E+04  0.12516212174E+04  0.61300000000E+03 0.  1.
<mgrwt>
<rscale>  0 0.14737288E+04</rscale>
<asrwt>0</asrwt>
<pdfrwt beam="1">  1        2 0.24303204E+00 0.14737288E+04</pdfrwt>
<pdfrwt beam="2">  1       -2 0.45594821E-01 0.14737288E+04</pdfrwt>
<totfact> 0.50631847E+01</totfact>
</mgrwt>
</event>
<event>
 8    1  0.7583103E-052  0.1508703E+04  0.7818608E-02  0.8878686E-01
          2   -1    0    0  501    0  0.00000000000E+00  0.00000000000E+00  0.14530670644E+04  0.14530670644E+04  0.25500000000E-02 0.  1.
         -2   -1    0    0    0  501 -0.00000000000E+00 -0.00000000000E+00 -0.39161737308E+03  0.39161737309E+03  0.25500000000E-02 0. -1.
     200001    2    1    2    0    0  0.50085006856E+02 -0.39048898136E+03  0.76530999391E+03  0.10582635115E+04  0.61581825282E+03 0.  0.
    5000001    2    3    3    0    0  0.25211822789E+03 -0.32704963290E+03  0.69989930025E+03  0.81470339124E+03  0.57944128175E+02 0.  0.
        -13    1    4    4    0    0  0.36794580545E+02 -0.37817103613E+02  0.12136851648E+03  0.13234161265E+03  0.10566000000E+00 0. -1.
     200003    1    4    4    0    0  0.21532364735E+03 -0.28923252929E+03  0.57853078377E+03  0.68236177859E+03  0.30000000000E+02 0. -1.
     200000    1    3    3    0    0 -0.20203322104E+03 -0.63439348460E+02  0.65410693665E+02  0.24356012026E+03  0.10100000000E+03 0. -1.
    -200001    1    1    2    0    0 -0.50085006856E+02  0.39048898136E+03  0.29613969743E+03  0.78642092601E+03  0.61300000000E+03 0. -1.
<mgrwt>
<rscale>  0 0.15087032E+04</rscale>
<asrwt>0</asrwt>
<pdfrwt beam="1">  1        2 0.20758101E+00 0.15087032E+04</pdfrwt>
<pdfrwt beam="2">  1       -2 0.55945338E-01 0.15087032E+04</pdfrwt>
<totfact> 0.44938702E+01</totfact>
</mgrwt>
</event>
<event>
 8    1  0.7583103E-052  0.1580180E+04  0.7818608E-02  0.8832817E-01
         -2   -1    0    0    0  501 -0.00000000000E+00  0.00000000000E+00  0.22730455361E+03  0.22730455362E+03  0.25500000000E-02 0. -1.
          2   -1    0    0  501    0  0.00000000000E+00 -0.00000000000E+00 -0.27462824355E+04  0.27462824355E+04  0.25500000000E-02 0.  1.
     200001    2    1    2    0    0  0.46060982448E+03  0.13904196435E+02 -0.89994425521E+03  0.11821089342E+04  0.61247623027E+03 0.  0.
    5000001    2    3    3    0    0  0.42720281567E+03 -0.20846301362E+03 -0.74051427098E+03  0.88854101320E+03  0.12322610459E+03 0.  0.
        -13    1    4    4    0    0  0.34534071421E+03 -0.17957050078E+03 -0.66083462743E+03  0.76694731867E+03  0.10566000000E+00 0. -1.
     200003    1    4    4    0    0  0.81862101453E+02 -0.28892512842E+02 -0.79679643545E+02  0.12159369452E+03  0.30000000000E+02 0.  1.
     200000    1    3    3    0    0  0.33407008813E+02  0.22236721005E+03 -0.15942998423E+03  0.29356792096E+03  0.10100000000E+03 0. -1.
    -200001    1    1    2    0    0 -0.46060982448E+03 -0.13904196435E+02 -0.16190336266E+04  0.17914780549E+04  0.61300000000E+03 0. -1.
<mgrwt>
<rscale>  0 0.15801804E+04</rscale>
<asrwt>0</asrwt>
<pdfrwt beam="1">  1        2 0.39232604E+00 0.15801804E+04</pdfrwt>
<pdfrwt beam="2">  1       -2 0.32472081E-01 0.15801804E+04</pdfrwt>
<totfact> 0.27734761E+01</totfact>
</mgrwt>
</event>
<event>
 8    1  0.7583103E-052  0.1306666E+04  0.7818608E-02  0.9024296E-01
         -2   -1    0    0    0  501 -0.00000000000E+00  0.00000000000E+00  0.28353503174E+03  0.28353503175E+03  0.25500000000E-02 0. -1.
          2   -1    0    0  501    0  0.00000000000E+00 -0.00000000000E+00 -0.15054354570E+04  0.15054354570E+04  0.25500000000E-02 0.  1.
     200001    2    1    2    0    0 -0.51830727687E+02  0.84589907200E+02 -0.88847539151E+03  0.10841420487E+04  0.61329730459E+03 0.  0.
    5000001    2    3    3    0    0  0.41470911740E+02  0.19499093172E+03 -0.29360453457E+02  0.20711693000E+03  0.47896622954E+02 0.  0.
        -13    1    4    4    0    0  0.22841604099E+02  0.83283213912E+02 -0.88492507047E-01  0.86358853584E+02  0.10566000000E+00 0. -1.
     200003    1    4    4    0    0  0.18629307641E+02  0.11170771781E+03 -0.29271960950E+02  0.12075807641E+03  0.30000000000E+02 0. -1.
     200000    1    3    3    0    0 -0.93301639427E+02 -0.11040102452E+03 -0.85911493805E+03  0.87702511875E+03  0.10100000000E+03 0.  1.
    -200001    1    1    2    0    0  0.51830727687E+02 -0.84589907200E+02 -0.33342503380E+03  0.70482844005E+03  0.61300000000E+03 0. -1.
<mgrwt>
<rscale>  0 0.13066655E+04</rscale>
<asrwt>0</asrwt>
<pdfrwt beam="1">  1        2 0.21506220E+00 0.13066655E+04</pdfrwt>
<pdfrwt beam="2">  1       -2 0.40505005E-01 0.13066655E+04</pdfrwt>
<totfact> 0.82091680E+01</totfact>
</mgrwt>
</event>
<event>
 8    1  0.7583103E-052  0.1825186E+04  0.7818608E-02  0.8693019E-01
          2   -1    0    0  501    0  0.00000000000E+00  0.00000000000E+00  0.57149533466E+03  0.57149533466E+03  0.25500000000E-02 0.  1.
         -2   -1    0    0    0  501 -0.00000000000E+00 -0.00000000000E+00 -0.14572755498E+04  0.14572755498E+04  0.25500000000E-02 0. -1.
     200001    2    1    2    0    0 -0.52419976949E+03  0.34902821796E+03 -0.71653503712E+03  0.11337742222E+04  0.61271154078E+03 0.  0.
    5000001    2    3    3    0    0  0.73837461942E+02  0.83052205797E+02 -0.34438615387E+03  0.37411142822E+03  0.94909947207E+02 0.  0.
        -13    1    4    4    0    0  0.72946791253E+02  0.21777040722E+02 -0.15229422879E+03  0.17026161383E+03  0.10566000000E+00 0. -1.
     200003    1    4    4    0    0  0.89067068876E+00  0.61275165075E+02 -0.19209192508E+03  0.20384981440E+03  0.30000000000E+02 0. -1.
     200000    1    3    3    0    0 -0.59803723143E+03  0.26597601216E+03 -0.37214888325E+03  0.75966279396E+03  0.10100000000E+03 0. -1.
    -200001    1    1    2    0    0  0.52419976949E+03 -0.34902821796E+03 -0.16924517806E+03  0.89499666232E+03  0.61300000000E+03 0.  1.
<mgrwt>
<rscale>  0 0.18251862E+04</rscale>
<asrwt>0</asrwt>
<pdfrwt beam="1">  1        2 0.81642191E-01 0.18251862E+04</pdfrwt>
<pdfrwt beam="2">  1       -2 0.20818222E+00 0.18251862E+04</pdfrwt>
<totfact> 0.63850077E+00</totfact>
</mgrwt>
</event>
<event>
 8    1  0.7583103E-052  0.1451097E+04  0.7818608E-02  0.8917640E-01
          2   -1    0    0  501    0  0.00000000000E+00  0.00000000000E+00  0.35242101929E+04  0.35242101929E+04  0.25500000000E-02 0. -1.
         -2   -1    0    0    0  501 -0.00000000000E+00 -0.00000000000E+00 -0.14937274620E+03  0.14937274622E+03  0.25500000000E-02 0.  1.
     200001    2    1    2    0    0 -0.27093760446E+02 -0.78808090485E+02  0.26464849554E+04  0.27179621260E+04  0.61358838968E+03 0.  0.
    5000001    2    3    3    0    0 -0.11557753195E+03 -0.17488330925E+03  0.24565549227E+04  0.24662991712E+04  0.63460033384E+02 0.  0.
        -13    1    4    4    0    0  0.70192106550E+00 -0.94607107053E+01  0.39819307288E+02  0.40933924038E+02  0.10566000000E+00 0. -1.
     200003    1    4    4    0    0 -0.11627945301E+03 -0.16542259854E+03  0.24167356154E+04  0.24253652471E+04  0.30000000000E+02 0. -1.
     200000    1    3    3    0    0  0.88483771500E+02  0.96075218762E+02  0.18993003274E+03  0.25166295479E+03  0.10100000000E+03 0.  1.
    -200001    1    1    2    0    0  0.27093760446E+02  0.78808090485E+02  0.72835249126E+03  0.95562081314E+03  0.61300000000E+03 0.  1.
<mgrwt>
<rscale>  0 0.14510975E+04</rscale>
<asrwt>0</asrwt>
<pdfrwt beam="1">  1        2 0.50345866E+00 0.14510975E+04</pdfrwt>
<pdfrwt beam="2">  1       -2 0.21338961E-01 0.14510975E+04</pdfrwt>
<totfact> 0.21760199E+01</totfact>
</mgrwt>
</event>
<event>
 8    1  0.7583103E-052  0.1506707E+04  0.7818608E-02  0.8880005E-01
         -2   -1    0    0    0  501 -0.00000000000E+00  0.00000000000E+00  0.41748286645E+03  0.41748286646E+03  0.25500000000E-02 0. -1.
          2   -1    0    0  501    0  0.00000000000E+00 -0.00000000000E+00 -0.13594367096E+04  0.13594367096E+04  0.25500000000E-02 0.  1.
     200001    2    1    2    0    0 -0.23560548334E+03  0.29917616861E+03 -0.72438527876E+03  0.10231812900E+04  0.61412506583E+03 0.  0.
    5000001    2    3    3    0    0 -0.32554104125E+03  0.38609010651E+03 -0.36096859508E+03  0.62579593149E+03  0.79244440573E+02 0.  0.
        -13    1    4    4    0    0 -0.13857025337E+03  0.16493222240E+03 -0.19553746126E+03  0.29092827814E+03  0.10566000000E+00 0. -1.
     200003    1    4    4    0    0 -0.18697078788E+03  0.22115788411E+03 -0.16543113382E+03  0.33486765335E+03  0.30000000000E+02 0. -1.
     200000    1    3    3    0    0  0.89935557907E+02 -0.86913937894E+02 -0.36341668368E+03  0.39738535851E+03  0.10100000000E+03 0.  1.
    -200001    1    1    2    0    0  0.23560548334E+03 -0.29917616861E+03 -0.21756856437E+03  0.75373828605E+03  0.61300000000E+03 0. -1.
<mgrwt>
<rscale>  0 0.15067071E+04</rscale>
<asrwt>0</asrwt>
<pdfrwt beam="1">  1        2 0.19420524E+00 0.15067071E+04</pdfrwt>
<pdfrwt beam="2">  1       -2 0.59640410E-01 0.15067071E+04</pdfrwt>
<totfact> 0.44169495E+01</totfact>
</mgrwt>
</event>
<event>
 8    1  0.7583103E-052  0.2128423E+04  0.7818608E-02  0.8548825E-01
         -2   -1    0    0    0  501 -0.00000000000E+00  0.00000000000E+00  0.59947711639E+03  0.59947711640E+03  0.25500000000E-02 0. -1.
          2   -1    0    0  501    0  0.00000000000E+00 -0.00000000000E+00 -0.18892232753E+04  0.18892232753E+04  0.25500000000E-02 0.  1.
     200001    2    1    2    0    0 -0.51206002593E+02 -0.33695689522E+03 -0.15806184854E+04  0.17293995855E+04  0.61343795621E+03 0.  0.
    5000001    2    3    3    0    0 -0.29207750459E+03 -0.31226937900E+03 -0.10672386288E+04  0.11528682065E+04  0.85354418991E+02 0.  0.
        -13    1    4    4    0    0 -0.24614084624E+03 -0.22861139743E+03 -0.82876268268E+03  0.89425727987E+03  0.10566000000E+00 0. -1.
     200003    1    4    4    0    0 -0.45936658350E+02 -0.83657981567E+02 -0.23847594614E+03  0.25861092659E+03  0.30000000000E+02 0. -1.
     200000    1    3    3    0    0  0.24087150200E+03 -0.24687516218E+02 -0.51337985654E+03  0.57653137905E+03  0.10100000000E+03 0.  1.
    -200001    1    1    2    0    0  0.51206002593E+02  0.33695689522E+03  0.29087232648E+03  0.75930080617E+03  0.61300000000E+03 0. -1.
<mgrwt>
<rscale>  0 0.21284230E+04</rscale>
<asrwt>0</asrwt>
<pdfrwt beam="1">  1        2 0.26988904E+00 0.21284230E+04</pdfrwt>
<pdfrwt beam="2">  1       -2 0.85639589E-01 0.21284230E+04</pdfrwt>
<totfact> 0.10010207E+01</totfact>
</mgrwt>
</event>
<event>
 8    1  0.7583103E-052  0.2002163E+04  0.7818608E-02  0.8605610E-01
         -2   -1    0    0    0  501 -0.00000000000E+00  0.00000000000E+00  0.27587999919E+04  0.27587999919E+04  0.25500000000E-02 0. -1.
          2   -1    0    0  501    0  0.00000000000E+00 -0.00000000000E+00 -0.36326095033E+03  0.36326095034E+03  0.25500000000E-02 0.  1.
     200001    2    1    2    0    0 -0.90923182152E+02 -0.66607847879E+03  0.54661019179E+03  0.10614216103E+04  0.61311138302E+03 0.  0.
    5000001    2    3    3    0    0 -0.21383933811E+03 -0.10596998988E+03  0.36381476241E+03  0.45113883174E+03  0.11919799863E+03 0.  0.
        -13    1    4    4    0    0 -0.14462194186E+03 -0.10745415454E+02  0.18799335772E+03  0.23742890248E+03  0.10566000000E+00 0. -1.
     200003    1    4    4    0    0 -0.69217396249E+02 -0.95224574424E+02  0.17582140469E+03  0.21370992926E+03  0.30000000000E+02 0. -1.
     200000    1    3    3    0    0  0.12291615596E+03 -0.56010848891E+03  0.18279542938E+03  0.61028277851E+03  0.10100000000E+03 0.  1.
    -200001    1    1    2    0    0  0.90923182152E+02  0.66607847879E+03  0.18489288497E+04  0.20606393319E+04  0.61300000000E+03 0. -1.
<mgrwt>
<rscale>  0 0.20021631E+04</rscale>
<asrwt>0</asrwt>
<pdfrwt beam="1">  1        2 0.51894421E-01 0.20021631E+04</pdfrwt>
<pdfrwt beam="2">  1       -2 0.39411429E+00 0.20021631E+04</pdfrwt>
<totfact> 0.73011288E-01</totfact>
</mgrwt>
</event>
<event>
 8    1  0.7583103E-052  0.1326669E+04  0.7818608E-02  0.9008680E-01
         -2   -1    0    0    0  501 -0.00000000000E+00  0.00000000000E+00  0.13161968150E+03  0.13161968153E+03  0.25500000000E-02 0. -1.
          2   -1    0    0  501    0  0.00000000000E+00 -0.00000000000E+00 -0.33430617499E+04  0.33430617499E+04  0.25500000000E-02 0.  1.
     200001    2    1    2    0    0 -0.64160130098E+02 -0.11088736318E+03 -0.10181991441E+04  0.11937833507E+04  0.60989889474E+03 0.  0.
    5000001    2    3    3    0    0 -0.25526480693E+03  0.51929664477E+02 -0.80280388281E+03  0.84791270931E+03  0.81271622672E+02 0.  0.
        -13    1    4    4    0    0 -0.89695797227E+00  0.13907232194E+02 -0.41866460375E+02  0.44125132399E+02  0.10566000000E+00 0. -1.
     200003    1    4    4    0    0 -0.25436784896E+03  0.38022432282E+02 -0.76093742243E+03  0.80378757691E+03  0.30000000000E+02 0. -1.
     200000    1    3    3    0    0  0.19110467683E+03 -0.16281702766E+03 -0.21539526129E+03  0.34587064141E+03  0.10100000000E+03 0. -1.
    -200001    1    1    2    0    0  0.64160130098E+02  0.11088736318E+03 -0.21932429243E+04  0.22808980807E+04  0.61300000000E+03 0.  1.
<mgrwt>
<rscale>  0 0.13266691E+04</rscale>
<asrwt>0</asrwt>
<pdfrwt beam="1">  1        2 0.47758020E+00 0.13266691E+04</pdfrwt>
<pdfrwt beam="2">  1       -2 0.18802814E-01 0.13266691E+04</pdfrwt>
<totfact> 0.35318688E+01</totfact>
</mgrwt>
</event>
<event>
 8    1  0.7583103E-052  0.1356542E+04  0.7818608E-02  0.8985891E-01
         -2   -1    0    0    0  501 -0.00000000000E+00  0.00000000000E+00  0.32052477931E+03  0.32052477932E+03  0.25500000000E-02 0. -1.
          2   -1    0    0  501    0  0.00000000000E+00 -0.00000000000E+00 -0.14353072095E+04  0.14353072095E+04  0.25500000000E-02 0.  1.
     200001    2    1    2    0    0  0.12510023466E+03 -0.52668656762E+01 -0.21877207940E+03  0.66300018231E+03  0.61321302206E+03 0.  0.
    5000001    2    3    3    0    0  0.15680501882E+03  0.11747311910E+02  0.18192165999E+03  0.24820969499E+03  0.61536566767E+02 0.  0.
        -13    1    4    4    0    0  0.90310947941E+02  0.27092067667E+02  0.10370456743E+03  0.14015953738E+03  0.10566000000E+00 0. -1.
     200003    1    4    4    0    0  0.66494070883E+02 -0.15344755757E+02  0.78217092559E+02  0.10805015761E+03  0.30000000000E+02 0.  1.
     200000    1    3    3    0    0 -0.31704784167E+02 -0.17014177586E+02 -0.40069373939E+03  0.41479048731E+03  0.10100000000E+03 0.  1.
    -200001    1    1    2    0    0 -0.12510023466E+03  0.52668656762E+01 -0.89601035076E+03  0.10928318065E+04  0.61300000000E+03 0.  1.
<mgrwt>
<rscale>  0 0.13565420E+04</rscale>
<asrwt>0</asrwt>
<pdfrwt beam="1">  1        2 0.20504388E+00 0.13565420E+04</pdfrwt>
<pdfrwt beam="2">  1       -2 0.45789255E-01 0.13565420E+04</pdfrwt>
<totfact> 0.69943987E+01</totfact>
</mgrwt>
</event>
<event>
 8    1  0.7583103E-052  0.1394851E+04  0.7818608E-02  0.8957554E-01
          2   -1    0    0  501    0  0.00000000000E+00  0.00000000000E+00  0.74043137194E+03  0.74043137194E+03  0.25500000000E-02 0.  1.
         -2   -1    0    0    0  501 -0.00000000000E+00 -0.00000000000E+00 -0.65691745256E+03  0.65691745257E+03  0.25500000000E-02 0. -1.
     200001    2    1    2    0    0  0.43211946380E+02  0.15491708320E+03  0.33449189136E+03  0.71571437892E+03  0.61196051493E+03 0.  0.
    5000001    2    3    3    0    0  0.16146737533E+03 -0.12892638808E+03  0.32329039088E+03  0.39186574719E+03  0.79676597194E+02 0.  0.
        -13    1    4    4    0    0  0.14730085524E+02 -0.22441208246E+02  0.95437424869E+02  0.99140791184E+02  0.10566000000E+00 0. -1.
     200003    1    4    4    0    0  0.14673728981E+03 -0.10648517983E+03  0.22785296602E+03  0.29272495600E+03  0.30000000000E+02 0. -1.
     200000    1    3    3    0    0 -0.11825542895E+03  0.28384347128E+03  0.11201500478E+02  0.32384863174E+03  0.10100000000E+03 0. -1.
    -200001    1    1    2    0    0 -0.43211946380E+02 -0.15491708320E+03 -0.25097797199E+03  0.68163444558E+03  0.61300000000E+03 0. -1.
<mgrwt>
<rscale>  0 0.13948509E+04</rscale>
<asrwt>0</asrwt>
<pdfrwt beam="1">  1        2 0.10577591E+00 0.13948509E+04</pdfrwt>
<pdfrwt beam="2">  1       -2 0.93845350E-01 0.13948509E+04</pdfrwt>
<totfact> 0.39253298E+01</totfact>
</mgrwt>
</event>
<event>
 8    1  0.7583103E-052  0.1760695E+04  0.7818608E-02  0.8727485E-01
          2   -1    0    0  501    0  0.00000000000E+00  0.00000000000E+00  0.12019244696E+04  0.12019244696E+04  0.25500000000E-02 0.  1.
         -2   -1    0    0    0  501 -0.00000000000E+00 -0.00000000000E+00 -0.64480883855E+03  0.64480883855E+03  0.25500000000E-02 0. -1.
     200001    2    1    2    0    0 -0.61034053973E+03  0.81954642340E+02  0.12145739146E+03  0.87472546888E+03  0.60922952172E+03 0.  0.
    5000001    2    3    3    0    0 -0.40698659791E+03 -0.23142553280E+03  0.61329827273E+02  0.48309262577E+03  0.10208461811E+03 0.  0.
        -13    1    4    4    0    0 -0.15306352551E+03 -0.96521145183E+02 -0.21847849731E+02  0.18226934469E+03  0.10566000000E+00 0. -1.
     200003    1    4    4    0    0 -0.25392307239E+03 -0.13490438762E+03  0.83177677004E+02  0.30082328109E+03  0.30000000000E+02 0. -1.
     200000    1    3    3    0    0 -0.20335394182E+03  0.31338017514E+03  0.60127564190E+02  0.39163284311E+03  0.10100000000E+03 0. -1.
    -200001    1    1    2    0    0  0.61034053973E+03 -0.81954642340E+02  0.43565823955E+03  0.97200783923E+03  0.61300000000E+03 0.  1.
<mgrwt>
<rscale>  0 0.17606948E+04</rscale>
<asrwt>0</asrwt>
<pdfrwt beam="1">  1        2 0.17170350E+00 0.17606948E+04</pdfrwt>
<pdfrwt beam="2">  1       -2 0.92115549E-01 0.17606948E+04</pdfrwt>
<totfact> 0.20280071E+01</totfact>
</mgrwt>
</event>
<event>
 8    1  0.7583103E-052  0.1409350E+04  0.7818608E-02  0.8947078E-01
         -2   -1    0    0    0  501 -0.00000000000E+00  0.00000000000E+00  0.10539219839E+04  0.10539219839E+04  0.25500000000E-02 0. -1.
          2   -1    0    0  501    0  0.00000000000E+00 -0.00000000000E+00 -0.47116120882E+03  0.47116120883E+03  0.25500000000E-02 0.  1.
     200001    2    1    2    0    0  0.34471672857E+03 -0.10024024554E+03  0.31681639056E+03  0.76654964341E+03  0.59862175095E+03 0.  0.
    5000001    2    3    3    0    0  0.47698237659E+03  0.25726271987E+02  0.26553449922E+03  0.55162501113E+03  0.74883602908E+02 0.  0.
        -13    1    4    4    0    0  0.54362503160E+02  0.12440133824E+02  0.55010549841E+02  0.78333967328E+02  0.10566000000E+00 0. -1.
     200003    1    4    4    0    0  0.42261987343E+03  0.13286138163E+02  0.21052394938E+03  0.47329104380E+03  0.30000000000E+02 0. -1.
     200000    1    3    3    0    0 -0.13226564802E+03 -0.12596651752E+03  0.51281891346E+02  0.21492463228E+03  0.10100000000E+03 0.  1.
    -200001    1    1    2    0    0 -0.34471672857E+03  0.10024024554E+03  0.26594438451E+03  0.75853354931E+03  0.61300000000E+03 0.  1.
<mgrwt>
<rscale>  0 0.14093504E+04</rscale>
<asrwt>0</asrwt>
<pdfrwt beam="1">  1        2 0.67308744E-01 0.14093504E+04</pdfrwt>
<pdfrwt beam="2">  1       -2 0.15056028E+00 0.14093504E+04</pdfrwt>
<totfact> 0.20755741E+01</totfact>
</mgrwt>
</event>
<event>
 8    1  0.7583103E-052  0.1465703E+04  0.7818608E-02  0.8907586E-01
         -2   -1    0    0    0  501 -0.00000000000E+00  0.00000000000E+00  0.14698971022E+03  0.14698971024E+03  0.25500000000E-02 0. -1.
          2   -1    0    0  501    0  0.00000000000E+00 -0.00000000000E+00 -0.36538005184E+04  0.36538005184E+04  0.25500000000E-02 0.  1.
     200001    2    1    2    0    0 -0.50756143857E+02 -0.37098187480E+03 -0.21332315844E+04  0.22507280938E+04  0.61228769575E+03 0.  0.
    5000001    2    3    3    0    0 -0.89033198149E+01 -0.46481784361E+03 -0.97511205508E+03  0.10836810974E+04  0.85943609199E+02 0.  0.
        -13    1    4    4    0    0  0.94330790785E+01 -0.25425270435E+03 -0.60664466291E+03  0.65783826192E+03  0.10566000000E+00 0. -1.
     200003    1    4    4    0    0 -0.18336398893E+02 -0.21056513926E+03 -0.36846739217E+03  0.42584283544E+03  0.30000000000E+02 0. -1.
     200000    1    3    3    0    0 -0.41852824042E+02  0.93835968813E+02 -0.11581195293E+04  0.11670469965E+04  0.10100000000E+03 0. -1.
    -200001    1    1    2    0    0  0.50756143857E+02  0.37098187480E+03 -0.13735792238E+04  0.15500621347E+04  0.61300000000E+03 0. -1.
<mgrwt>
<rscale>  0 0.14657027E+04</rscale>
<asrwt>0</asrwt>
<pdfrwt beam="1">  1        2 0.52197145E+00 0.14657027E+04</pdfrwt>
<pdfrwt beam="2">  1       -2 0.20998532E-01 0.14657027E+04</pdfrwt>
<totfact> 0.18590722E+01</totfact>
</mgrwt>
</event>
<event>
 8    1  0.7583103E-052  0.1446468E+04  0.7818608E-02  0.8920852E-01
         -2   -1    0    0    0  501 -0.00000000000E+00  0.00000000000E+00  0.17060953223E+03  0.17060953225E+03  0.25500000000E-02 0. -1.
          2   -1    0    0  501    0  0.00000000000E+00 -0.00000000000E+00 -0.30658765985E+04  0.30658765985E+04  0.25500000000E-02 0.  1.
     200001    2    1    2    0    0  0.36261832680E+03 -0.10175159440E+03 -0.12849313986E+04  0.14727414212E+04  0.61324803851E+03 0.  0.
    5000001    2    3    3    0    0  0.40612232944E+03 -0.18695900571E+03 -0.12508857026E+04  0.13295177828E+04  0.54895151406E+02 0.  0.
        -13    1    4    4    0    0  0.98569768866E+02 -0.30997996966E+02 -0.25214583923E+03  0.27249662485E+03  0.10566000000E+00 0. -1.
     200003    1    4    4    0    0  0.30755256057E+03 -0.15596100875E+03 -0.99873986332E+03  0.10570211579E+04  0.30000000000E+02 0. -1.
     200000    1    3    3    0    0 -0.43504002637E+02  0.85207411312E+02 -0.34045696093E+02  0.14322363845E+03  0.10100000000E+03 0. -1.
    -200001    1    1    2    0    0 -0.36261832680E+03  0.10175159440E+03 -0.16103356677E+04  0.17637447095E+04  0.61300000000E+03 0.  1.
<mgrwt>
<rscale>  0 0.14464685E+04</rscale>
<asrwt>0</asrwt>
<pdfrwt beam="1">  1        2 0.43798234E+00 0.14464685E+04</pdfrwt>
<pdfrwt beam="2">  1       -2 0.24372792E-01 0.14464685E+04</pdfrwt>
<totfact> 0.31794593E+01</totfact>
</mgrwt>
</event>
<event>
 8    1  0.7583103E-052  0.1624229E+04  0.7818608E-02  0.8805800E-01
         -2   -1    0    0    0  501 -0.00000000000E+00  0.00000000000E+00  0.14759371067E+04  0.14759371067E+04  0.25500000000E-02 0. -1.
          2   -1    0    0  501    0  0.00000000000E+00 -0.00000000000E+00 -0.44685493325E+03  0.44685493326E+03  0.25500000000E-02 0.  1.
     200001    2    1    2    0    0 -0.10657244767E+03 -0.13781361938E+03 -0.81702853307E+02  0.64218177296E+03  0.61267592820E+03 0.  0.
    5000001    2    3    3    0    0  0.15359513424E+03  0.51009103423E-01  0.16647100564E+03  0.24407991323E+03  0.90944711007E+02 0.  0.
        -13    1    4    4    0    0  0.63809947567E+02 -0.39822242644E+02  0.60868535240E+02  0.96760064924E+02  0.10566000000E+00 0. -1.
     200003    1    4    4    0    0  0.89785186670E+02  0.39873251748E+02  0.10560247040E+03  0.14731984830E+03  0.30000000000E+02 0. -1.
     200000    1    3    3    0    0 -0.26016758190E+03 -0.13786462848E+03 -0.24817385894E+03  0.39810185973E+03  0.10100000000E+03 0.  1.
    -200001    1    1    2    0    0  0.10657244767E+03  0.13781361938E+03  0.11107850268E+04  0.12806102670E+04  0.61300000000E+03 0. -1.
<mgrwt>
<rscale>  0 0.16242288E+04</rscale>
<asrwt>0</asrwt>
<pdfrwt beam="1">  1        2 0.63836420E-01 0.16242288E+04</pdfrwt>
<pdfrwt beam="2">  1       -2 0.21084816E+00 0.16242288E+04</pdfrwt>
<totfact> 0.82736915E+00</totfact>
</mgrwt>
</event>
<event>
 8    1  0.7583103E-052  0.1656308E+04  0.7818608E-02  0.8786683E-01
         -2   -1    0    0    0  501 -0.00000000000E+00  0.00000000000E+00  0.32083431468E+03  0.32083431469E+03  0.25500000000E-02 0. -1.
          2   -1    0    0  501    0  0.00000000000E+00 -0.00000000000E+00 -0.21376740341E+04  0.21376740341E+04  0.25500000000E-02 0.  1.
     200001    2    1    2    0    0 -0.54701991992E+03 -0.24034773140E+01 -0.75323068941E+03  0.11145330000E+04  0.61285460520E+03 0.  0.
    5000001    2    3    3    0    0 -0.17207692022E+03 -0.10079541757E+03 -0.67470574057E+03  0.70632913607E+03  0.62472629516E+02 0.  0.
        -13    1    4    4    0    0 -0.94429895282E+02 -0.68283029107E+02 -0.32062068382E+03  0.34114104304E+03  0.10566000000E+00 0. -1.
     200003    1    4    4    0    0 -0.77647024936E+02 -0.32512388464E+02 -0.35408505674E+03  0.36518809303E+03  0.30000000000E+02 0. -1.
     200000    1    3    3    0    0 -0.37494299970E+03  0.98391940256E+02 -0.78524948846E+02  0.40820386392E+03  0.10100000000E+03 0. -1.
    -200001    1    1    2    0    0  0.54701991992E+03  0.24034773140E+01 -0.10636090300E+04  0.13439753488E+04  0.61300000000E+03 0. -1.
<mgrwt>
<rscale>  0 0.16563082E+04</rscale>
<asrwt>0</asrwt>
<pdfrwt beam="1">  1        2 0.30538200E+00 0.16563082E+04</pdfrwt>
<pdfrwt beam="2">  1       -2 0.45833474E-01 0.16563082E+04</pdfrwt>
<totfact> 0.29424038E+01</totfact>
</mgrwt>
</event>
<event>
 8    1  0.7583103E-052  0.1290748E+04  0.7818608E-02  0.9036935E-01
          2   -1    0    0  501    0  0.00000000000E+00  0.00000000000E+00  0.99502621245E+03  0.99502621245E+03  0.25500000000E-02 0.  1.
         -2   -1    0    0    0  501 -0.00000000000E+00 -0.00000000000E+00 -0.41858930359E+03  0.41858930360E+03  0.25500000000E-02 0. -1.
     200001    2    1    2    0    0  0.90647147054E+02 -0.59908990602E+02  0.47290400000E+03  0.78251009249E+03  0.61390378661E+03 0.  0.
    5000001    2    3    3    0    0 -0.10350561136E+03  0.21961979205E+03  0.22980579798E+03  0.35224346613E+03  0.11098869315E+03 0.  0.
        -13    1    4    4    0    0 -0.65355868983E+02  0.31773840842E+02  0.69781514458E+02  0.10074937963E+03  0.10566000000E+00 0. -1.
     200003    1    4    4    0    0 -0.38149742377E+02  0.18784595121E+03  0.16002428352E+03  0.25149408650E+03  0.30000000000E+02 0.  1.
     200000    1    3    3    0    0  0.19415275841E+03 -0.27952878265E+03  0.24309820203E+03  0.43026662636E+03  0.10100000000E+03 0.  1.
    -200001    1    1    2    0    0 -0.90647147054E+02  0.59908990602E+02  0.10353290885E+03  0.63110542355E+03  0.61300000000E+03 0. -1.
<mgrwt>
<rscale>  0 0.12907476E+04</rscale>
<asrwt>0</asrwt>
<pdfrwt beam="1">  1        2 0.14214660E+00 0.12907476E+04</pdfrwt>
<pdfrwt beam="2">  1       -2 0.59798472E-01 0.12907476E+04</pdfrwt>
<totfact> 0.72430221E+01</totfact>
</mgrwt>
</event>
<event>
 8    1  0.7583103E-052  0.1510922E+04  0.7818608E-02  0.8877222E-01
          2   -1    0    0  501    0  0.00000000000E+00  0.00000000000E+00  0.53977403772E+04  0.53977403772E+04  0.25500000000E-02 0.  1.
         -2   -1    0    0    0  501 -0.00000000000E+00 -0.00000000000E+00 -0.10573333370E+03  0.10573333373E+03  0.25500000000E-02 0. -1.
     200001    2    1    2    0    0  0.16686050576E+03  0.12783469812E+03  0.40612744630E+04  0.41125546539E+04  0.61234906647E+03 0.  0.
    5000001    2    3    3    0    0 -0.99925869975E+01 -0.21218990081E+03  0.10766886058E+04  0.11017661387E+04  0.97498024339E+02 0.  0.
        -13    1    4    4    0    0  0.36925859805E+02 -0.94142244806E+02  0.39845537499E+03  0.41108755564E+03  0.10566000000E+00 0. -1.
     200003    1    4    4    0    0 -0.46918446802E+02 -0.11804765600E+03  0.67823323080E+03  0.69067858306E+03  0.30000000000E+02 0. -1.
     200000    1    3    3    0    0  0.17685309276E+03  0.34002459893E+03  0.29845858572E+04  0.30107885152E+04  0.10100000000E+03 0.  1.
    -200001    1    1    2    0    0 -0.16686050576E+03 -0.12783469812E+03  0.12307325805E+04  0.13909190570E+04  0.61300000000E+03 0. -1.
<mgrwt>
<rscale>  0 0.15109217E+04</rscale>
<asrwt>0</asrwt>
<pdfrwt beam="1">  1        2 0.77110603E+00 0.15109217E+04</pdfrwt>
<pdfrwt beam="2">  1       -2 0.15104757E-01 0.15109217E+04</pdfrwt>
<totfact> 0.11711104E+00</totfact>
</mgrwt>
</event>
<event>
 8    1  0.7583103E-052  0.1499475E+04  0.7818608E-02  0.8884802E-01
          2   -1    0    0  501    0  0.00000000000E+00  0.00000000000E+00  0.15865294529E+04  0.15865294529E+04  0.25500000000E-02 0.  1.
         -2   -1    0    0    0  501 -0.00000000000E+00 -0.00000000000E+00 -0.35429911878E+03  0.35429911879E+03  0.25500000000E-02 0. -1.
     200001    2    1    2    0    0 -0.13436113799E+03  0.23141033242E+03  0.17950489882E+03  0.69359022260E+03  0.61420007394E+03 0.  0.
    5000001    2    3    3    0    0 -0.23241001623E+03  0.54456280748E+02 -0.15102244875E+03  0.29312093985E+03  0.78308385240E+02 0.  0.
        -13    1    4    4    0    0 -0.15425559235E+03  0.25237978723E+02 -0.64053719887E+02  0.16892197470E+03  0.10566000000E+00 0. -1.
     200003    1    4    4    0    0 -0.78154423873E+02  0.29218302024E+02 -0.86968728868E+02  0.12419896515E+03  0.30000000000E+02 0. -1.
     200000    1    3    3    0    0  0.98048878235E+02  0.17695405167E+03  0.33052734758E+03  0.40046928275E+03  0.10100000000E+03 0.  1.
    -200001    1    1    2    0    0  0.13436113799E+03 -0.23141033242E+03  0.10527254353E+04  0.12472383491E+04  0.61300000000E+03 0.  1.
<mgrwt>
<rscale>  0 0.14994746E+04</rscale>
<asrwt>0</asrwt>
<pdfrwt beam="1">  1        2 0.22664706E+00 0.14994746E+04</pdfrwt>
<pdfrwt beam="2">  1       -2 0.50614160E-01 0.14994746E+04</pdfrwt>
<totfact> 0.46968368E+01</totfact>
</mgrwt>
</event>
<event>
 8    1  0.7583103E-052  0.1696467E+04  0.7818608E-02  0.8763382E-01
         -2   -1    0    0    0  501 -0.00000000000E+00  0.00000000000E+00  0.32752075744E+03  0.32752075745E+03  0.25500000000E-02 0. -1.
          2   -1    0    0  501    0  0.00000000000E+00 -0.00000000000E+00 -0.21968076973E+04  0.21968076973E+04  0.25500000000E-02 0.  1.
     200001    2    1    2    0    0 -0.45604136746E+02  0.57545977781E+03 -0.78421478101E+03  0.11508713993E+04  0.61341540728E+03 0.  0.
    5000001    2    3    3    0    0 -0.28680168205E+03  0.18159851993E+03 -0.43011938727E+03  0.56020440840E+03  0.11658929888E+03 0.  0.
        -13    1    4    4    0    0 -0.21001376088E+03  0.17289531248E+03 -0.29168284542E+03  0.39884516082E+03  0.10566000000E+00 0. -1.
     200003    1    4    4    0    0 -0.76787921172E+02  0.87032074505E+01 -0.13843654185E+03  0.16135924758E+03  0.30000000000E+02 0. -1.
     200000    1    3    3    0    0  0.24119754530E+03  0.39386125788E+03 -0.35409539374E+03  0.59066699094E+03  0.10100000000E+03 0. -1.
    -200001    1    1    2    0    0  0.45604136746E+02 -0.57545977781E+03 -0.10850721589E+04  0.13734570555E+04  0.61300000000E+03 0. -1.
<mgrwt>
<rscale>  0 0.16964671E+04</rscale>
<asrwt>0</asrwt>
<pdfrwt beam="1">  1        2 0.31382966E+00 0.16964671E+04</pdfrwt>
<pdfrwt beam="2">  1       -2 0.46788681E-01 0.16964671E+04</pdfrwt>
<totfact> 0.26230566E+01</totfact>
</mgrwt>
</event>
<event>
 8    1  0.7583103E-052  0.1485250E+04  0.7818608E-02  0.8894321E-01
         -2   -1    0    0    0  501 -0.00000000000E+00  0.00000000000E+00  0.30929167426E+03  0.30929167427E+03  0.25500000000E-02 0. -1.
          2   -1    0    0  501    0  0.00000000000E+00 -0.00000000000E+00 -0.17830810296E+04  0.17830810296E+04  0.25500000000E-02 0.  1.
     200001    2    1    2    0    0 -0.34785702980E+03 -0.19296621264E+03 -0.92851823417E+03  0.11805996685E+04  0.61108836816E+03 0.  0.
    5000001    2    3    3    0    0  0.58491850654E+02  0.14073922231E+03 -0.34167814902E+03  0.38620617943E+03  0.95824997878E+02 0.  0.
        -13    1    4    4    0    0  0.49942734035E+02  0.18482518074E+02 -0.87417679810E+02  0.10236084244E+03  0.10566000000E+00 0. -1.
     200003    1    4    4    0    0  0.85491166185E+01  0.12225670424E+03 -0.25426046921E+03  0.28384533699E+03  0.30000000000E+02 0. -1.
     200000    1    3    3    0    0 -0.40634888046E+03 -0.33370543495E+03 -0.58684008515E+03  0.79439348909E+03  0.10100000000E+03 0. -1.
    -200001    1    1    2    0    0  0.34785702980E+03  0.19296621264E+03 -0.54527112112E+03  0.91177303532E+03  0.61300000000E+03 0. -1.
<mgrwt>
<rscale>  0 0.14852503E+04</rscale>
<asrwt>0</asrwt>
<pdfrwt beam="1">  1        2 0.25472586E+00 0.14852503E+04</pdfrwt>
<pdfrwt beam="2">  1       -2 0.44184526E-01 0.14852503E+04</pdfrwt>
<totfact> 0.48849092E+01</totfact>
</mgrwt>
</event>
<event>
 8    1  0.7583103E-052  0.1254793E+04  0.7818608E-02  0.9066204E-01
         -2   -1    0    0    0  501 -0.00000000000E+00  0.00000000000E+00  0.19683478404E+03  0.19683478406E+03  0.25500000000E-02 0. -1.
          2   -1    0    0  501    0  0.00000000000E+00 -0.00000000000E+00 -0.19997790590E+04  0.19997790590E+04  0.25500000000E-02 0.  1.
     200001    2    1    2    0    0 -0.81769052238E+02 -0.86309739250E+02 -0.10105251020E+04  0.11877368958E+04  0.61271722919E+03 0.  0.
    5000001    2    3    3    0    0 -0.94573730324E+02 -0.31125173481E+03 -0.75895937470E+03  0.83524692958E+03  0.12568320506E+03 0.  0.
        -13    1    4    4    0    0 -0.23388532316E+02 -0.15478135355E+03 -0.49210694850E+03  0.51640444496E+03  0.10566000000E+00 0. -1.
     200003    1    4    4    0    0 -0.71185198008E+02 -0.15647038126E+03 -0.26685242620E+03  0.31884248462E+03  0.30000000000E+02 0.  1.
     200000    1    3    3    0    0  0.12804678086E+02  0.22494199557E+03 -0.25156572727E+03  0.35248996622E+03  0.10100000000E+03 0. -1.
    -200001    1    1    2    0    0  0.81769052238E+02  0.86309739250E+02 -0.79241917297E+03  0.10088769472E+04  0.61300000000E+03 0. -1.
<mgrwt>
<rscale>  0 0.12547925E+04</rscale>
<asrwt>0</asrwt>
<pdfrwt beam="1">  1        2 0.28568271E+00 0.12547925E+04</pdfrwt>
<pdfrwt beam="2">  1       -2 0.28119256E-01 0.12547925E+04</pdfrwt>
<totfact> 0.91306950E+01</totfact>
</mgrwt>
</event>
<event>
 8    1  0.7583103E-052  0.1421344E+04  0.7818608E-02  0.8938512E-01
         -2   -1    0    0    0  501 -0.00000000000E+00  0.00000000000E+00  0.34542927970E+03  0.34542927971E+03  0.25500000000E-02 0. -1.
          2   -1    0    0  501    0  0.00000000000E+00 -0.00000000000E+00 -0.14621072259E+04  0.14621072259E+04  0.25500000000E-02 0.  1.
     200001    2    1    2    0    0  0.26579812356E+03  0.15912964763E+03 -0.32526343290E+03  0.75964489905E+03  0.61261177318E+03 0.  0.
    5000001    2    3    3    0    0  0.38564924922E+03  0.11297751348E+03 -0.17858404455E+02  0.41151681440E+03  0.86821103136E+02 0.  0.
        -13    1    4    4    0    0  0.26874076767E+03  0.90812769523E+02 -0.41066319104E+02  0.28662695798E+03  0.10566000000E+00 0. -1.
     200003    1    4    4    0    0  0.11690848155E+03  0.22164743961E+02  0.23207914649E+02  0.12488985642E+03  0.30000000000E+02 0. -1.
     200000    1    3    3    0    0 -0.11985112566E+03  0.46152134146E+02 -0.30740502844E+03  0.34812808465E+03  0.10100000000E+03 0.  1.
    -200001    1    1    2    0    0 -0.26579812356E+03 -0.15912964763E+03 -0.79141451331E+03  0.10478916066E+04  0.61300000000E+03 0.  1.
<mgrwt>
<rscale>  0 0.14213439E+04</rscale>
<asrwt>0</asrwt>
<pdfrwt beam="1">  1        2 0.20887246E+00 0.14213439E+04</pdfrwt>
<pdfrwt beam="2">  1       -2 0.49347041E-01 0.14213439E+04</pdfrwt>
<totfact> 0.57910067E+01</totfact>
</mgrwt>
</event>
<event>
 8    1  0.7583103E-052  0.1509723E+04  0.7818608E-02  0.8878013E-01
          2   -1    0    0  501    0  0.00000000000E+00  0.00000000000E+00  0.21805951195E+04  0.21805951195E+04  0.25500000000E-02 0.  1.
         -2   -1    0    0    0  501 -0.00000000000E+00 -0.00000000000E+00 -0.26131214085E+03  0.26131214086E+03  0.25500000000E-02 0. -1.
     200001    2    1    2    0    0 -0.98864348962E+02  0.35365265956E+03  0.56821642160E+03  0.91351130228E+03  0.61383111236E+03 0.  0.
    5000001    2    3    3    0    0 -0.32125111317E+03  0.73752169680E+02  0.30312616593E+03  0.45714083787E+03  0.91927215409E+02 0.  0.
        -13    1    4    4    0    0 -0.18197095298E+03  0.79863699792E+02  0.19230512148E+03  0.27653735586E+03  0.10566000000E+00 0. -1.
     200003    1    4    4    0    0 -0.13928016018E+03 -0.61115301125E+01  0.11082104445E+03  0.18060348201E+03  0.30000000000E+02 0. -1.
     200000    1    3    3    0    0  0.22238676421E+03  0.27990048988E+03  0.26509025567E+03  0.45637046440E+03  0.10100000000E+03 0.  1.
    -200001    1    1    2    0    0  0.98864348962E+02 -0.35365265956E+03  0.13510665570E+04  0.15283959581E+04  0.61300000000E+03 0.  1.
<mgrwt>
<rscale>  0 0.15097231E+04</rscale>
<asrwt>0</asrwt>
<pdfrwt beam="1">  1        2 0.31151358E+00 0.15097231E+04</pdfrwt>
<pdfrwt beam="2">  1       -2 0.37330306E-01 0.15097231E+04</pdfrwt>
<totfact> 0.42360463E+01</totfact>
</mgrwt>
</event>
<event>
 8    1  0.7583103E-052  0.1266106E+04  0.7818608E-02  0.9056884E-01
          2   -1    0    0  501    0  0.00000000000E+00  0.00000000000E+00  0.20506012956E+04  0.20506012956E+04  0.25500000000E-02 0.  1.
         -2   -1    0    0    0  501 -0.00000000000E+00 -0.00000000000E+00 -0.19543348061E+03  0.19543348063E+03  0.25500000000E-02 0. -1.
     200001    2    1    2    0    0  0.20073556261E+02  0.88440547173E+02  0.70207720724E+03  0.93698488118E+03  0.61384328993E+03 0.  0.
    5000001    2    3    3    0    0  0.78504728787E+01  0.33756573218E+03  0.41379108504E+03  0.54262128014E+03  0.95929860467E+02 0.  0.
        -13    1    4    4    0    0  0.32472164307E+02  0.27373949450E+03  0.31147164178E+03  0.41593550834E+03  0.10566000000E+00 0. -1.
     200003    1    4    4    0    0 -0.24621691429E+02  0.63826237684E+02  0.10231944327E+03  0.12668577180E+03  0.30000000000E+02 0.  1.
     200000    1    3    3    0    0  0.12223083383E+02 -0.24912518501E+03  0.28828612220E+03  0.39436360104E+03  0.10100000000E+03 0.  1.
    -200001    1    1    2    0    0 -0.20073556261E+02 -0.88440547173E+02  0.11530906077E+04  0.13090498950E+04  0.61300000000E+03 0.  1.
<mgrwt>
<rscale>  0 0.12661061E+04</rscale>
<asrwt>0</asrwt>
<pdfrwt beam="1">  1        2 0.29294305E+00 0.12661061E+04</pdfrwt>
<pdfrwt beam="2">  1       -2 0.27919068E-01 0.12661061E+04</pdfrwt>
<totfact> 0.87056556E+01</totfact>
</mgrwt>
</event>
<event>
 8    1  0.7583103E-052  0.1393909E+04  0.7818608E-02  0.8958239E-01
          2   -1    0    0  501    0  0.00000000000E+00  0.00000000000E+00  0.22352016020E+04  0.22352016020E+04  0.25500000000E-02 0.  1.
         -2   -1    0    0    0  501 -0.00000000000E+00 -0.00000000000E+00 -0.21731629852E+03  0.21731629853E+03  0.25500000000E-02 0. -1.
     200001    2    1    2    0    0 -0.64788237389E+02 -0.10976128986E+03  0.47103823660E+03  0.78376090660E+03  0.61331809196E+03 0.  0.
    5000001    2    3    3    0    0  0.18804563515E+03  0.53504398835E+01 -0.22953103171E+02  0.20808380858E+03  0.85919953095E+02 0.  0.
        -13    1    4    4    0    0  0.10324840144E+03  0.10773917660E+02 -0.48271672716E+02  0.11448351520E+03  0.10566000000E+00 0. -1.
     200003    1    4    4    0    0  0.84797233715E+02 -0.54234777762E+01  0.25318569545E+02  0.93600293379E+02  0.30000000000E+02 0.  1.
     200000    1    3    3    0    0 -0.25283387254E+03 -0.11511172974E+03  0.49399133977E+03  0.57567709803E+03  0.10100000000E+03 0. -1.
    -200001    1    1    2    0    0  0.64788237389E+02  0.10976128986E+03  0.15468470669E+04  0.16687569939E+04  0.61300000000E+03 0.  1.
<mgrwt>
<rscale>  0 0.13939092E+04</rscale>
<asrwt>0</asrwt>
<pdfrwt beam="1">  1        2 0.31931448E+00 0.13939092E+04</pdfrwt>
<pdfrwt beam="2">  1       -2 0.31045189E-01 0.13939092E+04</pdfrwt>
<totfact> 0.56891772E+01</totfact>
</mgrwt>
</event>
<event>
 8    1  0.7583103E-052  0.1401028E+04  0.7818608E-02  0.8953075E-01
         -2   -1    0    0    0  501 -0.00000000000E+00  0.00000000000E+00  0.28152378826E+03  0.28152378828E+03  0.25500000000E-02 0. -1.
          2   -1    0    0  501    0  0.00000000000E+00 -0.00000000000E+00 -0.17430848814E+04  0.17430848814E+04  0.25500000000E-02 0.  1.
     200001    2    1    2    0    0  0.13882149161E+03 -0.25928357242E+03 -0.97756663914E+03  0.11900315259E+04  0.61158737818E+03 0.  0.
    5000001    2    3    3    0    0 -0.14171438709E+02  0.10515675037E+03 -0.62891120225E+03  0.65338900121E+03  0.14187711150E+03 0.  0.
        -13    1    4    4    0    0  0.14646531336E+02  0.11072592004E+03 -0.57127449990E+03  0.58209047033E+03  0.10566000000E+00 0. -1.
     200003    1    4    4    0    0 -0.28817970044E+02 -0.55691696693E+01 -0.57636702350E+02  0.71298530883E+02  0.30000000000E+02 0. -1.
     200000    1    3    3    0    0  0.15299293031E+03 -0.36444032279E+03 -0.34865543689E+03  0.53664252466E+03  0.10100000000E+03 0. -1.
    -200001    1    1    2    0    0 -0.13882149161E+03  0.25928357242E+03 -0.48399445399E+03  0.83457714380E+03  0.61300000000E+03 0. -1.
<mgrwt>
<rscale>  0 0.14010280E+04</rscale>
<asrwt>0</asrwt>
<pdfrwt beam="1">  1        2 0.24901212E+00 0.14010280E+04</pdfrwt>
<pdfrwt beam="2">  1       -2 0.40217685E-01 0.14010280E+04</pdfrwt>
<totfact> 0.62076739E+01</totfact>
</mgrwt>
</event>
<event>
 8    1  0.7583103E-052  0.1728278E+04  0.7818608E-02  0.8745399E-01
          2   -1    0    0  501    0  0.00000000000E+00  0.00000000000E+00  0.19795803486E+04  0.19795803486E+04  0.25500000000E-02 0.  1.
         -2   -1    0    0    0  501 -0.00000000000E+00 -0.00000000000E+00 -0.37721942378E+03  0.37721942379E+03  0.25500000000E-02 0. -1.
     200001    2    1    2    0    0 -0.28466629542E+03 -0.34344423651E+03  0.13664751182E+04  0.15628224698E+04  0.61332779159E+03 0.  0.
    5000001    2    3    3    0    0 -0.79182326898E+02 -0.27077310847E+03  0.12033808950E+04  0.12724684103E+04  0.30242744542E+03 0.  0.
        -13    1    4    4    0    0  0.43341381254E+01  0.47504328612E+02  0.41379389003E+03  0.41653432101E+03  0.10566000000E+00 0. -1.
     200003    1    4    4    0    0 -0.83516465024E+02 -0.31827743708E+03  0.78958700497E+03  0.85593408934E+03  0.30000000000E+02 0. -1.
     200000    1    3    3    0    0 -0.20548396852E+03 -0.72671128043E+02  0.16309422324E+03  0.29035405942E+03  0.10100000000E+03 0. -1.
    -200001    1    1    2    0    0  0.28466629542E+03  0.34344423651E+03  0.23588580660E+03  0.79397730263E+03  0.61300000000E+03 0. -1.
<mgrwt>
<rscale>  0 0.17282779E+04</rscale>
<asrwt>0</asrwt>
<pdfrwt beam="1">  1        2 0.28279719E+00 0.17282779E+04</pdfrwt>
<pdfrwt beam="2">  1       -2 0.53888490E-01 0.17282779E+04</pdfrwt>
<totfact> 0.25376401E+01</totfact>
</mgrwt>
</event>
<event>
 8    1  0.7583103E-052  0.1260237E+04  0.7818608E-02  0.9061706E-01
          2   -1    0    0  501    0  0.00000000000E+00  0.00000000000E+00  0.23900881430E+03  0.23900881432E+03  0.25500000000E-02 0.  1.
         -2   -1    0    0    0  501 -0.00000000000E+00 -0.00000000000E+00 -0.16612326788E+04  0.16612326788E+04  0.25500000000E-02 0. -1.
     200001    2    1    2    0    0  0.64198774540E+02  0.27210857492E+02 -0.90534786590E+03  0.10953864059E+04  0.61266198397E+03 0.  0.
    5000001    2    3    3    0    0  0.25711898138E+03 -0.16863342142E+03 -0.40315338025E+03  0.51403153221E+03  0.84548014123E+02 0.  0.
        -13    1    4    4    0    0  0.19924591319E+03 -0.12516561804E+03 -0.33957829445E+03  0.41313290245E+03  0.10566000000E+00 0. -1.
     200003    1    4    4    0    0  0.57873068191E+02 -0.43467803378E+02 -0.63575085798E+02  0.10089862976E+03  0.30000000000E+02 0. -1.
     200000    1    3    3    0    0 -0.19292020684E+03  0.19584427891E+03 -0.50219448565E+03  0.58135487373E+03  0.10100000000E+03 0. -1.
    -200001    1    1    2    0    0 -0.64198774540E+02 -0.27210857492E+02 -0.51687599856E+03  0.80485508715E+03  0.61300000000E+03 0.  1.
<mgrwt>
<rscale>  0 0.12602369E+04</rscale>
<asrwt>0</asrwt>
<pdfrwt beam="1">  1        2 0.34144117E-01 0.12602369E+04</pdfrwt>
<pdfrwt beam="2">  1       -2 0.23731895E+00 0.12602369E+04</pdfrwt>
<totfact> 0.11667439E+01</totfact>
</mgrwt>
</event>
<event>
 8    1  0.7583103E-052  0.1293591E+04  0.7818608E-02  0.9034663E-01
         -2   -1    0    0    0  501 -0.00000000000E+00  0.00000000000E+00  0.24589800743E+03  0.24589800745E+03  0.25500000000E-02 0. -1.
          2   -1    0    0  501    0  0.00000000000E+00 -0.00000000000E+00 -0.17012917362E+04  0.17012917362E+04  0.25500000000E-02 0.  1.
     200001    2    1    2    0    0  0.14478614646E+02 -0.19972912503E+03 -0.80333094816E+03  0.10300985685E+04  0.61291197975E+03 0.  0.
    5000001    2    3    3    0    0  0.26751079835E+03 -0.15242005608E+03 -0.26531238678E+03  0.42517840322E+03  0.12486837571E+03 0.  0.
        -13    1    4    4    0    0  0.18924663236E+03 -0.42479689125E+02 -0.15158692237E+03  0.24616542822E+03  0.10566000000E+00 0. -1.
     200003    1    4    4    0    0  0.78264165986E+02 -0.10994036696E+03 -0.11372546441E+03  0.17901297500E+03  0.30000000000E+02 0. -1.
     200000    1    3    3    0    0 -0.25303218370E+03 -0.47309068945E+02 -0.53801856138E+03  0.60492016530E+03  0.10100000000E+03 0. -1.
    -200001    1    1    2    0    0 -0.14478614646E+02  0.19972912503E+03 -0.65206278062E+03  0.91709117515E+03  0.61300000000E+03 0.  1.
<mgrwt>
<rscale>  0 0.12935907E+04</rscale>
<asrwt>0</asrwt>
<pdfrwt beam="1">  1        2 0.24304167E+00 0.12935907E+04</pdfrwt>
<pdfrwt beam="2">  1       -2 0.35128288E-01 0.12935907E+04</pdfrwt>
<totfact> 0.85427355E+01</totfact>
</mgrwt>
</event>
<event>
 8    1  0.7583103E-052  0.1523978E+04  0.7818608E-02  0.8868663E-01
          2   -1    0    0  501    0  0.00000000000E+00  0.00000000000E+00  0.52298301711E+03  0.52298301712E+03  0.25500000000E-02 0.  1.
         -2   -1    0    0    0  501 -0.00000000000E+00 -0.00000000000E+00 -0.11102218358E+04  0.11102218358E+04  0.25500000000E-02 0. -1.
     200001    2    1    2    0    0 -0.30783767504E+03  0.32794870422E+03 -0.23921340480E+03  0.79702001959E+03  0.61294654891E+03 0.  0.
    5000001    2    3    3    0    0 -0.39844153356E+03  0.31764233394E+03  0.50614532017E+01  0.51740155328E+03  0.89590407139E+02 0.  0.
        -13    1    4    4    0    0 -0.12772755438E+03  0.55220154857E+02  0.20280283219E+01  0.13916794787E+03  0.10566000000E+00 0. -1.
     200003    1    4    4    0    0 -0.27071397918E+03  0.26242217908E+03  0.30334248798E+01  0.37823360541E+03  0.30000000000E+02 0. -1.
     200000    1    3    3    0    0  0.90603858525E+02  0.10306370285E+02 -0.24427485801E+03  0.27961846631E+03  0.10100000000E+03 0. -1.
    -200001    1    1    2    0    0  0.30783767504E+03 -0.32794870422E+03 -0.34802541388E+03  0.83618483332E+03  0.61300000000E+03 0. -1.
<mgrwt>
<rscale>  0 0.15239779E+04</rscale>
<asrwt>0</asrwt>
<pdfrwt beam="1">  1        2 0.74711859E-01 0.15239779E+04</pdfrwt>
<pdfrwt beam="2">  1       -2 0.15860312E+00 0.15239779E+04</pdfrwt>
<totfact> 0.15880832E+01</totfact>
</mgrwt>
</event>
<event>
 8    1  0.7583103E-052  0.1345008E+04  0.7818608E-02  0.8994615E-01
          2   -1    0    0  501    0  0.00000000000E+00  0.00000000000E+00  0.30155567728E+04  0.30155567728E+04  0.25500000000E-02 0.  1.
         -2   -1    0    0    0  501 -0.00000000000E+00 -0.00000000000E+00 -0.14997623568E+03  0.14997623571E+03  0.25500000000E-02 0. -1.
     200001    2    1    2    0    0  0.24452756945E+03  0.46691554155E+02  0.17148492051E+04  0.18381576163E+04  0.61330399685E+03 0.  0.
    5000001    2    3    3    0    0  0.33511364240E+03  0.77990770297E+02  0.16441939523E+04  0.16820210021E+04  0.86239115839E+02 0.  0.
        -13    1    4    4    0    0  0.11467817511E+03  0.29898589105E+02  0.75047032949E+03  0.75977018637E+03  0.10566000000E+00 0. -1.
     200003    1    4    4    0    0  0.22043546729E+03  0.48092181192E+02  0.89372362280E+03  0.92225081572E+03  0.30000000000E+02 0. -1.
     200000    1    3    3    0    0 -0.90586072952E+02 -0.31299216142E+02  0.70655252831E+02  0.15613661421E+03  0.10100000000E+03 0. -1.
    -200001    1    1    2    0    0 -0.24452756945E+03 -0.46691554155E+02  0.11507313320E+04  0.13273753922E+04  0.61300000000E+03 0. -1.
<mgrwt>
<rscale>  0 0.13450083E+04</rscale>
<asrwt>0</asrwt>
<pdfrwt beam="1">  1        2 0.43079381E+00 0.13450083E+04</pdfrwt>
<pdfrwt beam="2">  1       -2 0.21425177E-01 0.13450083E+04</pdfrwt>
<totfact> 0.43119114E+01</totfact>
</mgrwt>
</event>
<event>
 8    1  0.7583103E-052  0.2076619E+04  0.7818608E-02  0.8571613E-01
         -2   -1    0    0    0  501 -0.00000000000E+00  0.00000000000E+00  0.88476221430E+03  0.88476221431E+03  0.25500000000E-02 0. -1.
          2   -1    0    0  501    0  0.00000000000E+00 -0.00000000000E+00 -0.12185047779E+04  0.12185047779E+04  0.25500000000E-02 0.  1.
     200001    2    1    2    0    0  0.37042410224E+03  0.68619200536E+03 -0.47741873155E+03  0.11010268389E+04  0.61339870470E+03 0.  0.
    5000001    2    3    3    0    0  0.34486862812E+03  0.65078423399E+03 -0.55968882598E+03  0.96363629709E+03  0.26997933490E+03 0.  0.
        -13    1    4    4    0    0  0.20128182004E+03  0.32973564252E+03 -0.45201374903E+03  0.59460609272E+03  0.10566000000E+00 0. -1.
     200003    1    4    4    0    0  0.14358680808E+03  0.32104859147E+03 -0.10767507695E+03  0.36903020437E+03  0.30000000000E+02 0. -1.
     200000    1    3    3    0    0  0.25555474127E+02  0.35407771377E+02  0.82270094435E+02  0.13739054178E+03  0.10100000000E+03 0. -1.
    -200001    1    1    2    0    0 -0.37042410224E+03 -0.68619200536E+03  0.14367616794E+03  0.10022401533E+04  0.61300000000E+03 0.  1.
<mgrwt>
<rscale>  0 0.20766194E+04</rscale>
<asrwt>0</asrwt>
<pdfrwt beam="1">  1        2 0.17407211E+00 0.20766194E+04</pdfrwt>
<pdfrwt beam="2">  1       -2 0.12639460E+00 0.20766194E+04</pdfrwt>
<totfact> 0.90198800E+00</totfact>
</mgrwt>
</event>
<event>
 8    1  0.7583103E-052  0.1468326E+04  0.7818608E-02  0.8905793E-01
          2   -1    0    0  501    0  0.00000000000E+00  0.00000000000E+00  0.13932845689E+03  0.13932845692E+03  0.25500000000E-02 0.  1.
         -2   -1    0    0    0  501 -0.00000000000E+00 -0.00000000000E+00 -0.38685214799E+04  0.38685214799E+04  0.25500000000E-02 0. -1.
     200001    2    1    2    0    0 -0.22981028877E+03  0.32663996604E+03 -0.17109052514E+04  0.18610474389E+04  0.61383577135E+03 0.  0.
    5000001    2    3    3    0    0 -0.36766516771E+03  0.34577599880E+03 -0.15226838111E+04  0.16060994716E+04  0.79062047718E+02 0.  0.
        -13    1    4    4    0    0 -0.23531169311E+03  0.20445441761E+03 -0.10204120523E+04  0.10669648398E+04  0.10566000000E+00 0. -1.
     200003    1    4    4    0    0 -0.13235347460E+03  0.14132158119E+03 -0.50227175877E+03  0.53913463180E+03  0.30000000000E+02 0. -1.
     200000    1    3    3    0    0  0.13785487894E+03 -0.19136032757E+02 -0.18822144036E+03  0.25494796726E+03  0.10100000000E+03 0.  1.
    -200001    1    1    2    0    0  0.22981028877E+03 -0.32663996604E+03 -0.20182877716E+04  0.21468024980E+04  0.61300000000E+03 0. -1.
<mgrwt>
<rscale>  0 0.14683258E+04</rscale>
<asrwt>0</asrwt>
<pdfrwt beam="1">  1        2 0.19904068E-01 0.14683258E+04</pdfrwt>
<pdfrwt beam="2">  1       -2 0.55264586E+00 0.14683258E+04</pdfrwt>
<totfact> 0.22765477E-01</totfact>
</mgrwt>
</event>
<event>
 8    1  0.7583103E-052  0.1477143E+04  0.7818608E-02  0.8899797E-01
         -2   -1    0    0    0  501 -0.00000000000E+00  0.00000000000E+00  0.56913316091E+03  0.56913316092E+03  0.25500000000E-02 0. -1.
          2   -1    0    0  501    0  0.00000000000E+00 -0.00000000000E+00 -0.95845330219E+03  0.95845330220E+03  0.25500000000E-02 0.  1.
     200001    2    1    2    0    0 -0.16419383628E+03 -0.37138210453E+03 -0.79593537569E+02  0.72972441208E+03  0.60106430848E+03 0.  0.
    5000001    2    3    3    0    0 -0.60047359196E+01 -0.12208564171E+03  0.18949149046E+03  0.31768039725E+03  0.22376963394E+03 0.  0.
        -13    1    4    4    0    0 -0.10913043020E+03 -0.85035179909E+02  0.12807753862E+03  0.18853195931E+03  0.10566000000E+00 0. -1.
     200003    1    4    4    0    0  0.10312569428E+03 -0.37050461799E+02  0.61413951841E+02  0.12914843794E+03  0.30000000000E+02 0. -1.
     200000    1    3    3    0    0 -0.15818910037E+03 -0.24929646282E+03 -0.26908502803E+03  0.41204401483E+03  0.10100000000E+03 0.  1.
    -200001    1    1    2    0    0  0.16419383628E+03  0.37138210453E+03 -0.30972660371E+03  0.79786205104E+03  0.61300000000E+03 0. -1.
<mgrwt>
<rscale>  0 0.14771426E+04</rscale>
<asrwt>0</asrwt>
<pdfrwt beam="1">  1        2 0.13692190E+00 0.14771426E+04</pdfrwt>
<pdfrwt beam="2">  1       -2 0.81304737E-01 0.14771426E+04</pdfrwt>
<totfact> 0.38541779E+01</totfact>
</mgrwt>
</event>
<event>
 8    1  0.7583103E-052  0.1615534E+04  0.7818608E-02  0.8811062E-01
          2   -1    0    0  501    0  0.00000000000E+00  0.00000000000E+00  0.15405490040E+04  0.15405490040E+04  0.25500000000E-02 0.  1.
         -2   -1    0    0    0  501 -0.00000000000E+00 -0.00000000000E+00 -0.42354202532E+03  0.42354202533E+03  0.25500000000E-02 0. -1.
     200001    2    1    2    0    0 -0.37558837037E+03  0.42429126189E+02  0.10024963164E+04  0.12348801226E+04  0.61405471911E+03 0.  0.
    5000001    2    3    3    0    0 -0.36067030842E+03  0.95725669970E+02  0.36181346111E+03  0.58392805736E+03  0.26611373558E+03 0.  0.
        -13    1    4    4    0    0 -0.63682901623E+02  0.22019897713E+02 -0.39704307570E+02  0.78210172344E+02  0.10566000000E+00 0. -1.
     200003    1    4    4    0    0 -0.29698740680E+03  0.73705772257E+02  0.40151776868E+03  0.50571788502E+03  0.30000000000E+02 0. -1.
     200000    1    3    3    0    0 -0.14918061948E+02 -0.53296543781E+02  0.64068285533E+03  0.65095206526E+03  0.10100000000E+03 0.  1.
    -200001    1    1    2    0    0  0.37558837037E+03 -0.42429126189E+02  0.11451066225E+03  0.72921090672E+03  0.61300000000E+03 0. -1.
<mgrwt>
<rscale>  0 0.16155337E+04</rscale>
<asrwt>0</asrwt>
<pdfrwt beam="1">  1        2 0.22007843E+00 0.16155337E+04</pdfrwt>
<pdfrwt beam="2">  1       -2 0.60506004E-01 0.16155337E+04</pdfrwt>
<totfact> 0.33966479E+01</totfact>
</mgrwt>
</event>
<event>
 8    1  0.7583103E-052  0.1340369E+04  0.7818608E-02  0.8998151E-01
         -2   -1    0    0    0  501 -0.00000000000E+00  0.00000000000E+00  0.43040667696E+03  0.43040667697E+03  0.25500000000E-02 0. -1.
          2   -1    0    0  501    0  0.00000000000E+00 -0.00000000000E+00 -0.10435416055E+04  0.10435416055E+04  0.25500000000E-02 0.  1.
     200001    2    1    2    0    0 -0.16905331662E+03  0.16318572048E+03 -0.45967238635E+03  0.79976110146E+03  0.61082772810E+03 0.  0.
    5000001    2    3    3    0    0  0.70651439537E+02  0.21412912170E+02 -0.46413071536E+03  0.50348626960E+03  0.18064042742E+03 0.  0.
        -13    1    4    4    0    0 -0.16313589196E+00 -0.66555005005E+02 -0.92755467090E+02  0.11416296748E+03  0.10566000000E+00 0. -1.
     200003    1    4    4    0    0  0.70814575429E+02  0.87967917175E+02 -0.37137524827E+03  0.38932330212E+03  0.30000000000E+02 0. -1.
     200000    1    3    3    0    0 -0.23970475616E+03  0.14177280831E+03  0.44583290065E+01  0.29627483186E+03  0.10100000000E+03 0.  1.
    -200001    1    1    2    0    0  0.16905331662E+03 -0.16318572048E+03 -0.15346254223E+03  0.67418718105E+03  0.61300000000E+03 0. -1.
<mgrwt>
<rscale>  0 0.13403690E+04</rscale>
<asrwt>0</asrwt>
<pdfrwt beam="1">  1        2 0.14907737E+00 0.13403690E+04</pdfrwt>
<pdfrwt beam="2">  1       -2 0.61486669E-01 0.13403690E+04</pdfrwt>
<totfact> 0.63546216E+01</totfact>
</mgrwt>
</event>
<event>
 8    1  0.7583103E-052  0.1904594E+04  0.7818608E-02  0.8652573E-01
         -2   -1    0    0    0  501 -0.00000000000E+00  0.00000000000E+00  0.11332112848E+04  0.11332112848E+04  0.25500000000E-02 0. -1.
          2   -1    0    0  501    0  0.00000000000E+00 -0.00000000000E+00 -0.80026503090E+03  0.80026503091E+03  0.25500000000E-02 0.  1.
     200001    2    1    2    0    0 -0.46582806489E+03  0.53418277208E+03 -0.11920705721E+02  0.93495278578E+03  0.60962905803E+03 0.  0.
    5000001    2    3    3    0    0 -0.13040405819E+03  0.52108830995E+03  0.90991911917E+02  0.56961357891E+03  0.16625840154E+03 0.  0.
        -13    1    4    4    0    0 -0.97235327470E+02  0.11940462796E+03  0.56318360086E+02  0.16396323653E+03  0.10566000000E+00 0. -1.
     200003    1    4    4    0    0 -0.33168730718E+02  0.40168368199E+03  0.34673551832E+02  0.40565034238E+03  0.30000000000E+02 0. -1.
     200000    1    3    3    0    0 -0.33542400670E+03  0.13094462127E+02 -0.10291261764E+03  0.36533920687E+03  0.10100000000E+03 0.  1.
    -200001    1    1    2    0    0  0.46582806489E+03 -0.53418277208E+03  0.34486695963E+03  0.99852352995E+03  0.61300000000E+03 0.  1.
<mgrwt>
<rscale>  0 0.19045938E+04</rscale>
<asrwt>0</asrwt>
<pdfrwt beam="1">  1        2 0.11432358E+00 0.19045938E+04</pdfrwt>
<pdfrwt beam="2">  1       -2 0.16188732E+00 0.19045938E+04</pdfrwt>
<totfact> 0.87037342E+00</totfact>
</mgrwt>
</event>
<event>
 8    1  0.7583103E-052  0.1514532E+04  0.7818608E-02  0.8874846E-01
          2   -1    0    0  501    0  0.00000000000E+00  0.00000000000E+00  0.87957594418E+03  0.87957594418E+03  0.25500000000E-02 0.  1.
         -2   -1    0    0    0  501 -0.00000000000E+00 -0.00000000000E+00 -0.65196395293E+03  0.65196395294E+03  0.25500000000E-02 0. -1.
     200001    2    1    2    0    0 -0.43351458117E+03 -0.68335204594E+02  0.43468413128E+02  0.75547131147E+03  0.61338634419E+03 0.  0.
    5000001    2    3    3    0    0 -0.14993280095E+03 -0.91227163171E+02  0.30290095363E+03  0.35741489473E+03  0.72070653949E+02 0.  0.
        -13    1    4    4    0    0 -0.12956480904E+03 -0.76762102821E+02  0.24492427827E+03  0.28751934443E+03  0.10566000000E+00 0. -1.
     200003    1    4    4    0    0 -0.20367991912E+02 -0.14465060350E+02  0.57976675358E+02  0.69895550295E+02  0.30000000000E+02 0.  1.
     200000    1    3    3    0    0 -0.28358178022E+03  0.22891958577E+02 -0.25943254050E+03  0.39805641674E+03  0.10100000000E+03 0. -1.
    -200001    1    1    2    0    0  0.43351458117E+03  0.68335204594E+02  0.18414357812E+03  0.77606858565E+03  0.61300000000E+03 0. -1.
<mgrwt>
<rscale>  0 0.15145320E+04</rscale>
<asrwt>0</asrwt>
<pdfrwt beam="1">  1        2 0.12565371E+00 0.15145320E+04</pdfrwt>
<pdfrwt beam="2">  1       -2 0.93137707E-01 0.15145320E+04</pdfrwt>
<totfact> 0.31669533E+01</totfact>
</mgrwt>
</event>
<event>
 8    1  0.7583103E-052  0.2163860E+04  0.7818608E-02  0.8533623E-01
         -2   -1    0    0    0  501 -0.00000000000E+00  0.00000000000E+00  0.24963109986E+04  0.24963109986E+04  0.25500000000E-02 0. -1.
          2   -1    0    0  501    0  0.00000000000E+00 -0.00000000000E+00 -0.46892082440E+03  0.46892082441E+03  0.25500000000E-02 0.  1.
     200001    2    1    2    0    0  0.89006867431E+03 -0.41943024809E+02  0.10393968485E+04  0.15003491404E+04  0.61377542469E+03 0.  0.
    5000001    2    3    3    0    0  0.93494677565E+03  0.25837683714E+02  0.96309868752E+03  0.13499141783E+04  0.14112458240E+03 0.  0.
        -13    1    4    4    0    0  0.57233537383E+03  0.70123787448E+02  0.53813601884E+03  0.78871763745E+03  0.10566000000E+00 0. -1.
     200003    1    4    4    0    0  0.36261140182E+03 -0.44286103734E+02  0.42496266869E+03  0.56119654088E+03  0.30000000000E+02 0. -1.
     200000    1    3    3    0    0 -0.44878101345E+02 -0.67780708523E+02  0.76298160992E+02  0.15043496202E+03  0.10100000000E+03 0. -1.
    -200001    1    1    2    0    0 -0.89006867431E+03  0.41943024809E+02  0.98799332567E+03  0.14648826826E+04  0.61300000000E+03 0. -1.
<mgrwt>
<rscale>  0 0.21638597E+04</rscale>
<asrwt>0</asrwt>
<pdfrwt beam="1">  1        2 0.66988689E-01 0.21638597E+04</pdfrwt>
<pdfrwt beam="2">  1       -2 0.35661586E+00 0.21638597E+04</pdfrwt>
<totfact> 0.94094828E-01</totfact>
</mgrwt>
</event>
<event>
 8    1  0.7583103E-052  0.1884386E+04  0.7818608E-02  0.8662668E-01
         -2   -1    0    0    0  501 -0.00000000000E+00  0.00000000000E+00  0.12212585591E+04  0.12212585591E+04  0.25500000000E-02 0. -1.
          2   -1    0    0  501    0  0.00000000000E+00 -0.00000000000E+00 -0.72689581737E+03  0.72689581738E+03  0.25500000000E-02 0.  1.
     200001    2    1    2    0    0  0.48616514087E+03  0.38171821242E+03  0.61984172205E+03  0.10686207999E+04  0.61292847514E+03 0.  0.
    5000001    2    3    3    0    0  0.34111757845E+03  0.53032681830E+03  0.46866122547E+03  0.79261381508E+03  0.10481211316E+03 0.  0.
        -13    1    4    4    0    0  0.24722285948E+03  0.34094828679E+03  0.35464960000E+03  0.55058262455E+03  0.10566000000E+00 0. -1.
     200003    1    4    4    0    0  0.93894718967E+02  0.18937853151E+03  0.11401162548E+03  0.24203119054E+03  0.30000000000E+02 0. -1.
     200000    1    3    3    0    0  0.14504756242E+03 -0.14860860588E+03  0.15118049657E+03  0.27600698479E+03  0.10100000000E+03 0. -1.
    -200001    1    1    2    0    0 -0.48616514087E+03 -0.38171821242E+03 -0.12547898032E+03  0.87953357661E+03  0.61300000000E+03 0.  1.
<mgrwt>
<rscale>  0 0.18843861E+04</rscale>
<asrwt>0</asrwt>
<pdfrwt beam="1">  1        2 0.10384226E+00 0.18843861E+04</pdfrwt>
<pdfrwt beam="2">  1       -2 0.17446551E+00 0.18843861E+04</pdfrwt>
<totfact> 0.80025003E+00</totfact>
</mgrwt>
</event>
<event>
 8    1  0.7583103E-052  0.1573612E+04  0.7818608E-02  0.8836925E-01
         -2   -1    0    0    0  501 -0.00000000000E+00  0.00000000000E+00  0.32505005869E+03  0.32505005870E+03  0.25500000000E-02 0. -1.
          2   -1    0    0  501    0  0.00000000000E+00 -0.00000000000E+00 -0.19045169047E+04  0.19045169047E+04  0.25500000000E-02 0.  1.
     200001    2    1    2    0    0  0.15371408674E+02  0.34482322961E+03 -0.28930649477E+03  0.76006974605E+03  0.61226500068E+03 0.  0.
    5000001    2    3    3    0    0  0.76647689030E+02  0.41807870706E+03  0.11706500528E+01  0.43804626993E+03  0.10591737648E+03 0.  0.
        -13    1    4    4    0    0  0.44171574284E+02  0.10981812015E+03 -0.37670400544E+02  0.12421842749E+03  0.10566000000E+00 0. -1.
     200003    1    4    4    0    0  0.32476114746E+02  0.30826058692E+03  0.38841050597E+02  0.31382784243E+03  0.30000000000E+02 0. -1.
     200000    1    3    3    0    0 -0.61276280356E+02 -0.73255477454E+02 -0.29047714482E+03  0.32202347613E+03  0.10100000000E+03 0.  1.
    -200001    1    1    2    0    0 -0.15371408674E+02 -0.34482322961E+03 -0.12901603512E+04  0.14694972173E+04  0.61300000000E+03 0.  1.
<mgrwt>
<rscale>  0 0.15736116E+04</rscale>
<asrwt>0</asrwt>
<pdfrwt beam="1">  1        2 0.27207384E+00 0.15736116E+04</pdfrwt>
<pdfrwt beam="2">  1       -2 0.46435724E-01 0.15736116E+04</pdfrwt>
<totfact> 0.38029214E+01</totfact>
</mgrwt>
</event>
<event>
 8    1  0.7583103E-052  0.2007578E+04  0.7818608E-02  0.8603086E-01
          2   -1    0    0  501    0  0.00000000000E+00  0.00000000000E+00  0.62580523128E+03  0.62580523129E+03  0.25500000000E-02 0.  1.
         -2   -1    0    0    0  501 -0.00000000000E+00 -0.00000000000E+00 -0.16100734709E+04  0.16100734709E+04  0.25500000000E-02 0. -1.
     200001    2    1    2    0    0 -0.49014949797E+03 -0.54855576048E+03 -0.82582094162E+03  0.12652940851E+04  0.61467791687E+03 0.  0.
    5000001    2    3    3    0    0  0.11429074291E+03 -0.57312055294E+02 -0.50510197889E+02  0.16167452565E+03  0.85090108450E+02 0.  0.
        -13    1    4    4    0    0  0.63797810001E+02 -0.68359325188E+01  0.79362569463E+01  0.64652036880E+02  0.10566000000E+00 0. -1.
     200003    1    4    4    0    0  0.50492932910E+02 -0.50476122776E+02 -0.58446454835E+02  0.97022488770E+02  0.30000000000E+02 0. -1.
     200000    1    3    3    0    0 -0.60444024088E+03 -0.49124370518E+03 -0.77531074373E+03  0.11036195595E+04  0.10100000000E+03 0. -1.
    -200001    1    1    2    0    0  0.49014949797E+03  0.54855576048E+03 -0.15844729802E+03  0.97058461711E+03  0.61300000000E+03 0.  1.
<mgrwt>
<rscale>  0 0.20075780E+04</rscale>
<asrwt>0</asrwt>
<pdfrwt beam="1">  1        2 0.89400748E-01 0.20075780E+04</pdfrwt>
<pdfrwt beam="2">  1       -2 0.23001049E+00 0.20075780E+04</pdfrwt>
<totfact> 0.41079185E+00</totfact>
</mgrwt>
</event>
<event>
 8    1  0.7583103E-052  0.1333300E+04  0.7818608E-02  0.9003567E-01
          2   -1    0    0  501    0  0.00000000000E+00  0.00000000000E+00  0.85783477166E+03  0.85783477167E+03  0.25500000000E-02 0. -1.
         -2   -1    0    0    0  501 -0.00000000000E+00 -0.00000000000E+00 -0.51807447158E+03  0.51807447159E+03  0.25500000000E-02 0.  1.
     200001    2    1    2    0    0  0.19841556282E+03 -0.12948873539E+03  0.27931128549E+03  0.71594018980E+03  0.61515810407E+03 0.  0.
    5000001    2    3    3    0    0  0.37306362158E+03  0.38804327751E+02  0.90066965776E+02  0.39215181435E+03  0.70631052495E+02 0.  0.
        -13    1    4    4    0    0  0.20049755881E+03  0.43516889717E+02  0.32527605290E+02  0.20772830103E+03  0.10566000000E+00 0. -1.
     200003    1    4    4    0    0  0.17256606277E+03 -0.47125619666E+01  0.57539360486E+02  0.18442351332E+03  0.30000000000E+02 0.  1.
     200000    1    3    3    0    0 -0.17464805876E+03 -0.16829306314E+03  0.18924431971E+03  0.32378837544E+03  0.10100000000E+03 0.  1.
    -200001    1    1    2    0    0 -0.19841556282E+03  0.12948873539E+03  0.60449014591E+02  0.65996905346E+03  0.61300000000E+03 0. -1.
<mgrwt>
<rscale>  0 0.13333001E+04</rscale>
<asrwt>0</asrwt>
<pdfrwt beam="1">  1        2 0.12254782E+00 0.13333001E+04</pdfrwt>
<pdfrwt beam="2">  1       -2 0.74010639E-01 0.13333001E+04</pdfrwt>
<totfact> 0.55864132E+01</totfact>
</mgrwt>
</event>
<event>
 8    1  0.7583103E-052  0.1245753E+04  0.7818608E-02  0.9073725E-01
         -2   -1    0    0    0  501 -0.00000000000E+00  0.00000000000E+00  0.16845681039E+03  0.16845681041E+03  0.25500000000E-02 0. -1.
          2   -1    0    0  501    0  0.00000000000E+00 -0.00000000000E+00 -0.23031145036E+04  0.23031145036E+04  0.25500000000E-02 0.  1.
     200001    2    1    2    0    0 -0.86055051026E+02 -0.43800723088E+02 -0.11720439765E+04  0.13262686716E+04  0.61317006710E+03 0.  0.
    5000001    2    3    3    0    0  0.12965006283E+03 -0.25629325003E+03 -0.63879056242E+03  0.70478498412E+03  0.78569220393E+02 0.  0.
        -13    1    4    4    0    0  0.39543477769E+02 -0.13896830142E+03 -0.35662813401E+03  0.38478502124E+03  0.10566000000E+00 0. -1.
     200003    1    4    4    0    0  0.90106585063E+02 -0.11732494860E+03 -0.28216242841E+03  0.31999996288E+03  0.30000000000E+02 0. -1.
     200000    1    3    3    0    0 -0.21570511386E+03  0.21249252694E+03 -0.53325341407E+03  0.62148368745E+03  0.10100000000E+03 0. -1.
    -200001    1    1    2    0    0  0.86055051026E+02  0.43800723088E+02 -0.96261371668E+03  0.11453026424E+04  0.61300000000E+03 0.  1.
<mgrwt>
<rscale>  0 0.12457533E+04</rscale>
<asrwt>0</asrwt>
<pdfrwt beam="1">  1        2 0.32901634E+00 0.12457533E+04</pdfrwt>
<pdfrwt beam="2">  1       -2 0.24065260E-01 0.12457533E+04</pdfrwt>
<totfact> 0.84749658E+01</totfact>
</mgrwt>
</event>
<event>
 8    1  0.7583103E-052  0.1515206E+04  0.7818608E-02  0.8874404E-01
         -2   -1    0    0    0  501 -0.00000000000E+00  0.00000000000E+00  0.46800325793E+03  0.46800325794E+03  0.25500000000E-02 0. -1.
          2   -1    0    0  501    0  0.00000000000E+00 -0.00000000000E+00 -0.12264063906E+04  0.12264063906E+04  0.25500000000E-02 0.  1.
     200001    2    1    2    0    0 -0.15039267517E+03 -0.41700880140E+03 -0.33931218669E+03  0.82958566750E+03  0.61364918519E+03 0.  0.
    5000001    2    3    3    0    0  0.13560744735E+03  0.65373031530E+02 -0.11830935057E+03  0.21841338704E+03  0.10509182737E+03 0.  0.
        -13    1    4    4    0    0  0.51370609187E+02 -0.88689852569E+01  0.60674130898E+00  0.52134227594E+02  0.10566000000E+00 0. -1.
     200003    1    4    4    0    0  0.84236838160E+02  0.74242016787E+02 -0.11891609188E+03  0.16627915945E+03  0.30000000000E+02 0. -1.
     200000    1    3    3    0    0 -0.28600012252E+03 -0.48238183293E+03 -0.22100283612E+03  0.61117228045E+03  0.10100000000E+03 0. -1.
    -200001    1    1    2    0    0  0.15039267517E+03  0.41700880140E+03 -0.41909094597E+03  0.86482398104E+03  0.61300000000E+03 0.  1.
<mgrwt>
<rscale>  0 0.15152058E+04</rscale>
<asrwt>0</asrwt>
<pdfrwt beam="1">  1        2 0.17520091E+00 0.15152058E+04</pdfrwt>
<pdfrwt beam="2">  1       -2 0.66857609E-01 0.15152058E+04</pdfrwt>
<totfact> 0.41003995E+01</totfact>
</mgrwt>
</event>
<event>
 8    1  0.7583103E-052  0.1352550E+04  0.7818608E-02  0.8988900E-01
         -2   -1    0    0    0  501 -0.00000000000E+00  0.00000000000E+00  0.47966687822E+03  0.47966687823E+03  0.25500000000E-02 0. -1.
          2   -1    0    0  501    0  0.00000000000E+00 -0.00000000000E+00 -0.95347046186E+03  0.95347046186E+03  0.25500000000E-02 0.  1.
     200001    2    1    2    0    0 -0.18658634053E+03 -0.16897812314E+03 -0.10038887579E+03  0.67249576050E+03  0.61547100088E+03 0.  0.
    5000001    2    3    3    0    0 -0.26712122695E+03 -0.33473511979E+03 -0.14182201410E+03  0.45830202851E+03  0.80783137742E+02 0.  0.
        -13    1    4    4    0    0 -0.70894698584E+02 -0.11414052631E+03 -0.13690246089E+02  0.13506128993E+03  0.10566000000E+00 0. -1.
     200003    1    4    4    0    0 -0.19622652837E+03 -0.22059459348E+03 -0.12813176801E+03  0.32324073859E+03  0.30000000000E+02 0.  1.
     200000    1    3    3    0    0  0.80534886423E+02  0.16575699665E+03  0.41433138309E+02  0.21419373198E+03  0.10100000000E+03 0. -1.
    -200001    1    1    2    0    0  0.18658634053E+03  0.16897812314E+03 -0.37341470784E+03  0.76064157959E+03  0.61300000000E+03 0. -1.
<mgrwt>
<rscale>  0 0.13525505E+04</rscale>
<asrwt>0</asrwt>
<pdfrwt beam="1">  1        2 0.13621007E+00 0.13525505E+04</pdfrwt>
<pdfrwt beam="2">  1       -2 0.68523840E-01 0.13525505E+04</pdfrwt>
<totfact> 0.57205321E+01</totfact>
</mgrwt>
</event>
<event>
 8    1  0.7583103E-052  0.1370081E+04  0.7818608E-02  0.8975764E-01
         -2   -1    0    0    0  501 -0.00000000000E+00  0.00000000000E+00  0.21197573793E+03  0.21197573795E+03  0.25500000000E-02 0. -1.
          2   -1    0    0  501    0  0.00000000000E+00 -0.00000000000E+00 -0.22138417435E+04  0.22138417435E+04  0.25500000000E-02 0.  1.
     200001    2    1    2    0    0 -0.19438427954E+03  0.16217879287E+02 -0.14175453034E+04  0.15567674537E+04  0.61322259420E+03 0.  0.
    5000001    2    3    3    0    0  0.10767925574E+03 -0.20344931765E+03 -0.67906665932E+03  0.72307220694E+03  0.93356529889E+02 0.  0.
        -13    1    4    4    0    0  0.78800348845E+01 -0.67988497276E+02 -0.29265211828E+03  0.30054917103E+03  0.10566000000E+00 0. -1.
     200003    1    4    4    0    0  0.99799220855E+02 -0.13546082037E+03 -0.38641454104E+03  0.42252303590E+03  0.30000000000E+02 0.  1.
     200000    1    3    3    0    0 -0.30206353528E+03  0.21966719694E+03 -0.73847864404E+03  0.83369524676E+03  0.10100000000E+03 0.  1.
    -200001    1    1    2    0    0  0.19438427954E+03 -0.16217879287E+02 -0.58432070222E+03  0.86905002778E+03  0.61300000000E+03 0. -1.
<mgrwt>
<rscale>  0 0.13700814E+04</rscale>
<asrwt>0</asrwt>
<pdfrwt beam="1">  1        2 0.31626309E+00 0.13700814E+04</pdfrwt>
<pdfrwt beam="2">  1       -2 0.30282250E-01 0.13700814E+04</pdfrwt>
<totfact> 0.61245604E+01</totfact>
</mgrwt>
</event>
<event>
 8    1  0.7583103E-052  0.1679891E+04  0.7818608E-02  0.8772917E-01
         -2   -1    0    0    0  501 -0.00000000000E+00  0.00000000000E+00  0.73693466874E+03  0.73693466874E+03  0.25500000000E-02 0. -1.
          2   -1    0    0  501    0  0.00000000000E+00 -0.00000000000E+00 -0.95735579574E+03  0.95735579575E+03  0.25500000000E-02 0.  1.
     200001    2    1    2    0    0 -0.15795592991E+03 -0.14304990135E+03 -0.64798946850E+03  0.91711800183E+03  0.61302669430E+03 0.  0.
    5000001    2    3    3    0    0  0.68769115610E+02  0.39728551991E+01  0.73177269055E+02  0.14039256735E+03  0.98031553189E+02 0.  0.
        -13    1    4    4    0    0 -0.11824801898E+02 -0.23251258851E+02  0.31862068019E+02  0.41178265147E+02  0.10566000000E+00 0. -1.
     200003    1    4    4    0    0  0.80593917507E+02  0.27224114050E+02  0.41315201036E+02  0.99214302203E+02  0.30000000000E+02 0. -1.
     200000    1    3    3    0    0 -0.22672504552E+03 -0.14702275655E+03 -0.72116673755E+03  0.77672543448E+03  0.10100000000E+03 0.  1.
    -200001    1    1    2    0    0  0.15795592991E+03  0.14304990135E+03  0.42756834149E+03  0.77717246266E+03  0.61300000000E+03 0. -1.
<mgrwt>
<rscale>  0 0.16798913E+04</rscale>
<asrwt>0</asrwt>
<pdfrwt beam="1">  1        2 0.13676511E+00 0.16798913E+04</pdfrwt>
<pdfrwt beam="2">  1       -2 0.10527638E+00 0.16798913E+04</pdfrwt>
<totfact> 0.20850191E+01</totfact>
</mgrwt>
</event>
<event>
 8    1  0.7583103E-052  0.1504936E+04  0.7818608E-02  0.8881177E-01
         -2   -1    0    0    0  501 -0.00000000000E+00  0.00000000000E+00  0.22347252752E+03  0.22347252754E+03  0.25500000000E-02 0. -1.
          2   -1    0    0  501    0  0.00000000000E+00 -0.00000000000E+00 -0.25336808426E+04  0.25336808426E+04  0.25500000000E-02 0.  1.
     200001    2    1    2    0    0 -0.30560379236E+03 -0.24481921099E+03 -0.80117317144E+03  0.10819560120E+04  0.61271546193E+03 0.  0.
    5000001    2    3    3    0    0 -0.18865214258E+03 -0.43301077366E+03 -0.48667659377E+03  0.68420879326E+03  0.90551669475E+02 0.  0.
        -13    1    4    4    0    0 -0.14467249626E+03 -0.29570897034E+03 -0.29151453958E+03  0.43972112101E+03  0.10566000000E+00 0. -1.
     200003    1    4    4    0    0 -0.43979646319E+02 -0.13730180332E+03 -0.19516205419E+03  0.24448767225E+03  0.30000000000E+02 0. -1.
     200000    1    3    3    0    0 -0.11695164978E+03  0.18819156267E+03 -0.31449657767E+03  0.39774721874E+03  0.10100000000E+03 0.  1.
    -200001    1    1    2    0    0  0.30560379236E+03  0.24481921099E+03 -0.15090351437E+04  0.16751973581E+04  0.61300000000E+03 0.  1.
<mgrwt>
<rscale>  0 0.15049360E+04</rscale>
<asrwt>0</asrwt>
<pdfrwt beam="1">  1        2 0.36195439E+00 0.15049360E+04</pdfrwt>
<pdfrwt beam="2">  1       -2 0.31924648E-01 0.15049360E+04</pdfrwt>
<totfact> 0.37403852E+01</totfact>
</mgrwt>
</event>
<event>
 8    1  0.7583103E-052  0.1434061E+04  0.7818608E-02  0.8929526E-01
         -2   -1    0    0    0  501 -0.00000000000E+00  0.00000000000E+00  0.37986742823E+03  0.37986742823E+03  0.25500000000E-02 0. -1.
          2   -1    0    0  501    0  0.00000000000E+00 -0.00000000000E+00 -0.13534522275E+04  0.13534522275E+04  0.25500000000E-02 0.  1.
     200001    2    1    2    0    0  0.39449813632E+02  0.32968958084E+03 -0.69032017943E+03  0.98081759437E+03  0.61254362767E+03 0.  0.
    5000001    2    3    3    0    0  0.29469208871E+03  0.27303056991E+03 -0.33025330111E+03  0.52451942501E+03  0.68295424852E+02 0.  0.
        -13    1    4    4    0    0  0.23429465526E+03  0.20716227366E+03 -0.26431966508E+03  0.40948148874E+03  0.10566000000E+00 0. -1.
     200003    1    4    4    0    0  0.60397433452E+02  0.65868296256E+02 -0.65933636031E+02  0.11503793626E+03  0.30000000000E+02 0.  1.
     200000    1    3    3    0    0 -0.25524227508E+03  0.56659010928E+02 -0.36006687831E+03  0.45629816936E+03  0.10100000000E+03 0. -1.
    -200001    1    1    2    0    0 -0.39449813632E+02 -0.32968958084E+03 -0.28326461985E+03  0.75250206137E+03  0.61300000000E+03 0. -1.
<mgrwt>
<rscale>  0 0.14340606E+04</rscale>
<asrwt>0</asrwt>
<pdfrwt beam="1">  1        2 0.19335032E+00 0.14340606E+04</pdfrwt>
<pdfrwt beam="2">  1       -2 0.54266776E-01 0.14340606E+04</pdfrwt>
<totfact> 0.54506817E+01</totfact>
</mgrwt>
</event>
<event>
 8    1  0.7583103E-052  0.1532581E+04  0.7818608E-02  0.8863071E-01
          2   -1    0    0  501    0  0.00000000000E+00  0.00000000000E+00  0.14428125570E+04  0.14428125570E+04  0.25500000000E-02 0.  1.
         -2   -1    0    0    0  501 -0.00000000000E+00 -0.00000000000E+00 -0.40698358634E+03  0.40698358635E+03  0.25500000000E-02 0. -1.
     200001    2    1    2    0    0  0.24505792593E+03  0.36236349877E+03  0.34717826548E+03  0.82932101577E+03  0.61309045570E+03 0.  0.
    5000001    2    3    3    0    0  0.92723755136E+02  0.48704462504E+03  0.34231124525E+03  0.60801631467E+03  0.81833298474E+02 0.  0.
        -13    1    4    4    0    0  0.12287843081E+02  0.18621390494E+03  0.16075016981E+03  0.24630720197E+03  0.10566000000E+00 0. -1.
     200003    1    4    4    0    0  0.80435912056E+02  0.30083072010E+03  0.18156107544E+03  0.36170911271E+03  0.30000000000E+02 0. -1.
     200000    1    3    3    0    0  0.15233417079E+03 -0.12468112628E+03  0.48670202362E+01  0.22130470110E+03  0.10100000000E+03 0. -1.
    -200001    1    1    2    0    0 -0.24505792593E+03 -0.36236349877E+03  0.68865070521E+03  0.10204751276E+04  0.61300000000E+03 0. -1.
<mgrwt>
<rscale>  0 0.15325809E+04</rscale>
<asrwt>0</asrwt>
<pdfrwt beam="1">  1        2 0.20611608E+00 0.15325809E+04</pdfrwt>
<pdfrwt beam="2">  1       -2 0.58140512E-01 0.15325809E+04</pdfrwt>
<totfact> 0.41916759E+01</totfact>
</mgrwt>
</event>
<event>
 8    1  0.7583103E-052  0.1243684E+04  0.7818608E-02  0.9075456E-01
          2   -1    0    0  501    0  0.00000000000E+00  0.00000000000E+00  0.13892819165E+04  0.13892819165E+04  0.25500000000E-02 0. -1.
         -2   -1    0    0    0  501 -0.00000000000E+00 -0.00000000000E+00 -0.27833638020E+03  0.27833638021E+03  0.25500000000E-02 0.  1.
     200001    2    1    2    0    0 -0.79493435963E+02 -0.29055188440E+02  0.63843064999E+03  0.88902807834E+03  0.61287341180E+03 0.  0.
    5000001    2    3    3    0    0  0.45550020418E+02 -0.10562093180E+03 -0.65515150341E+02  0.16291591837E+03  0.94967236142E+02 0.  0.
        -13    1    4    4    0    0  0.49306870814E+02 -0.79380332893E+02 -0.77200394084E+02  0.12121186728E+03  0.10566000000E+00 0. -1.
     200003    1    4    4    0    0 -0.37568503957E+01 -0.26240598911E+02  0.11685243742E+02  0.41704051091E+02  0.30000000000E+02 0.  1.
     200000    1    3    3    0    0 -0.12504345638E+03  0.76565743365E+02  0.70394580034E+03  0.72611215997E+03  0.10100000000E+03 0. -1.
    -200001    1    1    2    0    0  0.79493435963E+02  0.29055188440E+02  0.47251488626E+03  0.77859021832E+03  0.61300000000E+03 0. -1.
<mgrwt>
<rscale>  0 0.12436844E+04</rscale>
<asrwt>0</asrwt>
<pdfrwt beam="1">  1        2 0.19846884E+00 0.12436844E+04</pdfrwt>
<pdfrwt beam="2">  1       -2 0.39762340E-01 0.12436844E+04</pdfrwt>
<totfact> 0.98678959E+01</totfact>
</mgrwt>
</event>
<event>
 8    1  0.7583103E-052  0.1931093E+04  0.7818608E-02  0.8639532E-01
          2   -1    0    0  501    0  0.00000000000E+00  0.00000000000E+00  0.83090951481E+03  0.83090951482E+03  0.25500000000E-02 0.  1.
         -2   -1    0    0    0  501 -0.00000000000E+00 -0.00000000000E+00 -0.11219999042E+04  0.11219999042E+04  0.25500000000E-02 0. -1.
     200001    2    1    2    0    0 -0.27257722547E+03  0.57365888817E+03 -0.54104881802E+03  0.10355048845E+04  0.61331368691E+03 0.  0.
    5000001    2    3    3    0    0 -0.44130187796E+03  0.45569629066E+03 -0.32287779953E+03  0.71898825607E+03  0.10142771872E+03 0.  0.
        -13    1    4    4    0    0 -0.28518449776E+03  0.32270505884E+03 -0.25694757367E+03  0.50148860360E+03  0.10566000000E+00 0. -1.
     200003    1    4    4    0    0 -0.15611738021E+03  0.13299123182E+03 -0.65930225864E+02  0.21749965247E+03  0.30000000000E+02 0. -1.
     200000    1    3    3    0    0  0.16872465249E+03  0.11796259751E+03 -0.21817101849E+03  0.31651662844E+03  0.10100000000E+03 0.  1.
    -200001    1    1    2    0    0  0.27257722547E+03 -0.57365888817E+03  0.24995842866E+03  0.91740453448E+03  0.61300000000E+03 0.  1.
<mgrwt>
<rscale>  0 0.19310934E+04</rscale>
<asrwt>0</asrwt>
<pdfrwt beam="1">  1        2 0.11870136E+00 0.19310934E+04</pdfrwt>
<pdfrwt beam="2">  1       -2 0.16028570E+00 0.19310934E+04</pdfrwt>
<totfact> 0.84990625E+00</totfact>
</mgrwt>
</event>
<event>
 8    1  0.7583103E-052  0.2743693E+04  0.7818608E-02  0.8320966E-01
          2   -1    0    0  501    0  0.00000000000E+00  0.00000000000E+00  0.65022011433E+03  0.65022011434E+03  0.25500000000E-02 0.  1.
         -2   -1    0    0    0  501 -0.00000000000E+00 -0.00000000000E+00 -0.28943472215E+04  0.28943472215E+04  0.25500000000E-02 0. -1.
     200001    2    1    2    0    0 -0.39332402677E+03  0.80071844846E+03 -0.22110709625E+04  0.24616474254E+04  0.61238829358E+03 0.  0.
    5000001    2    3    3    0    0 -0.23908330043E+03  0.87820645189E+02 -0.23782696739E+03  0.35548828048E+03  0.70263510244E+02 0.  0.
        -13    1    4    4    0    0 -0.13011074549E+03  0.69234081098E+02 -0.15672122845E+03  0.21513651175E+03  0.10566000000E+00 0. -1.
     200003    1    4    4    0    0 -0.10897255495E+03  0.18586564091E+02 -0.81105738938E+02  0.14035176873E+03  0.30000000000E+02 0. -1.
     200000    1    3    3    0    0 -0.15424072634E+03  0.71289780327E+03 -0.19732439951E+04  0.21061591449E+04  0.10100000000E+03 0. -1.
    -200001    1    1    2    0    0  0.39332402677E+03 -0.80071844846E+03 -0.33056144696E+02  0.10829199104E+04  0.61300000000E+03 0.  1.
<mgrwt>
<rscale>  0 0.27436930E+04</rscale>
<asrwt>0</asrwt>
<pdfrwt beam="1">  1        2 0.92888589E-01 0.27436930E+04</pdfrwt>
<pdfrwt beam="2">  1       -2 0.41347817E+00 0.27436930E+04</pdfrwt>
<totfact> 0.26193061E-01</totfact>
</mgrwt>
</event>
<event>
 8    1  0.7583103E-052  0.1314347E+04  0.7818608E-02  0.9018265E-01
         -2   -1    0    0    0  501 -0.00000000000E+00  0.00000000000E+00  0.66577489848E+03  0.66577489849E+03  0.25500000000E-02 0. -1.
          2   -1    0    0  501    0  0.00000000000E+00 -0.00000000000E+00 -0.64868327406E+03  0.64868327407E+03  0.25500000000E-02 0.  1.
     200001    2    1    2    0    0 -0.12312407193E+03 -0.83717403817E+02 -0.17940701570E+03  0.65373973301E+03  0.61075414074E+03 0.  0.
    5000001    2    3    3    0    0 -0.25682831638E+03 -0.22529355202E+03  0.23332158051E+02  0.35503452164E+03  0.93739816932E+02 0.  0.
        -13    1    4    4    0    0 -0.14659764295E+03 -0.78354348837E+02 -0.74131068533E+01  0.16638881638E+03  0.10566000000E+00 0. -1.
     200003    1    4    4    0    0 -0.11023067343E+03 -0.14693920318E+03  0.30745264904E+02  0.18864570525E+03  0.30000000000E+02 0. -1.
     200000    1    3    3    0    0  0.13370424445E+03  0.14157614820E+03 -0.20273917375E+03  0.29870521137E+03  0.10100000000E+03 0.  1.
    -200001    1    1    2    0    0  0.12312407193E+03  0.83717403817E+02  0.19649864012E+03  0.66071843955E+03  0.61300000000E+03 0. -1.
<mgrwt>
<rscale>  0 0.13143470E+04</rscale>
<asrwt>0</asrwt>
<pdfrwt beam="1">  1        2 0.92669038E-01 0.13143470E+04</pdfrwt>
<pdfrwt beam="2">  1       -2 0.95110700E-01 0.13143470E+04</pdfrwt>
<totfact> 0.45043654E+01</totfact>
</mgrwt>
</event>
<event>
 8    1  0.7583103E-052  0.1731479E+04  0.7818608E-02  0.8743612E-01
         -2   -1    0    0    0  501 -0.00000000000E+00  0.00000000000E+00  0.38107252470E+03  0.38107252471E+03  0.25500000000E-02 0. -1.
          2   -1    0    0  501    0  0.00000000000E+00 -0.00000000000E+00 -0.19668304870E+04  0.19668304870E+04  0.25500000000E-02 0.  1.
     200001    2    1    2    0    0  0.76034879808E+02 -0.50324561607E+03 -0.12515529073E+04  0.14839010025E+04  0.61362859494E+03 0.  0.
    5000001    2    3    3    0    0 -0.24216328226E+03 -0.32261221585E+03 -0.71310208911E+03  0.82510757571E+03  0.97807080105E+02 0.  0.
        -13    1    4    4    0    0 -0.18292623959E+02 -0.20576097222E+02 -0.14299608717E+02  0.31023955932E+02  0.10566000000E+00 0. -1.
     200003    1    4    4    0    0 -0.22387065830E+03 -0.30203611863E+03 -0.69880248039E+03  0.79408361978E+03  0.30000000000E+02 0. -1.
     200000    1    3    3    0    0  0.31819816207E+03 -0.18063340022E+03 -0.53845081817E+03  0.65879342681E+03  0.10100000000E+03 0. -1.
    -200001    1    1    2    0    0 -0.76034879808E+02  0.50324561607E+03 -0.33420505498E+03  0.86400200915E+03  0.61300000000E+03 0. -1.
<mgrwt>
<rscale>  0 0.17314792E+04</rscale>
<asrwt>0</asrwt>
<pdfrwt beam="1">  1        2 0.28097578E+00 0.17314792E+04</pdfrwt>
<pdfrwt beam="2">  1       -2 0.54438933E-01 0.17314792E+04</pdfrwt>
<totfact> 0.25219874E+01</totfact>
</mgrwt>
</event>
<event>
 8    1  0.7583103E-052  0.1377614E+04  0.7818608E-02  0.8970184E-01
          2   -1    0    0  501    0  0.00000000000E+00  0.00000000000E+00  0.16688477881E+04  0.16688477881E+04  0.25500000000E-02 0.  1.
         -2   -1    0    0    0  501 -0.00000000000E+00 -0.00000000000E+00 -0.28430116816E+03  0.28430116817E+03  0.25500000000E-02 0. -1.
     200001    2    1    2    0    0 -0.21734160283E+03  0.19168047453E+03  0.86700156298E+03  0.11001538434E+04  0.61210129245E+03 0.  0.
    5000001    2    3    3    0    0 -0.28572321640E+03 -0.56703201166E+02  0.73115158989E+03  0.79188981593E+03  0.87486134666E+02 0.  0.
        -13    1    4    4    0    0 -0.19790315072E+03 -0.46228881257E+02  0.41270010016E+03  0.46002624965E+03  0.10566000000E+00 0. -1.
     200003    1    4    4    0    0 -0.87820065675E+02 -0.10474319909E+02  0.31845148973E+03  0.33186356628E+03  0.30000000000E+02 0. -1.
     200000    1    3    3    0    0  0.68381613569E+02  0.24838367569E+03  0.13584997310E+03  0.30826402744E+03  0.10100000000E+03 0. -1.
    -200001    1    1    2    0    0  0.21734160283E+03 -0.19168047453E+03  0.51754505692E+03  0.85299511287E+03  0.61300000000E+03 0.  1.
<mgrwt>
<rscale>  0 0.13776144E+04</rscale>
<asrwt>0</asrwt>
<pdfrwt beam="1">  1        2 0.23840682E+00 0.13776144E+04</pdfrwt>
<pdfrwt beam="2">  1       -2 0.40614454E-01 0.13776144E+04</pdfrwt>
<totfact> 0.66663782E+01</totfact>
</mgrwt>
</event>
<event>
 8    1  0.7583103E-052  0.1395211E+04  0.7818608E-02  0.8957292E-01
          2   -1    0    0  501    0  0.00000000000E+00  0.00000000000E+00  0.99119653001E+03  0.99119653001E+03  0.25500000000E-02 0.  1.
         -2   -1    0    0    0  501 -0.00000000000E+00 -0.00000000000E+00 -0.49097596372E+03  0.49097596372E+03  0.25500000000E-02 0. -1.
     200001    2    1    2    0    0  0.38686593423E+02 -0.10791902362E+02  0.60152035556E+03  0.85956204974E+03  0.61270470990E+03 0.  0.
    5000001    2    3    3    0    0  0.26832091418E+03 -0.13606415090E+03  0.25687089585E+03  0.41525437751E+03  0.12626945299E+03 0.  0.
        -13    1    4    4    0    0  0.42555894799E+02  0.23018176757E+02  0.41461641568E+02  0.63717497823E+02  0.10566000000E+00 0. -1.
     200003    1    4    4    0    0  0.22576501939E+03 -0.15908232766E+03  0.21540925429E+03  0.35153687969E+03  0.30000000000E+02 0. -1.
     200000    1    3    3    0    0 -0.22963432076E+03  0.12527224854E+03  0.34464945970E+03  0.44430767223E+03  0.10100000000E+03 0.  1.
    -200001    1    1    2    0    0 -0.38686593423E+02  0.10791902362E+02 -0.10129978927E+03  0.62261044400E+03  0.61300000000E+03 0. -1.
<mgrwt>
<rscale>  0 0.13952113E+04</rscale>
<asrwt>0</asrwt>
<pdfrwt beam="1">  1        2 0.14159950E+00 0.13952113E+04</pdfrwt>
<pdfrwt beam="2">  1       -2 0.70139424E-01 0.13952113E+04</pdfrwt>
<totfact> 0.51332657E+01</totfact>
</mgrwt>
</event>
<event>
 8    1  0.7583103E-052  0.1395029E+04  0.7818608E-02  0.8957425E-01
         -2   -1    0    0    0  501 -0.00000000000E+00  0.00000000000E+00  0.10456315151E+04  0.10456315151E+04  0.25500000000E-02 0. -1.
          2   -1    0    0  501    0  0.00000000000E+00 -0.00000000000E+00 -0.46529418855E+03  0.46529418856E+03  0.25500000000E-02 0.  1.
     200001    2    1    2    0    0  0.67861088629E+02  0.18392860073E+03  0.58076646370E+03  0.86733884725E+03  0.61363843840E+03 0.  0.
    5000001    2    3    3    0    0  0.24559678348E+03  0.88200784463E+02  0.57969538615E+03  0.64160462468E+03  0.86675228657E+02 0.  0.
        -13    1    4    4    0    0  0.21562675157E+03  0.61012535293E+02  0.48772381680E+03  0.53674198466E+03  0.10566000000E+00 0. -1.
     200003    1    4    4    0    0  0.29970031908E+02  0.27188249170E+02  0.91971569341E+02  0.10486264002E+03  0.30000000000E+02 0.  1.
     200000    1    3    3    0    0 -0.17773569485E+03  0.95727816271E+02  0.10710775566E+01  0.22573422257E+03  0.10100000000E+03 0.  1.
    -200001    1    1    2    0    0 -0.67861088629E+02 -0.18392860073E+03 -0.42913719920E+00  0.64358685636E+03  0.61300000000E+03 0. -1.
<mgrwt>
<rscale>  0 0.13950287E+04</rscale>
<asrwt>0</asrwt>
<pdfrwt beam="1">  1        2 0.66470598E-01 0.13950287E+04</pdfrwt>
<pdfrwt beam="2">  1       -2 0.14937593E+00 0.13950287E+04</pdfrwt>
<totfact> 0.21521459E+01</totfact>
</mgrwt>
</event>
<event>
 8    1  0.7583103E-052  0.1410597E+04  0.7818608E-02  0.8946184E-01
          2   -1    0    0  501    0  0.00000000000E+00  0.00000000000E+00  0.10092882999E+04  0.10092882999E+04  0.25500000000E-02 0. -1.
         -2   -1    0    0    0  501 -0.00000000000E+00 -0.00000000000E+00 -0.49286772417E+03  0.49286772417E+03  0.25500000000E-02 0.  1.
     200001    2    1    2    0    0 -0.20676668299E+03 -0.20295592895E+03  0.46502813982E+03  0.82219003025E+03  0.61302667539E+03 0.  0.
    5000001    2    3    3    0    0 -0.39955621903E+03 -0.19715520210E+03  0.25722591369E+03  0.52121790725E+03  0.83591807506E+02 0.  0.
        -13    1    4    4    0    0 -0.13300137018E+03 -0.73837443988E+02  0.12856409786E+03  0.19917346968E+03  0.10566000000E+00 0. -1.
     200003    1    4    4    0    0 -0.26655484886E+03 -0.12331775812E+03  0.12866181583E+03  0.32204443757E+03  0.30000000000E+02 0. -1.
     200000    1    3    3    0    0  0.19278953605E+03 -0.58007268435E+01  0.20780222613E+03  0.30097212300E+03  0.10100000000E+03 0.  1.
    -200001    1    1    2    0    0  0.20676668299E+03  0.20295592895E+03  0.51392435920E+02  0.67996599383E+03  0.61300000000E+03 0.  1.
<mgrwt>
<rscale>  0 0.14105965E+04</rscale>
<asrwt>0</asrwt>
<pdfrwt beam="1">  1        2 0.14418404E+00 0.14105965E+04</pdfrwt>
<pdfrwt beam="2">  1       -2 0.70409675E-01 0.14105965E+04</pdfrwt>
<totfact> 0.49553281E+01</totfact>
</mgrwt>
</event>
<event>
 8    1  0.7583103E-052  0.1494524E+04  0.7818608E-02  0.8888102E-01
          2   -1    0    0  501    0  0.00000000000E+00  0.00000000000E+00  0.84646559554E+03  0.84646559555E+03  0.25500000000E-02 0.  1.
         -2   -1    0    0    0  501 -0.00000000000E+00 -0.00000000000E+00 -0.65968491993E+03  0.65968491993E+03  0.25500000000E-02 0. -1.
     200001    2    1    2    0    0 -0.24620612850E+03 -0.27252257227E+03 -0.12501767312E+03  0.72648826785E+03  0.61422290304E+03 0.  0.
    5000001    2    3    3    0    0 -0.14409706966E+03  0.14641262689E+03 -0.17510252428E+03  0.28079504004E+03  0.77358501181E+02 0.  0.
        -13    1    4    4    0    0 -0.64119580813E+02  0.69351687301E+02 -0.37969706773E+02  0.10179728371E+03  0.10566000000E+00 0. -1.
     200003    1    4    4    0    0 -0.79977488845E+02  0.77060939593E+02 -0.13713281751E+03  0.17899775633E+03  0.30000000000E+02 0. -1.
     200000    1    3    3    0    0 -0.10210905885E+03 -0.41893519916E+03  0.50084851157E+02  0.44569322780E+03  0.10100000000E+03 0. -1.
    -200001    1    1    2    0    0  0.24620612850E+03  0.27252257227E+03  0.31179834874E+03  0.77966224763E+03  0.61300000000E+03 0.  1.
<mgrwt>
<rscale>  0 0.14945241E+04</rscale>
<asrwt>0</asrwt>
<pdfrwt beam="1">  1        2 0.12092366E+00 0.14945241E+04</pdfrwt>
<pdfrwt beam="2">  1       -2 0.94240702E-01 0.14945241E+04</pdfrwt>
<totfact> 0.32476587E+01</totfact>
</mgrwt>
</event>
<event>
 8    1  0.7583103E-052  0.1552454E+04  0.7818608E-02  0.8850302E-01
          2   -1    0    0  501    0  0.00000000000E+00  0.00000000000E+00  0.33044686122E+04  0.33044686122E+04  0.25500000000E-02 0.  1.
         -2   -1    0    0    0  501 -0.00000000000E+00 -0.00000000000E+00 -0.18233750039E+03  0.18233750040E+03  0.25500000000E-02 0. -1.
     200001    2    1    2    0    0 -0.45202239426E+03 -0.43661514291E+01  0.19096240897E+04  0.20549242785E+04  0.60967722459E+03 0.  0.
    5000001    2    3    3    0    0  0.40215038177E+02  0.17698981804E+03  0.78981914655E+03  0.81421811334E+03  0.78703283531E+02 0.  0.
        -13    1    4    4    0    0  0.12181273438E+02  0.19130014115E+02  0.33135137007E+02  0.40153322791E+02  0.10566000000E+00 0. -1.
     200003    1    4    4    0    0  0.28033764739E+02  0.15785980393E+03  0.75668400955E+03  0.77406479055E+03  0.30000000000E+02 0. -1.
     200000    1    3    3    0    0 -0.49223743243E+03 -0.18135596947E+03  0.11198049431E+04  0.12407061651E+04  0.10100000000E+03 0. -1.
    -200001    1    1    2    0    0  0.45202239426E+03  0.43661514291E+01  0.12125070221E+04  0.14318818341E+04  0.61300000000E+03 0. -1.
<mgrwt>
<rscale>  0 0.15524542E+04</rscale>
<asrwt>0</asrwt>
<pdfrwt beam="1">  1        2 0.47206689E+00 0.15524542E+04</pdfrwt>
<pdfrwt beam="2">  1       -2 0.26048217E-01 0.15524542E+04</pdfrwt>
<totfact> 0.20368876E+01</totfact>
</mgrwt>
</event>
<event>
 8    1  0.7583103E-052  0.1469932E+04  0.7818608E-02  0.8904698E-01
          2   -1    0    0  501    0  0.00000000000E+00  0.00000000000E+00  0.62311767729E+03  0.62311767730E+03  0.25500000000E-02 0.  1.
         -2   -1    0    0    0  501 -0.00000000000E+00 -0.00000000000E+00 -0.86689072719E+03  0.86689072719E+03  0.25500000000E-02 0. -1.
     200001    2    1    2    0    0  0.14155929829E+03  0.20750505372E+03  0.20043613859E+03  0.69239434657E+03  0.61330082608E+03 0.  0.
    5000001    2    3    3    0    0  0.15483468579E+03  0.35850711596E+03 -0.26515926082E+02  0.40138558662E+03  0.88916605273E+02 0.  0.
        -13    1    4    4    0    0  0.97694557764E+02  0.28180223065E+03 -0.23255186202E+01  0.29826522260E+03  0.10566000000E+00 0. -1.
     200003    1    4    4    0    0  0.57140128026E+02  0.76704885313E+02 -0.24190407462E+02  0.10312036402E+03  0.30000000000E+02 0.  1.
     200000    1    3    3    0    0 -0.13275387502E+02 -0.15100206224E+03  0.22695206467E+03  0.29100875995E+03  0.10100000000E+03 0. -1.
    -200001    1    1    2    0    0 -0.14155929829E+03 -0.20750505372E+03 -0.44420918848E+03  0.79761405791E+03  0.61300000000E+03 0. -1.
<mgrwt>
<rscale>  0 0.14699319E+04</rscale>
<asrwt>0</asrwt>
<pdfrwt beam="1">  1        2 0.89016812E-01 0.14699319E+04</pdfrwt>
<pdfrwt beam="2">  1       -2 0.12384153E+00 0.14699319E+04</pdfrwt>
<totfact> 0.24692628E+01</totfact>
</mgrwt>
</event>
<event>
 8    1  0.7583103E-052  0.1821613E+04  0.7818608E-02  0.8694890E-01
         -2   -1    0    0    0  501 -0.00000000000E+00  0.00000000000E+00  0.31134425284E+03  0.31134425285E+03  0.25500000000E-02 0. -1.
          2   -1    0    0  501    0  0.00000000000E+00 -0.00000000000E+00 -0.26644723265E+04  0.26644723265E+04  0.25500000000E-02 0.  1.
     200001    2    1    2    0    0 -0.18705045256E+03 -0.43369046262E+03 -0.19614455998E+04  0.21084876628E+04  0.61267943811E+03 0.  0.
    5000001    2    3    3    0    0  0.21205158930E+03 -0.13353489472E+03 -0.56908340994E+03  0.62583825292E+03  0.70852993721E+02 0.  0.
        -13    1    4    4    0    0  0.16931656124E+03 -0.10088633477E+03 -0.40075372598E+03  0.44659792935E+03  0.10566000000E+00 0. -1.
     200003    1    4    4    0    0  0.42735028054E+02 -0.32648559955E+02 -0.16832968396E+03  0.17924032357E+03  0.30000000000E+02 0. -1.
     200000    1    3    3    0    0 -0.39910204186E+03 -0.30015556790E+03 -0.13923621899E+04  0.14826494099E+04  0.10100000000E+03 0.  1.
    -200001    1    1    2    0    0  0.18705045256E+03  0.43369046262E+03 -0.39168247381E+03  0.86732891653E+03  0.61300000000E+03 0. -1.
<mgrwt>
<rscale>  0 0.18216126E+04</rscale>
<asrwt>0</asrwt>
<pdfrwt beam="1">  1        2 0.38063889E+00 0.18216126E+04</pdfrwt>
<pdfrwt beam="2">  1       -2 0.44477752E-01 0.18216126E+04</pdfrwt>
<totfact> 0.16337309E+01</totfact>
</mgrwt>
</event>
<event>
 8    1  0.7583103E-052  0.1746314E+04  0.7818608E-02  0.8735382E-01
         -2   -1    0    0    0  501 -0.00000000000E+00  0.00000000000E+00  0.90730693855E+03  0.90730693855E+03  0.25500000000E-02 0. -1.
          2   -1    0    0  501    0  0.00000000000E+00 -0.00000000000E+00 -0.84029269281E+03  0.84029269281E+03  0.25500000000E-02 0.  1.
     200001    2    1    2    0    0 -0.17888455295E+03 -0.21759093836E+03 -0.52102049864E+03  0.85266982387E+03  0.61338240014E+03 0.  0.
    5000001    2    3    3    0    0 -0.33468480859E+03 -0.26234592540E+03 -0.49815055491E+03  0.66031400033E+03  0.83793185890E+02 0.  0.
        -13    1    4    4    0    0 -0.98454150436E+02 -0.12290052751E+03 -0.17980412315E+03  0.23901316546E+03  0.10566000000E+00 0. -1.
     200003    1    4    4    0    0 -0.23623065816E+03 -0.13944539790E+03 -0.31834643176E+03  0.42130083487E+03  0.30000000000E+02 0. -1.
     200000    1    3    3    0    0  0.15580025564E+03  0.44754987047E+02 -0.22869943732E+02  0.19235582354E+03  0.10100000000E+03 0.  1.
    -200001    1    1    2    0    0  0.17888455295E+03  0.21759093836E+03  0.58803474438E+03  0.89492980749E+03  0.61300000000E+03 0. -1.
<mgrwt>
<rscale>  0 0.17463143E+04</rscale>
<asrwt>0</asrwt>
<pdfrwt beam="1">  1        2 0.12004181E+00 0.17463143E+04</pdfrwt>
<pdfrwt beam="2">  1       -2 0.12961528E+00 0.17463143E+04</pdfrwt>
<totfact> 0.14829830E+01</totfact>
</mgrwt>
</event>
<event>
 8    1  0.7583103E-052  0.1584308E+04  0.7818608E-02  0.8830247E-01
          2   -1    0    0  501    0  0.00000000000E+00  0.00000000000E+00  0.11144173902E+04  0.11144173902E+04  0.25500000000E-02 0.  1.
         -2   -1    0    0    0  501 -0.00000000000E+00 -0.00000000000E+00 -0.56308162969E+03  0.56308162969E+03  0.25500000000E-02 0. -1.
     200001    2    1    2    0    0 -0.23305066613E+03 -0.43637718889E+03  0.18571838596E+03  0.80906207424E+03  0.61266014815E+03 0.  0.
    5000001    2    3    3    0    0 -0.23607428669E+03  0.73445156272E+02  0.82061774001E+02  0.27908692472E+03  0.10015047169E+03 0.  0.
        -13    1    4    4    0    0 -0.17750732880E+03  0.24748517201E+02  0.29061419632E+02  0.18156518983E+03  0.10566000000E+00 0. -1.
     200003    1    4    4    0    0 -0.58566957890E+02  0.48696639071E+02  0.53000354369E+02  0.97521734893E+02  0.30000000000E+02 0. -1.
     200000    1    3    3    0    0  0.30236205637E+01 -0.50982234516E+03  0.10365661196E+03  0.52997514952E+03  0.10100000000E+03 0.  1.
    -200001    1    1    2    0    0  0.23305066613E+03  0.43637718889E+03  0.36561737453E+03  0.86843694562E+03  0.61300000000E+03 0. -1.
<mgrwt>
<rscale>  0 0.15843080E+04</rscale>
<asrwt>0</asrwt>
<pdfrwt beam="1">  1        2 0.15920249E+00 0.15843080E+04</pdfrwt>
<pdfrwt beam="2">  1       -2 0.80440232E-01 0.15843080E+04</pdfrwt>
<totfact> 0.31477532E+01</totfact>
</mgrwt>
</event>
<event>
 8    1  0.7583103E-052  0.1601560E+04  0.7818608E-02  0.8819590E-01
         -2   -1    0    0    0  501 -0.00000000000E+00  0.00000000000E+00  0.84908581430E+03  0.84908581430E+03  0.25500000000E-02 0. -1.
          2   -1    0    0  501    0  0.00000000000E+00 -0.00000000000E+00 -0.75522208669E+03  0.75522208669E+03  0.25500000000E-02 0.  1.
     200001    2    1    2    0    0  0.45004362216E+03 -0.10545623708E+03 -0.17939345873E+03  0.78938534660E+03  0.61423687011E+03 0.  0.
    5000001    2    3    3    0    0  0.19360503557E+03 -0.33971018738E+03 -0.14290877999E+03  0.42583645895E+03  0.89598265393E+02 0.  0.
        -13    1    4    4    0    0  0.74152212478E+02 -0.19857268248E+03 -0.55413549673E+02  0.21908978410E+03  0.10566000000E+00 0. -1.
     200003    1    4    4    0    0  0.11945282309E+03 -0.14113750490E+03 -0.87495230320E+02  0.20674667485E+03  0.30000000000E+02 0. -1.
     200000    1    3    3    0    0  0.25643858659E+03  0.23425395031E+03 -0.36484678735E+02  0.36354888765E+03  0.10100000000E+03 0. -1.
    -200001    1    1    2    0    0 -0.45004362216E+03  0.10545623708E+03  0.27325718634E+03  0.81492255440E+03  0.61300000000E+03 0. -1.
<mgrwt>
<rscale>  0 0.16015597E+04</rscale>
<asrwt>0</asrwt>
<pdfrwt beam="1">  1        2 0.10788887E+00 0.16015597E+04</pdfrwt>
<pdfrwt beam="2">  1       -2 0.12129797E+00 0.16015597E+04</pdfrwt>
<totfact> 0.20330584E+01</totfact>
</mgrwt>
</event>
<event>
 8    1  0.7583103E-052  0.1888849E+04  0.7818608E-02  0.8660427E-01
          2   -1    0    0  501    0  0.00000000000E+00  0.00000000000E+00  0.13213706420E+04  0.13213706420E+04  0.25500000000E-02 0.  1.
         -2   -1    0    0    0  501 -0.00000000000E+00 -0.00000000000E+00 -0.67500964909E+03  0.67500964909E+03  0.25500000000E-02 0. -1.
     200001    2    1    2    0    0 -0.33361097692E+03 -0.31469123454E+03 -0.26150761867E+03  0.80881080981E+03  0.61274940590E+03 0.  0.
    5000001    2    3    3    0    0 -0.40531634581E+03 -0.42946281482E+03 -0.21061466806E+03  0.63244395354E+03  0.83109364490E+02 0.  0.
        -13    1    4    4    0    0 -0.24814461112E+03 -0.21345108063E+03 -0.10734723628E+03  0.34447140977E+03  0.10566000000E+00 0. -1.
     200003    1    4    4    0    0 -0.15717173469E+03 -0.21601173420E+03 -0.10326743178E+03  0.28797254376E+03  0.30000000000E+02 0. -1.
     200000    1    3    3    0    0  0.71705368890E+02  0.11477158029E+03 -0.50892950612E+02  0.17636685627E+03  0.10100000000E+03 0.  1.
    -200001    1    1    2    0    0  0.33361097692E+03  0.31469123454E+03  0.90786861162E+03  0.11875694813E+04  0.61300000000E+03 0.  1.
<mgrwt>
<rscale>  0 0.18888493E+04</rscale>
<asrwt>0</asrwt>
<pdfrwt beam="1">  1        2 0.18876723E+00 0.18888493E+04</pdfrwt>
<pdfrwt beam="2">  1       -2 0.96429950E-01 0.18888493E+04</pdfrwt>
<totfact> 0.15468369E+01</totfact>
</mgrwt>
</event>
<event>
 8    1  0.7583103E-052  0.1316542E+04  0.7818608E-02  0.9016549E-01
         -2   -1    0    0    0  501 -0.00000000000E+00  0.00000000000E+00  0.20477127369E+03  0.20477127371E+03  0.25500000000E-02 0. -1.
          2   -1    0    0  501    0  0.00000000000E+00 -0.00000000000E+00 -0.21161219003E+04  0.21161219003E+04  0.25500000000E-02 0.  1.
     200001    2    1    2    0    0 -0.20682429619E+03 -0.88489464916E+02 -0.81127318891E+03  0.10416175806E+04  0.61334845100E+03 0.  0.
    5000001    2    3    3    0    0  0.18186386703E+03 -0.14134240407E+03 -0.26740433054E+03  0.36348318649E+03  0.86964415437E+02 0.  0.
        -13    1    4    4    0    0  0.41461098881E+01 -0.18930447083E+02 -0.11007545955E+01  0.19410689805E+02  0.10566000000E+00 0. -1.
     200003    1    4    4    0    0  0.17771775714E+03 -0.12241195699E+03 -0.26630357594E+03  0.34407249669E+03  0.30000000000E+02 0. -1.
     200000    1    3    3    0    0 -0.38868816322E+03  0.52852939156E+02 -0.54386885837E+03  0.67813439414E+03  0.10100000000E+03 0.  1.
    -200001    1    1    2    0    0  0.20682429619E+03  0.88489464916E+02 -0.11000774377E+04  0.12792755934E+04  0.61300000000E+03 0.  1.
<mgrwt>
<rscale>  0 0.13165424E+04</rscale>
<asrwt>0</asrwt>
<pdfrwt beam="1">  1        2 0.30230312E+00 0.13165424E+04</pdfrwt>
<pdfrwt beam="2">  1       -2 0.29253040E-01 0.13165424E+04</pdfrwt>
<totfact> 0.73631930E+01</totfact>
</mgrwt>
</event>
<event>
 8    1  0.7583103E-052  0.1446360E+04  0.7818608E-02  0.8920928E-01
          2   -1    0    0  501    0  0.00000000000E+00  0.00000000000E+00  0.41746469492E+04  0.41746469492E+04  0.25500000000E-02 0.  1.
         -2   -1    0    0    0  501 -0.00000000000E+00 -0.00000000000E+00 -0.12527748271E+03  0.12527748274E+03  0.25500000000E-02 0. -1.
     200001    2    1    2    0    0 -0.21010854838E+03 -0.83374032556E+02  0.11014194616E+04  0.12804418500E+04  0.61262522751E+03 0.  0.
    5000001    2    3    3    0    0 -0.12432862188E+03 -0.14140311372E+03  0.43204653451E+03  0.59561582421E+03  0.36419988369E+03 0.  0.
        -13    1    4    4    0    0  0.73570521325E+02 -0.18464065062E+03  0.16025929891E+03  0.25531910528E+03  0.10566000000E+00 0. -1.
     200003    1    4    4    0    0 -0.19789914320E+03  0.43237536903E+02  0.27178723560E+03  0.34029671893E+03  0.30000000000E+02 0. -1.
     200000    1    3    3    0    0 -0.85779926500E+02  0.58029081166E+02  0.66937292710E+03  0.68482602578E+03  0.10100000000E+03 0.  1.
    -200001    1    1    2    0    0  0.21010854838E+03  0.83374032556E+02  0.29479500048E+04  0.30194825819E+04  0.61300000000E+03 0.  1.
<mgrwt>
<rscale>  0 0.14463599E+04</rscale>
<asrwt>0</asrwt>
<pdfrwt beam="1">  1        2 0.59637802E+00 0.14463599E+04</pdfrwt>
<pdfrwt beam="2">  1       -2 0.17896787E-01 0.14463599E+04</pdfrwt>
<totfact> 0.11067055E+01</totfact>
</mgrwt>
</event>
<event>
 8    1  0.7583103E-052  0.1313791E+04  0.7818608E-02  0.9018700E-01
         -2   -1    0    0    0  501 -0.00000000000E+00  0.00000000000E+00  0.29476816839E+03  0.29476816841E+03  0.25500000000E-02 0. -1.
          2   -1    0    0  501    0  0.00000000000E+00 -0.00000000000E+00 -0.14639019892E+04  0.14639019892E+04  0.25500000000E-02 0.  1.
     200001    2    1    2    0    0 -0.20272940192E+03  0.42171087422E+02 -0.73487678119E+03  0.97942322146E+03  0.61347237279E+03 0.  0.
    5000001    2    3    3    0    0  0.80726183888E+02  0.20968527424E+03 -0.30495892544E+03  0.42857075972E+03  0.20047024438E+03 0.  0.
        -13    1    4    4    0    0  0.11102116760E+03  0.22833362767E+03 -0.26775615715E+03  0.36899229807E+03  0.10566000000E+00 0. -1.
     200003    1    4    4    0    0 -0.30294983712E+02 -0.18648353428E+02 -0.37202768291E+02  0.59578461647E+02  0.30000000000E+02 0. -1.
     200000    1    3    3    0    0 -0.28345558581E+03 -0.16751418682E+03 -0.42991785575E+03  0.55085246174E+03  0.10100000000E+03 0.  1.
    -200001    1    1    2    0    0  0.20272940192E+03 -0.42171087422E+02 -0.43425703958E+03  0.77924693611E+03  0.61300000000E+03 0. -1.
<mgrwt>
<rscale>  0 0.13137910E+04</rscale>
<asrwt>0</asrwt>
<pdfrwt beam="1">  1        2 0.20912885E+00 0.13137910E+04</pdfrwt>
<pdfrwt beam="2">  1       -2 0.42109739E-01 0.13137910E+04</pdfrwt>
<totfact> 0.79993172E+01</totfact>
</mgrwt>
</event>
<event>
 8    1  0.7583103E-052  0.1949516E+04  0.7818608E-02  0.8630594E-01
         -2   -1    0    0    0  501 -0.00000000000E+00  0.00000000000E+00  0.33833566377E+03  0.33833566378E+03  0.25500000000E-02 0. -1.
          2   -1    0    0  501    0  0.00000000000E+00 -0.00000000000E+00 -0.28083161189E+04  0.28083161189E+04  0.25500000000E-02 0.  1.
     200001    2    1    2    0    0 -0.22045843605E+03  0.34170028219E+03 -0.22671034864E+04  0.23835731044E+04  0.61343420269E+03 0.  0.
    5000001    2    3    3    0    0  0.12967619487E+03  0.72363935012E+02 -0.30209446995E+03  0.36699239377E+03  0.14618445098E+03 0.  0.
        -13    1    4    4    0    0  0.11336496808E+03  0.99508731020E+02 -0.28011025244E+03  0.31814362829E+03  0.10566000000E+00 0. -1.
     200003    1    4    4    0    0  0.16311226793E+02 -0.27144796008E+02 -0.21984217514E+02  0.48848765486E+02  0.30000000000E+02 0. -1.
     200000    1    3    3    0    0 -0.35013463092E+03  0.26933634718E+03 -0.19650090164E+04  0.20165807106E+04  0.10100000000E+03 0. -1.
    -200001    1    1    2    0    0  0.22045843605E+03 -0.34170028219E+03 -0.20287696876E+03  0.76307867834E+03  0.61300000000E+03 0. -1.
<mgrwt>
<rscale>  0 0.19495163E+04</rscale>
<asrwt>0</asrwt>
<pdfrwt beam="1">  1        2 0.40118801E+00 0.19495163E+04</pdfrwt>
<pdfrwt beam="2">  1       -2 0.48333668E-01 0.19495163E+04</pdfrwt>
<totfact> 0.11437206E+01</totfact>
</mgrwt>
</event>
<event>
 8    1  0.7583103E-052  0.1441844E+04  0.7818608E-02  0.8924074E-01
          2   -1    0    0  501    0  0.00000000000E+00  0.00000000000E+00  0.18286519839E+04  0.18286519839E+04  0.25500000000E-02 0.  1.
         -2   -1    0    0    0  501 -0.00000000000E+00 -0.00000000000E+00 -0.28421420422E+03  0.28421420424E+03  0.25500000000E-02 0. -1.
     200001    2    1    2    0    0  0.75759765187E+02  0.24899480846E+03  0.11769094972E+04  0.13522190984E+04  0.61289686642E+03 0.  0.
    5000001    2    3    3    0    0 -0.20625575045E+03  0.22971431103E+03  0.35075078502E+03  0.47321755897E+03  0.74824097956E+02 0.  0.
        -13    1    4    4    0    0 -0.16525257629E+02  0.27417720811E+02  0.11538069963E+02  0.34028719880E+02  0.10566000000E+00 0. -1.
     200003    1    4    4    0    0 -0.18973049283E+03  0.20229659022E+03  0.33921271506E+03  0.43918883909E+03  0.30000000000E+02 0. -1.
     200000    1    3    3    0    0  0.28201551564E+03  0.19280497429E+02  0.82615871220E+03  0.87900153947E+03  0.10100000000E+03 0. -1.
    -200001    1    1    2    0    0 -0.75759765187E+02 -0.24899480846E+03  0.36752828245E+03  0.76064708970E+03  0.61300000000E+03 0. -1.
<mgrwt>
<rscale>  0 0.14418445E+04</rscale>
<asrwt>0</asrwt>
<pdfrwt beam="1">  1        2 0.26123601E+00 0.14418445E+04</pdfrwt>
<pdfrwt beam="2">  1       -2 0.40602028E-01 0.14418445E+04</pdfrwt>
<totfact> 0.54864996E+01</totfact>
</mgrwt>
</event>
<event>
 8    1  0.7583103E-052  0.1988000E+04  0.7818608E-02  0.8612252E-01
          2   -1    0    0  501    0  0.00000000000E+00  0.00000000000E+00  0.19212456711E+04  0.19212456711E+04  0.25500000000E-02 0.  1.
         -2   -1    0    0    0  501 -0.00000000000E+00 -0.00000000000E+00 -0.51426854888E+03  0.51426854889E+03  0.25500000000E-02 0. -1.
     200001    2    1    2    0    0  0.22576794720E+03  0.73423311580E+03  0.88667264993E+03  0.13235091938E+04  0.61271425936E+03 0.  0.
    5000001    2    3    3    0    0 -0.37363613056E+02  0.28953822879E+01  0.37605050918E+03  0.38807930916E+03  0.88244784095E+02 0.  0.
        -13    1    4    4    0    0  0.19231373058E+02  0.20802301963E+02  0.13999780632E+03  0.14283549424E+03  0.10566000000E+00 0. -1.
     200003    1    4    4    0    0 -0.56594986115E+02 -0.17906919676E+02  0.23605270286E+03  0.24524381491E+03  0.30000000000E+02 0. -1.
     200000    1    3    3    0    0  0.26313156026E+03  0.73133773352E+03  0.51062214075E+03  0.93542988465E+03  0.10100000000E+03 0. -1.
    -200001    1    1    2    0    0 -0.22576794720E+03 -0.73423311580E+03  0.52030447225E+03  0.11120050261E+04  0.61300000000E+03 0. -1.
<mgrwt>
<rscale>  0 0.19880002E+04</rscale>
<asrwt>0</asrwt>
<pdfrwt beam="1">  1        2 0.27446367E+00 0.19880002E+04</pdfrwt>
<pdfrwt beam="2">  1       -2 0.73466936E-01 0.19880002E+04</pdfrwt>
<totfact> 0.13745005E+01</totfact>
</mgrwt>
</event>
<event>
 8    1  0.7583103E-052  0.1441124E+04  0.7818608E-02  0.8924577E-01
          2   -1    0    0  501    0  0.00000000000E+00  0.00000000000E+00  0.17002897808E+04  0.17002897808E+04  0.25500000000E-02 0.  1.
         -2   -1    0    0    0  501 -0.00000000000E+00 -0.00000000000E+00 -0.30536539170E+03  0.30536539171E+03  0.25500000000E-02 0. -1.
     200001    2    1    2    0    0 -0.21921056724E+03  0.16211210432E+03  0.10637692630E+04  0.12574798424E+04  0.61263113027E+03 0.  0.
    5000001    2    3    3    0    0  0.16330589665E+02 -0.72533914861E+02 -0.38371797944E+02  0.10186125942E+03  0.58098746368E+02 0.  0.
        -13    1    4    4    0    0  0.18415887330E+02 -0.21562212168E+02 -0.31338316698E+02  0.42263165490E+02  0.10566000000E+00 0. -1.
     200003    1    4    4    0    0 -0.20852976650E+01 -0.50971702693E+02 -0.70334812455E+01  0.59598093931E+02  0.30000000000E+02 0.  1.
     200000    1    3    3    0    0 -0.23554115690E+03  0.23464601918E+03  0.11021410610E+04  0.11556185829E+04  0.10100000000E+03 0.  1.
    -200001    1    1    2    0    0  0.21921056724E+03 -0.16211210432E+03  0.33115512608E+03  0.74817533018E+03  0.61300000000E+03 0. -1.
<mgrwt>
<rscale>  0 0.14411241E+04</rscale>
<asrwt>0</asrwt>
<pdfrwt beam="1">  1        2 0.24289854E+00 0.14411241E+04</pdfrwt>
<pdfrwt beam="2">  1       -2 0.43623628E-01 0.14411241E+04</pdfrwt>
<totfact> 0.55494101E+01</totfact>
</mgrwt>
</event>
<event>
 8    1  0.7583103E-052  0.1411482E+04  0.7818608E-02  0.8945549E-01
          2   -1    0    0  501    0  0.00000000000E+00  0.00000000000E+00  0.83900515987E+03  0.83900515987E+03  0.25500000000E-02 0.  1.
         -2   -1    0    0    0  501 -0.00000000000E+00 -0.00000000000E+00 -0.59364421442E+03  0.59364421443E+03  0.25500000000E-02 0. -1.
     200001    2    1    2    0    0 -0.91065597210E+02  0.31471598467E+03 -0.71801014642E+01  0.69313258992E+03  0.61077175717E+03 0.  0.
    5000001    2    3    3    0    0 -0.28267725411E+03  0.34646054172E+03 -0.71673929515E+02  0.46491515452E+03  0.10520271749E+03 0.  0.
        -13    1    4    4    0    0 -0.19995711497E+03  0.29643817057E+03 -0.46229228045E+02  0.36054901121E+03  0.10566000000E+00 0. -1.
     200003    1    4    4    0    0 -0.82720139145E+02  0.50022371152E+02 -0.25444701471E+02  0.10436614331E+03  0.30000000000E+02 0. -1.
     200000    1    3    3    0    0  0.19161165690E+03 -0.31744557053E+02  0.64493828051E+02  0.22821743540E+03  0.10100000000E+03 0.  1.
    -200001    1    1    2    0    0  0.91065597210E+02 -0.31471598467E+03  0.25254104691E+03  0.73951678438E+03  0.61300000000E+03 0. -1.
<mgrwt>
<rscale>  0 0.14114823E+04</rscale>
<asrwt>0</asrwt>
<pdfrwt beam="1">  1        2 0.11985788E+00 0.14114823E+04</pdfrwt>
<pdfrwt beam="2">  1       -2 0.84806318E-01 0.14114823E+04</pdfrwt>
<totfact> 0.42152334E+01</totfact>
</mgrwt>
</event>
<event>
 8    1  0.7583103E-052  0.1363089E+04  0.7818608E-02  0.8980978E-01
          2   -1    0    0  501    0  0.00000000000E+00  0.00000000000E+00  0.15351527271E+04  0.15351527271E+04  0.25500000000E-02 0.  1.
         -2   -1    0    0    0  501 -0.00000000000E+00 -0.00000000000E+00 -0.30257786085E+03  0.30257786086E+03  0.25500000000E-02 0. -1.
     200001    2    1    2    0    0  0.29830664238E+03 -0.26861787585E+01  0.64454495705E+03  0.93742939249E+03  0.61183461474E+03 0.  0.
    5000001    2    3    3    0    0 -0.94396370603E+02 -0.19155374796E+03  0.22408671033E+03  0.32352976524E+03  0.94091137246E+02 0.  0.
        -13    1    4    4    0    0 -0.92516066567E+02 -0.17354793582E+03  0.20295921123E+03  0.28261380219E+03  0.10566000000E+00 0. -1.
     200003    1    4    4    0    0 -0.18803040362E+01 -0.18005812139E+02  0.21127499102E+02  0.40915963050E+02  0.30000000000E+02 0.  1.
     200000    1    3    3    0    0  0.39270301298E+03  0.18886756920E+03  0.42045824673E+03  0.61389962725E+03  0.10100000000E+03 0. -1.
    -200001    1    1    2    0    0 -0.29830664238E+03  0.26861787585E+01  0.58802990918E+03  0.90030119545E+03  0.61300000000E+03 0. -1.
<mgrwt>
<rscale>  0 0.13630895E+04</rscale>
<asrwt>0</asrwt>
<pdfrwt beam="1">  1        2 0.21930754E+00 0.13630895E+04</pdfrwt>
<pdfrwt beam="2">  1       -2 0.43225407E-01 0.13630895E+04</pdfrwt>
<totfact> 0.69370226E+01</totfact>
</mgrwt>
</event>
<event>
 8    1  0.7583103E-052  0.2118169E+04  0.7818608E-02  0.8553282E-01
          2   -1    0    0  501    0  0.00000000000E+00  0.00000000000E+00  0.26031141842E+04  0.26031141842E+04  0.25500000000E-02 0.  1.
         -2   -1    0    0    0  501 -0.00000000000E+00 -0.00000000000E+00 -0.43089164937E+03  0.43089164937E+03  0.25500000000E-02 0. -1.
     200001    2    1    2    0    0  0.71650116545E+01 -0.78198813371E+03  0.16120554738E+04  0.18933424674E+04  0.61193632807E+03 0.  0.
    5000001    2    3    3    0    0  0.18503122372E+03 -0.70827953611E+03  0.13780016635E+04  0.15738874113E+04  0.20575845986E+03 0.  0.
        -13    1    4    4    0    0  0.17838346212E+03 -0.49834899927E+03  0.11278255148E+04  0.12458582535E+04  0.10566000000E+00 0. -1.
     200003    1    4    4    0    0  0.66477615988E+01 -0.20993053684E+03  0.25017614868E+03  0.32802915785E+03  0.30000000000E+02 0. -1.
     200000    1    3    3    0    0 -0.17786621207E+03 -0.73708597604E+02  0.23405381030E+03  0.31945505610E+03  0.10100000000E+03 0.  1.
    -200001    1    1    2    0    0 -0.71650116545E+01  0.78198813371E+03  0.56016706103E+03  0.11406633662E+04  0.61300000000E+03 0. -1.
<mgrwt>
<rscale>  0 0.21181692E+04</rscale>
<asrwt>0</asrwt>
<pdfrwt beam="1">  1        2 0.37187347E+00 0.21181692E+04</pdfrwt>
<pdfrwt beam="2">  1       -2 0.61555947E-01 0.21181692E+04</pdfrwt>
<totfact> 0.88074800E+00</totfact>
</mgrwt>
</event>
<event>
 8    1  0.7583103E-052  0.1449083E+04  0.7818608E-02  0.8919036E-01
          2   -1    0    0  501    0  0.00000000000E+00  0.00000000000E+00  0.18630883859E+04  0.18630883859E+04  0.25500000000E-02 0.  1.
         -2   -1    0    0    0  501 -0.00000000000E+00 -0.00000000000E+00 -0.28176891028E+03  0.28176891029E+03  0.25500000000E-02 0. -1.
     200001    2    1    2    0    0  0.37410358081E+03  0.96901798713E+02  0.76268000527E+03  0.10515672934E+04  0.61218423235E+03 0.  0.
    5000001    2    3    3    0    0  0.52067007781E+03  0.19117395196E+02  0.51749848214E+03  0.73876203328E+03  0.80634100006E+02 0.  0.
        -13    1    4    4    0    0  0.25627539305E+03  0.42794516391E+02  0.26669157235E+03  0.37233433046E+03  0.10566000000E+00 0. -1.
     200003    1    4    4    0    0  0.26439468476E+03 -0.23677121196E+02  0.25080690979E+03  0.36642770282E+03  0.30000000000E+02 0. -1.
     200000    1    3    3    0    0 -0.14656649700E+03  0.77784403517E+02  0.24518152313E+03  0.31280526012E+03  0.10100000000E+03 0.  1.
    -200001    1    1    2    0    0 -0.37410358081E+03 -0.96901798713E+02  0.81863947034E+03  0.10932900028E+04  0.61300000000E+03 0.  1.
<mgrwt>
<rscale>  0 0.14490830E+04</rscale>
<asrwt>0</asrwt>
<pdfrwt beam="1">  1        2 0.26615549E+00 0.14490830E+04</pdfrwt>
<pdfrwt beam="2">  1       -2 0.40252700E-01 0.14490830E+04</pdfrwt>
<totfact> 0.53537864E+01</totfact>
</mgrwt>
</event>
<event>
 8    1  0.7583103E-052  0.1349733E+04  0.7818608E-02  0.8991030E-01
          2   -1    0    0  501    0  0.00000000000E+00  0.00000000000E+00  0.39190856619E+03  0.39190856620E+03  0.25500000000E-02 0.  1.
         -2   -1    0    0    0  501 -0.00000000000E+00 -0.00000000000E+00 -0.11621198467E+04  0.11621198467E+04  0.25500000000E-02 0. -1.
     200001    2    1    2    0    0 -0.13999806352E+03  0.24009728818E+03 -0.44819369765E+03  0.80789806956E+03  0.61202576303E+03 0.  0.
    5000001    2    3    3    0    0 -0.73182543582E+02 -0.12116708771E+03 -0.39126229643E+03  0.42264692105E+03  0.74209752959E+02 0.  0.
        -13    1    4    4    0    0 -0.63496160628E+02 -0.79731690952E+02 -0.20067889749E+03  0.22507984365E+03  0.10566000000E+00 0. -1.
     200003    1    4    4    0    0 -0.96863829540E+01 -0.41435396757E+02 -0.19058339894E+03  0.19756707739E+03  0.30000000000E+02 0. -1.
     200000    1    3    3    0    0 -0.66815519935E+02  0.36126437588E+03 -0.56931401225E+02  0.38525114852E+03  0.10100000000E+03 0.  1.
    -200001    1    1    2    0    0  0.13999806352E+03 -0.24009728818E+03 -0.32201758285E+03  0.74613034333E+03  0.61300000000E+03 0.  1.
<mgrwt>
<rscale>  0 0.13497329E+04</rscale>
<asrwt>0</asrwt>
<pdfrwt beam="1">  1        2 0.55986939E-01 0.13497329E+04</pdfrwt>
<pdfrwt beam="2">  1       -2 0.16601712E+00 0.13497329E+04</pdfrwt>
<totfact> 0.19683079E+01</totfact>
</mgrwt>
</event>
<event>
 8    1  0.7583103E-052  0.1350706E+04  0.7818608E-02  0.8990294E-01
          2   -1    0    0  501    0  0.00000000000E+00  0.00000000000E+00  0.23988525668E+03  0.23988525669E+03  0.25500000000E-02 0.  1.
         -2   -1    0    0    0  501 -0.00000000000E+00 -0.00000000000E+00 -0.19013325313E+04  0.19013325313E+04  0.25500000000E-02 0. -1.
     200001    2    1    2    0    0 -0.21006193144E+03 -0.15896645956E+03 -0.66765050478E+03  0.94422264596E+03  0.61351679546E+03 0.  0.
    5000001    2    3    3    0    0 -0.38409333955E+03 -0.13296250201E+03 -0.26739870561E+03  0.49548481654E+03  0.93789206357E+02 0.  0.
        -13    1    4    4    0    0 -0.65831230988E+02  0.10649010235E+02 -0.42790802649E+02  0.79235196395E+02  0.10566000000E+00 0. -1.
     200003    1    4    4    0    0 -0.31826210856E+03 -0.14361151225E+03 -0.22460790296E+03  0.41624962014E+03  0.30000000000E+02 0. -1.
     200000    1    3    3    0    0  0.17403140812E+03 -0.26003957546E+02 -0.40025179917E+03  0.44873782942E+03  0.10100000000E+03 0. -1.
    -200001    1    1    2    0    0  0.21006193144E+03  0.15896645956E+03 -0.99379676983E+03  0.11969951420E+04  0.61300000000E+03 0. -1.
<mgrwt>
<rscale>  0 0.13507060E+04</rscale>
<asrwt>0</asrwt>
<pdfrwt beam="1">  1        2 0.34269323E-01 0.13507060E+04</pdfrwt>
<pdfrwt beam="2">  1       -2 0.27161893E+00 0.13507060E+04</pdfrwt>
<totfact> 0.71227854E+00</totfact>
</mgrwt>
</event>
<event>
 8    1  0.7583103E-052  0.1402808E+04  0.7818608E-02  0.8951788E-01
         -2   -1    0    0    0  501 -0.00000000000E+00  0.00000000000E+00  0.38702573918E+03  0.38702573919E+03  0.25500000000E-02 0. -1.
          2   -1    0    0  501    0  0.00000000000E+00 -0.00000000000E+00 -0.12711500583E+04  0.12711500583E+04  0.25500000000E-02 0.  1.
     200001    2    1    2    0    0  0.33557760390E+03 -0.39582180897E+02 -0.39040553719E+03  0.80160921346E+03  0.61317352384E+03 0.  0.
    5000001    2    3    3    0    0  0.42907860297E+03 -0.18183359267E+03 -0.17601175625E+03  0.50981546046E+03  0.10844243838E+03 0.  0.
        -13    1    4    4    0    0  0.21419935737E+03 -0.81106639939E+02 -0.33778061070E+02  0.23151807773E+03  0.10566000000E+00 0. -1.
     200003    1    4    4    0    0  0.21487924560E+03 -0.10072695273E+03 -0.14223369518E+03  0.27829738274E+03  0.30000000000E+02 0. -1.
     200000    1    3    3    0    0 -0.93500999066E+02  0.14225141177E+03 -0.21439378095E+03  0.29179375299E+03  0.10100000000E+03 0. -1.
    -200001    1    1    2    0    0 -0.33557760390E+03  0.39582180897E+02 -0.49371878196E+03  0.85656658407E+03  0.61300000000E+03 0. -1.
<mgrwt>
<rscale>  0 0.14028083E+04</rscale>
<asrwt>0</asrwt>
<pdfrwt beam="1">  1        2 0.18159286E+00 0.14028083E+04</pdfrwt>
<pdfrwt beam="2">  1       -2 0.55289392E-01 0.14028083E+04</pdfrwt>
<totfact> 0.58357061E+01</totfact>
</mgrwt>
</event>
<event>
 8    1  0.7583103E-052  0.1369970E+04  0.7818608E-02  0.8975848E-01
          2   -1    0    0  501    0  0.00000000000E+00  0.00000000000E+00  0.15350513785E+04  0.15350513785E+04  0.25500000000E-02 0.  1.
         -2   -1    0    0    0  501 -0.00000000000E+00 -0.00000000000E+00 -0.30566024891E+03  0.30566024892E+03  0.25500000000E-02 0. -1.
     200001    2    1    2    0    0  0.29661565305E+03  0.66795295531E+02  0.64336684689E+03  0.93980324304E+03  0.61389476199E+03 0.  0.
    5000001    2    3    3    0    0 -0.70861804274E+01  0.28057646394E+03  0.33086850405E+03  0.44402768302E+03  0.94410011384E+02 0.  0.
        -13    1    4    4    0    0  0.10763493711E+02  0.91186835135E+02  0.16952048263E+03  0.19279029253E+03  0.10566000000E+00 0. -1.
     200003    1    4    4    0    0 -0.17849674138E+02  0.18938962881E+03  0.16134802142E+03  0.25123739049E+03  0.30000000000E+02 0. -1.
     200000    1    3    3    0    0  0.30370183348E+03 -0.21378116841E+03  0.31249834285E+03  0.49577556001E+03  0.10100000000E+03 0.  1.
    -200001    1    1    2    0    0 -0.29661565305E+03 -0.66795295531E+02  0.58602428269E+03  0.90090838438E+03  0.61300000000E+03 0. -1.
<mgrwt>
<rscale>  0 0.13699696E+04</rscale>
<asrwt>0</asrwt>
<pdfrwt beam="1">  1        2 0.21929305E+00 0.13699696E+04</pdfrwt>
<pdfrwt beam="2">  1       -2 0.43665750E-01 0.13699696E+04</pdfrwt>
<totfact> 0.67963784E+01</totfact>
</mgrwt>
</event>
<event>
 8    1  0.7583103E-052  0.1349811E+04  0.7818608E-02  0.8990971E-01
         -2   -1    0    0    0  501 -0.00000000000E+00  0.00000000000E+00  0.27312124275E+03  0.27312124276E+03  0.25500000000E-02 0. -1.
          2   -1    0    0  501    0  0.00000000000E+00 -0.00000000000E+00 -0.16677475365E+04  0.16677475365E+04  0.25500000000E-02 0.  1.
     200001    2    1    2    0    0 -0.38728878995E+02 -0.27914933284E+03 -0.72272352051E+03  0.98868885257E+03  0.61298620213E+03 0.  0.
    5000001    2    3    3    0    0 -0.25334490128E+03 -0.26664321993E+03 -0.23111814138E+03  0.44270965089E+03  0.85404882626E+02 0.  0.
        -13    1    4    4    0    0 -0.10230709283E+02 -0.48150451172E+02 -0.26373531319E+02  0.55845390846E+02  0.10566000000E+00 0. -1.
     200003    1    4    4    0    0 -0.24311419199E+03 -0.21849276876E+03 -0.20474461006E+03  0.38686426004E+03  0.30000000000E+02 0. -1.
     200000    1    3    3    0    0  0.21461602228E+03 -0.12506112912E+02 -0.49160537913E+03  0.54597920169E+03  0.10100000000E+03 0.  1.
    -200001    1    1    2    0    0  0.38728878995E+02  0.27914933284E+03 -0.67190277322E+03  0.95217992667E+03  0.61300000000E+03 0. -1.
<mgrwt>
<rscale>  0 0.13498108E+04</rscale>
<asrwt>0</asrwt>
<pdfrwt beam="1">  1        2 0.23824964E+00 0.13498108E+04</pdfrwt>
<pdfrwt beam="2">  1       -2 0.39017321E-01 0.13498108E+04</pdfrwt>
<totfact> 0.72338295E+01</totfact>
</mgrwt>
</event>
<event>
 8    1  0.7583103E-052  0.1333413E+04  0.7818608E-02  0.9003480E-01
          2   -1    0    0  501    0  0.00000000000E+00  0.00000000000E+00  0.13983361693E+04  0.13983361693E+04  0.25500000000E-02 0. -1.
         -2   -1    0    0    0  501 -0.00000000000E+00 -0.00000000000E+00 -0.31787597235E+03  0.31787597236E+03  0.25500000000E-02 0.  1.
     200001    2    1    2    0    0 -0.23182556739E+03  0.55979667257E+02  0.39851296581E+03  0.76874296386E+03  0.61259802784E+03 0.  0.
    5000001    2    3    3    0    0 -0.20338787718E+03 -0.16373037937E+03  0.44523476111E+03  0.52082133719E+03  0.69617577235E+02 0.  0.
        -13    1    4    4    0    0 -0.29614778887E+02 -0.37583638847E+02  0.12727714729E+03  0.13597444034E+03  0.10566000000E+00 0. -1.
     200003    1    4    4    0    0 -0.17377309829E+03 -0.12614674052E+03  0.31795761382E+03  0.38484689685E+03  0.30000000000E+02 0. -1.
     200000    1    3    3    0    0 -0.28437690211E+02  0.21971004663E+03 -0.46721795296E+02  0.24792162667E+03  0.10100000000E+03 0.  1.
    -200001    1    1    2    0    0  0.23182556739E+03 -0.55979667257E+02  0.68194723115E+03  0.94746917782E+03  0.61300000000E+03 0. -1.
<mgrwt>
<rscale>  0 0.13334129E+04</rscale>
<asrwt>0</asrwt>
<pdfrwt beam="1">  1        2 0.19976231E+00 0.13334129E+04</pdfrwt>
<pdfrwt beam="2">  1       -2 0.45410853E-01 0.13334129E+04</pdfrwt>
<totfact> 0.74581593E+01</totfact>
</mgrwt>
</event>
<event>
 8    1  0.7583103E-052  0.1393780E+04  0.7818608E-02  0.8958333E-01
         -2   -1    0    0    0  501 -0.00000000000E+00  0.00000000000E+00  0.33904511304E+03  0.33904511305E+03  0.25500000000E-02 0. -1.
          2   -1    0    0  501    0  0.00000000000E+00 -0.00000000000E+00 -0.14324216704E+04  0.14324216704E+04  0.25500000000E-02 0.  1.
     200001    2    1    2    0    0  0.28877148488E+03  0.28607569259E+02 -0.33701604852E+03  0.75556443440E+03  0.61081129170E+03 0.  0.
    5000001    2    3    3    0    0 -0.17464343736E+03  0.22391213952E+02 -0.16851842176E+03  0.25219132879E+03  0.64809807655E+02 0.  0.
        -13    1    4    4    0    0 -0.81352001765E+02  0.34020554645E+01 -0.43833621795E+02  0.92472264686E+02  0.10566000000E+00 0. -1.
     200003    1    4    4    0    0 -0.93291435595E+02  0.18989158487E+02 -0.12468479996E+03  0.15971906410E+03  0.30000000000E+02 0.  1.
     200000    1    3    3    0    0  0.46341492224E+03  0.62163553076E+01 -0.16849762677E+03  0.50337310561E+03  0.10100000000E+03 0. -1.
    -200001    1    1    2    0    0 -0.28877148488E+03 -0.28607569259E+02 -0.75636050887E+03  0.10159023491E+04  0.61300000000E+03 0.  1.
<mgrwt>
<rscale>  0 0.13937798E+04</rscale>
<asrwt>0</asrwt>
<pdfrwt beam="1">  1        2 0.20463166E+00 0.13937798E+04</pdfrwt>
<pdfrwt beam="2">  1       -2 0.48435017E-01 0.13937798E+04</pdfrwt>
<totfact> 0.62516973E+01</totfact>
</mgrwt>
</event>
<event>
 8    1  0.7583103E-052  0.1262525E+04  0.7818608E-02  0.9059823E-01
          2   -1    0    0  501    0  0.00000000000E+00  0.00000000000E+00  0.78511325218E+03  0.78511325219E+03  0.25500000000E-02 0.  1.
         -2   -1    0    0    0  501 -0.00000000000E+00 -0.00000000000E+00 -0.50756020108E+03  0.50756020108E+03  0.25500000000E-02 0. -1.
     200001    2    1    2    0    0  0.15197652901E+03 -0.76128391385E+01  0.15329715407E+03  0.64896284388E+03  0.61196236372E+03 0.  0.
    5000001    2    3    3    0    0 -0.43347516559E+00  0.11339016185E+03  0.33666661223E+03  0.36313790830E+03  0.75280913580E+02 0.  0.
        -13    1    4    4    0    0 -0.17151128382E+02  0.71661015097E+02  0.25318574192E+03  0.26369014651E+03  0.10566000000E+00 0. -1.
     200003    1    4    4    0    0  0.16717653216E+02  0.41729146752E+02  0.83480870303E+02  0.99447761786E+02  0.30000000000E+02 0. -1.
     200000    1    3    3    0    0  0.15241000417E+03 -0.12100300099E+03 -0.18336945815E+03  0.28582493559E+03  0.10100000000E+03 0. -1.
    -200001    1    1    2    0    0 -0.15197652901E+03  0.76128391385E+01  0.12425589703E+03  0.64371060939E+03  0.61300000000E+03 0. -1.
<mgrwt>
<rscale>  0 0.12625248E+04</rscale>
<asrwt>0</asrwt>
<pdfrwt beam="1">  1        2 0.11215904E+00 0.12625248E+04</pdfrwt>
<pdfrwt beam="2">  1       -2 0.72508601E-01 0.12625248E+04</pdfrwt>
<totfact> 0.65937087E+01</totfact>
</mgrwt>
</event>
<event>
 8    1  0.7583103E-052  0.1270850E+04  0.7818608E-02  0.9053007E-01
         -2   -1    0    0    0  501 -0.00000000000E+00  0.00000000000E+00  0.15356924302E+03  0.15356924304E+03  0.25500000000E-02 0. -1.
          2   -1    0    0  501    0  0.00000000000E+00 -0.00000000000E+00 -0.26292024170E+04  0.26292024170E+04  0.25500000000E-02 0.  1.
     200001    2    1    2    0    0  0.36708322563E+02 -0.11818510875E+03 -0.99634850849E+03  0.11767307694E+04  0.61373425227E+03 0.  0.
    5000001    2    3    3    0    0  0.22478802564E+03  0.12192215198E+03 -0.61761482451E+03  0.68007628714E+03  0.12514398613E+03 0.  0.
        -13    1    4    4    0    0  0.56987289292E+01  0.52418692693E+02 -0.12398805075E+03  0.13473397028E+03  0.10566000000E+00 0. -1.
     200003    1    4    4    0    0  0.21908929671E+03  0.69503459291E+02 -0.49362677376E+03  0.54534231686E+03  0.30000000000E+02 0. -1.
     200000    1    3    3    0    0 -0.18807970307E+03 -0.24010726074E+03 -0.37873368399E+03  0.49665448226E+03  0.10100000000E+03 0.  1.
    -200001    1    1    2    0    0 -0.36708322563E+02  0.11818510875E+03 -0.14792846655E+04  0.16060408907E+04  0.61300000000E+03 0.  1.
<mgrwt>
<rscale>  0 0.12708495E+04</rscale>
<asrwt>0</asrwt>
<pdfrwt beam="1">  1        2 0.37560032E+00 0.12708495E+04</pdfrwt>
<pdfrwt beam="2">  1       -2 0.21938465E-01 0.12708495E+04</pdfrwt>
<totfact> 0.67418501E+01</totfact>
</mgrwt>
</event>
<event>
 8    1  0.7583103E-052  0.1353405E+04  0.7818608E-02  0.8988255E-01
          2   -1    0    0  501    0  0.00000000000E+00  0.00000000000E+00  0.83291449915E+03  0.83291449916E+03  0.25500000000E-02 0.  1.
         -2   -1    0    0    0  501 -0.00000000000E+00 -0.00000000000E+00 -0.54978774470E+03  0.54978774470E+03  0.25500000000E-02 0. -1.
     200001    2    1    2    0    0  0.11705677119E+03 -0.14621609426E+03 -0.60835361048E+02  0.65526814320E+03  0.62497517105E+03 0.  0.
    5000001    2    3    3    0    0 -0.12208139886E+03  0.17482162158E+03 -0.81356308078E+02  0.24189858864E+03  0.80184855204E+02 0.  0.
        -13    1    4    4    0    0 -0.70123103520E+01 -0.72633734095E+01 -0.59564824785E+01  0.11722625018E+02  0.10566000000E+00 0. -1.
     200003    1    4    4    0    0 -0.11506908851E+03  0.18208499499E+03 -0.75399825600E+02  0.23017596363E+03  0.30000000000E+02 0. -1.
     200000    1    3    3    0    0  0.23913817004E+03 -0.32103771584E+03  0.20520947030E+02  0.41336955456E+03  0.10100000000E+03 0. -1.
    -200001    1    1    2    0    0 -0.11705677119E+03  0.14621609426E+03  0.34396211550E+03  0.72743410066E+03  0.61300000000E+03 0.  1.
<mgrwt>
<rscale>  0 0.13534049E+04</rscale>
<asrwt>0</asrwt>
<pdfrwt beam="1">  1        2 0.11898779E+00 0.13534049E+04</pdfrwt>
<pdfrwt beam="2">  1       -2 0.78541106E-01 0.13534049E+04</pdfrwt>
<totfact> 0.50820495E+01</totfact>
</mgrwt>
</event>
<event>
 8    1  0.7583103E-052  0.2252818E+04  0.7818608E-02  0.8496760E-01
          2   -1    0    0  501    0  0.00000000000E+00  0.00000000000E+00  0.13106148290E+04  0.13106148290E+04  0.25500000000E-02 0.  1.
         -2   -1    0    0    0  501 -0.00000000000E+00 -0.00000000000E+00 -0.96809328965E+03  0.96809328965E+03  0.25500000000E-02 0. -1.
     200001    2    1    2    0    0 -0.26293492582E+03  0.83338887834E+03 -0.19675740261E+03  0.10827722613E+04  0.60828488106E+03 0.  0.
    5000001    2    3    3    0    0 -0.36577202914E+03  0.79966145767E+03 -0.26122690964E+03  0.92130918171E+03  0.85577367308E+02 0.  0.
        -13    1    4    4    0    0 -0.31377636261E+03  0.69765171278E+03 -0.23236442454E+03  0.79947905228E+03  0.10566000000E+00 0. -1.
     200003    1    4    4    0    0 -0.51995666531E+02  0.10200974489E+03 -0.28862485096E+02  0.12183012943E+03  0.30000000000E+02 0.  1.
     200000    1    3    3    0    0  0.10283710332E+03  0.33727420670E+02  0.64469507025E+02  0.16146307956E+03  0.10100000000E+03 0.  1.
    -200001    1    1    2    0    0  0.26293492582E+03 -0.83338887834E+03  0.53927894197E+03  0.11959358574E+04  0.61300000000E+03 0. -1.
<mgrwt>
<rscale>  0 0.22528182E+04</rscale>
<asrwt>0</asrwt>
<pdfrwt beam="1">  1        2 0.18723069E+00 0.22528182E+04</pdfrwt>
<pdfrwt beam="2">  1       -2 0.13829904E+00 0.22528182E+04</pdfrwt>
<totfact> 0.62813291E+00</totfact>
</mgrwt>
</event>
<event>
 8    1  0.7583103E-052  0.1386086E+04  0.7818608E-02  0.8963952E-01
         -2   -1    0    0    0  501 -0.00000000000E+00  0.00000000000E+00  0.60660689578E+03  0.60660689578E+03  0.25500000000E-02 0. -1.
          2   -1    0    0  501    0  0.00000000000E+00 -0.00000000000E+00 -0.79179557317E+03  0.79179557317E+03  0.25500000000E-02 0.  1.
     200001    2    1    2    0    0  0.17787528275E+03  0.22569931251E+02  0.17857582475E+03  0.66339047516E+03  0.61322799948E+03 0.  0.
    5000001    2    3    3    0    0  0.34341844658E+01  0.28942429002E+03  0.12264851918E+03  0.32431849302E+03  0.79759716544E+02 0.  0.
        -13    1    4    4    0    0 -0.19946676121E+02  0.15762422781E+03  0.38822989406E+02  0.16355580929E+03  0.10566000000E+00 0. -1.
     200003    1    4    4    0    0  0.23380860586E+02  0.13180006221E+03  0.83825529771E+02  0.16076268374E+03  0.30000000000E+02 0. -1.
     200000    1    3    3    0    0  0.17444109828E+03 -0.26685435877E+03  0.55927305569E+02  0.33907198214E+03  0.10100000000E+03 0. -1.
    -200001    1    1    2    0    0 -0.17787528275E+03 -0.22569931251E+02 -0.36376450214E+03  0.73501199380E+03  0.61300000000E+03 0.  1.
<mgrwt>
<rscale>  0 0.13860861E+04</rscale>
<asrwt>0</asrwt>
<pdfrwt beam="1">  1        2 0.11311365E+00 0.13860861E+04</pdfrwt>
<pdfrwt beam="2">  1       -2 0.86658128E-01 0.13860861E+04</pdfrwt>
<totfact> 0.43347157E+01</totfact>
</mgrwt>
</event>
<event>
 8    1  0.7583103E-052  0.2178164E+04  0.7818608E-02  0.8527572E-01
         -2   -1    0    0    0  501 -0.00000000000E+00  0.00000000000E+00  0.34052767944E+03  0.34052767945E+03  0.25500000000E-02 0. -1.
          2   -1    0    0  501    0  0.00000000000E+00 -0.00000000000E+00 -0.34831236488E+04  0.34831236488E+04  0.25500000000E-02 0.  1.
     200001    2    1    2    0    0  0.66643838044E+03 -0.59906101022E+03 -0.14238955384E+04  0.17907434650E+04  0.61340805707E+03 0.  0.
    5000001    2    3    3    0    0  0.44522684302E+03 -0.32061595581E+03 -0.12760593418E+04  0.13925943301E+04  0.99849845264E+02 0.  0.
        -13    1    4    4    0    0  0.17851817668E+03 -0.17056852510E+03 -0.64402405348E+03  0.68973136350E+03  0.10566000000E+00 0. -1.
     200003    1    4    4    0    0  0.26670866634E+03 -0.15004743071E+03 -0.63203528832E+03  0.70286296662E+03  0.30000000000E+02 0. -1.
     200000    1    3    3    0    0  0.22121153741E+03 -0.27844505441E+03 -0.14783619655E+03  0.39814913490E+03  0.10100000000E+03 0. -1.
    -200001    1    1    2    0    0 -0.66643838044E+03  0.59906101022E+03 -0.17187004310E+04  0.20329078632E+04  0.61300000000E+03 0. -1.
<mgrwt>
<rscale>  0 0.21781644E+04</rscale>
<asrwt>0</asrwt>
<pdfrwt beam="1">  1        2 0.49758907E+00 0.21781644E+04</pdfrwt>
<pdfrwt beam="2">  1       -2 0.48646813E-01 0.21781644E+04</pdfrwt>
<totfact> 0.45381456E+00</totfact>
</mgrwt>
</event>
<event>
 8    1  0.7583103E-052  0.1961631E+04  0.7818608E-02  0.8624773E-01
          2   -1    0    0  501    0  0.00000000000E+00  0.00000000000E+00  0.99080811631E+03  0.99080811631E+03  0.25500000000E-02 0.  1.
         -2   -1    0    0    0  501 -0.00000000000E+00 -0.00000000000E+00 -0.97092328351E+03  0.97092328351E+03  0.25500000000E-02 0. -1.
     200001    2    1    2    0    0  0.17235389589E+03 -0.50831830379E+03  0.55611638700E+03  0.98633063957E+03  0.61277184276E+03 0.  0.
    5000001    2    3    3    0    0 -0.11093122537E+03 -0.25940583493E+03  0.51717770100E+03  0.59399774732E+03  0.75917227585E+02 0.  0.
        -13    1    4    4    0    0 -0.96702272557E+02 -0.22183238760E+03  0.43155892203E+03  0.49477676992E+03  0.10566000000E+00 0. -1.
     200003    1    4    4    0    0 -0.14228952809E+02 -0.37573447336E+02  0.85618778974E+02  0.99220977397E+02  0.30000000000E+02 0.  1.
     200000    1    3    3    0    0  0.28328512126E+03 -0.24891246886E+03  0.38938685995E+02  0.39233289225E+03  0.10100000000E+03 0. -1.
    -200001    1    1    2    0    0 -0.17235389589E+03  0.50831830379E+03 -0.53623155420E+03  0.97540076026E+03  0.61300000000E+03 0. -1.
<mgrwt>
<rscale>  0 0.19616306E+04</rscale>
<asrwt>0</asrwt>
<pdfrwt beam="1">  1        2 0.14154402E+00 0.19616306E+04</pdfrwt>
<pdfrwt beam="2">  1       -2 0.13870333E+00 0.19616306E+04</pdfrwt>
<totfact> 0.97939794E+00</totfact>
</mgrwt>
</event>
<event>
 8    1  0.7583103E-052  0.1379118E+04  0.7818608E-02  0.8969074E-01
         -2   -1    0    0    0  501 -0.00000000000E+00  0.00000000000E+00  0.38200677658E+03  0.38200677659E+03  0.25500000000E-02 0. -1.
          2   -1    0    0  501    0  0.00000000000E+00 -0.00000000000E+00 -0.12447198826E+04  0.12447198826E+04  0.25500000000E-02 0.  1.
     200001    2    1    2    0    0  0.96272052459E+01  0.27348756451E+03 -0.61791094298E+03  0.91217419084E+03  0.61266605093E+03 0.  0.
    5000001    2    3    3    0    0  0.25103266906E+02 -0.18208616040E+03 -0.14282018508E+03  0.24606672538E+03  0.79785238301E+02 0.  0.
        -13    1    4    4    0    0  0.33983173898E+02 -0.38589807317E+02 -0.53333312428E+02  0.74084294661E+02  0.10566000000E+00 0. -1.
     200003    1    4    4    0    0 -0.88799069919E+01 -0.14349635308E+03 -0.89486872657E+02  0.17198243071E+03  0.30000000000E+02 0. -1.
     200000    1    3    3    0    0 -0.15476061660E+02  0.45557372491E+03 -0.47509075790E+03  0.66610746547E+03  0.10100000000E+03 0. -1.
    -200001    1    1    2    0    0 -0.96272052459E+01 -0.27348756451E+03 -0.24480216307E+03  0.71455246838E+03  0.61300000000E+03 0. -1.
<mgrwt>
<rscale>  0 0.13791177E+04</rscale>
<asrwt>0</asrwt>
<pdfrwt beam="1">  1        2 0.17781712E+00 0.13791177E+04</pdfrwt>
<pdfrwt beam="2">  1       -2 0.54572397E-01 0.13791177E+04</pdfrwt>
<totfact> 0.62146346E+01</totfact>
</mgrwt>
</event>
<event>
 8    1  0.7583103E-052  0.1259071E+04  0.7818608E-02  0.9062667E-01
         -2   -1    0    0    0  501 -0.00000000000E+00  0.00000000000E+00  0.59504928840E+03  0.59504928840E+03  0.25500000000E-02 0. -1.
          2   -1    0    0  501    0  0.00000000000E+00 -0.00000000000E+00 -0.66601988903E+03  0.66601988904E+03  0.25500000000E-02 0.  1.
     200001    2    1    2    0    0  0.16819338130E+01 -0.14417424702E+03 -0.37200912694E+02  0.63043581785E+03  0.61259804939E+03 0.  0.
    5000001    2    3    3    0    0 -0.64586611705E+02 -0.14913240871E+01  0.25811339100E+03  0.28091976015E+03  0.90109569789E+02 0.  0.
        -13    1    4    4    0    0 -0.69224952844E+02 -0.17376619614E+02  0.21042494341E+03  0.22219970517E+03  0.10566000000E+00 0. -1.
     200003    1    4    4    0    0  0.46383411399E+01  0.15885295527E+02  0.47688447593E+02  0.58720054976E+02  0.30000000000E+02 0. -1.
     200000    1    3    3    0    0  0.66268545518E+02 -0.14268292293E+03 -0.29531430370E+03  0.34951605770E+03  0.10100000000E+03 0.  1.
    -200001    1    1    2    0    0 -0.16819338130E+01  0.14417424702E+03 -0.33769687942E+02  0.63063335959E+03  0.61300000000E+03 0. -1.
<mgrwt>
<rscale>  0 0.12590705E+04</rscale>
<asrwt>0</asrwt>
<pdfrwt beam="1">  1        2 0.95145697E-01 0.12590705E+04</pdfrwt>
<pdfrwt beam="2">  1       -2 0.85007042E-01 0.12590705E+04</pdfrwt>
<totfact> 0.56743662E+01</totfact>
</mgrwt>
</event>
<event>
 8    1  0.7583103E-052  0.2083151E+04  0.7818608E-02  0.8568702E-01
          2   -1    0    0  501    0  0.00000000000E+00  0.00000000000E+00  0.13010616737E+04  0.13010616738E+04  0.25500000000E-02 0.  1.
         -2   -1    0    0    0  501 -0.00000000000E+00 -0.00000000000E+00 -0.83384151139E+03  0.83384151139E+03  0.25500000000E-02 0. -1.
     200001    2    1    2    0    0  0.18405727083E+03  0.76182788599E+03  0.55050977383E+03  0.11364218552E+04  0.61166560729E+03 0.  0.
    5000001    2    3    3    0    0  0.36436579254E+02  0.76809140709E+03  0.56280635742E+03  0.95702479213E+03  0.88619539832E+02 0.  0.
        -13    1    4    4    0    0  0.47545925838E+02  0.56660277019E+03  0.38798027479E+03  0.68835166815E+03  0.10566000000E+00 0. -1.
     200003    1    4    4    0    0 -0.11109346583E+02  0.20148863690E+03  0.17482608263E+03  0.26867312398E+03  0.30000000000E+02 0.  1.
     200000    1    3    3    0    0  0.14762069158E+03 -0.62635211078E+01 -0.12296583599E+02  0.17939706309E+03  0.10100000000E+03 0.  1.
    -200001    1    1    2    0    0 -0.18405727083E+03 -0.76182788599E+03 -0.83289611466E+02  0.99848132992E+03  0.61300000000E+03 0.  1.
<mgrwt>
<rscale>  0 0.20831507E+04</rscale>
<asrwt>0</asrwt>
<pdfrwt beam="1">  1        2 0.18586595E+00 0.20831507E+04</pdfrwt>
<pdfrwt beam="2">  1       -2 0.11912022E+00 0.20831507E+04</pdfrwt>
<totfact> 0.93986015E+00</totfact>
</mgrwt>
</event>
<event>
 8    1  0.7583103E-052  0.1852507E+04  0.7818608E-02  0.8678864E-01
         -2   -1    0    0    0  501 -0.00000000000E+00  0.00000000000E+00  0.51455295636E+03  0.51455295637E+03  0.25500000000E-02 0. -1.
          2   -1    0    0  501    0  0.00000000000E+00 -0.00000000000E+00 -0.16673618503E+04  0.16673618503E+04  0.25500000000E-02 0.  1.
     200001    2    1    2    0    0 -0.82052650986E+02  0.56273550359E+03 -0.10452436574E+04  0.13388589576E+04  0.61368161171E+03 0.  0.
    5000001    2    3    3    0    0 -0.18321419562E+03  0.13599210024E+02 -0.54509757235E+03  0.58246525497E+03  0.91553426354E+02 0.  0.
        -13    1    4    4    0    0 -0.17547590112E+02  0.15966818306E+02 -0.19993467115E+02  0.31025910089E+02  0.10566000000E+00 0. -1.
     200003    1    4    4    0    0 -0.16566660550E+03 -0.23676082816E+01 -0.52510410524E+03  0.55143934488E+03  0.30000000000E+02 0. -1.
     200000    1    3    3    0    0  0.10116154463E+03  0.54913629357E+03 -0.50014608501E+03  0.75639370263E+03  0.10100000000E+03 0. -1.
    -200001    1    1    2    0    0  0.82052650986E+02 -0.56273550359E+03 -0.10756523657E+03  0.84305584907E+03  0.61300000000E+03 0. -1.
<mgrwt>
<rscale>  0 0.18525075E+04</rscale>
<asrwt>0</asrwt>
<pdfrwt beam="1">  1        2 0.23819455E+00 0.18525075E+04</pdfrwt>
<pdfrwt beam="2">  1       -2 0.73507566E-01 0.18525075E+04</pdfrwt>
<totfact> 0.18783578E+01</totfact>
</mgrwt>
</event>
<event>
 8    1  0.7583103E-052  0.1643658E+04  0.7818608E-02  0.8794167E-01
          2   -1    0    0  501    0  0.00000000000E+00  0.00000000000E+00  0.21025813415E+04  0.21025813415E+04  0.25500000000E-02 0.  1.
         -2   -1    0    0    0  501 -0.00000000000E+00 -0.00000000000E+00 -0.32122540296E+03  0.32122540297E+03  0.25500000000E-02 0. -1.
     200001    2    1    2    0    0  0.34292702816E+03 -0.27815603559E+03  0.41324485388E+03  0.86096744795E+03  0.61280005744E+03 0.  0.
    5000001    2    3    3    0    0  0.47284896146E+03 -0.92673209892E+02  0.17947613319E+03  0.52018540301E+03  0.78782656332E+02 0.  0.
        -13    1    4    4    0    0  0.27828177233E+03 -0.55532577061E+02  0.13822443928E+03  0.31564318257E+03  0.10566000000E+00 0. -1.
     200003    1    4    4    0    0  0.19456718912E+03 -0.37140632831E+02  0.41251693909E+02  0.20454222043E+03  0.30000000000E+02 0. -1.
     200000    1    3    3    0    0 -0.12992193329E+03 -0.18548282570E+03  0.23376872070E+03  0.34078204494E+03  0.10100000000E+03 0.  1.
    -200001    1    1    2    0    0 -0.34292702816E+03  0.27815603559E+03  0.13681110846E+04  0.15628392965E+04  0.61300000000E+03 0.  1.
<mgrwt>
<rscale>  0 0.16436576E+04</rscale>
<asrwt>0</asrwt>
<pdfrwt beam="1">  1        2 0.30036875E+00 0.16436576E+04</pdfrwt>
<pdfrwt beam="2">  1       -2 0.45889345E-01 0.16436576E+04</pdfrwt>
<totfact> 0.30630522E+01</totfact>
</mgrwt>
</event>
<event>
 8    1  0.7583103E-052  0.1630270E+04  0.7818608E-02  0.8802165E-01
         -2   -1    0    0    0  501 -0.00000000000E+00  0.00000000000E+00  0.85723314910E+03  0.85723314910E+03  0.25500000000E-02 0. -1.
          2   -1    0    0  501    0  0.00000000000E+00 -0.00000000000E+00 -0.77510386196E+03  0.77510386196E+03  0.25500000000E-02 0.  1.
     200001    2    1    2    0    0  0.19243052820E+03 -0.36770403933E+03 -0.30056409792E+03  0.79899494703E+03  0.61304027575E+03 0.  0.
    5000001    2    3    3    0    0  0.60414861646E+02 -0.25998425301E+03  0.12584319781E+03  0.32882915666E+03  0.14508734098E+03 0.  0.
        -13    1    4    4    0    0  0.83565539551E+02 -0.88386090314E+02  0.85058862093E+02  0.14842614846E+03  0.10566000000E+00 0. -1.
     200003    1    4    4    0    0 -0.23150677904E+02 -0.17159816269E+03  0.40784335717E+02  0.18040300820E+03  0.30000000000E+02 0. -1.
     200000    1    3    3    0    0  0.13201566656E+03 -0.10771978632E+03 -0.42640729573E+03  0.47016579037E+03  0.10100000000E+03 0.  1.
    -200001    1    1    2    0    0 -0.19243052820E+03  0.36770403933E+03  0.38269338506E+03  0.83334206404E+03  0.61300000000E+03 0. -1.
<mgrwt>
<rscale>  0 0.16302696E+04</rscale>
<asrwt>0</asrwt>
<pdfrwt beam="1">  1        2 0.11072912E+00 0.16302696E+04</pdfrwt>
<pdfrwt beam="2">  1       -2 0.12246188E+00 0.16302696E+04</pdfrwt>
<totfact> 0.19164571E+01</totfact>
</mgrwt>
</event>
<event>
 8    1  0.7583103E-052  0.1775099E+04  0.7818608E-02  0.8719655E-01
         -2   -1    0    0    0  501 -0.00000000000E+00  0.00000000000E+00  0.24349708627E+03  0.24349708628E+03  0.25500000000E-02 0. -1.
          2   -1    0    0  501    0  0.00000000000E+00 -0.00000000000E+00 -0.32351267225E+04  0.32351267225E+04  0.25500000000E-02 0.  1.
     200001    2    1    2    0    0 -0.58867125291E+03  0.21602656754E+03 -0.12118308146E+04  0.14945234667E+04  0.60980746755E+03 0.  0.
    5000001    2    3    3    0    0 -0.60376551735E+03 -0.39556725473E+01 -0.69459480975E+03  0.92324935784E+03  0.73341527977E+02 0.  0.
        -13    1    4    4    0    0 -0.49339213464E+03  0.51986303149E+01 -0.55871462802E+03  0.74540248927E+03  0.10566000000E+00 0. -1.
     200003    1    4    4    0    0 -0.11037338271E+03 -0.91543028622E+01 -0.13588018173E+03  0.17784686857E+03  0.30000000000E+02 0.  1.
     200000    1    3    3    0    0  0.15094264436E+02  0.21998224009E+03 -0.51723600483E+03  0.57127410887E+03  0.10100000000E+03 0.  1.
    -200001    1    1    2    0    0  0.58867125291E+03 -0.21602656754E+03 -0.17797988216E+04  0.19841003420E+04  0.61300000000E+03 0.  1.
<mgrwt>
<rscale>  0 0.17750988E+04</rscale>
<asrwt>0</asrwt>
<pdfrwt beam="1">  1        2 0.46216093E+00 0.17750988E+04</pdfrwt>
<pdfrwt beam="2">  1       -2 0.34785300E-01 0.17750988E+04</pdfrwt>
<totfact> 0.12771342E+01</totfact>
</mgrwt>
</event>
<event>
 8    1  0.7583103E-052  0.1351930E+04  0.7818608E-02  0.8989368E-01
         -2   -1    0    0    0  501 -0.00000000000E+00  0.00000000000E+00  0.56201145805E+03  0.56201145805E+03  0.25500000000E-02 0. -1.
          2   -1    0    0  501    0  0.00000000000E+00 -0.00000000000E+00 -0.81302385001E+03  0.81302385002E+03  0.25500000000E-02 0.  1.
     200001    2    1    2    0    0  0.27388526237E+03  0.93954452851E+02 -0.16381033979E+03  0.69150493270E+03  0.60622163304E+03 0.  0.
    5000001    2    3    3    0    0  0.42983336947E+03  0.14229192874E+01 -0.18847133406E+03  0.48248086362E+03  0.11183733630E+03 0.  0.
        -13    1    4    4    0    0  0.16429085121E+03  0.18245640693E+02 -0.20923349766E+02  0.16661988155E+03  0.10566000000E+00 0. -1.
     200003    1    4    4    0    0  0.26554251826E+03 -0.16822721406E+02 -0.16754798430E+03  0.31586098208E+03  0.30000000000E+02 0. -1.
     200000    1    3    3    0    0 -0.15594810710E+03  0.92531533563E+02  0.24660994276E+02  0.20902406907E+03  0.10100000000E+03 0. -1.
    -200001    1    1    2    0    0 -0.27388526237E+03 -0.93954452851E+02 -0.87202052178E+02  0.68353037537E+03  0.61300000000E+03 0. -1.
<mgrwt>
<rscale>  0 0.13519301E+04</rscale>
<asrwt>0</asrwt>
<pdfrwt beam="1">  1        2 0.11614626E+00 0.13519301E+04</pdfrwt>
<pdfrwt beam="2">  1       -2 0.80287352E-01 0.13519301E+04</pdfrwt>
<totfact> 0.49930549E+01</totfact>
</mgrwt>
</event>
<event>
 8    1  0.7583103E-052  0.1502478E+04  0.7818608E-02  0.8882807E-01
          2   -1    0    0  501    0  0.00000000000E+00  0.00000000000E+00  0.12689101691E+04  0.12689101691E+04  0.25500000000E-02 0.  1.
         -2   -1    0    0    0  501 -0.00000000000E+00 -0.00000000000E+00 -0.44475935672E+03  0.44475935672E+03  0.25500000000E-02 0. -1.
     200001    2    1    2    0    0 -0.16798401618E+02  0.33827112399E+03  0.98572963175E+02  0.70523422554E+03  0.61067924820E+03 0.  0.
    5000001    2    3    3    0    0 -0.17665108038E+02 -0.63120083751E+02  0.23758707739E+03  0.26860901237E+03  0.10680346984E+03 0.  0.
        -13    1    4    4    0    0  0.26504106662E+02 -0.41031886980E+02  0.41215159612E+02  0.63912314658E+02  0.10566000000E+00 0. -1.
     200003    1    4    4    0    0 -0.44169214699E+02 -0.22088196771E+02  0.19637191777E+03  0.20469669771E+03  0.30000000000E+02 0. -1.
     200000    1    3    3    0    0  0.86670642002E+00  0.40139120774E+03 -0.13901411421E+03  0.43662521317E+03  0.10100000000E+03 0. -1.
    -200001    1    1    2    0    0  0.16798401618E+02 -0.33827112399E+03  0.72557784924E+03  0.10084353003E+04  0.61300000000E+03 0.  1.
<mgrwt>
<rscale>  0 0.15024775E+04</rscale>
<asrwt>0</asrwt>
<pdfrwt beam="1">  1        2 0.18127288E+00 0.15024775E+04</pdfrwt>
<pdfrwt beam="2">  1       -2 0.63537050E-01 0.15024775E+04</pdfrwt>
<totfact> 0.43340510E+01</totfact>
</mgrwt>
</event>
<event>
 8    1  0.7583103E-052  0.1285415E+04  0.7818608E-02  0.9041212E-01
          2   -1    0    0  501    0  0.00000000000E+00  0.00000000000E+00  0.22868048615E+04  0.22868048615E+04  0.25500000000E-02 0.  1.
         -2   -1    0    0    0  501 -0.00000000000E+00 -0.00000000000E+00 -0.18063316670E+03  0.18063316672E+03  0.25500000000E-02 0. -1.
     200001    2    1    2    0    0 -0.99096408755E+02  0.11204305346E+03  0.81420760230E+03  0.10296223376E+04  0.61222087050E+03 0.  0.
    5000001    2    3    3    0    0 -0.24203883087E+03  0.73277600589E+01  0.81578888391E+02  0.26913324416E+03  0.84505007952E+02 0.  0.
        -13    1    4    4    0    0 -0.52163934809E+02 -0.11922750113E+02  0.50274188674E+02  0.73421613139E+02  0.10566000000E+00 0. -1.
     200003    1    4    4    0    0 -0.18987489606E+03  0.19250510172E+02  0.31304699717E+02  0.19571163103E+03  0.30000000000E+02 0. -1.
     200000    1    3    3    0    0  0.14294242211E+03  0.10471529340E+03  0.73262871391E+03  0.76048909339E+03  0.10100000000E+03 0.  1.
    -200001    1    1    2    0    0  0.99096408755E+02 -0.11204305346E+03  0.12919640925E+04  0.14378156907E+04  0.61300000000E+03 0.  1.
<mgrwt>
<rscale>  0 0.12854148E+04</rscale>
<asrwt>0</asrwt>
<pdfrwt beam="1">  1        2 0.32668642E+00 0.12854148E+04</pdfrwt>
<pdfrwt beam="2">  1       -2 0.25804737E-01 0.12854148E+04</pdfrwt>
<totfact> 0.75916119E+01</totfact>
</mgrwt>
</event>
<event>
 8    1  0.7583103E-052  0.1846921E+04  0.7818608E-02  0.8681738E-01
          2   -1    0    0  501    0  0.00000000000E+00  0.00000000000E+00  0.44632264958E+03  0.44632264959E+03  0.25500000000E-02 0.  1.
         -2   -1    0    0    0  501 -0.00000000000E+00 -0.00000000000E+00 -0.19106799574E+04  0.19106799574E+04  0.25500000000E-02 0. -1.
     200001    2    1    2    0    0 -0.24471420092E+03  0.44509572759E+03 -0.13398903044E+03  0.80663361856E+03  0.61213518724E+03 0.  0.
    5000001    2    3    3    0    0 -0.35251751652E+03  0.78286821457E+02 -0.17542235037E+03  0.40903074071E+03  0.78330836652E+02 0.  0.
        -13    1    4    4    0    0 -0.25717648571E+03  0.66750787192E+02 -0.15056079936E+03  0.30539151570E+03  0.10566000000E+00 0. -1.
     200003    1    4    4    0    0 -0.95341030807E+02  0.11536034266E+02 -0.24861551004E+02  0.10363922501E+03  0.30000000000E+02 0.  1.
     200000    1    3    3    0    0  0.10780331560E+03  0.36680890613E+03  0.41433319921E+02  0.39760287784E+03  0.10100000000E+03 0.  1.
    -200001    1    1    2    0    0  0.24471420092E+03 -0.44509572759E+03 -0.13303682774E+04  0.15503689884E+04  0.61300000000E+03 0. -1.
<mgrwt>
<rscale>  0 0.18469215E+04</rscale>
<asrwt>0</asrwt>
<pdfrwt beam="1">  1        2 0.63760379E-01 0.18469215E+04</pdfrwt>
<pdfrwt beam="2">  1       -2 0.27295428E+00 0.18469215E+04</pdfrwt>
<totfact> 0.33539067E+00</totfact>
</mgrwt>
</event>
<event>
 8    1  0.7583103E-052  0.1373857E+04  0.7818608E-02  0.8972963E-01
         -2   -1    0    0    0  501 -0.00000000000E+00  0.00000000000E+00  0.13229330739E+03  0.13229330741E+03  0.25500000000E-02 0. -1.
          2   -1    0    0  501    0  0.00000000000E+00 -0.00000000000E+00 -0.35668526970E+04  0.35668526970E+04  0.25500000000E-02 0.  1.
     200001    2    1    2    0    0  0.88214077276E+02  0.20113295137E+03 -0.23065161012E+04  0.23966534524E+04  0.61293968559E+03 0.  0.
    5000001    2    3    3    0    0  0.29879558954E+03 -0.18208523497E+02 -0.88118855701E+03  0.93575822543E+03  0.97672047168E+02 0.  0.
        -13    1    4    4    0    0  0.75045772213E+02 -0.41596356105E+01 -0.35741054523E+03  0.36522798291E+03  0.10566000000E+00 0. -1.
     200003    1    4    4    0    0  0.22374981733E+03 -0.14048887886E+02 -0.52377801178E+03  0.57053024252E+03  0.30000000000E+02 0. -1.
     200000    1    3    3    0    0 -0.21058151226E+03  0.21934147487E+03 -0.14253275442E+04  0.14608952270E+04  0.10100000000E+03 0.  1.
    -200001    1    1    2    0    0 -0.88214077276E+02 -0.20113295137E+03 -0.11280432884E+04  0.13024925520E+04  0.61300000000E+03 0. -1.
<mgrwt>
<rscale>  0 0.13738570E+04</rscale>
<asrwt>0</asrwt>
<pdfrwt beam="1">  1        2 0.50955032E+00 0.13738570E+04</pdfrwt>
<pdfrwt beam="2">  1       -2 0.18899046E-01 0.13738570E+04</pdfrwt>
<totfact> 0.25568211E+01</totfact>
</mgrwt>
</event>
<event>
 8    1  0.7583103E-052  0.2038706E+04  0.7818608E-02  0.8588735E-01
          2   -1    0    0  501    0  0.00000000000E+00  0.00000000000E+00  0.92382027020E+03  0.92382027021E+03  0.25500000000E-02 0.  1.
         -2   -1    0    0    0  501 -0.00000000000E+00 -0.00000000000E+00 -0.11247643516E+04  0.11247643516E+04  0.25500000000E-02 0. -1.
     200001    2    1    2    0    0 -0.60247804524E+02 -0.11463108613E+02  0.71550193182E+03  0.94431857780E+03  0.61321559107E+03 0.  0.
    5000001    2    3    3    0    0 -0.22549727668E+03 -0.14135061363E+03  0.12497216789E+03  0.30941342418E+03  0.96382605040E+02 0.  0.
        -13    1    4    4    0    0 -0.27192192102E+02 -0.61238138212E+02  0.32710249522E+02  0.74562031027E+02  0.10566000000E+00 0. -1.
     200003    1    4    4    0    0 -0.19830508457E+03 -0.80112475418E+02  0.92261918369E+02  0.23485139315E+03  0.30000000000E+02 0. -1.
     200000    1    3    3    0    0  0.16524947215E+03  0.12988750502E+03  0.59052976393E+03  0.63490515362E+03  0.10100000000E+03 0.  1.
    -200001    1    1    2    0    0  0.60247804524E+02  0.11463108613E+02 -0.91644601318E+03  0.11042660440E+04  0.61300000000E+03 0. -1.
<mgrwt>
<rscale>  0 0.20387056E+04</rscale>
<asrwt>0</asrwt>
<pdfrwt beam="1">  1        2 0.13197432E+00 0.20387056E+04</pdfrwt>
<pdfrwt beam="2">  1       -2 0.16068062E+00 0.20387056E+04</pdfrwt>
<totfact> 0.72628577E+00</totfact>
</mgrwt>
</event>
<event>
 8    1  0.7583103E-052  0.1421787E+04  0.7818608E-02  0.8938198E-01
         -2   -1    0    0    0  501 -0.00000000000E+00  0.00000000000E+00  0.13433965521E+04  0.13433965521E+04  0.25500000000E-02 0. -1.
          2   -1    0    0  501    0  0.00000000000E+00 -0.00000000000E+00 -0.37618773475E+03  0.37618773476E+03  0.25500000000E-02 0.  1.
     200001    2    1    2    0    0 -0.14667887368E+03  0.32443073167E+03  0.55585149730E+03  0.89997838377E+03  0.61173541059E+03 0.  0.
    5000001    2    3    3    0    0  0.64120738599E+02  0.41194778322E+03  0.21024059143E+03  0.47366440428E+03  0.79651844804E+02 0.  0.
        -13    1    4    4    0    0  0.32394640748E+02  0.33004922782E+03  0.16359904921E+03  0.36979259809E+03  0.10566000000E+00 0. -1.
     200003    1    4    4    0    0  0.31726097851E+02  0.81898555398E+02  0.46641542220E+02  0.10387180619E+03  0.30000000000E+02 0. -1.
     200000    1    3    3    0    0 -0.21079961228E+03 -0.87517051549E+02  0.34561090587E+03  0.42631397949E+03  0.10100000000E+03 0. -1.
    -200001    1    1    2    0    0  0.14667887368E+03 -0.32443073167E+03  0.41135732005E+03  0.81960590310E+03  0.61300000000E+03 0.  1.
<mgrwt>
<rscale>  0 0.14217866E+04</rscale>
<asrwt>0</asrwt>
<pdfrwt beam="1">  1        2 0.53741106E-01 0.14217866E+04</pdfrwt>
<pdfrwt beam="2">  1       -2 0.19191379E+00 0.14217866E+04</pdfrwt>
<totfact> 0.13558002E+01</totfact>
</mgrwt>
</event>
<event>
 8    1  0.7583103E-052  0.2029361E+04  0.7818608E-02  0.8593015E-01
          2   -1    0    0  501    0  0.00000000000E+00  0.00000000000E+00  0.40680000052E+04  0.40680000052E+04  0.25500000000E-02 0.  1.
         -2   -1    0    0    0  501 -0.00000000000E+00 -0.00000000000E+00 -0.25309168622E+03  0.25309168623E+03  0.25500000000E-02 0. -1.
     200001    2    1    2    0    0  0.52728550280E+02 -0.78994233361E+02  0.19678775017E+03  0.65018092715E+03  0.61236380567E+03 0.  0.
    5000001    2    3    3    0    0 -0.20284306939E+03 -0.11979864302E+03  0.26288891206E+03  0.36460744059E+03  0.91274202178E+02 0.  0.
        -13    1    4    4    0    0 -0.30927278451E+02 -0.78232733548E+01  0.28610689878E+01  0.32029627505E+02  0.10566000000E+00 0. -1.
     200003    1    4    4    0    0 -0.17191579094E+03 -0.11197536966E+03  0.26002784307E+03  0.33257781308E+03  0.30000000000E+02 0. -1.
     200000    1    3    3    0    0  0.25557161967E+03  0.40804409658E+02 -0.66101161881E+02  0.28557348656E+03  0.10100000000E+03 0. -1.
    -200001    1    1    2    0    0 -0.52728550280E+02  0.78994233361E+02  0.36181205688E+04  0.36709107643E+04  0.61300000000E+03 0.  1.
<mgrwt>
<rscale>  0 0.20293615E+04</rscale>
<asrwt>0</asrwt>
<pdfrwt beam="1">  1        2 0.58114280E+00 0.20293615E+04</pdfrwt>
<pdfrwt beam="2">  1       -2 0.36155959E-01 0.20293615E+04</pdfrwt>
<totfact> 0.34434083E+00</totfact>
</mgrwt>
</event>
<event>
 8    1  0.7583103E-052  0.1775888E+04  0.7818608E-02  0.8719228E-01
         -2   -1    0    0    0  501 -0.00000000000E+00  0.00000000000E+00  0.41750408448E+03  0.41750408449E+03  0.25500000000E-02 0. -1.
          2   -1    0    0  501    0  0.00000000000E+00 -0.00000000000E+00 -0.18884722364E+04  0.18884722364E+04  0.25500000000E-02 0.  1.
     200001    2    1    2    0    0  0.97874033182E+02 -0.63436974688E+03 -0.70223499263E+03  0.11317855475E+04  0.61302547952E+03 0.  0.
    5000001    2    3    3    0    0 -0.80664373099E+02 -0.60871212911E+03 -0.36663709020E+03  0.73762666078E+03  0.18064644356E+03 0.  0.
        -13    1    4    4    0    0 -0.61985006024E+02 -0.59885750920E+03 -0.35596982093E+03  0.69941903168E+03  0.10566000000E+00 0. -1.
     200003    1    4    4    0    0 -0.18679367075E+02 -0.98546199103E+01 -0.10667269267E+02  0.38207629101E+02  0.30000000000E+02 0. -1.
     200000    1    3    3    0    0  0.17853840628E+03 -0.25657617768E+02 -0.33559790243E+03  0.39415888672E+03  0.10100000000E+03 0. -1.
    -200001    1    1    2    0    0 -0.97874033182E+02  0.63436974688E+03 -0.76873315932E+03  0.11741907734E+04  0.61300000000E+03 0. -1.
<mgrwt>
<rscale>  0 0.17758884E+04</rscale>
<asrwt>0</asrwt>
<pdfrwt beam="1">  1        2 0.26978174E+00 0.17758884E+04</pdfrwt>
<pdfrwt beam="2">  1       -2 0.59643442E-01 0.17758884E+04</pdfrwt>
<totfact> 0.22784465E+01</totfact>
</mgrwt>
</event>
<event>
 8    1  0.7583103E-052  0.1401399E+04  0.7818608E-02  0.8952806E-01
          2   -1    0    0  501    0  0.00000000000E+00  0.00000000000E+00  0.35511400289E+04  0.35511400289E+04  0.25500000000E-02 0.  1.
         -2   -1    0    0    0  501 -0.00000000000E+00 -0.00000000000E+00 -0.13825983686E+03  0.13825983689E+03  0.25500000000E-02 0. -1.
     200001    2    1    2    0    0 -0.76411369737E+02 -0.19253138044E+03  0.99886901870E+03  0.11901747909E+04  0.61308212055E+03 0.  0.
    5000001    2    3    3    0    0 -0.95604009681E+02 -0.11895702113E+03  0.10378211123E+04  0.10578879459E+04  0.13697936071E+03 0.  0.
        -13    1    4    4    0    0 -0.68609268398E+02 -0.77262335582E+02  0.92748987900E+03  0.93322783232E+03  0.10566000000E+00 0. -1.
     200003    1    4    4    0    0 -0.26994741283E+02 -0.41694685549E+02  0.11033123333E+03  0.12466011354E+03  0.30000000000E+02 0. -1.
     200000    1    3    3    0    0  0.19192639944E+02 -0.73574359311E+02 -0.38952093629E+02  0.13228684505E+03  0.10100000000E+03 0.  1.
    -200001    1    1    2    0    0  0.76411369737E+02  0.19253138044E+03  0.24140111734E+04  0.24992250749E+04  0.61300000000E+03 0.  1.
<mgrwt>
<rscale>  0 0.14013994E+04</rscale>
<asrwt>0</asrwt>
<pdfrwt beam="1">  1        2 0.50730574E+00 0.14013994E+04</pdfrwt>
<pdfrwt beam="2">  1       -2 0.19751404E-01 0.14013994E+04</pdfrwt>
<totfact> 0.24132209E+01</totfact>
</mgrwt>
</event>
<event>
 8    1  0.7583103E-052  0.1800171E+04  0.7818608E-02  0.8706208E-01
          2   -1    0    0  501    0  0.00000000000E+00  0.00000000000E+00  0.11148491206E+04  0.11148491206E+04  0.25500000000E-02 0.  1.
         -2   -1    0    0    0  501 -0.00000000000E+00 -0.00000000000E+00 -0.72669414356E+03  0.72669414356E+03  0.25500000000E-02 0. -1.
     200001    2    1    2    0    0  0.65235468636E+03  0.60799671240E+02  0.12025121006E+03  0.90516478021E+03  0.61286188410E+03 0.  0.
    5000001    2    3    3    0    0 -0.89496297641E+02 -0.44593869289E+02  0.44222739857E+02  0.14527530856E+03  0.95661194258E+02 0.  0.
        -13    1    4    4    0    0 -0.93870316916E+02 -0.24649310412E+02  0.48917117065E+02  0.10868357929E+03  0.10566000000E+00 0. -1.
     200003    1    4    4    0    0  0.43740192748E+01 -0.19944558877E+02 -0.46943772079E+01  0.36591729268E+02  0.30000000000E+02 0. -1.
     200000    1    3    3    0    0  0.74185098400E+03  0.10539354053E+03  0.76028470204E+02  0.75988947165E+03  0.10100000000E+03 0. -1.
    -200001    1    1    2    0    0 -0.65235468636E+03 -0.60799671240E+02  0.26790376697E+03  0.93637848395E+03  0.61300000000E+03 0.  1.
<mgrwt>
<rscale>  0 0.18001715E+04</rscale>
<asrwt>0</asrwt>
<pdfrwt beam="1">  1        2 0.15926416E+00 0.18001715E+04</pdfrwt>
<pdfrwt beam="2">  1       -2 0.10381345E+00 0.18001715E+04</pdfrwt>
<totfact> 0.17131941E+01</totfact>
</mgrwt>
</event>
<event>
 8    1  0.7583103E-052  0.1320645E+04  0.7818608E-02  0.9013352E-01
          2   -1    0    0  501    0  0.00000000000E+00  0.00000000000E+00  0.11297196528E+04  0.11297196528E+04  0.25500000000E-02 0.  1.
         -2   -1    0    0    0  501 -0.00000000000E+00 -0.00000000000E+00 -0.38595907981E+03  0.38595907982E+03  0.25500000000E-02 0. -1.
     200001    2    1    2    0    0 -0.26305252881E+02 -0.34070533274E+02  0.94502316100E+02  0.62172232894E+03  0.61298874295E+03 0.  0.
    5000001    2    3    3    0    0 -0.12455550852E+03  0.23851856859E+03  0.13041927243E+03  0.31277417967E+03  0.91724143946E+02 0.  0.
        -13    1    4    4    0    0 -0.10365666879E+03  0.21800763278E+03  0.11999599249E+03  0.26957574504E+03  0.10566000000E+00 0. -1.
     200003    1    4    4    0    0 -0.20898839725E+02  0.20510935802E+02  0.10423279940E+02  0.43198434625E+02  0.30000000000E+02 0. -1.
     200000    1    3    3    0    0  0.98250255637E+02 -0.27258910186E+03 -0.35916956335E+02  0.30894814927E+03  0.10100000000E+03 0. -1.
    -200001    1    1    2    0    0  0.26305252881E+02  0.34070533274E+02  0.64925825693E+03  0.89395640372E+03  0.61300000000E+03 0.  1.
<mgrwt>
<rscale>  0 0.13206446E+04</rscale>
<asrwt>0</asrwt>
<pdfrwt beam="1">  1        2 0.16138852E+00 0.13206446E+04</pdfrwt>
<pdfrwt beam="2">  1       -2 0.55137011E-01 0.13206446E+04</pdfrwt>
<totfact> 0.71093974E+01</totfact>
</mgrwt>
</event>
<event>
 8    1  0.7583103E-052  0.1312111E+04  0.7818608E-02  0.9020016E-01
          2   -1    0    0  501    0  0.00000000000E+00  0.00000000000E+00  0.18467392804E+04  0.18467392804E+04  0.25500000000E-02 0.  1.
         -2   -1    0    0    0  501 -0.00000000000E+00 -0.00000000000E+00 -0.23306432567E+03  0.23306432568E+03  0.25500000000E-02 0. -1.
     200001    2    1    2    0    0  0.17821136358E+03 -0.64462880062E+02  0.64099284432E+03  0.91455932227E+03  0.62420523426E+03 0.  0.
    5000001    2    3    3    0    0  0.53967524020E+02  0.23286957584E+03  0.87110067441E+02  0.26584501573E+03  0.77101722011E+02 0.  0.
        -13    1    4    4    0    0 -0.15106396864E+02  0.68414508123E+02  0.19274205478E+02  0.72665358382E+02  0.10566000000E+00 0. -1.
     200003    1    4    4    0    0  0.69073920884E+02  0.16445506772E+03  0.67835861963E+02  0.19317965734E+03  0.30000000000E+02 0. -1.
     200000    1    3    3    0    0  0.12424383956E+03 -0.29733245590E+03  0.55388277687E+03  0.64871430655E+03  0.10100000000E+03 0. -1.
    -200001    1    1    2    0    0 -0.17821136358E+03  0.64462880062E+02  0.97268211038E+03  0.11652442838E+04  0.61300000000E+03 0.  1.
<mgrwt>
<rscale>  0 0.13121113E+04</rscale>
<asrwt>0</asrwt>
<pdfrwt beam="1">  1        2 0.26381990E+00 0.13121113E+04</pdfrwt>
<pdfrwt beam="2">  1       -2 0.33294903E-01 0.13121113E+04</pdfrwt>
<totfact> 0.79460888E+01</totfact>
</mgrwt>
</event>
<event>
 8    1  0.7583103E-052  0.1330923E+04  0.7818608E-02  0.9005396E-01
          2   -1    0    0  501    0  0.00000000000E+00  0.00000000000E+00  0.57912564651E+03  0.57912564652E+03  0.25500000000E-02 0.  1.
         -2   -1    0    0    0  501 -0.00000000000E+00 -0.00000000000E+00 -0.76466845725E+03  0.76466845725E+03  0.25500000000E-02 0. -1.
     200001    2    1    2    0    0 -0.13775113294E+03  0.20670669779E+03 -0.17258518952E+02  0.66130480979E+03  0.61263623908E+03 0.  0.
    5000001    2    3    3    0    0 -0.31004707218E+03  0.82250834688E+02  0.12028386592E+03  0.38873544215E+03  0.18371893970E+03 0.  0.
        -13    1    4    4    0    0 -0.13701926278E+03 -0.88659793544E+00  0.13694950779E+03  0.19372723938E+03  0.10566000000E+00 0. -1.
     200003    1    4    4    0    0 -0.17302780940E+03  0.83137432624E+02 -0.16665641868E+02  0.19500820277E+03  0.30000000000E+02 0. -1.
     200000    1    3    3    0    0  0.17229593924E+03  0.12445586310E+03 -0.13754238487E+03  0.27256936764E+03  0.10100000000E+03 0. -1.
    -200001    1    1    2    0    0  0.13775113294E+03 -0.20670669779E+03 -0.16828429178E+03  0.68248929398E+03  0.61300000000E+03 0. -1.
<mgrwt>
<rscale>  0 0.13309232E+04</rscale>
<asrwt>0</asrwt>
<pdfrwt beam="1">  1        2 0.82732235E-01 0.13309232E+04</pdfrwt>
<pdfrwt beam="2">  1       -2 0.10923835E+00 0.13309232E+04</pdfrwt>
<totfact> 0.37036359E+01</totfact>
</mgrwt>
</event>
<event>
 8    1  0.7583103E-052  0.1626110E+04  0.7818608E-02  0.8804666E-01
         -2   -1    0    0    0  501 -0.00000000000E+00  0.00000000000E+00  0.12427831320E+04  0.12427831320E+04  0.25500000000E-02 0. -1.
          2   -1    0    0  501    0  0.00000000000E+00 -0.00000000000E+00 -0.53191776541E+03  0.53191776541E+03  0.25500000000E-02 0.  1.
     200001    2    1    2    0    0 -0.30171207877E+02  0.94498178255E+02 -0.21838531307E+03  0.65706230057E+03  0.61171767539E+03 0.  0.
    5000001    2    3    3    0    0 -0.25269160096E+03 -0.52782777036E+02  0.35473535338E+02  0.27515613402E+03  0.88393775993E+02 0.  0.
        -13    1    4    4    0    0 -0.61649280139E+02  0.51873501988E+01  0.39192263036E+02  0.73236514046E+02  0.10566000000E+00 0. -1.
     200003    1    4    4    0    0 -0.19104232082E+03 -0.57970127235E+02 -0.37187276981E+01  0.20191961998E+03  0.30000000000E+02 0. -1.
     200000    1    3    3    0    0  0.22252039308E+03  0.14728095529E+03 -0.25385884841E+03  0.38190616655E+03  0.10100000000E+03 0.  1.
    -200001    1    1    2    0    0  0.30171207877E+02 -0.94498178255E+02  0.92925067963E+03  0.11176385968E+04  0.61300000000E+03 0. -1.
<mgrwt>
<rscale>  0 0.16261100E+04</rscale>
<asrwt>0</asrwt>
<pdfrwt beam="1">  1        2 0.75988252E-01 0.16261100E+04</pdfrwt>
<pdfrwt beam="2">  1       -2 0.17754045E+00 0.16261100E+04</pdfrwt>
<totfact> 0.11298839E+01</totfact>
</mgrwt>
</event>
<event>
 8    1  0.7583103E-052  0.1509690E+04  0.7818608E-02  0.8878035E-01
          2   -1    0    0  501    0  0.00000000000E+00  0.00000000000E+00  0.24803865200E+04  0.24803865200E+04  0.25500000000E-02 0.  1.
         -2   -1    0    0    0  501 -0.00000000000E+00 -0.00000000000E+00 -0.22971855326E+03  0.22971855328E+03  0.25500000000E-02 0. -1.
     200001    2    1    2    0    0 -0.19203248304E+03  0.38184951168E+02  0.41721650302E+03  0.76700244221E+03  0.61309752155E+03 0.  0.
    5000001    2    3    3    0    0  0.12286244327E+03  0.85370339673E+02 -0.65139159335E+02  0.18027144720E+03  0.76625124692E+02 0.  0.
        -13    1    4    4    0    0  0.27176787700E+02  0.50454658096E+02 -0.43395721781E+02  0.71884978585E+02  0.10566000000E+00 0. -1.
     200003    1    4    4    0    0  0.95685655569E+02  0.34915681577E+02 -0.21743437554E+02  0.10838646861E+03  0.30000000000E+02 0. -1.
     200000    1    3    3    0    0 -0.31489492631E+03 -0.47185388505E+02  0.48235566236E+03  0.58673099502E+03  0.10100000000E+03 0.  1.
    -200001    1    1    2    0    0  0.19203248304E+03 -0.38184951168E+02  0.18334514637E+04  0.19431026310E+04  0.61300000000E+03 0.  1.
<mgrwt>
<rscale>  0 0.15096898E+04</rscale>
<asrwt>0</asrwt>
<pdfrwt beam="1">  1        2 0.35434092E+00 0.15096898E+04</pdfrwt>
<pdfrwt beam="2">  1       -2 0.32816937E-01 0.15096898E+04</pdfrwt>
<totfact> 0.37860121E+01</totfact>
</mgrwt>
</event>
<event>
 8    1  0.7583103E-052  0.2961252E+04  0.7818608E-02  0.8254883E-01
         -2   -1    0    0    0  501 -0.00000000000E+00  0.00000000000E+00  0.74578802658E+03  0.74578802658E+03  0.25500000000E-02 0. -1.
          2   -1    0    0  501    0  0.00000000000E+00 -0.00000000000E+00 -0.29395134734E+04  0.29395134734E+04  0.25500000000E-02 0.  1.
     200001    2    1    2    0    0  0.12169503978E+04 -0.15046610173E+03 -0.17930625479E+04  0.22570479941E+04  0.61284910739E+03 0.  0.
    5000001    2    3    3    0    0  0.11289646878E+04  0.32803988258E+02 -0.14948080661E+04  0.18822331772E+04  0.18086793783E+03 0.  0.
        -13    1    4    4    0    0  0.10296666975E+04  0.70749807870E+02 -0.13753461469E+04  0.17195336805E+04  0.10566000000E+00 0. -1.
     200003    1    4    4    0    0  0.99297990271E+02 -0.37945819611E+02 -0.11946191920E+03  0.16269949673E+03  0.30000000000E+02 0. -1.
     200000    1    3    3    0    0  0.87985710042E+02 -0.18327008999E+03 -0.29825448181E+03  0.37481481691E+03  0.10100000000E+03 0.  1.
    -200001    1    1    2    0    0 -0.12169503978E+04  0.15046610173E+03 -0.40066289889E+03  0.14282535059E+04  0.61300000000E+03 0. -1.
<mgrwt>
<rscale>  0 0.29612524E+04</rscale>
<asrwt>0</asrwt>
<pdfrwt beam="1">  1        2 0.41993049E+00 0.29612524E+04</pdfrwt>
<pdfrwt beam="2">  1       -2 0.10654115E+00 0.29612524E+04</pdfrwt>
<totfact> 0.15642535E+00</totfact>
</mgrwt>
</event>
<event>
 8    1  0.7583103E-052  0.2546883E+04  0.7818608E-02  0.8386471E-01
         -2   -1    0    0    0  501 -0.00000000000E+00  0.00000000000E+00  0.80670001977E+03  0.80670001977E+03  0.25500000000E-02 0. -1.
          2   -1    0    0  501    0  0.00000000000E+00 -0.00000000000E+00 -0.20102303822E+04  0.20102303822E+04  0.25500000000E-02 0.  1.
     200001    2    1    2    0    0  0.23848160928E+03  0.34116527082E+03 -0.17471826805E+04  0.18979124136E+04  0.61331638721E+03 0.  0.
    5000001    2    3    3    0    0 -0.35866683872E+02  0.11373476452E+03 -0.31914894096E+02  0.14310866386E+03  0.72384484072E+02 0.  0.
        -13    1    4    4    0    0 -0.33137562242E+02  0.38095990557E+02 -0.35322779423E+02  0.61620714359E+02  0.10566000000E+00 0. -1.
     200003    1    4    4    0    0 -0.27291216294E+01  0.75638773963E+02  0.34078853273E+01  0.81487949501E+02  0.30000000000E+02 0. -1.
     200000    1    3    3    0    0  0.27434829315E+03  0.22743050630E+03 -0.17152677864E+04  0.17548037498E+04  0.10100000000E+03 0.  1.
    -200001    1    1    2    0    0 -0.23848160928E+03 -0.34116527082E+03  0.54365231806E+03  0.91901798835E+03  0.61300000000E+03 0. -1.
<mgrwt>
<rscale>  0 0.25468827E+04</rscale>
<asrwt>0</asrwt>
<pdfrwt beam="1">  1        2 0.28717577E+00 0.25468827E+04</pdfrwt>
<pdfrwt beam="2">  1       -2 0.11524286E+00 0.25468827E+04</pdfrwt>
<totfact> 0.41567568E+00</totfact>
</mgrwt>
</event>
<event>
 8    1  0.7583103E-052  0.1251464E+04  0.7818608E-02  0.9068966E-01
         -2   -1    0    0    0  501 -0.00000000000E+00  0.00000000000E+00  0.19354857391E+03  0.19354857393E+03  0.25500000000E-02 0. -1.
          2   -1    0    0  501    0  0.00000000000E+00 -0.00000000000E+00 -0.20229575684E+04  0.20229575684E+04  0.25500000000E-02 0.  1.
     200001    2    1    2    0    0 -0.96509382899E+02 -0.56132356307E+02 -0.10179628423E+04  0.11934329483E+04  0.61283680651E+03 0.  0.
    5000001    2    3    3    0    0 -0.27965583662E+03 -0.28997755293E+02 -0.19928839314E+03  0.34802904261E+03  0.48580799629E+02 0.  0.
        -13    1    4    4    0    0 -0.69323198220E+02 -0.21614439294E+02 -0.55125154985E+02  0.91168435731E+02  0.10566000000E+00 0. -1.
     200003    1    4    4    0    0 -0.21033263840E+03 -0.73833159992E+01 -0.14416323816E+03  0.25686060688E+03  0.30000000000E+02 0.  1.
     200000    1    3    3    0    0  0.18314645372E+03 -0.27134601014E+02 -0.81867444914E+03  0.84540390569E+03  0.10100000000E+03 0.  1.
    -200001    1    1    2    0    0  0.96509382899E+02  0.56132356307E+02 -0.81144615221E+03  0.10230731940E+04  0.61300000000E+03 0. -1.
<mgrwt>
<rscale>  0 0.12514640E+04</rscale>
<asrwt>0</asrwt>
<pdfrwt beam="1">  1        2 0.28899393E+00 0.12514640E+04</pdfrwt>
<pdfrwt beam="2">  1       -2 0.27649797E-01 0.12514640E+04</pdfrwt>
<totfact> 0.91663443E+01</totfact>
</mgrwt>
</event>
<event>
 8    1  0.7583103E-052  0.1484206E+04  0.7818608E-02  0.8895024E-01
         -2   -1    0    0    0  501 -0.00000000000E+00  0.00000000000E+00  0.72924208550E+03  0.72924208550E+03  0.25500000000E-02 0. -1.
          2   -1    0    0  501    0  0.00000000000E+00 -0.00000000000E+00 -0.75519069656E+03  0.75519069656E+03  0.25500000000E-02 0.  1.
     200001    2    1    2    0    0  0.80329227446E+02 -0.63887595099E+01  0.39845716567E+03  0.73451087656E+03  0.61175527287E+03 0.  0.
    5000001    2    3    3    0    0  0.24497683522E+03  0.12104837519E+03  0.25280204905E+02  0.29540826658E+03  0.10936451105E+03 0.  0.
        -13    1    4    4    0    0  0.21425341296E+03  0.12938409662E+03  0.26192572310E+02  0.25165617702E+03  0.10566000000E+00 0. -1.
     200003    1    4    4    0    0  0.30723422253E+02 -0.83357214330E+01 -0.91236740455E+00  0.43752089562E+02  0.30000000000E+02 0.  1.
     200000    1    3    3    0    0 -0.16464760777E+03 -0.12743713470E+03  0.37317696076E+03  0.43910260998E+03  0.10100000000E+03 0.  1.
    -200001    1    1    2    0    0 -0.80329227446E+02  0.63887595099E+01 -0.42440577673E+03  0.74992190550E+03  0.61300000000E+03 0.  1.
<mgrwt>
<rscale>  0 0.14842060E+04</rscale>
<asrwt>0</asrwt>
<pdfrwt beam="1">  1        2 0.10788438E+00 0.14842060E+04</pdfrwt>
<pdfrwt beam="2">  1       -2 0.10417744E+00 0.14842060E+04</pdfrwt>
<totfact> 0.29717249E+01</totfact>
</mgrwt>
</event>
<event>
 8    1  0.7583103E-052  0.2239828E+04  0.7818608E-02  0.8502031E-01
         -2   -1    0    0    0  501 -0.00000000000E+00  0.00000000000E+00  0.85882701829E+03  0.85882701830E+03  0.25500000000E-02 0. -1.
          2   -1    0    0  501    0  0.00000000000E+00 -0.00000000000E+00 -0.14603721634E+04  0.14603721634E+04  0.25500000000E-02 0.  1.
     200001    2    1    2    0    0  0.28280412278E+03  0.36723479215E+03 -0.11444471796E+04  0.13782681621E+04  0.61239220706E+03 0.  0.
    5000001    2    3    3    0    0  0.35535882422E+03  0.15634856832E+03 -0.46951157713E+03  0.66030141383E+03  0.25462141951E+03 0.  0.
        -13    1    4    4    0    0  0.15304048799E+03 -0.45775782050E+00 -0.38005266815E+02  0.15768960643E+03  0.10566000000E+00 0. -1.
     200003    1    4    4    0    0  0.20231833624E+03  0.15680632614E+03 -0.43150631032E+03  0.50261180740E+03  0.30000000000E+02 0. -1.
     200000    1    3    3    0    0 -0.72554701450E+02  0.21088622383E+03 -0.67493560250E+03  0.71796674827E+03  0.10100000000E+03 0.  1.
    -200001    1    1    2    0    0 -0.28280412278E+03 -0.36723479215E+03  0.54290203457E+03  0.94093101956E+03  0.61300000000E+03 0. -1.
<mgrwt>
<rscale>  0 0.22398277E+04</rscale>
<asrwt>0</asrwt>
<pdfrwt beam="1">  1        2 0.20862459E+00 0.22398277E+04</pdfrwt>
<pdfrwt beam="2">  1       -2 0.12268957E+00 0.22398277E+04</pdfrwt>
<totfact> 0.70629877E+00</totfact>
</mgrwt>
</event>
<event>
 8    1  0.7583103E-052  0.1831197E+04  0.7818608E-02  0.8689883E-01
         -2   -1    0    0    0  501 -0.00000000000E+00  0.00000000000E+00  0.52414680154E+03  0.52414680154E+03  0.25500000000E-02 0. -1.
          2   -1    0    0  501    0  0.00000000000E+00 -0.00000000000E+00 -0.15994008609E+04  0.15994008609E+04  0.25500000000E-02 0.  1.
     200001    2    1    2    0    0  0.13783049126E+02  0.67734982146E+03 -0.46523389592E+03  0.10249638682E+04  0.61246681557E+03 0.  0.
    5000001    2    3    3    0    0 -0.93017246624E+02  0.37966319386E+03  0.51791558205E+02  0.41052107053E+03  0.11423149698E+03 0.  0.
        -13    1    4    4    0    0 -0.93009392972E+02  0.20148781002E+03 -0.22449592461E+01  0.22193047509E+03  0.10566000000E+00 0. -1.
     200003    1    4    4    0    0 -0.78536521564E-02  0.17817538384E+03  0.54036517451E+02  0.18859059544E+03  0.30000000000E+02 0. -1.
     200000    1    3    3    0    0  0.10680029575E+03  0.29768662760E+03 -0.51702545413E+03  0.61444279769E+03  0.10100000000E+03 0.  1.
    -200001    1    1    2    0    0 -0.13783049126E+02 -0.67734982146E+03 -0.61002016339E+03  0.10985837942E+04  0.61300000000E+03 0.  1.
<mgrwt>
<rscale>  0 0.18311973E+04</rscale>
<asrwt>0</asrwt>
<pdfrwt beam="1">  1        2 0.22848584E+00 0.18311973E+04</pdfrwt>
<pdfrwt beam="2">  1       -2 0.74878115E-01 0.18311973E+04</pdfrwt>
<totfact> 0.19605137E+01</totfact>
</mgrwt>
</event>
<event>
 8    1  0.7583103E-052  0.1335829E+04  0.7818608E-02  0.9001625E-01
          2   -1    0    0  501    0  0.00000000000E+00  0.00000000000E+00  0.13808440239E+04  0.13808440239E+04  0.25500000000E-02 0.  1.
         -2   -1    0    0    0  501 -0.00000000000E+00 -0.00000000000E+00 -0.32307024634E+03  0.32307024635E+03  0.25500000000E-02 0. -1.
     200001    2    1    2    0    0 -0.30041848285E+02  0.24364210647E+03  0.39938433218E+03  0.77143925692E+03  0.61265544446E+03 0.  0.
    5000001    2    3    3    0    0 -0.56168237111E+02  0.16030514638E+03  0.53628818473E+03  0.58020301048E+03  0.14204895449E+03 0.  0.
        -13    1    4    4    0    0  0.16585526410E+01 -0.24845648475E+02  0.52120270064E+02  0.57763230178E+02  0.10566000000E+00 0. -1.
     200003    1    4    4    0    0 -0.57826789752E+02  0.18515079486E+03  0.48416791466E+03  0.52243978030E+03  0.30000000000E+02 0. -1.
     200000    1    3    3    0    0  0.26126388826E+02  0.83336960083E+02 -0.13690385255E+03  0.19123624644E+03  0.10100000000E+03 0. -1.
    -200001    1    1    2    0    0  0.30041848285E+02 -0.24364210647E+03  0.65838944537E+03  0.93247501332E+03  0.61300000000E+03 0.  1.
<mgrwt>
<rscale>  0 0.13358288E+04</rscale>
<asrwt>0</asrwt>
<pdfrwt beam="1">  1        2 0.19726343E+00 0.13358288E+04</pdfrwt>
<pdfrwt beam="2">  1       -2 0.46152893E-01 0.13358288E+04</pdfrwt>
<totfact> 0.73781296E+01</totfact>
</mgrwt>
</event>
<event>
 8    1  0.7583103E-052  0.1369457E+04  0.7818608E-02  0.8976229E-01
          2   -1    0    0  501    0  0.00000000000E+00  0.00000000000E+00  0.63345462248E+03  0.63345462248E+03  0.25500000000E-02 0.  1.
         -2   -1    0    0    0  501 -0.00000000000E+00 -0.00000000000E+00 -0.74015292832E+03  0.74015292832E+03  0.25500000000E-02 0. -1.
     200001    2    1    2    0    0  0.22196169580E+03  0.70297665358E+01 -0.26295690761E+03  0.70315832630E+03  0.61316301630E+03 0.  0.
    5000001    2    3    3    0    0  0.19670532925E+03  0.15763077745E+03  0.11179077236E+03  0.28607875093E+03  0.76180223127E+02 0.  0.
        -13    1    4    4    0    0  0.38027539305E+02  0.14535835568E+02  0.43929214469E+02  0.59892998832E+02  0.10566000000E+00 0. -1.
     200003    1    4    4    0    0  0.15867778995E+03  0.14309494188E+03  0.67861557895E+02  0.22618575210E+03  0.30000000000E+02 0. -1.
     200000    1    3    3    0    0  0.25256366549E+02 -0.15060101091E+03 -0.37474767997E+03  0.41707957536E+03  0.10100000000E+03 0. -1.
    -200001    1    1    2    0    0 -0.22196169580E+03 -0.70297665358E+01  0.15625860177E+03  0.67044922451E+03  0.61300000000E+03 0.  1.
<mgrwt>
<rscale>  0 0.13694573E+04</rscale>
<asrwt>0</asrwt>
<pdfrwt beam="1">  1        2 0.90493518E-01 0.13694573E+04</pdfrwt>
<pdfrwt beam="2">  1       -2 0.10573613E+00 0.13694573E+04</pdfrwt>
<totfact> 0.35913146E+01</totfact>
</mgrwt>
</event>
<event>
 8    1  0.7583103E-052  0.1252717E+04  0.7818608E-02  0.9067925E-01
          2   -1    0    0  501    0  0.00000000000E+00  0.00000000000E+00  0.16895469078E+04  0.16895469078E+04  0.25500000000E-02 0. -1.
         -2   -1    0    0    0  501 -0.00000000000E+00 -0.00000000000E+00 -0.23220710474E+03  0.23220710476E+03  0.25500000000E-02 0.  1.
     200001    2    1    2    0    0  0.40634960886E+01  0.98596470395E+02  0.60400248996E+03  0.86643825607E+03  0.61331759125E+03 0.  0.
    5000001    2    3    3    0    0 -0.16529386356E+03 -0.11853049138E+03  0.28621518944E+02  0.22061297428E+03  0.80494436805E+02 0.  0.
        -13    1    4    4    0    0 -0.81788097604E+02 -0.30010582135E+02  0.37746019308E+02  0.94945779724E+02  0.10566000000E+00 0. -1.
     200003    1    4    4    0    0 -0.83505765957E+02 -0.88519909244E+02 -0.91245003644E+01  0.12566719456E+03  0.30000000000E+02 0. -1.
     200000    1    3    3    0    0  0.16935735965E+03  0.21712696177E+03  0.57538097102E+03  0.64582528179E+03  0.10100000000E+03 0. -1.
    -200001    1    1    2    0    0 -0.40634960886E+01 -0.98596470395E+02  0.85333731314E+03  0.10553157565E+04  0.61300000000E+03 0. -1.
<mgrwt>
<rscale>  0 0.12527167E+04</rscale>
<asrwt>0</asrwt>
<pdfrwt beam="1">  1        2 0.24136384E+00 0.12527167E+04</pdfrwt>
<pdfrwt beam="2">  1       -2 0.33172444E-01 0.12527167E+04</pdfrwt>
<totfact> 0.96886576E+01</totfact>
</mgrwt>
</event>
<event>
 8    1  0.7583103E-052  0.1743058E+04  0.7818608E-02  0.8737181E-01
         -2   -1    0    0    0  501 -0.00000000000E+00  0.00000000000E+00  0.36341746880E+03  0.36341746881E+03  0.25500000000E-02 0. -1.
          2   -1    0    0  501    0  0.00000000000E+00 -0.00000000000E+00 -0.20900551777E+04  0.20900551777E+04  0.25500000000E-02 0.  1.
     200001    2    1    2    0    0  0.24562828315E+03 -0.17104191922E+03 -0.16268452440E+04  0.17640409039E+04  0.61288357082E+03 0.  0.
    5000001    2    3    3    0    0  0.93638536277E+02  0.17368577647E+03 -0.28591999702E+03  0.36753827766E+03  0.11999673507E+03 0.  0.
        -13    1    4    4    0    0  0.28402525639E+02  0.14936992572E+03 -0.21778838075E+03  0.26561225146E+03  0.10566000000E+00 0. -1.
     200003    1    4    4    0    0  0.65236010638E+02  0.24315850751E+02 -0.68131616263E+02  0.10192602620E+03  0.30000000000E+02 0. -1.
     200000    1    3    3    0    0  0.15198974688E+03 -0.34472769569E+03 -0.13409252469E+04  0.13965026263E+04  0.10100000000E+03 0.  1.
    -200001    1    1    2    0    0 -0.24562828315E+03  0.17104191922E+03 -0.99792464950E+02  0.68943174258E+03  0.61300000000E+03 0. -1.
<mgrwt>
<rscale>  0 0.17430577E+04</rscale>
<asrwt>0</asrwt>
<pdfrwt beam="1">  1        2 0.29857930E+00 0.17430577E+04</pdfrwt>
<pdfrwt beam="2">  1       -2 0.51916783E-01 0.17430577E+04</pdfrwt>
<totfact> 0.24011273E+01</totfact>
</mgrwt>
</event>
<event>
 8    1  0.7583103E-052  0.1248592E+04  0.7818608E-02  0.9071356E-01
          2   -1    0    0  501    0  0.00000000000E+00  0.00000000000E+00  0.22237803149E+04  0.22237803149E+04  0.25500000000E-02 0.  1.
         -2   -1    0    0    0  501 -0.00000000000E+00 -0.00000000000E+00 -0.17526258078E+03  0.17526258080E+03  0.25500000000E-02 0. -1.
     200001    2    1    2    0    0  0.24781881590E+02  0.78299140386E+02  0.11868594304E+04  0.13383973708E+04  0.61312911993E+03 0.  0.
    5000001    2    3    3    0    0 -0.24871082965E+03  0.16744979218E+03  0.58545654200E+03  0.66413293014E+03  0.91742447313E+02 0.  0.
        -13    1    4    4    0    0 -0.15680912084E+03  0.11052071586E+03  0.28631512851E+03  0.34464516969E+03  0.10566000000E+00 0. -1.
     200003    1    4    4    0    0 -0.91901708816E+02  0.56929076318E+02  0.29914141349E+03  0.31948776045E+03  0.30000000000E+02 0.  1.
     200000    1    3    3    0    0  0.27349271124E+03 -0.89150651791E+02  0.60140288836E+03  0.67426444066E+03  0.10100000000E+03 0.  1.
    -200001    1    1    2    0    0 -0.24781881590E+02 -0.78299140386E+02  0.86165830376E+03  0.10606455249E+04  0.61300000000E+03 0. -1.
<mgrwt>
<rscale>  0 0.12485920E+04</rscale>
<asrwt>0</asrwt>
<pdfrwt beam="1">  1        2 0.31768288E+00 0.12485920E+04</pdfrwt>
<pdfrwt beam="2">  1       -2 0.25037514E-01 0.12485920E+04</pdfrwt>
<totfact> 0.86669896E+01</totfact>
</mgrwt>
</event>
<event>
 8    1  0.7583103E-052  0.1564527E+04  0.7818608E-02  0.8842642E-01
          2   -1    0    0  501    0  0.00000000000E+00  0.00000000000E+00  0.89334346372E+03  0.89334346373E+03  0.25500000000E-02 0.  1.
         -2   -1    0    0    0  501 -0.00000000000E+00 -0.00000000000E+00 -0.68499500944E+03  0.68499500945E+03  0.25500000000E-02 0. -1.
     200001    2    1    2    0    0 -0.16305854503E+03  0.42911592350E+03  0.26072633909E+03  0.81071811927E+03  0.61526992459E+03 0.  0.
    5000001    2    3    3    0    0  0.47743097820E+02 -0.10393897120E+03  0.16702464862E+03  0.22117095390E+03  0.89087846987E+02 0.  0.
        -13    1    4    4    0    0  0.25798783258E+02 -0.10336050500E+02  0.90534431124E+02  0.94704305818E+02  0.10566000000E+00 0. -1.
     200003    1    4    4    0    0  0.21944314561E+02 -0.93602920702E+02  0.76490217491E+02  0.12646664808E+03  0.30000000000E+02 0. -1.
     200000    1    3    3    0    0 -0.21080164285E+03  0.53305489470E+03  0.93701690477E+02  0.58954716537E+03  0.10100000000E+03 0.  1.
    -200001    1    1    2    0    0  0.16305854503E+03 -0.42911592350E+03 -0.52377884812E+02  0.76762035390E+03  0.61300000000E+03 0. -1.
<mgrwt>
<rscale>  0 0.15645265E+04</rscale>
<asrwt>0</asrwt>
<pdfrwt beam="1">  1        2 0.12762049E+00 0.15645265E+04</pdfrwt>
<pdfrwt beam="2">  1       -2 0.97856430E-01 0.15645265E+04</pdfrwt>
<totfact> 0.27524159E+01</totfact>
</mgrwt>
</event>
<event>
 8    1  0.7583103E-052  0.1328273E+04  0.7818608E-02  0.9007440E-01
         -2   -1    0    0    0  501 -0.00000000000E+00  0.00000000000E+00  0.83888141151E+03  0.83888141151E+03  0.25500000000E-02 0. -1.
          2   -1    0    0  501    0  0.00000000000E+00 -0.00000000000E+00 -0.52579187218E+03  0.52579187219E+03  0.25500000000E-02 0.  1.
     200001    2    1    2    0    0  0.24914839667E+03  0.18147368791E+02  0.17444513738E+03  0.68836305847E+03  0.61725873323E+03 0.  0.
    5000001    2    3    3    0    0  0.81078428960E+02  0.29889434714E+03  0.11827830014E+03  0.34134419226E+03  0.81329938601E+02 0.  0.
        -13    1    4    4    0    0  0.55850934940E+02  0.10658591736E+03  0.20472916486E+02  0.12206160816E+03  0.10566000000E+00 0. -1.
     200003    1    4    4    0    0  0.25227494020E+02  0.19230842978E+03  0.97805383659E+02  0.21928258410E+03  0.30000000000E+02 0.  1.
     200000    1    3    3    0    0  0.16806996771E+03 -0.28074697835E+03  0.56166837239E+02  0.34701886621E+03  0.10100000000E+03 0. -1.
    -200001    1    1    2    0    0 -0.24914839667E+03 -0.18147368791E+02  0.13864440194E+03  0.67631022523E+03  0.61300000000E+03 0.  1.
<mgrwt>
<rscale>  0 0.13282726E+04</rscale>
<asrwt>0</asrwt>
<pdfrwt beam="1">  1        2 0.75113125E-01 0.13282726E+04</pdfrwt>
<pdfrwt beam="2">  1       -2 0.11984020E+00 0.13282726E+04</pdfrwt>
<totfact> 0.33060449E+01</totfact>
</mgrwt>
</event>
<event>
 8    1  0.7583103E-052  0.1349027E+04  0.7818608E-02  0.8991565E-01
          2   -1    0    0  501    0  0.00000000000E+00  0.00000000000E+00  0.29585200213E+04  0.29585200213E+04  0.25500000000E-02 0.  1.
         -2   -1    0    0    0  501 -0.00000000000E+00 -0.00000000000E+00 -0.15378255456E+03  0.15378255458E+03  0.25500000000E-02 0. -1.
     200001    2    1    2    0    0 -0.12052960192E+03  0.25057315651E+03  0.14919794148E+04  0.16370341275E+04  0.61364800078E+03 0.  0.
    5000001    2    3    3    0    0 -0.57292381744E+02  0.29641925974E+03  0.27498853650E+03  0.41336398856E+03  0.64064789715E+02 0.  0.
        -13    1    4    4    0    0 -0.26770284206E+02  0.21425950547E+03  0.19627163302E+03  0.29179847309E+03  0.10566000000E+00 0. -1.
     200003    1    4    4    0    0 -0.30522097538E+02  0.82159754264E+02  0.78716903477E+02  0.12156551547E+03  0.30000000000E+02 0.  1.
     200000    1    3    3    0    0 -0.63237220176E+02 -0.45846103230E+02  0.12169908783E+04  0.12236701389E+04  0.10100000000E+03 0.  1.
    -200001    1    1    2    0    0  0.12052960192E+03 -0.25057315651E+03  0.13127580519E+04  0.14752684483E+04  0.61300000000E+03 0. -1.
<mgrwt>
<rscale>  0 0.13490275E+04</rscale>
<asrwt>0</asrwt>
<pdfrwt beam="1">  1        2 0.42264571E+00 0.13490275E+04</pdfrwt>
<pdfrwt beam="2">  1       -2 0.21968937E-01 0.13490275E+04</pdfrwt>
<totfact> 0.44340214E+01</totfact>
</mgrwt>
</event>
<event>
 8    1  0.7583103E-052  0.2658414E+04  0.7818608E-02  0.8348626E-01
          2   -1    0    0  501    0  0.00000000000E+00  0.00000000000E+00  0.25956468234E+04  0.25956468234E+04  0.25500000000E-02 0.  1.
         -2   -1    0    0    0  501 -0.00000000000E+00 -0.00000000000E+00 -0.68067463036E+03  0.68067463036E+03  0.25500000000E-02 0. -1.
     200001    2    1    2    0    0 -0.95802063585E+03  0.47718045995E+03  0.15680501020E+04  0.19950608763E+04  0.61317375004E+03 0.  0.
    5000001    2    3    3    0    0 -0.23941101431E+03  0.41016475429E+03  0.74150134703E+03  0.89311952701E+03  0.14928322891E+03 0.  0.
        -13    1    4    4    0    0 -0.21500845625E+03  0.39684030384E+03  0.63522945493E+03  0.77924792884E+03  0.10566000000E+00 0. -1.
     200003    1    4    4    0    0 -0.24402558052E+02  0.13324450445E+02  0.10627189210E+03  0.11387159817E+03  0.30000000000E+02 0.  1.
     200000    1    3    3    0    0 -0.71860962155E+03  0.67015705658E+02  0.82654875500E+03  0.11019413493E+04  0.10100000000E+03 0.  1.
    -200001    1    1    2    0    0  0.95802063585E+03 -0.47718045995E+03  0.34692209103E+03  0.12812605774E+04  0.61300000000E+03 0. -1.
<mgrwt>
<rscale>  0 0.26584138E+04</rscale>
<asrwt>0</asrwt>
<pdfrwt beam="1">  1        2 0.37080669E+00 0.26584138E+04</pdfrwt>
<pdfrwt beam="2">  1       -2 0.97239232E-01 0.26584138E+04</pdfrwt>
<totfact> 0.30648150E+00</totfact>
</mgrwt>
</event>
<event>
 8    1  0.7583103E-052  0.1267546E+04  0.7818608E-02  0.9055705E-01
         -2   -1    0    0    0  501 -0.00000000000E+00  0.00000000000E+00  0.39307485545E+03  0.39307485546E+03  0.25500000000E-02 0. -1.
          2   -1    0    0  501    0  0.00000000000E+00 -0.00000000000E+00 -0.10218623231E+04  0.10218623231E+04  0.25500000000E-02 0.  1.
     200001    2    1    2    0    0 -0.37737604217E+02 -0.10003445870E+03 -0.44981171761E+03  0.76745564307E+03  0.61255739574E+03 0.  0.
    5000001    2    3    3    0    0 -0.59243799287E+02  0.49290794444E+02 -0.54038050285E+03  0.56456588848E+03  0.14416707114E+03 0.  0.
        -13    1    4    4    0    0  0.37445145764E+02 -0.18019622974E+02 -0.15425594961E+03  0.15975529696E+03  0.10566000000E+00 0. -1.
     200003    1    4    4    0    0 -0.96688945051E+02  0.67310417418E+02 -0.38612455324E+03  0.40481059152E+03  0.30000000000E+02 0. -1.
     200000    1    3    3    0    0  0.21506195070E+02 -0.14932525315E+03  0.90568785248E+02  0.20288975459E+03  0.10100000000E+03 0. -1.
    -200001    1    1    2    0    0  0.37737604217E+02  0.10003445870E+03 -0.17897575005E+03  0.64748153549E+03  0.61300000000E+03 0. -1.
<mgrwt>
<rscale>  0 0.12675463E+04</rscale>
<asrwt>0</asrwt>
<pdfrwt beam="1">  1        2 0.14598033E+00 0.12675463E+04</pdfrwt>
<pdfrwt beam="2">  1       -2 0.56153551E-01 0.12675463E+04</pdfrwt>
<totfact> 0.79683417E+01</totfact>
</mgrwt>
</event>
<event>
 8    1  0.7583103E-052  0.1340416E+04  0.7818608E-02  0.8998115E-01
         -2   -1    0    0    0  501 -0.00000000000E+00  0.00000000000E+00  0.12384820066E+04  0.12384820066E+04  0.25500000000E-02 0. -1.
          2   -1    0    0  501    0  0.00000000000E+00 -0.00000000000E+00 -0.36268483573E+03  0.36268483574E+03  0.25500000000E-02 0.  1.
     200001    2    1    2    0    0  0.44179098508E+02 -0.12438183667E+03  0.72588812674E+03  0.95644647228E+03  0.60864903495E+03 0.  0.
    5000001    2    3    3    0    0  0.42163820877E+02  0.27365362975E+02  0.76176829187E+03  0.77065180014E+03  0.10529299918E+03 0.  0.
        -13    1    4    4    0    0  0.28240693912E+02 -0.31836579066E+02  0.18090127318E+03  0.18583967919E+03  0.10566000000E+00 0. -1.
     200003    1    4    4    0    0  0.13923126966E+02  0.59201942041E+02  0.58086701869E+03  0.58481212095E+03  0.30000000000E+02 0. -1.
     200000    1    3    3    0    0  0.20152776302E+01 -0.15174719965E+03 -0.35880165132E+02  0.18579467214E+03  0.10100000000E+03 0.  1.
    -200001    1    1    2    0    0 -0.44179098508E+02  0.12438183667E+03  0.14990904410E+03  0.64472037004E+03  0.61300000000E+03 0.  1.
<mgrwt>
<rscale>  0 0.13404158E+04</rscale>
<asrwt>0</asrwt>
<pdfrwt beam="1">  1        2 0.51812119E-01 0.13404158E+04</pdfrwt>
<pdfrwt beam="2">  1       -2 0.17692600E+00 0.13404158E+04</pdfrwt>
<totfact> 0.17974212E+01</totfact>
</mgrwt>
</event>
<event>
 8    1  0.7583103E-052  0.1272913E+04  0.7818608E-02  0.9051326E-01
         -2   -1    0    0    0  501 -0.00000000000E+00  0.00000000000E+00  0.74700167067E+03  0.74700167067E+03  0.25500000000E-02 0.  1.
          2   -1    0    0  501    0  0.00000000000E+00 -0.00000000000E+00 -0.54227015835E+03  0.54227015836E+03  0.25500000000E-02 0. -1.
     200001    2    1    2    0    0 -0.12393402354E+03 -0.56091733675E+02  0.20829565364E+03  0.66134856311E+03  0.61277150540E+03 0.  0.
    5000001    2    3    3    0    0 -0.67820211245E+01  0.11843427251E+03  0.34882727185E+03  0.38907286786E+03  0.12499823280E+03 0.  0.
        -13    1    4    4    0    0 -0.24828010932E+02 -0.18176237035E+02  0.74923838132E+02  0.80996286360E+02  0.10566000000E+00 0. -1.
     200003    1    4    4    0    0  0.18045989807E+02  0.13661050955E+03  0.27390343372E+03  0.30807658150E+03  0.30000000000E+02 0. -1.
     200000    1    3    3    0    0 -0.11715200241E+03 -0.17452600619E+03 -0.14053161821E+03  0.27227569525E+03  0.10100000000E+03 0. -1.
    -200001    1    1    2    0    0  0.12393402354E+03  0.56091733675E+02 -0.35641413271E+01  0.62792326592E+03  0.61300000000E+03 0. -1.
<mgrwt>
<rscale>  0 0.12729127E+04</rscale>
<asrwt>0</asrwt>
<pdfrwt beam="1">  1        2 0.77467166E-01 0.12729127E+04</pdfrwt>
<pdfrwt beam="2">  1       -2 0.10671452E+00 0.12729127E+04</pdfrwt>
<totfact> 0.42492226E+01</totfact>
</mgrwt>
</event>
<event>
 8    1  0.7583103E-052  0.1906803E+04  0.7818608E-02  0.8651478E-01
         -2   -1    0    0    0  501 -0.00000000000E+00  0.00000000000E+00  0.44827445001E+03  0.44827445001E+03  0.25500000000E-02 0.  1.
          2   -1    0    0  501    0  0.00000000000E+00 -0.00000000000E+00 -0.20277181552E+04  0.20277181552E+04  0.25500000000E-02 0. -1.
     200001    2    1    2    0    0 -0.31693654051E+03 -0.40798115621E+03 -0.11962598035E+03  0.81053945838E+03  0.61299791508E+03 0.  0.
    5000001    2    3    3    0    0 -0.37408145841E+03 -0.19645427013E+03  0.73495781353E+02  0.50149871670E+03  0.25993867584E+03 0.  0.
        -13    1    4    4    0    0 -0.31161812946E+02 -0.12361696574E+03 -0.36931648433E+02  0.13272592296E+03  0.10566000000E+00 0. -1.
     200003    1    4    4    0    0 -0.34291964546E+03 -0.72837304391E+02  0.11042742979E+03  0.36877279374E+03  0.30000000000E+02 0. -1.
     200000    1    3    3    0    0  0.57144917903E+02 -0.21152688608E+03 -0.19312176170E+03  0.30904074168E+03  0.10100000000E+03 0. -1.
    -200001    1    1    2    0    0  0.31693654051E+03  0.40798115621E+03 -0.14598177249E+04  0.16654531469E+04  0.61300000000E+03 0. -1.
<mgrwt>
<rscale>  0 0.19068028E+04</rscale>
<asrwt>0</asrwt>
<pdfrwt beam="1">  1        2 0.28967402E+00 0.19068028E+04</pdfrwt>
<pdfrwt beam="2">  1       -2 0.64039208E-01 0.19068028E+04</pdfrwt>
<totfact> 0.16433637E+01</totfact>
</mgrwt>
</event>
<event>
 8    1  0.7583103E-052  0.1330954E+04  0.7818608E-02  0.9005372E-01
          2   -1    0    0  501    0  0.00000000000E+00  0.00000000000E+00  0.14337464740E+04  0.14337464740E+04  0.25500000000E-02 0.  1.
         -2   -1    0    0    0  501 -0.00000000000E+00 -0.00000000000E+00 -0.30888284754E+03  0.30888284755E+03  0.25500000000E-02 0. -1.
     200001    2    1    2    0    0 -0.14577160918E+03  0.20616828033E+03  0.47802708003E+03  0.81638894257E+03  0.61174038157E+03 0.  0.
    5000001    2    3    3    0    0 -0.25192768236E+03 -0.40665889453E+02  0.45651501650E+03  0.52853483347E+03  0.76300971097E+02 0.  0.
        -13    1    4    4    0    0 -0.10564620584E+03 -0.25517500915E+02  0.25559554589E+03  0.27774333098E+03  0.10566000000E+00 0. -1.
     200003    1    4    4    0    0 -0.14628147652E+03 -0.15148388538E+02  0.20091947062E+03  0.25079150249E+03  0.30000000000E+02 0. -1.
     200000    1    3    3    0    0  0.10615607319E+03  0.24683416978E+03  0.21512063522E+02  0.28785410910E+03  0.10100000000E+03 0.  1.
    -200001    1    1    2    0    0  0.14577160918E+03 -0.20616828033E+03  0.64683654643E+03  0.92624037898E+03  0.61300000000E+03 0.  1.
<mgrwt>
<rscale>  0 0.13309541E+04</rscale>
<asrwt>0</asrwt>
<pdfrwt beam="1">  1        2 0.20482093E+00 0.13309541E+04</pdfrwt>
<pdfrwt beam="2">  1       -2 0.44126120E-01 0.13309541E+04</pdfrwt>
<totfact> 0.75589349E+01</totfact>
</mgrwt>
</event>
<event>
 8    1  0.7583103E-052  0.1286908E+04  0.7818608E-02  0.9040012E-01
          2   -1    0    0  501    0  0.00000000000E+00  0.00000000000E+00  0.10681721441E+04  0.10681721441E+04  0.25500000000E-02 0.  1.
         -2   -1    0    0    0  501 -0.00000000000E+00 -0.00000000000E+00 -0.38760912894E+03  0.38760912895E+03  0.25500000000E-02 0. -1.
     200001    2    1    2    0    0 -0.38250902661E-01 -0.20847062466E+02  0.11999391568E+03  0.62485328774E+03  0.61286906426E+03 0.  0.
    5000001    2    3    3    0    0  0.12947018699E+03  0.23108059637E+03  0.16131050352E+03  0.32129432937E+03  0.83953535975E+02 0.  0.
        -13    1    4    4    0    0  0.77590824953E+01  0.30778547482E+02  0.52045477412E+02  0.60961178051E+02  0.10566000000E+00 0. -1.
     200003    1    4    4    0    0  0.12171110450E+03  0.20030204889E+03  0.10926502611E+03  0.26033315132E+03  0.30000000000E+02 0. -1.
     200000    1    3    3    0    0 -0.12950843790E+03 -0.25192765884E+03 -0.41316587841E+02  0.30355895837E+03  0.10100000000E+03 0. -1.
    -200001    1    1    2    0    0  0.38250902661E-01  0.20847062466E+02  0.56056909947E+03  0.83092798530E+03  0.61300000000E+03 0.  1.
<mgrwt>
<rscale>  0 0.12869083E+04</rscale>
<asrwt>0</asrwt>
<pdfrwt beam="1">  1        2 0.15259602E+00 0.12869083E+04</pdfrwt>
<pdfrwt beam="2">  1       -2 0.55372732E-01 0.12869083E+04</pdfrwt>
<totfact> 0.76809323E+01</totfact>
</mgrwt>
</event>
<event>
 8    1  0.7583103E-052  0.1559638E+04  0.7818608E-02  0.8845735E-01
          2   -1    0    0  501    0  0.00000000000E+00  0.00000000000E+00  0.92472186666E+03  0.92472186666E+03  0.25500000000E-02 0.  1.
         -2   -1    0    0    0  501 -0.00000000000E+00 -0.00000000000E+00 -0.65762196336E+03  0.65762196337E+03  0.25500000000E-02 0. -1.
     200001    2    1    2    0    0  0.78535914264E+02  0.47501901561E+03  0.16031266913E+03  0.79558880564E+03  0.61274010865E+03 0.  0.
    5000001    2    3    3    0    0 -0.14390040249E+03  0.35889683505E+03 -0.10870623456E+03  0.41409903333E+03  0.10073082909E+03 0.  0.
        -13    1    4    4    0    0 -0.10673244119E+02  0.20382479823E+02 -0.34723607994E+02  0.41654576458E+02  0.10566000000E+00 0. -1.
     200003    1    4    4    0    0 -0.13322715838E+03  0.33851435522E+03 -0.73982626563E+02  0.37244445687E+03  0.30000000000E+02 0. -1.
     200000    1    3    3    0    0  0.22243631676E+03  0.11612218057E+03  0.26901890369E+03  0.38148977231E+03  0.10100000000E+03 0.  1.
    -200001    1    1    2    0    0 -0.78535914264E+02 -0.47501901561E+03  0.10678723416E+03  0.78675502439E+03  0.61300000000E+03 0.  1.
<mgrwt>
<rscale>  0 0.15596377E+04</rscale>
<asrwt>0</asrwt>
<pdfrwt beam="1">  1        2 0.13210312E+00 0.15596377E+04</pdfrwt>
<pdfrwt beam="2">  1       -2 0.93945995E-01 0.15596377E+04</pdfrwt>
<totfact> 0.28903041E+01</totfact>
</mgrwt>
</event>
<event>
 8    1  0.7583103E-052  0.1695296E+04  0.7818608E-02  0.8764052E-01
         -2   -1    0    0    0  501 -0.00000000000E+00  0.00000000000E+00  0.11164376244E+04  0.11164376244E+04  0.25500000000E-02 0. -1.
          2   -1    0    0  501    0  0.00000000000E+00 -0.00000000000E+00 -0.64357134464E+03  0.64357134465E+03  0.25500000000E-02 0.  1.
     200001    2    1    2    0    0 -0.19167191259E+03 -0.32677141731E+03  0.69929577528E+03  0.10046567349E+04  0.61384272605E+03 0.  0.
    5000001    2    3    3    0    0 -0.30414296553E+03 -0.21863462357E+03  0.13155947696E+03  0.40727175987E+03  0.90875454896E+02 0.  0.
        -13    1    4    4    0    0 -0.22927202950E+03 -0.19608543085E+03  0.10320004810E+03  0.31885015414E+03  0.10566000000E+00 0. -1.
     200003    1    4    4    0    0 -0.74870936033E+02 -0.22549192722E+02  0.28359428857E+02  0.88421605730E+02  0.30000000000E+02 0. -1.
     200000    1    3    3    0    0  0.11247105294E+03 -0.10813679373E+03  0.56773629833E+03  0.59738497499E+03  0.10100000000E+03 0. -1.
    -200001    1    1    2    0    0  0.19167191259E+03  0.32677141731E+03 -0.22642949553E+03  0.75535223419E+03  0.61300000000E+03 0.  1.
<mgrwt>
<rscale>  0 0.16952962E+04</rscale>
<asrwt>0</asrwt>
<pdfrwt beam="1">  1        2 0.91938764E-01 0.16952962E+04</pdfrwt>
<pdfrwt beam="2">  1       -2 0.15949109E+00 0.16952962E+04</pdfrwt>
<totfact> 0.12089654E+01</totfact>
</mgrwt>
</event>
<event>
 8    1  0.7583103E-052  0.1698804E+04  0.7818608E-02  0.8762047E-01
          2   -1    0    0  501    0  0.00000000000E+00  0.00000000000E+00  0.20650252772E+04  0.20650252772E+04  0.25500000000E-02 0.  1.
         -2   -1    0    0    0  501 -0.00000000000E+00 -0.00000000000E+00 -0.34938266032E+03  0.34938266033E+03  0.25500000000E-02 0. -1.
     200001    2    1    2    0    0 -0.38649687843E+03 -0.28157493315E+03  0.13464006515E+04  0.15537262838E+04  0.61041491693E+03 0.  0.
    5000001    2    3    3    0    0 -0.12387319721E+03 -0.25870165131E+03  0.41053816191E+03  0.57621209759E+03  0.28496962233E+03 0.  0.
        -13    1    4    4    0    0 -0.10819554298E+03  0.14860048808E+02  0.20532802653E+03  0.23256548801E+03  0.10566000000E+00 0. -1.
     200003    1    4    4    0    0 -0.15677654226E+02 -0.27356170011E+03  0.20521013537E+03  0.34364660957E+03  0.30000000000E+02 0. -1.
     200000    1    3    3    0    0 -0.26262368122E+03 -0.22873281843E+02  0.93586248955E+03  0.97751418624E+03  0.10100000000E+03 0.  1.
    -200001    1    1    2    0    0  0.38649687843E+03  0.28157493315E+03  0.36924196544E+03  0.86068165372E+03  0.61300000000E+03 0. -1.
<mgrwt>
<rscale>  0 0.16988043E+04</rscale>
<asrwt>0</asrwt>
<pdfrwt beam="1">  1        2 0.29500361E+00 0.16988043E+04</pdfrwt>
<pdfrwt beam="2">  1       -2 0.49911809E-01 0.16988043E+04</pdfrwt>
<totfact> 0.26904566E+01</totfact>
</mgrwt>
</event>
<event>
 8    1  0.7583103E-052  0.1973415E+04  0.7818608E-02  0.8619152E-01
         -2   -1    0    0    0  501 -0.00000000000E+00  0.00000000000E+00  0.87634088716E+03  0.87634088717E+03  0.25500000000E-02 0. -1.
          2   -1    0    0  501    0  0.00000000000E+00 -0.00000000000E+00 -0.11109733424E+04  0.11109733424E+04  0.25500000000E-02 0.  1.
     200001    2    1    2    0    0 -0.56085741001E+02 -0.22021494077E+03 -0.86167022678E+03  0.10814524313E+04  0.61271816610E+03 0.  0.
    5000001    2    3    3    0    0  0.25844044646E+03 -0.52943309372E+02 -0.41855670065E+03  0.50399497117E+03  0.96056030208E+02 0.  0.
        -13    1    4    4    0    0  0.21409482155E+03 -0.64570464764E+02 -0.30812138982E+03  0.38071608787E+03  0.10566000000E+00 0. -1.
     200003    1    4    4    0    0  0.44345624902E+02  0.11627155392E+02 -0.11043531082E+03  0.12327888330E+03  0.30000000000E+02 0.  1.
     200000    1    3    3    0    0 -0.31452618746E+03 -0.16727163140E+03 -0.44311352613E+03  0.57745746017E+03  0.10100000000E+03 0.  1.
    -200001    1    1    2    0    0  0.56085741001E+02  0.22021494077E+03  0.62703777156E+03  0.90586179821E+03  0.61300000000E+03 0. -1.
<mgrwt>
<rscale>  0 0.19734147E+04</rscale>
<asrwt>0</asrwt>
<pdfrwt beam="1">  1        2 0.15871048E+00 0.19734147E+04</pdfrwt>
<pdfrwt beam="2">  1       -2 0.12519156E+00 0.19734147E+04</pdfrwt>
<totfact> 0.10746278E+01</totfact>
</mgrwt>
</event>
<event>
 8    1  0.7583103E-052  0.1867948E+04  0.7818608E-02  0.8670977E-01
         -2   -1    0    0    0  501 -0.00000000000E+00  0.00000000000E+00  0.56620079375E+03  0.56620079375E+03  0.25500000000E-02 0. -1.
          2   -1    0    0  501    0  0.00000000000E+00 -0.00000000000E+00 -0.15406334699E+04  0.15406334699E+04  0.25500000000E-02 0.  1.
     200001    2    1    2    0    0  0.56127589165E+03  0.32048531647E+03 -0.80285002964E+03  0.11996677579E+04  0.61391619511E+03 0.  0.
    5000001    2    3    3    0    0  0.15447806310E+03  0.36168840189E+03 -0.16444401219E+03  0.43485051785E+03  0.85855504677E+02 0.  0.
        -13    1    4    4    0    0  0.12663213852E+03  0.24680997491E+03 -0.13897845788E+03  0.31026744131E+03  0.10566000000E+00 0. -1.
     200003    1    4    4    0    0  0.27845924578E+02  0.11487842699E+03 -0.25465554312E+02  0.12458307653E+03  0.30000000000E+02 0.  1.
     200000    1    3    3    0    0  0.40679782856E+03 -0.41203085424E+02 -0.63840601745E+03  0.76481724005E+03  0.10100000000E+03 0.  1.
    -200001    1    1    2    0    0 -0.56127589165E+03 -0.32048531647E+03 -0.17158264653E+03  0.90716650578E+03  0.61300000000E+03 0. -1.
<mgrwt>
<rscale>  0 0.18679485E+04</rscale>
<asrwt>0</asrwt>
<pdfrwt beam="1">  1        2 0.22009049E+00 0.18679485E+04</pdfrwt>
<pdfrwt beam="2">  1       -2 0.80885828E-01 0.18679485E+04</pdfrwt>
<totfact> 0.17670489E+01</totfact>
</mgrwt>
</event>
<event>
 8    1  0.7583103E-052  0.1639494E+04  0.7818608E-02  0.8796646E-01
          2   -1    0    0  501    0  0.00000000000E+00  0.00000000000E+00  0.14146485658E+04  0.14146485658E+04  0.25500000000E-02 0.  1.
         -2   -1    0    0    0  501 -0.00000000000E+00 -0.00000000000E+00 -0.47501924927E+03  0.47501924928E+03  0.25500000000E-02 0. -1.
     200001    2    1    2    0    0 -0.25113299221E+03 -0.25865421247E+03  0.93981557330E+03  0.11785146557E+04  0.61292226305E+03 0.  0.
    5000001    2    3    3    0    0 -0.20091022295E+03 -0.44157633715E+03  0.69745195351E+03  0.85459498289E+03  0.92405509093E+02 0.  0.
        -13    1    4    4    0    0 -0.97464925295E+02 -0.18479760651E+03  0.36856619574E+03  0.42366333195E+03  0.10566000000E+00 0. -1.
     200003    1    4    4    0    0 -0.10344529765E+03 -0.25677873065E+03  0.32888575777E+03  0.43093165094E+03  0.30000000000E+02 0. -1.
     200000    1    3    3    0    0 -0.50222769259E+02  0.18292212469E+03  0.24236361979E+03  0.32391967284E+03  0.10100000000E+03 0. -1.
    -200001    1    1    2    0    0  0.25113299221E+03  0.25865421247E+03 -0.18625674250E+00  0.71115315938E+03  0.61300000000E+03 0. -1.
<mgrwt>
<rscale>  0 0.16394942E+04</rscale>
<asrwt>0</asrwt>
<pdfrwt beam="1">  1        2 0.20209265E+00 0.16394942E+04</pdfrwt>
<pdfrwt beam="2">  1       -2 0.67859895E-01 0.16394942E+04</pdfrwt>
<totfact> 0.30963539E+01</totfact>
</mgrwt>
</event>
<event>
 8    1  0.7583103E-052  0.1376406E+04  0.7818608E-02  0.8971076E-01
         -2   -1    0    0    0  501 -0.00000000000E+00  0.00000000000E+00  0.45865638961E+03  0.45865638961E+03  0.25500000000E-02 0. -1.
          2   -1    0    0  501    0  0.00000000000E+00 -0.00000000000E+00 -0.10326324739E+04  0.10326324739E+04  0.25500000000E-02 0.  1.
     200001    2    1    2    0    0  0.16645406342E+03 -0.25362146087E+03 -0.36908030014E+03  0.77729860941E+03  0.61314114166E+03 0.  0.
    5000001    2    3    3    0    0  0.98149870110E+02 -0.33809813421E+03 -0.47296946680E+03  0.59620269529E+03  0.88395655904E+02 0.  0.
        -13    1    4    4    0    0  0.71141352748E+02 -0.27786592954E+03 -0.40873548418E+03  0.49933483161E+03  0.10566000000E+00 0. -1.
     200003    1    4    4    0    0  0.27008517361E+02 -0.60232204670E+02 -0.64233982622E+02  0.96867863675E+02  0.30000000000E+02 0.  1.
     200000    1    3    3    0    0  0.68304193310E+02  0.84476673345E+02  0.10388916666E+03  0.18109591412E+03  0.10100000000E+03 0. -1.
    -200001    1    1    2    0    0 -0.16645406342E+03  0.25362146087E+03 -0.20489578420E+03  0.71399025415E+03  0.61300000000E+03 0. -1.
<mgrwt>
<rscale>  0 0.13764062E+04</rscale>
<asrwt>0</asrwt>
<pdfrwt beam="1">  1        2 0.14751892E+00 0.13764062E+04</pdfrwt>
<pdfrwt beam="2">  1       -2 0.65522342E-01 0.13764062E+04</pdfrwt>
<totfact> 0.56181905E+01</totfact>
</mgrwt>
</event>
<event>
 8    1  0.7583103E-052  0.2252368E+04  0.7818608E-02  0.8496942E-01
          2   -1    0    0  501    0  0.00000000000E+00  0.00000000000E+00  0.20788223400E+04  0.20788223400E+04  0.25500000000E-02 0.  1.
         -2   -1    0    0    0  501 -0.00000000000E+00 -0.00000000000E+00 -0.61010051106E+03  0.61010051106E+03  0.25500000000E-02 0. -1.
     200001    2    1    2    0    0  0.20377421791E+01  0.19965242142E+03  0.18367764497E+04  0.19465627998E+04  0.61277546104E+03 0.  0.
    5000001    2    3    3    0    0  0.27256729550E+03  0.20993743532E+03  0.10786638551E+04  0.11352504513E+04  0.83133733110E+02 0.  0.
        -13    1    4    4    0    0  0.17900418773E+03  0.10677820199E+03  0.56593242739E+03  0.60309502334E+03  0.10566000000E+00 0. -1.
     200003    1    4    4    0    0  0.93563107771E+02  0.10315923334E+03  0.51273142767E+03  0.53215542793E+03  0.30000000000E+02 0. -1.
     200000    1    3    3    0    0 -0.27052955332E+03 -0.10285013905E+02  0.75811259463E+03  0.81131234853E+03  0.10100000000E+03 0.  1.
    -200001    1    1    2    0    0 -0.20377421791E+01 -0.19965242142E+03 -0.36805462079E+03  0.74236005123E+03  0.61300000000E+03 0. -1.
<mgrwt>
<rscale>  0 0.22523682E+04</rscale>
<asrwt>0</asrwt>
<pdfrwt beam="1">  1        2 0.29697463E+00 0.22523682E+04</pdfrwt>
<pdfrwt beam="2">  1       -2 0.87157214E-01 0.22523682E+04</pdfrwt>
<totfact> 0.76021987E+00</totfact>
</mgrwt>
</event>
<event>
 8    1  0.7583103E-052  0.1855309E+04  0.7818608E-02  0.8677427E-01
          2   -1    0    0  501    0  0.00000000000E+00  0.00000000000E+00  0.18881178751E+04  0.18881178751E+04  0.25500000000E-02 0.  1.
         -2   -1    0    0    0  501 -0.00000000000E+00 -0.00000000000E+00 -0.45576752347E+03  0.45576752348E+03  0.25500000000E-02 0. -1.
     200001    2    1    2    0    0  0.13744358856E+03 -0.54267759342E+03  0.12393774302E+04  0.14915959766E+04  0.61270909285E+03 0.  0.
    5000001    2    3    3    0    0  0.11574869436E+03 -0.36337899853E+03  0.12209055828E+04  0.12838440483E+04  0.11046737808E+03 0.  0.
        -13    1    4    4    0    0  0.45418016834E+02 -0.89567599674E+02  0.19584222381E+03  0.22008938855E+03  0.10566000000E+00 0. -1.
     200003    1    4    4    0    0  0.70330677530E+02 -0.27381139886E+03  0.10250633589E+04  0.10637546598E+04  0.30000000000E+02 0. -1.
     200000    1    3    3    0    0  0.21694894195E+02 -0.17929859489E+03  0.18471847495E+02  0.20775192830E+03  0.10100000000E+03 0. -1.
    -200001    1    1    2    0    0 -0.13744358856E+03  0.54267759342E+03  0.19297292142E+03  0.85228942199E+03  0.61300000000E+03 0. -1.
<mgrwt>
<rscale>  0 0.18553089E+04</rscale>
<asrwt>0</asrwt>
<pdfrwt beam="1">  1        2 0.26973112E+00 0.18553089E+04</pdfrwt>
<pdfrwt beam="2">  1       -2 0.65109646E-01 0.18553089E+04</pdfrwt>
<totfact> 0.18792351E+01</totfact>
</mgrwt>
</event>
<event>
 8    1  0.7583103E-052  0.1237278E+04  0.7818608E-02  0.9080839E-01
         -2   -1    0    0    0  501 -0.00000000000E+00  0.00000000000E+00  0.22195439658E+03  0.22195439660E+03  0.25500000000E-02 0. -1.
          2   -1    0    0  501    0  0.00000000000E+00 -0.00000000000E+00 -0.17242924241E+04  0.17242924241E+04  0.25500000000E-02 0.  1.
     200001    2    1    2    0    0  0.47525040067E+02  0.19921258106E+02 -0.84734920899E+03  0.10476730406E+04  0.61397282673E+03 0.  0.
    5000001    2    3    3    0    0  0.93501686351E+01 -0.20627416039E+03 -0.56339751443E+03  0.66892344913E+03  0.29564398630E+03 0.  0.
        -13    1    4    4    0    0  0.10731184633E+03 -0.38842743526E+02 -0.60703743273E+02  0.12926541184E+03  0.10566000000E+00 0. -1.
     200003    1    4    4    0    0 -0.97961677698E+02 -0.16743141686E+03 -0.50269377115E+03  0.53965803729E+03  0.30000000000E+02 0. -1.
     200000    1    3    3    0    0  0.38174871432E+02  0.22619541850E+03 -0.28395169456E+03  0.37874959142E+03  0.10100000000E+03 0. -1.
    -200001    1    1    2    0    0 -0.47525040067E+02 -0.19921258106E+02 -0.65498881850E+03  0.89857378012E+03  0.61300000000E+03 0. -1.
<mgrwt>
<rscale>  0 0.12372781E+04</rscale>
<asrwt>0</asrwt>
<pdfrwt beam="1">  1        2 0.24632748E+00 0.12372781E+04</pdfrwt>
<pdfrwt beam="2">  1       -2 0.31707772E-01 0.12372781E+04</pdfrwt>
<totfact> 0.10131956E+02</totfact>
</mgrwt>
</event>
<event>
 8    1  0.7583103E-052  0.1450382E+04  0.7818608E-02  0.8918136E-01
          2   -1    0    0  501    0  0.00000000000E+00  0.00000000000E+00  0.22390952096E+04  0.22390952097E+04  0.25500000000E-02 0.  1.
         -2   -1    0    0    0  501 -0.00000000000E+00 -0.00000000000E+00 -0.23487242386E+03  0.23487242387E+03  0.25500000000E-02 0. -1.
     200001    2    1    2    0    0  0.11398087643E+03 -0.32445954382E+03  0.13081161608E+04  0.14847259698E+04  0.61235421097E+03 0.  0.
    5000001    2    3    3    0    0 -0.21760377465E+03 -0.16947416091E+03  0.80113226496E+03  0.85132047543E+03  0.82829656328E+02 0.  0.
        -13    1    4    4    0    0 -0.10325298954E+03 -0.52357512046E+02  0.24785463992E+03  0.27355881015E+03  0.10566000000E+00 0. -1.
     200003    1    4    4    0    0 -0.11435078511E+03 -0.11711664886E+03  0.55327762504E+03  0.57776166528E+03  0.30000000000E+02 0. -1.
     200000    1    3    3    0    0  0.33158465107E+03 -0.15498538291E+03  0.50698389580E+03  0.63340549440E+03  0.10100000000E+03 0.  1.
    -200001    1    1    2    0    0 -0.11398087643E+03  0.32445954382E+03  0.69610662503E+03  0.98924166369E+03  0.61300000000E+03 0. -1.
<mgrwt>
<rscale>  0 0.14503816E+04</rscale>
<asrwt>0</asrwt>
<pdfrwt beam="1">  1        2 0.31987074E+00 0.14503816E+04</pdfrwt>
<pdfrwt beam="2">  1       -2 0.33553204E-01 0.14503816E+04</pdfrwt>
<totfact> 0.48697136E+01</totfact>
</mgrwt>
</event>
<event>
 8    1  0.7583103E-052  0.1361161E+04  0.7818608E-02  0.8982422E-01
          2   -1    0    0  501    0  0.00000000000E+00  0.00000000000E+00  0.11040955534E+04  0.11040955534E+04  0.25500000000E-02 0.  1.
         -2   -1    0    0    0  501 -0.00000000000E+00 -0.00000000000E+00 -0.41951979507E+03  0.41951979508E+03  0.25500000000E-02 0. -1.
     200001    2    1    2    0    0 -0.24805626974E+03 -0.10460825578E+03  0.48141480619E+03  0.82395959553E+03  0.61210652611E+03 0.  0.
    5000001    2    3    3    0    0 -0.78176225773E+02  0.24141909759E+03  0.20056839390E+03  0.33644563069E+03  0.92592001934E+02 0.  0.
        -13    1    4    4    0    0 -0.83582741425E+02  0.20836883844E+03  0.17553663309E+03  0.28498555791E+03  0.10566000000E+00 0. -1.
     200003    1    4    4    0    0  0.54065156525E+01  0.33050259147E+02  0.25031760818E+02  0.51460072783E+02  0.30000000000E+02 0.  1.
     200000    1    3    3    0    0 -0.16988004397E+03 -0.34602735336E+03  0.28084641229E+03  0.48751396484E+03  0.10100000000E+03 0. -1.
    -200001    1    1    2    0    0  0.24805626974E+03  0.10460825578E+03  0.20316095210E+03  0.69965575292E+03  0.61300000000E+03 0.  1.
<mgrwt>
<rscale>  0 0.13611612E+04</rscale>
<asrwt>0</asrwt>
<pdfrwt beam="1">  1        2 0.15772793E+00 0.13611612E+04</pdfrwt>
<pdfrwt beam="2">  1       -2 0.59931401E-01 0.13611612E+04</pdfrwt>
<totfact> 0.61631667E+01</totfact>
</mgrwt>
</event>
<event>
 8    1  0.7583103E-052  0.1557359E+04  0.7818608E-02  0.8847181E-01
         -2   -1    0    0    0  501 -0.00000000000E+00  0.00000000000E+00  0.57213209338E+03  0.57213209338E+03  0.25500000000E-02 0. -1.
          2   -1    0    0  501    0  0.00000000000E+00 -0.00000000000E+00 -0.10597934583E+04  0.10597934583E+04  0.25500000000E-02 0.  1.
     200001    2    1    2    0    0 -0.29970025171E+03 -0.34221893055E+03 -0.82589294256E+02  0.76775750106E+03  0.61294090384E+03 0.  0.
    5000001    2    3    3    0    0 -0.36399699684E+03 -0.41357486705E+03 -0.19388203720E+03  0.58939602613E+03  0.79116666409E+02 0.  0.
        -13    1    4    4    0    0 -0.28538449148E+03 -0.34512701150E+03 -0.14845380533E+03  0.47180028140E+03  0.10566000000E+00 0. -1.
     200003    1    4    4    0    0 -0.78612505355E+02 -0.68447855545E+02 -0.45428231872E+02  0.11759574473E+03  0.30000000000E+02 0. -1.
     200000    1    3    3    0    0  0.64296745129E+02  0.71355936494E+02  0.11129274295E+03  0.17836147493E+03  0.10100000000E+03 0. -1.
    -200001    1    1    2    0    0  0.29970025171E+03  0.34221893055E+03 -0.40507207069E+03  0.86416805065E+03  0.61300000000E+03 0.  1.
<mgrwt>
<rscale>  0 0.15573591E+04</rscale>
<asrwt>0</asrwt>
<pdfrwt beam="1">  1        2 0.15139906E+00 0.15573591E+04</pdfrwt>
<pdfrwt beam="2">  1       -2 0.81733157E-01 0.15573591E+04</pdfrwt>
<totfact> 0.32790354E+01</totfact>
</mgrwt>
</event>
<event>
 8    1  0.7583103E-052  0.2144203E+04  0.7818608E-02  0.8542018E-01
         -2   -1    0    0    0  501 -0.00000000000E+00  0.00000000000E+00  0.86694589685E+03  0.86694589685E+03  0.25500000000E-02 0. -1.
          2   -1    0    0  501    0  0.00000000000E+00 -0.00000000000E+00 -0.13258060610E+04  0.13258060610E+04  0.25500000000E-02 0.  1.
     200001    2    1    2    0    0 -0.60922277704E+03 -0.29508792207E+03 -0.80377891683E+03  0.12165515585E+04  0.61295013957E+03 0.  0.
    5000001    2    3    3    0    0  0.47564057754E+01  0.12464810923E+03 -0.22609293036E+03  0.26941330470E+03  0.76848819525E+02 0.  0.
        -13    1    4    4    0    0 -0.69885899643E+01  0.45336586273E+02 -0.14274523231E+03  0.14993484903E+03  0.10566000000E+00 0. -1.
     200003    1    4    4    0    0  0.11744995740E+02  0.79311522953E+02 -0.83347698052E+02  0.11947845567E+03  0.30000000000E+02 0. -1.
     200000    1    3    3    0    0 -0.61397918281E+03 -0.41973603130E+03 -0.57768598647E+03  0.94713825383E+03  0.10100000000E+03 0.  1.
    -200001    1    1    2    0    0  0.60922277704E+03  0.29508792207E+03  0.34491875263E+03  0.97620039937E+03  0.61300000000E+03 0. -1.
<mgrwt>
<rscale>  0 0.21442035E+04</rscale>
<asrwt>0</asrwt>
<pdfrwt beam="1">  1        2 0.18940087E+00 0.21442035E+04</pdfrwt>
<pdfrwt beam="2">  1       -2 0.12384941E+00 0.21442035E+04</pdfrwt>
<totfact> 0.82248508E+00</totfact>
</mgrwt>
</event>
<event>
 8    1  0.7583103E-052  0.1528646E+04  0.7818608E-02  0.8865624E-01
         -2   -1    0    0    0  501 -0.00000000000E+00  0.00000000000E+00  0.16466881126E+04  0.16466881126E+04  0.25500000000E-02 0. -1.
          2   -1    0    0  501    0  0.00000000000E+00 -0.00000000000E+00 -0.35476663953E+03  0.35476663953E+03  0.25500000000E-02 0.  1.
     200001    2    1    2    0    0 -0.20892904594E+03 -0.40477220128E+03  0.60482820371E+03  0.97414854560E+03  0.61290811035E+03 0.  0.
    5000001    2    3    3    0    0  0.10308389995E+03 -0.40946084817E+03  0.29152695187E+03  0.52057083868E+03  0.87872394979E+02 0.  0.
        -13    1    4    4    0    0  0.52398531135E+02 -0.75882625228E+02  0.54153576374E+02  0.10694110470E+03  0.10566000000E+00 0. -1.
     200003    1    4    4    0    0  0.50685368818E+02 -0.33357822294E+03  0.23737337550E+03  0.41362973398E+03  0.30000000000E+02 0. -1.
     200000    1    3    3    0    0 -0.31201294589E+03  0.46886468900E+01  0.31330125184E+03  0.45357770693E+03  0.10100000000E+03 0.  1.
    -200001    1    1    2    0    0  0.20892904594E+03  0.40477220128E+03  0.68709326935E+03  0.10273062065E+04  0.61300000000E+03 0. -1.
<mgrwt>
<rscale>  0 0.15286465E+04</rscale>
<asrwt>0</asrwt>
<pdfrwt beam="1">  1        2 0.50680950E-01 0.15286465E+04</pdfrwt>
<pdfrwt beam="2">  1       -2 0.23524115E+00 0.15286465E+04</pdfrwt>
<totfact> 0.75770629E+00</totfact>
</mgrwt>
</event>
<event>
 8    1  0.7583103E-052  0.1293395E+04  0.7818608E-02  0.9034819E-01
          2   -1    0    0  501    0  0.00000000000E+00  0.00000000000E+00  0.33436392098E+03  0.33436392099E+03  0.25500000000E-02 0.  1.
         -2   -1    0    0    0  501 -0.00000000000E+00 -0.00000000000E+00 -0.12507864102E+04  0.12507864102E+04  0.25500000000E-02 0. -1.
     200001    2    1    2    0    0  0.10503185847E+03 -0.11463766402E+03 -0.62362169766E+03  0.88824661557E+03  0.61311054711E+03 0.  0.
    5000001    2    3    3    0    0  0.34662207386E+03 -0.52474483479E+02 -0.36384508899E+03  0.51419450744E+03  0.95458416091E+02 0.  0.
        -13    1    4    4    0    0  0.26424571111E+03 -0.77966257661E+01 -0.25199523210E+03  0.36522348142E+03  0.10566000000E+00 0. -1.
     200003    1    4    4    0    0  0.82376362745E+02 -0.44677857713E+02 -0.11184985689E+03  0.14897102602E+03  0.30000000000E+02 0. -1.
     200000    1    3    3    0    0 -0.24159021539E+03 -0.62163180541E+02 -0.25977660867E+03  0.37405210813E+03  0.10100000000E+03 0. -1.
    -200001    1    1    2    0    0 -0.10503185847E+03  0.11463766402E+03 -0.29280079155E+03  0.69690371561E+03  0.61300000000E+03 0.  1.
<mgrwt>
<rscale>  0 0.12933953E+04</rscale>
<asrwt>0</asrwt>
<pdfrwt beam="1">  1        2 0.47766275E-01 0.12933953E+04</pdfrwt>
<pdfrwt beam="2">  1       -2 0.17868377E+00 0.12933953E+04</pdfrwt>
<totfact> 0.19195377E+01</totfact>
</mgrwt>
</event>
<event>
 8    1  0.7583103E-052  0.1876555E+04  0.7818608E-02  0.8666615E-01
          2   -1    0    0  501    0  0.00000000000E+00  0.00000000000E+00  0.31184699705E+04  0.31184699705E+04  0.25500000000E-02 0.  1.
         -2   -1    0    0    0  501 -0.00000000000E+00 -0.00000000000E+00 -0.28230673681E+03  0.28230673682E+03  0.25500000000E-02 0. -1.
     200001    2    1    2    0    0 -0.47839467006E+03  0.20597446824E+03  0.54304234137E+03  0.97066161360E+03  0.61319005348E+03 0.  0.
    5000001    2    3    3    0    0 -0.12688456887E+03  0.13648024156E+03  0.41483489747E+03  0.57692699809E+03  0.35500735036E+03 0.  0.
        -13    1    4    4    0    0  0.68677487141E+01  0.19099719272E+03  0.37999372894E+03  0.42534966651E+03  0.10566000000E+00 0. -1.
     200003    1    4    4    0    0 -0.13375231759E+03 -0.54516951161E+02  0.34841168527E+02  0.15157733158E+03  0.30000000000E+02 0. -1.
     200000    1    3    3    0    0 -0.35151010119E+03  0.69494226683E+02  0.12820744390E+03  0.39373461551E+03  0.10100000000E+03 0. -1.
    -200001    1    1    2    0    0  0.47839467006E+03 -0.20597446824E+03  0.22931208923E+04  0.24301150937E+04  0.61300000000E+03 0.  1.
<mgrwt>
<rscale>  0 0.18765554E+04</rscale>
<asrwt>0</asrwt>
<pdfrwt beam="1">  1        2 0.44549569E+00 0.18765554E+04</pdfrwt>
<pdfrwt beam="2">  1       -2 0.40329536E-01 0.18765554E+04</pdfrwt>
<totfact> 0.11094755E+01</totfact>
</mgrwt>
</event>
<event>
 8    1  0.7583103E-052  0.2630947E+04  0.7818608E-02  0.8357765E-01
         -2   -1    0    0    0  501 -0.00000000000E+00  0.00000000000E+00  0.51081015019E+03  0.51081015020E+03  0.25500000000E-02 0. -1.
          2   -1    0    0  501    0  0.00000000000E+00 -0.00000000000E+00 -0.33876982436E+04  0.33876982436E+04  0.25500000000E-02 0.  1.
     200001    2    1    2    0    0 -0.25393450501E+03  0.67913620055E+03 -0.89683645082E+02  0.95402433908E+03  0.61352308157E+03 0.  0.
    5000001    2    3    3    0    0 -0.16238361900E+03  0.48565014839E+03 -0.33252811203E+03  0.61491837889E+03  0.72973701124E+02 0.  0.
        -13    1    4    4    0    0 -0.40581982941E+02  0.21671406225E+03 -0.13920223629E+03  0.26074730271E+03  0.10566000000E+00 0. -1.
     200003    1    4    4    0    0 -0.12180163606E+03  0.26893608614E+03 -0.19332587573E+03  0.35417107618E+03  0.30000000000E+02 0. -1.
     200000    1    3    3    0    0 -0.91550886016E+02  0.19348605216E+03  0.24284446694E+03  0.33910596019E+03  0.10100000000E+03 0. -1.
    -200001    1    1    2    0    0  0.25393450501E+03 -0.67913620055E+03 -0.27872044483E+04  0.29444840547E+04  0.61300000000E+03 0.  1.
<mgrwt>
<rscale>  0 0.26309471E+04</rscale>
<asrwt>0</asrwt>
<pdfrwt beam="1">  1        2 0.48395688E+00 0.26309471E+04</pdfrwt>
<pdfrwt beam="2">  1       -2 0.72972881E-01 0.26309471E+04</pdfrwt>
<totfact> 0.21163045E+00</totfact>
</mgrwt>
</event>
<event>
 8    1  0.7583103E-052  0.2111475E+04  0.7818608E-02  0.8556205E-01
          2   -1    0    0  501    0  0.00000000000E+00  0.00000000000E+00  0.55649707446E+03  0.55649707446E+03  0.25500000000E-02 0.  1.
         -2   -1    0    0    0  501 -0.00000000000E+00 -0.00000000000E+00 -0.20028533880E+04  0.20028533880E+04  0.25500000000E-02 0. -1.
     200001    2    1    2    0    0  0.52125483405E+03  0.68392206923E+03 -0.69901041699E+03  0.12656152160E+04  0.61131850390E+03 0.  0.
    5000001    2    3    3    0    0  0.56523292960E+02  0.32444012938E+03 -0.57558825948E+01  0.35128184148E+03  0.12210455264E+03 0.  0.
        -13    1    4    4    0    0 -0.27213507926E+02  0.17457363709E+03  0.40830730162E+01  0.17672920650E+03  0.10566000000E+00 0. -1.
     200003    1    4    4    0    0  0.83736800886E+02  0.14986649228E+03 -0.98389556110E+01  0.17455263498E+03  0.30000000000E+02 0. -1.
     200000    1    3    3    0    0  0.46473154109E+03  0.35948193985E+03 -0.69325453439E+03  0.91433337455E+03  0.10100000000E+03 0. -1.
    -200001    1    1    2    0    0 -0.52125483405E+03 -0.68392206923E+03 -0.74734589660E+03  0.12937352465E+04  0.61300000000E+03 0.  1.
<mgrwt>
<rscale>  0 0.21114754E+04</rscale>
<asrwt>0</asrwt>
<pdfrwt beam="1">  1        2 0.79499583E-01 0.21114754E+04</pdfrwt>
<pdfrwt beam="2">  1       -2 0.28612191E+00 0.21114754E+04</pdfrwt>
<totfact> 0.21184006E+00</totfact>
</mgrwt>
</event>
<event>
 8    1  0.7583103E-052  0.1994062E+04  0.7818608E-02  0.8609402E-01
         -2   -1    0    0    0  501 -0.00000000000E+00  0.00000000000E+00  0.36474530140E+03  0.36474530141E+03  0.25500000000E-02 0. -1.
          2   -1    0    0  501    0  0.00000000000E+00 -0.00000000000E+00 -0.27253827133E+04  0.27253827133E+04  0.25500000000E-02 0.  1.
     200001    2    1    2    0    0  0.60468553436E+03 -0.25865400991E+03 -0.18485356099E+04  0.20554475095E+04  0.61256352392E+03 0.  0.
    5000001    2    3    3    0    0 -0.65905374247E+02 -0.13644411523E+03 -0.65979923591E+03  0.68143055474E+03  0.77794950276E+02 0.  0.
        -13    1    4    4    0    0 -0.36014949595E+02 -0.29543096573E+02 -0.30304219437E+03  0.30660145773E+03  0.10566000000E+00 0. -1.
     200003    1    4    4    0    0 -0.29890424652E+02 -0.10690101866E+03 -0.35675704154E+03  0.37482909701E+03  0.30000000000E+02 0.  1.
     200000    1    3    3    0    0  0.67059090860E+03 -0.12220989468E+03 -0.11887363740E+04  0.13740169548E+04  0.10100000000E+03 0.  1.
    -200001    1    1    2    0    0 -0.60468553436E+03  0.25865400991E+03 -0.51210180200E+03  0.10346805052E+04  0.61300000000E+03 0. -1.
<mgrwt>
<rscale>  0 0.19940617E+04</rscale>
<asrwt>0</asrwt>
<pdfrwt beam="1">  1        2 0.38934038E+00 0.19940617E+04</pdfrwt>
<pdfrwt beam="2">  1       -2 0.52106473E-01 0.19940617E+04</pdfrwt>
<totfact> 0.10840312E+01</totfact>
</mgrwt>
</event>
<event>
 8    1  0.7583103E-052  0.1592561E+04  0.7818608E-02  0.8825131E-01
          2   -1    0    0  501    0  0.00000000000E+00  0.00000000000E+00  0.16263076492E+04  0.16263076492E+04  0.25500000000E-02 0.  1.
         -2   -1    0    0    0  501 -0.00000000000E+00 -0.00000000000E+00 -0.38987841773E+03  0.38987841774E+03  0.25500000000E-02 0. -1.
     200001    2    1    2    0    0 -0.13102472086E+03 -0.44759141292E+03  0.87480355904E+03  0.11652761555E+04  0.61243914094E+03 0.  0.
    5000001    2    3    3    0    0  0.18340878165E+03 -0.31740871156E+03  0.26493024101E+03  0.45961162668E+03  0.81656251574E+02 0.  0.
        -13    1    4    4    0    0  0.10183978668E+03 -0.14805515630E+03  0.89519347520E+02  0.20076203875E+03  0.10566000000E+00 0. -1.
     200003    1    4    4    0    0  0.81568994972E+02 -0.16935355526E+03  0.17541089349E+03  0.25884958793E+03  0.30000000000E+02 0.  1.
     200000    1    3    3    0    0 -0.31443350251E+03 -0.13018270136E+03  0.60987331803E+03  0.70566452885E+03  0.10100000000E+03 0.  1.
    -200001    1    1    2    0    0  0.13102472086E+03  0.44759141292E+03  0.36162567247E+03  0.85090991144E+03  0.61300000000E+03 0. -1.
<mgrwt>
<rscale>  0 0.15925605E+04</rscale>
<asrwt>0</asrwt>
<pdfrwt beam="1">  1        2 0.23232966E+00 0.15925605E+04</pdfrwt>
<pdfrwt beam="2">  1       -2 0.55696917E-01 0.15925605E+04</pdfrwt>
<totfact> 0.36488712E+01</totfact>
</mgrwt>
</event>
<event>
 8    1  0.7583103E-052  0.1736356E+04  0.7818608E-02  0.8740896E-01
         -2   -1    0    0    0  501 -0.00000000000E+00  0.00000000000E+00  0.15617143771E+04  0.15617143771E+04  0.25500000000E-02 0. -1.
          2   -1    0    0  501    0  0.00000000000E+00 -0.00000000000E+00 -0.48263206587E+03  0.48263206588E+03  0.25500000000E-02 0.  1.
     200001    2    1    2    0    0  0.47219273601E+02 -0.13070985823E+02  0.12610719939E+04  0.14030276805E+04  0.61301189880E+03 0.  0.
    5000001    2    3    3    0    0  0.42242109400E+02  0.26554608852E+03  0.84050857997E+03  0.88851156667E+03  0.10343601978E+03 0.  0.
        -13    1    4    4    0    0  0.66322641798E+02  0.11825549586E+03  0.37649973930E+03  0.40016886433E+03  0.10566000000E+00 0. -1.
     200003    1    4    4    0    0 -0.24080532398E+02  0.14729059265E+03  0.46400884066E+03  0.48834270235E+03  0.30000000000E+02 0. -1.
     200000    1    3    3    0    0  0.49771642006E+01 -0.27861707434E+03  0.42056341389E+03  0.51451611382E+03  0.10100000000E+03 0.  1.
    -200001    1    1    2    0    0 -0.47219273601E+02  0.13070985823E+02 -0.18198968267E+03  0.64131876245E+03  0.61300000000E+03 0.  1.
<mgrwt>
<rscale>  0 0.17363565E+04</rscale>
<asrwt>0</asrwt>
<pdfrwt beam="1">  1        2 0.68947437E-01 0.17363565E+04</pdfrwt>
<pdfrwt beam="2">  1       -2 0.22310206E+00 0.17363565E+04</pdfrwt>
<totfact> 0.62801961E+00</totfact>
</mgrwt>
</event>
<event>
 8    1  0.7583103E-052  0.1401594E+04  0.7818608E-02  0.8952666E-01
         -2   -1    0    0    0  501 -0.00000000000E+00  0.00000000000E+00  0.24881914920E+03  0.24881914921E+03  0.25500000000E-02 0. -1.
          2   -1    0    0  501    0  0.00000000000E+00 -0.00000000000E+00 -0.19737880975E+04  0.19737880975E+04  0.25500000000E-02 0.  1.
     200001    2    1    2    0    0 -0.13502009951E+03  0.23816216861E+03 -0.11851919676E+04  0.13611666889E+04  0.61085440894E+03 0.  0.
    5000001    2    3    3    0    0  0.35428169130E+02  0.40384358937E+03 -0.73980596425E+03  0.84631463490E+03  0.67755417998E+02 0.  0.
        -13    1    4    4    0    0  0.51734720358E+01  0.11776339833E+03 -0.16425657780E+03  0.20217620363E+03  0.10566000000E+00 0. -1.
     200003    1    4    4    0    0  0.30254697094E+02  0.28608019104E+03 -0.57554938645E+03  0.64413843128E+03  0.30000000000E+02 0. -1.
     200000    1    3    3    0    0 -0.17044826864E+03 -0.16568142075E+03 -0.44538600339E+03  0.51485205397E+03  0.10100000000E+03 0.  1.
    -200001    1    1    2    0    0  0.13502009951E+03 -0.23816216861E+03 -0.53977698067E+03  0.86144055784E+03  0.61300000000E+03 0.  1.
<mgrwt>
<rscale>  0 0.14015938E+04</rscale>
<asrwt>0</asrwt>
<pdfrwt beam="1">  1        2 0.28196972E+00 0.14015938E+04</pdfrwt>
<pdfrwt beam="2">  1       -2 0.35545594E-01 0.14015938E+04</pdfrwt>
<totfact> 0.59959772E+01</totfact>
</mgrwt>
</event>
<event>
 8    1  0.7583103E-052  0.1416878E+04  0.7818608E-02  0.8941691E-01
         -2   -1    0    0    0  501 -0.00000000000E+00  0.00000000000E+00  0.50222910639E+03  0.50222910639E+03  0.25500000000E-02 0. -1.
          2   -1    0    0  501    0  0.00000000000E+00 -0.00000000000E+00 -0.99931606382E+03  0.99931606382E+03  0.25500000000E-02 0.  1.
     200001    2    1    2    0    0 -0.24318972372E+03 -0.25781229421E+03 -0.21406160305E+03  0.73899630490E+03  0.61211497939E+03 0.  0.
    5000001    2    3    3    0    0 -0.18548637425E+03 -0.15312042750E+03 -0.39647700371E+03  0.49864980109E+03  0.18332089162E+03 0.  0.
        -13    1    4    4    0    0 -0.11408010263E+02  0.52714723415E+01 -0.17060939754E+03  0.17107164818E+03  0.10566000000E+00 0. -1.
     200003    1    4    4    0    0 -0.17407836399E+03 -0.15839189984E+03 -0.22586760617E+03  0.32757815291E+03  0.30000000000E+02 0. -1.
     200000    1    3    3    0    0 -0.57703349464E+02 -0.10469186671E+03  0.18241540066E+03  0.24034650381E+03  0.10100000000E+03 0. -1.
    -200001    1    1    2    0    0  0.24318972372E+03  0.25781229421E+03 -0.28302535439E+03  0.76254886532E+03  0.61300000000E+03 0.  1.
<mgrwt>
<rscale>  0 0.14168777E+04</rscale>
<asrwt>0</asrwt>
<pdfrwt beam="1">  1        2 0.14275944E+00 0.14168777E+04</pdfrwt>
<pdfrwt beam="2">  1       -2 0.71747015E-01 0.14168777E+04</pdfrwt>
<totfact> 0.48209846E+01</totfact>
</mgrwt>
</event>
<event>
 8    1  0.7583103E-052  0.2088234E+04  0.7818608E-02  0.8566444E-01
         -2   -1    0    0    0  501 -0.00000000000E+00  0.00000000000E+00  0.52847297565E+03  0.52847297565E+03  0.25500000000E-02 0. -1.
          2   -1    0    0  501    0  0.00000000000E+00 -0.00000000000E+00 -0.20628880614E+04  0.20628880614E+04  0.25500000000E-02 0.  1.
     200001    2    1    2    0    0 -0.63841217639E+03 -0.46242738946E+03 -0.11454150427E+04  0.15196804731E+04  0.61322420287E+03 0.  0.
    5000001    2    3    3    0    0 -0.18890180827E+03 -0.28437305523E+03 -0.90281402548E+03  0.96939039462E+03  0.89959128832E+02 0.  0.
        -13    1    4    4    0    0 -0.11770612007E+03 -0.10927084847E+03 -0.37488654750E+03  0.40784161593E+03  0.10566000000E+00 0. -1.
     200003    1    4    4    0    0 -0.71195688193E+02 -0.17510220676E+03 -0.52792747799E+03  0.56154877869E+03  0.30000000000E+02 0. -1.
     200000    1    3    3    0    0 -0.44951036812E+03 -0.17805433423E+03 -0.24260101720E+03  0.55029007853E+03  0.10100000000E+03 0. -1.
    -200001    1    1    2    0    0  0.63841217639E+03  0.46242738946E+03 -0.38900004302E+03  0.10716805639E+04  0.61300000000E+03 0. -1.
<mgrwt>
<rscale>  0 0.20882343E+04</rscale>
<asrwt>0</asrwt>
<pdfrwt beam="1">  1        2 0.29469829E+00 0.20882343E+04</pdfrwt>
<pdfrwt beam="2">  1       -2 0.75496140E-01 0.20882343E+04</pdfrwt>
<totfact> 0.10851450E+01</totfact>
</mgrwt>
</event>
<event>
 8    1  0.7583103E-052  0.1463172E+04  0.7818608E-02  0.8909319E-01
          2   -1    0    0  501    0  0.00000000000E+00  0.00000000000E+00  0.87867295194E+03  0.87867295194E+03  0.25500000000E-02 0.  1.
         -2   -1    0    0    0  501 -0.00000000000E+00 -0.00000000000E+00 -0.60912122680E+03  0.60912122680E+03  0.25500000000E-02 0. -1.
     200001    2    1    2    0    0 -0.22331923504E+03  0.22434902223E+03 -0.11279144522E+03  0.69902344879E+03  0.61295016708E+03 0.  0.
    5000001    2    3    3    0    0 -0.38549364159E+03  0.63278246365E+02 -0.18374226723E+03  0.43925556755E+03  0.81084824024E+02 0.  0.
        -13    1    4    4    0    0 -0.20694089448E+03 -0.72210137948E+00 -0.96099621641E+02  0.22816705214E+03  0.10566000000E+00 0. -1.
     200003    1    4    4    0    0 -0.17855274711E+03  0.64000347745E+02 -0.87642645592E+02  0.21108851541E+03  0.30000000000E+02 0. -1.
     200000    1    3    3    0    0  0.16217440655E+03  0.16107077586E+03  0.70950822018E+02  0.25976788123E+03  0.10100000000E+03 0. -1.
    -200001    1    1    2    0    0  0.22331923504E+03 -0.22434902223E+03  0.38234317036E+03  0.78877072995E+03  0.61300000000E+03 0. -1.
<mgrwt>
<rscale>  0 0.14631724E+04</rscale>
<asrwt>0</asrwt>
<pdfrwt beam="1">  1        2 0.12552471E+00 0.14631724E+04</pdfrwt>
<pdfrwt beam="2">  1       -2 0.87017319E-01 0.14631724E+04</pdfrwt>
<totfact> 0.37239645E+01</totfact>
</mgrwt>
</event>
<event>
 8    1  0.7583103E-052  0.1722207E+04  0.7818608E-02  0.8748799E-01
          2   -1    0    0  501    0  0.00000000000E+00  0.00000000000E+00  0.29780700697E+04  0.29780700697E+04  0.25500000000E-02 0.  1.
         -2   -1    0    0    0  501 -0.00000000000E+00 -0.00000000000E+00 -0.24898659143E+03  0.24898659145E+03  0.25500000000E-02 0. -1.
     200001    2    1    2    0    0  0.93444187679E+02  0.23178805992E+03  0.23964623939E+04  0.24862035673E+04  0.61295893140E+03 0.  0.
    5000001    2    3    3    0    0 -0.13020007925E+03  0.28208777522E+03  0.68983763087E+03  0.76129316342E+03  0.84650753983E+02 0.  0.
        -13    1    4    4    0    0 -0.11004826288E+03  0.16147153553E+03  0.39486327622E+03  0.44056860422E+03  0.10566000000E+00 0. -1.
     200003    1    4    4    0    0 -0.20151816372E+02  0.12061623969E+03  0.29497435464E+03  0.32072455921E+03  0.30000000000E+02 0. -1.
     200000    1    3    3    0    0  0.22364426693E+03 -0.50299715300E+02  0.17066247631E+04  0.17249104039E+04  0.10100000000E+03 0.  1.
    -200001    1    1    2    0    0 -0.93444187679E+02 -0.23178805992E+03  0.33262108434E+03  0.74085309386E+03  0.61300000000E+03 0.  1.
<mgrwt>
<rscale>  0 0.17222073E+04</rscale>
<asrwt>0</asrwt>
<pdfrwt beam="1">  1        2 0.42543857E+00 0.17222073E+04</pdfrwt>
<pdfrwt beam="2">  1       -2 0.35569514E-01 0.17222073E+04</pdfrwt>
<totfact> 0.17204032E+01</totfact>
</mgrwt>
</event>
<event>
 8    1  0.7583103E-052  0.1713851E+04  0.7818608E-02  0.8753504E-01
         -2   -1    0    0    0  501 -0.00000000000E+00  0.00000000000E+00  0.60266737679E+03  0.60266737679E+03  0.25500000000E-02 0. -1.
          2   -1    0    0  501    0  0.00000000000E+00 -0.00000000000E+00 -0.12184522591E+04  0.12184522591E+04  0.25500000000E-02 0.  1.
     200001    2    1    2    0    0  0.38650289776E+03 -0.42616683540E+03 -0.13365632511E+03  0.85198620482E+03  0.61401450992E+03 0.  0.
    5000001    2    3    3    0    0  0.50310761661E+03 -0.28685588776E+03  0.14670319825E+02  0.59663156086E+03  0.14265492248E+03 0.  0.
        -13    1    4    4    0    0  0.23795492491E+03 -0.11326656705E+03  0.71946963326E+02  0.27318169448E+03  0.10566000000E+00 0. -1.
     200003    1    4    4    0    0  0.26515269170E+03 -0.17358932070E+03 -0.57276643501E+02  0.32344986639E+03  0.30000000000E+02 0. -1.
     200000    1    3    3    0    0 -0.11660471885E+03 -0.13931094765E+03 -0.14832664494E+03  0.25535464396E+03  0.10100000000E+03 0.  1.
    -200001    1    1    2    0    0 -0.38650289776E+03  0.42616683540E+03 -0.48212855721E+03  0.96913343109E+03  0.61300000000E+03 0.  1.
<mgrwt>
<rscale>  0 0.17138511E+04</rscale>
<asrwt>0</asrwt>
<pdfrwt beam="1">  1        2 0.17406461E+00 0.17138511E+04</pdfrwt>
<pdfrwt beam="2">  1       -2 0.86095339E-01 0.17138511E+04</pdfrwt>
<totfact> 0.23269527E+01</totfact>
</mgrwt>
</event>
<event>
 8    1  0.7583103E-052  0.1775074E+04  0.7818608E-02  0.8719668E-01
          2   -1    0    0  501    0  0.00000000000E+00  0.00000000000E+00  0.19678765528E+04  0.19678765528E+04  0.25500000000E-02 0.  1.
         -2   -1    0    0    0  501 -0.00000000000E+00 -0.00000000000E+00 -0.40029024399E+03  0.40029024400E+03  0.25500000000E-02 0. -1.
     200001    2    1    2    0    0  0.40038964242E+03 -0.29665165916E+03  0.13236199578E+04  0.15413641281E+04  0.61279646693E+03 0.  0.
    5000001    2    3    3    0    0 -0.27666989196E+02 -0.20634134270E+03  0.89018921558E+03  0.91730352086E+03  0.75277472429E+02 0.  0.
        -13    1    4    4    0    0  0.12595532997E+02 -0.11264042483E+03  0.51634967387E+03  0.52864308340E+03  0.10566000000E+00 0. -1.
     200003    1    4    4    0    0 -0.40262522194E+02 -0.93700917869E+02  0.37383954171E+03  0.38866043746E+03  0.30000000000E+02 0. -1.
     200000    1    3    3    0    0  0.42805663162E+03 -0.90310316465E+02  0.43343074223E+03  0.62406060719E+03  0.10100000000E+03 0.  1.
    -200001    1    1    2    0    0 -0.40038964242E+03  0.29665165916E+03  0.24396635101E+03  0.82680266876E+03  0.61300000000E+03 0. -1.
<mgrwt>
<rscale>  0 0.17750738E+04</rscale>
<asrwt>0</asrwt>
<pdfrwt beam="1">  1        2 0.28112522E+00 0.17750738E+04</pdfrwt>
<pdfrwt beam="2">  1       -2 0.57184321E-01 0.17750738E+04</pdfrwt>
<totfact> 0.22656257E+01</totfact>
</mgrwt>
</event>
<event>
 8    1  0.7583103E-052  0.1315322E+04  0.7818608E-02  0.9017502E-01
          2   -1    0    0  501    0  0.00000000000E+00  0.00000000000E+00  0.73427056909E+03  0.73427056910E+03  0.25500000000E-02 0.  1.
         -2   -1    0    0    0  501 -0.00000000000E+00 -0.00000000000E+00 -0.58904425293E+03  0.58904425293E+03  0.25500000000E-02 0. -1.
     200001    2    1    2    0    0 -0.20165737785E+03  0.10935513369E+02  0.19884270010E+03  0.67568143799E+03  0.61336914071E+03 0.  0.
    5000001    2    3    3    0    0  0.46754672978E+02  0.22861943485E+03  0.21837836466E+03  0.32973710886E+03  0.81145581359E+02 0.  0.
        -13    1    4    4    0    0  0.57994220505E+02  0.11453677625E+03  0.10727171642E+03  0.16729983572E+03  0.10566000000E+00 0. -1.
     200003    1    4    4    0    0 -0.11239547527E+02  0.11408265860E+03  0.11110664824E+03  0.16243727314E+03  0.30000000000E+02 0. -1.
     200000    1    3    3    0    0 -0.24841205083E+03 -0.21768392148E+03 -0.19535664565E+02  0.34594432913E+03  0.10100000000E+03 0. -1.
    -200001    1    1    2    0    0  0.20165737785E+03 -0.10935513369E+02 -0.53616383937E+02  0.64763338404E+03  0.61300000000E+03 0.  1.
<mgrwt>
<rscale>  0 0.13153218E+04</rscale>
<asrwt>0</asrwt>
<pdfrwt beam="1">  1        2 0.10489580E+00 0.13153218E+04</pdfrwt>
<pdfrwt beam="2">  1       -2 0.84149179E-01 0.13153218E+04</pdfrwt>
<totfact> 0.51269437E+01</totfact>
</mgrwt>
</event>
<event>
 8    1  0.7583103E-052  0.1578489E+04  0.7818608E-02  0.8833873E-01
         -2   -1    0    0    0  501 -0.00000000000E+00  0.00000000000E+00  0.30185890591E+03  0.30185890592E+03  0.25500000000E-02 0. -1.
          2   -1    0    0  501    0  0.00000000000E+00 -0.00000000000E+00 -0.20635692659E+04  0.20635692659E+04  0.25500000000E-02 0.  1.
     200001    2    1    2    0    0  0.15779573101E+03  0.44251303923E+03 -0.64714923007E+03  0.10094293536E+04  0.61597744387E+03 0.  0.
    5000001    2    3    3    0    0  0.10910775239E+03  0.86513975049E+02 -0.61197688523E+03  0.63453744013E+03  0.93449908277E+02 0.  0.
        -13    1    4    4    0    0 -0.78011222458E+01  0.68496892821E+01 -0.70140725581E+01  0.12529330766E+02  0.10566000000E+00 0. -1.
     200003    1    4    4    0    0  0.11690887464E+03  0.79664285767E+02 -0.60496281267E+03  0.62200810936E+03  0.30000000000E+02 0. -1.
     200000    1    3    3    0    0  0.48687978618E+02  0.35599906418E+03 -0.35172344843E+02  0.37489191349E+03  0.10100000000E+03 0. -1.
    -200001    1    1    2    0    0 -0.15779573101E+03 -0.44251303923E+03 -0.11145611299E+04  0.13559988182E+04  0.61300000000E+03 0.  1.
<mgrwt>
<rscale>  0 0.15784888E+04</rscale>
<asrwt>0</asrwt>
<pdfrwt beam="1">  1        2 0.29479560E+00 0.15784888E+04</pdfrwt>
<pdfrwt beam="2">  1       -2 0.43122702E-01 0.15784888E+04</pdfrwt>
<totfact> 0.36500539E+01</totfact>
</mgrwt>
</event>
<event>
 8    1  0.7583103E-052  0.1393405E+04  0.7818608E-02  0.8958606E-01
          2   -1    0    0  501    0  0.00000000000E+00  0.00000000000E+00  0.11374565508E+04  0.11374565508E+04  0.25500000000E-02 0.  1.
         -2   -1    0    0    0  501 -0.00000000000E+00 -0.00000000000E+00 -0.42673689163E+03  0.42673689164E+03  0.25500000000E-02 0. -1.
     200001    2    1    2    0    0  0.32267636203E+03 -0.78200824941E+02  0.32455394609E+03  0.76724403275E+03  0.61081317785E+03 0.  0.
    5000001    2    3    3    0    0  0.45472333893E+03  0.16580908646E+02  0.33599338930E+03  0.57553633339E+03  0.10631214370E+03 0.  0.
        -13    1    4    4    0    0  0.67035582751E+01 -0.13937720913E+02  0.31841054117E+01  0.15790739346E+02  0.10566000000E+00 0. -1.
     200003    1    4    4    0    0  0.44801978066E+03  0.30518629559E+02  0.33280928389E+03  0.55974559405E+03  0.30000000000E+02 0. -1.
     200000    1    3    3    0    0 -0.13204697690E+03 -0.94781733587E+02 -0.11439443218E+02  0.19170769935E+03  0.10100000000E+03 0. -1.
    -200001    1    1    2    0    0 -0.32267636203E+03  0.78200824941E+02  0.38616571307E+03  0.79694940968E+03  0.61300000000E+03 0. -1.
<mgrwt>
<rscale>  0 0.13934054E+04</rscale>
<asrwt>0</asrwt>
<pdfrwt beam="1">  1        2 0.16249379E+00 0.13934054E+04</pdfrwt>
<pdfrwt beam="2">  1       -2 0.60962414E-01 0.13934054E+04</pdfrwt>
<totfact> 0.56697219E+01</totfact>
</mgrwt>
</event>
<event>
 8    1  0.7583103E-052  0.1446334E+04  0.7818608E-02  0.8920946E-01
         -2   -1    0    0    0  501 -0.00000000000E+00  0.00000000000E+00  0.21290395690E+03  0.21290395691E+03  0.25500000000E-02 0. -1.
          2   -1    0    0  501    0  0.00000000000E+00 -0.00000000000E+00 -0.24563674637E+04  0.24563674637E+04  0.25500000000E-02 0.  1.
     200001    2    1    2    0    0  0.22857293703E+03 -0.21141478991E+03 -0.15366930376E+04  0.16832514933E+04  0.61234654975E+03 0.  0.
    5000001    2    3    3    0    0  0.59175817028E+02 -0.19881246963E+03 -0.65613173288E+03  0.78078630612E+03  0.36890409258E+03 0.  0.
        -13    1    4    4    0    0  0.89258640938E+02 -0.12074359253E+03 -0.67366237242E+03  0.69019354046E+03  0.10566000000E+00 0. -1.
     200003    1    4    4    0    0 -0.30082823910E+02 -0.78068877101E+02  0.17530639536E+02  0.90592765654E+02  0.30000000000E+02 0. -1.
     200000    1    3    3    0    0  0.16939712000E+03 -0.12602320284E+02 -0.88056130467E+03  0.90246518715E+03  0.10100000000E+03 0.  1.
    -200001    1    1    2    0    0 -0.22857293703E+03  0.21141478991E+03 -0.70677046927E+03  0.98601992737E+03  0.61300000000E+03 0. -1.
<mgrwt>
<rscale>  0 0.14463338E+04</rscale>
<asrwt>0</asrwt>
<pdfrwt beam="1">  1        2 0.35090962E+00 0.14463338E+04</pdfrwt>
<pdfrwt beam="2">  1       -2 0.30414852E-01 0.14463338E+04</pdfrwt>
<totfact> 0.45191037E+01</totfact>
</mgrwt>
</event>
<event>
 8    1  0.7583103E-052  0.1237730E+04  0.7818608E-02  0.9080458E-01
          2   -1    0    0  501    0  0.00000000000E+00  0.00000000000E+00  0.31181502378E+04  0.31181502378E+04  0.25500000000E-02 0.  1.
         -2   -1    0    0    0  501 -0.00000000000E+00 -0.00000000000E+00 -0.12282730122E+03  0.12282730125E+03  0.25500000000E-02 0. -1.
     200001    2    1    2    0    0  0.26073420493E+02  0.11969430547E+01  0.17431368361E+04  0.18465528240E+04  0.60872822032E+03 0.  0.
    5000001    2    3    3    0    0 -0.23656080817E+03  0.64026455981E+02  0.42222998079E+03  0.49454683052E+03  0.78981060225E+02 0.  0.
        -13    1    4    4    0    0 -0.12695209652E+03  0.67326216994E+02  0.22897665256E+03  0.27033307768E+03  0.10566000000E+00 0. -1.
     200003    1    4    4    0    0 -0.10960871165E+03 -0.32997610131E+01  0.19325332823E+03  0.22421375284E+03  0.30000000000E+02 0. -1.
     200000    1    3    3    0    0  0.26263422866E+03 -0.62829512926E+02  0.13209068554E+04  0.13520059934E+04  0.10100000000E+03 0.  1.
    -200001    1    1    2    0    0 -0.26073420493E+02 -0.11969430547E+01  0.12521861004E+04  0.13944247151E+04  0.61300000000E+03 0. -1.
<mgrwt>
<rscale>  0 0.12377301E+04</rscale>
<asrwt>0</asrwt>
<pdfrwt beam="1">  1        2 0.44544993E+00 0.12377301E+04</pdfrwt>
<pdfrwt beam="2">  1       -2 0.17546761E-01 0.12377301E+04</pdfrwt>
<totfact> 0.54114258E+01</totfact>
</mgrwt>
</event>
<event>
 8    1  0.7583103E-052  0.1742373E+04  0.7818608E-02  0.8737560E-01
          2   -1    0    0  501    0  0.00000000000E+00  0.00000000000E+00  0.70743292972E+03  0.70743292972E+03  0.25500000000E-02 0. -1.
         -2   -1    0    0    0  501 -0.00000000000E+00 -0.00000000000E+00 -0.10728455656E+04  0.10728455656E+04  0.25500000000E-02 0.  1.
     200001    2    1    2    0    0 -0.28506580835E+03 -0.32405004835E+03  0.27059094119E+03  0.79715057946E+03  0.61315466234E+03 0.  0.
    5000001    2    3    3    0    0  0.67937351373E+02 -0.14092001009E+03 -0.77412219643E+02  0.25914031781E+03  0.19153882011E+03 0.  0.
        -13    1    4    4    0    0  0.10712781652E+03 -0.14392412633E+03 -0.99303264513E+02  0.20506504510E+03  0.10566000000E+00 0. -1.
     200003    1    4    4    0    0 -0.39190465152E+02  0.30041162433E+01  0.21891044870E+02  0.54075272710E+02  0.30000000000E+02 0. -1.
     200000    1    3    3    0    0 -0.35300315972E+03 -0.18313003826E+03  0.34800316084E+03  0.53801026165E+03  0.10100000000E+03 0. -1.
    -200001    1    1    2    0    0  0.28506580835E+03  0.32405004835E+03 -0.63600357710E+03  0.98312791589E+03  0.61300000000E+03 0.  1.
<mgrwt>
<rscale>  0 0.17423734E+04</rscale>
<asrwt>0</asrwt>
<pdfrwt beam="1">  1        2 0.10106185E+00 0.17423734E+04</pdfrwt>
<pdfrwt beam="2">  1       -2 0.15326365E+00 0.17423734E+04</pdfrwt>
<totfact> 0.11947670E+01</totfact>
</mgrwt>
</event>
<event>
 8    1  0.7583103E-052  0.1473737E+04  0.7818608E-02  0.8902108E-01
         -2   -1    0    0    0  501 -0.00000000000E+00  0.00000000000E+00  0.29872238460E+03  0.29872238461E+03  0.25500000000E-02 0. -1.
          2   -1    0    0  501    0  0.00000000000E+00 -0.00000000000E+00 -0.18176586024E+04  0.18176586024E+04  0.25500000000E-02 0.  1.
     200001    2    1    2    0    0 -0.28533123014E+03  0.26728199727E+03 -0.93174059972E+03  0.11818108875E+04  0.61292972821E+03 0.  0.
    5000001    2    3    3    0    0 -0.20354375626E+02  0.24255047471E+03 -0.84108969684E+03  0.88307527225E+03  0.11465175503E+03 0.  0.
        -13    1    4    4    0    0  0.20973269836E+01  0.91000249070E+02 -0.49645562046E+03  0.50473125360E+03  0.10566000000E+00 0. -1.
     200003    1    4    4    0    0 -0.22451702610E+02  0.15155022564E+03 -0.34463407638E+03  0.37834401865E+03  0.30000000000E+02 0. -1.
     200000    1    3    3    0    0 -0.26497685451E+03  0.24731522563E+02 -0.90650902879E+02  0.29873561527E+03  0.10100000000E+03 0. -1.
    -200001    1    1    2    0    0  0.28533123014E+03 -0.26728199727E+03 -0.58719561803E+03  0.93457009945E+03  0.61300000000E+03 0. -1.
<mgrwt>
<rscale>  0 0.14737372E+04</rscale>
<asrwt>0</asrwt>
<pdfrwt beam="1">  1        2 0.25966551E+00 0.14737372E+04</pdfrwt>
<pdfrwt beam="2">  1       -2 0.42674628E-01 0.14737372E+04</pdfrwt>
<totfact> 0.50273742E+01</totfact>
</mgrwt>
</event>
<event>
 8    1  0.7583103E-052  0.1390966E+04  0.7818608E-02  0.8960384E-01
         -2   -1    0    0    0  501 -0.00000000000E+00  0.00000000000E+00  0.62354196747E+03  0.62354196748E+03  0.25500000000E-02 0. -1.
          2   -1    0    0  501    0  0.00000000000E+00 -0.00000000000E+00 -0.77572376330E+03  0.77572376331E+03  0.25500000000E-02 0.  1.
     200001    2    1    2    0    0 -0.16954918322E+03 -0.25145274797E+03  0.49805441108E+02  0.68614354358E+03  0.61346309624E+03 0.  0.
    5000001    2    3    3    0    0  0.13027628035E+03  0.24642573514E+02  0.17983073260E+03  0.24656247987E+03  0.10428230166E+03 0.  0.
        -13    1    4    4    0    0  0.83508220536E+02  0.73133484411E+01  0.35680374457E+02  0.91105478693E+02  0.10566000000E+00 0. -1.
     200003    1    4    4    0    0  0.46768059812E+02  0.17329225073E+02  0.14415035815E+03  0.15545700118E+03  0.30000000000E+02 0. -1.
     200000    1    3    3    0    0 -0.29982546356E+03 -0.27609532149E+03 -0.13002529150E+03  0.43958106371E+03  0.10100000000E+03 0.  1.
    -200001    1    1    2    0    0  0.16954918322E+03  0.25145274797E+03 -0.20198723694E+03  0.71312218720E+03  0.61300000000E+03 0.  1.
<mgrwt>
<rscale>  0 0.13909656E+04</rscale>
<asrwt>0</asrwt>
<pdfrwt beam="1">  1        2 0.11081768E+00 0.13909656E+04</pdfrwt>
<pdfrwt beam="2">  1       -2 0.89077425E-01 0.13909656E+04</pdfrwt>
<totfact> 0.41763624E+01</totfact>
</mgrwt>
</event>
<event>
 8    1  0.7583103E-052  0.1272656E+04  0.7818608E-02  0.9051535E-01
          2   -1    0    0  501    0  0.00000000000E+00  0.00000000000E+00  0.35924513221E+04  0.35924513221E+04  0.25500000000E-02 0.  1.
         -2   -1    0    0    0  501 -0.00000000000E+00 -0.00000000000E+00 -0.11271224915E+03  0.11271224917E+03  0.25500000000E-02 0. -1.
     200001    2    1    2    0    0  0.13900697791E+03  0.64131155270E+02  0.19549003963E+04  0.20546067759E+04  0.61346369011E+03 0.  0.
    5000001    2    3    3    0    0  0.18721689570E+03  0.22411310953E+03  0.47486993821E+03  0.56175394365E+03  0.69203923929E+02 0.  0.
        -13    1    4    4    0    0 -0.44920156179E+01  0.16790088931E+01  0.56616995919E+01  0.74204636971E+01  0.10566000000E+00 0. -1.
     200003    1    4    4    0    0  0.19170891132E+03  0.22243410064E+03  0.46920823862E+03  0.55433347995E+03  0.30000000000E+02 0. -1.
     200000    1    3    3    0    0 -0.48209917787E+02 -0.15998195426E+03  0.14800304581E+04  0.14928528322E+04  0.10100000000E+03 0.  1.
    -200001    1    1    2    0    0 -0.13900697791E+03 -0.64131155270E+02  0.15248386767E+04  0.16505567954E+04  0.61300000000E+03 0. -1.
<mgrwt>
<rscale>  0 0.12726559E+04</rscale>
<asrwt>0</asrwt>
<pdfrwt beam="1">  1        2 0.51320757E+00 0.12726559E+04</pdfrwt>
<pdfrwt beam="2">  1       -2 0.16101742E-01 0.12726559E+04</pdfrwt>
<totfact> 0.32857667E+01</totfact>
</mgrwt>
</event>
<event>
 8    1  0.7583103E-052  0.1745292E+04  0.7818608E-02  0.8735946E-01
         -2   -1    0    0    0  501 -0.00000000000E+00  0.00000000000E+00  0.31160586430E+03  0.31160586431E+03  0.25500000000E-02 0. -1.
          2   -1    0    0  501    0  0.00000000000E+00 -0.00000000000E+00 -0.24438274797E+04  0.24438274797E+04  0.25500000000E-02 0.  1.
     200001    2    1    2    0    0  0.52489830468E+03 -0.13322159390E+03 -0.15454207440E+04  0.17487702991E+04  0.61368237686E+03 0.  0.
    5000001    2    3    3    0    0  0.23980685365E+03 -0.20470841886E+03 -0.61761884988E+03  0.77029962691E+03  0.33540364888E+03 0.  0.
        -13    1    4    4    0    0  0.95622559221E+02 -0.25082121255E+03 -0.23144290901E+03  0.35443022697E+03  0.10566000000E+00 0. -1.
     200003    1    4    4    0    0  0.14418429442E+03  0.46112793682E+02 -0.38617594086E+03  0.41586939994E+03  0.30000000000E+02 0. -1.
     200000    1    3    3    0    0  0.28509145103E+03  0.71486824966E+02 -0.92780189408E+03  0.97847067215E+03  0.10100000000E+03 0.  1.
    -200001    1    1    2    0    0 -0.52489830468E+03  0.13322159390E+03 -0.58680087142E+03  0.10066630449E+04  0.61300000000E+03 0. -1.
<mgrwt>
<rscale>  0 0.17452919E+04</rscale>
<asrwt>0</asrwt>
<pdfrwt beam="1">  1        2 0.34911820E+00 0.17452919E+04</pdfrwt>
<pdfrwt beam="2">  1       -2 0.44515125E-01 0.17452919E+04</pdfrwt>
<totfact> 0.21478832E+01</totfact>
</mgrwt>
</event>
<event>
 8    1  0.7583103E-052  0.2522643E+04  0.7818608E-02  0.8394963E-01
          2   -1    0    0  501    0  0.00000000000E+00  0.00000000000E+00  0.24690856457E+04  0.24690856457E+04  0.25500000000E-02 0.  1.
         -2   -1    0    0    0  501 -0.00000000000E+00 -0.00000000000E+00 -0.64434061039E+03  0.64434061039E+03  0.25500000000E-02 0. -1.
     200001    2    1    2    0    0  0.11014464161E+04  0.24299483324E+02  0.94225160131E+03  0.15744856031E+04  0.61432252249E+03 0.  0.
    5000001    2    3    3    0    0  0.73110044448E+03 -0.25971251605E+03  0.64295243036E+03  0.10109255369E+04  0.81388957851E+02 0.  0.
        -13    1    4    4    0    0  0.50659279063E+02 -0.33406933374E+02  0.33234741813E+02  0.69187751662E+02  0.10566000000E+00 0. -1.
     200003    1    4    4    0    0  0.68044116542E+03 -0.22630558268E+03  0.60971768855E+03  0.94173778520E+03  0.30000000000E+02 0. -1.
     200000    1    3    3    0    0  0.37034597165E+03  0.28401199937E+03  0.29929917095E+03  0.56356006622E+03  0.10100000000E+03 0.  1.
    -200001    1    1    2    0    0 -0.11014464161E+04 -0.24299483324E+02  0.88249343404E+03  0.15389406531E+04  0.61300000000E+03 0. -1.
<mgrwt>
<rscale>  0 0.25226432E+04</rscale>
<asrwt>0</asrwt>
<pdfrwt beam="1">  1        2 0.35272652E+00 0.25226432E+04</pdfrwt>
<pdfrwt beam="2">  1       -2 0.92048659E-01 0.25226432E+04</pdfrwt>
<totfact> 0.41100272E+00</totfact>
</mgrwt>
</event>
<event>
 8    1  0.7583103E-052  0.1400938E+04  0.7818608E-02  0.8953140E-01
         -2   -1    0    0    0  501 -0.00000000000E+00  0.00000000000E+00  0.14228138039E+03  0.14228138041E+03  0.25500000000E-02 0. -1.
          2   -1    0    0  501    0  0.00000000000E+00 -0.00000000000E+00 -0.34484954826E+04  0.34484954826E+04  0.25500000000E-02 0.  1.
     200001    2    1    2    0    0  0.12298438553E+03 -0.10521119705E+03 -0.89232761631E+03  0.10950181564E+04  0.61369506504E+03 0.  0.
    5000001    2    3    3    0    0 -0.15471749506E+03  0.25520982312E+02 -0.68173735946E+03  0.70932592999E+03  0.11742497117E+03 0.  0.
        -13    1    4    4    0    0 -0.44288628782E+02 -0.27176629877E+02 -0.36121754158E+03  0.36493585102E+03  0.10566000000E+00 0. -1.
     200003    1    4    4    0    0 -0.11042886628E+03  0.52697612189E+02 -0.32051981788E+03  0.34439007897E+03  0.30000000000E+02 0. -1.
     200000    1    3    3    0    0  0.27770188059E+03 -0.13073217936E+03 -0.21059025685E+03  0.38569222637E+03  0.10100000000E+03 0. -1.
    -200001    1    1    2    0    0 -0.12298438553E+03  0.10521119705E+03 -0.24138864859E+04  0.24957587067E+04  0.61300000000E+03 0.  1.
<mgrwt>
<rscale>  0 0.14009378E+04</rscale>
<asrwt>0</asrwt>
<pdfrwt beam="1">  1        2 0.49264216E+00 0.14009378E+04</pdfrwt>
<pdfrwt beam="2">  1       -2 0.20325914E-01 0.14009378E+04</pdfrwt>
<totfact> 0.26481988E+01</totfact>
</mgrwt>
</event>
<event>
 8    1  0.7583103E-052  0.1457003E+04  0.7818608E-02  0.8913560E-01
         -2   -1    0    0    0  501 -0.00000000000E+00  0.00000000000E+00  0.51870264987E+03  0.51870264987E+03  0.25500000000E-02 0. -1.
          2   -1    0    0  501    0  0.00000000000E+00 -0.00000000000E+00 -0.10231568464E+04  0.10231568464E+04  0.25500000000E-02 0.  1.
     200001    2    1    2    0    0 -0.25175243054E+03  0.30051706472E+03 -0.21515762614E+03  0.75881971561E+03  0.61304548301E+03 0.  0.
    5000001    2    3    3    0    0 -0.41438478406E+03  0.17337209258E+03 -0.62741974983E+02  0.48305413206E+03  0.16622908088E+03 0.  0.
        -13    1    4    4    0    0 -0.18694490001E+03  0.34348658811E+02  0.42727805632E+02  0.19481761353E+03  0.10566000000E+00 0. -1.
     200003    1    4    4    0    0 -0.22743988405E+03  0.13902343377E+03 -0.10546978062E+03  0.28823651853E+03  0.30000000000E+02 0. -1.
     200000    1    3    3    0    0  0.16263235352E+03  0.12714497214E+03 -0.15241565116E+03  0.27576558355E+03  0.10100000000E+03 0.  1.
    -200001    1    1    2    0    0  0.25175243054E+03 -0.30051706472E+03 -0.28929657040E+03  0.78303978067E+03  0.61300000000E+03 0. -1.
<mgrwt>
<rscale>  0 0.14570026E+04</rscale>
<asrwt>0</asrwt>
<pdfrwt beam="1">  1        2 0.14616526E+00 0.14570026E+04</pdfrwt>
<pdfrwt beam="2">  1       -2 0.74100379E-01 0.14570026E+04</pdfrwt>
<totfact> 0.43284259E+01</totfact>
</mgrwt>
</event>
<event>
 8    1  0.7583103E-052  0.1264899E+04  0.7818608E-02  0.9057873E-01
          2   -1    0    0  501    0  0.00000000000E+00  0.00000000000E+00  0.26397236018E+04  0.26397236018E+04  0.25500000000E-02 0.  1.
         -2   -1    0    0    0  501 -0.00000000000E+00 -0.00000000000E+00 -0.15152809660E+03  0.15152809662E+03  0.25500000000E-02 0. -1.
     200001    2    1    2    0    0 -0.14283884085E+03  0.20830006960E+02  0.13745619023E+04  0.15118824690E+04  0.61280613020E+03 0.  0.
    5000001    2    3    3    0    0 -0.26780962343E+03 -0.19648682223E+03  0.77517704723E+03  0.85438151446E+03  0.13689138754E+03 0.  0.
        -13    1    4    4    0    0 -0.26378881552E+03 -0.17322807053E+03  0.72962530163E+03  0.79495005853E+03  0.10566000000E+00 0. -1.
     200003    1    4    4    0    0 -0.40208079171E+01 -0.23258751701E+02  0.45551745605E+02  0.59431455936E+02  0.30000000000E+02 0. -1.
     200000    1    3    3    0    0  0.12497078258E+03  0.21731682919E+03  0.59938485510E+03  0.65750095458E+03  0.10100000000E+03 0. -1.
    -200001    1    1    2    0    0  0.14283884085E+03 -0.20830006960E+02  0.11136336028E+04  0.12793692293E+04  0.61300000000E+03 0. -1.
<mgrwt>
<rscale>  0 0.12648989E+04</rscale>
<asrwt>0</asrwt>
<pdfrwt beam="1">  1        2 0.37710338E+00 0.12648989E+04</pdfrwt>
<pdfrwt beam="2">  1       -2 0.21646870E-01 0.12648989E+04</pdfrwt>
<totfact> 0.68193811E+01</totfact>
</mgrwt>
</event>
<event>
 8    1  0.7583103E-052  0.1464194E+04  0.7818608E-02  0.8908619E-01
         -2   -1    0    0    0  501 -0.00000000000E+00  0.00000000000E+00  0.38666443433E+03  0.38666443434E+03  0.25500000000E-02 0. -1.
          2   -1    0    0  501    0  0.00000000000E+00 -0.00000000000E+00 -0.13861273242E+04  0.13861273242E+04  0.25500000000E-02 0.  1.
     200001    2    1    2    0    0  0.37381137490E+03  0.76791112291E+02 -0.35116326295E+03  0.80238296573E+03  0.61226707205E+03 0.  0.
    5000001    2    3    3    0    0  0.48726071982E+03  0.73141242696E+02 -0.40252830753E+03  0.64199766960E+03  0.85786472971E+02 0.  0.
        -13    1    4    4    0    0  0.25522600531E+03  0.73671735030E+02 -0.19940584147E+03  0.33216041170E+03  0.10566000000E+00 0. -1.
     200003    1    4    4    0    0  0.23203471451E+03 -0.53049233356E+00 -0.20312246606E+03  0.30983725789E+03  0.30000000000E+02 0. -1.
     200000    1    3    3    0    0 -0.11344934492E+03  0.36498695947E+01  0.51365044579E+02  0.16038529613E+03  0.10100000000E+03 0. -1.
    -200001    1    1    2    0    0 -0.37381137490E+03 -0.76791112291E+02 -0.64829962695E+03  0.97040879285E+03  0.61300000000E+03 0.  1.
<mgrwt>
<rscale>  0 0.14641942E+04</rscale>
<asrwt>0</asrwt>
<pdfrwt beam="1">  1        2 0.19801819E+00 0.14641942E+04</pdfrwt>
<pdfrwt beam="2">  1       -2 0.55237777E-01 0.14641942E+04</pdfrwt>
<totfact> 0.50314745E+01</totfact>
</mgrwt>
</event>
<event>
 8    1  0.7583103E-052  0.1935536E+04  0.7818608E-02  0.8637367E-01
          2   -1    0    0  501    0  0.00000000000E+00  0.00000000000E+00  0.16456570102E+04  0.16456570102E+04  0.25500000000E-02 0.  1.
         -2   -1    0    0    0  501 -0.00000000000E+00 -0.00000000000E+00 -0.56911938981E+03  0.56911938982E+03  0.25500000000E-02 0. -1.
     200001    2    1    2    0    0  0.93143574457E+02  0.49433022012E+03  0.11746375483E+04  0.14157578221E+04  0.60955619017E+03 0.  0.
    5000001    2    3    3    0    0 -0.23180436712E+03  0.12389216102E+03  0.51572853085E+03  0.58679605359E+03  0.96286856862E+02 0.  0.
        -13    1    4    4    0    0 -0.13176785583E+03  0.35964331012E+02  0.19361560396E+03  0.23694559332E+03  0.10566000000E+00 0. -1.
     200003    1    4    4    0    0 -0.10003651128E+03  0.87927830008E+02  0.32211292689E+03  0.34985046027E+03  0.30000000000E+02 0. -1.
     200000    1    3    3    0    0  0.32494794157E+03  0.37043805910E+03  0.65890901742E+03  0.82896176848E+03  0.10100000000E+03 0.  1.
    -200001    1    1    2    0    0 -0.93143574457E+02 -0.49433022012E+03 -0.98099927914E+02  0.79901857791E+03  0.61300000000E+03 0. -1.
<mgrwt>
<rscale>  0 0.19355364E+04</rscale>
<asrwt>0</asrwt>
<pdfrwt beam="1">  1        2 0.23509386E+00 0.19355364E+04</pdfrwt>
<pdfrwt beam="2">  1       -2 0.81302771E-01 0.19355364E+04</pdfrwt>
<totfact> 0.15298476E+01</totfact>
</mgrwt>
</event>
<event>
 8    1  0.7583103E-052  0.1362739E+04  0.7818608E-02  0.8981241E-01
          2   -1    0    0  501    0  0.00000000000E+00  0.00000000000E+00  0.13816244444E+04  0.13816244444E+04  0.25500000000E-02 0. -1.
         -2   -1    0    0    0  501 -0.00000000000E+00 -0.00000000000E+00 -0.33602775998E+03  0.33602775999E+03  0.25500000000E-02 0.  1.
     200001    2    1    2    0    0  0.58795022043E+02 -0.29187982608E+03  0.52529365193E+03  0.86025210344E+03  0.61273940075E+03 0.  0.
    5000001    2    3    3    0    0  0.45638901546E+02 -0.46330474781E+03  0.36410499280E+03  0.60384935164E+03  0.12380385700E+03 0.  0.
        -13    1    4    4    0    0  0.63799700400E+02 -0.41174604991E+03  0.33687717403E+03  0.53580915720E+03  0.10566000000E+00 0. -1.
     200003    1    4    4    0    0 -0.18160798854E+02 -0.51558697907E+02  0.27227818768E+02  0.68040194443E+02  0.30000000000E+02 0. -1.
     200000    1    3    3    0    0  0.13156120497E+02  0.17142492174E+03  0.16118865913E+03  0.25640275180E+03  0.10100000000E+03 0. -1.
    -200001    1    1    2    0    0 -0.58795022043E+02  0.29187982608E+03  0.52030303248E+03  0.85740010094E+03  0.61300000000E+03 0.  1.
<mgrwt>
<rscale>  0 0.13627387E+04</rscale>
<asrwt>0</asrwt>
<pdfrwt beam="1">  1        2 0.19737491E+00 0.13627387E+04</pdfrwt>
<pdfrwt beam="2">  1       -2 0.48003967E-01 0.13627387E+04</pdfrwt>
<totfact> 0.67966610E+01</totfact>
</mgrwt>
</event>
<event>
 8    1  0.7583103E-052  0.1390600E+04  0.7818608E-02  0.8960651E-01
         -2   -1    0    0    0  501 -0.00000000000E+00  0.00000000000E+00  0.13060230651E+03  0.13060230654E+03  0.25500000000E-02 0. -1.
          2   -1    0    0  501    0  0.00000000000E+00 -0.00000000000E+00 -0.37016330319E+04  0.37016330319E+04  0.25500000000E-02 0.  1.
     200001    2    1    2    0    0  0.71622804707E+02  0.28404253555E+03 -0.21932125591E+04  0.22960185935E+04  0.61295192635E+03 0.  0.
    5000001    2    3    3    0    0  0.25785877304E+03  0.21747560867E+03 -0.67297815134E+03  0.75964993777E+03  0.10189037531E+03 0.  0.
        -13    1    4    4    0    0  0.16464483468E+03  0.79003250960E+02 -0.36032724385E+03  0.40396184111E+03  0.10566000000E+00 0. -1.
     200003    1    4    4    0    0  0.93213938357E+02  0.13847235771E+03 -0.31265090749E+03  0.35568809667E+03  0.30000000000E+02 0. -1.
     200000    1    3    3    0    0 -0.18623596833E+03  0.66566926881E+02 -0.15202344078E+04  0.15363686557E+04  0.10100000000E+03 0. -1.
    -200001    1    1    2    0    0 -0.71622804707E+02 -0.28404253555E+03 -0.13778181662E+04  0.15362167449E+04  0.61300000000E+03 0. -1.
<mgrwt>
<rscale>  0 0.13905996E+04</rscale>
<asrwt>0</asrwt>
<pdfrwt beam="1">  1        2 0.52880466E+00 0.13905996E+04</pdfrwt>
<pdfrwt beam="2">  1       -2 0.18657475E-01 0.13905996E+04</pdfrwt>
<totfact> 0.21511623E+01</totfact>
</mgrwt>
</event>
<event>
 8    1  0.7583103E-052  0.1927088E+04  0.7818608E-02  0.8641489E-01
          2   -1    0    0  501    0  0.00000000000E+00  0.00000000000E+00  0.37801043212E+04  0.37801043212E+04  0.25500000000E-02 0.  1.
         -2   -1    0    0    0  501 -0.00000000000E+00 -0.00000000000E+00 -0.24560611105E+03  0.24560611106E+03  0.25500000000E-02 0. -1.
     200001    2    1    2    0    0  0.73797749879E+03 -0.24392347162E+02  0.16016569512E+04  0.18677368209E+04  0.61476017053E+03 0.  0.
    5000001    2    3    3    0    0  0.48060280713E+03 -0.19632983427E+03  0.12286786408E+04  0.13726428385E+04  0.32399490351E+03 0.  0.
        -13    1    4    4    0    0  0.99413235576E+02  0.56304364910E+02  0.90789233002E+02  0.14593104162E+03  0.10566000000E+00 0. -1.
     200003    1    4    4    0    0  0.38118957156E+03 -0.25263419918E+03  0.11378894078E+04  0.12267117969E+04  0.30000000000E+02 0. -1.
     200000    1    3    3    0    0  0.25737469166E+03  0.17193748711E+03  0.37297831040E+03  0.49509398240E+03  0.10100000000E+03 0. -1.
    -200001    1    1    2    0    0 -0.73797749879E+03  0.24392347162E+02  0.19328412589E+04  0.21579736114E+04  0.61300000000E+03 0. -1.
<mgrwt>
<rscale>  0 0.19270877E+04</rscale>
<asrwt>0</asrwt>
<pdfrwt beam="1">  1        2 0.54001488E+00 0.19270877E+04</pdfrwt>
<pdfrwt beam="2">  1       -2 0.35086589E-01 0.19270877E+04</pdfrwt>
<totfact> 0.57506179E+00</totfact>
</mgrwt>
</event>
<event>
 8    1  0.7583103E-052  0.1372014E+04  0.7818608E-02  0.8974329E-01
         -2   -1    0    0    0  501 -0.00000000000E+00  0.00000000000E+00  0.40249359029E+03  0.40249359029E+03  0.25500000000E-02 0. -1.
          2   -1    0    0  501    0  0.00000000000E+00 -0.00000000000E+00 -0.11692250724E+04  0.11692250724E+04  0.25500000000E-02 0.  1.
     200001    2    1    2    0    0 -0.26039995253E+03  0.12279268183E+03 -0.25493047734E+03  0.72283972758E+03  0.61206335090E+03 0.  0.
    5000001    2    3    3    0    0 -0.70587617035E+02  0.27891820641E+02 -0.42093429065E+03  0.43510171794E+03  0.79795128777E+02 0.  0.
        -13    1    4    4    0    0 -0.65720198643E+02  0.10462594334E+02 -0.34652106873E+03  0.35285333019E+03  0.10566000000E+00 0. -1.
     200003    1    4    4    0    0 -0.48674183922E+01  0.17429226306E+02 -0.74413221917E+02  0.82248387750E+02  0.30000000000E+02 0.  1.
     200000    1    3    3    0    0 -0.18981233549E+03  0.94900861187E+02  0.16600381331E+03  0.28773800964E+03  0.10100000000E+03 0. -1.
    -200001    1    1    2    0    0  0.26039995253E+03 -0.12279268183E+03 -0.51180100478E+03  0.84887893511E+03  0.61300000000E+03 0.  1.
<mgrwt>
<rscale>  0 0.13720140E+04</rscale>
<asrwt>0</asrwt>
<pdfrwt beam="1">  1        2 0.16703215E+00 0.13720140E+04</pdfrwt>
<pdfrwt beam="2">  1       -2 0.57499085E-01 0.13720140E+04</pdfrwt>
<totfact> 0.61563972E+01</totfact>
</mgrwt>
</event>
<event>
 8    1  0.7583103E-052  0.1537259E+04  0.7818608E-02  0.8860047E-01
          2   -1    0    0  501    0  0.00000000000E+00  0.00000000000E+00  0.48689711183E+04  0.48689711183E+04  0.25500000000E-02 0.  1.
         -2   -1    0    0    0  501 -0.00000000000E+00 -0.00000000000E+00 -0.12133802707E+03  0.12133802709E+03  0.25500000000E-02 0. -1.
     200001    2    1    2    0    0  0.37598697344E+03  0.22007422426E+03  0.28898490369E+04  0.29860812489E+04  0.61290692672E+03 0.  0.
    5000001    2    3    3    0    0  0.14109478572E+03  0.16168001190E+03  0.27857029276E+03  0.36166476075E+03  0.84568471406E+02 0.  0.
        -13    1    4    4    0    0  0.62938532209E+02  0.38437069274E+02  0.51008132552E+02  0.89668879113E+02  0.10566000000E+00 0. -1.
     200003    1    4    4    0    0  0.78156253513E+02  0.12324294262E+03  0.22756216020E+03  0.27199588163E+03  0.30000000000E+02 0. -1.
     200000    1    3    3    0    0  0.23489218772E+03  0.58394212366E+02  0.26112787441E+04  0.26244164882E+04  0.10100000000E+03 0.  1.
    -200001    1    1    2    0    0 -0.37598697344E+03 -0.22007422426E+03  0.18577840543E+04  0.20042278964E+04  0.61300000000E+03 0. -1.
<mgrwt>
<rscale>  0 0.15372591E+04</rscale>
<asrwt>0</asrwt>
<pdfrwt beam="1">  1        2 0.69556740E+00 0.15372591E+04</pdfrwt>
<pdfrwt beam="2">  1       -2 0.17334002E-01 0.15372591E+04</pdfrwt>
<totfact> 0.32135891E+00</totfact>
</mgrwt>
</event>
<event>
 8    1  0.7583103E-052  0.1638415E+04  0.7818608E-02  0.8797290E-01
          2   -1    0    0  501    0  0.00000000000E+00  0.00000000000E+00  0.39273500356E+04  0.39273500356E+04  0.25500000000E-02 0.  1.
         -2   -1    0    0    0  501 -0.00000000000E+00 -0.00000000000E+00 -0.17087880709E+03  0.17087880711E+03  0.25500000000E-02 0. -1.
     200001    2    1    2    0    0  0.48365362572E+03  0.17799761109E+02  0.12592559777E+04  0.14817253227E+04  0.61281861385E+03 0.  0.
    5000001    2    3    3    0    0  0.12743773155E+03 -0.56806068289E+02  0.98436529441E+03  0.10145832878E+04  0.20232871817E+03 0.  0.
        -13    1    4    4    0    0  0.16428404432E+03 -0.88884076034E+02  0.79965712267E+03  0.82118277575E+03  0.10566000000E+00 0. -1.
     200003    1    4    4    0    0 -0.36846312778E+02  0.32078007746E+02  0.18470817174E+03  0.19340051203E+03  0.30000000000E+02 0. -1.
     200000    1    3    3    0    0  0.35621589418E+03  0.74605829398E+02  0.27489068325E+03  0.46714203491E+03  0.10100000000E+03 0. -1.
    -200001    1    1    2    0    0 -0.48365362572E+03 -0.17799761109E+02  0.24972152509E+04  0.26165035200E+04  0.61300000000E+03 0.  1.
<mgrwt>
<rscale>  0 0.16384150E+04</rscale>
<asrwt>0</asrwt>
<pdfrwt beam="1">  1        2 0.56104997E+00 0.16384150E+04</pdfrwt>
<pdfrwt beam="2">  1       -2 0.24411260E-01 0.16384150E+04</pdfrwt>
<totfact> 0.92814041E+00</totfact>
</mgrwt>
</event>
<event>
 8    1  0.7583103E-052  0.1447661E+04  0.7818608E-02  0.8920024E-01
          2   -1    0    0  501    0  0.00000000000E+00  0.00000000000E+00  0.26831907088E+04  0.26831907088E+04  0.25500000000E-02 0.  1.
         -2   -1    0    0    0  501 -0.00000000000E+00 -0.00000000000E+00 -0.19526393689E+03  0.19526393690E+03  0.25500000000E-02 0. -1.
     200001    2    1    2    0    0 -0.33954173819E+03 -0.12861811540E+03  0.10617731365E+04  0.12842418609E+04  0.62456685167E+03 0.  0.
    5000001    2    3    3    0    0 -0.39206072806E+03  0.13539484853E+03  0.63473766540E+03  0.76943958522E+03  0.13077458442E+03 0.  0.
        -13    1    4    4    0    0 -0.36527884599E+03  0.14335227657E+03  0.59179871509E+03  0.71007340527E+03  0.10566000000E+00 0. -1.
     200003    1    4    4    0    0 -0.26781882070E+02 -0.79574280372E+01  0.42938950314E+02  0.59366179953E+02  0.30000000000E+02 0.  1.
     200000    1    3    3    0    0  0.52518989871E+02 -0.26401296394E+03  0.42703547114E+03  0.51480227567E+03  0.10100000000E+03 0. -1.
    -200001    1    1    2    0    0  0.33954173819E+03  0.12861811540E+03  0.14261536354E+04  0.15942127849E+04  0.61300000000E+03 0.  1.
<mgrwt>
<rscale>  0 0.14476607E+04</rscale>
<asrwt>0</asrwt>
<pdfrwt beam="1">  1        2 0.38331294E+00 0.14476607E+04</pdfrwt>
<pdfrwt beam="2">  1       -2 0.27894850E-01 0.14476607E+04</pdfrwt>
<totfact> 0.40254083E+01</totfact>
</mgrwt>
</event>
<event>
 8    1  0.7583103E-052  0.1639479E+04  0.7818608E-02  0.8796655E-01
         -2   -1    0    0    0  501 -0.00000000000E+00  0.00000000000E+00  0.83336430912E+03  0.83336430913E+03  0.25500000000E-02 0. -1.
          2   -1    0    0  501    0  0.00000000000E+00 -0.00000000000E+00 -0.80633765492E+03  0.80633765492E+03  0.25500000000E-02 0.  1.
     200001    2    1    2    0    0 -0.48874959687E+03  0.14814416592E+02 -0.22700003507E+03  0.81544824447E+03  0.61182610937E+03 0.  0.
    5000001    2    3    3    0    0 -0.55959128116E+03  0.96216793283E+02 -0.40368426144E+02  0.57737840468E+03  0.96623698472E+02 0.  0.
        -13    1    4    4    0    0 -0.44369131664E+03  0.79950448271E+02 -0.60549178691E+02  0.45488490066E+03  0.10566000000E+00 0. -1.
     200003    1    4    4    0    0 -0.11589996452E+03  0.16266345012E+02  0.20180752547E+02  0.12249350403E+03  0.30000000000E+02 0.  1.
     200000    1    3    3    0    0  0.70841684293E+02 -0.81402376691E+02 -0.18663160893E+03  0.23806983979E+03  0.10100000000E+03 0.  1.
    -200001    1    1    2    0    0  0.48874959687E+03 -0.14814416592E+02  0.25402668928E+03  0.82425371958E+03  0.61300000000E+03 0.  1.
<mgrwt>
<rscale>  0 0.16394792E+04</rscale>
<asrwt>0</asrwt>
<pdfrwt beam="1">  1        2 0.11519109E+00 0.16394792E+04</pdfrwt>
<pdfrwt beam="2">  1       -2 0.11905204E+00 0.16394792E+04</pdfrwt>
<totfact> 0.19528631E+01</totfact>
</mgrwt>
</event>
<event>
 8    1  0.7583103E-052  0.1579199E+04  0.7818608E-02  0.8833430E-01
          2   -1    0    0  501    0  0.00000000000E+00  0.00000000000E+00  0.15503800046E+04  0.15503800046E+04  0.25500000000E-02 0.  1.
         -2   -1    0    0    0  501 -0.00000000000E+00 -0.00000000000E+00 -0.40213831835E+03  0.40213831836E+03  0.25500000000E-02 0. -1.
     200001    2    1    2    0    0 -0.11154961081E+03 -0.23891812539E+03  0.10949043145E+04  0.12830864283E+04  0.61479276042E+03 0.  0.
    5000001    2    3    3    0    0 -0.42540228259E+02 -0.34975999281E+03  0.10355351883E+04  0.11076614939E+04  0.17446815016E+03 0.  0.
        -13    1    4    4    0    0 -0.41152802301E+02 -0.27486666796E+03  0.95107239125E+03  0.99085011120E+03  0.10566000000E+00 0. -1.
     200003    1    4    4    0    0 -0.13874259582E+01 -0.74893324852E+02  0.84462797016E+02  0.11681138274E+03  0.30000000000E+02 0. -1.
     200000    1    3    3    0    0 -0.69009382552E+02  0.11084186742E+03  0.59369126275E+02  0.17542493440E+03  0.10100000000E+03 0. -1.
    -200001    1    1    2    0    0  0.11154961081E+03  0.23891812539E+03  0.53337371702E+02  0.66943189462E+03  0.61300000000E+03 0. -1.
<mgrwt>
<rscale>  0 0.15791988E+04</rscale>
<asrwt>0</asrwt>
<pdfrwt beam="1">  1        2 0.22148286E+00 0.15791988E+04</pdfrwt>
<pdfrwt beam="2">  1       -2 0.57448330E-01 0.15791988E+04</pdfrwt>
<totfact> 0.37537137E+01</totfact>
</mgrwt>
</event>
<event>
 8    1  0.7583103E-052  0.1726620E+04  0.7818608E-02  0.8746326E-01
          2   -1    0    0  501    0  0.00000000000E+00  0.00000000000E+00  0.13157384326E+04  0.13157384326E+04  0.25500000000E-02 0.  1.
         -2   -1    0    0    0  501 -0.00000000000E+00 -0.00000000000E+00 -0.56645283529E+03  0.56645283530E+03  0.25500000000E-02 0. -1.
     200001    2    1    2    0    0  0.15891648011E+03  0.36078945683E+03  0.87920877483E+03  0.11418720720E+04  0.61273181674E+03 0.  0.
    5000001    2    3    3    0    0  0.21380954865E+03  0.49755555091E+03  0.71192166387E+03  0.89711874524E+03  0.68655212744E+02 0.  0.
        -13    1    4    4    0    0  0.13942076649E+03  0.32424858640E+03  0.49750531877E+03  0.60998922062E+03  0.10566000000E+00 0. -1.
     200003    1    4    4    0    0  0.74388782155E+02  0.17330696451E+03  0.21441634510E+03  0.28712952462E+03  0.30000000000E+02 0.  1.
     200000    1    3    3    0    0 -0.54893068534E+02 -0.13676609408E+03  0.16728711096E+03  0.24475332676E+03  0.10100000000E+03 0. -1.
    -200001    1    1    2    0    0 -0.15891648011E+03 -0.36078945683E+03 -0.12992317751E+03  0.74031919593E+03  0.61300000000E+03 0. -1.
<mgrwt>
<rscale>  0 0.17266195E+04</rscale>
<asrwt>0</asrwt>
<pdfrwt beam="1">  1        2 0.18796263E+00 0.17266195E+04</pdfrwt>
<pdfrwt beam="2">  1       -2 0.80921833E-01 0.17266195E+04</pdfrwt>
<totfact> 0.23603466E+01</totfact>
</mgrwt>
</event>
<event>
 8    1  0.7583103E-052  0.1285675E+04  0.7818608E-02  0.9041003E-01
         -2   -1    0    0    0  501 -0.00000000000E+00  0.00000000000E+00  0.49631063009E+03  0.49631063009E+03  0.25500000000E-02 0. -1.
          2   -1    0    0  501    0  0.00000000000E+00 -0.00000000000E+00 -0.83262317676E+03  0.83262317676E+03  0.25500000000E-02 0.  1.
     200001    2    1    2    0    0 -0.30837911671E+02 -0.17060906664E+03 -0.72393636087E+02  0.63938277772E+03  0.61115551825E+03 0.  0.
    5000001    2    3    3    0    0  0.12640816523E+03  0.26247501275E+02 -0.26747034773E+03  0.30511527936E+03  0.69907018402E+02 0.  0.
        -13    1    4    4    0    0  0.59083161358E+02 -0.15883774964E+02 -0.12730358548E+03  0.14124209111E+03  0.10566000000E+00 0. -1.
     200003    1    4    4    0    0  0.67325003876E+02  0.42131276240E+02 -0.14016676226E+03  0.16387318825E+03  0.30000000000E+02 0.  1.
     200000    1    3    3    0    0 -0.15724607690E+03 -0.19685656791E+03  0.19507671165E+03  0.33426749836E+03  0.10100000000E+03 0. -1.
    -200001    1    1    2    0    0  0.30837911671E+02  0.17060906664E+03 -0.26391891058E+03  0.68955102913E+03  0.61300000000E+03 0.  1.
<mgrwt>
<rscale>  0 0.12856745E+04</rscale>
<asrwt>0</asrwt>
<pdfrwt beam="1">  1        2 0.11894617E+00 0.12856745E+04</pdfrwt>
<pdfrwt beam="2">  1       -2 0.70901519E-01 0.12856745E+04</pdfrwt>
<totfact> 0.64072976E+01</totfact>
</mgrwt>
</event>
<event>
 8    1  0.7583103E-052  0.1429664E+04  0.7818608E-02  0.8932622E-01
          2   -1    0    0  501    0  0.00000000000E+00  0.00000000000E+00  0.65239247406E+03  0.65239247407E+03  0.25500000000E-02 0.  1.
         -2   -1    0    0    0  501 -0.00000000000E+00 -0.00000000000E+00 -0.78324790469E+03  0.78324790469E+03  0.25500000000E-02 0. -1.
     200001    2    1    2    0    0  0.22435387643E+03  0.27793823373E+03 -0.14684119128E+03  0.72598633052E+03  0.61474343673E+03 0.  0.
    5000001    2    3    3    0    0  0.11888496874E+03  0.36588926818E+03  0.17113836230E+02  0.48946714315E+03  0.30212018878E+03 0.  0.
        -13    1    4    4    0    0 -0.33064858294E+02  0.60974829312E+02 -0.10541084697E+03  0.12618507236E+03  0.10566000000E+00 0. -1.
     200003    1    4    4    0    0  0.15194982704E+03  0.30491443887E+03  0.12252468320E+03  0.36328207079E+03  0.30000000000E+02 0. -1.
     200000    1    3    3    0    0  0.10546890769E+03 -0.87951034450E+02 -0.16395502751E+03  0.23651918737E+03  0.10100000000E+03 0.  1.
    -200001    1    1    2    0    0 -0.22435387643E+03 -0.27793823373E+03  0.15985760652E+02  0.70965404824E+03  0.61300000000E+03 0.  1.
<mgrwt>
<rscale>  0 0.14296643E+04</rscale>
<asrwt>0</asrwt>
<pdfrwt beam="1">  1        2 0.93198925E-01 0.14296643E+04</pdfrwt>
<pdfrwt beam="2">  1       -2 0.11189256E+00 0.14296643E+04</pdfrwt>
<totfact> 0.30094931E+01</totfact>
</mgrwt>
</event>
<event>
 8    1  0.7583103E-052  0.2308829E+04  0.7818608E-02  0.8474448E-01
          2   -1    0    0  501    0  0.00000000000E+00  0.00000000000E+00  0.17981601103E+04  0.17981601103E+04  0.25500000000E-02 0.  1.
         -2   -1    0    0    0  501 -0.00000000000E+00 -0.00000000000E+00 -0.74113109142E+03  0.74113109142E+03  0.25500000000E-02 0. -1.
     200001    2    1    2    0    0 -0.80210639100E+02  0.60379076508E+03  0.13703132557E+04  0.16200996832E+04  0.61316191190E+03 0.  0.
    5000001    2    3    3    0    0 -0.43098261830E+02  0.35191224336E+03  0.22562713430E+03  0.44310034813E+03  0.14046575236E+03 0.  0.
        -13    1    4    4    0    0 -0.28403950319E+02  0.45544456779E+02 -0.10703807440E+02  0.54732664788E+02  0.10566000000E+00 0. -1.
     200003    1    4    4    0    0 -0.14694311511E+02  0.30636778658E+03  0.23633094174E+03  0.38836768335E+03  0.30000000000E+02 0. -1.
     200000    1    3    3    0    0 -0.37112377270E+02  0.25187852172E+03  0.11446861214E+04  0.11769993351E+04  0.10100000000E+03 0.  1.
    -200001    1    1    2    0    0  0.80210639100E+02 -0.60379076508E+03 -0.31328423683E+03  0.91919151849E+03  0.61300000000E+03 0. -1.
<mgrwt>
<rscale>  0 0.23088286E+04</rscale>
<asrwt>0</asrwt>
<pdfrwt beam="1">  1        2 0.25688002E+00 0.23088286E+04</pdfrwt>
<pdfrwt beam="2">  1       -2 0.10587587E+00 0.23088286E+04</pdfrwt>
<totfact> 0.66939205E+00</totfact>
</mgrwt>
</event>
<event>
 8    1  0.7583103E-052  0.1292030E+04  0.7818608E-02  0.9035909E-01
          2   -1    0    0  501    0  0.00000000000E+00  0.00000000000E+00  0.21077825548E+04  0.21077825548E+04  0.25500000000E-02 0.  1.
         -2   -1    0    0    0  501 -0.00000000000E+00 -0.00000000000E+00 -0.19799739166E+03  0.19799739167E+03  0.25500000000E-02 0. -1.
     200001    2    1    2    0    0 -0.46454380785E+02  0.13936334622E+03  0.71063184130E+03  0.95104091587E+03  0.61473657612E+03 0.  0.
    5000001    2    3    3    0    0 -0.20884857354E+03  0.94857494536E+02  0.41569258224E+02  0.25376164273E+03  0.10025615766E+03 0.  0.
        -13    1    4    4    0    0 -0.10638843356E+03  0.93806420533E+02  0.89396940919E+01  0.14211992339E+03  0.10566000000E+00 0. -1.
     200003    1    4    4    0    0 -0.10246013998E+03  0.10510740029E+01  0.32629564132E+02  0.11164171934E+03  0.30000000000E+02 0. -1.
     200000    1    3    3    0    0  0.16239419276E+03  0.44505851681E+02  0.66906258308E+03  0.69727927314E+03  0.10100000000E+03 0.  1.
    -200001    1    1    2    0    0  0.46454380785E+02 -0.13936334622E+03  0.11991533219E+04  0.13547390306E+04  0.61300000000E+03 0.  1.
<mgrwt>
<rscale>  0 0.12920301E+04</rscale>
<asrwt>0</asrwt>
<pdfrwt beam="1">  1        2 0.30111180E+00 0.12920301E+04</pdfrwt>
<pdfrwt beam="2">  1       -2 0.28285341E-01 0.12920301E+04</pdfrwt>
<totfact> 0.79284705E+01</totfact>
</mgrwt>
</event>
<event>
 8    1  0.7583103E-052  0.1323993E+04  0.7818608E-02  0.9010752E-01
          2   -1    0    0  501    0  0.00000000000E+00  0.00000000000E+00  0.56047695504E+03  0.56047695505E+03  0.25500000000E-02 0.  1.
         -2   -1    0    0    0  501 -0.00000000000E+00 -0.00000000000E+00 -0.78190478504E+03  0.78190478504E+03  0.25500000000E-02 0. -1.
     200001    2    1    2    0    0 -0.24175195135E+03 -0.17546077077E+02 -0.61282600640E+02  0.66402536967E+03  0.61516035603E+03 0.  0.
    5000001    2    3    3    0    0 -0.86735065397E+01  0.89469316046E+01  0.20912481393E+03  0.29207293885E+03  0.20351446264E+03 0.  0.
        -13    1    4    4    0    0  0.77440630174E+02  0.48561279203E+02  0.49319294874E+02  0.10386362718E+03  0.10566000000E+00 0. -1.
     200003    1    4    4    0    0 -0.86114136714E+02 -0.39614347598E+02  0.15980551906E+03  0.18820931167E+03  0.30000000000E+02 0. -1.
     200000    1    3    3    0    0 -0.23307844481E+03 -0.26493008682E+02 -0.27040741457E+03  0.37195243083E+03  0.10100000000E+03 0. -1.
    -200001    1    1    2    0    0  0.24175195135E+03  0.17546077077E+02 -0.16014522936E+03  0.67835637042E+03  0.61300000000E+03 0. -1.
<mgrwt>
<rscale>  0 0.13239934E+04</rscale>
<asrwt>0</asrwt>
<pdfrwt beam="1">  1        2 0.80068137E-01 0.13239934E+04</pdfrwt>
<pdfrwt beam="2">  1       -2 0.11170068E+00 0.13239934E+04</pdfrwt>
<totfact> 0.36479351E+01</totfact>
</mgrwt>
</event>
<event>
 8    1  0.7583103E-052  0.1389777E+04  0.7818608E-02  0.8961252E-01
         -2   -1    0    0    0  501 -0.00000000000E+00  0.00000000000E+00  0.23851728267E+03  0.23851728268E+03  0.25500000000E-02 0. -1.
          2   -1    0    0  501    0  0.00000000000E+00 -0.00000000000E+00 -0.20244651112E+04  0.20244651112E+04  0.25500000000E-02 0.  1.
     200001    2    1    2    0    0  0.31946209035E+03 -0.46323214416E+02 -0.86400053616E+03  0.11097444838E+04  0.61711751347E+03 0.  0.
    5000001    2    3    3    0    0  0.42406123961E+02 -0.27719307161E+03 -0.36941106696E+03  0.48935698994E+03  0.15611357696E+03 0.  0.
        -13    1    4    4    0    0  0.54167912901E+02 -0.29162777522E+02 -0.12665790274E+03  0.14080790415E+03  0.10566000000E+00 0. -1.
     200003    1    4    4    0    0 -0.11761788940E+02 -0.24803029409E+03 -0.24275316422E+03  0.34854908579E+03  0.30000000000E+02 0. -1.
     200000    1    3    3    0    0  0.27705596639E+03  0.23086985720E+03 -0.49458946920E+03  0.62038749384E+03  0.10100000000E+03 0.  1.
    -200001    1    1    2    0    0 -0.31946209035E+03  0.46323214416E+02 -0.92194729233E+03  0.11532379101E+04  0.61300000000E+03 0.  1.
<mgrwt>
<rscale>  0 0.13897768E+04</rscale>
<asrwt>0</asrwt>
<pdfrwt beam="1">  1        2 0.28920929E+00 0.13897768E+04</pdfrwt>
<pdfrwt beam="2">  1       -2 0.34073899E-01 0.13897768E+04</pdfrwt>
<totfact> 0.61273703E+01</totfact>
</mgrwt>
</event>
<event>
 8    1  0.7583103E-052  0.2947020E+04  0.7818608E-02  0.8259024E-01
          2   -1    0    0  501    0  0.00000000000E+00  0.00000000000E+00  0.19808453153E+04  0.19808453153E+04  0.25500000000E-02 0.  1.
         -2   -1    0    0    0  501 -0.00000000000E+00 -0.00000000000E+00 -0.10961137410E+04  0.10961137410E+04  0.25500000000E-02 0. -1.
     200001    2    1    2    0    0 -0.10542408197E+04 -0.32026546984E+03  0.12384956532E+04  0.17674126843E+04  0.61309251881E+03 0.  0.
    5000001    2    3    3    0    0 -0.40714558959E+03 -0.28783705273E+03  0.20815393050E+03  0.54610645548E+03  0.79287463610E+02 0.  0.
        -13    1    4    4    0    0 -0.36389263520E+02 -0.49667456435E+01  0.23718541269E+02  0.43719874494E+02  0.10566000000E+00 0. -1.
     200003    1    4    4    0    0 -0.37075632607E+03 -0.28287030709E+03  0.18443538923E+03  0.50238658098E+03  0.30000000000E+02 0. -1.
     200000    1    3    3    0    0 -0.64709523008E+03 -0.32428417106E+02  0.10303417227E+04  0.12213062288E+04  0.10100000000E+03 0.  1.
    -200001    1    1    2    0    0  0.10542408197E+04  0.32026546984E+03 -0.35376407888E+03  0.13095463720E+04  0.61300000000E+03 0. -1.
<mgrwt>
<rscale>  0 0.29470200E+04</rscale>
<asrwt>0</asrwt>
<pdfrwt beam="1">  1        2 0.28297790E+00 0.29470200E+04</pdfrwt>
<pdfrwt beam="2">  1       -2 0.15658768E+00 0.29470200E+04</pdfrwt>
<totfact> 0.18995412E+00</totfact>
</mgrwt>
</event>
<event>
 8    1  0.7583103E-052  0.1529275E+04  0.7818608E-02  0.8865216E-01
         -2   -1    0    0    0  501 -0.00000000000E+00  0.00000000000E+00  0.38541952165E+03  0.38541952166E+03  0.25500000000E-02 0.  1.
          2   -1    0    0  501    0  0.00000000000E+00 -0.00000000000E+00 -0.15169708128E+04  0.15169708128E+04  0.25500000000E-02 0. -1.
     200001    2    1    2    0    0 -0.15065280623E+03 -0.30836267384E+03 -0.19205531536E+03  0.72927248227E+03  0.61414110967E+03 0.  0.
    5000001    2    3    3    0    0 -0.12564032193E+03  0.12148398918E+03  0.67712377128E+02  0.21636505188E+03  0.10809726887E+03 0.  0.
        -13    1    4    4    0    0 -0.23097014275E+02  0.91027663630E+02  0.23617430325E+02  0.96836469337E+02  0.10566000000E+00 0. -1.
     200003    1    4    4    0    0 -0.10254330766E+03  0.30456325551E+02  0.44094946803E+02  0.11952858255E+03  0.30000000000E+02 0. -1.
     200000    1    3    3    0    0 -0.25012484292E+02 -0.42984666302E+03 -0.25976769249E+03  0.51290743038E+03  0.10100000000E+03 0. -1.
    -200001    1    1    2    0    0  0.15065280623E+03  0.30836267384E+03 -0.93949597580E+03  0.11731178522E+04  0.61300000000E+03 0. -1.
<mgrwt>
<rscale>  0 0.15292746E+04</rscale>
<asrwt>0</asrwt>
<pdfrwt beam="1">  1        2 0.21671011E+00 0.15292746E+04</pdfrwt>
<pdfrwt beam="2">  1       -2 0.55059932E-01 0.15292746E+04</pdfrwt>
<totfact> 0.42880952E+01</totfact>
</mgrwt>
</event>
<event>
 8    1  0.7583103E-052  0.2377661E+04  0.7818608E-02  0.8447915E-01
         -2   -1    0    0    0  501 -0.00000000000E+00  0.00000000000E+00  0.40080824319E+03  0.40080824320E+03  0.25500000000E-02 0. -1.
          2   -1    0    0  501    0  0.00000000000E+00 -0.00000000000E+00 -0.35261692399E+04  0.35261692399E+04  0.25500000000E-02 0.  1.
     200001    2    1    2    0    0 -0.89855982573E+03 -0.39674551509E+03 -0.20079895727E+04  0.23179079808E+04  0.61307301281E+03 0.  0.
    5000001    2    3    3    0    0 -0.48197858717E+03 -0.10696566948E+03 -0.15390624395E+04  0.16196201150E+04  0.10349449861E+03 0.  0.
        -13    1    4    4    0    0 -0.71891953129E+02  0.13755756915E+02 -0.17093628636E+03  0.18594864596E+03  0.10566000000E+00 0. -1.
     200003    1    4    4    0    0 -0.41008663404E+03 -0.12072142639E+03 -0.13681261531E+04  0.14336714690E+04  0.30000000000E+02 0. -1.
     200000    1    3    3    0    0 -0.41658123856E+03 -0.28977984561E+03 -0.46892713322E+03  0.69828786579E+03  0.10100000000E+03 0. -1.
    -200001    1    1    2    0    0  0.89855982573E+03  0.39674551509E+03 -0.11173714240E+04  0.16090695023E+04  0.61300000000E+03 0.  1.
<mgrwt>
<rscale>  0 0.23776608E+04</rscale>
<asrwt>0</asrwt>
<pdfrwt beam="1">  1        2 0.50373844E+00 0.23776608E+04</pdfrwt>
<pdfrwt beam="2">  1       -2 0.57258323E-01 0.23776608E+04</pdfrwt>
<totfact> 0.29997169E+00</totfact>
</mgrwt>
</event>
<event>
 8    1  0.7583103E-052  0.2009731E+04  0.7818608E-02  0.8602084E-01
          2   -1    0    0  501    0  0.00000000000E+00  0.00000000000E+00  0.87993034143E+03  0.87993034144E+03  0.25500000000E-02 0.  1.
         -2   -1    0    0    0  501 -0.00000000000E+00 -0.00000000000E+00 -0.11475398180E+04  0.11475398181E+04  0.25500000000E-02 0. -1.
     200001    2    1    2    0    0 -0.16984949569E+03  0.71819003962E+03 -0.43675067640E+03  0.10532917725E+04  0.61157715825E+03 0.  0.
    5000001    2    3    3    0    0  0.16145672624E+03  0.56453765311E+02 -0.68431999089E+01  0.19150284952E+03  0.85855750669E+02 0.  0.
        -13    1    4    4    0    0  0.11034888805E+03  0.52063683263E+02  0.24302065532E+02  0.12441103553E+03  0.10566000000E+00 0. -1.
     200003    1    4    4    0    0  0.51107838193E+02  0.43900820478E+01 -0.31145265441E+02  0.67091813991E+02  0.30000000000E+02 0. -1.
     200000    1    3    3    0    0 -0.33130622194E+03  0.66173627431E+03 -0.42990747649E+03  0.86178892299E+03  0.10100000000E+03 0.  1.
    -200001    1    1    2    0    0  0.16984949569E+03 -0.71819003962E+03  0.16914119979E+03  0.97417838698E+03  0.61300000000E+03 0. -1.
<mgrwt>
<rscale>  0 0.20097314E+04</rscale>
<asrwt>0</asrwt>
<pdfrwt beam="1">  1        2 0.12570433E+00 0.20097314E+04</pdfrwt>
<pdfrwt beam="2">  1       -2 0.16393426E+00 0.20097314E+04</pdfrwt>
<totfact> 0.73605747E+00</totfact>
</mgrwt>
</event>
<event>
 8    1  0.7583103E-052  0.1672167E+04  0.7818608E-02  0.8777399E-01
         -2   -1    0    0    0  501 -0.00000000000E+00  0.00000000000E+00  0.49686578296E+03  0.49686578296E+03  0.25500000000E-02 0. -1.
          2   -1    0    0  501    0  0.00000000000E+00 -0.00000000000E+00 -0.14068909153E+04  0.14068909153E+04  0.25500000000E-02 0.  1.
     200001    2    1    2    0    0  0.82244016251E+02  0.56178378370E+03 -0.43601393998E+03  0.94312112308E+03  0.61400667677E+03 0.  0.
    5000001    2    3    3    0    0 -0.73600225055E+02  0.61151970888E+03 -0.23951122532E+03  0.66821130756E+03  0.98830041146E+02 0.  0.
        -13    1    4    4    0    0 -0.74858265477E+02  0.39510115694E+03 -0.12258102451E+03  0.42039838589E+03  0.10566000000E+00 0. -1.
     200003    1    4    4    0    0  0.12580404227E+01  0.21641855193E+03 -0.11693020081E+03  0.24781292167E+03  0.30000000000E+02 0.  1.
     200000    1    3    3    0    0  0.15584424131E+03 -0.49735925173E+02 -0.19650271466E+03  0.27490981552E+03  0.10100000000E+03 0.  1.
    -200001    1    1    2    0    0 -0.82244016251E+02 -0.56178378370E+03 -0.47401119240E+03  0.96063557521E+03  0.61300000000E+03 0.  1.
<mgrwt>
<rscale>  0 0.16721674E+04</rscale>
<asrwt>0</asrwt>
<pdfrwt beam="1">  1        2 0.20098441E+00 0.16721674E+04</pdfrwt>
<pdfrwt beam="2">  1       -2 0.70980827E-01 0.16721674E+04</pdfrwt>
<totfact> 0.28275801E+01</totfact>
</mgrwt>
</event>
<event>
 8    1  0.7583103E-052  0.1235739E+04  0.7818608E-02  0.9082137E-01
         -2   -1    0    0    0  501 -0.00000000000E+00  0.00000000000E+00  0.28630908696E+03  0.28630908697E+03  0.25500000000E-02 0. -1.
          2   -1    0    0  501    0  0.00000000000E+00 -0.00000000000E+00 -0.13333933435E+04  0.13333933435E+04  0.25500000000E-02 0.  1.
     200001    2    1    2    0    0  0.62911892102E+02 -0.22703885311E+02 -0.60119395319E+03  0.85874215870E+03  0.60953306161E+03 0.  0.
    5000001    2    3    3    0    0 -0.21290438452E+03 -0.15327993408E+03 -0.29418217068E+03  0.41424023793E+03  0.12739234686E+03 0.  0.
        -13    1    4    4    0    0 -0.15099879416E+03 -0.15984335888E+03 -0.19862909462E+03  0.29631750473E+03  0.10566000000E+00 0. -1.
     200003    1    4    4    0    0 -0.61905590364E+02  0.65634247933E+01 -0.95553076056E+02  0.11792273321E+03  0.30000000000E+02 0.  1.
     200000    1    3    3    0    0  0.27581627662E+03  0.13057604877E+03 -0.30701178251E+03  0.44450192076E+03  0.10100000000E+03 0. -1.
    -200001    1    1    2    0    0 -0.62911892102E+02  0.22703885311E+02 -0.44589030331E+03  0.76096027174E+03  0.61300000000E+03 0. -1.
<mgrwt>
<rscale>  0 0.12357389E+04</rscale>
<asrwt>0</asrwt>
<pdfrwt beam="1">  1        2 0.19048476E+00 0.12357389E+04</pdfrwt>
<pdfrwt beam="2">  1       -2 0.40901299E-01 0.12357389E+04</pdfrwt>
<totfact> 0.10021996E+02</totfact>
</mgrwt>
</event>
<event>
 8    1  0.7583103E-052  0.1497598E+04  0.7818608E-02  0.8886052E-01
          2   -1    0    0  501    0  0.00000000000E+00  0.00000000000E+00  0.57638874956E+03  0.57638874957E+03  0.25500000000E-02 0.  1.
         -2   -1    0    0    0  501 -0.00000000000E+00 -0.00000000000E+00 -0.97278055416E+03  0.97278055416E+03  0.25500000000E-02 0. -1.
     200001    2    1    2    0    0  0.36182932233E+02 -0.39620111593E+03 -0.35591836365E+03  0.81725972716E+03  0.61883038969E+03 0.  0.
    5000001    2    3    3    0    0 -0.52839895238E+02 -0.21700823964E+03 -0.25627792225E+02  0.41810059561E+03  0.35251481347E+03 0.  0.
        -13    1    4    4    0    0 -0.15556888227E+03 -0.96123722838E+02  0.10460236966E+03  0.21067300284E+03  0.10566000000E+00 0. -1.
     200003    1    4    4    0    0  0.10272898703E+03 -0.12088451680E+03 -0.13023016189E+03  0.20742759277E+03  0.30000000000E+02 0. -1.
     200000    1    3    3    0    0  0.89022827471E+02 -0.17919287630E+03 -0.33029057143E+03  0.39915913155E+03  0.10100000000E+03 0. -1.
    -200001    1    1    2    0    0 -0.36182932233E+02  0.39620111593E+03 -0.40473440944E+02  0.73190957657E+03  0.61300000000E+03 0.  1.
<mgrwt>
<rscale>  0 0.14975978E+04</rscale>
<asrwt>0</asrwt>
<pdfrwt beam="1">  1        2 0.82341250E-01 0.14975978E+04</pdfrwt>
<pdfrwt beam="2">  1       -2 0.13896865E+00 0.14975978E+04</pdfrwt>
<totfact> 0.20163383E+01</totfact>
</mgrwt>
</event>
<event>
 8    1  0.7583103E-052  0.1571884E+04  0.7818608E-02  0.8838009E-01
         -2   -1    0    0    0  501 -0.00000000000E+00  0.00000000000E+00  0.26928431224E+03  0.26928431225E+03  0.25500000000E-02 0.  1.
          2   -1    0    0  501    0  0.00000000000E+00 -0.00000000000E+00 -0.22938754894E+04  0.22938754894E+04  0.25500000000E-02 0. -1.
     200001    2    1    2    0    0  0.41800488968E+03  0.52014487185E+02 -0.14259091509E+04  0.16083704200E+04  0.61335544900E+03 0.  0.
    5000001    2    3    3    0    0  0.13311821594E+03 -0.76686937944E+01  0.39512532342E-01  0.14951707249E+03  0.67646767292E+02 0.  0.
        -13    1    4    4    0    0  0.10432714510E+03 -0.12873544937E+02 -0.12293906670E+02  0.10583493123E+03  0.10566000000E+00 0. -1.
     200003    1    4    4    0    0  0.28791070840E+02  0.52048511429E+01  0.12333419202E+02  0.43682141256E+02  0.30000000000E+02 0.  1.
     200000    1    3    3    0    0  0.28488667374E+03  0.59683180980E+02 -0.14259486634E+04  0.14588533476E+04  0.10100000000E+03 0. -1.
    -200001    1    1    2    0    0 -0.41800488968E+03 -0.52014487185E+02 -0.59868202629E+03  0.95478938163E+03  0.61300000000E+03 0.  1.
<mgrwt>
<rscale>  0 0.15718838E+04</rscale>
<asrwt>0</asrwt>
<pdfrwt beam="1">  1        2 0.32769649E+00 0.15718838E+04</pdfrwt>
<pdfrwt beam="2">  1       -2 0.38469189E-01 0.15718838E+04</pdfrwt>
<totfact> 0.34753506E+01</totfact>
</mgrwt>
</event>
<event>
 8    1  0.7583103E-052  0.1355603E+04  0.7818608E-02  0.8986597E-01
          2   -1    0    0  501    0  0.00000000000E+00  0.00000000000E+00  0.12139857281E+04  0.12139857281E+04  0.25500000000E-02 0.  1.
         -2   -1    0    0    0  501 -0.00000000000E+00 -0.00000000000E+00 -0.37843533584E+03  0.37843533585E+03  0.25500000000E-02 0. -1.
     200001    2    1    2    0    0 -0.10703799236E+03 -0.56597546287E+02  0.72614296379E+03  0.95807147624E+03  0.61315327258E+03 0.  0.
    5000001    2    3    3    0    0 -0.32476227313E+03 -0.14769881693E+03  0.36713837541E+03  0.51672286298E+03  0.70188716012E+02 0.  0.
        -13    1    4    4    0    0 -0.12809727920E+03 -0.37467095181E+02  0.10608069655E+03  0.17048701271E+03  0.10566000000E+00 0. -1.
     200003    1    4    4    0    0 -0.19666499394E+03 -0.11023172175E+03  0.26105767886E+03  0.34623585027E+03  0.30000000000E+02 0. -1.
     200000    1    3    3    0    0  0.21772428077E+03  0.91101270644E+02  0.35900458837E+03  0.44134861326E+03  0.10100000000E+03 0. -1.
    -200001    1    1    2    0    0  0.10703799236E+03  0.56597546287E+02  0.10940742851E+03  0.63434958774E+03  0.61300000000E+03 0. -1.
<mgrwt>
<rscale>  0 0.13556033E+04</rscale>
<asrwt>0</asrwt>
<pdfrwt beam="1">  1        2 0.17342653E+00 0.13556033E+04</pdfrwt>
<pdfrwt beam="2">  1       -2 0.54062190E-01 0.13556033E+04</pdfrwt>
<totfact> 0.66063663E+01</totfact>
</mgrwt>
</event>
<event>
 8    1  0.7583103E-052  0.1725290E+04  0.7818608E-02  0.8747071E-01
         -2   -1    0    0    0  501 -0.00000000000E+00  0.00000000000E+00  0.25127586608E+03  0.25127586609E+03  0.25500000000E-02 0. -1.
          2   -1    0    0  501    0  0.00000000000E+00 -0.00000000000E+00 -0.29615114563E+04  0.29615114563E+04  0.25500000000E-02 0.  1.
     200001    2    1    2    0    0  0.22708356218E+03  0.47913985323E+03 -0.79887100428E+03  0.11366790585E+04  0.61049361773E+03 0.  0.
    5000001    2    3    3    0    0  0.13180052346E+03  0.59840648298E+03 -0.67840789888E+03  0.91755410277E+03  0.78781707228E+02 0.  0.
        -13    1    4    4    0    0  0.77087155813E+02  0.41253753617E+03 -0.49639917149E+03  0.65003215072E+03  0.10566000000E+00 0. -1.
     200003    1    4    4    0    0  0.54713367645E+02  0.18586894680E+03 -0.18200872739E+03  0.26752195206E+03  0.30000000000E+02 0. -1.
     200000    1    3    3    0    0  0.95283038726E+02 -0.11926662975E+03 -0.12046310539E+03  0.21912495568E+03  0.10100000000E+03 0.  1.
    -200001    1    1    2    0    0 -0.22708356218E+03 -0.47913985323E+03 -0.19113645859E+04  0.20761082639E+04  0.61300000000E+03 0. -1.
<mgrwt>
<rscale>  0 0.17252900E+04</rscale>
<asrwt>0</asrwt>
<pdfrwt beam="1">  1        2 0.42307304E+00 0.17252900E+04</pdfrwt>
<pdfrwt beam="2">  1       -2 0.35896554E-01 0.17252900E+04</pdfrwt>
<totfact> 0.17261970E+01</totfact>
</mgrwt>
</event>
<event>
 8    1  0.7583103E-052  0.2026730E+04  0.7818608E-02  0.8594224E-01
          2   -1    0    0  501    0  0.00000000000E+00  0.00000000000E+00  0.15912154482E+04  0.15912154482E+04  0.25500000000E-02 0.  1.
         -2   -1    0    0    0  501 -0.00000000000E+00 -0.00000000000E+00 -0.64536139273E+03  0.64536139274E+03  0.25500000000E-02 0. -1.
     200001    2    1    2    0    0  0.18479106177E+03 -0.99381693692E+02 -0.38657591103E+03  0.75496856843E+03  0.61360585622E+03 0.  0.
    5000001    2    3    3    0    0  0.57969192721E+02 -0.20435483727E+02  0.15423362427E+03  0.18488765838E+03  0.81347397414E+02 0.  0.
        -13    1    4    4    0    0  0.57283167652E+02 -0.17333639084E+02  0.55404312637E+02  0.81556516374E+02  0.10566000000E+00 0. -1.
     200003    1    4    4    0    0  0.68602506925E+00 -0.31018446429E+01  0.98829311634E+02  0.10333114201E+03  0.30000000000E+02 0. -1.
     200000    1    3    3    0    0  0.12682186905E+03 -0.78946209965E+02 -0.54080953530E+03  0.57008091005E+03  0.10100000000E+03 0. -1.
    -200001    1    1    2    0    0 -0.18479106177E+03  0.99381693692E+02  0.13324299665E+04  0.14816082725E+04  0.61300000000E+03 0.  1.
<mgrwt>
<rscale>  0 0.20267304E+04</rscale>
<asrwt>0</asrwt>
<pdfrwt beam="1">  1        2 0.22731649E+00 0.20267304E+04</pdfrwt>
<pdfrwt beam="2">  1       -2 0.92194484E-01 0.20267304E+04</pdfrwt>
<totfact> 0.12168968E+01</totfact>
</mgrwt>
</event>
<event>
 8    1  0.7583103E-052  0.1598010E+04  0.7818608E-02  0.8821772E-01
         -2   -1    0    0    0  501 -0.00000000000E+00  0.00000000000E+00  0.27972817793E+03  0.27972817794E+03  0.25500000000E-02 0. -1.
          2   -1    0    0  501    0  0.00000000000E+00 -0.00000000000E+00 -0.22822465016E+04  0.22822465016E+04  0.25500000000E-02 0.  1.
     200001    2    1    2    0    0 -0.26976848047E+03  0.20746725040E+03 -0.38709765029E+03  0.80096058391E+03  0.61308692130E+03 0.  0.
    5000001    2    3    3    0    0 -0.23253326474E+03  0.89777197309E+02 -0.52814760610E+03  0.58804393373E+03  0.68732159808E+02 0.  0.
        -13    1    4    4    0    0 -0.16303434941E+03  0.74279084113E+02 -0.33258542314E+03  0.37777063977E+03  0.10566000000E+00 0. -1.
     200003    1    4    4    0    0 -0.69498915322E+02  0.15498113195E+02 -0.19556218297E+03  0.21027329395E+03  0.30000000000E+02 0.  1.
     200000    1    3    3    0    0 -0.37235215736E+02  0.11769005309E+03  0.14104995582E+03  0.21291665018E+03  0.10100000000E+03 0. -1.
    -200001    1    1    2    0    0  0.26976848047E+03 -0.20746725040E+03 -0.16154206734E+04  0.17610140957E+04  0.61300000000E+03 0.  1.
<mgrwt>
<rscale>  0 0.15980096E+04</rscale>
<asrwt>0</asrwt>
<pdfrwt beam="1">  1        2 0.32603520E+00 0.15980096E+04</pdfrwt>
<pdfrwt beam="2">  1       -2 0.39961170E-01 0.15980096E+04</pdfrwt>
<totfact> 0.32652729E+01</totfact>
</mgrwt>
</event>
<event>
 8    1  0.7583103E-052  0.1749320E+04  0.7818608E-02  0.8733725E-01
          2   -1    0    0  501    0  0.00000000000E+00  0.00000000000E+00  0.29787448307E+04  0.29787448307E+04  0.25500000000E-02 0.  1.
         -2   -1    0    0    0  501 -0.00000000000E+00 -0.00000000000E+00 -0.25682959860E+03  0.25682959861E+03  0.25500000000E-02 0. -1.
     200001    2    1    2    0    0  0.13761677200E+03  0.43236608471E+03  0.21532416088E+04  0.22842398420E+04  0.61271806152E+03 0.  0.
    5000001    2    3    3    0    0 -0.82406392777E+01  0.53630434777E+03  0.13288323820E+04  0.14345757201E+04  0.67243851229E+02 0.  0.
        -13    1    4    4    0    0  0.15669894351E+02  0.34863593591E+03  0.85079423220E+03  0.91958871138E+03  0.10566000000E+00 0. -1.
     200003    1    4    4    0    0 -0.23910533629E+02  0.18766841186E+03  0.47803814982E+03  0.51498700868E+03  0.30000000000E+02 0.  1.
     200000    1    3    3    0    0  0.14585741127E+03 -0.10393826306E+03  0.82440922680E+03  0.84966412198E+03  0.10100000000E+03 0. -1.
    -200001    1    1    2    0    0 -0.13761677200E+03 -0.43236608471E+03  0.56867362333E+03  0.95133458731E+03  0.61300000000E+03 0. -1.
<mgrwt>
<rscale>  0 0.17493197E+04</rscale>
<asrwt>0</asrwt>
<pdfrwt beam="1">  1        2 0.42553496E+00 0.17493197E+04</pdfrwt>
<pdfrwt beam="2">  1       -2 0.36689944E-01 0.17493197E+04</pdfrwt>
<totfact> 0.16156520E+01</totfact>
</mgrwt>
</event>
<event>
 8    1  0.7583103E-052  0.2153443E+04  0.7818608E-02  0.8538060E-01
          2   -1    0    0  501    0  0.00000000000E+00  0.00000000000E+00  0.23389661697E+04  0.23389661697E+04  0.25500000000E-02 0.  1.
         -2   -1    0    0    0  501 -0.00000000000E+00 -0.00000000000E+00 -0.49565890649E+03  0.49565890650E+03  0.25500000000E-02 0. -1.
     200001    2    1    2    0    0  0.31316922822E+03  0.70764516819E+03  0.14918704436E+04  0.17867159734E+04  0.60649806233E+03 0.  0.
    5000001    2    3    3    0    0  0.32852898059E+03  0.68386269690E+03  0.87404282572E+03  0.11600474060E+04  0.78483398043E+02 0.  0.
        -13    1    4    4    0    0  0.17848845367E+03  0.37072036215E+03  0.52202909796E+03  0.66468496695E+03  0.10566000000E+00 0. -1.
     200003    1    4    4    0    0  0.15004052693E+03  0.31314233475E+03  0.35201372776E+03  0.49536243909E+03  0.30000000000E+02 0. -1.
     200000    1    3    3    0    0 -0.15359752371E+02  0.23782471297E+02  0.61782761785E+03  0.62666856736E+03  0.10100000000E+03 0.  1.
    -200001    1    1    2    0    0 -0.31316922822E+03 -0.70764516819E+03  0.35143681966E+03  0.10479091028E+04  0.61300000000E+03 0. -1.
<mgrwt>
<rscale>  0 0.21534432E+04</rscale>
<asrwt>0</asrwt>
<pdfrwt beam="1">  1        2 0.33413802E+00 0.21534432E+04</pdfrwt>
<pdfrwt beam="2">  1       -2 0.70808415E-01 0.21534432E+04</pdfrwt>
<totfact> 0.89448045E+00</totfact>
</mgrwt>
</event>
<event>
 8    1  0.7583103E-052  0.1474582E+04  0.7818608E-02  0.8901534E-01
         -2   -1    0    0    0  501 -0.00000000000E+00  0.00000000000E+00  0.76958882440E+03  0.76958882440E+03  0.25500000000E-02 0. -1.
          2   -1    0    0  501    0  0.00000000000E+00 -0.00000000000E+00 -0.70634831877E+03  0.70634831877E+03  0.25500000000E-02 0.  1.
     200001    2    1    2    0    0  0.30428394261E+03  0.11250885843E+03 -0.22013798340E+03  0.72672467064E+03  0.61189954586E+03 0.  0.
    5000001    2    3    3    0    0  0.14709589020E+03  0.28019278008E+02 -0.41237600203E+03  0.44564989620E+03  0.78278873774E+02 0.  0.
        -13    1    4    4    0    0  0.31977319989E+02 -0.22522415209E+02 -0.80716977366E+02  0.89694201483E+02  0.10566000000E+00 0. -1.
     200003    1    4    4    0    0  0.11511857021E+03  0.50541693217E+02 -0.33165902467E+03  0.35595569472E+03  0.30000000000E+02 0. -1.
     200000    1    3    3    0    0  0.15718805241E+03  0.84489580419E+02  0.19223801863E+03  0.28107477444E+03  0.10100000000E+03 0. -1.
    -200001    1    1    2    0    0 -0.30428394261E+03 -0.11250885843E+03  0.28337848903E+03  0.74921247253E+03  0.61300000000E+03 0. -1.
<mgrwt>
<rscale>  0 0.14745817E+04</rscale>
<asrwt>0</asrwt>
<pdfrwt beam="1">  1        2 0.10090690E+00 0.14745817E+04</pdfrwt>
<pdfrwt beam="2">  1       -2 0.10994126E+00 0.14745817E+04</pdfrwt>
<totfact> 0.28400283E+01</totfact>
</mgrwt>
</event>
<event>
 8    1  0.7583103E-052  0.1737150E+04  0.7818608E-02  0.8740456E-01
         -2   -1    0    0    0  501 -0.00000000000E+00  0.00000000000E+00  0.46925932573E+03  0.46925932573E+03  0.25500000000E-02 0. -1.
          2   -1    0    0  501    0  0.00000000000E+00 -0.00000000000E+00 -0.16076871073E+04  0.16076871073E+04  0.25500000000E-02 0.  1.
     200001    2    1    2    0    0 -0.44024074646E+03 -0.42761757477E+03 -0.53008156752E+03  0.10174546581E+04  0.61445814171E+03 0.  0.
    5000001    2    3    3    0    0 -0.24185190567E+03 -0.54510622020E+03 -0.31905944099E+03  0.68898388031E+03  0.13140291046E+03 0.  0.
        -13    1    4    4    0    0 -0.24079490793E+03 -0.44333044513E+03 -0.26057385042E+03  0.56782287199E+03  0.10566000000E+00 0. -1.
     200003    1    4    4    0    0 -0.10569977345E+01 -0.10177577506E+03 -0.58485590565E+02  0.12116100832E+03  0.30000000000E+02 0.  1.
     200000    1    3    3    0    0 -0.19838884079E+03  0.11748864543E+03 -0.21102212653E+03  0.32847077776E+03  0.10100000000E+03 0.  1.
    -200001    1    1    2    0    0  0.44024074646E+03  0.42761757477E+03 -0.60834621410E+03  0.10594917750E+04  0.61300000000E+03 0. -1.
<mgrwt>
<rscale>  0 0.17371496E+04</rscale>
<asrwt>0</asrwt>
<pdfrwt beam="1">  1        2 0.22966958E+00 0.17371496E+04</pdfrwt>
<pdfrwt beam="2">  1       -2 0.67037047E-01 0.17371496E+04</pdfrwt>
<totfact> 0.24908840E+01</totfact>
</mgrwt>
</event>
<event>
 8    1  0.7583103E-052  0.1281145E+04  0.7818608E-02  0.9044652E-01
          2   -1    0    0  501    0  0.00000000000E+00  0.00000000000E+00  0.12005120626E+04  0.12005120626E+04  0.25500000000E-02 0.  1.
         -2   -1    0    0    0  501 -0.00000000000E+00 -0.00000000000E+00 -0.34179842863E+03  0.34179842863E+03  0.25500000000E-02 0. -1.
     200001    2    1    2    0    0  0.64579594527E+02  0.11055276641E+03  0.58391558148E+03  0.85844251578E+03  0.61609553513E+03 0.  0.
    5000001    2    3    3    0    0 -0.19692277425E+03 -0.74488622070E+02  0.43568836692E+03  0.49129661636E+03  0.84975751488E+02 0.  0.
        -13    1    4    4    0    0 -0.86513872439E+02 -0.21217576088E+02  0.10708761986E+03  0.13929323440E+03  0.10566000000E+00 0. -1.
     200003    1    4    4    0    0 -0.11040890181E+03 -0.53271045982E+02  0.32860074707E+03  0.35200338196E+03  0.30000000000E+02 0. -1.
     200000    1    3    3    0    0  0.26150236877E+03  0.18504138848E+03  0.14822721456E+03  0.36714589942E+03  0.10100000000E+03 0.  1.
    -200001    1    1    2    0    0 -0.64579594527E+02 -0.11055276641E+03  0.27479805248E+03  0.68386797544E+03  0.61300000000E+03 0.  1.
<mgrwt>
<rscale>  0 0.12811450E+04</rscale>
<asrwt>0</asrwt>
<pdfrwt beam="1">  1        2 0.17150172E+00 0.12811450E+04</pdfrwt>
<pdfrwt beam="2">  1       -2 0.48828347E-01 0.12811450E+04</pdfrwt>
<totfact> 0.83266506E+01</totfact>
</mgrwt>
</event>
<event>
 8    1  0.7583103E-052  0.1490448E+04  0.7818608E-02  0.8890830E-01
         -2   -1    0    0    0  501 -0.00000000000E+00  0.00000000000E+00  0.18391309781E+03  0.18391309783E+03  0.25500000000E-02 0. -1.
          2   -1    0    0  501    0  0.00000000000E+00 -0.00000000000E+00 -0.30196808673E+04  0.30196808673E+04  0.25500000000E-02 0.  1.
     200001    2    1    2    0    0 -0.23925241385E+03 -0.57121256532E+02 -0.67669572778E+03  0.94574861241E+03  0.61320369732E+03 0.  0.
    5000001    2    3    3    0    0  0.14033030149E+03  0.10182541040E+03 -0.55613201623E+02  0.19388985905E+03  0.66629134217E+02 0.  0.
        -13    1    4    4    0    0  0.31650030779E+02 -0.29620299388E+01 -0.81487865233E+01  0.32816336717E+02  0.10566000000E+00 0. -1.
     200003    1    4    4    0    0  0.10868027071E+03  0.10478744034E+03 -0.47464415100E+02  0.16107352233E+03  0.30000000000E+02 0. -1.
     200000    1    3    3    0    0 -0.37958271534E+03 -0.15894666693E+03 -0.62108252616E+03  0.75185875337E+03  0.10100000000E+03 0. -1.
    -200001    1    1    2    0    0  0.23925241385E+03  0.57121256532E+02 -0.21590720417E+04  0.22578453527E+04  0.61300000000E+03 0.  1.
<mgrwt>
<rscale>  0 0.14904481E+04</rscale>
<asrwt>0</asrwt>
<pdfrwt beam="1">  1        2 0.43138295E+00 0.14904481E+04</pdfrwt>
<pdfrwt beam="2">  1       -2 0.26273301E-01 0.14904481E+04</pdfrwt>
<totfact> 0.29328693E+01</totfact>
</mgrwt>
</event>
<event>
 8    1  0.7583103E-052  0.1743030E+04  0.7818608E-02  0.8737196E-01
         -2   -1    0    0    0  501 -0.00000000000E+00  0.00000000000E+00  0.83374925384E+03  0.83374925385E+03  0.25500000000E-02 0. -1.
          2   -1    0    0  501    0  0.00000000000E+00 -0.00000000000E+00 -0.91099170492E+03  0.91099170492E+03  0.25500000000E-02 0.  1.
     200001    2    1    2    0    0 -0.51920655637E+03  0.32922304986E+03  0.38107457858E+02  0.86893397876E+03  0.61288727867E+03 0.  0.
    5000001    2    3    3    0    0 -0.63383886547E+03  0.30383284279E+03  0.71017399728E+02  0.71060112311E+03  0.76448553685E+02 0.  0.
        -13    1    4    4    0    0 -0.44105648824E+03  0.18854357168E+03  0.63555151676E+02  0.48385821550E+03  0.10566000000E+00 0. -1.
     200003    1    4    4    0    0 -0.19278237723E+03  0.11528927111E+03  0.74622480519E+01  0.22674290761E+03  0.30000000000E+02 0.  1.
     200000    1    3    3    0    0  0.11463230910E+03  0.25390207065E+02 -0.32909941870E+02  0.15833285565E+03  0.10100000000E+03 0. -1.
    -200001    1    1    2    0    0  0.51920655637E+03 -0.32922304986E+03 -0.11534990893E+03  0.87580698001E+03  0.61300000000E+03 0.  1.
<mgrwt>
<rscale>  0 0.17430303E+04</rscale>
<asrwt>0</asrwt>
<pdfrwt beam="1">  1        2 0.13014167E+00 0.17430303E+04</pdfrwt>
<pdfrwt beam="2">  1       -2 0.11910704E+00 0.17430303E+04</pdfrwt>
<totfact> 0.16456718E+01</totfact>
</mgrwt>
</event>
<event>
 8    1  0.7583103E-052  0.1381225E+04  0.7818608E-02  0.8967522E-01
          2   -1    0    0  501    0  0.00000000000E+00  0.00000000000E+00  0.37619016582E+03  0.37619016582E+03  0.25500000000E-02 0.  1.
         -2   -1    0    0    0  501 -0.00000000000E+00 -0.00000000000E+00 -0.12678309568E+04  0.12678309568E+04  0.25500000000E-02 0. -1.
     200001    2    1    2    0    0 -0.18795632175E+03  0.59709350822E+02 -0.14537126040E+03  0.65833354648E+03  0.61104620906E+03 0.  0.
    5000001    2    3    3    0    0 -0.26141460002E+03  0.18030055207E+03 -0.28510009821E+03  0.43548044558E+03  0.86690658693E+02 0.  0.
        -13    1    4    4    0    0 -0.27834845679E+02  0.29150342095E+02 -0.76447713718E+02  0.86422133594E+02  0.10566000000E+00 0. -1.
     200003    1    4    4    0    0 -0.23357975434E+03  0.15115020998E+03 -0.20865238449E+03  0.34905831199E+03  0.30000000000E+02 0. -1.
     200000    1    3    3    0    0  0.73458278266E+02 -0.12059120125E+03  0.13972883781E+03  0.22285310090E+03  0.10100000000E+03 0.  1.
    -200001    1    1    2    0    0  0.18795632175E+03 -0.59709350822E+02 -0.74626953054E+03  0.98568757610E+03  0.61300000000E+03 0. -1.
<mgrwt>
<rscale>  0 0.13812249E+04</rscale>
<asrwt>0</asrwt>
<pdfrwt beam="1">  1        2 0.53741453E-01 0.13812249E+04</pdfrwt>
<pdfrwt beam="2">  1       -2 0.18111871E+00 0.13812249E+04</pdfrwt>
<totfact> 0.16091919E+01</totfact>
</mgrwt>
</event>
<event>
 8    1  0.7583103E-052  0.1514964E+04  0.7818608E-02  0.8874563E-01
          2   -1    0    0  501    0  0.00000000000E+00  0.00000000000E+00  0.63242901677E+03  0.63242901677E+03  0.25500000000E-02 0. -1.
         -2   -1    0    0    0  501 -0.00000000000E+00 -0.00000000000E+00 -0.90726194702E+03  0.90726194703E+03  0.25500000000E-02 0.  1.
     200001    2    1    2    0    0  0.36188695519E+03  0.49805870271E+02 -0.39536561354E+03  0.81599218614E+03  0.61325890651E+03 0.  0.
    5000001    2    3    3    0    0  0.11318095854E+03 -0.15204307068E+03 -0.43203682063E+03  0.47814096864E+03  0.77691355970E+02 0.  0.
        -13    1    4    4    0    0  0.85933919335E+02 -0.90599865639E+02 -0.32568042473E+03  0.34879897414E+03  0.10566000000E+00 0. -1.
     200003    1    4    4    0    0  0.27247039202E+02 -0.61443205045E+02 -0.10635639589E+03  0.12934199449E+03  0.30000000000E+02 0.  1.
     200000    1    3    3    0    0  0.24870599666E+03  0.20184894096E+03  0.36671207086E+02  0.33785121750E+03  0.10100000000E+03 0. -1.
    -200001    1    1    2    0    0 -0.36188695519E+03 -0.49805870271E+02  0.12053268329E+03  0.72369877766E+03  0.61300000000E+03 0. -1.
<mgrwt>
<rscale>  0 0.15149637E+04</rscale>
<asrwt>0</asrwt>
<pdfrwt beam="1">  1        2 0.90347003E-01 0.15149637E+04</pdfrwt>
<pdfrwt beam="2">  1       -2 0.12960885E+00 0.15149637E+04</pdfrwt>
<totfact> 0.21556693E+01</totfact>
</mgrwt>
</event>
<event>
 8    1  0.7583103E-052  0.1881490E+04  0.7818608E-02  0.8664125E-01
          2   -1    0    0  501    0  0.00000000000E+00  0.00000000000E+00  0.20430275525E+04  0.20430275525E+04  0.25500000000E-02 0.  1.
         -2   -1    0    0    0  501 -0.00000000000E+00 -0.00000000000E+00 -0.43318109200E+03  0.43318109201E+03  0.25500000000E-02 0. -1.
     200001    2    1    2    0    0 -0.60018182553E+03 -0.26726003662E+03  0.42271339258E+03  0.98734999715E+03  0.60376092432E+03 0.  0.
    5000001    2    3    3    0    0 -0.67410629562E+03 -0.16804191045E+03  0.27461398696E+03  0.76953471352E+03  0.18469827294E+03 0.  0.
        -13    1    4    4    0    0 -0.36389445673E+03 -0.96243612946E+02  0.24327760593E+03  0.44818078203E+03  0.10566000000E+00 0. -1.
     200003    1    4    4    0    0 -0.31021183889E+03 -0.71798297508E+02  0.31336381031E+02  0.32135393150E+03  0.30000000000E+02 0. -1.
     200000    1    3    3    0    0  0.73924470082E+02 -0.99218126169E+02  0.14809940562E+03  0.21781528363E+03  0.10100000000E+03 0.  1.
    -200001    1    1    2    0    0  0.60018182553E+03  0.26726003662E+03  0.11871330680E+04  0.14888586474E+04  0.61300000000E+03 0.  1.
<mgrwt>
<rscale>  0 0.18814897E+04</rscale>
<asrwt>0</asrwt>
<pdfrwt beam="1">  1        2 0.29186108E+00 0.18814897E+04</pdfrwt>
<pdfrwt beam="2">  1       -2 0.61883012E-01 0.18814897E+04</pdfrwt>
<totfact> 0.17396712E+01</totfact>
</mgrwt>
</event>
<event>
 8    1  0.7583103E-052  0.1543656E+04  0.7818608E-02  0.8855930E-01
          2   -1    0    0  501    0  0.00000000000E+00  0.00000000000E+00  0.10050634370E+04  0.10050634370E+04  0.25500000000E-02 0.  1.
         -2   -1    0    0    0  501 -0.00000000000E+00 -0.00000000000E+00 -0.59271743779E+03  0.59271743780E+03  0.25500000000E-02 0. -1.
     200001    2    1    2    0    0  0.46707877093E+03  0.19504869898E+02  0.23711697122E+03  0.80720056233E+03  0.61384466404E+03 0.  0.
    5000001    2    3    3    0    0  0.25748198144E+03  0.14847276375E+02  0.39098655372E+03  0.52822143091E+03  0.24419251116E+03 0.  0.
        -13    1    4    4    0    0  0.11910288734E+03 -0.10740976918E+03  0.12651256305E+03  0.20427382618E+03  0.10566000000E+00 0. -1.
     200003    1    4    4    0    0  0.13837909410E+03  0.12225704556E+03  0.26447399067E+03  0.32394760473E+03  0.30000000000E+02 0. -1.
     200000    1    3    3    0    0  0.20959678950E+03  0.46575935230E+01 -0.15386958250E+03  0.27897913141E+03  0.10100000000E+03 0. -1.
    -200001    1    1    2    0    0 -0.46707877093E+03 -0.19504869898E+02  0.17522902796E+03  0.79058031246E+03  0.61300000000E+03 0.  1.
<mgrwt>
<rscale>  0 0.15436562E+04</rscale>
<asrwt>0</asrwt>
<pdfrwt beam="1">  1        2 0.14358049E+00 0.15436562E+04</pdfrwt>
<pdfrwt beam="2">  1       -2 0.84673920E-01 0.15436562E+04</pdfrwt>
<totfact> 0.32713860E+01</totfact>
</mgrwt>
</event>
<event>
 8    1  0.7583103E-052  0.1403833E+04  0.7818608E-02  0.8951049E-01
          2   -1    0    0  501    0  0.00000000000E+00  0.00000000000E+00  0.64268540831E+03  0.64268540832E+03  0.25500000000E-02 0.  1.
         -2   -1    0    0    0  501 -0.00000000000E+00 -0.00000000000E+00 -0.76660639473E+03  0.76660639474E+03  0.25500000000E-02 0. -1.
     200001    2    1    2    0    0 -0.65490484733E+02 -0.14002053520E+03 -0.37063375664E+03  0.73066749988E+03  0.61041859404E+03 0.  0.
    5000001    2    3    3    0    0 -0.28165411726E+02 -0.44995024583E+02 -0.51648515247E+03  0.52598081637E+03  0.84149057092E+02 0.  0.
        -13    1    4    4    0    0  0.10223859653E+02 -0.36759602212E+02 -0.35657390823E+03  0.35860947959E+03  0.10566000000E+00 0. -1.
     200003    1    4    4    0    0 -0.38389271378E+02 -0.82354223719E+01 -0.15991124424E+03  0.16737133677E+03  0.30000000000E+02 0.  1.
     200000    1    3    3    0    0 -0.37325073007E+02 -0.95025510616E+02  0.14585139583E+03  0.20468668351E+03  0.10100000000E+03 0.  1.
    -200001    1    1    2    0    0  0.65490484733E+02  0.14002053520E+03  0.24671277022E+03  0.67862430317E+03  0.61300000000E+03 0.  1.
<mgrwt>
<rscale>  0 0.14038330E+04</rscale>
<asrwt>0</asrwt>
<pdfrwt beam="1">  1        2 0.91812201E-01 0.14038330E+04</pdfrwt>
<pdfrwt beam="2">  1       -2 0.10951520E+00 0.14038330E+04</pdfrwt>
<totfact> 0.32345058E+01</totfact>
</mgrwt>
</event>
<event>
 8    1  0.7583103E-052  0.2078088E+04  0.7818608E-02  0.8570958E-01
          2   -1    0    0  501    0  0.00000000000E+00  0.00000000000E+00  0.31433425280E+04  0.31433425280E+04  0.25500000000E-02 0.  1.
         -2   -1    0    0    0  501 -0.00000000000E+00 -0.00000000000E+00 -0.34346006954E+03  0.34346006955E+03  0.25500000000E-02 0. -1.
     200001    2    1    2    0    0  0.16255551667E+03 -0.11826108805E+03  0.33335814061E+02  0.64603521592E+03  0.61305810716E+03 0.  0.
    5000001    2    3    3    0    0 -0.41081971895E+02  0.76873525520E+02 -0.22072394507E+03  0.25323360521E+03  0.88379474653E+02 0.  0.
        -13    1    4    4    0    0  0.17580145568E+01  0.65790352638E+02 -0.86025375180E+02  0.10831360697E+03  0.10566000000E+00 0. -1.
     200003    1    4    4    0    0 -0.42839986451E+02  0.11083172882E+02 -0.13469856989E+03  0.14491999824E+03  0.30000000000E+02 0. -1.
     200000    1    3    3    0    0  0.20363748856E+03 -0.19513461357E+03  0.25405975913E+03  0.39280161071E+03  0.10100000000E+03 0.  1.
    -200001    1    1    2    0    0 -0.16255551667E+03  0.11826108805E+03  0.27665466444E+04  0.28407673816E+04  0.61300000000E+03 0.  1.
<mgrwt>
<rscale>  0 0.20780882E+04</rscale>
<asrwt>0</asrwt>
<pdfrwt beam="1">  1        2 0.44904893E+00 0.20780882E+04</pdfrwt>
<pdfrwt beam="2">  1       -2 0.49065725E-01 0.20780882E+04</pdfrwt>
<totfact> 0.71365643E+00</totfact>
</mgrwt>
</event>
<event>
 8    1  0.7583103E-052  0.1377455E+04  0.7818608E-02  0.8970302E-01
         -2   -1    0    0    0  501 -0.00000000000E+00  0.00000000000E+00  0.25692447068E+03  0.25692447069E+03  0.25500000000E-02 0. -1.
          2   -1    0    0  501    0  0.00000000000E+00 -0.00000000000E+00 -0.18462446444E+04  0.18462446444E+04  0.25500000000E-02 0.  1.
     200001    2    1    2    0    0  0.12223246936E+03  0.28462035649E+03 -0.86489196430E+03  0.11049132589E+04  0.61387757395E+03 0.  0.
    5000001    2    3    3    0    0  0.27175941914E+03  0.33914137888E+03 -0.41301575845E+03  0.61529712758E+03  0.13834190157E+03 0.  0.
        -13    1    4    4    0    0  0.11328477503E+03  0.21832588121E+03 -0.16710118340E+03  0.29735912180E+03  0.10566000000E+00 0. -1.
     200003    1    4    4    0    0  0.15847464411E+03  0.12081549767E+03 -0.24591457505E+03  0.31793800578E+03  0.30000000000E+02 0. -1.
     200000    1    3    3    0    0 -0.14952694978E+03 -0.54521022386E+02 -0.45187620585E+03  0.48961613128E+03  0.10100000000E+03 0.  1.
    -200001    1    1    2    0    0 -0.12223246936E+03 -0.28462035649E+03 -0.72442820941E+03  0.99825585622E+03  0.61300000000E+03 0. -1.
<mgrwt>
<rscale>  0 0.13774548E+04</rscale>
<asrwt>0</asrwt>
<pdfrwt beam="1">  1        2 0.26374923E+00 0.13774548E+04</pdfrwt>
<pdfrwt beam="2">  1       -2 0.36703497E-01 0.13774548E+04</pdfrwt>
<totfact> 0.65688271E+01</totfact>
</mgrwt>
</event>
<event>
 8    1  0.7583103E-052  0.1351619E+04  0.7818608E-02  0.8989603E-01
          2   -1    0    0  501    0  0.00000000000E+00  0.00000000000E+00  0.22587489354E+04  0.22587489354E+04  0.25500000000E-02 0.  1.
         -2   -1    0    0    0  501 -0.00000000000E+00 -0.00000000000E+00 -0.20219988308E+03  0.20219988310E+03  0.25500000000E-02 0. -1.
     200001    2    1    2    0    0  0.80742062749E+02 -0.13284313104E+02  0.15231284250E+04  0.16442467190E+04  0.61394732698E+03 0.  0.
    5000001    2    3    3    0    0 -0.17376830916E+03  0.68399771800E+02  0.18005724305E+03  0.27111561861E+03  0.78797930375E+02 0.  0.
        -13    1    4    4    0    0 -0.65125913237E+02  0.60373083360E+02  0.66726634668E+02  0.11107992036E+03  0.10566000000E+00 0. -1.
     200003    1    4    4    0    0 -0.10864239592E+03  0.80266884400E+01  0.11333060838E+03  0.16003569825E+03  0.30000000000E+02 0. -1.
     200000    1    3    3    0    0  0.25451037191E+03 -0.81684084904E+02  0.13430711819E+04  0.13731311004E+04  0.10100000000E+03 0.  1.
    -200001    1    1    2    0    0 -0.80742062749E+02  0.13284313104E+02  0.53342062739E+03  0.81670209954E+03  0.61300000000E+03 0. -1.
<mgrwt>
<rscale>  0 0.13516194E+04</rscale>
<asrwt>0</asrwt>
<pdfrwt beam="1">  1        2 0.32267836E+00 0.13516194E+04</pdfrwt>
<pdfrwt beam="2">  1       -2 0.28885702E-01 0.13516194E+04</pdfrwt>
<totfact> 0.63482819E+01</totfact>
</mgrwt>
</event>
<event>
 8    1  0.7583103E-052  0.1462221E+04  0.7818608E-02  0.8909972E-01
          2   -1    0    0  501    0  0.00000000000E+00  0.00000000000E+00  0.16492363063E+04  0.16492363063E+04  0.25500000000E-02 0.  1.
         -2   -1    0    0    0  501 -0.00000000000E+00 -0.00000000000E+00 -0.32410305480E+03  0.32410305481E+03  0.25500000000E-02 0. -1.
     200001    2    1    2    0    0 -0.10532193254E+02 -0.39789575312E+03  0.65374058944E+03  0.98088328445E+03  0.61345195572E+03 0.  0.
    5000001    2    3    3    0    0 -0.24095458156E+03  0.89557149583E+01  0.23963397388E+03  0.34818439622E+03  0.75290219314E+02 0.  0.
        -13    1    4    4    0    0  0.11544999699E+01  0.74998795506E+01  0.13749151636E+02  0.15704502482E+02  0.10566000000E+00 0. -1.
     200003    1    4    4    0    0 -0.24210908153E+03  0.14558354078E+01  0.22588482224E+03  0.33247989374E+03  0.30000000000E+02 0. -1.
     200000    1    3    3    0    0  0.23042238831E+03 -0.40685146808E+03  0.41410661556E+03  0.63269888823E+03  0.10100000000E+03 0. -1.
    -200001    1    1    2    0    0  0.10532193254E+02  0.39789575312E+03  0.67139266205E+03  0.99245607666E+03  0.61300000000E+03 0.  1.
<mgrwt>
<rscale>  0 0.14622209E+04</rscale>
<asrwt>0</asrwt>
<pdfrwt beam="1">  1        2 0.23560519E+00 0.14622209E+04</pdfrwt>
<pdfrwt beam="2">  1       -2 0.46300435E-01 0.14622209E+04</pdfrwt>
<totfact> 0.52301424E+01</totfact>
</mgrwt>
</event>
<event>
 8    1  0.7583103E-052  0.1719901E+04  0.7818608E-02  0.8750095E-01
         -2   -1    0    0    0  501 -0.00000000000E+00  0.00000000000E+00  0.43983003692E+03  0.43983003692E+03  0.25500000000E-02 0. -1.
          2   -1    0    0  501    0  0.00000000000E+00 -0.00000000000E+00 -0.16813648364E+04  0.16813648364E+04  0.25500000000E-02 0.  1.
     200001    2    1    2    0    0  0.45969168227E+03 -0.13385706134E+03 -0.16853269451E+03  0.79592634473E+03  0.61307529839E+03 0.  0.
    5000001    2    3    3    0    0 -0.72851781015E+02  0.94588921521E+02  0.85017966934E+02  0.15539606028E+03  0.51627848866E+02 0.  0.
        -13    1    4    4    0    0 -0.32076004426E+02  0.14210449912E+02  0.22544709052E+02  0.41702302297E+02  0.10566000000E+00 0. -1.
     200003    1    4    4    0    0 -0.40775776589E+02  0.80378471609E+02  0.62473257883E+02  0.11369375799E+03  0.30000000000E+02 0. -1.
     200000    1    3    3    0    0  0.53254346328E+03 -0.22844598286E+03 -0.25355066144E+03  0.64053028444E+03  0.10100000000E+03 0. -1.
    -200001    1    1    2    0    0 -0.45969168227E+03  0.13385706134E+03 -0.10730021050E+04  0.13252685286E+04  0.61300000000E+03 0.  1.
<mgrwt>
<rscale>  0 0.17199009E+04</rscale>
<asrwt>0</asrwt>
<pdfrwt beam="1">  1        2 0.24019497E+00 0.17199009E+04</pdfrwt>
<pdfrwt beam="2">  1       -2 0.62832863E-01 0.17199009E+04</pdfrwt>
<totfact> 0.26230545E+01</totfact>
</mgrwt>
</event>
<event>
 8    1  0.7583103E-052  0.1544700E+04  0.7818608E-02  0.8855260E-01
          2   -1    0    0  501    0  0.00000000000E+00  0.00000000000E+00  0.27274268800E+04  0.27274268800E+04  0.25500000000E-02 0.  1.
         -2   -1    0    0    0  501 -0.00000000000E+00 -0.00000000000E+00 -0.21871323047E+03  0.21871323048E+03  0.25500000000E-02 0. -1.
     200001    2    1    2    0    0  0.29345436189E+02 -0.40421012981E+03  0.80167262406E+03  0.10876447389E+04  0.61322516104E+03 0.  0.
    5000001    2    3    3    0    0  0.45582322593E+02 -0.70660488055E+02  0.71848380662E+03  0.72898002169E+03  0.90123465006E+02 0.  0.
        -13    1    4    4    0    0 -0.21787612341E+02 -0.29863137455E+02  0.16302003172E+03  0.16715875369E+03  0.10566000000E+00 0. -1.
     200003    1    4    4    0    0  0.67369934934E+02 -0.40797350600E+02  0.55546377490E+03  0.56182126800E+03  0.30000000000E+02 0. -1.
     200000    1    3    3    0    0 -0.16236886404E+02 -0.33354964176E+03  0.83188817438E+02  0.35866471717E+03  0.10100000000E+03 0. -1.
    -200001    1    1    2    0    0 -0.29345436189E+02  0.40421012981E+03  0.17070410254E+04  0.18584953716E+04  0.61300000000E+03 0.  1.
<mgrwt>
<rscale>  0 0.15446998E+04</rscale>
<asrwt>0</asrwt>
<pdfrwt beam="1">  1        2 0.38963238E+00 0.15446998E+04</pdfrwt>
<pdfrwt beam="2">  1       -2 0.31244749E-01 0.15446998E+04</pdfrwt>
<totfact> 0.30616497E+01</totfact>
</mgrwt>
</event>
<event>
 8    1  0.7583103E-052  0.1663206E+04  0.7818608E-02  0.8782632E-01
         -2   -1    0    0    0  501 -0.00000000000E+00  0.00000000000E+00  0.27849570858E+03  0.27849570859E+03  0.25500000000E-02 0. -1.
          2   -1    0    0  501    0  0.00000000000E+00 -0.00000000000E+00 -0.24832121799E+04  0.24832121799E+04  0.25500000000E-02 0.  1.
     200001    2    1    2    0    0 -0.38654369706E+03  0.13179391767E+03 -0.17432132143E+04  0.18924898936E+04  0.61313947855E+03 0.  0.
    5000001    2    3    3    0    0 -0.50722337600E+03 -0.13141159826E+02 -0.13562233597E+04  0.14502999918E+04  0.81117332928E+02 0.  0.
        -13    1    4    4    0    0 -0.27745492052E+03  0.65602545608E+01 -0.82414420745E+03  0.86961943153E+03  0.10566000000E+00 0. -1.
     200003    1    4    4    0    0 -0.22976845549E+03 -0.19701414387E+02 -0.53207915221E+03  0.58068056027E+03  0.30000000000E+02 0.  1.
     200000    1    3    3    0    0  0.12067967895E+03  0.14493507750E+03 -0.38698985466E+03  0.44218990175E+03  0.10100000000E+03 0. -1.
    -200001    1    1    2    0    0  0.38654369706E+03 -0.13179391767E+03 -0.46150325697E+03  0.86921799490E+03  0.61300000000E+03 0. -1.
<mgrwt>
<rscale>  0 0.16632065E+04</rscale>
<asrwt>0</asrwt>
<pdfrwt beam="1">  1        2 0.35474458E+00 0.16632065E+04</pdfrwt>
<pdfrwt beam="2">  1       -2 0.39785103E-01 0.16632065E+04</pdfrwt>
<totfact> 0.25737839E+01</totfact>
</mgrwt>
</event>
<event>
 8    1  0.7583103E-052  0.1280320E+04  0.7818608E-02  0.9045319E-01
         -2   -1    0    0    0  501 -0.00000000000E+00  0.00000000000E+00  0.18535401176E+04  0.18535401176E+04  0.25500000000E-02 0. -1.
          2   -1    0    0  501    0  0.00000000000E+00 -0.00000000000E+00 -0.22109310302E+03  0.22109310303E+03  0.25500000000E-02 0.  1.
     200001    2    1    2    0    0  0.10424695030E+03  0.99355414344E+02  0.10030450340E+04  0.11843216021E+04  0.61300847620E+03 0.  0.
    5000001    2    3    3    0    0 -0.20324530343E+03 -0.10280039634E+03  0.44713055590E+03  0.51003652522E+03  0.91295937401E+02 0.  0.
        -13    1    4    4    0    0 -0.69553285691E+02 -0.28199843250E-01  0.17708991918E+03  0.19025906282E+03  0.10566000000E+00 0. -1.
     200003    1    4    4    0    0 -0.13369201774E+03 -0.10277219650E+03  0.27004063672E+03  0.31977746240E+03  0.30000000000E+02 0. -1.
     200000    1    3    3    0    0  0.30749225373E+03  0.20215581069E+03  0.55591447811E+03  0.67428507685E+03  0.10100000000E+03 0.  1.
    -200001    1    1    2    0    0 -0.10424695030E+03 -0.99355414344E+02  0.62940198063E+03  0.89031161860E+03  0.61300000000E+03 0.  1.
<mgrwt>
<rscale>  0 0.12803202E+04</rscale>
<asrwt>0</asrwt>
<pdfrwt beam="1">  1        2 0.31584729E-01 0.12803202E+04</pdfrwt>
<pdfrwt beam="2">  1       -2 0.26479145E+00 0.12803202E+04</pdfrwt>
<totfact> 0.86389487E+00</totfact>
</mgrwt>
</event>
<event>
 8    1  0.7583103E-052  0.1598171E+04  0.7818608E-02  0.8821672E-01
          2   -1    0    0  501    0  0.00000000000E+00  0.00000000000E+00  0.24322199015E+04  0.24322199015E+04  0.25500000000E-02 0.  1.
         -2   -1    0    0    0  501 -0.00000000000E+00 -0.00000000000E+00 -0.26253285020E+03  0.26253285022E+03  0.25500000000E-02 0. -1.
     200001    2    1    2    0    0  0.42179025404E+03  0.16936615047E+03  0.68385689701E+03  0.10244078296E+04  0.61250243632E+03 0.  0.
    5000001    2    3    3    0    0  0.47202405014E+03  0.26949642614E+03  0.67812975389E+03  0.87346642861E+03  0.87456338784E+02 0.  0.
        -13    1    4    4    0    0  0.49953818072E+02  0.50475820782E+02  0.59658436469E+02  0.92748760797E+02  0.10566000000E+00 0. -1.
     200003    1    4    4    0    0  0.42207023207E+03  0.21902060536E+03  0.61847131742E+03  0.78071766781E+03  0.30000000000E+02 0. -1.
     200000    1    3    3    0    0 -0.50233796097E+02 -0.10013027567E+03  0.57271431256E+01  0.15094140103E+03  0.10100000000E+03 0.  1.
    -200001    1    1    2    0    0 -0.42179025404E+03 -0.16936615047E+03  0.14858301543E+04  0.16703449221E+04  0.61300000000E+03 0.  1.
<mgrwt>
<rscale>  0 0.15981710E+04</rscale>
<asrwt>0</asrwt>
<pdfrwt beam="1">  1        2 0.34745996E+00 0.15981710E+04</pdfrwt>
<pdfrwt beam="2">  1       -2 0.37504695E-01 0.15981710E+04</pdfrwt>
<totfact> 0.30862581E+01</totfact>
</mgrwt>
</event>
<event>
 8    1  0.7583103E-052  0.1346498E+04  0.7818608E-02  0.8993483E-01
          2   -1    0    0  501    0  0.00000000000E+00  0.00000000000E+00  0.98297593296E+03  0.98297593296E+03  0.25500000000E-02 0.  1.
         -2   -1    0    0    0  501 -0.00000000000E+00 -0.00000000000E+00 -0.46111422639E+03  0.46111422640E+03  0.25500000000E-02 0. -1.
     200001    2    1    2    0    0 -0.74940166508E+02 -0.54693139758E+02 -0.18155949763E+02  0.62190074248E+03  0.61467351243E+03 0.  0.
    5000001    2    3    3    0    0 -0.14753991603E+03 -0.11616382585E+03 -0.26593520063E+03  0.33792023955E+03  0.90589713026E+02 0.  0.
        -13    1    4    4    0    0 -0.76253042643E+02 -0.77341823020E+02 -0.20527922768E+03  0.23224094510E+03  0.10566000000E+00 0. -1.
     200003    1    4    4    0    0 -0.71286873386E+02 -0.38822002830E+02 -0.60655972950E+02  0.10567929445E+03  0.30000000000E+02 0. -1.
     200000    1    3    3    0    0  0.72599749520E+02  0.61470686093E+02  0.24777925087E+03  0.28398050292E+03  0.10100000000E+03 0.  1.
    -200001    1    1    2    0    0  0.74940166508E+02  0.54693139758E+02  0.54001765633E+03  0.82218941689E+03  0.61300000000E+03 0.  1.
<mgrwt>
<rscale>  0 0.13464980E+04</rscale>
<asrwt>0</asrwt>
<pdfrwt beam="1">  1        2 0.14042513E+00 0.13464980E+04</pdfrwt>
<pdfrwt beam="2">  1       -2 0.65873461E-01 0.13464980E+04</pdfrwt>
<totfact> 0.59720856E+01</totfact>
</mgrwt>
</event>
<event>
 8    1  0.7583103E-052  0.1486794E+04  0.7818608E-02  0.8893283E-01
         -2   -1    0    0    0  501 -0.00000000000E+00  0.00000000000E+00  0.76648425959E+03  0.76648425959E+03  0.25500000000E-02 0. -1.
          2   -1    0    0  501    0  0.00000000000E+00 -0.00000000000E+00 -0.72100518636E+03  0.72100518637E+03  0.25500000000E-02 0.  1.
     200001    2    1    2    0    0 -0.78470962250E+02 -0.15575766552E+03  0.40600396811E+03  0.75525632590E+03  0.61249877829E+03 0.  0.
    5000001    2    3    3    0    0 -0.92678019999E+02 -0.10507351385E+03 -0.12601279668E+03  0.21118504221E+03  0.95342741852E+02 0.  0.
        -13    1    4    4    0    0 -0.89630820845E+02 -0.43163505169E+02 -0.86254770146E+02  0.13166878431E+03  0.10566000000E+00 0. -1.
     200003    1    4    4    0    0 -0.30471991548E+01 -0.61910008683E+02 -0.39758026533E+02  0.79516257907E+02  0.30000000000E+02 0. -1.
     200000    1    3    3    0    0  0.14207057750E+02 -0.50684151670E+02  0.53201676479E+03  0.54407128369E+03  0.10100000000E+03 0. -1.
    -200001    1    1    2    0    0  0.78470962250E+02  0.15575766552E+03 -0.36052489488E+03  0.73223312006E+03  0.61300000000E+03 0.  1.
<mgrwt>
<rscale>  0 0.14867940E+04</rscale>
<asrwt>0</asrwt>
<pdfrwt beam="1">  1        2 0.10300074E+00 0.14867940E+04</pdfrwt>
<pdfrwt beam="2">  1       -2 0.10949775E+00 0.14867940E+04</pdfrwt>
<totfact> 0.27931282E+01</totfact>
</mgrwt>
</event>
<event>
 8    1  0.7583103E-052  0.2057135E+04  0.7818608E-02  0.8580364E-01
          2   -1    0    0  501    0  0.00000000000E+00  0.00000000000E+00  0.12856072466E+04  0.12856072466E+04  0.25500000000E-02 0. -1.
         -2   -1    0    0    0  501 -0.00000000000E+00 -0.00000000000E+00 -0.82291973037E+03  0.82291973037E+03  0.25500000000E-02 0.  1.
     200001    2    1    2    0    0 -0.83053830310E+02 -0.82156594643E+03  0.20553950877E+03  0.10484502624E+04  0.61248095472E+03 0.  0.
    5000001    2    3    3    0    0  0.13591650195E+03 -0.21374862561E+03  0.18106967762E+03  0.39408822606E+03  0.24157303516E+03 0.  0.
        -13    1    4    4    0    0 -0.58604872714E+01  0.35045993481E+01 -0.46923302582E+02  0.47417665663E+02  0.10566000000E+00 0. -1.
     200003    1    4    4    0    0  0.14177698923E+03 -0.21725322496E+03  0.22799298020E+03  0.34667056040E+03  0.30000000000E+02 0. -1.
     200000    1    3    3    0    0 -0.21897033226E+03 -0.60781732083E+03  0.24469831158E+02  0.65436203629E+03  0.10100000000E+03 0.  1.
    -200001    1    1    2    0    0  0.83053830310E+02  0.82156594643E+03  0.25714800742E+03  0.10600767146E+04  0.61300000000E+03 0. -1.
<mgrwt>
<rscale>  0 0.20571355E+04</rscale>
<asrwt>0</asrwt>
<pdfrwt beam="1">  1        2 0.18365818E+00 0.20571355E+04</pdfrwt>
<pdfrwt beam="2">  1       -2 0.11755996E+00 0.20571355E+04</pdfrwt>
<totfact> 0.99234602E+00</totfact>
</mgrwt>
</event>
<event>
 8    1  0.7583103E-052  0.1346179E+04  0.7818608E-02  0.8993726E-01
         -2   -1    0    0    0  501 -0.00000000000E+00  0.00000000000E+00  0.15404688288E+03  0.15404688290E+03  0.25500000000E-02 0. -1.
          2   -1    0    0  501    0  0.00000000000E+00 -0.00000000000E+00 -0.29409848399E+04  0.29409848399E+04  0.25500000000E-02 0.  1.
     200001    2    1    2    0    0 -0.25717196412E+03 -0.94055192823E+02 -0.12792863205E+04  0.14446480536E+04  0.61274032881E+03 0.  0.
    5000001    2    3    3    0    0 -0.16771804920E+03  0.19249544799E+03 -0.27706046670E+03  0.39356721245E+03  0.11379282481E+03 0.  0.
        -13    1    4    4    0    0 -0.24082913338E+02 -0.94423088638E+00 -0.71456462309E+02  0.75411640060E+02  0.10566000000E+00 0. -1.
     200003    1    4    4    0    0 -0.14363513586E+03  0.19343967888E+03 -0.20560400439E+03  0.31815557239E+03  0.30000000000E+02 0. -1.
     200000    1    3    3    0    0 -0.89453914926E+02 -0.28655064081E+03 -0.10022258538E+04  0.10510808411E+04  0.10100000000E+03 0.  1.
    -200001    1    1    2    0    0  0.25717196412E+03  0.94055192823E+02 -0.15076516366E+04  0.16503836693E+04  0.61300000000E+03 0.  1.
<mgrwt>
<rscale>  0 0.13461791E+04</rscale>
<asrwt>0</asrwt>
<pdfrwt beam="1">  1        2 0.42014066E+00 0.13461791E+04</pdfrwt>
<pdfrwt beam="2">  1       -2 0.22006699E-01 0.13461791E+04</pdfrwt>
<totfact> 0.45211785E+01</totfact>
</mgrwt>
</event>
<event>
 8    1  0.7583103E-052  0.1517358E+04  0.7818608E-02  0.8872991E-01
          2   -1    0    0  501    0  0.00000000000E+00  0.00000000000E+00  0.45959407278E+03  0.45959407279E+03  0.25500000000E-02 0.  1.
         -2   -1    0    0    0  501 -0.00000000000E+00 -0.00000000000E+00 -0.12523966535E+04  0.12523966535E+04  0.25500000000E-02 0. -1.
     200001    2    1    2    0    0 -0.10394762693E+03 -0.37499627238E+03 -0.64571876554E+03  0.97116013696E+03  0.61218622495E+03 0.  0.
    5000001    2    3    3    0    0  0.48715706226E+02 -0.43051507759E+03 -0.64457377033E+03  0.77987306987E+03  0.70782820264E+02 0.  0.
        -13    1    4    4    0    0  0.52339327531E+02 -0.32731182394E+03 -0.48688591684E+03  0.58900793074E+03  0.10566000000E+00 0. -1.
     200003    1    4    4    0    0 -0.36236213046E+01 -0.10320325365E+03 -0.15768785349E+03  0.19086513913E+03  0.30000000000E+02 0.  1.
     200000    1    3    3    0    0 -0.15266333316E+03  0.55518805213E+02 -0.11449952082E+01  0.19128706709E+03  0.10100000000E+03 0.  1.
    -200001    1    1    2    0    0  0.10394762693E+03  0.37499627238E+03 -0.14708381522E+03  0.74083058937E+03  0.61300000000E+03 0.  1.
<mgrwt>
<rscale>  0 0.15173583E+04</rscale>
<asrwt>0</asrwt>
<pdfrwt beam="1">  1        2 0.65656297E-01 0.15173583E+04</pdfrwt>
<pdfrwt beam="2">  1       -2 0.17891381E+00 0.15173583E+04</pdfrwt>
<totfact> 0.13174775E+01</totfact>
</mgrwt>
</event>
<event>
 8    1  0.7583103E-052  0.1664639E+04  0.7818608E-02  0.8781793E-01
          2   -1    0    0  501    0  0.00000000000E+00  0.00000000000E+00  0.63789994844E+03  0.63789994844E+03  0.25500000000E-02 0.  1.
         -2   -1    0    0    0  501 -0.00000000000E+00 -0.00000000000E+00 -0.10859941975E+04  0.10859941975E+04  0.25500000000E-02 0. -1.
     200001    2    1    2    0    0 -0.23807319720E+03 -0.40738918094E+03 -0.54091077211E+03  0.94477368101E+03  0.61430290003E+03 0.  0.
    5000001    2    3    3    0    0 -0.20439802756E+03 -0.37307894134E+02 -0.51284291477E+03  0.55866102840E+03  0.76966595305E+02 0.  0.
        -13    1    4    4    0    0 -0.17574212746E+03 -0.37273950747E+02 -0.42966390532E+03  0.46570991557E+03  0.10566000000E+00 0. -1.
     200003    1    4    4    0    0 -0.28655900105E+02 -0.33943387015E-01 -0.83179009448E+02  0.92951112826E+02  0.30000000000E+02 0.  1.
     200000    1    3    3    0    0 -0.33675169634E+02 -0.37008128680E+03 -0.28067857344E+02  0.38611265261E+03  0.10100000000E+03 0.  1.
    -200001    1    1    2    0    0  0.23807319720E+03  0.40738918094E+03  0.92816523028E+02  0.77912046496E+03  0.61300000000E+03 0.  1.
<mgrwt>
<rscale>  0 0.16646389E+04</rscale>
<asrwt>0</asrwt>
<pdfrwt beam="1">  1        2 0.91128564E-01 0.16646389E+04</pdfrwt>
<pdfrwt beam="2">  1       -2 0.15514203E+00 0.16646389E+04</pdfrwt>
<totfact> 0.13200578E+01</totfact>
</mgrwt>
</event>
<event>
 8    1  0.7583103E-052  0.1693692E+04  0.7818608E-02  0.8764970E-01
          2   -1    0    0  501    0  0.00000000000E+00  0.00000000000E+00  0.22824155806E+04  0.22824155806E+04  0.25500000000E-02 0. -1.
         -2   -1    0    0    0  501 -0.00000000000E+00 -0.00000000000E+00 -0.31420568270E+03  0.31420568271E+03  0.25500000000E-02 0.  1.
     200001    2    1    2    0    0 -0.34471829367E+03 -0.17357746406E+03  0.31027812249E+03  0.78734886539E+03  0.61211590774E+03 0.  0.
    5000001    2    3    3    0    0 -0.42337283353E+03  0.79362482470E+02  0.19807447001E+03  0.48246230809E+03  0.89405946447E+02 0.  0.
        -13    1    4    4    0    0 -0.77320180807E+02  0.48279272888E+02  0.38633759351E+02  0.99004429579E+02  0.10566000000E+00 0. -1.
     200003    1    4    4    0    0 -0.34605265273E+03  0.31083209582E+02  0.15944071066E+03  0.38345787851E+03  0.30000000000E+02 0. -1.
     200000    1    3    3    0    0  0.78654539860E+02 -0.25293994653E+03  0.11220365249E+03  0.30488655730E+03  0.10100000000E+03 0. -1.
    -200001    1    1    2    0    0  0.34471829367E+03  0.17357746406E+03  0.16579317754E+04  0.18092723979E+04  0.61300000000E+03 0. -1.
<mgrwt>
<rscale>  0 0.16936918E+04</rscale>
<asrwt>0</asrwt>
<pdfrwt beam="1">  1        2 0.32605937E+00 0.16936918E+04</pdfrwt>
<pdfrwt beam="2">  1       -2 0.44886526E-01 0.16936918E+04</pdfrwt>
<totfact> 0.25748296E+01</totfact>
</mgrwt>
</event>
<event>
 8    1  0.7583103E-052  0.1599625E+04  0.7818608E-02  0.8820778E-01
         -2   -1    0    0    0  501 -0.00000000000E+00  0.00000000000E+00  0.58200200175E+03  0.58200200175E+03  0.25500000000E-02 0.  1.
          2   -1    0    0  501    0  0.00000000000E+00 -0.00000000000E+00 -0.10991376368E+04  0.10991376369E+04  0.25500000000E-02 0. -1.
     200001    2    1    2    0    0 -0.20296544603E+03 -0.35048273850E+03  0.73888460193E+02  0.73821249217E+03  0.61275203530E+03 0.  0.
    5000001    2    3    3    0    0 -0.25952059043E+03 -0.60522465485E+02  0.60870793293E+02  0.42572904630E+03  0.32638330488E+03 0.  0.
        -13    1    4    4    0    0 -0.27473520983E+03  0.27483562880E+02 -0.49612936289E+02  0.28052849474E+03  0.10566000000E+00 0. -1.
     200003    1    4    4    0    0  0.15214619398E+02 -0.88006028365E+02  0.11048372958E+03  0.14520055156E+03  0.30000000000E+02 0. -1.
     200000    1    3    3    0    0  0.56555144400E+02 -0.28996027302E+03  0.13017666900E+02  0.31248344586E+03  0.10100000000E+03 0.  1.
    -200001    1    1    2    0    0  0.20296544603E+03  0.35048273850E+03 -0.59102409529E+03  0.94292714644E+03  0.61300000000E+03 0. -1.
<mgrwt>
<rscale>  0 0.15996253E+04</rscale>
<asrwt>0</asrwt>
<pdfrwt beam="1">  1        2 0.15701966E+00 0.15996253E+04</pdfrwt>
<pdfrwt beam="2">  1       -2 0.83143143E-01 0.15996253E+04</pdfrwt>
<totfact> 0.29791369E+01</totfact>
</mgrwt>
</event>
<event>
 8    1  0.7583103E-052  0.2139586E+04  0.7818608E-02  0.8544003E-01
          2   -1    0    0  501    0  0.00000000000E+00  0.00000000000E+00  0.23189118974E+04  0.23189118974E+04  0.25500000000E-02 0.  1.
         -2   -1    0    0    0  501 -0.00000000000E+00 -0.00000000000E+00 -0.49353190368E+03  0.49353190369E+03  0.25500000000E-02 0. -1.
     200001    2    1    2    0    0  0.16207793977E+03 -0.16587996111E+03  0.20238619174E+04  0.21276449298E+04  0.61406063738E+03 0.  0.
    5000001    2    3    3    0    0 -0.14558473792E+03  0.39207361207E+01  0.13583530831E+04  0.13683086350E+04  0.77039821841E+02 0.  0.
        -13    1    4    4    0    0 -0.77188857404E+01 -0.46222616536E+01  0.34795124346E+03  0.34806755880E+03  0.10566000000E+00 0. -1.
     200003    1    4    4    0    0 -0.13786585218E+03  0.85429977743E+01  0.10104018397E+04  0.10202410762E+04  0.30000000000E+02 0. -1.
     200000    1    3    3    0    0  0.30766267768E+03 -0.16980069723E+03  0.66550883432E+03  0.75933629479E+03  0.10100000000E+03 0. -1.
    -200001    1    1    2    0    0 -0.16207793977E+03  0.16587996111E+03 -0.19848192373E+03  0.68479887128E+03  0.61300000000E+03 0. -1.
<mgrwt>
<rscale>  0 0.21395859E+04</rscale>
<asrwt>0</asrwt>
<pdfrwt beam="1">  1        2 0.33127313E+00 0.21395859E+04</pdfrwt>
<pdfrwt beam="2">  1       -2 0.70504557E-01 0.21395859E+04</pdfrwt>
<totfact> 0.92596584E+00</totfact>
</mgrwt>
</event>
<event>
 8    1  0.7583103E-052  0.1280628E+04  0.7818608E-02  0.9045070E-01
          2   -1    0    0  501    0  0.00000000000E+00  0.00000000000E+00  0.88975041721E+03  0.88975041722E+03  0.25500000000E-02 0.  1.
         -2   -1    0    0    0  501 -0.00000000000E+00 -0.00000000000E+00 -0.46080573611E+03  0.46080573612E+03  0.25500000000E-02 0. -1.
     200001    2    1    2    0    0  0.39814487822E+01 -0.15507306731E+03  0.10525006367E+03  0.64019658699E+03  0.61213608450E+03 0.  0.
    5000001    2    3    3    0    0 -0.28002727060E+03 -0.15258911890E+03  0.35754191345E+02  0.33084597852E+03  0.80510793178E+02 0.  0.
        -13    1    4    4    0    0 -0.11864622065E+03 -0.87332308628E+02  0.44768793345E+02  0.15397439341E+03  0.10566000000E+00 0. -1.
     200003    1    4    4    0    0 -0.16138104995E+03 -0.65256810273E+02 -0.90146019994E+01  0.17687158511E+03  0.30000000000E+02 0.  1.
     200000    1    3    3    0    0  0.28400871939E+03 -0.24839484082E+01  0.69495872323E+02  0.30935060846E+03  0.10100000000E+03 0.  1.
    -200001    1    1    2    0    0 -0.39814487822E+01  0.15507306731E+03  0.32369461744E+03  0.71035956634E+03  0.61300000000E+03 0.  1.
<mgrwt>
<rscale>  0 0.12806281E+04</rscale>
<asrwt>0</asrwt>
<pdfrwt beam="1">  1        2 0.12710720E+00 0.12806281E+04</pdfrwt>
<pdfrwt beam="2">  1       -2 0.65829390E-01 0.12806281E+04</pdfrwt>
<totfact> 0.68938440E+01</totfact>
</mgrwt>
</event>
<event>
 8    1  0.7583103E-052  0.1569171E+04  0.7818608E-02  0.8839714E-01
         -2   -1    0    0    0  501 -0.00000000000E+00  0.00000000000E+00  0.22636434527E+03  0.22636434528E+03  0.25500000000E-02 0. -1.
          2   -1    0    0  501    0  0.00000000000E+00 -0.00000000000E+00 -0.27193965826E+04  0.27193965826E+04  0.25500000000E-02 0.  1.
     200001    2    1    2    0    0 -0.16347676437E+03 -0.46114825708E+03 -0.12982247765E+04  0.15165246857E+04  0.61243545335E+03 0.  0.
    5000001    2    3    3    0    0  0.20005170813E+03 -0.20787171287E+03 -0.31637749395E+03  0.43461570412E+03  0.74597296567E+02 0.  0.
        -13    1    4    4    0    0  0.12305396747E+02 -0.47218869672E+02 -0.45112446145E+02  0.66454408458E+02  0.10566000000E+00 0. -1.
     200003    1    4    4    0    0  0.18774631138E+03 -0.16065284320E+03 -0.27126504781E+03  0.36816129567E+03  0.30000000000E+02 0. -1.
     200000    1    3    3    0    0 -0.36352847250E+03 -0.25327654422E+03 -0.98184728259E+03  0.10819089816E+04  0.10100000000E+03 0.  1.
    -200001    1    1    2    0    0  0.16347676437E+03  0.46114825708E+03 -0.11948074608E+04  0.14292362421E+04  0.61300000000E+03 0.  1.
<mgrwt>
<rscale>  0 0.15691710E+04</rscale>
<asrwt>0</asrwt>
<pdfrwt beam="1">  1        2 0.38848521E+00 0.15691710E+04</pdfrwt>
<pdfrwt beam="2">  1       -2 0.32337765E-01 0.15691710E+04</pdfrwt>
<totfact> 0.28926198E+01</totfact>
</mgrwt>
</event>
<event>
 8    1  0.7583103E-052  0.1659305E+04  0.7818608E-02  0.8784921E-01
          2   -1    0    0  501    0  0.00000000000E+00  0.00000000000E+00  0.52366189630E+03  0.52366189631E+03  0.25500000000E-02 0. -1.
         -2   -1    0    0    0  501 -0.00000000000E+00 -0.00000000000E+00 -0.13144415544E+04  0.13144415544E+04  0.25500000000E-02 0.  1.
     200001    2    1    2    0    0 -0.47040578359E+03 -0.25930039569E+03 -0.56404403081E+03  0.99211506948E+03  0.61451472395E+03 0.  0.
    5000001    2    3    3    0    0 -0.17994956036E+03 -0.37440733061E+03 -0.49924689953E+03  0.65743000512E+03  0.10200025223E+03 0.  0.
        -13    1    4    4    0    0 -0.15821368216E+03 -0.33269538101E+03 -0.40165627800E+03  0.54501886443E+03  0.10566000000E+00 0. -1.
     200003    1    4    4    0    0 -0.21735878199E+02 -0.41711949609E+02 -0.97590621529E+02  0.11241114069E+03  0.30000000000E+02 0.  1.
     200000    1    3    3    0    0 -0.29045622323E+03  0.11510693492E+03 -0.64797131286E+02  0.33468506436E+03  0.10100000000E+03 0. -1.
    -200001    1    1    2    0    0  0.47040578359E+03  0.25930039569E+03 -0.22673562724E+03  0.84598838119E+03  0.61300000000E+03 0.  1.
<mgrwt>
<rscale>  0 0.16593046E+04</rscale>
<asrwt>0</asrwt>
<pdfrwt beam="1">  1        2 0.74808843E-01 0.16593046E+04</pdfrwt>
<pdfrwt beam="2">  1       -2 0.18777736E+00 0.16593046E+04</pdfrwt>
<totfact> 0.97634925E+00</totfact>
</mgrwt>
</event>
<event>
 8    1  0.7583103E-052  0.1580000E+04  0.7818608E-02  0.8832930E-01
         -2   -1    0    0    0  501 -0.00000000000E+00  0.00000000000E+00  0.16217652871E+03  0.16217652873E+03  0.25500000000E-02 0. -1.
          2   -1    0    0  501    0  0.00000000000E+00 -0.00000000000E+00 -0.38482737550E+04  0.38482737550E+04  0.25500000000E-02 0.  1.
     200001    2    1    2    0    0 -0.30053703446E+03 -0.11270453014E+03 -0.87478783576E+03  0.11152379755E+04  0.61276191486E+03 0.  0.
    5000001    2    3    3    0    0 -0.20546397809E+03 -0.15321852110E+03 -0.92327219015E+03  0.96281749748E+03  0.94311371830E+02 0.  0.
        -13    1    4    4    0    0 -0.18226814593E+02  0.10307990300E+02 -0.10594120039E+03  0.10799083544E+03  0.10566000000E+00 0. -1.
     200003    1    4    4    0    0 -0.18723716349E+03 -0.16352651140E+03 -0.81733098976E+03  0.85482666205E+03  0.30000000000E+02 0. -1.
     200000    1    3    3    0    0 -0.95073056375E+02  0.40513990958E+02  0.48484354389E+02  0.15242047806E+03  0.10100000000E+03 0. -1.
    -200001    1    1    2    0    0  0.30053703446E+03  0.11270453014E+03 -0.28113093905E+04  0.28952123082E+04  0.61300000000E+03 0.  1.
<mgrwt>
<rscale>  0 0.15799996E+04</rscale>
<asrwt>0</asrwt>
<pdfrwt beam="1">  1        2 0.54975334E+00 0.15799996E+04</pdfrwt>
<pdfrwt beam="2">  1       -2 0.23168078E-01 0.15799996E+04</pdfrwt>
<totfact> 0.11573860E+01</totfact>
</mgrwt>
</event>
<event>
 8    1  0.7583103E-052  0.1502921E+04  0.7818608E-02  0.8882513E-01
          2   -1    0    0  501    0  0.00000000000E+00  0.00000000000E+00  0.32559364801E+04  0.32559364801E+04  0.25500000000E-02 0.  1.
         -2   -1    0    0    0  501 -0.00000000000E+00 -0.00000000000E+00 -0.17343492067E+03  0.17343492069E+03  0.25500000000E-02 0. -1.
     200001    2    1    2    0    0 -0.18342098240E+03 -0.49568836653E+02  0.65029384817E+03  0.91391842427E+03  0.61340400300E+03 0.  0.
    5000001    2    3    3    0    0 -0.27670009552E+03  0.19234805817E+03  0.24709476049E+03  0.42402529179E+03  0.71978532035E+02 0.  0.
        -13    1    4    4    0    0 -0.10491117228E+03  0.59517690851E+02  0.55050397134E+02  0.13258682808E+03  0.10566000000E+00 0. -1.
     200003    1    4    4    0    0 -0.17178892325E+03  0.13283036732E+03  0.19204436335E+03  0.29143846371E+03  0.30000000000E+02 0. -1.
     200000    1    3    3    0    0  0.93279113120E+02 -0.24191689482E+03  0.40319908769E+03  0.48989313248E+03  0.10100000000E+03 0. -1.
    -200001    1    1    2    0    0  0.18342098240E+03  0.49568836653E+02  0.24322077113E+04  0.25154529765E+04  0.61300000000E+03 0.  1.
<mgrwt>
<rscale>  0 0.15029213E+04</rscale>
<asrwt>0</asrwt>
<pdfrwt beam="1">  1        2 0.46513378E+00 0.15029213E+04</pdfrwt>
<pdfrwt beam="2">  1       -2 0.24776417E-01 0.15029213E+04</pdfrwt>
<totfact> 0.23918488E+01</totfact>
</mgrwt>
</event>
<event>
 8    1  0.7583103E-052  0.1318604E+04  0.7818608E-02  0.9014941E-01
          2   -1    0    0  501    0  0.00000000000E+00  0.00000000000E+00  0.95921060341E+03  0.95921060341E+03  0.25500000000E-02 0.  1.
         -2   -1    0    0    0  501 -0.00000000000E+00 -0.00000000000E+00 -0.45316323452E+03  0.45316323453E+03  0.25500000000E-02 0. -1.
     200001    2    1    2    0    0 -0.16639756140E+03 -0.12368118285E+03  0.38539409306E+03  0.75410991185E+03  0.61414002374E+03 0.  0.
    5000001    2    3    3    0    0  0.84070300250E+02  0.19470849455E+03  0.11675727795E+03  0.25764956618E+03  0.88157947807E+02 0.  0.
        -13    1    4    4    0    0  0.88640265626E+02  0.15779568113E+03  0.10139858034E+03  0.20745663868E+03  0.10566000000E+00 0. -1.
     200003    1    4    4    0    0 -0.45699653757E+01  0.36912813423E+02  0.15358697606E+02  0.50192927495E+02  0.30000000000E+02 0. -1.
     200000    1    3    3    0    0 -0.25046786165E+03 -0.31838967740E+03  0.26863681511E+03  0.49646034568E+03  0.10100000000E+03 0.  1.
    -200001    1    1    2    0    0  0.16639756140E+03  0.12368118285E+03  0.12065327583E+03  0.65826392610E+03  0.61300000000E+03 0. -1.
<mgrwt>
<rscale>  0 0.13186038E+04</rscale>
<asrwt>0</asrwt>
<pdfrwt beam="1">  1        2 0.13703008E+00 0.13186038E+04</pdfrwt>
<pdfrwt beam="2">  1       -2 0.64737606E-01 0.13186038E+04</pdfrwt>
<totfact> 0.64290026E+01</totfact>
</mgrwt>
</event>
<event>
 8    1  0.7583103E-052  0.1400606E+04  0.7818608E-02  0.8953380E-01
          2   -1    0    0  501    0  0.00000000000E+00  0.00000000000E+00  0.10733695306E+04  0.10733695306E+04  0.25500000000E-02 0.  1.
         -2   -1    0    0    0  501 -0.00000000000E+00 -0.00000000000E+00 -0.45690135154E+03  0.45690135154E+03  0.25500000000E-02 0. -1.
     200001    2    1    2    0    0  0.23194329776E+03  0.24186264509E+03  0.35551766921E+03  0.78450992778E+03  0.61381412593E+03 0.  0.
    5000001    2    3    3    0    0 -0.40812115977E+02  0.22177609064E+03  0.42276051614E+03  0.48530834714E+03  0.77119871684E+02 0.  0.
        -13    1    4    4    0    0 -0.90407145346E+01  0.12961032356E+03  0.29094592739E+03  0.31863790471E+03  0.10566000000E+00 0. -1.
     200003    1    4    4    0    0 -0.31771401442E+02  0.92165767086E+02  0.13181458875E+03  0.16667044243E+03  0.30000000000E+02 0. -1.
     200000    1    3    3    0    0  0.27275541373E+03  0.20086554450E+02 -0.67242846930E+02  0.29920158063E+03  0.10100000000E+03 0. -1.
    -200001    1    1    2    0    0 -0.23194329776E+03 -0.24186264509E+03  0.26095050984E+03  0.74576095436E+03  0.61300000000E+03 0.  1.
<mgrwt>
<rscale>  0 0.14006056E+04</rscale>
<asrwt>0</asrwt>
<pdfrwt beam="1">  1        2 0.15333850E+00 0.14006056E+04</pdfrwt>
<pdfrwt beam="2">  1       -2 0.65271622E-01 0.14006056E+04</pdfrwt>
<totfact> 0.53437343E+01</totfact>
</mgrwt>
</event>
<event>
 8    1  0.7583103E-052  0.2187820E+04  0.7818608E-02  0.8523515E-01
         -2   -1    0    0    0  501 -0.00000000000E+00  0.00000000000E+00  0.76085812127E+03  0.76085812127E+03  0.25500000000E-02 0. -1.
          2   -1    0    0  501    0  0.00000000000E+00 -0.00000000000E+00 -0.15727499577E+04  0.15727499577E+04  0.25500000000E-02 0.  1.
     200001    2    1    2    0    0 -0.60634767384E+03 -0.65202837022E+03 -0.57815991616E+03  0.12276252094E+04  0.61643837404E+03 0.  0.
    5000001    2    3    3    0    0 -0.47796106201E+03 -0.74937031292E+03 -0.45708178490E+03  0.10021934242E+04  0.73927388599E+02 0.  0.
        -13    1    4    4    0    0 -0.44368675770E+02 -0.49195850111E+02 -0.50191004672E+02  0.83114133406E+02  0.10566000000E+00 0. -1.
     200003    1    4    4    0    0 -0.43359238624E+03 -0.70017446280E+03 -0.40689078023E+03  0.91907929081E+03  0.30000000000E+02 0. -1.
     200000    1    3    3    0    0 -0.12838661184E+03  0.97341942697E+02 -0.12107813126E+03  0.22543178520E+03  0.10100000000E+03 0. -1.
    -200001    1    1    2    0    0  0.60634767384E+03  0.65202837022E+03 -0.23373192024E+03  0.11059828695E+04  0.61300000000E+03 0. -1.
<mgrwt>
<rscale>  0 0.21878204E+04</rscale>
<asrwt>0</asrwt>
<pdfrwt beam="1">  1        2 0.22467856E+00 0.21878204E+04</pdfrwt>
<pdfrwt beam="2">  1       -2 0.10869402E+00 0.21878204E+04</pdfrwt>
<totfact> 0.83175801E+00</totfact>
</mgrwt>
</event>
<event>
 8    1  0.7583103E-052  0.1792650E+04  0.7818608E-02  0.8710218E-01
         -2   -1    0    0    0  501 -0.00000000000E+00  0.00000000000E+00  0.33157440564E+03  0.33157440565E+03  0.25500000000E-02 0.  1.
          2   -1    0    0  501    0  0.00000000000E+00 -0.00000000000E+00 -0.24229805456E+04  0.24229805456E+04  0.25500000000E-02 0. -1.
     200001    2    1    2    0    0 -0.58330173141E+03 -0.29495054064E+03 -0.10659281707E+04  0.13927139926E+04  0.61336177643E+03 0.  0.
    5000001    2    3    3    0    0 -0.22097702454E+03 -0.39189766127E+03 -0.68072654290E+03  0.84566807910E+03  0.22215141576E+03 0.  0.
        -13    1    4    4    0    0 -0.21593673605E+02  0.24606034181E+02 -0.17951132401E+02  0.37336282305E+02  0.10566000000E+00 0. -1.
     200003    1    4    4    0    0 -0.19938335094E+03 -0.41650369545E+03 -0.66277541050E+03  0.80833179680E+03  0.30000000000E+02 0. -1.
     200000    1    3    3    0    0 -0.36232470686E+03  0.96947120628E+02 -0.38520162777E+03  0.54704591346E+03  0.10100000000E+03 0.  1.
    -200001    1    1    2    0    0  0.58330173141E+03  0.29495054064E+03 -0.10254779693E+04  0.13618409587E+04  0.61300000000E+03 0. -1.
<mgrwt>
<rscale>  0 0.17926498E+04</rscale>
<asrwt>0</asrwt>
<pdfrwt beam="1">  1        2 0.34614007E+00 0.17926498E+04</pdfrwt>
<pdfrwt beam="2">  1       -2 0.47367773E-01 0.17926498E+04</pdfrwt>
<totfact> 0.19369854E+01</totfact>
</mgrwt>
</event>
<event>
 8    1  0.7583103E-052  0.2606508E+04  0.7818608E-02  0.8365994E-01
          2   -1    0    0  501    0  0.00000000000E+00  0.00000000000E+00  0.15450533157E+04  0.15450533157E+04  0.25500000000E-02 0.  1.
         -2   -1    0    0    0  501 -0.00000000000E+00 -0.00000000000E+00 -0.10992964092E+04  0.10992964092E+04  0.25500000000E-02 0. -1.
     200001    2    1    2    0    0 -0.53985346385E+03 -0.38830863973E+03  0.11753371774E+04  0.14823334885E+04  0.61128530866E+03 0.  0.
    5000001    2    3    3    0    0 -0.22807751757E+03 -0.47533225314E+03  0.51685669465E+03  0.74167506787E+03  0.70575906656E+02 0.  0.
        -13    1    4    4    0    0 -0.20138577407E+02 -0.19607930507E+02  0.14550645273E+02  0.31650682151E+02  0.10566000000E+00 0. -1.
     200003    1    4    4    0    0 -0.20793894017E+03 -0.45572432263E+03  0.50230604938E+03  0.71002438572E+03  0.30000000000E+02 0. -1.
     200000    1    3    3    0    0 -0.31177594628E+03  0.87023613406E+02  0.65848048271E+03  0.74065842065E+03  0.10100000000E+03 0. -1.
    -200001    1    1    2    0    0  0.53985346385E+03  0.38830863973E+03 -0.72958027088E+03  0.11620162365E+04  0.61300000000E+03 0. -1.
<mgrwt>
<rscale>  0 0.26065084E+04</rscale>
<asrwt>0</asrwt>
<pdfrwt beam="1">  1        2 0.22072190E+00 0.26065084E+04</pdfrwt>
<pdfrwt beam="2">  1       -2 0.15704235E+00 0.26065084E+04</pdfrwt>
<totfact> 0.32623951E+00</totfact>
</mgrwt>
</event>
<event>
 8    1  0.7583103E-052  0.1397156E+04  0.7818608E-02  0.8955880E-01
         -2   -1    0    0    0  501 -0.00000000000E+00  0.00000000000E+00  0.36809649800E+03  0.36809649800E+03  0.25500000000E-02 0. -1.
          2   -1    0    0  501    0  0.00000000000E+00 -0.00000000000E+00 -0.13257702011E+04  0.13257702011E+04  0.25500000000E-02 0.  1.
     200001    2    1    2    0    0  0.33415116599E+03  0.10126618502E+02 -0.50848624175E+03  0.86362701949E+03  0.61280814340E+03 0.  0.
    5000001    2    3    3    0    0  0.26431886657E+03  0.24666926322E+03 -0.11328593019E+03  0.38695809974E+03  0.78693585059E+02 0.  0.
        -13    1    4    4    0    0  0.15079605006E+03  0.10506201761E+03 -0.77972336811E+02  0.19964261251E+03  0.10566000000E+00 0. -1.
     200003    1    4    4    0    0  0.11352281651E+03  0.14160724560E+03 -0.35313593383E+02  0.18731548722E+03  0.30000000000E+02 0. -1.
     200000    1    3    3    0    0  0.69832299414E+02 -0.23654264471E+03 -0.39520031155E+03  0.47666891976E+03  0.10100000000E+03 0.  1.
    -200001    1    1    2    0    0 -0.33415116599E+03 -0.10126618502E+02 -0.44918746131E+03  0.83023967957E+03  0.61300000000E+03 0.  1.
<mgrwt>
<rscale>  0 0.13971562E+04</rscale>
<asrwt>0</asrwt>
<pdfrwt beam="1">  1        2 0.18939574E+00 0.13971562E+04</pdfrwt>
<pdfrwt beam="2">  1       -2 0.52585215E-01 0.13971562E+04</pdfrwt>
<totfact> 0.60399226E+01</totfact>
</mgrwt>
</event>
<event>
 8    1  0.7583103E-052  0.1413047E+04  0.7818608E-02  0.8944428E-01
          2   -1    0    0  501    0  0.00000000000E+00  0.00000000000E+00  0.16772464042E+04  0.16772464042E+04  0.25500000000E-02 0.  1.
         -2   -1    0    0    0  501 -0.00000000000E+00 -0.00000000000E+00 -0.29761609678E+03  0.29761609679E+03  0.25500000000E-02 0. -1.
     200001    2    1    2    0    0  0.20563929753E+03 -0.26026062290E+03  0.85169784899E+03  0.11005028535E+04  0.61293897908E+03 0.  0.
    5000001    2    3    3    0    0  0.17656164238E+02 -0.11850700617E+03  0.83128703681E+03  0.84350217741E+03  0.78116163970E+02 0.  0.
        -13    1    4    4    0    0 -0.23638467333E+02 -0.56925137968E+02  0.42139229581E+03  0.42587642175E+03  0.10566000000E+00 0. -1.
     200003    1    4    4    0    0  0.41294631571E+02 -0.61581868198E+02  0.40989474100E+03  0.41762575566E+03  0.30000000000E+02 0. -1.
     200000    1    3    3    0    0  0.18798313329E+03 -0.14175361673E+03  0.20410812177E+02  0.25700067609E+03  0.10100000000E+03 0. -1.
    -200001    1    1    2    0    0 -0.20563929753E+03  0.26026062290E+03  0.52793245845E+03  0.87435964752E+03  0.61300000000E+03 0.  1.
<mgrwt>
<rscale>  0 0.14130471E+04</rscale>
<asrwt>0</asrwt>
<pdfrwt beam="1">  1        2 0.23960663E+00 0.14130471E+04</pdfrwt>
<pdfrwt beam="2">  1       -2 0.42516586E-01 0.14130471E+04</pdfrwt>
<totfact> 0.60153295E+01</totfact>
</mgrwt>
</event>
<event>
 8    1  0.7583103E-052  0.1344703E+04  0.7818608E-02  0.8994848E-01
         -2   -1    0    0    0  501 -0.00000000000E+00  0.00000000000E+00  0.19779512717E+03  0.19779512718E+03  0.25500000000E-02 0. -1.
          2   -1    0    0  501    0  0.00000000000E+00 -0.00000000000E+00 -0.22854783667E+04  0.22854783667E+04  0.25500000000E-02 0.  1.
     200001    2    1    2    0    0  0.39947604295E+01 -0.19183317812E+03 -0.14105699243E+04  0.15499635946E+04  0.61307724394E+03 0.  0.
    5000001    2    3    3    0    0 -0.16083648156E+03 -0.22823000366E+03 -0.12846777221E+04  0.13164172099E+04  0.67824128898E+02 0.  0.
        -13    1    4    4    0    0 -0.10210417696E+03 -0.11148449524E+03 -0.75893292204E+03  0.77384316690E+03  0.10566000000E+00 0. -1.
     200003    1    4    4    0    0 -0.58732304601E+02 -0.11674550842E+03 -0.52574480011E+03  0.54257404304E+03  0.30000000000E+02 0.  1.
     200000    1    3    3    0    0  0.16483124199E+03  0.36396825546E+02 -0.12589220215E+03  0.23354638470E+03  0.10100000000E+03 0. -1.
    -200001    1    1    2    0    0 -0.39947604295E+01  0.19183317812E+03 -0.67711331520E+03  0.93330989921E+03  0.61300000000E+03 0. -1.
<mgrwt>
<rscale>  0 0.13447029E+04</rscale>
<asrwt>0</asrwt>
<pdfrwt beam="1">  1        2 0.32649689E+00 0.13447029E+04</pdfrwt>
<pdfrwt beam="2">  1       -2 0.28256448E-01 0.13447029E+04</pdfrwt>
<totfact> 0.64087202E+01</totfact>
</mgrwt>
</event>
<event>
 8    1  0.7583103E-052  0.1321968E+04  0.7818608E-02  0.9012323E-01
         -2   -1    0    0    0  501 -0.00000000000E+00  0.00000000000E+00  0.30058356232E+03  0.30058356233E+03  0.25500000000E-02 0. -1.
          2   -1    0    0  501    0  0.00000000000E+00 -0.00000000000E+00 -0.14535061727E+04  0.14535061727E+04  0.25500000000E-02 0.  1.
     200001    2    1    2    0    0  0.20642303891E+03 -0.13391727488E+03 -0.55361986008E+03  0.86219450910E+03  0.61346565882E+03 0.  0.
    5000001    2    3    3    0    0 -0.81205274456E+02  0.11798219267E+03  0.21495770585E+02  0.16423865303E+03  0.77447870265E+02 0.  0.
        -13    1    4    4    0    0 -0.49106475141E+02  0.92366277374E+02 -0.89054935375E+01  0.10498711386E+03  0.10566000000E+00 0. -1.
     200003    1    4    4    0    0 -0.32098799315E+02  0.25615915296E+02  0.30401264122E+02  0.59251539171E+02  0.30000000000E+02 0. -1.
     200000    1    3    3    0    0  0.28762831336E+03 -0.25189946755E+03 -0.57511563066E+03  0.69795585607E+03  0.10100000000E+03 0.  1.
    -200001    1    1    2    0    0 -0.20642303891E+03  0.13391727488E+03 -0.59930275029E+03  0.89189522592E+03  0.61300000000E+03 0.  1.
<mgrwt>
<rscale>  0 0.13219683E+04</rscale>
<asrwt>0</asrwt>
<pdfrwt beam="1">  1        2 0.20764373E+00 0.13219683E+04</pdfrwt>
<pdfrwt beam="2">  1       -2 0.42940510E-01 0.13219683E+04</pdfrwt>
<totfact> 0.77911678E+01</totfact>
</mgrwt>
</event>
<event>
 8    1  0.7583103E-052  0.1396372E+04  0.7818608E-02  0.8956449E-01
         -2   -1    0    0    0  501 -0.00000000000E+00  0.00000000000E+00  0.15518991593E+04  0.15518991593E+04  0.25500000000E-02 0. -1.
          2   -1    0    0  501    0  0.00000000000E+00 -0.00000000000E+00 -0.31410774651E+03  0.31410774652E+03  0.25500000000E-02 0.  1.
     200001    2    1    2    0    0 -0.13799689746E+03  0.30458594848E+03  0.60339580264E+03  0.92258624996E+03  0.61258725930E+03 0.  0.
    5000001    2    3    3    0    0  0.15636889845E+03 -0.47000065231E+02  0.48479323796E+02  0.19567687092E+03  0.96327329686E+02 0.  0.
        -13    1    4    4    0    0  0.63657082886E+02 -0.51831131288E+02 -0.87689909092E+01  0.82556627461E+02  0.10566000000E+00 0. -1.
     200003    1    4    4    0    0  0.92711815565E+02  0.48310660566E+01  0.57248314706E+02  0.11312024346E+03  0.30000000000E+02 0. -1.
     200000    1    3    3    0    0 -0.29436579591E+03  0.35158601371E+03  0.55491647884E+03  0.72690937904E+03  0.10100000000E+03 0. -1.
    -200001    1    1    2    0    0  0.13799689746E+03 -0.30458594848E+03  0.63439561014E+03  0.94342065585E+03  0.61300000000E+03 0. -1.
<mgrwt>
<rscale>  0 0.13963718E+04</rscale>
<asrwt>0</asrwt>
<pdfrwt beam="1">  1        2 0.44872537E-01 0.13963718E+04</pdfrwt>
<pdfrwt beam="2">  1       -2 0.22169987E+00 0.13963718E+04</pdfrwt>
<totfact> 0.10651193E+01</totfact>
</mgrwt>
</event>
<event>
 8    1  0.7583103E-052  0.1383782E+04  0.7818608E-02  0.8965642E-01
          2   -1    0    0  501    0  0.00000000000E+00  0.00000000000E+00  0.15728418032E+04  0.15728418032E+04  0.25500000000E-02 0.  1.
         -2   -1    0    0    0  501 -0.00000000000E+00 -0.00000000000E+00 -0.30436199497E+03  0.30436199498E+03  0.25500000000E-02 0. -1.
     200001    2    1    2    0    0  0.20236273012E+03  0.22897348123E+03  0.76864753880E+03  0.10292764268E+04  0.61254501395E+03 0.  0.
    5000001    2    3    3    0    0  0.37399833783E+03  0.27757477955E+03  0.47248527198E+03  0.66909042436E+03  0.86701492400E+02 0.  0.
        -13    1    4    4    0    0  0.75303328785E+02  0.48385253922E+02  0.50503532497E+02  0.10277325567E+03  0.10566000000E+00 0. -1.
     200003    1    4    4    0    0  0.29869500905E+03  0.22918952563E+03  0.42198173949E+03  0.56631716869E+03  0.30000000000E+02 0. -1.
     200000    1    3    3    0    0 -0.17163560771E+03 -0.48601298326E+02  0.29616226682E+03  0.36018600239E+03  0.10100000000E+03 0. -1.
    -200001    1    1    2    0    0 -0.20236273012E+03 -0.22897348123E+03  0.49983226943E+03  0.84792737142E+03  0.61300000000E+03 0. -1.
<mgrwt>
<rscale>  0 0.13837822E+04</rscale>
<asrwt>0</asrwt>
<pdfrwt beam="1">  1        2 0.22469168E+00 0.13837822E+04</pdfrwt>
<pdfrwt beam="2">  1       -2 0.43480285E-01 0.13837822E+04</pdfrwt>
<totfact> 0.65398206E+01</totfact>
</mgrwt>
</event>
<event>
 8    1  0.7583103E-052  0.2303806E+04  0.7818608E-02  0.8476422E-01
         -2   -1    0    0    0  501 -0.00000000000E+00  0.00000000000E+00  0.58672578234E+03  0.58672578235E+03  0.25500000000E-02 0. -1.
          2   -1    0    0  501    0  0.00000000000E+00 -0.00000000000E+00 -0.22615009768E+04  0.22615009768E+04  0.25500000000E-02 0.  1.
     200001    2    1    2    0    0 -0.62820462401E+03 -0.36453053494E+03 -0.33331326518E+02  0.95148467544E+03  0.61374958226E+03 0.  0.
    5000001    2    3    3    0    0 -0.36301229990E+03 -0.35435094526E+03 -0.26990633267E+03  0.58189121452E+03  0.91681158560E+02 0.  0.
        -13    1    4    4    0    0 -0.11254186717E+03 -0.59034143967E+02 -0.69308926501E+02  0.14475648683E+03  0.10566000000E+00 0. -1.
     200003    1    4    4    0    0 -0.25047043273E+03 -0.29531680129E+03 -0.20059740617E+03  0.43713472770E+03  0.30000000000E+02 0. -1.
     200000    1    3    3    0    0 -0.26519232411E+03 -0.10179589677E+02  0.23657500615E+03  0.36959346091E+03  0.10100000000E+03 0. -1.
    -200001    1    1    2    0    0  0.62820462401E+03  0.36453053494E+03 -0.16414438679E+04  0.18967420837E+04  0.61300000000E+03 0. -1.
<mgrwt>
<rscale>  0 0.23038064E+04</rscale>
<asrwt>0</asrwt>
<pdfrwt beam="1">  1        2 0.32307156E+00 0.23038064E+04</pdfrwt>
<pdfrwt beam="2">  1       -2 0.83817970E-01 0.23038064E+04</pdfrwt>
<totfact> 0.66575529E+00</totfact>
</mgrwt>
</event>
<event>
 8    1  0.7583103E-052  0.1799696E+04  0.7818608E-02  0.8706461E-01
         -2   -1    0    0    0  501 -0.00000000000E+00  0.00000000000E+00  0.26769963448E+03  0.26769963450E+03  0.25500000000E-02 0. -1.
          2   -1    0    0  501    0  0.00000000000E+00 -0.00000000000E+00 -0.30247577999E+04  0.30247577999E+04  0.25500000000E-02 0.  1.
     200001    2    1    2    0    0 -0.57016781345E+03 -0.14131824641E+03 -0.84035408181E+03  0.11961307122E+04  0.61601259360E+03 0.  0.
    5000001    2    3    3    0    0 -0.50746876770E+03  0.34852718790E+01 -0.86828352958E+03  0.10067097965E+04  0.44851189963E+02 0.  0.
        -13    1    4    4    0    0 -0.12050407869E+03  0.13135535283E+01 -0.23067760259E+03  0.26025972778E+03  0.10566000000E+00 0. -1.
     200003    1    4    4    0    0 -0.38696468901E+03  0.21717183507E+01 -0.63760592700E+03  0.74645006869E+03  0.30000000000E+02 0. -1.
     200000    1    3    3    0    0 -0.62699045754E+02 -0.14480351829E+03  0.27929447773E+02  0.18942091569E+03  0.10100000000E+03 0.  1.
    -200001    1    1    2    0    0  0.57016781345E+03  0.14131824641E+03 -0.19167040836E+04  0.20963267222E+04  0.61300000000E+03 0. -1.
<mgrwt>
<rscale>  0 0.17996961E+04</rscale>
<asrwt>0</asrwt>
<pdfrwt beam="1">  1        2 0.43210824E+00 0.17996961E+04</pdfrwt>
<pdfrwt beam="2">  1       -2 0.38242807E-01 0.17996961E+04</pdfrwt>
<totfact> 0.13993668E+01</totfact>
</mgrwt>
</event>
<event>
 8    1  0.7583103E-052  0.1324099E+04  0.7818608E-02  0.9010670E-01
          2   -1    0    0  501    0  0.00000000000E+00  0.00000000000E+00  0.17795314410E+04  0.17795314410E+04  0.25500000000E-02 0.  1.
         -2   -1    0    0    0  501 -0.00000000000E+00 -0.00000000000E+00 -0.24630622741E+03  0.24630622742E+03  0.25500000000E-02 0. -1.
     200001    2    1    2    0    0  0.20677188717E+03 -0.13153268311E+03  0.83913643297E+03  0.10679317777E+04  0.61341084821E+03 0.  0.
    5000001    2    3    3    0    0  0.39500707127E+03 -0.46868759961E+02  0.49937767279E+03  0.65776415403E+03  0.15826672180E+03 0.  0.
        -13    1    4    4    0    0  0.30511833537E+03  0.95227209361E+01  0.43050047901E+03  0.52774857118E+03  0.10566000000E+00 0. -1.
     200003    1    4    4    0    0  0.89888735901E+02 -0.56391480898E+02  0.68877193777E+02  0.13001558284E+03  0.30000000000E+02 0. -1.
     200000    1    3    3    0    0 -0.18823518410E+03 -0.84663923151E+02  0.33975876019E+03  0.41016762371E+03  0.10100000000E+03 0. -1.
    -200001    1    1    2    0    0 -0.20677188717E+03  0.13153268311E+03  0.69408878063E+03  0.95790589071E+03  0.61300000000E+03 0.  1.
<mgrwt>
<rscale>  0 0.13240992E+04</rscale>
<asrwt>0</asrwt>
<pdfrwt beam="1">  1        2 0.25421878E+00 0.13240992E+04</pdfrwt>
<pdfrwt beam="2">  1       -2 0.35186603E-01 0.13240992E+04</pdfrwt>
<totfact> 0.77403335E+01</totfact>
</mgrwt>
</event>
<event>
 8    1  0.7583103E-052  0.2325562E+04  0.7818608E-02  0.8467910E-01
          2   -1    0    0  501    0  0.00000000000E+00  0.00000000000E+00  0.14136184595E+04  0.14136184595E+04  0.25500000000E-02 0. -1.
         -2   -1    0    0    0  501 -0.00000000000E+00 -0.00000000000E+00 -0.95645318603E+03  0.95645318603E+03  0.25500000000E-02 0.  1.
     200001    2    1    2    0    0 -0.74272992149E+03  0.64272181252E+03  0.10437964584E+03  0.11597139448E+04  0.60770244261E+03 0.  0.
    5000001    2    3    3    0    0 -0.46533498604E+03  0.21150076642E+03 -0.20039497258E+03  0.55474443413E+03  0.79460800004E+02 0.  0.
        -13    1    4    4    0    0 -0.33678290996E+03  0.15393231773E+03 -0.17049727338E+03  0.40766066560E+03  0.10566000000E+00 0. -1.
     200003    1    4    4    0    0 -0.12855207608E+03  0.57568448690E+02 -0.29897699207E+02  0.14708376854E+03  0.30000000000E+02 0. -1.
     200000    1    3    3    0    0 -0.27739493545E+03  0.43122104610E+03  0.30477461842E+03  0.60496951068E+03  0.10100000000E+03 0. -1.
    -200001    1    1    2    0    0  0.74272992149E+03 -0.64272181252E+03  0.35278562760E+03  0.12103577007E+04  0.61300000000E+03 0.  1.
<mgrwt>
<rscale>  0 0.23255622E+04</rscale>
<asrwt>0</asrwt>
<pdfrwt beam="1">  1        2 0.20194549E+00 0.23255622E+04</pdfrwt>
<pdfrwt beam="2">  1       -2 0.13663617E+00 0.23255622E+04</pdfrwt>
<totfact> 0.56605094E+00</totfact>
</mgrwt>
</event>
<event>
 8    1  0.7583103E-052  0.1270921E+04  0.7818608E-02  0.9052948E-01
          2   -1    0    0  501    0  0.00000000000E+00  0.00000000000E+00  0.80782459001E+03  0.80782459002E+03  0.25500000000E-02 0.  1.
         -2   -1    0    0    0  501 -0.00000000000E+00 -0.00000000000E+00 -0.49987327982E+03  0.49987327982E+03  0.25500000000E-02 0. -1.
     200001    2    1    2    0    0  0.12644843255E+03  0.96334028896E+02  0.92819895407E+02  0.63887803098E+03  0.61178440179E+03 0.  0.
    5000001    2    3    3    0    0 -0.20729737478E+03 -0.79462292686E+02  0.37674019736E+02  0.24450171553E+03  0.95264366812E+02 0.  0.
        -13    1    4    4    0    0 -0.46795357152E+02 -0.61245644557E+02  0.16797185767E+02  0.78885936909E+02  0.10566000000E+00 0. -1.
     200003    1    4    4    0    0 -0.16050201762E+03 -0.18216648128E+02  0.20876833968E+02  0.16561577862E+03  0.30000000000E+02 0. -1.
     200000    1    3    3    0    0  0.33374580733E+03  0.17579632158E+03  0.55145875672E+02  0.39437631546E+03  0.10100000000E+03 0. -1.
    -200001    1    1    2    0    0 -0.12644843255E+03 -0.96334028896E+02  0.21513141479E+03  0.66881983886E+03  0.61300000000E+03 0.  1.
<mgrwt>
<rscale>  0 0.12709208E+04</rscale>
<asrwt>0</asrwt>
<pdfrwt beam="1">  1        2 0.11540351E+00 0.12709208E+04</pdfrwt>
<pdfrwt beam="2">  1       -2 0.71410469E-01 0.12709208E+04</pdfrwt>
<totfact> 0.65682297E+01</totfact>
</mgrwt>
</event>
<event>
 8    1  0.7583103E-052  0.1326167E+04  0.7818608E-02  0.9009068E-01
         -2   -1    0    0    0  501 -0.00000000000E+00  0.00000000000E+00  0.69389811192E+03  0.69389811192E+03  0.25500000000E-02 0. -1.
          2   -1    0    0  501    0  0.00000000000E+00 -0.00000000000E+00 -0.63363728355E+03  0.63363728355E+03  0.25500000000E-02 0.  1.
     200001    2    1    2    0    0  0.80727616055E+02 -0.13106488064E+03  0.23125085843E+03  0.67278235706E+03  0.61275132763E+03 0.  0.
    5000001    2    3    3    0    0 -0.17089621754E+03  0.57996475157E+02  0.27811830724E+03  0.33893163047E+03  0.70397080965E+02 0.  0.
        -13    1    4    4    0    0 -0.18211850401E+02  0.18333873687E+02  0.12884982029E+02  0.28876224568E+02  0.10566000000E+00 0. -1.
     200003    1    4    4    0    0 -0.15268436714E+03  0.39662601469E+02  0.26523332521E+03  0.31005540590E+03  0.30000000000E+02 0. -1.
     200000    1    3    3    0    0  0.25162383360E+03 -0.18906135580E+03 -0.46867448807E+02  0.33385072659E+03  0.10100000000E+03 0.  1.
    -200001    1    1    2    0    0 -0.80727616055E+02  0.13106488064E+03 -0.17099003006E+03  0.65475303841E+03  0.61300000000E+03 0.  1.
<mgrwt>
<rscale>  0 0.13261670E+04</rscale>
<asrwt>0</asrwt>
<pdfrwt beam="1">  1        2 0.90519612E-01 0.13261670E+04</pdfrwt>
<pdfrwt beam="2">  1       -2 0.99128301E-01 0.13261670E+04</pdfrwt>
<totfact> 0.42009174E+01</totfact>
</mgrwt>
</event>
<event>
 8    1  0.7583103E-052  0.1564145E+04  0.7818608E-02  0.8842883E-01
          2   -1    0    0  501    0  0.00000000000E+00  0.00000000000E+00  0.27473861507E+04  0.27473861507E+04  0.25500000000E-02 0.  1.
         -2   -1    0    0    0  501 -0.00000000000E+00 -0.00000000000E+00 -0.22262526999E+03  0.22262527000E+03  0.25500000000E-02 0. -1.
     200001    2    1    2    0    0 -0.20782780383E+03 -0.28607293131E+03  0.18949987495E+04  0.20226997191E+04  0.61258776921E+03 0.  0.
    5000001    2    3    3    0    0 -0.32736793662E+03 -0.38663689640E+03  0.14857519479E+04  0.15731589545E+04  0.10350067556E+03 0.  0.
        -13    1    4    4    0    0 -0.11133683693E+03 -0.20484135546E+03  0.67047599297E+03  0.70985487282E+03  0.10566000000E+00 0. -1.
     200003    1    4    4    0    0 -0.21603109970E+03 -0.18179554094E+03  0.81527595490E+03  0.86330408165E+03  0.30000000000E+02 0. -1.
     200000    1    3    3    0    0  0.11954013279E+03  0.10056396510E+03  0.40924680165E+03  0.44954076465E+03  0.10100000000E+03 0.  1.
    -200001    1    1    2    0    0  0.20782780383E+03  0.28607293131E+03  0.62976213119E+03  0.94731170158E+03  0.61300000000E+03 0. -1.
<mgrwt>
<rscale>  0 0.15641452E+04</rscale>
<asrwt>0</asrwt>
<pdfrwt beam="1">  1        2 0.39248373E+00 0.15641452E+04</pdfrwt>
<pdfrwt beam="2">  1       -2 0.31803610E-01 0.15641452E+04</pdfrwt>
<totfact> 0.28842862E+01</totfact>
</mgrwt>
</event>
<event>
 8    1  0.7583103E-052  0.1587801E+04  0.7818608E-02  0.8828077E-01
          2   -1    0    0  501    0  0.00000000000E+00  0.00000000000E+00  0.94456901036E+03  0.94456901036E+03  0.25500000000E-02 0.  1.
         -2   -1    0    0    0  501 -0.00000000000E+00 -0.00000000000E+00 -0.66726529585E+03  0.66726529586E+03  0.25500000000E-02 0. -1.
     200001    2    1    2    0    0  0.41345775430E+03  0.13057914732E+03 -0.12287503172E+03  0.76100514755E+03  0.61321475265E+03 0.  0.
    5000001    2    3    3    0    0  0.41700583767E+03 -0.83977570072E+01  0.13919912106E+03  0.44761875603E+03  0.83795969329E+02 0.  0.
        -13    1    4    4    0    0  0.93635816898E+02  0.15236530292E+02  0.37170205409E+01  0.94940220493E+02  0.10566000000E+00 0. -1.
     200003    1    4    4    0    0  0.32337002077E+03 -0.23634287300E+02  0.13548210052E+03  0.35267853554E+03  0.30000000000E+02 0. -1.
     200000    1    3    3    0    0 -0.35480833643E+01  0.13897690433E+03 -0.26207415278E+03  0.31338639152E+03  0.10100000000E+03 0. -1.
    -200001    1    1    2    0    0 -0.41345775430E+03 -0.13057914732E+03  0.40017874622E+03  0.85082915867E+03  0.61300000000E+03 0.  1.
<mgrwt>
<rscale>  0 0.15878011E+04</rscale>
<asrwt>0</asrwt>
<pdfrwt beam="1">  1        2 0.13493843E+00 0.15878011E+04</pdfrwt>
<pdfrwt beam="2">  1       -2 0.95323614E-01 0.15878011E+04</pdfrwt>
<totfact> 0.27073762E+01</totfact>
</mgrwt>
</event>
<event>
 8    1  0.7583103E-052  0.1575658E+04  0.7818608E-02  0.8835643E-01
          2   -1    0    0  501    0  0.00000000000E+00  0.00000000000E+00  0.18136347068E+04  0.18136347068E+04  0.25500000000E-02 0.  1.
         -2   -1    0    0    0  501 -0.00000000000E+00 -0.00000000000E+00 -0.34222679923E+03  0.34222679924E+03  0.25500000000E-02 0. -1.
     200001    2    1    2    0    0  0.61087804951E+02  0.48655111332E+03  0.82623192279E+03  0.11397489350E+04  0.61311070673E+03 0.  0.
    5000001    2    3    3    0    0 -0.36731151282E+02  0.71667958577E+02  0.65983561069E+03  0.67114962535E+03  0.92592184901E+02 0.  0.
        -13    1    4    4    0    0 -0.32035573280E+02  0.74641126747E+02  0.32773468562E+03  0.33765013117E+03  0.10566000000E+00 0. -1.
     200003    1    4    4    0    0 -0.46955780024E+01 -0.29731681700E+01  0.33210092507E+03  0.33349949417E+03  0.30000000000E+02 0. -1.
     200000    1    3    3    0    0  0.97818956233E+02  0.41488315474E+03  0.16639631210E+03  0.46859930961E+03  0.10100000000E+03 0. -1.
    -200001    1    1    2    0    0 -0.61087804951E+02 -0.48655111332E+03  0.64517598478E+03  0.10161125711E+04  0.61300000000E+03 0. -1.
<mgrwt>
<rscale>  0 0.15756578E+04</rscale>
<asrwt>0</asrwt>
<pdfrwt beam="1">  1        2 0.25909067E+00 0.15756578E+04</pdfrwt>
<pdfrwt beam="2">  1       -2 0.48889543E-01 0.15756578E+04</pdfrwt>
<totfact> 0.38171755E+01</totfact>
</mgrwt>
</event>
<event>
 8    1  0.7583103E-052  0.1745087E+04  0.7818608E-02  0.8736059E-01
          2   -1    0    0  501    0  0.00000000000E+00  0.00000000000E+00  0.44396352751E+04  0.44396352751E+04  0.25500000000E-02 0.  1.
         -2   -1    0    0    0  501 -0.00000000000E+00 -0.00000000000E+00 -0.17148523044E+03  0.17148523045E+03  0.25500000000E-02 0. -1.
     200001    2    1    2    0    0  0.22775107534E+02  0.13173165102E+03  0.53022914135E+03  0.82091027223E+03  0.61227346775E+03 0.  0.
    5000001    2    3    3    0    0  0.25672256463E+03  0.12700329299E+03  0.88054935557E+02  0.31054491455E+03  0.81536253626E+02 0.  0.
        -13    1    4    4    0    0  0.84770898087E+02  0.37764965880E+02  0.64679544146E+02  0.11311831154E+03  0.10566000000E+00 0. -1.
     200003    1    4    4    0    0  0.17195166654E+03  0.89238327114E+02  0.23375391411E+02  0.19742660301E+03  0.30000000000E+02 0. -1.
     200000    1    3    3    0    0 -0.23394745709E+03  0.47283580250E+01  0.44217420579E+03  0.51036535768E+03  0.10100000000E+03 0.  1.
    -200001    1    1    2    0    0 -0.22775107534E+02 -0.13173165102E+03  0.37379209033E+04  0.37902102333E+04  0.61300000000E+03 0.  1.
<mgrwt>
<rscale>  0 0.17450867E+04</rscale>
<asrwt>0</asrwt>
<pdfrwt beam="1">  1        2 0.63423355E+00 0.17450867E+04</pdfrwt>
<pdfrwt beam="2">  1       -2 0.24497892E-01 0.17450867E+04</pdfrwt>
<totfact> 0.38998519E+00</totfact>
</mgrwt>
</event>
<event>
 8    1  0.7583103E-052  0.1334145E+04  0.7818608E-02  0.9002918E-01
          2   -1    0    0  501    0  0.00000000000E+00  0.00000000000E+00  0.34011598748E+04  0.34011598748E+04  0.25500000000E-02 0.  1.
         -2   -1    0    0    0  501 -0.00000000000E+00 -0.00000000000E+00 -0.13083346270E+03  0.13083346273E+03  0.25500000000E-02 0. -1.
     200001    2    1    2    0    0  0.42264136811E+02 -0.52186709272E+01  0.94413065890E+03  0.11260072249E+04  0.61212423392E+03 0.  0.
    5000001    2    3    3    0    0  0.30002339389E+03 -0.75911133959E+02  0.57070240671E+03  0.65580841755E+03  0.92773414069E+02 0.  0.
        -13    1    4    4    0    0  0.44621488322E+02 -0.12796081586E+02  0.16448906239E+03  0.17091366164E+03  0.10566000000E+00 0. -1.
     200003    1    4    4    0    0  0.25540190557E+03 -0.63115052373E+02  0.40621334432E+03  0.48489475591E+03  0.30000000000E+02 0. -1.
     200000    1    3    3    0    0 -0.25775925708E+03  0.70692463032E+02  0.37342825219E+03  0.47019880739E+03  0.10100000000E+03 0.  1.
    -200001    1    1    2    0    0 -0.42264136811E+02  0.52186709272E+01  0.23261957532E+04  0.24059861126E+04  0.61300000000E+03 0.  1.
<mgrwt>
<rscale>  0 0.13341447E+04</rscale>
<asrwt>0</asrwt>
<pdfrwt beam="1">  1        2 0.48588003E+00 0.13341447E+04</pdfrwt>
<pdfrwt beam="2">  1       -2 0.18690493E-01 0.13341447E+04</pdfrwt>
<totfact> 0.32953444E+01</totfact>
</mgrwt>
</event>
<event>
 8    1  0.7583103E-052  0.1861586E+04  0.7818608E-02  0.8674217E-01
         -2   -1    0    0    0  501 -0.00000000000E+00  0.00000000000E+00  0.21852113468E+03  0.21852113470E+03  0.25500000000E-02 0. -1.
          2   -1    0    0  501    0  0.00000000000E+00 -0.00000000000E+00 -0.39647234701E+04  0.39647234701E+04  0.25500000000E-02 0.  1.
     200001    2    1    2    0    0 -0.25734116748E+03  0.68187257050E+02 -0.33278812237E+04  0.33948059382E+04  0.61566219672E+03 0.  0.
    5000001    2    3    3    0    0  0.15699263075E+03 -0.61304105478E+02 -0.15799482675E+04  0.15909458747E+04  0.80419952638E+02 0.  0.
        -13    1    4    4    0    0  0.53073856446E+02 -0.38880287815E+02 -0.86680883209E+03  0.86930206118E+03  0.10566000000E+00 0. -1.
     200003    1    4    4    0    0  0.10391877430E+03 -0.22423817664E+02 -0.71313943543E+03  0.72164381353E+03  0.30000000000E+02 0. -1.
     200000    1    3    3    0    0 -0.41433379823E+03  0.12949136253E+03 -0.17479329561E+04  0.18038600634E+04  0.10100000000E+03 0. -1.
    -200001    1    1    2    0    0  0.25734116748E+03 -0.68187257050E+02 -0.41832111176E+03  0.78843866664E+03  0.61300000000E+03 0. -1.
<mgrwt>
<rscale>  0 0.18615863E+04</rscale>
<asrwt>0</asrwt>
<pdfrwt beam="1">  1        2 0.56638902E+00 0.18615863E+04</pdfrwt>
<pdfrwt beam="2">  1       -2 0.31217307E-01 0.18615863E+04</pdfrwt>
<totfact> 0.54469691E+00</totfact>
</mgrwt>
</event>
<event>
 8    1  0.7583103E-052  0.1341246E+04  0.7818608E-02  0.8997481E-01
          2   -1    0    0  501    0  0.00000000000E+00  0.00000000000E+00  0.22347855441E+04  0.22347855441E+04  0.25500000000E-02 0. -1.
         -2   -1    0    0    0  501 -0.00000000000E+00 -0.00000000000E+00 -0.20124318993E+03  0.20124318994E+03  0.25500000000E-02 0.  1.
     200001    2    1    2    0    0 -0.21778612258E+03  0.16118784426E+03  0.10275170679E+04  0.12271994686E+04  0.61385250235E+03 0.  0.
    5000001    2    3    3    0    0  0.10346437247E+03 -0.11802830449E+03  0.55061536115E+03  0.58005205404E+03  0.92992217072E+02 0.  0.
        -13    1    4    4    0    0  0.34847872039E+02  0.77734876587E+01  0.94748564256E+02  0.10125266855E+03  0.10566000000E+00 0. -1.
     200003    1    4    4    0    0  0.68616500433E+02 -0.12580179215E+03  0.45586679689E+03  0.47879938549E+03  0.30000000000E+02 0. -1.
     200000    1    3    3    0    0 -0.32125049505E+03  0.27921614875E+03  0.47690170673E+03  0.64714741456E+03  0.10100000000E+03 0. -1.
    -200001    1    1    2    0    0  0.21778612258E+03 -0.16118784426E+03  0.10060252863E+04  0.12088292655E+04  0.61300000000E+03 0.  1.
<mgrwt>
<rscale>  0 0.13412462E+04</rscale>
<asrwt>0</asrwt>
<pdfrwt beam="1">  1        2 0.31925508E+00 0.13412462E+04</pdfrwt>
<pdfrwt beam="2">  1       -2 0.28749027E-01 0.13412462E+04</pdfrwt>
<totfact> 0.65945193E+01</totfact>
</mgrwt>
</event>
<event>
 8    1  0.7583103E-052  0.1458006E+04  0.7818608E-02  0.8912869E-01
         -2   -1    0    0    0  501 -0.00000000000E+00  0.00000000000E+00  0.17572586525E+03  0.17572586527E+03  0.25500000000E-02 0. -1.
          2   -1    0    0  501    0  0.00000000000E+00 -0.00000000000E+00 -0.30242845860E+04  0.30242845860E+04  0.25500000000E-02 0.  1.
     200001    2    1    2    0    0  0.51377878166E+02 -0.15563278621E+03 -0.22123156730E+04  0.23014363217E+04  0.61270486808E+03 0.  0.
    5000001    2    3    3    0    0  0.23573647685E+03 -0.28663170730E+03 -0.14873003165E+04  0.15352789767E+04  0.85380808818E+02 0.  0.
        -13    1    4    4    0    0  0.67997127432E+02 -0.13465686739E+03 -0.52340282254E+03  0.54470781809E+03  0.10566000000E+00 0. -1.
     200003    1    4    4    0    0  0.16773934942E+03 -0.15197483992E+03 -0.96389749399E+03  0.99057115859E+03  0.30000000000E+02 0. -1.
     200000    1    3    3    0    0 -0.18435859868E+03  0.13099892109E+03 -0.72501535647E+03  0.76615734504E+03  0.10100000000E+03 0. -1.
    -200001    1    1    2    0    0 -0.51377878166E+02  0.15563278621E+03 -0.63624304774E+03  0.89857412956E+03  0.61300000000E+03 0. -1.
<mgrwt>
<rscale>  0 0.14580055E+04</rscale>
<asrwt>0</asrwt>
<pdfrwt beam="1">  1        2 0.43204062E+00 0.14580055E+04</pdfrwt>
<pdfrwt beam="2">  1       -2 0.25103697E-01 0.14580055E+04</pdfrwt>
<totfact> 0.31766790E+01</totfact>
</mgrwt>
</event>
<event>
 8    1  0.7583103E-052  0.1421278E+04  0.7818608E-02  0.8938559E-01
          2   -1    0    0  501    0  0.00000000000E+00  0.00000000000E+00  0.31173104104E+04  0.31173104104E+04  0.25500000000E-02 0.  1.
         -2   -1    0    0    0  501 -0.00000000000E+00 -0.00000000000E+00 -0.16200109336E+03  0.16200109338E+03  0.25500000000E-02 0. -1.
     200001    2    1    2    0    0  0.32204602847E+03  0.13929173162E+03  0.13003559577E+04  0.14799350973E+04  0.61332409401E+03 0.  0.
    5000001    2    3    3    0    0  0.22183675845E+03  0.20294023610E+03  0.12861853561E+04  0.13234268359E+04  0.82398621295E+02 0.  0.
        -13    1    4    4    0    0  0.13943760748E+01 -0.41420033713E+01  0.59065914803E+02  0.59227476159E+02  0.10566000000E+00 0. -1.
     200003    1    4    4    0    0  0.22044238237E+03  0.20708223948E+03  0.12271194413E+04  0.12641993597E+04  0.30000000000E+02 0. -1.
     200000    1    3    3    0    0  0.10020927002E+03 -0.63648504485E+02  0.14170601598E+02  0.15650826135E+03  0.10100000000E+03 0. -1.
    -200001    1    1    2    0    0 -0.32204602847E+03 -0.13929173162E+03  0.16549533593E+04  0.17993764065E+04  0.61300000000E+03 0.  1.
<mgrwt>
<rscale>  0 0.14212779E+04</rscale>
<asrwt>0</asrwt>
<pdfrwt beam="1">  1        2 0.44533003E+00 0.14212779E+04</pdfrwt>
<pdfrwt beam="2">  1       -2 0.23143015E-01 0.14212779E+04</pdfrwt>
<totfact> 0.32719167E+01</totfact>
</mgrwt>
</event>
<event>
 8    1  0.7583103E-052  0.1742083E+04  0.7818608E-02  0.8737720E-01
          2   -1    0    0  501    0  0.00000000000E+00  0.00000000000E+00  0.33512525751E+04  0.33512525751E+04  0.25500000000E-02 0.  1.
         -2   -1    0    0    0  501 -0.00000000000E+00 -0.00000000000E+00 -0.22639689219E+03  0.22639689220E+03  0.25500000000E-02 0. -1.
     200001    2    1    2    0    0  0.43671127845E+03  0.43710622887E+03  0.14924564730E+04  0.17277103395E+04  0.61300742033E+03 0.  0.
    5000001    2    3    3    0    0 -0.77365437796E+02  0.41979787831E+02  0.64889125813E+03  0.65897134128E+03  0.73726862081E+02 0.  0.
        -13    1    4    4    0    0 -0.51121155308E+02  0.38990981524E+02  0.52171157352E+03  0.52565829801E+03  0.10566000000E+00 0. -1.
     200003    1    4    4    0    0 -0.26244282489E+02  0.29888063073E+01  0.12717968461E+03  0.13331304326E+03  0.30000000000E+02 0. -1.
     200000    1    3    3    0    0  0.51407671624E+03  0.39512644104E+03  0.84356521485E+03  0.10687389982E+04  0.10100000000E+03 0.  1.
    -200001    1    1    2    0    0 -0.43671127845E+03 -0.43710622887E+03  0.16323992099E+04  0.18499391278E+04  0.61300000000E+03 0.  1.
<mgrwt>
<rscale>  0 0.17420829E+04</rscale>
<asrwt>0</asrwt>
<pdfrwt beam="1">  1        2 0.47875036E+00 0.17420829E+04</pdfrwt>
<pdfrwt beam="2">  1       -2 0.32342414E-01 0.17420829E+04</pdfrwt>
<totfact> 0.12576645E+01</totfact>
</mgrwt>
</event>
<event>
 8    1  0.7583103E-052  0.2013592E+04  0.7818608E-02  0.8600292E-01
         -2   -1    0    0    0  501 -0.00000000000E+00  0.00000000000E+00  0.80803908451E+03  0.80803908451E+03  0.25500000000E-02 0. -1.
          2   -1    0    0  501    0  0.00000000000E+00 -0.00000000000E+00 -0.12544424924E+04  0.12544424924E+04  0.25500000000E-02 0.  1.
     200001    2    1    2    0    0 -0.31263809139E+03 -0.25514195275E+03 -0.92932199703E+03  0.11839490755E+04  0.61258146151E+03 0.  0.
    5000001    2    3    3    0    0 -0.42423069566E+03 -0.31752429124E+03 -0.84584417945E+03  0.10008807508E+04  0.74273432382E+02 0.  0.
        -13    1    4    4    0    0  0.72914521144E+00  0.92993734697E+00 -0.10559933032E+02  0.10626372188E+02  0.10566000000E+00 0. -1.
     200003    1    4    4    0    0 -0.42495984087E+03 -0.31845422858E+03 -0.83528424642E+03  0.99025437861E+03  0.30000000000E+02 0. -1.
     200000    1    3    3    0    0  0.11159260427E+03  0.62382338486E+02 -0.83477817586E+02  0.18306832471E+03  0.10100000000E+03 0.  1.
    -200001    1    1    2    0    0  0.31263809139E+03  0.25514195275E+03  0.48291858916E+03  0.87853250139E+03  0.61300000000E+03 0. -1.
<mgrwt>
<rscale>  0 0.20135924E+04</rscale>
<asrwt>0</asrwt>
<pdfrwt beam="1">  1        2 0.17920607E+00 0.20135924E+04</pdfrwt>
<pdfrwt beam="2">  1       -2 0.11543416E+00 0.20135924E+04</pdfrwt>
<totfact> 0.10838556E+01</totfact>
</mgrwt>
</event>
<event>
 8    1  0.7583103E-052  0.2067820E+04  0.7818608E-02  0.8575553E-01
         -2   -1    0    0    0  501 -0.00000000000E+00  0.00000000000E+00  0.73671818371E+03  0.73671818372E+03  0.25500000000E-02 0. -1.
          2   -1    0    0  501    0  0.00000000000E+00 -0.00000000000E+00 -0.14509887488E+04  0.14509887488E+04  0.25500000000E-02 0.  1.
     200001    2    1    2    0    0 -0.67567669772E+03  0.49360998578E+02  0.15476102725E+03  0.92677060721E+03  0.61316985805E+03 0.  0.
    5000001    2    3    3    0    0 -0.52082337479E+03  0.25445449602E+03  0.24913039692E+03  0.63496678228E+03  0.71503717770E+02 0.  0.
        -13    1    4    4    0    0 -0.52874274450E+02  0.94950544924E+01  0.11142466337E+02  0.54863564217E+02  0.10566000000E+00 0. -1.
     200003    1    4    4    0    0 -0.46794910034E+03  0.24495944153E+03  0.23798793058E+03  0.58010321806E+03  0.30000000000E+02 0. -1.
     200000    1    3    3    0    0 -0.15485332293E+03 -0.20509349744E+03 -0.94369369673E+02  0.29180382493E+03  0.10100000000E+03 0.  1.
    -200001    1    1    2    0    0  0.67567669772E+03 -0.49360998578E+02 -0.86903159236E+03  0.12609363253E+04  0.61300000000E+03 0.  1.
<mgrwt>
<rscale>  0 0.20678199E+04</rscale>
<asrwt>0</asrwt>
<pdfrwt beam="1">  1        2 0.20728411E+00 0.20678199E+04</pdfrwt>
<pdfrwt beam="2">  1       -2 0.10524546E+00 0.20678199E+04</pdfrwt>
<totfact> 0.10534923E+01</totfact>
</mgrwt>
</event>
<event>
 8    1  0.7583103E-052  0.2238537E+04  0.7818608E-02  0.8502557E-01
          2   -1    0    0  501    0  0.00000000000E+00  0.00000000000E+00  0.29836375431E+04  0.29836375431E+04  0.25500000000E-02 0.  1.
         -2   -1    0    0    0  501 -0.00000000000E+00 -0.00000000000E+00 -0.41987737398E+03  0.41987737398E+03  0.25500000000E-02 0. -1.
     200001    2    1    2    0    0  0.59064261662E+03 -0.60033450532E+03  0.19045996017E+04  0.21708260381E+04  0.61296478352E+03 0.  0.
    5000001    2    3    3    0    0  0.67119739967E+03 -0.35282990094E+03  0.14232024739E+04  0.16143264451E+04  0.74496318228E+02 0.  0.
        -13    1    4    4    0    0  0.19454757413E+02  0.14565594685E+01  0.35496895802E+02  0.40504937071E+02  0.10566000000E+00 0. -1.
     200003    1    4    4    0    0  0.65174264226E+03 -0.35428646041E+03  0.13877055781E+04  0.15738215081E+04  0.30000000000E+02 0. -1.
     200000    1    3    3    0    0 -0.80554783049E+02 -0.24750460437E+03  0.48139712784E+03  0.55649959295E+03  0.10100000000E+03 0. -1.
    -200001    1    1    2    0    0 -0.59064261662E+03  0.60033450532E+03  0.65916056740E+03  0.12326888790E+04  0.61300000000E+03 0.  1.
<mgrwt>
<rscale>  0 0.22385369E+04</rscale>
<asrwt>0</asrwt>
<pdfrwt beam="1">  1        2 0.42623396E+00 0.22385369E+04</pdfrwt>
<pdfrwt beam="2">  1       -2 0.59982479E-01 0.22385369E+04</pdfrwt>
<totfact> 0.57148455E+00</totfact>
</mgrwt>
</event>
<event>
 8    1  0.7583103E-052  0.1430715E+04  0.7818608E-02  0.8931881E-01
         -2   -1    0    0    0  501 -0.00000000000E+00  0.00000000000E+00  0.21315068772E+03  0.21315068774E+03  0.25500000000E-02 0. -1.
          2   -1    0    0  501    0  0.00000000000E+00 -0.00000000000E+00 -0.24008194326E+04  0.24008194326E+04  0.25500000000E-02 0.  1.
     200001    2    1    2    0    0 -0.24839112215E+03 -0.37313656382E+01 -0.15918381116E+04  0.17237481164E+04  0.61290041829E+03 0.  0.
    5000001    2    3    3    0    0 -0.19553889088E+03 -0.48888218640E+02 -0.15856185363E+04  0.16009792978E+04  0.91230770187E+02 0.  0.
        -13    1    4    4    0    0 -0.69611710430E+02 -0.54583895952E+01 -0.29467556647E+03  0.30283540890E+03  0.10566000000E+00 0. -1.
     200003    1    4    4    0    0 -0.12592718045E+03 -0.43429829045E+02 -0.12909429698E+04  0.12981438889E+04  0.30000000000E+02 0. -1.
     200000    1    3    3    0    0 -0.52852231270E+02  0.45156853002E+02 -0.62195752982E+01  0.12276881868E+03  0.10100000000E+03 0. -1.
    -200001    1    1    2    0    0  0.24839112215E+03  0.37313656382E+01 -0.59583063323E+03  0.89022200386E+03  0.61300000000E+03 0. -1.
<mgrwt>
<rscale>  0 0.14307149E+04</rscale>
<asrwt>0</asrwt>
<pdfrwt beam="1">  1        2 0.34297419E+00 0.14307149E+04</pdfrwt>
<pdfrwt beam="2">  1       -2 0.30450100E-01 0.14307149E+04</pdfrwt>
<totfact> 0.48268597E+01</totfact>
</mgrwt>
</event>
<event>
 8    1  0.7583103E-052  0.1511480E+04  0.7818608E-02  0.8876854E-01
         -2   -1    0    0    0  501 -0.00000000000E+00  0.00000000000E+00  0.26054935312E+03  0.26054935313E+03  0.25500000000E-02 0. -1.
          2   -1    0    0  501    0  0.00000000000E+00 -0.00000000000E+00 -0.21920731677E+04  0.21920731677E+04  0.25500000000E-02 0.  1.
     200001    2    1    2    0    0 -0.12590531689E+03  0.19531788043E+03 -0.15760475025E+04  0.17068788439E+04  0.61278742994E+03 0.  0.
    5000001    2    3    3    0    0  0.44759613847E+02  0.12190375775E+02 -0.45279305021E+02  0.15249328168E+03  0.13802882743E+03 0.  0.
        -13    1    4    4    0    0 -0.32980092136E+02  0.11689931623E+02 -0.58456723916E+02  0.68128853753E+02  0.10566000000E+00 0. -1.
     200003    1    4    4    0    0  0.77739705984E+02  0.50044415238E+00  0.13177418895E+02  0.84364427927E+02  0.30000000000E+02 0. -1.
     200000    1    3    3    0    0 -0.17066493074E+03  0.18312750465E+03 -0.15307681975E+04  0.15543855622E+04  0.10100000000E+03 0.  1.
    -200001    1    1    2    0    0  0.12590531689E+03 -0.19531788043E+03 -0.35547631202E+03  0.74574367691E+03  0.61300000000E+03 0. -1.
<mgrwt>
<rscale>  0 0.15114804E+04</rscale>
<asrwt>0</asrwt>
<pdfrwt beam="1">  1        2 0.31315330E+00 0.15114804E+04</pdfrwt>
<pdfrwt beam="2">  1       -2 0.37221337E-01 0.15114804E+04</pdfrwt>
<totfact> 0.42017843E+01</totfact>
</mgrwt>
</event>
<event>
 8    1  0.7583103E-052  0.1269121E+04  0.7818608E-02  0.9054417E-01
         -2   -1    0    0    0  501 -0.00000000000E+00  0.00000000000E+00  0.62801659692E+03  0.62801659692E+03  0.25500000000E-02 0. -1.
          2   -1    0    0  501    0  0.00000000000E+00 -0.00000000000E+00 -0.64117242368E+03  0.64117242369E+03  0.25500000000E-02 0.  1.
     200001    2    1    2    0    0  0.12424283198E+02  0.45724653391E+02 -0.16209166336E+03  0.63657856372E+03  0.61376987032E+03 0.  0.
    5000001    2    3    3    0    0  0.28029276743E+03  0.11782864154E+03 -0.12326065634E+03  0.33881799370E+03  0.84597985851E+02 0.  0.
        -13    1    4    4    0    0  0.16301069208E+03  0.38304892321E+02 -0.41593551245E+02  0.17253922793E+03  0.10566000000E+00 0. -1.
     200003    1    4    4    0    0  0.11728207536E+03  0.79523749216E+02 -0.81667105093E+02  0.16627876576E+03  0.30000000000E+02 0. -1.
     200000    1    3    3    0    0 -0.26786848424E+03 -0.72103988147E+02 -0.38831007021E+02  0.29776057002E+03  0.10100000000E+03 0.  1.
    -200001    1    1    2    0    0 -0.12424283198E+02 -0.45724653391E+02  0.14893583660E+03  0.63261045689E+03  0.61300000000E+03 0. -1.
<mgrwt>
<rscale>  0 0.12691208E+04</rscale>
<asrwt>0</asrwt>
<pdfrwt beam="1">  1        2 0.91596060E-01 0.12691208E+04</pdfrwt>
<pdfrwt beam="2">  1       -2 0.89716657E-01 0.12691208E+04</pdfrwt>
<totfact> 0.52478541E+01</totfact>
</mgrwt>
</event>
<event>
 8    1  0.7583103E-052  0.1653879E+04  0.7818608E-02  0.8788115E-01
         -2   -1    0    0    0  501 -0.00000000000E+00  0.00000000000E+00  0.22660491723E+03  0.22660491725E+03  0.25500000000E-02 0. -1.
          2   -1    0    0  501    0  0.00000000000E+00 -0.00000000000E+00 -0.30177162267E+04  0.30177162267E+04  0.25500000000E-02 0.  1.
     200001    2    1    2    0    0  0.11185070156E+03  0.23721231257E+03 -0.23530428324E+04  0.24465409416E+04  0.61641848375E+03 0.  0.
    5000001    2    3    3    0    0 -0.48007696757E+02 -0.15699667190E+03 -0.33177898049E+03  0.37853127286E+03  0.79094492232E+02 0.  0.
        -13    1    4    4    0    0  0.15656124443E+02 -0.55515814038E+02 -0.87365548350E+02  0.10468939795E+03  0.10566000000E+00 0. -1.
     200003    1    4    4    0    0 -0.63663821201E+02 -0.10148085786E+03 -0.24441343214E+03  0.27384187491E+03  0.30000000000E+02 0. -1.
     200000    1    3    3    0    0  0.15985839832E+03  0.39420898447E+03 -0.20212638519E+04  0.20680096687E+04  0.10100000000E+03 0.  1.
    -200001    1    1    2    0    0 -0.11185070156E+03 -0.23721231257E+03 -0.43806847708E+03  0.79778020236E+03  0.61300000000E+03 0. -1.
<mgrwt>
<rscale>  0 0.16538795E+04</rscale>
<asrwt>0</asrwt>
<pdfrwt beam="1">  1        2 0.43110229E+00 0.16538795E+04</pdfrwt>
<pdfrwt beam="2">  1       -2 0.32372133E-01 0.16538795E+04</pdfrwt>
<totfact> 0.19674074E+01</totfact>
</mgrwt>
</event>
<event>
 8    1  0.7583103E-052  0.1484095E+04  0.7818608E-02  0.8895099E-01
          2   -1    0    0  501    0  0.00000000000E+00  0.00000000000E+00  0.12561846002E+04  0.12561846002E+04  0.25500000000E-02 0.  1.
         -2   -1    0    0    0  501 -0.00000000000E+00 -0.00000000000E+00 -0.43833904414E+03  0.43833904415E+03  0.25500000000E-02 0. -1.
     200001    2    1    2    0    0  0.12267333043E+03  0.27534802243E+03  0.71397480529E+02  0.68268422581E+03  0.60835423274E+03 0.  0.
    5000001    2    3    3    0    0  0.56134059353E+02 -0.13309668728E+03 -0.13352582501E+03  0.20998017820E+03  0.73462701478E+02 0.  0.
        -13    1    4    4    0    0  0.19746448169E+02 -0.19982638898E+02  0.85862824559E+00  0.28106520224E+02  0.10566000000E+00 0. -1.
     200003    1    4    4    0    0  0.36387611184E+02 -0.11311404838E+03 -0.13438445326E+03  0.18187365797E+03  0.30000000000E+02 0. -1.
     200000    1    3    3    0    0  0.66539271077E+02  0.40844470970E+03  0.20492330554E+03  0.47270404762E+03  0.10100000000E+03 0.  1.
    -200001    1    1    2    0    0 -0.12267333043E+03 -0.27534802243E+03  0.74644807556E+03  0.10118394186E+04  0.61300000000E+03 0.  1.
<mgrwt>
<rscale>  0 0.14840954E+04</rscale>
<asrwt>0</asrwt>
<pdfrwt beam="1">  1        2 0.17945495E+00 0.14840954E+04</pdfrwt>
<pdfrwt beam="2">  1       -2 0.62619863E-01 0.14840954E+04</pdfrwt>
<totfact> 0.45508468E+01</totfact>
</mgrwt>
</event>
<event>
 8    1  0.7583103E-052  0.1915893E+04  0.7818608E-02  0.8646985E-01
         -2   -1    0    0    0  501 -0.00000000000E+00  0.00000000000E+00  0.33112460345E+03  0.33112460346E+03  0.25500000000E-02 0. -1.
          2   -1    0    0  501    0  0.00000000000E+00 -0.00000000000E+00 -0.27713492639E+04  0.27713492639E+04  0.25500000000E-02 0.  1.
     200001    2    1    2    0    0  0.25397959890E+03 -0.22958006245E+03 -0.16524435376E+03  0.72160910062E+03  0.61335255434E+03 0.  0.
    5000001    2    3    3    0    0  0.13499959843E+03 -0.10676146577E+03 -0.37679276666E+03  0.43144642348E+03  0.12062472870E+03 0.  0.
        -13    1    4    4    0    0  0.82656899824E+02 -0.73454603690E+02 -0.33029309547E+03  0.34831204684E+03  0.10566000000E+00 0. -1.
     200003    1    4    4    0    0  0.52342698604E+02 -0.33306862076E+02 -0.46499671189E+02  0.83134376640E+02  0.30000000000E+02 0. -1.
     200000    1    3    3    0    0  0.11898000047E+03 -0.12281859668E+03  0.21154841290E+03  0.29016267714E+03  0.10100000000E+03 0. -1.
    -200001    1    1    2    0    0 -0.25397959890E+03  0.22958006245E+03 -0.22749803067E+04  0.23808647668E+04  0.61300000000E+03 0.  1.
<mgrwt>
<rscale>  0 0.19158934E+04</rscale>
<asrwt>0</asrwt>
<pdfrwt beam="1">  1        2 0.39590702E+00 0.19158934E+04</pdfrwt>
<pdfrwt beam="2">  1       -2 0.47303516E-01 0.19158934E+04</pdfrwt>
<totfact> 0.12547128E+01</totfact>
</mgrwt>
</event>
<event>
 8    1  0.7583103E-052  0.1661471E+04  0.7818608E-02  0.8783649E-01
         -2   -1    0    0    0  501 -0.00000000000E+00  0.00000000000E+00  0.39569427719E+03  0.39569427720E+03  0.25500000000E-02 0. -1.
          2   -1    0    0  501    0  0.00000000000E+00 -0.00000000000E+00 -0.17440772179E+04  0.17440772179E+04  0.25500000000E-02 0.  1.
     200001    2    1    2    0    0  0.64554674141E+02 -0.10788650349E+03  0.28223071969E+02  0.62761412309E+03  0.61424436678E+03 0.  0.
    5000001    2    3    3    0    0 -0.20013160943E+03 -0.32465880016E+02  0.19493797847E+03  0.29035760469E+03  0.72111224440E+02 0.  0.
        -13    1    4    4    0    0 -0.89376411582E+02 -0.40650242484E+02  0.10942367490E+03  0.14701747160E+03  0.10566000000E+00 0. -1.
     200003    1    4    4    0    0 -0.11075519785E+03  0.81843624675E+01  0.85514303568E+02  0.14334013309E+03  0.30000000000E+02 0.  1.
     200000    1    3    3    0    0  0.26468628357E+03 -0.75420623470E+02 -0.16671490650E+03  0.33725651840E+03  0.10100000000E+03 0.  1.
    -200001    1    1    2    0    0 -0.64554674141E+02  0.10788650349E+03 -0.13766060127E+04  0.15121573720E+04  0.61300000000E+03 0.  1.
<mgrwt>
<rscale>  0 0.16614709E+04</rscale>
<asrwt>0</asrwt>
<pdfrwt beam="1">  1        2 0.24915388E+00 0.16614709E+04</pdfrwt>
<pdfrwt beam="2">  1       -2 0.56527755E-01 0.16614709E+04</pdfrwt>
<totfact> 0.30554915E+01</totfact>
</mgrwt>
</event>
<event>
 8    1  0.7583103E-052  0.1253604E+04  0.7818608E-02  0.9067189E-01
          2   -1    0    0  501    0  0.00000000000E+00  0.00000000000E+00  0.16656977997E+03  0.16656977999E+03  0.25500000000E-02 0.  1.
         -2   -1    0    0    0  501 -0.00000000000E+00 -0.00000000000E+00 -0.23586558189E+04  0.23586558189E+04  0.25500000000E-02 0. -1.
     200001    2    1    2    0    0  0.10326852853E+03  0.70479694388E+02 -0.11617071493E+04  0.13197873249E+04  0.61371272256E+03 0.  0.
    5000001    2    3    3    0    0 -0.24447784219E+02  0.16048612211E+03 -0.11128510575E+04  0.11274321033E+04  0.79449240225E+02 0.  0.
        -13    1    4    4    0    0 -0.24221434321E+02  0.79064048385E+02 -0.74055528742E+03  0.74515766554E+03  0.10566000000E+00 0. -1.
     200003    1    4    4    0    0 -0.22634989830E+00  0.81422073722E+02 -0.37229577009E+03  0.38227443774E+03  0.30000000000E+02 0. -1.
     200000    1    3    3    0    0  0.12771631275E+03 -0.90006427720E+02 -0.48856091830E+02  0.19235522162E+03  0.10100000000E+03 0.  1.
    -200001    1    1    2    0    0 -0.10326852853E+03 -0.70479694388E+02 -0.10303788896E+04  0.12054382740E+04  0.61300000000E+03 0.  1.
<mgrwt>
<rscale>  0 0.12536041E+04</rscale>
<asrwt>0</asrwt>
<pdfrwt beam="1">  1        2 0.23795684E-01 0.12536041E+04</pdfrwt>
<pdfrwt beam="2">  1       -2 0.33695081E+00 0.12536041E+04</pdfrwt>
<totfact> 0.43463383E+00</totfact>
</mgrwt>
</event>
<event>
 8    1  0.7583103E-052  0.2119927E+04  0.7818608E-02  0.8552516E-01
          2   -1    0    0  501    0  0.00000000000E+00  0.00000000000E+00  0.13948495885E+04  0.13948495885E+04  0.25500000000E-02 0.  1.
         -2   -1    0    0    0  501 -0.00000000000E+00 -0.00000000000E+00 -0.80547974769E+03  0.80547974769E+03  0.25500000000E-02 0. -1.
     200001    2    1    2    0    0  0.13702564118E+03 -0.74029878419E+03  0.73647896399E+03  0.12183780084E+04  0.61255643875E+03 0.  0.
    5000001    2    3    3    0    0  0.31557515410E+03 -0.23441324474E+03  0.18343847633E+03  0.44129700321E+03  0.80969891003E+02 0.  0.
        -13    1    4    4    0    0  0.19959802138E+03 -0.11648428111E+03  0.12862502888E+03  0.26448509807E+03  0.10566000000E+00 0. -1.
     200003    1    4    4    0    0  0.11597713271E+03 -0.11792896363E+03  0.54813447451E+02  0.17681190513E+03  0.30000000000E+02 0. -1.
     200000    1    3    3    0    0 -0.17854951292E+03 -0.50588553945E+03  0.55304048766E+03  0.77708100516E+03  0.10100000000E+03 0.  1.
    -200001    1    1    2    0    0 -0.13702564118E+03  0.74029878419E+03 -0.14710912313E+03  0.98195132788E+03  0.61300000000E+03 0. -1.
<mgrwt>
<rscale>  0 0.21199274E+04</rscale>
<asrwt>0</asrwt>
<pdfrwt beam="1">  1        2 0.19926423E+00 0.21199274E+04</pdfrwt>
<pdfrwt beam="2">  1       -2 0.11506854E+00 0.21199274E+04</pdfrwt>
<totfact> 0.90632439E+00</totfact>
</mgrwt>
</event>
<event>
 8    1  0.7583103E-052  0.1605142E+04  0.7818608E-02  0.8817396E-01
         -2   -1    0    0    0  501 -0.00000000000E+00  0.00000000000E+00  0.72568581078E+03  0.72568581078E+03  0.25500000000E-02 0. -1.
          2   -1    0    0  501    0  0.00000000000E+00 -0.00000000000E+00 -0.88760163661E+03  0.88760163662E+03  0.25500000000E-02 0.  1.
     200001    2    1    2    0    0  0.42066990657E+03  0.11914529678E+03 -0.36158484829E+03  0.83431665811E+03  0.61170410449E+03 0.  0.
    5000001    2    3    3    0    0  0.38632438116E+03  0.14734643643E+03  0.36523885278E+02  0.42119865665E+03  0.71531911463E+02 0.  0.
        -13    1    4    4    0    0  0.19296908554E+02 -0.56604285714E+01  0.71550585809E+01  0.21345190528E+02  0.10566000000E+00 0. -1.
     200003    1    4    4    0    0  0.36702747261E+03  0.15300686500E+03  0.29368826697E+02  0.39985346612E+03  0.30000000000E+02 0. -1.
     200000    1    3    3    0    0  0.34345525406E+02 -0.28201139647E+02 -0.39810873356E+03  0.41311800146E+03  0.10100000000E+03 0.  1.
    -200001    1    1    2    0    0 -0.42066990657E+03 -0.11914529678E+03  0.19966902245E+03  0.77897078929E+03  0.61300000000E+03 0. -1.
<mgrwt>
<rscale>  0 0.16051416E+04</rscale>
<asrwt>0</asrwt>
<pdfrwt beam="1">  1        2 0.12680023E+00 0.16051416E+04</pdfrwt>
<pdfrwt beam="2">  1       -2 0.10366940E+00 0.16051416E+04</pdfrwt>
<totfact> 0.24133514E+01</totfact>
</mgrwt>
</event>
<event>
 8    1  0.7583103E-052  0.1802037E+04  0.7818608E-02  0.8705217E-01
         -2   -1    0    0    0  501 -0.00000000000E+00  0.00000000000E+00  0.67765370427E+03  0.67765370427E+03  0.25500000000E-02 0. -1.
          2   -1    0    0  501    0  0.00000000000E+00 -0.00000000000E+00 -0.11980073797E+04  0.11980073797E+04  0.25500000000E-02 0.  1.
     200001    2    1    2    0    0 -0.53475930160E+03  0.88048609390E+02  0.12866342167E+03  0.83128937783E+03  0.61706376117E+03 0.  0.
    5000001    2    3    3    0    0 -0.13370917227E+03 -0.17308996767E+03 -0.13582450881E+03  0.27524133310E+03  0.97320165419E+02 0.  0.
        -13    1    4    4    0    0 -0.12420246868E+03 -0.13855085647E+03 -0.80264760272E+02  0.20264509853E+03  0.10566000000E+00 0. -1.
     200003    1    4    4    0    0 -0.95067035872E+01 -0.34539111204E+02 -0.55559748539E+02  0.72596234569E+02  0.30000000000E+02 0. -1.
     200000    1    3    3    0    0 -0.40105012934E+03  0.26113857706E+03  0.26448793048E+03  0.55604804473E+03  0.10100000000E+03 0. -1.
    -200001    1    1    2    0    0  0.53475930160E+03 -0.88048609390E+02 -0.64901709710E+03  0.10443717061E+04  0.61300000000E+03 0.  1.
<mgrwt>
<rscale>  0 0.18020368E+04</rscale>
<asrwt>0</asrwt>
<pdfrwt beam="1">  1        2 0.17114391E+00 0.18020368E+04</pdfrwt>
<pdfrwt beam="2">  1       -2 0.96807673E-01 0.18020368E+04</pdfrwt>
<totfact> 0.18095282E+01</totfact>
</mgrwt>
</event>
<event>
 8    1  0.7583103E-052  0.1614554E+04  0.7818608E-02  0.8811657E-01
         -2   -1    0    0    0  501 -0.00000000000E+00  0.00000000000E+00  0.57627207836E+03  0.57627207837E+03  0.25500000000E-02 0. -1.
          2   -1    0    0  501    0  0.00000000000E+00 -0.00000000000E+00 -0.11308822364E+04  0.11308822364E+04  0.25500000000E-02 0.  1.
     200001    2    1    2    0    0  0.24800483224E+02 -0.25827007474E+02  0.27702743774E+03  0.67338829240E+03  0.61271975062E+03 0.  0.
    5000001    2    3    3    0    0 -0.63374886370E+02 -0.21592980277E+03  0.29786772922E+03  0.43983040593E+03  0.23255869350E+03 0.  0.
        -13    1    4    4    0    0  0.69528324469E+02 -0.10886702941E+03  0.20744785918E+03  0.24437848400E+03  0.10566000000E+00 0. -1.
     200003    1    4    4    0    0 -0.13290321084E+03 -0.10706277336E+03  0.90419870034E+02  0.19545192193E+03  0.30000000000E+02 0. -1.
     200000    1    3    3    0    0  0.88175369594E+02  0.19010279530E+03 -0.20840291476E+02  0.23355788647E+03  0.10100000000E+03 0. -1.
    -200001    1    1    2    0    0 -0.24800483224E+02  0.25827007474E+02 -0.83163759577E+03  0.10337660224E+04  0.61300000000E+03 0.  1.
<mgrwt>
<rscale>  0 0.16145536E+04</rscale>
<asrwt>0</asrwt>
<pdfrwt beam="1">  1        2 0.16155460E+00 0.16145536E+04</pdfrwt>
<pdfrwt beam="2">  1       -2 0.82324583E-01 0.16145536E+04</pdfrwt>
<totfact> 0.29151852E+01</totfact>
</mgrwt>
</event>
<event>
 8    1  0.7583103E-052  0.1292827E+04  0.7818608E-02  0.9035273E-01
          2   -1    0    0  501    0  0.00000000000E+00  0.00000000000E+00  0.10738700837E+04  0.10738700837E+04  0.25500000000E-02 0.  1.
         -2   -1    0    0    0  501 -0.00000000000E+00 -0.00000000000E+00 -0.38910721580E+03  0.38910721581E+03  0.25500000000E-02 0. -1.
     200001    2    1    2    0    0  0.11816976194E+03  0.45053453330E+02  0.15944784137E+03  0.64583668530E+03  0.61293352304E+03 0.  0.
    5000001    2    3    3    0    0 -0.16546804373E+03  0.13157778616E+03  0.12210061938E+03  0.33034868241E+03  0.22255179939E+03 0.  0.
        -13    1    4    4    0    0 -0.17144353863E+03  0.17014997256E+03  0.56036916127E+02  0.24795976938E+03  0.10566000000E+00 0. -1.
     200003    1    4    4    0    0  0.59754948989E+01 -0.38572186401E+02  0.66063703249E+02  0.82388913028E+02  0.30000000000E+02 0. -1.
     200000    1    3    3    0    0  0.28363780567E+03 -0.86524332826E+02  0.37347221993E+02  0.31548800289E+03  0.10100000000E+03 0.  1.
    -200001    1    1    2    0    0 -0.11816976194E+03 -0.45053453330E+02  0.52531502655E+03  0.81714061422E+03  0.61300000000E+03 0.  1.
<mgrwt>
<rscale>  0 0.12928273E+04</rscale>
<asrwt>0</asrwt>
<pdfrwt beam="1">  1        2 0.15341001E+00 0.12928273E+04</pdfrwt>
<pdfrwt beam="2">  1       -2 0.55586745E-01 0.12928273E+04</pdfrwt>
<totfact> 0.75568772E+01</totfact>
</mgrwt>
</event>
<event>
 8    1  0.7583103E-052  0.1379871E+04  0.7818608E-02  0.8968519E-01
          2   -1    0    0  501    0  0.00000000000E+00  0.00000000000E+00  0.22221898493E+04  0.22221898493E+04  0.25500000000E-02 0.  1.
         -2   -1    0    0    0  501 -0.00000000000E+00 -0.00000000000E+00 -0.21420813510E+03  0.21420813511E+03  0.25500000000E-02 0. -1.
     200001    2    1    2    0    0 -0.31700855552E+02  0.43042692745E+02  0.15496342176E+04  0.16691242097E+04  0.61786066523E+03 0.  0.
    5000001    2    3    3    0    0 -0.29691772139E+03 -0.13692579015E+02  0.10374277508E+04  0.10808085278E+04  0.59524076687E+02 0.  0.
        -13    1    4    4    0    0 -0.50142563075E+02  0.75800265618E+01  0.12532316513E+03  0.13519482356E+03  0.10566000000E+00 0. -1.
     200003    1    4    4    0    0 -0.24677515831E+03 -0.21272605577E+02  0.91210458565E+03  0.94561370425E+03  0.30000000000E+02 0. -1.
     200000    1    3    3    0    0  0.26521686583E+03  0.56735271760E+02  0.51220646677E+03  0.58831568192E+03  0.10100000000E+03 0. -1.
    -200001    1    1    2    0    0  0.31700855552E+02 -0.43042692745E+02  0.45834749666E+03  0.76727377469E+03  0.61300000000E+03 0. -1.
<mgrwt>
<rscale>  0 0.13798712E+04</rscale>
<asrwt>0</asrwt>
<pdfrwt beam="1">  1        2 0.31745570E+00 0.13798712E+04</pdfrwt>
<pdfrwt beam="2">  1       -2 0.30601161E-01 0.13798712E+04</pdfrwt>
<totfact> 0.59421545E+01</totfact>
</mgrwt>
</event>
<event>
 8    1  0.7583103E-052  0.1354360E+04  0.7818608E-02  0.8987534E-01
          2   -1    0    0  501    0  0.00000000000E+00  0.00000000000E+00  0.12895855727E+04  0.12895855727E+04  0.25500000000E-02 0.  1.
         -2   -1    0    0    0  501 -0.00000000000E+00 -0.00000000000E+00 -0.35559704475E+03  0.35559704476E+03  0.25500000000E-02 0. -1.
     200001    2    1    2    0    0  0.77802645173E+02 -0.12885901458E+03  0.15664570500E+03  0.64383913912E+03  0.60608007963E+03 0.  0.
    5000001    2    3    3    0    0 -0.19652044734E+03  0.71342905169E+02 -0.57958605833E+02  0.22960493243E+03  0.75160685641E+02 0.  0.
        -13    1    4    4    0    0 -0.19050115060E+01 -0.81716883490E+01  0.25854732320E+01  0.87807400133E+01  0.10566000000E+00 0. -1.
     200003    1    4    4    0    0 -0.19461543584E+03  0.79514593518E+02 -0.60544079066E+02  0.22082419242E+03  0.30000000000E+02 0. -1.
     200000    1    3    3    0    0  0.27432309251E+03 -0.20020191975E+03  0.21460431083E+03  0.41423420668E+03  0.10100000000E+03 0. -1.
    -200001    1    1    2    0    0 -0.77802645173E+02  0.12885901458E+03  0.77734282300E+03  0.10013434784E+04  0.61300000000E+03 0.  1.
<mgrwt>
<rscale>  0 0.13543601E+04</rscale>
<asrwt>0</asrwt>
<pdfrwt beam="1">  1        2 0.18422651E+00 0.13543601E+04</pdfrwt>
<pdfrwt beam="2">  1       -2 0.50799578E-01 0.13543601E+04</pdfrwt>
<totfact> 0.68099838E+01</totfact>
</mgrwt>
</event>
<event>
 8    1  0.7583103E-052  0.1422855E+04  0.7818608E-02  0.8937439E-01
         -2   -1    0    0    0  501 -0.00000000000E+00  0.00000000000E+00  0.34017004092E+03  0.34017004093E+03  0.25500000000E-02 0. -1.
          2   -1    0    0  501    0  0.00000000000E+00 -0.00000000000E+00 -0.14878708113E+04  0.14878708113E+04  0.25500000000E-02 0.  1.
     200001    2    1    2    0    0 -0.27208419892E+03  0.40130368899E+01 -0.26845041901E+03  0.72219452649E+03  0.61274251595E+03 0.  0.
    5000001    2    3    3    0    0  0.46089127016E+02 -0.12070620469E+03 -0.32648408877E+03  0.36114319858E+03  0.84488781383E+02 0.  0.
        -13    1    4    4    0    0  0.51205542186E+02 -0.44184802090E+02 -0.10554633449E+03  0.12535686728E+03  0.10566000000E+00 0. -1.
     200003    1    4    4    0    0 -0.51164151699E+01 -0.76521402595E+02 -0.22093775428E+03  0.23578633130E+03  0.30000000000E+02 0.  1.
     200000    1    3    3    0    0 -0.31817332594E+03  0.12471924158E+03  0.58033669767E+02  0.36105132791E+03  0.10100000000E+03 0. -1.
    -200001    1    1    2    0    0  0.27208419892E+03 -0.40130368899E+01 -0.87925035133E+03  0.11058463257E+04  0.61300000000E+03 0.  1.
<mgrwt>
<rscale>  0 0.14228550E+04</rscale>
<asrwt>0</asrwt>
<pdfrwt beam="1">  1        2 0.21255297E+00 0.14228550E+04</pdfrwt>
<pdfrwt beam="2">  1       -2 0.48595721E-01 0.14228550E+04</pdfrwt>
<totfact> 0.57871644E+01</totfact>
</mgrwt>
</event>
<event>
 8    1  0.7583103E-052  0.1315267E+04  0.7818608E-02  0.9017545E-01
         -2   -1    0    0    0  501 -0.00000000000E+00  0.00000000000E+00  0.73187482635E+03  0.73187482636E+03  0.25500000000E-02 0. -1.
          2   -1    0    0  501    0  0.00000000000E+00 -0.00000000000E+00 -0.59092317227E+03  0.59092317228E+03  0.25500000000E-02 0.  1.
     200001    2    1    2    0    0  0.17586896887E+03 -0.14990094515E+03  0.11117744537E+03  0.66701168354E+03  0.61574668010E+03 0.  0.
    5000001    2    3    3    0    0  0.34744321582E+03 -0.95130348490E+02  0.20196616715E+03  0.44144321837E+03  0.15593335420E+03 0.  0.
        -13    1    4    4    0    0  0.21485373947E+03  0.13761080297E+02  0.84112640673E+02  0.23114161067E+03  0.10566000000E+00 0. -1.
     200003    1    4    4    0    0  0.13258947634E+03 -0.10889142879E+03  0.11785352648E+03  0.21030160771E+03  0.30000000000E+02 0. -1.
     200000    1    3    3    0    0 -0.17157424695E+03 -0.54770596657E+02 -0.90788721779E+02  0.22556846516E+03  0.10100000000E+03 0.  1.
    -200001    1    1    2    0    0 -0.17586896887E+03  0.14990094515E+03  0.29774208702E+02  0.65578631510E+03  0.61300000000E+03 0. -1.
<mgrwt>
<rscale>  0 0.13152670E+04</rscale>
<asrwt>0</asrwt>
<pdfrwt beam="1">  1        2 0.84417596E-01 0.13152670E+04</pdfrwt>
<pdfrwt beam="2">  1       -2 0.10455355E+00 0.13152670E+04</pdfrwt>
<totfact> 0.40239029E+01</totfact>
</mgrwt>
</event>
<event>
 8    1  0.7583103E-052  0.1360271E+04  0.7818608E-02  0.8983090E-01
         -2   -1    0    0    0  501 -0.00000000000E+00  0.00000000000E+00  0.57037382454E+03  0.57037382455E+03  0.25500000000E-02 0. -1.
          2   -1    0    0  501    0  0.00000000000E+00 -0.00000000000E+00 -0.81101908596E+03  0.81101908597E+03  0.25500000000E-02 0.  1.
     200001    2    1    2    0    0 -0.26907897336E+03 -0.10834387413E+03 -0.62202850085E+02  0.68014218279E+03  0.61203129437E+03 0.  0.
    5000001    2    3    3    0    0 -0.30194111846E+03 -0.15094677322E+03 -0.27391867030E+03  0.43947744479E+03  0.64464092150E+02 0.  0.
        -13    1    4    4    0    0 -0.72693656810E+02 -0.26477331561E+02 -0.36764292532E+02  0.85656530378E+02  0.10566000000E+00 0. -1.
     200003    1    4    4    0    0 -0.22924746165E+03 -0.12446944166E+03 -0.23715437777E+03  0.35382091441E+03  0.30000000000E+02 0. -1.
     200000    1    3    3    0    0  0.32862145092E+02  0.42602899091E+02  0.21171582021E+03  0.24066473801E+03  0.10100000000E+03 0. -1.
    -200001    1    1    2    0    0  0.26907897336E+03  0.10834387413E+03 -0.17844241134E+03  0.70125072772E+03  0.61300000000E+03 0. -1.
<mgrwt>
<rscale>  0 0.13602706E+04</rscale>
<asrwt>0</asrwt>
<pdfrwt beam="1">  1        2 0.11585987E+00 0.13602706E+04</pdfrwt>
<pdfrwt beam="2">  1       -2 0.81481975E-01 0.13602706E+04</pdfrwt>
<totfact> 0.48422485E+01</totfact>
</mgrwt>
</event>
<event>
 8    1  0.7583103E-052  0.1325239E+04  0.7818608E-02  0.9009787E-01
         -2   -1    0    0    0  501 -0.00000000000E+00  0.00000000000E+00  0.10353835103E+04  0.10353835103E+04  0.25500000000E-02 0. -1.
          2   -1    0    0  501    0  0.00000000000E+00 -0.00000000000E+00 -0.42405961093E+03  0.42405961094E+03  0.25500000000E-02 0.  1.
     200001    2    1    2    0    0  0.72828224741E+02  0.24077671760E+03  0.26247096985E+03  0.71061420587E+03  0.61057690875E+03 0.  0.
    5000001    2    3    3    0    0 -0.15258016911E+03  0.17894264884E+03  0.35873362264E+03  0.43840124806E+03  0.90579593223E+02 0.  0.
        -13    1    4    4    0    0 -0.75426100449E+02  0.43457962672E+02  0.83315075121E+02  0.12049524495E+03  0.10566000000E+00 0. -1.
     200003    1    4    4    0    0 -0.77154068656E+02  0.13548468617E+03  0.27541854752E+03  0.31790600311E+03  0.30000000000E+02 0. -1.
     200000    1    3    3    0    0  0.22540839385E+03  0.61834068768E+02 -0.96262652790E+02  0.27221295781E+03  0.10100000000E+03 0.  1.
    -200001    1    1    2    0    0 -0.72828224741E+02 -0.24077671760E+03  0.34885292950E+03  0.74882891536E+03  0.61300000000E+03 0. -1.
<mgrwt>
<rscale>  0 0.13252386E+04</rscale>
<asrwt>0</asrwt>
<pdfrwt beam="1">  1        2 0.60579945E-01 0.13252386E+04</pdfrwt>
<pdfrwt beam="2">  1       -2 0.14791193E+00 0.13252386E+04</pdfrwt>
<totfact> 0.24652948E+01</totfact>
</mgrwt>
</event>
<event>
 8    1  0.7583103E-052  0.1740270E+04  0.7818608E-02  0.8738725E-01
          2   -1    0    0  501    0  0.00000000000E+00  0.00000000000E+00  0.22825206255E+04  0.22825206255E+04  0.25500000000E-02 0.  1.
         -2   -1    0    0    0  501 -0.00000000000E+00 -0.00000000000E+00 -0.33170987965E+03  0.33170987966E+03  0.25500000000E-02 0. -1.
     200001    2    1    2    0    0  0.53712840124E+03  0.38445564788E+02  0.14298635068E+04  0.16461705862E+04  0.61268504951E+03 0.  0.
    5000001    2    3    3    0    0 -0.10541807797E+03 -0.31569479630E+02  0.17593819600E+03  0.23185175034E+03  0.10339913981E+03 0.  0.
        -13    1    4    4    0    0 -0.16751858907E+02  0.29252802443E+02  0.17342633288E+02  0.37909488535E+02  0.10566000000E+00 0. -1.
     200003    1    4    4    0    0 -0.88666219067E+02 -0.60822282073E+02  0.15859556271E+03  0.19394226180E+03  0.30000000000E+02 0. -1.
     200000    1    3    3    0    0  0.64254647921E+03  0.70015044418E+02  0.12539253108E+04  0.14143188358E+04  0.10100000000E+03 0.  1.
    -200001    1    1    2    0    0 -0.53712840124E+03 -0.38445564788E+02  0.52094723908E+03  0.96805991900E+03  0.61300000000E+03 0. -1.
<mgrwt>
<rscale>  0 0.17402697E+04</rscale>
<asrwt>0</asrwt>
<pdfrwt beam="1">  1        2 0.32607439E+00 0.17402697E+04</pdfrwt>
<pdfrwt beam="2">  1       -2 0.47387123E-01 0.17402697E+04</pdfrwt>
<totfact> 0.23003471E+01</totfact>
</mgrwt>
</event>
<event>
 8    1  0.7583103E-052  0.1691889E+04  0.7818608E-02  0.8766004E-01
         -2   -1    0    0    0  501 -0.00000000000E+00  0.00000000000E+00  0.53643430725E+03  0.53643430726E+03  0.25500000000E-02 0. -1.
          2   -1    0    0  501    0  0.00000000000E+00 -0.00000000000E+00 -0.13340354474E+04  0.13340354474E+04  0.25500000000E-02 0.  1.
     200001    2    1    2    0    0  0.17664128321E+03  0.26639098308E+03  0.13903589669E+03  0.70632876767E+03  0.61433138343E+03 0.  0.
    5000001    2    3    3    0    0  0.23113205336E+03  0.16156636009E+03  0.32944969893E+03  0.46053238507E+03  0.15500728620E+03 0.  0.
        -13    1    4    4    0    0  0.63699086194E+02  0.12587333226E+03  0.19557818311E+03  0.24114830753E+03  0.10566000000E+00 0. -1.
     200003    1    4    4    0    0  0.16743296716E+03  0.35693027830E+02  0.13387151582E+03  0.21938407754E+03  0.30000000000E+02 0. -1.
     200000    1    3    3    0    0 -0.54490770152E+02  0.10482462300E+03 -0.19041380223E+03  0.24579638260E+03  0.10100000000E+03 0.  1.
    -200001    1    1    2    0    0 -0.17664128321E+03 -0.26639098308E+03 -0.93663703683E+03  0.11641409870E+04  0.61300000000E+03 0.  1.
<mgrwt>
<rscale>  0 0.16918893E+04</rscale>
<asrwt>0</asrwt>
<pdfrwt beam="1">  1        2 0.19057649E+00 0.16918893E+04</pdfrwt>
<pdfrwt beam="2">  1       -2 0.76633473E-01 0.16918893E+04</pdfrwt>
<totfact> 0.26122985E+01</totfact>
</mgrwt>
</event>
<event>
 8    1  0.7583103E-052  0.1703613E+04  0.7818608E-02  0.8759306E-01
          2   -1    0    0  501    0  0.00000000000E+00  0.00000000000E+00  0.55252693726E+03  0.55252693726E+03  0.25500000000E-02 0.  1.
         -2   -1    0    0    0  501 -0.00000000000E+00 -0.00000000000E+00 -0.13131933802E+04  0.13131933802E+04  0.25500000000E-02 0. -1.
     200001    2    1    2    0    0 -0.55186886748E+03 -0.14493948624E+03 -0.55015074801E+03  0.10022085576E+04  0.61334284532E+03 0.  0.
    5000001    2    3    3    0    0 -0.28859529289E+03  0.18656247614E+03 -0.91210628656E+02  0.36972649521E+03  0.10141746349E+03 0.  0.
        -13    1    4    4    0    0 -0.19242335865E+03  0.16197333963E+03 -0.42226977861E+02  0.25503968422E+03  0.10566000000E+00 0. -1.
     200003    1    4    4    0    0 -0.96171934244E+02  0.24589136510E+02 -0.48983650795E+02  0.11468681099E+03  0.30000000000E+02 0. -1.
     200000    1    3    3    0    0 -0.26327357459E+03 -0.33150196238E+03 -0.45894011936E+03  0.63248206243E+03  0.10100000000E+03 0. -1.
    -200001    1    1    2    0    0  0.55186886748E+03  0.14493948624E+03 -0.21051569495E+03  0.86351175985E+03  0.61300000000E+03 0.  1.
<mgrwt>
<rscale>  0 0.17036135E+04</rscale>
<asrwt>0</asrwt>
<pdfrwt beam="1">  1        2 0.78932420E-01 0.17036135E+04</pdfrwt>
<pdfrwt beam="2">  1       -2 0.18759905E+00 0.17036135E+04</pdfrwt>
<totfact> 0.91680626E+00</totfact>
</mgrwt>
</event>
<event>
 8    1  0.7583103E-052  0.1748705E+04  0.7818608E-02  0.8734063E-01
         -2   -1    0    0    0  501 -0.00000000000E+00  0.00000000000E+00  0.68943612140E+03  0.68943612140E+03  0.25500000000E-02 0. -1.
          2   -1    0    0  501    0  0.00000000000E+00 -0.00000000000E+00 -0.11088661060E+04  0.11088661060E+04  0.25500000000E-02 0.  1.
     200001    2    1    2    0    0 -0.32944633735E+03  0.30175291187E+02 -0.75322585772E+03  0.10258812784E+04  0.61289294931E+03 0.  0.
    5000001    2    3    3    0    0 -0.18888638088E+03 -0.14828281436E+03 -0.73286135530E+03  0.77644168704E+03  0.90055923521E+02 0.  0.
        -13    1    4    4    0    0 -0.11431205494E+02 -0.39309931223E+02 -0.18719748845E+03  0.19162164282E+03  0.10566000000E+00 0. -1.
     200003    1    4    4    0    0 -0.17745517538E+03 -0.10897288314E+03 -0.54566386685E+03  0.58482004421E+03  0.30000000000E+02 0. -1.
     200000    1    3    3    0    0 -0.14055995647E+03  0.17845810555E+03 -0.20364502421E+02  0.24943959140E+03  0.10100000000E+03 0. -1.
    -200001    1    1    2    0    0  0.32944633735E+03 -0.30175291187E+02  0.33379587317E+03  0.77242094892E+03  0.61300000000E+03 0. -1.
<mgrwt>
<rscale>  0 0.17487051E+04</rscale>
<asrwt>0</asrwt>
<pdfrwt beam="1">  1        2 0.15840944E+00 0.17487051E+04</pdfrwt>
<pdfrwt beam="2">  1       -2 0.98490875E-01 0.17487051E+04</pdfrwt>
<totfact> 0.19653083E+01</totfact>
</mgrwt>
</event>
<event>
 8    1  0.7583103E-052  0.1495712E+04  0.7818608E-02  0.8887310E-01
          2   -1    0    0  501    0  0.00000000000E+00  0.00000000000E+00  0.83255353698E+03  0.83255353698E+03  0.25500000000E-02 0.  1.
         -2   -1    0    0    0  501 -0.00000000000E+00 -0.00000000000E+00 -0.67177453921E+03  0.67177453921E+03  0.25500000000E-02 0. -1.
     200001    2    1    2    0    0  0.12479784538E+03  0.57351341694E+02 -0.32739991727E+03  0.70874569096E+03  0.61340530648E+03 0.  0.
    5000001    2    3    3    0    0  0.14051115262E+02  0.29419361915E+03 -0.44651676023E+02  0.31061672875E+03  0.87986707084E+02 0.  0.
        -13    1    4    4    0    0  0.59804849121E+01  0.87359197340E+01  0.13992018906E+02  0.17546231803E+02  0.10566000000E+00 0. -1.
     200003    1    4    4    0    0  0.80706303496E+01  0.28545769941E+03 -0.58643694929E+02  0.29307049695E+03  0.30000000000E+02 0. -1.
     200000    1    3    3    0    0  0.11074673012E+03 -0.23684227745E+03 -0.28274824125E+03  0.39812896221E+03  0.10100000000E+03 0. -1.
    -200001    1    1    2    0    0 -0.12479784538E+03 -0.57351341694E+02  0.48817891504E+03  0.79558238524E+03  0.61300000000E+03 0.  1.
<mgrwt>
<rscale>  0 0.14957116E+04</rscale>
<asrwt>0</asrwt>
<pdfrwt beam="1">  1        2 0.11893622E+00 0.14957116E+04</pdfrwt>
<pdfrwt beam="2">  1       -2 0.95967791E-01 0.14957116E+04</pdfrwt>
<totfact> 0.31810691E+01</totfact>
</mgrwt>
</event>
<event>
 8    1  0.7583103E-052  0.1406344E+04  0.7818608E-02  0.8949239E-01
          2   -1    0    0  501    0  0.00000000000E+00  0.00000000000E+00  0.79511078719E+03  0.79511078719E+03  0.25500000000E-02 0.  1.
         -2   -1    0    0    0  501 -0.00000000000E+00 -0.00000000000E+00 -0.62186378718E+03  0.62186378719E+03  0.25500000000E-02 0. -1.
     200001    2    1    2    0    0  0.93476029083E+02  0.17591137460E+02 -0.24643029221E+03  0.66801179444E+03  0.61356715400E+03 0.  0.
    5000001    2    3    3    0    0  0.20649579186E+03 -0.85716559670E+02  0.97113795777E+02  0.27856412471E+03  0.13482967622E+03 0.  0.
        -13    1    4    4    0    0  0.15648600361E+03 -0.11312437790E+03  0.52219696979E+02  0.20002975308E+03  0.10566000000E+00 0. -1.
     200003    1    4    4    0    0  0.50009788250E+02  0.27407818230E+02  0.44894098798E+02  0.78534371633E+02  0.30000000000E+02 0. -1.
     200000    1    3    3    0    0 -0.11301976278E+03  0.10330769713E+03 -0.34354408799E+03  0.38944766973E+03  0.10100000000E+03 0. -1.
    -200001    1    1    2    0    0 -0.93476029083E+02 -0.17591137460E+02  0.41967729222E+03  0.74896277994E+03  0.61300000000E+03 0.  1.
<mgrwt>
<rscale>  0 0.14063436E+04</rscale>
<asrwt>0</asrwt>
<pdfrwt beam="1">  1        2 0.11358725E+00 0.14063436E+04</pdfrwt>
<pdfrwt beam="2">  1       -2 0.88837684E-01 0.14063436E+04</pdfrwt>
<totfact> 0.40667243E+01</totfact>
</mgrwt>
</event>
<event>
 8    1  0.7583103E-052  0.1280104E+04  0.7818608E-02  0.9045494E-01
         -2   -1    0    0    0  501 -0.00000000000E+00  0.00000000000E+00  0.45849080466E+03  0.45849080467E+03  0.25500000000E-02 0. -1.
          2   -1    0    0  501    0  0.00000000000E+00 -0.00000000000E+00 -0.89351047339E+03  0.89351047339E+03  0.25500000000E-02 0.  1.
     200001    2    1    2    0    0 -0.16603701867E+03 -0.69488716376E+02 -0.17783132195E+03  0.66329828040E+03  0.61314244385E+03 0.  0.
    5000001    2    3    3    0    0 -0.93743955912E+02  0.97461981491E+02  0.18180863206E+03  0.24779771607E+03  0.10031232371E+03 0.  0.
        -13    1    4    4    0    0 -0.36758719810E+01  0.35544645193E+02  0.10491976912E+03  0.11083818364E+03  0.10566000000E+00 0. -1.
     200003    1    4    4    0    0 -0.90068083931E+02  0.61917336298E+02  0.76888862942E+02  0.13695953242E+03  0.30000000000E+02 0. -1.
     200000    1    3    3    0    0 -0.72293062758E+02 -0.16695069787E+03 -0.35963995401E+03  0.41550056434E+03  0.10100000000E+03 0.  1.
    -200001    1    1    2    0    0  0.16603701867E+03  0.69488716376E+02 -0.25718834677E+03  0.68870299766E+03  0.61300000000E+03 0.  1.
<mgrwt>
<rscale>  0 0.12801036E+04</rscale>
<asrwt>0</asrwt>
<pdfrwt beam="1">  1        2 0.12764435E+00 0.12801036E+04</pdfrwt>
<pdfrwt beam="2">  1       -2 0.65498686E-01 0.12801036E+04</pdfrwt>
<totfact> 0.69296636E+01</totfact>
</mgrwt>
</event>
<event>
 8    1  0.7583103E-052  0.1451199E+04  0.7818608E-02  0.8917569E-01
          2   -1    0    0  501    0  0.00000000000E+00  0.00000000000E+00  0.45014060608E+03  0.45014060609E+03  0.25500000000E-02 0.  1.
         -2   -1    0    0    0  501 -0.00000000000E+00 -0.00000000000E+00 -0.11696234013E+04  0.11696234013E+04  0.25500000000E-02 0. -1.
     200001    2    1    2    0    0  0.35347825680E+03 -0.13889381905E+03 -0.26663849113E+03  0.76825045214E+03  0.61226979450E+03 0.  0.
    5000001    2    3    3    0    0 -0.10541661777E+03 -0.13321401520E+03 -0.19469587122E+03  0.29286270868E+03  0.13785298951E+03 0.  0.
        -13    1    4    4    0    0 -0.57328169593E+02 -0.81614205487E+01 -0.12743622090E+03  0.13997545991E+03  0.10566000000E+00 0. -1.
     200003    1    4    4    0    0 -0.48088448173E+02 -0.12505259465E+03 -0.67259650317E+02  0.15288724877E+03  0.30000000000E+02 0. -1.
     200000    1    3    3    0    0  0.45889487456E+03 -0.56798038509E+01 -0.71942619912E+02  0.47538774346E+03  0.10100000000E+03 0. -1.
    -200001    1    1    2    0    0 -0.35347825680E+03  0.13889381905E+03 -0.45284430404E+03  0.85151355521E+03  0.61300000000E+03 0.  1.
<mgrwt>
<rscale>  0 0.14511995E+04</rscale>
<asrwt>0</asrwt>
<pdfrwt beam="1">  1        2 0.64305802E-01 0.14511995E+04</pdfrwt>
<pdfrwt beam="2">  1       -2 0.16708906E+00 0.14511995E+04</pdfrwt>
<totfact> 0.16426678E+01</totfact>
</mgrwt>
</event>
<event>
 8    1  0.7583103E-052  0.2332283E+04  0.7818608E-02  0.8465300E-01
         -2   -1    0    0    0  501 -0.00000000000E+00  0.00000000000E+00  0.53594879518E+03  0.53594879518E+03  0.25500000000E-02 0.  1.
          2   -1    0    0  501    0  0.00000000000E+00 -0.00000000000E+00 -0.25373425611E+04  0.25373425611E+04  0.25500000000E-02 0. -1.
     200001    2    1    2    0    0  0.33529847850E+03 -0.42992717792E+03 -0.20928516221E+04  0.22478242234E+04  0.61271802585E+03 0.  0.
    5000001    2    3    3    0    0  0.13245857511E+02 -0.58134261471E+02 -0.13448901378E+04  0.13469384119E+04  0.44255593506E+02 0.  0.
        -13    1    4    4    0    0 -0.24758263250E+01 -0.88133550865E+01 -0.63979922389E+02  0.64631622111E+02  0.10566000000E+00 0. -1.
     200003    1    4    4    0    0  0.15721683836E+02 -0.49320906384E+02 -0.12809102154E+04  0.12823067898E+04  0.30000000000E+02 0. -1.
     200000    1    3    3    0    0  0.32205262099E+03 -0.37179291645E+03 -0.74796148433E+03  0.90088581155E+03  0.10100000000E+03 0. -1.
    -200001    1    1    2    0    0 -0.33529847850E+03  0.42992717792E+03  0.91457856180E+02  0.82546713288E+03  0.61300000000E+03 0.  1.
<mgrwt>
<rscale>  0 0.23322827E+04</rscale>
<asrwt>0</asrwt>
<pdfrwt beam="1">  1        2 0.36247750E+00 0.23322827E+04</pdfrwt>
<pdfrwt beam="2">  1       -2 0.76564115E-01 0.23322827E+04</pdfrwt>
<totfact> 0.58364349E+00</totfact>
</mgrwt>
</event>
<event>
 8    1  0.7583103E-052  0.1999560E+04  0.7818608E-02  0.8606826E-01
          2   -1    0    0  501    0  0.00000000000E+00  0.00000000000E+00  0.13150182343E+04  0.13150182343E+04  0.25500000000E-02 0.  1.
         -2   -1    0    0    0  501 -0.00000000000E+00 -0.00000000000E+00 -0.76011117363E+03  0.76011117363E+03  0.25500000000E-02 0. -1.
     200001    2    1    2    0    0  0.11721917783E+03  0.34732318545E+03  0.10035529768E+04  0.12316687456E+04  0.61279326909E+03 0.  0.
    5000001    2    3    3    0    0  0.25371962176E+03 -0.51274211593E+02  0.48499520520E+03  0.55593550036E+03  0.82711790324E+02 0.  0.
        -13    1    4    4    0    0 -0.50864423883E+01  0.25484358972E+01  0.10922965300E+02  0.12316198954E+02  0.10566000000E+00 0. -1.
     200003    1    4    4    0    0  0.25880606415E+03 -0.53822647490E+02  0.47407223990E+03  0.54361930141E+03  0.30000000000E+02 0. -1.
     200000    1    3    3    0    0 -0.13650044393E+03  0.39859739704E+03  0.51855777164E+03  0.67573324519E+03  0.10100000000E+03 0.  1.
    -200001    1    1    2    0    0 -0.11721917783E+03 -0.34732318545E+03 -0.44864591621E+03  0.84346066235E+03  0.61300000000E+03 0. -1.
<mgrwt>
<rscale>  0 0.19995600E+04</rscale>
<asrwt>0</asrwt>
<pdfrwt beam="1">  1        2 0.18785975E+00 0.19995600E+04</pdfrwt>
<pdfrwt beam="2">  1       -2 0.10858731E+00 0.19995600E+04</pdfrwt>
<totfact> 0.11648190E+01</totfact>
</mgrwt>
</event>
<event>
 8    1  0.7583103E-052  0.2109691E+04  0.7818608E-02  0.8556986E-01
         -2   -1    0    0    0  501 -0.00000000000E+00  0.00000000000E+00  0.61332224311E+03  0.61332224312E+03  0.25500000000E-02 0. -1.
          2   -1    0    0  501    0  0.00000000000E+00 -0.00000000000E+00 -0.18142160572E+04  0.18142160572E+04  0.25500000000E-02 0.  1.
     200001    2    1    2    0    0 -0.18348140796E+03  0.57127758089E+03  0.10566002041E+03  0.86456823537E+03  0.61342537623E+03 0.  0.
    5000001    2    3    3    0    0 -0.33701487531E+03  0.56123561230E+03  0.23948604822E+02  0.66319514341E+03  0.10339160450E+03 0.  0.
        -13    1    4    4    0    0 -0.37226966689E+02  0.41225989908E+02 -0.23557297255E+02  0.60335617265E+02  0.10566000000E+00 0. -1.
     200003    1    4    4    0    0 -0.29978790862E+03  0.52000962239E+03  0.47505902077E+02  0.60285952615E+03  0.30000000000E+02 0. -1.
     200000    1    3    3    0    0  0.15353346734E+03  0.10041968591E+02  0.81711415583E+02  0.20137309196E+03  0.10100000000E+03 0.  1.
    -200001    1    1    2    0    0  0.18348140796E+03 -0.57127758089E+03 -0.13065538345E+04  0.15629700649E+04  0.61300000000E+03 0.  1.
<mgrwt>
<rscale>  0 0.21096910E+04</rscale>
<asrwt>0</asrwt>
<pdfrwt beam="1">  1        2 0.25917372E+00 0.21096910E+04</pdfrwt>
<pdfrwt beam="2">  1       -2 0.87617464E-01 0.21096910E+04</pdfrwt>
<totfact> 0.10403380E+01</totfact>
</mgrwt>
</event>
<event>
 8    1  0.7583103E-052  0.1304732E+04  0.7818608E-02  0.9025821E-01
         -2   -1    0    0    0  501 -0.00000000000E+00  0.00000000000E+00  0.46924498492E+03  0.46924498493E+03  0.25500000000E-02 0.  1.
          2   -1    0    0  501    0  0.00000000000E+00 -0.00000000000E+00 -0.90694945463E+03  0.90694945464E+03  0.25500000000E-02 0. -1.
     200001    2    1    2    0    0  0.62556049363E+02 -0.18594459660E+03 -0.11106530690E+03  0.65442522784E+03  0.61436815031E+03 0.  0.
    5000001    2    3    3    0    0  0.22120475302E+03  0.32687213379E+02 -0.23868061349E+03  0.33905885997E+03  0.89400663253E+02 0.  0.
        -13    1    4    4    0    0  0.16886800285E+03  0.11466275813E+02 -0.13185232248E+03  0.21455284658E+03  0.10566000000E+00 0. -1.
     200003    1    4    4    0    0  0.52336750163E+02  0.21220937565E+02 -0.10682829101E+03  0.12450601339E+03  0.30000000000E+02 0. -1.
     200000    1    3    3    0    0 -0.15864870365E+03 -0.21863180998E+03  0.12761530659E+03  0.31536636787E+03  0.10100000000E+03 0.  1.
    -200001    1    1    2    0    0 -0.62556049363E+02  0.18594459660E+03 -0.32663916281E+03  0.72176921173E+03  0.61300000000E+03 0. -1.
<mgrwt>
<rscale>  0 0.13047321E+04</rscale>
<asrwt>0</asrwt>
<pdfrwt beam="1">  1        2 0.12956421E+00 0.13047321E+04</pdfrwt>
<pdfrwt beam="2">  1       -2 0.67034998E-01 0.13047321E+04</pdfrwt>
<totfact> 0.64485608E+01</totfact>
</mgrwt>
</event>
<event>
 8    1  0.7583103E-052  0.2066731E+04  0.7818608E-02  0.8576042E-01
          2   -1    0    0  501    0  0.00000000000E+00  0.00000000000E+00  0.24783033071E+04  0.24783033071E+04  0.25500000000E-02 0.  1.
         -2   -1    0    0    0  501 -0.00000000000E+00 -0.00000000000E+00 -0.43087727046E+03  0.43087727047E+03  0.25500000000E-02 0. -1.
     200001    2    1    2    0    0  0.20723430594E+03 -0.10082332808E+02  0.21572173612E+04  0.22527730472E+04  0.61510320079E+03 0.  0.
    5000001    2    3    3    0    0  0.38778646625E+03  0.28050809283E+02  0.17421990902E+04  0.17874834767E+04  0.93136020445E+02 0.  0.
        -13    1    4    4    0    0  0.47225577180E+02  0.31395113166E+02  0.29995519042E+03  0.30526879254E+03  0.10566000000E+00 0. -1.
     200003    1    4    4    0    0  0.34056088907E+03 -0.33443038831E+01  0.14422438998E+04  0.14822146842E+04  0.30000000000E+02 0. -1.
     200000    1    3    3    0    0 -0.18055216031E+03 -0.38133142091E+02  0.41501827098E+03  0.46528957044E+03  0.10100000000E+03 0. -1.
    -200001    1    1    2    0    0 -0.20723430594E+03  0.10082332808E+02 -0.10979132457E+03  0.65640753038E+03  0.61300000000E+03 0. -1.
<mgrwt>
<rscale>  0 0.20667313E+04</rscale>
<asrwt>0</asrwt>
<pdfrwt beam="1">  1        2 0.35404332E+00 0.20667313E+04</pdfrwt>
<pdfrwt beam="2">  1       -2 0.61553897E-01 0.20667313E+04</pdfrwt>
<totfact> 0.10299388E+01</totfact>
</mgrwt>
</event>
<event>
 8    1  0.7583103E-052  0.1362810E+04  0.7818608E-02  0.8981187E-01
          2   -1    0    0  501    0  0.00000000000E+00  0.00000000000E+00  0.18634217997E+04  0.18634217997E+04  0.25500000000E-02 0.  1.
         -2   -1    0    0    0  501 -0.00000000000E+00 -0.00000000000E+00 -0.24917222776E+03  0.24917222777E+03  0.25500000000E-02 0. -1.
     200001    2    1    2    0    0 -0.18650723655E+03  0.85136166819E+01  0.11709573865E+04  0.13334057366E+04  0.60989525857E+03 0.  0.
    5000001    2    3    3    0    0 -0.28574622819E+03  0.82281787013E+02  0.24590775483E+03  0.39467897045E+03  0.82943754608E+02 0.  0.
        -13    1    4    4    0    0 -0.88193342227E+02  0.46617689622E+02  0.11905823215E+03  0.15532594248E+03  0.10566000000E+00 0. -1.
     200003    1    4    4    0    0 -0.19755288596E+03  0.35664097391E+02  0.12684952268E+03  0.23935302797E+03  0.30000000000E+02 0. -1.
     200000    1    3    3    0    0  0.99238991644E+02 -0.73768170331E+02  0.92504963171E+03  0.93872676618E+03  0.10100000000E+03 0.  1.
    -200001    1    1    2    0    0  0.18650723655E+03 -0.85136166819E+01  0.44329218539E+03  0.77918829084E+03  0.61300000000E+03 0.  1.
<mgrwt>
<rscale>  0 0.13628103E+04</rscale>
<asrwt>0</asrwt>
<pdfrwt beam="1">  1        2 0.26620312E+00 0.13628103E+04</pdfrwt>
<pdfrwt beam="2">  1       -2 0.35596032E-01 0.13628103E+04</pdfrwt>
<totfact> 0.68339074E+01</totfact>
</mgrwt>
</event>
<event>
 8    1  0.7583103E-052  0.1316655E+04  0.7818608E-02  0.9016461E-01
         -2   -1    0    0    0  501 -0.00000000000E+00  0.00000000000E+00  0.19118263074E+03  0.19118263075E+03  0.25500000000E-02 0. -1.
          2   -1    0    0  501    0  0.00000000000E+00 -0.00000000000E+00 -0.22669172767E+04  0.22669172767E+04  0.25500000000E-02 0.  1.
     200001    2    1    2    0    0  0.90921841408E+02 -0.22223528295E+03 -0.10277551717E+04  0.12204871729E+04  0.61290533041E+03 0.  0.
    5000001    2    3    3    0    0  0.16067689808E+03  0.57004692817E+02 -0.48248005174E+02  0.19458463306E+03  0.80428283843E+02 0.  0.
        -13    1    4    4    0    0  0.10729334373E+03  0.65948555961E+02 -0.40068053478E+02  0.13216101436E+03  0.10566000000E+00 0. -1.
     200003    1    4    4    0    0  0.53383554342E+02 -0.89438631440E+01 -0.81799516962E+01  0.62423618703E+02  0.30000000000E+02 0. -1.
     200000    1    3    3    0    0 -0.69755056667E+02 -0.27923997577E+03 -0.97950716652E+03  0.10259025398E+04  0.10100000000E+03 0.  1.
    -200001    1    1    2    0    0 -0.90921841408E+02  0.22223528295E+03 -0.10479794743E+04  0.12376127346E+04  0.61300000000E+03 0. -1.
<mgrwt>
<rscale>  0 0.13166552E+04</rscale>
<asrwt>0</asrwt>
<pdfrwt beam="1">  1        2 0.32384531E+00 0.13166552E+04</pdfrwt>
<pdfrwt beam="2">  1       -2 0.27311806E-01 0.13166552E+04</pdfrwt>
<totfact> 0.69902995E+01</totfact>
</mgrwt>
</event>
<event>
 8    1  0.7583103E-052  0.1862290E+04  0.7818608E-02  0.8673858E-01
         -2   -1    0    0    0  501 -0.00000000000E+00  0.00000000000E+00  0.47787029255E+03  0.47787029256E+03  0.25500000000E-02 0. -1.
          2   -1    0    0  501    0  0.00000000000E+00 -0.00000000000E+00 -0.18143656409E+04  0.18143656409E+04  0.25500000000E-02 0.  1.
     200001    2    1    2    0    0 -0.34667993501E+02  0.65599324928E+03 -0.36563067370E+03  0.96940705968E+03  0.61199284713E+03 0.  0.
    5000001    2    3    3    0    0 -0.27244612106E+03  0.18894920947E+03 -0.25133358176E+03  0.42357430298E+03  0.79485396015E+02 0.  0.
        -13    1    4    4    0    0 -0.93657114928E+02  0.94620392161E+02 -0.12908813632E+03  0.18544118176E+03  0.10566000000E+00 0. -1.
     200003    1    4    4    0    0 -0.17878900614E+03  0.94328817309E+02 -0.12224544544E+03  0.23813312122E+03  0.30000000000E+02 0. -1.
     200000    1    3    3    0    0  0.23777812756E+03  0.46704403981E+03 -0.11429709195E+03  0.54583275671E+03  0.10100000000E+03 0. -1.
    -200001    1    1    2    0    0  0.34667993501E+02 -0.65599324928E+03 -0.97086467468E+03  0.13228288738E+04  0.61300000000E+03 0. -1.
<mgrwt>
<rscale>  0 0.18622905E+04</rscale>
<asrwt>0</asrwt>
<pdfrwt beam="1">  1        2 0.25919509E+00 0.18622905E+04</pdfrwt>
<pdfrwt beam="2">  1       -2 0.68267186E-01 0.18622905E+04</pdfrwt>
<totfact> 0.18509586E+01</totfact>
</mgrwt>
</event>
<event>
 8    1  0.7583103E-052  0.1560346E+04  0.7818608E-02  0.8845286E-01
          2   -1    0    0  501    0  0.00000000000E+00  0.00000000000E+00  0.71549876733E+03  0.71549876734E+03  0.25500000000E-02 0.  1.
         -2   -1    0    0    0  501 -0.00000000000E+00 -0.00000000000E+00 -0.85069324204E+03  0.85069324205E+03  0.25500000000E-02 0. -1.
     200001    2    1    2    0    0 -0.18565872782E+03 -0.14842178918E+03 -0.48898164113E+03  0.81957795257E+03  0.61327545545E+03 0.  0.
    5000001    2    3    3    0    0 -0.16379300979E+03  0.58542801076E+02  0.76007526783E+02  0.20906488055E+03  0.87610333518E+02 0.  0.
        -13    1    4    4    0    0 -0.93394452254E+02  0.36001740412E+02  0.81534042951E+02  0.12909864580E+03  0.10566000000E+00 0. -1.
     200003    1    4    4    0    0 -0.70398557534E+02  0.22541060664E+02 -0.55265161682E+01  0.79966234747E+02  0.30000000000E+02 0. -1.
     200000    1    3    3    0    0 -0.21865718029E+02 -0.20696459025E+03 -0.56498916791E+03  0.61051307201E+03  0.10100000000E+03 0. -1.
    -200001    1    1    2    0    0  0.18565872782E+03  0.14842178918E+03  0.35378716642E+03  0.74661405682E+03  0.61300000000E+03 0. -1.
<mgrwt>
<rscale>  0 0.15603461E+04</rscale>
<asrwt>0</asrwt>
<pdfrwt beam="1">  1        2 0.10221411E+00 0.15603461E+04</pdfrwt>
<pdfrwt beam="2">  1       -2 0.12152760E+00 0.15603461E+04</pdfrwt>
<totfact> 0.21721918E+01</totfact>
</mgrwt>
</event>
<event>
 8    1  0.7583103E-052  0.1448318E+04  0.7818608E-02  0.8919567E-01
         -2   -1    0    0    0  501 -0.00000000000E+00  0.00000000000E+00  0.35121467060E+03  0.35121467061E+03  0.25500000000E-02 0. -1.
          2   -1    0    0  501    0  0.00000000000E+00 -0.00000000000E+00 -0.14931217422E+04  0.14931217422E+04  0.25500000000E-02 0.  1.
     200001    2    1    2    0    0  0.16887628501E+02 -0.40943571084E+02 -0.10582678245E+04  0.12240734914E+04  0.61356626039E+03 0.  0.
    5000001    2    3    3    0    0  0.24082716490E+02  0.25160283674E+03 -0.38561138285E+03  0.48359873926E+03  0.14590283527E+03 0.  0.
        -13    1    4    4    0    0 -0.22125970692E+02  0.16465674941E+02 -0.12616887108E+03  0.12914825676E+03  0.10566000000E+00 0. -1.
     200003    1    4    4    0    0  0.46208687182E+02  0.23513716180E+03 -0.25944251177E+03  0.35445048250E+03  0.30000000000E+02 0. -1.
     200000    1    3    3    0    0 -0.71950879892E+01 -0.29254640782E+03 -0.67265644167E+03  0.74047475213E+03  0.10100000000E+03 0.  1.
    -200001    1    1    2    0    0 -0.16887628501E+02  0.40943571084E+02 -0.83639247054E+02  0.62026292139E+03  0.61300000000E+03 0. -1.
<mgrwt>
<rscale>  0 0.14483180E+04</rscale>
<asrwt>0</asrwt>
<pdfrwt beam="1">  1        2 0.21330310E+00 0.14483180E+04</pdfrwt>
<pdfrwt beam="2">  1       -2 0.50173525E-01 0.14483180E+04</pdfrwt>
<totfact> 0.53782837E+01</totfact>
</mgrwt>
</event>
<event>
 8    1  0.7583103E-052  0.1710989E+04  0.7818608E-02  0.8755122E-01
          2   -1    0    0  501    0  0.00000000000E+00  0.00000000000E+00  0.35456002346E+04  0.35456002346E+04  0.25500000000E-02 0.  1.
         -2   -1    0    0    0  501 -0.00000000000E+00 -0.00000000000E+00 -0.20641651921E+03  0.20641651922E+03  0.25500000000E-02 0. -1.
     200001    2    1    2    0    0  0.27551646502E+02 -0.26814358393E+03  0.50122565865E+03  0.83612323610E+03  0.61254781874E+03 0.  0.
    5000001    2    3    3    0    0 -0.14407779866E+03 -0.25016415396E+03  0.17007965077E+02  0.31224567301E+03  0.11776066171E+03 0.  0.
        -13    1    4    4    0    0  0.17765619564E+01  0.77409431951E+01  0.12008273923E+02  0.14397506054E+02  0.10566000000E+00 0. -1.
     200003    1    4    4    0    0 -0.14585436061E+03 -0.25790509715E+03  0.49996911540E+01  0.29784816696E+03  0.30000000000E+02 0. -1.
     200000    1    3    3    0    0  0.17162944516E+03 -0.17979429976E+02  0.48421769357E+03  0.52387756310E+03  0.10100000000E+03 0.  1.
    -200001    1    1    2    0    0 -0.27551646502E+02  0.26814358393E+03  0.28379580567E+04  0.29158935177E+04  0.61300000000E+03 0.  1.
<mgrwt>
<rscale>  0 0.17109886E+04</rscale>
<asrwt>0</asrwt>
<pdfrwt beam="1">  1        2 0.50651435E+00 0.17109886E+04</pdfrwt>
<pdfrwt beam="2">  1       -2 0.29488072E-01 0.17109886E+04</pdfrwt>
<totfact> 0.11450805E+01</totfact>
</mgrwt>
</event>
<event>
 8    1  0.7583103E-052  0.1267235E+04  0.7818608E-02  0.9055960E-01
         -2   -1    0    0    0  501 -0.00000000000E+00  0.00000000000E+00  0.13682471002E+03  0.13682471004E+03  0.25500000000E-02 0. -1.
          2   -1    0    0  501    0  0.00000000000E+00 -0.00000000000E+00 -0.29341988380E+04  0.29341988380E+04  0.25500000000E-02 0.  1.
     200001    2    1    2    0    0  0.87894872218E+02 -0.13606869153E+03 -0.13989309076E+04  0.15355585898E+04  0.61212114904E+03 0.  0.
    5000001    2    3    3    0    0 -0.10091671657E+03 -0.30942042714E+03 -0.94271877566E+03  0.10026128612E+04  0.10290128798E+03 0.  0.
        -13    1    4    4    0    0 -0.82723023846E+02 -0.28923467969E+03 -0.82645790865E+03  0.87950695537E+03  0.10566000000E+00 0. -1.
     200003    1    4    4    0    0 -0.18193692720E+02 -0.20185747452E+02 -0.11626086701E+03  0.12310590584E+03  0.30000000000E+02 0.  1.
     200000    1    3    3    0    0  0.18881158878E+03  0.17335173560E+03 -0.45621213195E+03  0.53294572860E+03  0.10100000000E+03 0. -1.
    -200001    1    1    2    0    0 -0.87894872218E+02  0.13606869153E+03 -0.13984432204E+04  0.15354649583E+04  0.61300000000E+03 0. -1.
<mgrwt>
<rscale>  0 0.12672346E+04</rscale>
<asrwt>0</asrwt>
<pdfrwt beam="1">  1        2 0.41917122E+00 0.12672346E+04</pdfrwt>
<pdfrwt beam="2">  1       -2 0.19546389E-01 0.12672346E+04</pdfrwt>
<totfact> 0.56621251E+01</totfact>
</mgrwt>
</event>
<event>
 8    1  0.7583103E-052  0.1582866E+04  0.7818608E-02  0.8831144E-01
          2   -1    0    0  501    0  0.00000000000E+00  0.00000000000E+00  0.33128316415E+03  0.33128316416E+03  0.25500000000E-02 0.  1.
         -2   -1    0    0    0  501 -0.00000000000E+00 -0.00000000000E+00 -0.18907275104E+04  0.18907275104E+04  0.25500000000E-02 0. -1.
     200001    2    1    2    0    0 -0.25901695354E+03  0.17862246763E+03 -0.13244442654E+04  0.14940066868E+04  0.61555470921E+03 0.  0.
    5000001    2    3    3    0    0 -0.13274518298E+03  0.37423497640E+03 -0.69152019879E+03  0.81209563127E+03  0.15370760497E+03 0.  0.
        -13    1    4    4    0    0 -0.14784722987E+03  0.35363381324E+03 -0.65180163642E+03  0.75614883564E+03  0.10566000000E+00 0. -1.
     200003    1    4    4    0    0  0.15102046890E+02  0.20601163163E+02 -0.39718562377E+02  0.55946795629E+02  0.30000000000E+02 0. -1.
     200000    1    3    3    0    0 -0.12627177056E+03 -0.19561250877E+03 -0.63292406657E+03  0.68191105554E+03  0.10100000000E+03 0. -1.
    -200001    1    1    2    0    0  0.25901695354E+03 -0.17862246763E+03 -0.23500008091E+03  0.72800398776E+03  0.61300000000E+03 0.  1.
<mgrwt>
<rscale>  0 0.15828660E+04</rscale>
<asrwt>0</asrwt>
<pdfrwt beam="1">  1        2 0.47326167E-01 0.15828660E+04</pdfrwt>
<pdfrwt beam="2">  1       -2 0.27010392E+00 0.15828660E+04</pdfrwt>
<totfact> 0.49794068E+00</totfact>
</mgrwt>
</event>
<event>
 8    1  0.7583103E-052  0.1498232E+04  0.7818608E-02  0.8885629E-01
         -2   -1    0    0    0  501 -0.00000000000E+00  0.00000000000E+00  0.31995665554E+03  0.31995665555E+03  0.25500000000E-02 0. -1.
          2   -1    0    0  501    0  0.00000000000E+00 -0.00000000000E+00 -0.17539091159E+04  0.17539091159E+04  0.25500000000E-02 0.  1.
     200001    2    1    2    0    0 -0.37964336674E+03  0.70421272280E+02 -0.45299653687E+03  0.85438565052E+03  0.61292800222E+03 0.  0.
    5000001    2    3    3    0    0 -0.49136081778E+03  0.54080961083E+02 -0.19849540150E+03  0.55821066417E+03  0.16684878655E+03 0.  0.
        -13    1    4    4    0    0 -0.24425753738E+03  0.10597886470E+03 -0.82621362880E+02  0.27878228978E+03  0.10566000000E+00 0. -1.
     200003    1    4    4    0    0 -0.24710328041E+03 -0.51897903615E+02 -0.11587403862E+03  0.27942837439E+03  0.30000000000E+02 0. -1.
     200000    1    3    3    0    0  0.11171745104E+03  0.16340311196E+02 -0.25450113536E+03  0.29617498635E+03  0.10100000000E+03 0.  1.
    -200001    1    1    2    0    0  0.37964336674E+03 -0.70421272280E+02 -0.98095592346E+03  0.12194801209E+04  0.61300000000E+03 0.  1.
<mgrwt>
<rscale>  0 0.14982322E+04</rscale>
<asrwt>0</asrwt>
<pdfrwt beam="1">  1        2 0.25055844E+00 0.14982322E+04</pdfrwt>
<pdfrwt beam="2">  1       -2 0.45708095E-01 0.14982322E+04</pdfrwt>
<totfact> 0.47219460E+01</totfact>
</mgrwt>
</event>
<event>
 8    1  0.7583103E-052  0.1943731E+04  0.7818608E-02  0.8633390E-01
          2   -1    0    0  501    0  0.00000000000E+00  0.00000000000E+00  0.13655824655E+04  0.13655824656E+04  0.25500000000E-02 0.  1.
         -2   -1    0    0    0  501 -0.00000000000E+00 -0.00000000000E+00 -0.69166273722E+03  0.69166273723E+03  0.25500000000E-02 0. -1.
     200001    2    1    2    0    0 -0.46712073713E+03  0.54776788215E+03  0.97975606457E+02  0.95011735682E+03  0.61226819002E+03 0.  0.
    5000001    2    3    3    0    0 -0.40080218875E+03  0.27427602299E+03 -0.19097414514E+03  0.53431823967E+03  0.11469579694E+03 0.  0.
        -13    1    4    4    0    0 -0.19469544865E+03  0.18900338192E+03 -0.77078668420E+02  0.28208106705E+03  0.10566000000E+00 0. -1.
     200003    1    4    4    0    0 -0.20610674010E+03  0.85272641070E+02 -0.11389547672E+03  0.25223717261E+03  0.30000000000E+02 0. -1.
     200000    1    3    3    0    0 -0.66318548378E+02  0.27349185916E+03  0.28894975159E+03  0.41579911716E+03  0.10100000000E+03 0.  1.
    -200001    1    1    2    0    0  0.46712073713E+03 -0.54776788215E+03  0.57594412187E+03  0.11071278460E+04  0.61300000000E+03 0.  1.
<mgrwt>
<rscale>  0 0.19437310E+04</rscale>
<asrwt>0</asrwt>
<pdfrwt beam="1">  1        2 0.19508321E+00 0.19437310E+04</pdfrwt>
<pdfrwt beam="2">  1       -2 0.98808964E-01 0.19437310E+04</pdfrwt>
<totfact> 0.13754063E+01</totfact>
</mgrwt>
</event>
<event>
 8    1  0.7583103E-052  0.1533894E+04  0.7818608E-02  0.8862221E-01
         -2   -1    0    0    0  501 -0.00000000000E+00  0.00000000000E+00  0.48144389977E+03  0.48144389978E+03  0.25500000000E-02 0. -1.
          2   -1    0    0  501    0  0.00000000000E+00 -0.00000000000E+00 -0.12217575353E+04  0.12217575353E+04  0.25500000000E-02 0.  1.
     200001    2    1    2    0    0  0.38224662712E+03 -0.25697553248E+03 -0.39696461915E+03  0.86307855400E+03  0.61251512086E+03 0.  0.
    5000001    2    3    3    0    0  0.38307659451E+03 -0.19738932949E+03 -0.42501799046E+02  0.48972068912E+03  0.22871319546E+03 0.  0.
        -13    1    4    4    0    0  0.14405083698E+03  0.35702992225E+02 -0.42991497459E+02  0.15451092940E+03  0.10566000000E+00 0. -1.
     200003    1    4    4    0    0  0.23902575753E+03 -0.23309232172E+03  0.48969841325E+00  0.33520975972E+03  0.30000000000E+02 0. -1.
     200000    1    3    3    0    0 -0.82996739021E+00 -0.59586202995E+02 -0.35446282010E+03  0.37335786488E+03  0.10100000000E+03 0.  1.
    -200001    1    1    2    0    0 -0.38224662712E+03  0.25697553248E+03 -0.34334901635E+03  0.84012288105E+03  0.61300000000E+03 0.  1.
<mgrwt>
<rscale>  0 0.15338940E+04</rscale>
<asrwt>0</asrwt>
<pdfrwt beam="1">  1        2 0.17453679E+00 0.15338940E+04</pdfrwt>
<pdfrwt beam="2">  1       -2 0.68777700E-01 0.15338940E+04</pdfrwt>
<totfact> 0.38743242E+01</totfact>
</mgrwt>
</event>
<event>
 8    1  0.7583103E-052  0.1673017E+04  0.7818608E-02  0.8776905E-01
          2   -1    0    0  501    0  0.00000000000E+00  0.00000000000E+00  0.30658488055E+04  0.30658488055E+04  0.25500000000E-02 0.  1.
         -2   -1    0    0    0  501 -0.00000000000E+00 -0.00000000000E+00 -0.22823915821E+03  0.22823915822E+03  0.25500000000E-02 0. -1.
     200001    2    1    2    0    0 -0.30561454717E+03 -0.47936431075E+03  0.13678684050E+04  0.16032010033E+04  0.61318764625E+03 0.  0.
    5000001    2    3    3    0    0 -0.20115000075E+03  0.84427210584E+02  0.24392819594E+03  0.33741416710E+03  0.82207534319E+02 0.  0.
        -13    1    4    4    0    0 -0.37394868804E+02  0.24742473299E+02  0.13278244423E+02  0.46764186477E+02  0.10566000000E+00 0. -1.
     200003    1    4    4    0    0 -0.16375513194E+03  0.59684737285E+02  0.23064995152E+03  0.29064998063E+03  0.30000000000E+02 0. -1.
     200000    1    3    3    0    0 -0.10446454642E+03 -0.56379152133E+03  0.11239402091E+04  0.12657868362E+04  0.10100000000E+03 0.  1.
    -200001    1    1    2    0    0  0.30561454717E+03  0.47936431075E+03  0.14697412423E+04  0.16908869605E+04  0.61300000000E+03 0.  1.
<mgrwt>
<rscale>  0 0.16730173E+04</rscale>
<asrwt>0</asrwt>
<pdfrwt beam="1">  1        2 0.43797837E+00 0.16730173E+04</pdfrwt>
<pdfrwt beam="2">  1       -2 0.32605596E-01 0.16730173E+04</pdfrwt>
<totfact> 0.18207978E+01</totfact>
</mgrwt>
</event>
<event>
 8    1  0.7583103E-052  0.1329464E+04  0.7818608E-02  0.9006521E-01
         -2   -1    0    0    0  501 -0.00000000000E+00  0.00000000000E+00  0.20937573006E+03  0.20937573008E+03  0.25500000000E-02 0. -1.
          2   -1    0    0  501    0  0.00000000000E+00 -0.00000000000E+00 -0.21104098565E+04  0.21104098565E+04  0.25500000000E-02 0.  1.
     200001    2    1    2    0    0 -0.14089813523E+03  0.21982188449E+02 -0.57474996736E+03  0.85174806262E+03  0.61221053249E+03 0.  0.
    5000001    2    3    3    0    0  0.49151599567E+02 -0.25653619002E+03 -0.30824744811E+03  0.41025516165E+03  0.71176624434E+02 0.  0.
        -13    1    4    4    0    0  0.45547093453E+02 -0.12991061144E+03 -0.18817776735E+03  0.23315700285E+03  0.10566000000E+00 0. -1.
     200003    1    4    4    0    0  0.36045061137E+01 -0.12662557858E+03 -0.12006968076E+03  0.17709815880E+03  0.30000000000E+02 0. -1.
     200000    1    3    3    0    0 -0.19004973480E+03  0.27851837847E+03 -0.26650251925E+03  0.44149290097E+03  0.10100000000E+03 0. -1.
    -200001    1    1    2    0    0  0.14089813523E+03 -0.21982188449E+02 -0.13262841591E+04  0.14680375240E+04  0.61300000000E+03 0.  1.
<mgrwt>
<rscale>  0 0.13294640E+04</rscale>
<asrwt>0</asrwt>
<pdfrwt beam="1">  1        2 0.30148711E+00 0.13294640E+04</pdfrwt>
<pdfrwt beam="2">  1       -2 0.29910820E-01 0.13294640E+04</pdfrwt>
<totfact> 0.71059656E+01</totfact>
</mgrwt>
</event>
<event>
 8    1  0.7583103E-052  0.2060518E+04  0.7818608E-02  0.8578838E-01
          2   -1    0    0  501    0  0.00000000000E+00  0.00000000000E+00  0.40065180084E+04  0.40065180084E+04  0.25500000000E-02 0.  1.
         -2   -1    0    0    0  501 -0.00000000000E+00 -0.00000000000E+00 -0.26492674520E+03  0.26492674521E+03  0.25500000000E-02 0. -1.
     200001    2    1    2    0    0  0.76434981654E+03  0.29830063909E+03  0.16331070439E+04  0.19273695380E+04  0.61196470970E+03 0.  0.
    5000001    2    3    3    0    0  0.20199606643E+03  0.14502202954E+03  0.92361180374E+02  0.27696507596E+03  0.79657176439E+02 0.  0.
        -13    1    4    4    0    0  0.47643127282E+02  0.50118233293E+01  0.22745956638E+01  0.47960096953E+02  0.10566000000E+00 0. -1.
     200003    1    4    4    0    0  0.15435293915E+03  0.14001020621E+03  0.90086584711E+02  0.22900497901E+03  0.30000000000E+02 0. -1.
     200000    1    3    3    0    0  0.56235375011E+03  0.15327860955E+03  0.15407458635E+04  0.16504044621E+04  0.10100000000E+03 0. -1.
    -200001    1    1    2    0    0 -0.76434981654E+03 -0.29830063909E+03  0.21084842193E+04  0.23440752156E+04  0.61300000000E+03 0.  1.
<mgrwt>
<rscale>  0 0.20605182E+04</rscale>
<asrwt>0</asrwt>
<pdfrwt beam="1">  1        2 0.57235971E+00 0.20605182E+04</pdfrwt>
<pdfrwt beam="2">  1       -2 0.37846678E-01 0.20605182E+04</pdfrwt>
<totfact> 0.34669407E+00</totfact>
</mgrwt>
</event>
<event>
 8    1  0.7583103E-052  0.1641982E+04  0.7818608E-02  0.8795164E-01
         -2   -1    0    0    0  501 -0.00000000000E+00  0.00000000000E+00  0.48217290131E+03  0.48217290131E+03  0.25500000000E-02 0. -1.
          2   -1    0    0  501    0  0.00000000000E+00 -0.00000000000E+00 -0.13978932002E+04  0.13978932002E+04  0.25500000000E-02 0.  1.
     200001    2    1    2    0    0 -0.39497556366E+03 -0.65376965443E+02 -0.33789714591E+02  0.73383296684E+03  0.61407591951E+03 0.  0.
    5000001    2    3    3    0    0 -0.45871232710E+03 -0.23684122719E+03 -0.11891717960E+02  0.52373087183E+03  0.87417659670E+02 0.  0.
        -13    1    4    4    0    0 -0.17809367036E+03 -0.13495507338E+03 -0.10115254350E+02  0.22367958510E+03  0.10566000000E+00 0. -1.
     200003    1    4    4    0    0 -0.28061865674E+03 -0.10188615381E+03 -0.17764636103E+01  0.30005128674E+03  0.30000000000E+02 0. -1.
     200000    1    3    3    0    0  0.63736763448E+02  0.17146426175E+03 -0.21897996631E+02  0.21010209501E+03  0.10100000000E+03 0. -1.
    -200001    1    1    2    0    0  0.39497556366E+03  0.65376965443E+02 -0.88193058433E+03  0.11462331347E+04  0.61300000000E+03 0.  1.
<mgrwt>
<rscale>  0 0.16419820E+04</rscale>
<asrwt>0</asrwt>
<pdfrwt beam="1">  1        2 0.19969903E+00 0.16419820E+04</pdfrwt>
<pdfrwt beam="2">  1       -2 0.68881844E-01 0.16419820E+04</pdfrwt>
<totfact> 0.30601326E+01</totfact>
</mgrwt>
</event>
<event>
 8    1  0.7583103E-052  0.1352720E+04  0.7818608E-02  0.8988772E-01
          2   -1    0    0  501    0  0.00000000000E+00  0.00000000000E+00  0.37593815975E+04  0.37593815975E+04  0.25500000000E-02 0.  1.
         -2   -1    0    0    0  501 -0.00000000000E+00 -0.00000000000E+00 -0.12168565738E+03  0.12168565740E+03  0.25500000000E-02 0. -1.
     200001    2    1    2    0    0 -0.28161854726E+03 -0.10859701598E+02  0.19650586391E+04  0.20774842986E+04  0.61242029424E+03 0.  0.
    5000001    2    3    3    0    0 -0.12216665096E+02  0.23062599092E+03  0.40556312433E+03  0.47338954635E+03  0.79237744690E+02 0.  0.
        -13    1    4    4    0    0 -0.17227996969E+02  0.11088901340E+03  0.25520710796E+03  0.27878998599E+03  0.10566000000E+00 0. -1.
     200003    1    4    4    0    0  0.50113318735E+01  0.11973697752E+03  0.15035601637E+03  0.19459956036E+03  0.30000000000E+02 0. -1.
     200000    1    3    3    0    0 -0.26940188217E+03 -0.24148569252E+03  0.15594955147E+04  0.16040947523E+04  0.10100000000E+03 0.  1.
    -200001    1    1    2    0    0  0.28161854726E+03  0.10859701598E+02  0.16726373011E+04  0.18035829563E+04  0.61300000000E+03 0.  1.
<mgrwt>
<rscale>  0 0.13527200E+04</rscale>
<asrwt>0</asrwt>
<pdfrwt beam="1">  1        2 0.53705447E+00 0.13527200E+04</pdfrwt>
<pdfrwt beam="2">  1       -2 0.17383667E-01 0.13527200E+04</pdfrwt>
<totfact> 0.22433238E+01</totfact>
</mgrwt>
</event>
<event>
 8    1  0.7583103E-052  0.2524836E+04  0.7818608E-02  0.8394190E-01
          2   -1    0    0  501    0  0.00000000000E+00  0.00000000000E+00  0.13774435364E+04  0.13774435364E+04  0.25500000000E-02 0.  1.
         -2   -1    0    0    0  501 -0.00000000000E+00 -0.00000000000E+00 -0.11569982445E+04  0.11569982445E+04  0.25500000000E-02 0. -1.
     200001    2    1    2    0    0 -0.87796978127E+02 -0.89344954707E+03  0.75450636347E+03  0.13232644071E+04  0.61301585309E+03 0.  0.
    5000001    2    3    3    0    0 -0.96492561130E+02 -0.85810862683E+03  0.40481651524E+03  0.95746585087E+03  0.84871754908E+02 0.  0.
        -13    1    4    4    0    0 -0.60408324398E+02 -0.69577755028E+03  0.33592026305E+03  0.77498258008E+03  0.10566000000E+00 0. -1.
     200003    1    4    4    0    0 -0.36084236732E+02 -0.16233107655E+03  0.68896252191E+02  0.18248327080E+03  0.30000000000E+02 0.  1.
     200000    1    3    3    0    0  0.86955830029E+01 -0.35340920233E+02  0.34968984823E+03  0.36579855626E+03  0.10100000000E+03 0. -1.
    -200001    1    1    2    0    0  0.87796978127E+02  0.89344954707E+03 -0.53406107152E+03  0.12111773737E+04  0.61300000000E+03 0. -1.
<mgrwt>
<rscale>  0 0.25248364E+04</rscale>
<asrwt>0</asrwt>
<pdfrwt beam="1">  1        2 0.19677765E+00 0.25248364E+04</pdfrwt>
<pdfrwt beam="2">  1       -2 0.16528546E+00 0.25248364E+04</pdfrwt>
<totfact> 0.35117771E+00</totfact>
</mgrwt>
</event>
<event>
 8    1  0.7583103E-052  0.1415180E+04  0.7818608E-02  0.8942904E-01
         -2   -1    0    0    0  501 -0.00000000000E+00  0.00000000000E+00  0.49592401873E+03  0.49592401874E+03  0.25500000000E-02 0. -1.
          2   -1    0    0  501    0  0.00000000000E+00 -0.00000000000E+00 -0.10095968414E+04  0.10095968414E+04  0.25500000000E-02 0.  1.
     200001    2    1    2    0    0 -0.89162033261E+02 -0.31112699350E+03 -0.10724257769E+03  0.70196350794E+03  0.61359752423E+03 0.  0.
    5000001    2    3    3    0    0 -0.13278284430E+03 -0.11933928494E+03 -0.33183285715E+03  0.38680149574E+03  0.87345310983E+02 0.  0.
        -13    1    4    4    0    0 -0.99295241621E+02 -0.39053628880E+02 -0.17453786593E+03  0.20456834737E+03  0.10566000000E+00 0. -1.
     200003    1    4    4    0    0 -0.33487602680E+02 -0.80285656063E+02 -0.15729499122E+03  0.18223314837E+03  0.30000000000E+02 0.  1.
     200000    1    3    3    0    0  0.43620811040E+02 -0.19178770856E+03  0.22459027945E+03  0.31516201220E+03  0.10100000000E+03 0. -1.
    -200001    1    1    2    0    0  0.89162033261E+02  0.31112699350E+03 -0.40643024500E+03  0.80355735222E+03  0.61300000000E+03 0.  1.
<mgrwt>
<rscale>  0 0.14151796E+04</rscale>
<asrwt>0</asrwt>
<pdfrwt beam="1">  1        2 0.14422812E+00 0.14151796E+04</pdfrwt>
<pdfrwt beam="2">  1       -2 0.70846289E-01 0.14151796E+04</pdfrwt>
<totfact> 0.48850276E+01</totfact>
</mgrwt>
</event>
<event>
 8    1  0.7583103E-052  0.1493528E+04  0.7818608E-02  0.8888768E-01
         -2   -1    0    0    0  501 -0.00000000000E+00  0.00000000000E+00  0.43422947083E+03  0.43422947084E+03  0.25500000000E-02 0. -1.
          2   -1    0    0  501    0  0.00000000000E+00 -0.00000000000E+00 -0.12842429575E+04  0.12842429575E+04  0.25500000000E-02 0.  1.
     200001    2    1    2    0    0 -0.31505780512E+03  0.28753412558E+03 -0.40222139720E+03  0.84771181296E+03  0.61228749091E+03 0.  0.
    5000001    2    3    3    0    0 -0.34107162726E+02  0.27380799063E+03 -0.46143898755E+03  0.54303264851E+03  0.76317781919E+02 0.  0.
        -13    1    4    4    0    0 -0.11852119355E+02  0.15555214140E+02 -0.69323262947E+02  0.72028906488E+02  0.10566000000E+00 0. -1.
     200003    1    4    4    0    0 -0.22255043371E+02  0.25825277649E+03 -0.39211572460E+03  0.47100374202E+03  0.30000000000E+02 0. -1.
     200000    1    3    3    0    0 -0.28095064240E+03  0.13726134944E+02  0.59217590348E+02  0.30467916445E+03  0.10100000000E+03 0. -1.
    -200001    1    1    2    0    0  0.31505780512E+03 -0.28753412558E+03 -0.44779208950E+03  0.87076061541E+03  0.61300000000E+03 0.  1.
<mgrwt>
<rscale>  0 0.14935276E+04</rscale>
<asrwt>0</asrwt>
<pdfrwt beam="1">  1        2 0.18346328E+00 0.14935276E+04</pdfrwt>
<pdfrwt beam="2">  1       -2 0.62032782E-01 0.14935276E+04</pdfrwt>
<totfact> 0.44753048E+01</totfact>
</mgrwt>
</event>
<event>
 8    1  0.7583103E-052  0.1394624E+04  0.7818608E-02  0.8957719E-01
          2   -1    0    0  501    0  0.00000000000E+00  0.00000000000E+00  0.74466478230E+03  0.74466478230E+03  0.25500000000E-02 0.  1.
         -2   -1    0    0    0  501 -0.00000000000E+00 -0.00000000000E+00 -0.65297069952E+03  0.65297069953E+03  0.25500000000E-02 0. -1.
     200001    2    1    2    0    0  0.16208559953E+03  0.11355452493E+03 -0.22194809810E+03  0.68118116414E+03  0.61284618660E+03 0.  0.
    5000001    2    3    3    0    0  0.14532389760E+03 -0.70986534696E+02  0.15252125691E+03  0.25133857066E+03  0.11726133194E+03 0.  0.
        -13    1    4    4    0    0  0.21946131574E+02 -0.12523848668E+02  0.98151346837E+02  0.10135175147E+03  0.10566000000E+00 0. -1.
     200003    1    4    4    0    0  0.12337776603E+03 -0.58462686029E+02  0.54369910068E+02  0.14998681918E+03  0.30000000000E+02 0. -1.
     200000    1    3    3    0    0  0.16761701929E+02  0.18454105963E+03 -0.37446935500E+03  0.42984259349E+03  0.10100000000E+03 0. -1.
    -200001    1    1    2    0    0 -0.16208559953E+03 -0.11355452493E+03  0.31364218087E+03  0.71645431769E+03  0.61300000000E+03 0.  1.
<mgrwt>
<rscale>  0 0.13946244E+04</rscale>
<asrwt>0</asrwt>
<pdfrwt beam="1">  1        2 0.10638068E+00 0.13946244E+04</pdfrwt>
<pdfrwt beam="2">  1       -2 0.93281528E-01 0.13946244E+04</pdfrwt>
<totfact> 0.39523856E+01</totfact>
</mgrwt>
</event>
<event>
 8    1  0.7583103E-052  0.1444820E+04  0.7818608E-02  0.8922000E-01
         -2   -1    0    0    0  501 -0.00000000000E+00  0.00000000000E+00  0.48752072505E+03  0.48752072505E+03  0.25500000000E-02 0. -1.
          2   -1    0    0  501    0  0.00000000000E+00 -0.00000000000E+00 -0.10704698497E+04  0.10704698498E+04  0.25500000000E-02 0.  1.
     200001    2    1    2    0    0  0.18216319820E+03 -0.33568969401E+03 -0.27462276993E+03  0.77268481111E+03  0.61298707174E+03 0.  0.
    5000001    2    3    3    0    0 -0.79994348801E+02  0.67250820934E+02 -0.25026598840E+03  0.28086991622E+03  0.73027913382E+02 0.  0.
        -13    1    4    4    0    0 -0.45928171564E+01  0.35997176648E+02 -0.44080868574E+02  0.57096627171E+02  0.10566000000E+00 0. -1.
     200003    1    4    4    0    0 -0.75401531645E+02  0.31253644286E+02 -0.20618511982E+03  0.22377328905E+03  0.30000000000E+02 0. -1.
     200000    1    3    3    0    0  0.26215754700E+03 -0.40294051494E+03 -0.24356781531E+02  0.49181489489E+03  0.10100000000E+03 0. -1.
    -200001    1    1    2    0    0 -0.18216319820E+03  0.33568969401E+03 -0.30832635478E+03  0.78530576369E+03  0.61300000000E+03 0.  1.
<mgrwt>
<rscale>  0 0.14448200E+04</rscale>
<asrwt>0</asrwt>
<pdfrwt beam="1">  1        2 0.15292426E+00 0.14448200E+04</pdfrwt>
<pdfrwt beam="2">  1       -2 0.69645818E-01 0.14448200E+04</pdfrwt>
<totfact> 0.46472292E+01</totfact>
</mgrwt>
</event>
<event>
 8    1  0.7583103E-052  0.1597183E+04  0.7818608E-02  0.8822280E-01
         -2   -1    0    0    0  501 -0.00000000000E+00  0.00000000000E+00  0.31397781601E+03  0.31397781602E+03  0.25500000000E-02 0. -1.
          2   -1    0    0  501    0  0.00000000000E+00 -0.00000000000E+00 -0.20311892411E+04  0.20311892411E+04  0.25500000000E-02 0.  1.
     200001    2    1    2    0    0 -0.30915404784E+03  0.40820266654E+03 -0.85233204733E+03  0.11678858756E+04  0.61260252797E+03 0.  0.
    5000001    2    3    3    0    0  0.12746232573E+03 -0.36182810723E+01 -0.57640041609E+02  0.16690299138E+03  0.90964266037E+02 0.  0.
        -13    1    4    4    0    0  0.30222570041E+02 -0.75147970041E+01 -0.57127419787E+02  0.65064807458E+02  0.10566000000E+00 0. -1.
     200003    1    4    4    0    0  0.97239755693E+02  0.38965159318E+01 -0.51262182126E+00  0.10183818392E+03  0.30000000000E+02 0. -1.
     200000    1    3    3    0    0 -0.43661637357E+03  0.41182094761E+03 -0.79469200572E+03  0.10009828842E+04  0.10100000000E+03 0. -1.
    -200001    1    1    2    0    0  0.30915404784E+03 -0.40820266654E+03 -0.86487937778E+03  0.11772811815E+04  0.61300000000E+03 0. -1.
<mgrwt>
<rscale>  0 0.15971830E+04</rscale>
<asrwt>0</asrwt>
<pdfrwt beam="1">  1        2 0.29016988E+00 0.15971830E+04</pdfrwt>
<pdfrwt beam="2">  1       -2 0.44853975E-01 0.15971830E+04</pdfrwt>
<totfact> 0.35019519E+01</totfact>
</mgrwt>
</event>
<event>
 8    1  0.7583103E-052  0.1464241E+04  0.7818608E-02  0.8908587E-01
          2   -1    0    0  501    0  0.00000000000E+00  0.00000000000E+00  0.23045449992E+04  0.23045449992E+04  0.25500000000E-02 0.  1.
         -2   -1    0    0    0  501 -0.00000000000E+00 -0.00000000000E+00 -0.23258391946E+03  0.23258391947E+03  0.25500000000E-02 0. -1.
     200001    2    1    2    0    0  0.38496942095E+03  0.10510570911E+03  0.99352883860E+03  0.12340426729E+04  0.61360663318E+03 0.  0.
    5000001    2    3    3    0    0  0.28385282431E+03  0.12962967690E+03  0.24024666921E+03  0.46693054432E+03  0.25085731432E+03 0.  0.
        -13    1    4    4    0    0  0.10388864377E+03  0.43518544481E+02 -0.41812573223E+02  0.12014581333E+03  0.10566000000E+00 0. -1.
     200003    1    4    4    0    0  0.17996418054E+03  0.86111132417E+02  0.28205924243E+03  0.34678473099E+03  0.30000000000E+02 0. -1.
     200000    1    3    3    0    0  0.10111659664E+03 -0.24523967792E+02  0.75328216939E+03  0.76711212859E+03  0.10100000000E+03 0.  1.
    -200001    1    1    2    0    0 -0.38496942095E+03 -0.10510570911E+03  0.10784322411E+04  0.13030862458E+04  0.61300000000E+03 0. -1.
<mgrwt>
<rscale>  0 0.14642406E+04</rscale>
<asrwt>0</asrwt>
<pdfrwt beam="1">  1        2 0.32922073E+00 0.14642406E+04</pdfrwt>
<pdfrwt beam="2">  1       -2 0.33226273E-01 0.14642406E+04</pdfrwt>
<totfact> 0.45839070E+01</totfact>
</mgrwt>
</event>
<event>
 8    1  0.7583103E-052  0.1456863E+04  0.7818608E-02  0.8913656E-01
          2   -1    0    0  501    0  0.00000000000E+00  0.00000000000E+00  0.23960010559E+03  0.23960010560E+03  0.25500000000E-02 0.  1.
         -2   -1    0    0    0  501 -0.00000000000E+00 -0.00000000000E+00 -0.22145745434E+04  0.22145745434E+04  0.25500000000E-02 0. -1.
     200001    2    1    2    0    0  0.32222958042E+03 -0.16334514979E+03 -0.71726380225E+03  0.10091422676E+04  0.61105418239E+03 0.  0.
    5000001    2    3    3    0    0  0.18546492435E+03  0.24136265446E+02 -0.72209515407E+03  0.75600555718E+03  0.12305768354E+03 0.  0.
        -13    1    4    4    0    0  0.32656197482E+02 -0.42611029812E+02 -0.14824740063E+03  0.15766873518E+03  0.10566000000E+00 0. -1.
     200003    1    4    4    0    0  0.15280872687E+03  0.66747295258E+02 -0.57384775343E+03  0.59833682199E+03  0.30000000000E+02 0. -1.
     200000    1    3    3    0    0  0.13676465607E+03 -0.18748141524E+03  0.48313518206E+01  0.25313671044E+03  0.10100000000E+03 0.  1.
    -200001    1    1    2    0    0 -0.32222958042E+03  0.16334514979E+03 -0.12577106356E+04  0.14450323814E+04  0.61300000000E+03 0. -1.
<mgrwt>
<rscale>  0 0.14568628E+04</rscale>
<asrwt>0</asrwt>
<pdfrwt beam="1">  1        2 0.34228588E-01 0.14568628E+04</pdfrwt>
<pdfrwt beam="2">  1       -2 0.31636778E+00 0.14568628E+04</pdfrwt>
<totfact> 0.37767725E+00</totfact>
</mgrwt>
</event>
<event>
 8    1  0.7583103E-052  0.1463178E+04  0.7818608E-02  0.8909315E-01
          2   -1    0    0  501    0  0.00000000000E+00  0.00000000000E+00  0.15164892387E+04  0.15164892387E+04  0.25500000000E-02 0.  1.
         -2   -1    0    0    0  501 -0.00000000000E+00 -0.00000000000E+00 -0.35293536623E+03  0.35293536624E+03  0.25500000000E-02 0. -1.
     200001    2    1    2    0    0 -0.12170279820E+03  0.37954400041E+03  0.54268981221E+03  0.91020283671E+03  0.61244734659E+03 0.  0.
    5000001    2    3    3    0    0 -0.18297173309E+03  0.15575223718E+03  0.59982723451E+03  0.65077592850E+03  0.77325179397E+02 0.  0.
        -13    1    4    4    0    0 -0.31707030190E+02 -0.18627536296E+01  0.68289145359E+02  0.75314169666E+02  0.10566000000E+00 0. -1.
     200003    1    4    4    0    0 -0.15126470290E+03  0.15761499081E+03  0.53153808915E+03  0.57546175884E+03  0.30000000000E+02 0. -1.
     200000    1    3    3    0    0  0.61268934893E+02  0.22379176323E+03 -0.57137422301E+02  0.25942690821E+03  0.10100000000E+03 0. -1.
    -200001    1    1    2    0    0  0.12170279820E+03 -0.37954400041E+03  0.62086406028E+03  0.95922176825E+03  0.61300000000E+03 0.  1.
<mgrwt>
<rscale>  0 0.14631783E+04</rscale>
<asrwt>0</asrwt>
<pdfrwt beam="1">  1        2 0.21664132E+00 0.14631783E+04</pdfrwt>
<pdfrwt beam="2">  1       -2 0.50419337E-01 0.14631783E+04</pdfrwt>
<totfact> 0.51690306E+01</totfact>
</mgrwt>
</event>
<event>
 8    1  0.7583103E-052  0.2424823E+04  0.7818608E-02  0.8430268E-01
         -2   -1    0    0    0  501 -0.00000000000E+00  0.00000000000E+00  0.79818401381E+03  0.79818401381E+03  0.25500000000E-02 0. -1.
          2   -1    0    0  501    0  0.00000000000E+00 -0.00000000000E+00 -0.18416068123E+04  0.18416068123E+04  0.25500000000E-02 0.  1.
     200001    2    1    2    0    0  0.58346138581E+03  0.85006691246E+02 -0.14620488607E+04  0.16918087027E+04  0.61398411160E+03 0.  0.
    5000001    2    3    3    0    0  0.31852033244E+02  0.41554363553E+02 -0.30453653958E+02  0.15368425440E+03  0.14124485073E+03 0.  0.
        -13    1    4    4    0    0  0.11583663230E+02 -0.37447756609E+02  0.28680094237E+02  0.48570306756E+02  0.10566000000E+00 0. -1.
     200003    1    4    4    0    0  0.20268370014E+02  0.79002120162E+02 -0.59133748195E+02  0.10511394764E+03  0.30000000000E+02 0. -1.
     200000    1    3    3    0    0  0.55160935257E+03  0.43452327693E+02 -0.14315952067E+04  0.15381244483E+04  0.10100000000E+03 0.  1.
    -200001    1    1    2    0    0 -0.58346138581E+03 -0.85006691246E+02  0.41862606220E+03  0.94798212338E+03  0.61300000000E+03 0. -1.
<mgrwt>
<rscale>  0 0.24248226E+04</rscale>
<asrwt>0</asrwt>
<pdfrwt beam="1">  1        2 0.26308669E+00 0.24248226E+04</pdfrwt>
<pdfrwt beam="2">  1       -2 0.11402629E+00 0.24248226E+04</pdfrwt>
<totfact> 0.52630025E+00</totfact>
</mgrwt>
</event>
<event>
 8    1  0.7583103E-052  0.1859031E+04  0.7818608E-02  0.8675523E-01
          2   -1    0    0  501    0  0.00000000000E+00  0.00000000000E+00  0.13664732656E+04  0.13664732656E+04  0.25500000000E-02 0.  1.
         -2   -1    0    0    0  501 -0.00000000000E+00 -0.00000000000E+00 -0.63228361321E+03  0.63228361321E+03  0.25500000000E-02 0. -1.
     200001    2    1    2    0    0 -0.16061060947E+03 -0.53912211447E+03  0.81280174013E+03  0.11630552081E+04  0.61286403552E+03 0.  0.
    5000001    2    3    3    0    0 -0.35060533783E+03 -0.20170104221E+03  0.27665534516E+03  0.49402237355E+03  0.62550077654E+02 0.  0.
        -13    1    4    4    0    0 -0.40468150597E+02 -0.49102116802E+01  0.27784551190E+02  0.49333293426E+02  0.10566000000E+00 0. -1.
     200003    1    4    4    0    0 -0.31013718724E+03 -0.19679083053E+03  0.24887079397E+03  0.44468908012E+03  0.30000000000E+02 0. -1.
     200000    1    3    3    0    0  0.18999472836E+03 -0.33742107226E+03  0.53614639496E+03  0.66903283450E+03  0.10100000000E+03 0.  1.
    -200001    1    1    2    0    0  0.16061060947E+03  0.53912211447E+03 -0.78612087730E+02  0.83570167077E+03  0.61300000000E+03 0. -1.
<mgrwt>
<rscale>  0 0.18590306E+04</rscale>
<asrwt>0</asrwt>
<pdfrwt beam="1">  1        2 0.19521047E+00 0.18590306E+04</pdfrwt>
<pdfrwt beam="2">  1       -2 0.90326231E-01 0.18590306E+04</pdfrwt>
<totfact> 0.17052183E+01</totfact>
</mgrwt>
</event>
<event>
 8    1  0.7583103E-052  0.2340777E+04  0.7818608E-02  0.8462015E-01
         -2   -1    0    0    0  501 -0.00000000000E+00  0.00000000000E+00  0.62344074456E+03  0.62344074457E+03  0.25500000000E-02 0. -1.
          2   -1    0    0  501    0  0.00000000000E+00 -0.00000000000E+00 -0.21971769925E+04  0.21971769925E+04  0.25500000000E-02 0.  1.
     200001    2    1    2    0    0  0.24742796316E+01 -0.51126464711E+03 -0.18186140112E+04  0.19856735591E+04  0.61167385114E+03 0.  0.
    5000001    2    3    3    0    0  0.70327828114E+02 -0.10473853175E+03 -0.13309893633E+04  0.13392631757E+04  0.78593925853E+02 0.  0.
        -13    1    4    4    0    0  0.11044508474E+02 -0.38182164477E+02 -0.71823716274E+03  0.71933614671E+03  0.10566000000E+00 0. -1.
     200003    1    4    4    0    0  0.59283319640E+02 -0.66556367269E+02 -0.61275220055E+03  0.61992702901E+03  0.30000000000E+02 0. -1.
     200000    1    3    3    0    0 -0.67853548483E+02 -0.40652611537E+03 -0.48762464790E+03  0.64641038339E+03  0.10100000000E+03 0. -1.
    -200001    1    1    2    0    0 -0.24742796316E+01  0.51126464711E+03  0.24487776322E+03  0.83494417800E+03  0.61300000000E+03 0. -1.
<mgrwt>
<rscale>  0 0.23407774E+04</rscale>
<asrwt>0</asrwt>
<pdfrwt beam="1">  1        2 0.31388242E+00 0.23407774E+04</pdfrwt>
<pdfrwt beam="2">  1       -2 0.89062965E-01 0.23407774E+04</pdfrwt>
<totfact> 0.62395962E+00</totfact>
</mgrwt>
</event>
<event>
 8    1  0.7583103E-052  0.1575504E+04  0.7818608E-02  0.8835740E-01
         -2   -1    0    0    0  501 -0.00000000000E+00  0.00000000000E+00  0.12332596558E+03  0.12332596561E+03  0.25500000000E-02 0. -1.
          2   -1    0    0  501    0  0.00000000000E+00 -0.00000000000E+00 -0.50318143853E+04  0.50318143853E+04  0.25500000000E-02 0.  1.
     200001    2    1    2    0    0 -0.73437877970E+02  0.44404493915E+03 -0.17808843268E+04  0.19364068434E+04  0.61282415754E+03 0.  0.
    5000001    2    3    3    0    0 -0.22819620755E+03  0.44491411085E+03 -0.15985653816E+04  0.16768069710E+04  0.79045957051E+02 0.  0.
        -13    1    4    4    0    0 -0.18806595542E+03  0.32879751646E+03 -0.11516164155E+04  0.12123105997E+04  0.10566000000E+00 0. -1.
     200003    1    4    4    0    0 -0.40130252130E+02  0.11611659439E+03 -0.44694896611E+03  0.46449637128E+03  0.30000000000E+02 0. -1.
     200000    1    3    3    0    0  0.15475832958E+03 -0.86917170241E+00 -0.18231894515E+03  0.25959987248E+03  0.10100000000E+03 0. -1.
    -200001    1    1    2    0    0  0.73437877970E+02 -0.44404493915E+03 -0.31276040929E+04  0.32187335075E+04  0.61300000000E+03 0.  1.
<mgrwt>
<rscale>  0 0.15755042E+04</rscale>
<asrwt>0</asrwt>
<pdfrwt beam="1">  1        2 0.71883050E+00 0.15755042E+04</pdfrwt>
<pdfrwt beam="2">  1       -2 0.17617998E-01 0.15755042E+04</pdfrwt>
<totfact> 0.21861727E+00</totfact>
</mgrwt>
</event>
<event>
 8    1  0.7583103E-052  0.1362263E+04  0.7818608E-02  0.8981596E-01
          2   -1    0    0  501    0  0.00000000000E+00  0.00000000000E+00  0.53445035224E+04  0.53445035224E+04  0.25500000000E-02 0.  1.
         -2   -1    0    0    0  501 -0.00000000000E+00 -0.00000000000E+00 -0.86807016346E+02  0.86807016384E+02  0.25500000000E-02 0. -1.
     200001    2    1    2    0    0  0.10493621067E+03 -0.42180177307E+02  0.37239181165E+04  0.37757031204E+04  0.61284348658E+03 0.  0.
    5000001    2    3    3    0    0  0.32147042170E+03 -0.49406822999E+02  0.26914924148E+04  0.27159658329E+04  0.16295619118E+03 0.  0.
        -13    1    4    4    0    0  0.13960377535E+03  0.21880763094E+02  0.16389402409E+04  0.16450207009E+04  0.10566000000E+00 0. -1.
     200003    1    4    4    0    0  0.18186664636E+03 -0.71287586093E+02  0.10525521739E+04  0.10709451320E+04  0.30000000000E+02 0. -1.
     200000    1    3    3    0    0 -0.21653421103E+03  0.72266456923E+01  0.10324257017E+04  0.10597372875E+04  0.10100000000E+03 0. -1.
    -200001    1    1    2    0    0 -0.10493621067E+03  0.42180177307E+02  0.15337783895E+04  0.16556074184E+04  0.61300000000E+03 0. -1.
<mgrwt>
<rscale>  0 0.13622634E+04</rscale>
<asrwt>0</asrwt>
<pdfrwt beam="1">  1        2 0.76350046E+00 0.13622634E+04</pdfrwt>
<pdfrwt beam="2">  1       -2 0.12401003E-01 0.13622634E+04</pdfrwt>
<totfact> 0.19213410E+00</totfact>
</mgrwt>
</event>
<event>
 8    1  0.7583103E-052  0.1273588E+04  0.7818608E-02  0.9050776E-01
          2   -1    0    0  501    0  0.00000000000E+00  0.00000000000E+00  0.21727057436E+04  0.21727057436E+04  0.25500000000E-02 0.  1.
         -2   -1    0    0    0  501 -0.00000000000E+00 -0.00000000000E+00 -0.18663666759E+03  0.18663666761E+03  0.25500000000E-02 0. -1.
     200001    2    1    2    0    0  0.32272380557E+02  0.10105182199E+03  0.74437116280E+03  0.97051712164E+03  0.61364654168E+03 0.  0.
    5000001    2    3    3    0    0  0.31092319674E+02 -0.24372386794E+03  0.26972892634E+03  0.37523742138E+03  0.87643439874E+02 0.  0.
        -13    1    4    4    0    0 -0.18712743843E+02 -0.12222540365E+03  0.10322045825E+03  0.16107045119E+03  0.10566000000E+00 0. -1.
     200003    1    4    4    0    0  0.49805063517E+02 -0.12149846429E+03  0.16650846809E+03  0.21416697019E+03  0.30000000000E+02 0. -1.
     200000    1    3    3    0    0  0.11800608832E+01  0.34477568993E+03  0.47464223646E+03  0.59527970026E+03  0.10100000000E+03 0. -1.
    -200001    1    1    2    0    0 -0.32272380557E+02 -0.10105182199E+03  0.12416979132E+04  0.13888252896E+04  0.61300000000E+03 0.  1.
<mgrwt>
<rscale>  0 0.12735879E+04</rscale>
<asrwt>0</asrwt>
<pdfrwt beam="1">  1        2 0.31038654E+00 0.12735879E+04</pdfrwt>
<pdfrwt beam="2">  1       -2 0.26662381E-01 0.12735879E+04</pdfrwt>
<totfact> 0.81959618E+01</totfact>
</mgrwt>
</event>
<event>
 8    1  0.7583103E-052  0.1353645E+04  0.7818608E-02  0.8988073E-01
         -2   -1    0    0    0  501 -0.00000000000E+00  0.00000000000E+00  0.17498860113E+03  0.17498860115E+03  0.25500000000E-02 0. -1.
          2   -1    0    0  501    0  0.00000000000E+00 -0.00000000000E+00 -0.26178209079E+04  0.26178209079E+04  0.25500000000E-02 0.  1.
     200001    2    1    2    0    0  0.23616976313E+03  0.15624735548E+03 -0.13112935795E+04  0.14751076139E+04  0.61340217469E+03 0.  0.
    5000001    2    3    3    0    0  0.42125752176E+02  0.22118996974E+03 -0.11955237279E+04  0.12192281894E+04  0.80875287976E+02 0.  0.
        -13    1    4    4    0    0  0.36279530909E+02  0.18898205878E+03 -0.89601011312E+03  0.91644124573E+03  0.10566000000E+00 0. -1.
     200003    1    4    4    0    0  0.58462212668E+01  0.32207910966E+02 -0.29951361479E+03  0.30278694370E+03  0.30000000000E+02 0.  1.
     200000    1    3    3    0    0  0.19404401095E+03 -0.64942614262E+02 -0.11576985156E+03  0.25587942446E+03  0.10100000000E+03 0. -1.
    -200001    1    1    2    0    0 -0.23616976313E+03 -0.15624735548E+03 -0.11315387273E+04  0.13177018951E+04  0.61300000000E+03 0.  1.
<mgrwt>
<rscale>  0 0.13536452E+04</rscale>
<asrwt>0</asrwt>
<pdfrwt beam="1">  1        2 0.37397439E+00 0.13536452E+04</pdfrwt>
<pdfrwt beam="2">  1       -2 0.24998373E-01 0.13536452E+04</pdfrwt>
<totfact> 0.53704902E+01</totfact>
</mgrwt>
</event>
<event>
 8    1  0.7583103E-052  0.1492958E+04  0.7818608E-02  0.8889149E-01
          2   -1    0    0  501    0  0.00000000000E+00  0.00000000000E+00  0.27685693066E+04  0.27685693066E+04  0.25500000000E-02 0.  1.
         -2   -1    0    0    0  501 -0.00000000000E+00 -0.00000000000E+00 -0.20127039688E+03  0.20127039690E+03  0.25500000000E-02 0. -1.
     200001    2    1    2    0    0 -0.38987376440E+03  0.12454355932E+02  0.16190235462E+04  0.17752051032E+04  0.61478390691E+03 0.  0.
    5000001    2    3    3    0    0 -0.37087415072E+03 -0.11442521713E+03  0.15468068490E+04  0.15966675365E+04  0.78070660142E+02 0.  0.
        -13    1    4    4    0    0 -0.16295782648E+03 -0.16823671448E+02  0.60406049144E+03  0.62588128077E+03  0.10566000000E+00 0. -1.
     200003    1    4    4    0    0 -0.20791632424E+03 -0.97601545678E+02  0.94274635754E+03  0.97078625570E+03  0.30000000000E+02 0. -1.
     200000    1    3    3    0    0 -0.18999613679E+02  0.12687957306E+03  0.72216697196E+02  0.17853756673E+03  0.10100000000E+03 0. -1.
    -200001    1    1    2    0    0  0.38987376440E+03 -0.12454355932E+02  0.94827536353E+03  0.11946346003E+04  0.61300000000E+03 0. -1.
<mgrwt>
<rscale>  0 0.14929582E+04</rscale>
<asrwt>0</asrwt>
<pdfrwt beam="1">  1        2 0.39550985E+00 0.14929582E+04</pdfrwt>
<pdfrwt beam="2">  1       -2 0.28752918E-01 0.14929582E+04</pdfrwt>
<totfact> 0.34116884E+01</totfact>
</mgrwt>
</event>
<event>
 8    1  0.7583103E-052  0.1920068E+04  0.7818608E-02  0.8644931E-01
          2   -1    0    0  501    0  0.00000000000E+00  0.00000000000E+00  0.27084577782E+04  0.27084577782E+04  0.25500000000E-02 0.  1.
         -2   -1    0    0    0  501 -0.00000000000E+00 -0.00000000000E+00 -0.34029146020E+03  0.34029146021E+03  0.25500000000E-02 0. -1.
     200001    2    1    2    0    0  0.38688182311E+03 -0.47540799247E+01  0.21834175718E+04  0.23006842375E+04  0.61329888424E+03 0.  0.
    5000001    2    3    3    0    0  0.48933950170E+03  0.73181828827E+02  0.19663744201E+04  0.20288749082E+04  0.69973603416E+02 0.  0.
        -13    1    4    4    0    0  0.23966789108E+03  0.59622967426E+02  0.91281331076E+03  0.94563404535E+03  0.10566000000E+00 0. -1.
     200003    1    4    4    0    0  0.24967161062E+03  0.13558861401E+02  0.10535611094E+04  0.10832408629E+04  0.30000000000E+02 0. -1.
     200000    1    3    3    0    0 -0.10245767859E+03 -0.77935908752E+02  0.21704315172E+03  0.27180932928E+03  0.10100000000E+03 0. -1.
    -200001    1    1    2    0    0 -0.38688182311E+03  0.47540799247E+01  0.18474874612E+03  0.74806500087E+03  0.61300000000E+03 0. -1.
<mgrwt>
<rscale>  0 0.19200678E+04</rscale>
<asrwt>0</asrwt>
<pdfrwt beam="1">  1        2 0.38692254E+00 0.19200678E+04</pdfrwt>
<pdfrwt beam="2">  1       -2 0.48613066E-01 0.19200678E+04</pdfrwt>
<totfact> 0.12834276E+01</totfact>
</mgrwt>
</event>
<event>
 8    1  0.7583103E-052  0.1249070E+04  0.7818608E-02  0.9070958E-01
         -2   -1    0    0    0  501 -0.00000000000E+00  0.00000000000E+00  0.19116939158E+03  0.19116939160E+03  0.25500000000E-02 0. -1.
          2   -1    0    0  501    0  0.00000000000E+00 -0.00000000000E+00 -0.20403040044E+04  0.20403040044E+04  0.25500000000E-02 0.  1.
     200001    2    1    2    0    0  0.72649915362E+02 -0.27704089095E+02 -0.76450994152E+03  0.98318448538E+03  0.61329499824E+03 0.  0.
    5000001    2    3    3    0    0  0.38838414968E+02  0.27651322079E+03 -0.30748398246E+03  0.42393041392E+03  0.84868207414E+02 0.  0.
        -13    1    4    4    0    0 -0.49079973662E+01  0.18524637005E+03 -0.21219425539E+03  0.28172099538E+03  0.10566000000E+00 0. -1.
     200003    1    4    4    0    0  0.43746412334E+02  0.91266850746E+02 -0.95289727065E+02  0.14220941854E+03  0.30000000000E+02 0. -1.
     200000    1    3    3    0    0  0.33811500394E+02 -0.30421730989E+03 -0.45702595906E+03  0.55925407146E+03  0.10100000000E+03 0. -1.
    -200001    1    1    2    0    0 -0.72649915362E+02  0.27704089095E+02 -0.10846246713E+04  0.12482889106E+04  0.61300000000E+03 0.  1.
<mgrwt>
<rscale>  0 0.12490695E+04</rscale>
<asrwt>0</asrwt>
<pdfrwt beam="1">  1        2 0.29147199E+00 0.12490695E+04</pdfrwt>
<pdfrwt beam="2">  1       -2 0.27309914E-01 0.12490695E+04</pdfrwt>
<totfact> 0.91886792E+01</totfact>
</mgrwt>
</event>
<event>
 8    1  0.7583103E-052  0.2287207E+04  0.7818608E-02  0.8482982E-01
         -2   -1    0    0    0  501 -0.00000000000E+00  0.00000000000E+00  0.70110910225E+03  0.70110910225E+03  0.25500000000E-02 0. -1.
          2   -1    0    0  501    0  0.00000000000E+00 -0.00000000000E+00 -0.18653720129E+04  0.18653720129E+04  0.25500000000E-02 0.  1.
     200001    2    1    2    0    0  0.38096291844E+03  0.84252690674E+03 -0.26763840759E+03  0.11400559214E+04  0.61082964319E+03 0.  0.
    5000001    2    3    3    0    0  0.24984640922E+03  0.55263816240E+03  0.12182735856E+03  0.62711186398E+03  0.10293307490E+03 0.  0.
        -13    1    4    4    0    0  0.90128798325E+02  0.28460204879E+03  0.91269153983E+02  0.31217238202E+03  0.10566000000E+00 0. -1.
     200003    1    4    4    0    0  0.15971761090E+03  0.26803611361E+03  0.30558204577E+02  0.31493948196E+03  0.30000000000E+02 0. -1.
     200000    1    3    3    0    0  0.13111650922E+03  0.28988874434E+03 -0.38946576615E+03  0.51294405746E+03  0.10100000000E+03 0.  1.
    -200001    1    1    2    0    0 -0.38096291844E+03 -0.84252690674E+03 -0.89662450310E+03  0.14264251938E+04  0.61300000000E+03 0. -1.
<mgrwt>
<rscale>  0 0.22872073E+04</rscale>
<asrwt>0</asrwt>
<pdfrwt beam="1">  1        2 0.26648171E+00 0.22872073E+04</pdfrwt>
<pdfrwt beam="2">  1       -2 0.10015844E+00 0.22872073E+04</pdfrwt>
<totfact> 0.70680263E+00</totfact>
</mgrwt>
</event>
<event>
 8    1  0.7583103E-052  0.1664403E+04  0.7818608E-02  0.8781931E-01
         -2   -1    0    0    0  501 -0.00000000000E+00  0.00000000000E+00  0.37078851816E+03  0.37078851816E+03  0.25500000000E-02 0. -1.
          2   -1    0    0  501    0  0.00000000000E+00 -0.00000000000E+00 -0.18678016531E+04  0.18678016531E+04  0.25500000000E-02 0.  1.
     200001    2    1    2    0    0 -0.22709877714E+03 -0.50857770176E+03 -0.78843689889E+03  0.11486019073E+04  0.62243751864E+03 0.  0.
    5000001    2    3    3    0    0  0.98202384221E+02 -0.14564490511E+03  0.34518488246E+02  0.18683393649E+03  0.53471928531E+02 0.  0.
        -13    1    4    4    0    0  0.61363737718E+01 -0.75069092928E+01  0.13806792079E+02  0.16871497910E+02  0.10566000000E+00 0. -1.
     200003    1    4    4    0    0  0.92066010449E+02 -0.13813799582E+03  0.20711696167E+02  0.16996243858E+03  0.30000000000E+02 0. -1.
     200000    1    3    3    0    0 -0.32530116136E+03 -0.36293279665E+03 -0.82295538714E+03  0.96176797082E+03  0.10100000000E+03 0.  1.
    -200001    1    1    2    0    0  0.22709877714E+03  0.50857770176E+03 -0.70857623609E+03  0.10899882640E+04  0.61300000000E+03 0.  1.
<mgrwt>
<rscale>  0 0.16644031E+04</rscale>
<asrwt>0</asrwt>
<pdfrwt beam="1">  1        2 0.26682880E+00 0.16644031E+04</pdfrwt>
<pdfrwt beam="2">  1       -2 0.52969789E-01 0.16644031E+04</pdfrwt>
<totfact> 0.30171894E+01</totfact>
</mgrwt>
</event>
<event>
 8    1  0.7583103E-052  0.1334447E+04  0.7818608E-02  0.9002686E-01
         -2   -1    0    0    0  501 -0.00000000000E+00  0.00000000000E+00  0.33742882012E+03  0.33742882013E+03  0.25500000000E-02 0. -1.
          2   -1    0    0  501    0  0.00000000000E+00 -0.00000000000E+00 -0.13193517661E+04  0.13193517661E+04  0.25500000000E-02 0.  1.
     200001    2    1    2    0    0  0.22336051981E+03  0.13539889763E+03 -0.54835329373E+03  0.86181239402E+03  0.61139715770E+03 0.  0.
    5000001    2    3    3    0    0  0.31010394221E+03 -0.13156723461E+03 -0.21051258713E+03  0.41110996432E+03  0.10593139868E+03 0.  0.
        -13    1    4    4    0    0  0.45149326587E+02 -0.60415192905E+02 -0.29072396861E+02  0.80831136626E+02  0.10566000000E+00 0. -1.
     200003    1    4    4    0    0  0.26495461562E+03 -0.71152041709E+02 -0.18144019027E+03  0.33027882770E+03  0.30000000000E+02 0. -1.
     200000    1    3    3    0    0 -0.86743422402E+02  0.26696613225E+03 -0.33784070660E+03  0.45070242969E+03  0.10100000000E+03 0.  1.
    -200001    1    1    2    0    0 -0.22336051981E+03 -0.13539889763E+03 -0.43356965227E+03  0.79496819223E+03  0.61300000000E+03 0.  1.
<mgrwt>
<rscale>  0 0.13344472E+04</rscale>
<asrwt>0</asrwt>
<pdfrwt beam="1">  1        2 0.18847882E+00 0.13344472E+04</pdfrwt>
<pdfrwt beam="2">  1       -2 0.48204118E-01 0.13344472E+04</pdfrwt>
<totfact> 0.73046275E+01</totfact>
</mgrwt>
</event>
<event>
 8    1  0.7583103E-052  0.1622827E+04  0.7818608E-02  0.8806646E-01
          2   -1    0    0  501    0  0.00000000000E+00  0.00000000000E+00  0.16780773200E+04  0.16780773200E+04  0.25500000000E-02 0.  1.
         -2   -1    0    0    0  501 -0.00000000000E+00 -0.00000000000E+00 -0.39234882874E+03  0.39234882875E+03  0.25500000000E-02 0. -1.
     200001    2    1    2    0    0 -0.22174943125E+02 -0.20196754389E+03  0.12696742602E+04  0.14244312918E+04  0.61290224433E+03 0.  0.
    5000001    2    3    3    0    0  0.18139909458E+03  0.79604676733E+00  0.11118990396E+03  0.22658219187E+03  0.77910395466E+02 0.  0.
        -13    1    4    4    0    0  0.11508687143E+03  0.23174878176E+02  0.88844615876E+02  0.14722581257E+03  0.10566000000E+00 0. -1.
     200003    1    4    4    0    0  0.66312223153E+02 -0.22378831408E+02  0.22345288088E+02  0.79356379292E+02  0.30000000000E+02 0.  1.
     200000    1    3    3    0    0 -0.20357403771E+03 -0.20276359066E+03  0.11584843562E+04  0.11978490999E+04  0.10100000000E+03 0.  1.
    -200001    1    1    2    0    0  0.22174943125E+02  0.20196754389E+03  0.16054231064E+02  0.64599485696E+03  0.61300000000E+03 0. -1.
<mgrwt>
<rscale>  0 0.16228268E+04</rscale>
<asrwt>0</asrwt>
<pdfrwt beam="1">  1        2 0.23972533E+00 0.16228268E+04</pdfrwt>
<pdfrwt beam="2">  1       -2 0.56049833E-01 0.16228268E+04</pdfrwt>
<totfact> 0.33758835E+01</totfact>
</mgrwt>
</event>
<event>
 8    1  0.7583103E-052  0.1409608E+04  0.7818608E-02  0.8946893E-01
         -2   -1    0    0    0  501 -0.00000000000E+00  0.00000000000E+00  0.19860553892E+03  0.19860553894E+03  0.25500000000E-02 0. -1.
          2   -1    0    0  501    0  0.00000000000E+00 -0.00000000000E+00 -0.25011820396E+04  0.25011820396E+04  0.25500000000E-02 0.  1.
     200001    2    1    2    0    0  0.13218294950E+03 -0.31756064591E+03 -0.10587492583E+04  0.12710845636E+04  0.61350540335E+03 0.  0.
    5000001    2    3    3    0    0  0.98524000633E+02 -0.37312448726E+01 -0.24297681261E+03  0.39056908906E+03  0.28945739059E+03 0.  0.
        -13    1    4    4    0    0  0.26653729182E+02 -0.14292974751E+03 -0.13077501358E+03  0.19555421075E+03  0.10566000000E+00 0. -1.
     200003    1    4    4    0    0  0.71870271450E+02  0.13919850263E+03 -0.11220179903E+03  0.19501487831E+03  0.30000000000E+02 0. -1.
     200000    1    3    3    0    0  0.33658948865E+02 -0.31382940104E+03 -0.81577244571E+03  0.88051547458E+03  0.10100000000E+03 0. -1.
    -200001    1    1    2    0    0 -0.13218294950E+03  0.31756064591E+03 -0.12438272424E+04  0.14287030149E+04  0.61300000000E+03 0. -1.
<mgrwt>
<rscale>  0 0.14096079E+04</rscale>
<asrwt>0</asrwt>
<pdfrwt beam="1">  1        2 0.35731170E+00 0.14096079E+04</pdfrwt>
<pdfrwt beam="2">  1       -2 0.28372221E-01 0.14096079E+04</pdfrwt>
<totfact> 0.48859518E+01</totfact>
</mgrwt>
</event>
<event>
 8    1  0.7583103E-052  0.1329265E+04  0.7818608E-02  0.9006674E-01
          2   -1    0    0  501    0  0.00000000000E+00  0.00000000000E+00  0.24752295214E+04  0.24752295214E+04  0.25500000000E-02 0.  1.
         -2   -1    0    0    0  501 -0.00000000000E+00 -0.00000000000E+00 -0.17846286660E+03  0.17846286661E+03  0.25500000000E-02 0. -1.
     200001    2    1    2    0    0  0.24412566579E+03 -0.43502760434E+02  0.10121146613E+04  0.12088430619E+04  0.61272802266E+03 0.  0.
    5000001    2    3    3    0    0  0.18394263804E+02 -0.63420977369E+01  0.94741410857E+03  0.95053560512E+03  0.74470613987E+02 0.  0.
        -13    1    4    4    0    0 -0.11311660823E+02  0.22671174908E+02  0.36115683775E+03  0.36204448409E+03  0.10566000000E+00 0. -1.
     200003    1    4    4    0    0  0.29705924627E+02 -0.29013272645E+02  0.58625727081E+03  0.58849112103E+03  0.30000000000E+02 0. -1.
     200000    1    3    3    0    0  0.22573140199E+03 -0.37160662697E+02  0.64700552756E+02  0.25830745677E+03  0.10100000000E+03 0. -1.
    -200001    1    1    2    0    0 -0.24412566579E+03  0.43502760434E+02  0.12846519935E+04  0.14448493261E+04  0.61300000000E+03 0.  1.
<mgrwt>
<rscale>  0 0.13292653E+04</rscale>
<asrwt>0</asrwt>
<pdfrwt beam="1">  1        2 0.35360419E+00 0.13292653E+04</pdfrwt>
<pdfrwt beam="2">  1       -2 0.25494697E-01 0.13292653E+04</pdfrwt>
<totfact> 0.61726063E+01</totfact>
</mgrwt>
</event>
<event>
 8    1  0.7583103E-052  0.1260578E+04  0.7818608E-02  0.9061425E-01
         -2   -1    0    0    0  501 -0.00000000000E+00  0.00000000000E+00  0.66210468655E+03  0.66210468655E+03  0.25500000000E-02 0. -1.
          2   -1    0    0  501    0  0.00000000000E+00 -0.00000000000E+00 -0.60000246978E+03  0.60000246978E+03  0.25500000000E-02 0.  1.
     200001    2    1    2    0    0 -0.83807644499E+02 -0.70811822028E+02  0.12924647308E+03  0.63575630691E+03  0.61273435970E+03 0.  0.
    5000001    2    3    3    0    0 -0.15684538444E+03 -0.15258885846E+03  0.32197834320E+03  0.39209964498E+03  0.46778667755E+02 0.  0.
        -13    1    4    4    0    0 -0.61670688046E+02 -0.42856215594E+02  0.98090086959E+02  0.12353786991E+03  0.10566000000E+00 0. -1.
     200003    1    4    4    0    0 -0.95174696399E+02 -0.10973264287E+03  0.22388825624E+03  0.26856177507E+03  0.30000000000E+02 0. -1.
     200000    1    3    3    0    0  0.73037739946E+02  0.81777036434E+02 -0.19273187012E+03  0.24365666193E+03  0.10100000000E+03 0.  1.
    -200001    1    1    2    0    0  0.83807644499E+02  0.70811822028E+02 -0.67144256304E+02  0.62635084942E+03  0.61300000000E+03 0.  1.
<mgrwt>
<rscale>  0 0.12605784E+04</rscale>
<asrwt>0</asrwt>
<pdfrwt beam="1">  1        2 0.85714639E-01 0.12605784E+04</pdfrwt>
<pdfrwt beam="2">  1       -2 0.94586384E-01 0.12605784E+04</pdfrwt>
<totfact> 0.50287153E+01</totfact>
</mgrwt>
</event>
<event>
 8    1  0.7583103E-052  0.1715311E+04  0.7818608E-02  0.8752680E-01
          2   -1    0    0  501    0  0.00000000000E+00  0.00000000000E+00  0.17693416735E+04  0.17693416735E+04  0.25500000000E-02 0.  1.
         -2   -1    0    0    0  501 -0.00000000000E+00 -0.00000000000E+00 -0.41573274605E+03  0.41573274606E+03  0.25500000000E-02 0. -1.
     200001    2    1    2    0    0 -0.36003370027E+03 -0.41943481815E+03  0.97584228877E+03  0.12773153847E+04  0.61132363566E+03 0.  0.
    5000001    2    3    3    0    0 -0.49328527783E+03 -0.33610530231E+03  0.83777275334E+03  0.10450138829E+04  0.18410238911E+03 0.  0.
        -13    1    4    4    0    0 -0.41289395194E+03 -0.20966396409E+03  0.54831465743E+03  0.71769726773E+03  0.10566000000E+00 0. -1.
     200003    1    4    4    0    0 -0.80391325894E+02 -0.12644133822E+03  0.28945809591E+03  0.32731661519E+03  0.30000000000E+02 0. -1.
     200000    1    3    3    0    0  0.13325157756E+03 -0.83329515838E+02  0.13806953543E+03  0.23230150182E+03  0.10100000000E+03 0.  1.
    -200001    1    1    2    0    0  0.36003370027E+03  0.41943481815E+03  0.37776663867E+03  0.90775903482E+03  0.61300000000E+03 0. -1.
<mgrwt>
<rscale>  0 0.17153114E+04</rscale>
<asrwt>0</asrwt>
<pdfrwt beam="1">  1        2 0.25276309E+00 0.17153114E+04</pdfrwt>
<pdfrwt beam="2">  1       -2 0.59390393E-01 0.17153114E+04</pdfrwt>
<totfact> 0.26616412E+01</totfact>
</mgrwt>
</event>
<event>
 8    1  0.7583103E-052  0.1338328E+04  0.7818608E-02  0.8999711E-01
         -2   -1    0    0    0  501 -0.00000000000E+00  0.00000000000E+00  0.10376611949E+04  0.10376611949E+04  0.25500000000E-02 0. -1.
          2   -1    0    0  501    0  0.00000000000E+00 -0.00000000000E+00 -0.43152861782E+03  0.43152861783E+03  0.25500000000E-02 0.  1.
     200001    2    1    2    0    0  0.26136165961E+03 -0.60350865657E+02  0.32639428827E+03  0.74394871191E+03  0.61235145990E+03 0.  0.
    5000001    2    3    3    0    0  0.28537238057E+03 -0.25124041566E+03  0.35261344246E+03  0.52507939230E+03  0.82540816322E+02 0.  0.
        -13    1    4    4    0    0  0.12453957885E+03 -0.63749356097E+02  0.11675277337E+03  0.18222323769E+03  0.10566000000E+00 0. -1.
     200003    1    4    4    0    0  0.16083280173E+03 -0.18749105956E+03  0.23586066909E+03  0.34285615461E+03  0.30000000000E+02 0. -1.
     200000    1    3    3    0    0 -0.24010720960E+02  0.19088955000E+03 -0.26219154188E+02  0.21886931961E+03  0.10100000000E+03 0.  1.
    -200001    1    1    2    0    0 -0.26136165961E+03  0.60350865657E+02  0.27973828882E+03  0.72524110083E+03  0.61300000000E+03 0. -1.
<mgrwt>
<rscale>  0 0.13383281E+04</rscale>
<asrwt>0</asrwt>
<pdfrwt beam="1">  1        2 0.61646945E-01 0.13383281E+04</pdfrwt>
<pdfrwt beam="2">  1       -2 0.14823731E+00 0.13383281E+04</pdfrwt>
<totfact> 0.24011213E+01</totfact>
</mgrwt>
</event>
<event>
 8    1  0.7583103E-052  0.2046723E+04  0.7818608E-02  0.8585082E-01
         -2   -1    0    0    0  501 -0.00000000000E+00  0.00000000000E+00  0.66803874949E+03  0.66803874949E+03  0.25500000000E-02 0. -1.
          2   -1    0    0  501    0  0.00000000000E+00 -0.00000000000E+00 -0.15676769396E+04  0.15676769396E+04  0.25500000000E-02 0.  1.
     200001    2    1    2    0    0  0.60414264582E+03  0.13652219716E+03 -0.10356553108E+04  0.13537313900E+04  0.61349825323E+03 0.  0.
    5000001    2    3    3    0    0  0.44064893408E+03 -0.10610070958E+01 -0.23462153487E+03  0.51855749074E+03  0.14029254340E+03 0.  0.
        -13    1    4    4    0    0  0.25622641594E+03 -0.64589863886E+02 -0.14980272294E+03  0.30375103902E+03  0.10566000000E+00 0. -1.
     200003    1    4    4    0    0  0.18442251814E+03  0.63528856790E+02 -0.84818811936E+02  0.21480645172E+03  0.30000000000E+02 0. -1.
     200000    1    3    3    0    0  0.16349371174E+03  0.13758320425E+03 -0.80103377589E+03  0.83517389925E+03  0.10100000000E+03 0.  1.
    -200001    1    1    2    0    0 -0.60414264582E+03 -0.13652219716E+03  0.13601712062E+03  0.88198429913E+03  0.61300000000E+03 0. -1.
<mgrwt>
<rscale>  0 0.20467232E+04</rscale>
<asrwt>0</asrwt>
<pdfrwt beam="1">  1        2 0.22395385E+00 0.20467232E+04</pdfrwt>
<pdfrwt beam="2">  1       -2 0.95434108E-01 0.20467232E+04</pdfrwt>
<totfact> 0.11535570E+01</totfact>
</mgrwt>
</event>
<event>
 8    1  0.7583103E-052  0.1525115E+04  0.7818608E-02  0.8867921E-01
          2   -1    0    0  501    0  0.00000000000E+00  0.00000000000E+00  0.34414710502E+04  0.34414710502E+04  0.25500000000E-02 0.  1.
         -2   -1    0    0    0  501 -0.00000000000E+00 -0.00000000000E+00 -0.16896674637E+03  0.16896674638E+03  0.25500000000E-02 0. -1.
     200001    2    1    2    0    0  0.22638937655E+03 -0.37391329938E+03  0.19248290832E+04  0.20667212405E+04  0.61262254370E+03 0.  0.
    5000001    2    3    3    0    0  0.41561237572E+03 -0.16042254588E+03  0.11450220881E+04  0.12302503236E+04  0.63017745957E+02 0.  0.
        -13    1    4    4    0    0  0.10339485493E+03 -0.60426600891E+02  0.34223255553E+03  0.36258103004E+03  0.10566000000E+00 0. -1.
     200003    1    4    4    0    0  0.31221752080E+03 -0.99995944994E+02  0.80278953262E+03  0.86766929356E+03  0.30000000000E+02 0. -1.
     200000    1    3    3    0    0 -0.18922299917E+03 -0.21349075349E+03  0.77980699509E+03  0.83647091691E+03  0.10100000000E+03 0. -1.
    -200001    1    1    2    0    0 -0.22638937655E+03  0.37391329938E+03  0.13476752206E+04  0.15437165560E+04  0.61300000000E+03 0. -1.
<mgrwt>
<rscale>  0 0.15251153E+04</rscale>
<asrwt>0</asrwt>
<pdfrwt beam="1">  1        2 0.49163871E+00 0.15251153E+04</pdfrwt>
<pdfrwt beam="2">  1       -2 0.24138107E-01 0.15251153E+04</pdfrwt>
<totfact> 0.19446591E+01</totfact>
</mgrwt>
</event>
<event>
 8    1  0.7583103E-052  0.1582682E+04  0.7818608E-02  0.8831258E-01
          2   -1    0    0  501    0  0.00000000000E+00  0.00000000000E+00  0.90577889316E+03  0.90577889316E+03  0.25500000000E-02 0.  1.
         -2   -1    0    0    0  501 -0.00000000000E+00 -0.00000000000E+00 -0.69136118011E+03  0.69136118011E+03  0.25500000000E-02 0. -1.
     200001    2    1    2    0    0 -0.62191856498E+02 -0.18829717520E+03 -0.35653701785E+03  0.73627890099E+03  0.61291461211E+03 0.  0.
    5000001    2    3    3    0    0 -0.20342113206E+02 -0.25779221470E+02  0.15907745836E+03  0.18471496600E+03  0.87952322760E+02 0.  0.
        -13    1    4    4    0    0  0.28315720820E+02 -0.83392030842E+01  0.28135803767E+02  0.40779369433E+02  0.10566000000E+00 0. -1.
     200003    1    4    4    0    0 -0.48657834026E+02 -0.17440018386E+02  0.13094165459E+03  0.14393559657E+03  0.30000000000E+02 0. -1.
     200000    1    3    3    0    0 -0.41849743292E+02 -0.16251795373E+03 -0.51561447621E+03  0.55156393498E+03  0.10100000000E+03 0. -1.
    -200001    1    1    2    0    0  0.62191856498E+02  0.18829717520E+03  0.57095473091E+03  0.86086117228E+03  0.61300000000E+03 0.  1.
<mgrwt>
<rscale>  0 0.15826817E+04</rscale>
<asrwt>0</asrwt>
<pdfrwt beam="1">  1        2 0.12939699E+00 0.15826817E+04</pdfrwt>
<pdfrwt beam="2">  1       -2 0.98765882E-01 0.15826817E+04</pdfrwt>
<totfact> 0.26394749E+01</totfact>
</mgrwt>
</event>
<event>
 8    1  0.7583103E-052  0.1338411E+04  0.7818608E-02  0.8999647E-01
          2   -1    0    0  501    0  0.00000000000E+00  0.00000000000E+00  0.96427870471E+03  0.96427870472E+03  0.25500000000E-02 0.  1.
         -2   -1    0    0    0  501 -0.00000000000E+00 -0.00000000000E+00 -0.46442617901E+03  0.46442617902E+03  0.25500000000E-02 0. -1.
     200001    2    1    2    0    0  0.10967613053E+03  0.24330646302E+03  0.20648164071E+03  0.69859368349E+03  0.61169565808E+03 0.  0.
    5000001    2    3    3    0    0 -0.90654016417E+02  0.53967377076E+02  0.21111172138E+03  0.40498868543E+03  0.32911555409E+03 0.  0.
        -13    1    4    4    0    0 -0.18285024618E+03 -0.46073915338E+02  0.18320126602E+03  0.26290632027E+03  0.10566000000E+00 0. -1.
     200003    1    4    4    0    0  0.92196229767E+02  0.10004129241E+03  0.27910455361E+02  0.14208236516E+03  0.30000000000E+02 0. -1.
     200000    1    3    3    0    0  0.20033014694E+03  0.18933908594E+03 -0.46300806660E+01  0.29360499806E+03  0.10100000000E+03 0.  1.
    -200001    1    1    2    0    0 -0.10967613053E+03 -0.24330646302E+03  0.29337088499E+03  0.73011120024E+03  0.61300000000E+03 0.  1.
<mgrwt>
<rscale>  0 0.13384114E+04</rscale>
<asrwt>0</asrwt>
<pdfrwt beam="1">  1        2 0.13775410E+00 0.13384114E+04</pdfrwt>
<pdfrwt beam="2">  1       -2 0.66346598E-01 0.13384114E+04</pdfrwt>
<totfact> 0.60450292E+01</totfact>
</mgrwt>
</event>
<event>
 8    1  0.7583103E-052  0.1442811E+04  0.7818608E-02  0.8923400E-01
         -2   -1    0    0    0  501 -0.00000000000E+00  0.00000000000E+00  0.22165994167E+03  0.22165994169E+03  0.25500000000E-02 0. -1.
          2   -1    0    0  501    0  0.00000000000E+00 -0.00000000000E+00 -0.23478561639E+04  0.23478561639E+04  0.25500000000E-02 0.  1.
     200001    2    1    2    0    0 -0.34769701957E+03  0.14467829974E+02 -0.13358147919E+04  0.15104720362E+04  0.61320639130E+03 0.  0.
    5000001    2    3    3    0    0 -0.25060701317E+03  0.25392305234E+03 -0.49957038715E+03  0.62940962221E+03  0.13894282726E+03 0.  0.
        -13    1    4    4    0    0 -0.20073167857E+03  0.25448569005E+03 -0.43500954633E+03  0.54248455258E+03  0.10566000000E+00 0. -1.
     200003    1    4    4    0    0 -0.49875334596E+02 -0.56263771037E+00 -0.64560840820E+02  0.86925069627E+02  0.30000000000E+02 0. -1.
     200000    1    3    3    0    0 -0.97090006402E+02 -0.23945522237E+03 -0.83624440474E+03  0.88106241398E+03  0.10100000000E+03 0.  1.
    -200001    1    1    2    0    0  0.34769701957E+03 -0.14467829974E+02 -0.79038143032E+03  0.10590440694E+04  0.61300000000E+03 0. -1.
<mgrwt>
<rscale>  0 0.14428107E+04</rscale>
<asrwt>0</asrwt>
<pdfrwt beam="1">  1        2 0.33540801E+00 0.14428107E+04</pdfrwt>
<pdfrwt beam="2">  1       -2 0.31665707E-01 0.14428107E+04</pdfrwt>
<totfact> 0.47745977E+01</totfact>
</mgrwt>
</event>
<event>
 8    1  0.7583103E-052  0.1247262E+04  0.7818608E-02  0.9072465E-01
         -2   -1    0    0    0  501 -0.00000000000E+00  0.00000000000E+00  0.37786319610E+03  0.37786319611E+03  0.25500000000E-02 0. -1.
          2   -1    0    0  501    0  0.00000000000E+00 -0.00000000000E+00 -0.10292495595E+04  0.10292495595E+04  0.25500000000E-02 0.  1.
     200001    2    1    2    0    0 -0.81775769417E+01  0.11397348907E+03 -0.31573150385E+03  0.69895315938E+03  0.61301901072E+03 0.  0.
    5000001    2    3    3    0    0 -0.24387657153E+03  0.47678878975E+02  0.37593464079E+02  0.25737810988E+03  0.55508244988E+02 0.  0.
        -13    1    4    4    0    0 -0.12296713069E+02  0.10559277768E+02 -0.53388597563E+01  0.17065230347E+02  0.10566000000E+00 0. -1.
     200003    1    4    4    0    0 -0.23157985846E+03  0.37119601207E+02  0.42932323835E+02  0.24031287953E+03  0.30000000000E+02 0. -1.
     200000    1    3    3    0    0  0.23569899458E+03  0.66294610098E+02 -0.35332496793E+03  0.44157504950E+03  0.10100000000E+03 0.  1.
    -200001    1    1    2    0    0  0.81775769417E+01 -0.11397348907E+03 -0.33565485952E+03  0.70815959620E+03  0.61300000000E+03 0. -1.
<mgrwt>
<rscale>  0 0.12472618E+04</rscale>
<asrwt>0</asrwt>
<pdfrwt beam="1">  1        2 0.14703565E+00 0.12472618E+04</pdfrwt>
<pdfrwt beam="2">  1       -2 0.53980457E-01 0.12472618E+04</pdfrwt>
<totfact> 0.85713146E+01</totfact>
</mgrwt>
</event>
<event>
 8    1  0.7583103E-052  0.2705113E+04  0.7818608E-02  0.8333348E-01
          2   -1    0    0  501    0  0.00000000000E+00  0.00000000000E+00  0.15815358216E+04  0.15815358216E+04  0.25500000000E-02 0.  1.
         -2   -1    0    0    0  501 -0.00000000000E+00 -0.00000000000E+00 -0.11567293926E+04  0.11567293926E+04  0.25500000000E-02 0. -1.
     200001    2    1    2    0    0  0.71573638939E+02  0.11348987208E+04  0.62017964708E+03  0.14317210755E+04  0.60998733690E+03 0.  0.
    5000001    2    3    3    0    0  0.11349648648E+03  0.73394473783E+03  0.11754075473E+03  0.77951828672E+03  0.20561274203E+03 0.  0.
        -13    1    4    4    0    0  0.12865945030E+03  0.21704249795E+03  0.48736703653E+02  0.25697466318E+03  0.10566000000E+00 0. -1.
     200003    1    4    4    0    0 -0.15162963825E+02  0.51690223988E+03  0.68804051076E+02  0.52254362354E+03  0.30000000000E+02 0. -1.
     200000    1    3    3    0    0 -0.41922847540E+02  0.40095398295E+03  0.50263889235E+03  0.65220278878E+03  0.10100000000E+03 0.  1.
    -200001    1    1    2    0    0 -0.71573638939E+02 -0.11348987208E+04 -0.19537321806E+03  0.13065441388E+04  0.61300000000E+03 0. -1.
<mgrwt>
<rscale>  0 0.27051129E+04</rscale>
<asrwt>0</asrwt>
<pdfrwt beam="1">  1        2 0.22593369E+00 0.27051129E+04</pdfrwt>
<pdfrwt beam="2">  1       -2 0.16524706E+00 0.27051129E+04</pdfrwt>
<totfact> 0.26943039E+00</totfact>
</mgrwt>
</event>
<event>
 8    1  0.7583103E-052  0.1588273E+04  0.7818608E-02  0.8827785E-01
          2   -1    0    0  501    0  0.00000000000E+00  0.00000000000E+00  0.93884591186E+03  0.93884591187E+03  0.25500000000E-02 0.  1.
         -2   -1    0    0    0  501 -0.00000000000E+00 -0.00000000000E+00 -0.67173183003E+03  0.67173183003E+03  0.25500000000E-02 0. -1.
     200001    2    1    2    0    0 -0.48934531562E+03  0.83740394620E+02  0.21852948504E+03  0.82026087212E+03  0.61530599778E+03 0.  0.
    5000001    2    3    3    0    0 -0.35383136542E+03  0.31647835208E+03  0.43905172665E+02  0.48377069692E+03  0.82165932839E+02 0.  0.
        -13    1    4    4    0    0 -0.16097855099E+03  0.15679459135E+03  0.55007733589E+02  0.23135362473E+03  0.10566000000E+00 0. -1.
     200003    1    4    4    0    0 -0.19285281443E+03  0.15968376073E+03 -0.11102560925E+02  0.25241707219E+03  0.30000000000E+02 0. -1.
     200000    1    3    3    0    0 -0.13551395019E+03 -0.23273795746E+03  0.17462431238E+03  0.33649017521E+03  0.10100000000E+03 0.  1.
    -200001    1    1    2    0    0  0.48934531562E+03 -0.83740394620E+02  0.48584596792E+02  0.79031686977E+03  0.61300000000E+03 0. -1.
<mgrwt>
<rscale>  0 0.15882729E+04</rscale>
<asrwt>0</asrwt>
<pdfrwt beam="1">  1        2 0.13412085E+00 0.15882729E+04</pdfrwt>
<pdfrwt beam="2">  1       -2 0.95961689E-01 0.15882729E+04</pdfrwt>
<totfact> 0.26878356E+01</totfact>
</mgrwt>
</event>
<event>
 8    1  0.7583103E-052  0.2100431E+04  0.7818608E-02  0.8561054E-01
          2   -1    0    0  501    0  0.00000000000E+00  0.00000000000E+00  0.15875607354E+04  0.15875607354E+04  0.25500000000E-02 0.  1.
         -2   -1    0    0    0  501 -0.00000000000E+00 -0.00000000000E+00 -0.69474647747E+03  0.69474647747E+03  0.25500000000E-02 0. -1.
     200001    2    1    2    0    0  0.38439422017E+03  0.46494088877E+02 -0.37913615945E+03  0.81822132705E+03  0.61304265417E+03 0.  0.
    5000001    2    3    3    0    0  0.22670503033E+03 -0.10635889194E+03 -0.47843286466E+03  0.55689633780E+03  0.13611811193E+03 0.  0.
        -13    1    4    4    0    0  0.19288834350E+03 -0.31304834997E+02 -0.29865384572E+03  0.35690339936E+03  0.10566000000E+00 0. -1.
     200003    1    4    4    0    0  0.33816686830E+02 -0.75054056944E+02 -0.17977901894E+03  0.19999293844E+03  0.30000000000E+02 0. -1.
     200000    1    3    3    0    0  0.15768918984E+03  0.15285298082E+03  0.99296705215E+02  0.26132498925E+03  0.10100000000E+03 0.  1.
    -200001    1    1    2    0    0 -0.38439422017E+03 -0.46494088877E+02  0.12719504174E+04  0.14640858858E+04  0.61300000000E+03 0.  1.
<mgrwt>
<rscale>  0 0.21004306E+04</rscale>
<asrwt>0</asrwt>
<pdfrwt beam="1">  1        2 0.22679438E+00 0.21004306E+04</pdfrwt>
<pdfrwt beam="2">  1       -2 0.99249500E-01 0.21004306E+04</pdfrwt>
<totfact> 0.10225924E+01</totfact>
</mgrwt>
</event>
<event>
 8    1  0.7583103E-052  0.1865670E+04  0.7818608E-02  0.8672136E-01
          2   -1    0    0  501    0  0.00000000000E+00  0.00000000000E+00  0.24635317509E+04  0.24635317509E+04  0.25500000000E-02 0.  1.
         -2   -1    0    0    0  501 -0.00000000000E+00 -0.00000000000E+00 -0.35322520925E+03  0.35322520925E+03  0.25500000000E-02 0. -1.
     200001    2    1    2    0    0  0.22755069494E+03 -0.34556705893E+03  0.19760472427E+03  0.76605143443E+03  0.61367032041E+03 0.  0.
    5000001    2    3    3    0    0  0.83455868001E+02 -0.13676067417E+03  0.37678881717E+03  0.43944560990E+03  0.15960660203E+03 0.  0.
        -13    1    4    4    0    0  0.11655334492E+03 -0.97107100012E+02  0.18881557795E+03  0.24221024901E+03  0.10566000000E+00 0. -1.
     200003    1    4    4    0    0 -0.33097476919E+02 -0.39653574162E+02  0.18797323922E+03  0.19723536089E+03  0.30000000000E+02 0. -1.
     200000    1    3    3    0    0  0.14409482694E+03 -0.20880638476E+03 -0.17918409291E+03  0.32660582453E+03  0.10100000000E+03 0. -1.
    -200001    1    1    2    0    0 -0.22755069494E+03  0.34556705893E+03  0.19127018174E+04  0.20507055257E+04  0.61300000000E+03 0.  1.
<mgrwt>
<rscale>  0 0.18656704E+04</rscale>
<asrwt>0</asrwt>
<pdfrwt beam="1">  1        2 0.35193312E+00 0.18656704E+04</pdfrwt>
<pdfrwt beam="2">  1       -2 0.50460742E-01 0.18656704E+04</pdfrwt>
<totfact> 0.16124581E+01</totfact>
</mgrwt>
</event>
<event>
 8    1  0.7583103E-052  0.1340111E+04  0.7818608E-02  0.8998348E-01
         -2   -1    0    0    0  501 -0.00000000000E+00  0.00000000000E+00  0.54289849179E+03  0.54289849180E+03  0.25500000000E-02 0. -1.
          2   -1    0    0  501    0  0.00000000000E+00 -0.00000000000E+00 -0.82699452755E+03  0.82699452755E+03  0.25500000000E-02 0.  1.
     200001    2    1    2    0    0 -0.40890182561E+02 -0.13297240330E+03  0.95521574029E+02  0.63556870630E+03  0.61275569541E+03 0.  0.
    5000001    2    3    3    0    0 -0.86278858167E+02  0.22070731635E+03  0.60042668078E+02  0.26326610259E+03  0.97714676114E+02 0.  0.
        -13    1    4    4    0    0 -0.32445307898E+02  0.17855887858E+03  0.47033730536E+02  0.18747840968E+03  0.10566000000E+00 0. -1.
     200003    1    4    4    0    0 -0.53833550269E+02  0.42148437769E+02  0.13008937542E+02  0.75787692912E+02  0.30000000000E+02 0. -1.
     200000    1    3    3    0    0  0.45388675606E+02 -0.35367971965E+03  0.35478905951E+02  0.37230260371E+03  0.10100000000E+03 0.  1.
    -200001    1    1    2    0    0  0.40890182561E+02  0.13297240330E+03 -0.37961760979E+03  0.73432431304E+03  0.61300000000E+03 0.  1.
<mgrwt>
<rscale>  0 0.13401106E+04</rscale>
<asrwt>0</asrwt>
<pdfrwt beam="1">  1        2 0.11814208E+00 0.13401106E+04</pdfrwt>
<pdfrwt beam="2">  1       -2 0.77556927E-01 0.13401106E+04</pdfrwt>
<totfact> 0.52814499E+01</totfact>
</mgrwt>
</event>
<event>
 8    1  0.7583103E-052  0.1481186E+04  0.7818608E-02  0.8897061E-01
          2   -1    0    0  501    0  0.00000000000E+00  0.00000000000E+00  0.20948915606E+04  0.20948915606E+04  0.25500000000E-02 0.  1.
         -2   -1    0    0    0  501 -0.00000000000E+00 -0.00000000000E+00 -0.26181678962E+03  0.26181678964E+03  0.25500000000E-02 0. -1.
     200001    2    1    2    0    0 -0.29823327378E+03 -0.20599422616E+03  0.59292291445E+03  0.92663061317E+03  0.61295187738E+03 0.  0.
    5000001    2    3    3    0    0  0.66004171588E+02 -0.26185048022E+03  0.42309370465E+03  0.50850168781E+03  0.81507416399E+02 0.  0.
        -13    1    4    4    0    0  0.64188154343E+02 -0.16180893420E+03  0.30201308997E+03  0.34858882372E+03  0.10566000000E+00 0. -1.
     200003    1    4    4    0    0  0.18160172452E+01 -0.10004154602E+03  0.12108061468E+03  0.15991286409E+03  0.30000000000E+02 0. -1.
     200000    1    3    3    0    0 -0.36423744537E+03  0.55856254057E+02  0.16982920980E+03  0.41812892536E+03  0.10100000000E+03 0.  1.
    -200001    1    1    2    0    0  0.29823327378E+03  0.20599422616E+03  0.12401518565E+04  0.14300777371E+04  0.61300000000E+03 0.  1.
<mgrwt>
<rscale>  0 0.14811857E+04</rscale>
<asrwt>0</asrwt>
<pdfrwt beam="1">  1        2 0.29927023E+00 0.14811857E+04</pdfrwt>
<pdfrwt beam="2">  1       -2 0.37402397E-01 0.14811857E+04</pdfrwt>
<totfact> 0.46820777E+01</totfact>
</mgrwt>
</event>
<event>
 8    1  0.7583103E-052  0.1830674E+04  0.7818608E-02  0.8690155E-01
         -2   -1    0    0    0  501 -0.00000000000E+00  0.00000000000E+00  0.58109178412E+03  0.58109178412E+03  0.25500000000E-02 0. -1.
          2   -1    0    0  501    0  0.00000000000E+00 -0.00000000000E+00 -0.14418413129E+04  0.14418413129E+04  0.25500000000E-02 0.  1.
     200001    2    1    2    0    0 -0.19585786832E+03  0.64571471454E+03 -0.52016448159E+03  0.10497553273E+04  0.61327592654E+03 0.  0.
    5000001    2    3    3    0    0  0.19407366278E+02  0.61317130712E+03 -0.52284539039E+03  0.80974203209E+03  0.77195586210E+02 0.  0.
        -13    1    4    4    0    0 -0.15652255255E+02  0.13044895822E+03 -0.85680560383E+02  0.15685373246E+03  0.10566000000E+00 0. -1.
     200003    1    4    4    0    0  0.35059621533E+02  0.48272234890E+03 -0.43716483001E+03  0.65288829962E+03  0.30000000000E+02 0. -1.
     200000    1    3    3    0    0 -0.21526523460E+03  0.32543407421E+02  0.26809088024E+01  0.24001329519E+03  0.10100000000E+03 0. -1.
    -200001    1    1    2    0    0  0.19585786832E+03 -0.64571471454E+03 -0.34058504718E+03  0.97317776974E+03  0.61300000000E+03 0.  1.
<mgrwt>
<rscale>  0 0.18306743E+04</rscale>
<asrwt>0</asrwt>
<pdfrwt beam="1">  1        2 0.20597733E+00 0.18306743E+04</pdfrwt>
<pdfrwt beam="2">  1       -2 0.83013112E-01 0.18306743E+04</pdfrwt>
<totfact> 0.18868648E+01</totfact>
</mgrwt>
</event>
<event>
 8    1  0.7583103E-052  0.1556913E+04  0.7818608E-02  0.8847464E-01
          2   -1    0    0  501    0  0.00000000000E+00  0.00000000000E+00  0.71574898460E+03  0.71574898461E+03  0.25500000000E-02 0.  1.
         -2   -1    0    0    0  501 -0.00000000000E+00 -0.00000000000E+00 -0.84665835434E+03  0.84665835434E+03  0.25500000000E-02 0. -1.
     200001    2    1    2    0    0  0.13677343981E+03  0.21677316536E+03 -0.47220797214E+03  0.81544595101E+03  0.61341189343E+03 0.  0.
    5000001    2    3    3    0    0  0.27573507555E+03 -0.89753935151E+02 -0.13742434993E+03  0.33011073360E+03  0.77472857960E+02 0.  0.
        -13    1    4    4    0    0  0.98534479160E+02  0.15621065428E+01 -0.46308097239E+02  0.10888496129E+03  0.10566000000E+00 0. -1.
     200003    1    4    4    0    0  0.17720059639E+03 -0.91316041694E+02 -0.91116252687E+02  0.22122577231E+03  0.30000000000E+02 0. -1.
     200000    1    3    3    0    0 -0.13896163574E+03  0.30652710051E+03 -0.33478362222E+03  0.48533521741E+03  0.10100000000E+03 0. -1.
    -200001    1    1    2    0    0 -0.13677343981E+03 -0.21677316536E+03  0.34129860241E+03  0.74696138794E+03  0.61300000000E+03 0.  1.
<mgrwt>
<rscale>  0 0.15569134E+04</rscale>
<asrwt>0</asrwt>
<pdfrwt beam="1">  1        2 0.10224986E+00 0.15569134E+04</pdfrwt>
<pdfrwt beam="2">  1       -2 0.12095119E+00 0.15569134E+04</pdfrwt>
<totfact> 0.21977064E+01</totfact>
</mgrwt>
</event>
<event>
 8    1  0.7583103E-052  0.1676605E+04  0.7818608E-02  0.8774821E-01
         -2   -1    0    0    0  501 -0.00000000000E+00  0.00000000000E+00  0.91425993329E+03  0.91425993330E+03  0.25500000000E-02 0. -1.
          2   -1    0    0  501    0  0.00000000000E+00 -0.00000000000E+00 -0.76865543065E+03  0.76865543065E+03  0.25500000000E-02 0.  1.
     200001    2    1    2    0    0 -0.38829194910E+03 -0.19701500140E+03  0.44490459357E+03  0.87363476184E+03  0.61295354734E+03 0.  0.
    5000001    2    3    3    0    0  0.12962221138E+03 -0.59277876561E+02 -0.62896031950E+01  0.16583267341E+03  0.84528883387E+02 0.  0.
        -13    1    4    4    0    0  0.89650578600E+02 -0.52574296904E+01 -0.17194880520E+02  0.91435998876E+02  0.10566000000E+00 0. -1.
     200003    1    4    4    0    0  0.39971632785E+02 -0.54020446870E+02  0.10905277325E+02  0.74396674530E+02  0.30000000000E+02 0. -1.
     200000    1    3    3    0    0 -0.51791416049E+03 -0.13773712484E+03  0.45119419677E+03  0.70780208843E+03  0.10100000000E+03 0.  1.
    -200001    1    1    2    0    0  0.38829194910E+03  0.19701500140E+03 -0.29930009093E+03  0.80928060211E+03  0.61300000000E+03 0.  1.
<mgrwt>
<rscale>  0 0.16766047E+04</rscale>
<asrwt>0</asrwt>
<pdfrwt beam="1">  1        2 0.10980792E+00 0.16766047E+04</pdfrwt>
<pdfrwt beam="2">  1       -2 0.13060856E+00 0.16766047E+04</pdfrwt>
<totfact> 0.16411746E+01</totfact>
</mgrwt>
</event>
<event>
 8    1  0.7583103E-052  0.1498121E+04  0.7818608E-02  0.8885704E-01
         -2   -1    0    0    0  501 -0.00000000000E+00  0.00000000000E+00  0.12726562803E+03  0.12726562806E+03  0.25500000000E-02 0. -1.
          2   -1    0    0  501    0  0.00000000000E+00 -0.00000000000E+00 -0.44088211756E+04  0.44088211756E+04  0.25500000000E-02 0.  1.
     200001    2    1    2    0    0 -0.29964796626E+03 -0.11228798617E+03 -0.12685703856E+04  0.14447689485E+04  0.61293474021E+03 0.  0.
    5000001    2    3    3    0    0 -0.54830305662E+02  0.18781099854E+03 -0.35767747899E+03  0.44982072125E+03  0.19006885251E+03 0.  0.
        -13    1    4    4    0    0 -0.11537913880E+02  0.38829390092E+02 -0.26195995852E+03  0.26507334084E+03  0.10566000000E+00 0. -1.
     200003    1    4    4    0    0 -0.43292391781E+02  0.14898160845E+03 -0.95717520470E+02  0.18474738041E+03  0.30000000000E+02 0. -1.
     200000    1    3    3    0    0 -0.24481766060E+03 -0.30009898471E+03 -0.91089290663E+03  0.99494822726E+03  0.10100000000E+03 0.  1.
    -200001    1    1    2    0    0  0.29964796626E+03  0.11228798617E+03 -0.30129851619E+04  0.30913178551E+04  0.61300000000E+03 0. -1.
<mgrwt>
<rscale>  0 0.14981207E+04</rscale>
<asrwt>0</asrwt>
<pdfrwt beam="1">  1        2 0.62983150E+00 0.14981207E+04</pdfrwt>
<pdfrwt beam="2">  1       -2 0.18180807E-01 0.14981207E+04</pdfrwt>
<totfact> 0.71824727E+00</totfact>
</mgrwt>
</event>
<event>
 8    1  0.7583103E-052  0.1779502E+04  0.7818608E-02  0.8717277E-01
          2   -1    0    0  501    0  0.00000000000E+00  0.00000000000E+00  0.11822580202E+04  0.11822580202E+04  0.25500000000E-02 0.  1.
         -2   -1    0    0    0  501 -0.00000000000E+00 -0.00000000000E+00 -0.66961419908E+03  0.66961419908E+03  0.25500000000E-02 0. -1.
     200001    2    1    2    0    0  0.48943012388E+03 -0.31680295261E+01 -0.18045429308E+03  0.80511251500E+03  0.61326220113E+03 0.  0.
    5000001    2    3    3    0    0  0.54895269116E+03  0.10553525810E+03 -0.15286960044E+02  0.57524170637E+03  0.13484280394E+03 0.  0.
        -13    1    4    4    0    0  0.31769808390E+03  0.12060979530E+03 -0.29709287055E+02  0.34111793875E+03  0.10566000000E+00 0. -1.
     200003    1    4    4    0    0  0.23125460725E+03 -0.15074537204E+02  0.14422327011E+02  0.23412376762E+03  0.30000000000E+02 0. -1.
     200000    1    3    3    0    0 -0.59522567272E+02 -0.10870328762E+03 -0.16516733304E+03  0.22987080862E+03  0.10100000000E+03 0.  1.
    -200001    1    1    2    0    0 -0.48943012388E+03  0.31680295261E+01  0.69309811416E+03  0.10467597042E+04  0.61300000000E+03 0.  1.
<mgrwt>
<rscale>  0 0.17795019E+04</rscale>
<asrwt>0</asrwt>
<pdfrwt beam="1">  1        2 0.16889400E+00 0.17795019E+04</pdfrwt>
<pdfrwt beam="2">  1       -2 0.95659172E-01 0.17795019E+04</pdfrwt>
<totfact> 0.19032206E+01</totfact>
</mgrwt>
</event>
<event>
 8    1  0.7583103E-052  0.1402922E+04  0.7818608E-02  0.8951706E-01
         -2   -1    0    0    0  501 -0.00000000000E+00  0.00000000000E+00  0.18784621077E+03  0.18784621078E+03  0.25500000000E-02 0. -1.
          2   -1    0    0  501    0  0.00000000000E+00 -0.00000000000E+00 -0.26194187327E+04  0.26194187327E+04  0.25500000000E-02 0.  1.
     200001    2    1    2    0    0  0.89388266458E+02 -0.31964970830E+03 -0.10515622076E+04  0.12611848466E+04  0.61207674578E+03 0.  0.
    5000001    2    3    3    0    0  0.21766122491E+03 -0.11943229589E+03 -0.94703756186E+03  0.98249619299E+03  0.82329481501E+02 0.  0.
        -13    1    4    4    0    0  0.29820748559E+02  0.97110151591E+01 -0.12952273475E+03  0.13326564014E+03  0.10566000000E+00 0. -1.
     200003    1    4    4    0    0  0.18784047635E+03 -0.12914331105E+03 -0.81751482711E+03  0.84923055285E+03  0.30000000000E+02 0. -1.
     200000    1    3    3    0    0 -0.12827295846E+03 -0.20021741241E+03 -0.10452464574E+03  0.27868865364E+03  0.10100000000E+03 0. -1.
    -200001    1    1    2    0    0 -0.89388266458E+02  0.31964970830E+03 -0.13800103143E+04  0.15460800968E+04  0.61300000000E+03 0.  1.
<mgrwt>
<rscale>  0 0.14029225E+04</rscale>
<asrwt>0</asrwt>
<pdfrwt beam="1">  1        2 0.37420266E+00 0.14029225E+04</pdfrwt>
<pdfrwt beam="2">  1       -2 0.26835174E-01 0.14029225E+04</pdfrwt>
<totfact> 0.46913340E+01</totfact>
</mgrwt>
</event>
<event>
 8    1  0.7583103E-052  0.1652134E+04  0.7818608E-02  0.8789145E-01
         -2   -1    0    0    0  501 -0.00000000000E+00  0.00000000000E+00  0.52181273983E+03  0.52181273983E+03  0.25500000000E-02 0. -1.
          2   -1    0    0  501    0  0.00000000000E+00 -0.00000000000E+00 -0.13077226187E+04  0.13077226187E+04  0.25500000000E-02 0.  1.
     200001    2    1    2    0    0 -0.83652866639E+01  0.84946527965E+02 -0.99888804094E+03  0.11750014876E+04  0.61283381667E+03 0.  0.
    5000001    2    3    3    0    0  0.72188418633E+02  0.31009638184E+02  0.43588279315E+02  0.12316691608E+03  0.84245983154E+02 0.  0.
        -13    1    4    4    0    0  0.15336963865E+02  0.33746428395E+02 -0.11132935188E+02  0.38703970080E+02  0.10566000000E+00 0. -1.
     200003    1    4    4    0    0  0.56851454768E+02 -0.27367902116E+01  0.54721214503E+02  0.84462945998E+02  0.30000000000E+02 0. -1.
     200000    1    3    3    0    0 -0.80553705297E+02  0.53936889781E+02 -0.10424763203E+04  0.10518345715E+04  0.10100000000E+03 0.  1.
    -200001    1    1    2    0    0  0.83652866639E+01 -0.84946527965E+02  0.21297816211E+03  0.65453387091E+03  0.61300000000E+03 0. -1.
<mgrwt>
<rscale>  0 0.16521336E+04</rscale>
<asrwt>0</asrwt>
<pdfrwt beam="1">  1        2 0.18681752E+00 0.16521336E+04</pdfrwt>
<pdfrwt beam="2">  1       -2 0.74544677E-01 0.16521336E+04</pdfrwt>
<totfact> 0.28807033E+01</totfact>
</mgrwt>
</event>
<event>
 8    1  0.7583103E-052  0.1692344E+04  0.7818608E-02  0.8765743E-01
          2   -1    0    0  501    0  0.00000000000E+00  0.00000000000E+00  0.55669172512E+03  0.55669172512E+03  0.25500000000E-02 0.  1.
         -2   -1    0    0    0  501 -0.00000000000E+00 -0.00000000000E+00 -0.12861828013E+04  0.12861828013E+04  0.25500000000E-02 0. -1.
     200001    2    1    2    0    0 -0.31609005965E+03 -0.36060027221E+03 -0.72683409770E+03  0.10645933808E+04  0.61247512499E+03 0.  0.
    5000001    2    3    3    0    0 -0.35092832802E+02 -0.10429166496E+03 -0.64092413142E+03  0.66180923768E+03  0.12287988662E+03 0.  0.
        -13    1    4    4    0    0 -0.20371189764E+02  0.17351648848E+02 -0.24049409105E+03  0.24197827193E+03  0.10566000000E+00 0. -1.
     200003    1    4    4    0    0 -0.14721643038E+02 -0.12164331381E+03 -0.40043004037E+03  0.41983096574E+03  0.30000000000E+02 0. -1.
     200000    1    3    3    0    0 -0.28099722685E+03 -0.25630860725E+03 -0.85909966281E+02  0.40278414313E+03  0.10100000000E+03 0.  1.
    -200001    1    1    2    0    0  0.31609005965E+03  0.36060027221E+03 -0.26569785019E+01  0.77828114564E+03  0.61300000000E+03 0. -1.
<mgrwt>
<rscale>  0 0.16923443E+04</rscale>
<asrwt>0</asrwt>
<pdfrwt beam="1">  1        2 0.79527389E-01 0.16923443E+04</pdfrwt>
<pdfrwt beam="2">  1       -2 0.18374040E+00 0.16923443E+04</pdfrwt>
<totfact> 0.96619420E+00</totfact>
</mgrwt>
</event>
<event>
 8    1  0.7583103E-052  0.1262420E+04  0.7818608E-02  0.9059909E-01
         -2   -1    0    0    0  501 -0.00000000000E+00  0.00000000000E+00  0.17467017885E+03  0.17467017887E+03  0.25500000000E-02 0. -1.
          2   -1    0    0  501    0  0.00000000000E+00 -0.00000000000E+00 -0.22810201116E+04  0.22810201116E+04  0.25500000000E-02 0.  1.
     200001    2    1    2    0    0  0.50180660406E+02  0.74086530014E+02 -0.12892015188E+04  0.14302599208E+04  0.61285885193E+03 0.  0.
    5000001    2    3    3    0    0  0.32686581796E+02 -0.24960502402E+03 -0.66625509151E+03  0.72079144638E+03  0.11078529487E+03 0.  0.
        -13    1    4    4    0    0 -0.31369941408E+02 -0.14542282167E+03 -0.34284885144E+03  0.37373415201E+03  0.10566000000E+00 0. -1.
     200003    1    4    4    0    0  0.64056523204E+02 -0.10418220235E+03 -0.32340624007E+03  0.34705729436E+03  0.30000000000E+02 0. -1.
     200000    1    3    3    0    0  0.17494078610E+02  0.32369155403E+03 -0.62294642730E+03  0.70946847444E+03  0.10100000000E+03 0.  1.
    -200001    1    1    2    0    0 -0.50180660406E+02 -0.74086530014E+02 -0.81714841394E+03  0.10254303697E+04  0.61300000000E+03 0. -1.
<mgrwt>
<rscale>  0 0.12624202E+04</rscale>
<asrwt>0</asrwt>
<pdfrwt beam="1">  1        2 0.32586000E+00 0.12624202E+04</pdfrwt>
<pdfrwt beam="2">  1       -2 0.24952884E-01 0.12624202E+04</pdfrwt>
<totfact> 0.81388269E+01</totfact>
</mgrwt>
</event>
<event>
 8    1  0.7583103E-052  0.2623919E+04  0.7818608E-02  0.8360121E-01
          2   -1    0    0  501    0  0.00000000000E+00  0.00000000000E+00  0.25310237750E+04  0.25310237750E+04  0.25500000000E-02 0.  1.
         -2   -1    0    0    0  501 -0.00000000000E+00 -0.00000000000E+00 -0.68005607752E+03  0.68005607752E+03  0.25500000000E-02 0. -1.
     200001    2    1    2    0    0  0.36249920886E+03  0.45336303444E+03  0.21532161209E+04  0.23143821182E+04  0.61893554457E+03 0.  0.
    5000001    2    3    3    0    0 -0.31686231702E+02  0.19922295757E+03  0.17538269191E+03  0.27919283633E+03  0.80596198008E+02 0.  0.
        -13    1    4    4    0    0 -0.27520471273E+01 -0.63427371587E+01  0.96384697219E+01  0.11862349711E+02  0.10566000000E+00 0. -1.
     200003    1    4    4    0    0 -0.28934184575E+02  0.20556569473E+03  0.16574422219E+03  0.26733048662E+03  0.30000000000E+02 0. -1.
     200000    1    3    3    0    0  0.39418544056E+03  0.25414007687E+03  0.19778334290E+04  0.20351892818E+04  0.10100000000E+03 0.  1.
    -200001    1    1    2    0    0 -0.36249920886E+03 -0.45336303444E+03 -0.30224842336E+03  0.89669773438E+03  0.61300000000E+03 0. -1.
<mgrwt>
<rscale>  0 0.26239193E+04</rscale>
<asrwt>0</asrwt>
<pdfrwt beam="1">  1        2 0.36157483E+00 0.26239193E+04</pdfrwt>
<pdfrwt beam="2">  1       -2 0.97150867E-01 0.26239193E+04</pdfrwt>
<totfact> 0.33334509E+00</totfact>
</mgrwt>
</event>
<event>
 8    1  0.7583103E-052  0.1321978E+04  0.7818608E-02  0.9012316E-01
          2   -1    0    0  501    0  0.00000000000E+00  0.00000000000E+00  0.24903015760E+04  0.24903015760E+04  0.25500000000E-02 0. -1.
         -2   -1    0    0    0  501 -0.00000000000E+00 -0.00000000000E+00 -0.17544315616E+03  0.17544315618E+03  0.25500000000E-02 0.  1.
     200001    2    1    2    0    0 -0.23110500534E+03 -0.91498859907E+02  0.12211190538E+04  0.13875364684E+04  0.61020008408E+03 0.  0.
    5000001    2    3    3    0    0 -0.18819771635E+03  0.20286727491E+03  0.31450403494E+03  0.42803438436E+03  0.87904121267E+02 0.  0.
        -13    1    4    4    0    0 -0.13853519251E+01 -0.45116548799E+01 -0.18647121136E+01  0.50756817290E+01  0.10566000000E+00 0. -1.
     200003    1    4    4    0    0 -0.18681236442E+03  0.20737892979E+03  0.31636874705E+03  0.42295870263E+03  0.30000000000E+02 0. -1.
     200000    1    3    3    0    0 -0.42907288992E+02 -0.29436613481E+03  0.90661501886E+03  0.95950208399E+03  0.10100000000E+03 0. -1.
    -200001    1    1    2    0    0  0.23110500534E+03  0.91498859907E+02  0.10937393660E+04  0.12782082638E+04  0.61300000000E+03 0. -1.
<mgrwt>
<rscale>  0 0.13219779E+04</rscale>
<asrwt>0</asrwt>
<pdfrwt beam="1">  1        2 0.35575736E+00 0.13219779E+04</pdfrwt>
<pdfrwt beam="2">  1       -2 0.25063308E-01 0.13219779E+04</pdfrwt>
<totfact> 0.62558186E+01</totfact>
</mgrwt>
</event>
<event>
 8    1  0.7583103E-052  0.1304410E+04  0.7818608E-02  0.9026075E-01
         -2   -1    0    0    0  501 -0.00000000000E+00  0.00000000000E+00  0.22884902203E+03  0.22884902204E+03  0.25500000000E-02 0. -1.
          2   -1    0    0  501    0  0.00000000000E+00 -0.00000000000E+00 -0.18587418946E+04  0.18587418946E+04  0.25500000000E-02 0.  1.
     200001    2    1    2    0    0 -0.16031140671E+03 -0.13476428157E+02 -0.10611000924E+04  0.12360184957E+04  0.61312882379E+03 0.  0.
    5000001    2    3    3    0    0  0.10061338890E+03  0.21239082718E+03 -0.28290535851E+03  0.37876368543E+03  0.90518340871E+02 0.  0.
        -13    1    4    4    0    0  0.80408768494E+02  0.10283378276E+03 -0.10897511910E+03  0.17004688964E+03  0.10566000000E+00 0. -1.
     200003    1    4    4    0    0  0.20204620407E+02  0.10955704441E+03 -0.17393023941E+03  0.20871679579E+03  0.30000000000E+02 0. -1.
     200000    1    3    3    0    0 -0.26092479562E+03 -0.22586725533E+03 -0.77819473386E+03  0.85725481032E+03  0.10100000000E+03 0.  1.
    -200001    1    1    2    0    0  0.16031140671E+03  0.13476428157E+02 -0.56879278024E+03  0.85157242093E+03  0.61300000000E+03 0. -1.
<mgrwt>
<rscale>  0 0.13044099E+04</rscale>
<asrwt>0</asrwt>
<pdfrwt beam="1">  1        2 0.26553455E+00 0.13044099E+04</pdfrwt>
<pdfrwt beam="2">  1       -2 0.32692719E-01 0.13044099E+04</pdfrwt>
<totfact> 0.81135632E+01</totfact>
</mgrwt>
</event>
<event>
 8    1  0.7583103E-052  0.1467701E+04  0.7818608E-02  0.8906220E-01
         -2   -1    0    0    0  501 -0.00000000000E+00  0.00000000000E+00  0.15538462382E+03  0.15538462384E+03  0.25500000000E-02 0. -1.
          2   -1    0    0  501    0  0.00000000000E+00 -0.00000000000E+00 -0.34658295787E+04  0.34658295787E+04  0.25500000000E-02 0.  1.
     200001    2    1    2    0    0 -0.30133643455E+03  0.23388121604E+03 -0.13214472624E+04  0.15052310054E+04  0.61155003249E+03 0.  0.
    5000001    2    3    3    0    0  0.66855148433E+01  0.34820466083E+03 -0.49535080057E+03  0.61047755577E+03  0.77583816206E+02 0.  0.
        -13    1    4    4    0    0  0.35638980034E+02  0.13976690267E+03 -0.20016782099E+03  0.24672270204E+03  0.10566000000E+00 0. -1.
     200003    1    4    4    0    0 -0.28953465190E+02  0.20843775816E+03 -0.29518297958E+03  0.36375485372E+03  0.30000000000E+02 0. -1.
     200000    1    3    3    0    0 -0.30802194939E+03 -0.11432344479E+03 -0.82609646185E+03  0.89475344962E+03  0.10100000000E+03 0.  1.
    -200001    1    1    2    0    0  0.30133643455E+03 -0.23388121604E+03 -0.19889976925E+04  0.21159831971E+04  0.61300000000E+03 0.  1.
<mgrwt>
<rscale>  0 0.14677011E+04</rscale>
<asrwt>0</asrwt>
<pdfrwt beam="1">  1        2 0.49511846E+00 0.14677011E+04</pdfrwt>
<pdfrwt beam="2">  1       -2 0.22197806E-01 0.14677011E+04</pdfrwt>
<totfact> 0.21972238E+01</totfact>
</mgrwt>
</event>
<event>
 8    1  0.7583103E-052  0.1256475E+04  0.7818608E-02  0.9064811E-01
          2   -1    0    0  501    0  0.00000000000E+00  0.00000000000E+00  0.14928667414E+04  0.14928667414E+04  0.25500000000E-02 0.  1.
         -2   -1    0    0    0  501 -0.00000000000E+00 -0.00000000000E+00 -0.26437890738E+03  0.26437890739E+03  0.25500000000E-02 0. -1.
     200001    2    1    2    0    0 -0.21901341646E+02  0.15712722698E+02  0.42544644188E+03  0.74661661896E+03  0.61294791164E+03 0.  0.
    5000001    2    3    3    0    0  0.13544142157E+03  0.97394442521E+02  0.12335379806E+03  0.38207634144E+03  0.32083658626E+03 0.  0.
        -13    1    4    4    0    0  0.99947869492E+02 -0.11020417455E+03  0.46297981105E+02  0.15581415508E+03  0.10566000000E+00 0. -1.
     200003    1    4    4    0    0  0.35493552075E+02  0.20759861707E+03  0.77055816960E+02  0.22626218636E+03  0.30000000000E+02 0. -1.
     200000    1    3    3    0    0 -0.15734276321E+03 -0.81681719823E+02  0.30209264381E+03  0.36454027752E+03  0.10100000000E+03 0. -1.
    -200001    1    1    2    0    0  0.21901341646E+02 -0.15712722698E+02  0.80304139212E+03  0.10106290298E+04  0.61300000000E+03 0.  1.
<mgrwt>
<rscale>  0 0.12564752E+04</rscale>
<asrwt>0</asrwt>
<pdfrwt beam="1">  1        2 0.21326669E+00 0.12564752E+04</pdfrwt>
<pdfrwt beam="2">  1       -2 0.37768414E-01 0.12564752E+04</pdfrwt>
<totfact> 0.95858381E+01</totfact>
</mgrwt>
</event>
<event>
 8    1  0.7583103E-052  0.1267688E+04  0.7818608E-02  0.9055589E-01
         -2   -1    0    0    0  501 -0.00000000000E+00  0.00000000000E+00  0.22203601206E+03  0.22203601208E+03  0.25500000000E-02 0. -1.
          2   -1    0    0  501    0  0.00000000000E+00 -0.00000000000E+00 -0.18094273029E+04  0.18094273029E+04  0.25500000000E-02 0.  1.
     200001    2    1    2    0    0  0.30768073057E+02  0.60931307006E+02 -0.52199419652E+03  0.80040715579E+03  0.60292153332E+03 0.  0.
    5000001    2    3    3    0    0 -0.11239504550E+03 -0.16405894596E+02  0.76923888226E+02  0.17161419025E+03  0.10311326823E+03 0.  0.
        -13    1    4    4    0    0 -0.18890633625E+02 -0.41296923382E+02  0.48402794116E+02  0.66371180205E+02  0.10566000000E+00 0. -1.
     200003    1    4    4    0    0 -0.93504411878E+02  0.24891028786E+02  0.28521094110E+02  0.10524301005E+03  0.30000000000E+02 0. -1.
     200000    1    3    3    0    0  0.14316311856E+03  0.77337201601E+02 -0.59891808475E+03  0.62879296553E+03  0.10100000000E+03 0.  1.
    -200001    1    1    2    0    0 -0.30768073057E+02 -0.60931307006E+02 -0.10653970943E+04  0.12310561592E+04  0.61300000000E+03 0.  1.
<mgrwt>
<rscale>  0 0.12676877E+04</rscale>
<asrwt>0</asrwt>
<pdfrwt beam="1">  1        2 0.25848961E+00 0.12676877E+04</pdfrwt>
<pdfrwt beam="2">  1       -2 0.31719431E-01 0.12676877E+04</pdfrwt>
<totfact> 0.91301049E+01</totfact>
</mgrwt>
</event>
<event>
 8    1  0.7583103E-052  0.1365099E+04  0.7818608E-02  0.8979476E-01
         -2   -1    0    0    0  501 -0.00000000000E+00  0.00000000000E+00  0.69066432066E+03  0.69066432067E+03  0.25500000000E-02 0. -1.
          2   -1    0    0  501    0  0.00000000000E+00 -0.00000000000E+00 -0.67453040224E+03  0.67453040225E+03  0.25500000000E-02 0.  1.
     200001    2    1    2    0    0 -0.25714442862E+03 -0.57587028571E+01  0.16244932093E+03  0.68450858611E+03  0.61319312028E+03 0.  0.
    5000001    2    3    3    0    0 -0.21706552436E+03 -0.15521006045E+03 -0.14649186659E+03  0.32452569179E+03  0.11246978671E+03 0.  0.
        -13    1    4    4    0    0 -0.14623564841E+03 -0.11371674132E+03 -0.45087492741E+02  0.19065480662E+03  0.10566000000E+00 0. -1.
     200003    1    4    4    0    0 -0.70829875951E+02 -0.41493319135E+02 -0.10140437385E+03  0.13387088517E+03  0.30000000000E+02 0. -1.
     200000    1    3    3    0    0 -0.40078904262E+02  0.14945135760E+03  0.30894118752E+03  0.35998289432E+03  0.10100000000E+03 0.  1.
    -200001    1    1    2    0    0  0.25714442862E+03  0.57587028571E+01 -0.14631540251E+03  0.68068613681E+03  0.61300000000E+03 0.  1.
<mgrwt>
<rscale>  0 0.13650994E+04</rscale>
<asrwt>0</asrwt>
<pdfrwt beam="1">  1        2 0.96361486E-01 0.13650994E+04</pdfrwt>
<pdfrwt beam="2">  1       -2 0.98666331E-01 0.13650994E+04</pdfrwt>
<totfact> 0.39264350E+01</totfact>
</mgrwt>
</event>
<event>
 8    1  0.7583103E-052  0.1332023E+04  0.7818608E-02  0.9004549E-01
          2   -1    0    0  501    0  0.00000000000E+00  0.00000000000E+00  0.16565188411E+04  0.16565188411E+04  0.25500000000E-02 0.  1.
         -2   -1    0    0    0  501 -0.00000000000E+00 -0.00000000000E+00 -0.26777315870E+03  0.26777315871E+03  0.25500000000E-02 0. -1.
     200001    2    1    2    0    0 -0.53849033593E+02 -0.60045225929E+02  0.33631337554E+03  0.70368235374E+03  0.61282707252E+03 0.  0.
    5000001    2    3    3    0    0 -0.27407225674E+03  0.63424347948E+02  0.27701804597E+02  0.29236118311E+03  0.74628557436E+02 0.  0.
        -13    1    4    4    0    0 -0.67727627873E+02  0.12299912146E+02  0.35659441638E+02  0.77523714811E+02  0.10566000000E+00 0. -1.
     200003    1    4    4    0    0 -0.20634462887E+03  0.51124435802E+02 -0.79576370417E+01  0.21483746830E+03  0.30000000000E+02 0. -1.
     200000    1    3    3    0    0  0.22022322315E+03 -0.12346957388E+03  0.30861157095E+03  0.41132117063E+03  0.10100000000E+03 0.  1.
    -200001    1    1    2    0    0  0.53849033593E+02  0.60045225929E+02  0.10524323069E+04  0.12206096461E+04  0.61300000000E+03 0.  1.
<mgrwt>
<rscale>  0 0.13320229E+04</rscale>
<asrwt>0</asrwt>
<pdfrwt beam="1">  1        2 0.23664555E+00 0.13320229E+04</pdfrwt>
<pdfrwt beam="2">  1       -2 0.38253307E-01 0.13320229E+04</pdfrwt>
<totfact> 0.76288648E+01</totfact>
</mgrwt>
</event>
<event>
 8    1  0.7583103E-052  0.1399981E+04  0.7818608E-02  0.8953832E-01
          2   -1    0    0  501    0  0.00000000000E+00  0.00000000000E+00  0.11576869033E+04  0.11576869033E+04  0.25500000000E-02 0.  1.
         -2   -1    0    0    0  501 -0.00000000000E+00 -0.00000000000E+00 -0.42324655105E+03  0.42324655106E+03  0.25500000000E-02 0. -1.
     200001    2    1    2    0    0  0.71054233404E+02 -0.26247485020E+03  0.59676769820E+03  0.89634269286E+03  0.61102928436E+03 0.  0.
    5000001    2    3    3    0    0  0.17884270106E+03  0.10032749093E+03  0.40372130509E+03  0.45963706845E+03  0.78898829852E+02 0.  0.
        -13    1    4    4    0    0  0.52881163017E+02  0.65742669933E+02  0.18103156684E+03  0.19972720248E+03  0.10566000000E+00 0. -1.
     200003    1    4    4    0    0  0.12596153805E+03  0.34584820998E+02  0.22268973824E+03  0.25990986597E+03  0.30000000000E+02 0. -1.
     200000    1    3    3    0    0 -0.10778846766E+03 -0.36280234114E+03  0.19304639311E+03  0.43670562441E+03  0.10100000000E+03 0.  1.
    -200001    1    1    2    0    0 -0.71054233404E+02  0.26247485020E+03  0.13767265406E+03  0.68459076151E+03  0.61300000000E+03 0. -1.
<mgrwt>
<rscale>  0 0.13999814E+04</rscale>
<asrwt>0</asrwt>
<pdfrwt beam="1">  1        2 0.16538384E+00 0.13999814E+04</pdfrwt>
<pdfrwt beam="2">  1       -2 0.60463793E-01 0.13999814E+04</pdfrwt>
<totfact> 0.56125486E+01</totfact>
</mgrwt>
</event>
<event>
 8    1  0.7583103E-052  0.1818784E+04  0.7818608E-02  0.8696374E-01
         -2   -1    0    0    0  501 -0.00000000000E+00  0.00000000000E+00  0.84729512187E+03  0.84729512187E+03  0.25500000000E-02 0.  1.
          2   -1    0    0  501    0  0.00000000000E+00 -0.00000000000E+00 -0.97603951816E+03  0.97603951817E+03  0.25500000000E-02 0. -1.
     200001    2    1    2    0    0 -0.30272532813E+03  0.45233031711E+03 -0.45924591559E+03  0.93945365578E+03  0.61271610090E+03 0.  0.
    5000001    2    3    3    0    0 -0.42993375550E+03  0.34829125929E+03 -0.15747133848E+03  0.58129865451E+03  0.83433014318E+02 0.  0.
        -13    1    4    4    0    0 -0.18077206525E+03  0.17418554708E+03 -0.40785265629E+02  0.25432772842E+03  0.10566000000E+00 0. -1.
     200003    1    4    4    0    0 -0.24916169024E+03  0.17410571221E+03 -0.11668607285E+03  0.32697092609E+03  0.30000000000E+02 0. -1.
     200000    1    3    3    0    0  0.12720842737E+03  0.10403905782E+03 -0.30177457711E+03  0.35815500127E+03  0.10100000000E+03 0. -1.
    -200001    1    1    2    0    0  0.30272532813E+03 -0.45233031711E+03  0.33050151929E+03  0.88388098425E+03  0.61300000000E+03 0. -1.
<mgrwt>
<rscale>  0 0.18187837E+04</rscale>
<asrwt>0</asrwt>
<pdfrwt beam="1">  1        2 0.13943422E+00 0.18187837E+04</pdfrwt>
<pdfrwt beam="2">  1       -2 0.12104216E+00 0.18187837E+04</pdfrwt>
<totfact> 0.14286346E+01</totfact>
</mgrwt>
</event>
<event>
 8    1  0.7583103E-052  0.1738594E+04  0.7818608E-02  0.8739654E-01
          2   -1    0    0  501    0  0.00000000000E+00  0.00000000000E+00  0.20276451596E+04  0.20276451596E+04  0.25500000000E-02 0.  1.
         -2   -1    0    0    0  501 -0.00000000000E+00 -0.00000000000E+00 -0.37268730430E+03  0.37268730431E+03  0.25500000000E-02 0. -1.
     200001    2    1    2    0    0 -0.19181637668E+03  0.48342187928E+03  0.12838443672E+04  0.15149034962E+04  0.61334004277E+03 0.  0.
    5000001    2    3    3    0    0 -0.30906120233E+03  0.24678593046E+03  0.38410870910E+03  0.57178729140E+03  0.15158853501E+03 0.  0.
        -13    1    4    4    0    0 -0.14594026070E+03  0.11042165701E+03  0.80511731357E+02  0.19993411935E+03  0.10566000000E+00 0. -1.
     200003    1    4    4    0    0 -0.16312094163E+03  0.13636427345E+03  0.30359697774E+03  0.37185317205E+03  0.30000000000E+02 0. -1.
     200000    1    3    3    0    0  0.11724482565E+03  0.23663594882E+03  0.89973565807E+03  0.94311620484E+03  0.10100000000E+03 0.  1.
    -200001    1    1    2    0    0  0.19181637668E+03 -0.48342187928E+03  0.37111348813E+03  0.88542896768E+03  0.61300000000E+03 0. -1.
<mgrwt>
<rscale>  0 0.17385944E+04</rscale>
<asrwt>0</asrwt>
<pdfrwt beam="1">  1        2 0.28966359E+00 0.17385944E+04</pdfrwt>
<pdfrwt beam="2">  1       -2 0.53241045E-01 0.17385944E+04</pdfrwt>
<totfact> 0.24557465E+01</totfact>
</mgrwt>
</event>
<event>
 8    1  0.7583103E-052  0.1575743E+04  0.7818608E-02  0.8835590E-01
         -2   -1    0    0    0  501 -0.00000000000E+00  0.00000000000E+00  0.25594933427E+03  0.25594933428E+03  0.25500000000E-02 0. -1.
          2   -1    0    0  501    0  0.00000000000E+00 -0.00000000000E+00 -0.24252528405E+04  0.24252528405E+04  0.25500000000E-02 0.  1.
     200001    2    1    2    0    0 -0.37372841188E+03 -0.31005476681E+03 -0.12414822484E+04  0.14677656619E+04  0.61420760413E+03 0.  0.
    5000001    2    3    3    0    0 -0.25466582504E+03  0.12922863807E+02 -0.11909495384E+03  0.28944283331E+03  0.67615551963E+02 0.  0.
        -13    1    4    4    0    0 -0.18991739847E+02 -0.11021078526E+02 -0.23711705560E+02  0.32317278643E+02  0.10566000000E+00 0. -1.
     200003    1    4    4    0    0 -0.23567408520E+03  0.23943942333E+02 -0.95383248283E+02  0.25712555466E+03  0.30000000000E+02 0. -1.
     200000    1    3    3    0    0 -0.11906258683E+03 -0.32297763061E+03 -0.11223872946E+04  0.11783228286E+04  0.10100000000E+03 0. -1.
    -200001    1    1    2    0    0  0.37372841188E+03  0.31005476681E+03 -0.92782125784E+03  0.12134365129E+04  0.61300000000E+03 0. -1.
<mgrwt>
<rscale>  0 0.15757434E+04</rscale>
<asrwt>0</asrwt>
<pdfrwt beam="1">  1        2 0.34646468E+00 0.15757434E+04</pdfrwt>
<pdfrwt beam="2">  1       -2 0.36564192E-01 0.15757434E+04</pdfrwt>
<totfact> 0.32744863E+01</totfact>
</mgrwt>
</event>
<event>
 8    1  0.7583103E-052  0.1280492E+04  0.7818608E-02  0.9045180E-01
         -2   -1    0    0    0  501 -0.00000000000E+00  0.00000000000E+00  0.24324180597E+03  0.24324180598E+03  0.25500000000E-02 0. -1.
          2   -1    0    0  501    0  0.00000000000E+00 -0.00000000000E+00 -0.16852165522E+04  0.16852165522E+04  0.25500000000E-02 0.  1.
     200001    2    1    2    0    0 -0.16249911044E+03 -0.71925694009E+02 -0.75452937372E+03  0.99041283342E+03  0.61646065442E+03 0.  0.
    5000001    2    3    3    0    0 -0.56018419974E+02  0.25526559267E+03 -0.23744523722E+03  0.36115193384E+03  0.75841231952E+02 0.  0.
        -13    1    4    4    0    0 -0.12706081952E+02  0.15558220752E+03 -0.10984949868E+03  0.19087742491E+03  0.10566000000E+00 0. -1.
     200003    1    4    4    0    0 -0.43312338022E+02  0.99683385147E+02 -0.12759573854E+03  0.17027450893E+03  0.30000000000E+02 0. -1.
     200000    1    3    3    0    0 -0.10648069047E+03 -0.32719128668E+03 -0.51708413650E+03  0.62926089958E+03  0.10100000000E+03 0.  1.
    -200001    1    1    2    0    0  0.16249911044E+03  0.71925694009E+02 -0.68744537254E+03  0.93804552479E+03  0.61300000000E+03 0. -1.
<mgrwt>
<rscale>  0 0.12804923E+04</rscale>
<asrwt>0</asrwt>
<pdfrwt beam="1">  1        2 0.24074521E+00 0.12804923E+04</pdfrwt>
<pdfrwt beam="2">  1       -2 0.34748830E-01 0.12804923E+04</pdfrwt>
<totfact> 0.88993042E+01</totfact>
</mgrwt>
</event>
<event>
 8    1  0.7583103E-052  0.1598293E+04  0.7818608E-02  0.8821597E-01
          2   -1    0    0  501    0  0.00000000000E+00  0.00000000000E+00  0.16300500084E+04  0.16300500084E+04  0.25500000000E-02 0.  1.
         -2   -1    0    0    0  501 -0.00000000000E+00 -0.00000000000E+00 -0.39178871716E+03  0.39178871717E+03  0.25500000000E-02 0. -1.
     200001    2    1    2    0    0 -0.43013700933E+03 -0.27679779393E+03  0.56786900239E+03  0.97932748512E+03  0.61234978053E+03 0.  0.
    5000001    2    3    3    0    0 -0.33515845288E+02 -0.35172065558E+03  0.37200559106E+03  0.51945222066E+03  0.81312473376E+02 0.  0.
        -13    1    4    4    0    0 -0.28462347984E+02 -0.27853028625E+03  0.25889027491E+03  0.38133110444E+03  0.10566000000E+00 0. -1.
     200003    1    4    4    0    0 -0.50534973040E+01 -0.73190369330E+02  0.11311531615E+03  0.13812111622E+03  0.30000000000E+02 0. -1.
     200000    1    3    3    0    0 -0.39662116404E+03  0.74922861644E+02  0.19586341133E+03  0.45987526446E+03  0.10100000000E+03 0. -1.
    -200001    1    1    2    0    0  0.43013700933E+03  0.27679779393E+03  0.67039228882E+03  0.10425112404E+04  0.61300000000E+03 0. -1.
<mgrwt>
<rscale>  0 0.15982931E+04</rscale>
<asrwt>0</asrwt>
<pdfrwt beam="1">  1        2 0.23286428E+00 0.15982931E+04</pdfrwt>
<pdfrwt beam="2">  1       -2 0.55969817E-01 0.15982931E+04</pdfrwt>
<totfact> 0.35940709E+01</totfact>
</mgrwt>
</event>
<event>
 8    1  0.7583103E-052  0.1374345E+04  0.7818608E-02  0.8972601E-01
         -2   -1    0    0    0  501 -0.00000000000E+00  0.00000000000E+00  0.41925720931E+03  0.41925720932E+03  0.25500000000E-02 0. -1.
          2   -1    0    0  501    0  0.00000000000E+00 -0.00000000000E+00 -0.11262925953E+04  0.11262925953E+04  0.25500000000E-02 0.  1.
     200001    2    1    2    0    0  0.26064745570E+03  0.96039248988E+02 -0.50893925053E+03  0.84400029645E+03  0.61331615515E+03 0.  0.
    5000001    2    3    3    0    0 -0.16242444684E+03  0.73755930552E+01 -0.30028989866E+03  0.35350398593E+03  0.91405385665E+02 0.  0.
        -13    1    4    4    0    0 -0.53618250053E+02  0.31521727559E+02 -0.57628130210E+02  0.84791205927E+02  0.10566000000E+00 0. -1.
     200003    1    4    4    0    0 -0.10880619678E+03 -0.24146134504E+02 -0.24266176845E+03  0.26871278000E+03  0.30000000000E+02 0. -1.
     200000    1    3    3    0    0  0.42307190253E+03  0.88663655933E+02 -0.20864935187E+03  0.49049631052E+03  0.10100000000E+03 0. -1.
    -200001    1    1    2    0    0 -0.26064745570E+03 -0.96039248988E+02 -0.19809613544E+03  0.70154950815E+03  0.61300000000E+03 0. -1.
<mgrwt>
<rscale>  0 0.13743454E+04</rscale>
<asrwt>0</asrwt>
<pdfrwt beam="1">  1        2 0.16089894E+00 0.13743454E+04</pdfrwt>
<pdfrwt beam="2">  1       -2 0.59893887E-01 0.13743454E+04</pdfrwt>
<totfact> 0.59830414E+01</totfact>
</mgrwt>
</event>
<event>
 8    1  0.7583103E-052  0.1363959E+04  0.7818608E-02  0.8980328E-01
          2   -1    0    0  501    0  0.00000000000E+00  0.00000000000E+00  0.14446002399E+04  0.14446002399E+04  0.25500000000E-02 0.  1.
         -2   -1    0    0    0  501 -0.00000000000E+00 -0.00000000000E+00 -0.32195504523E+03  0.32195504524E+03  0.25500000000E-02 0. -1.
     200001    2    1    2    0    0 -0.51932046471E+02  0.23490028573E+03  0.79010867713E+03  0.10288394746E+04  0.61348501290E+03 0.  0.
    5000001    2    3    3    0    0  0.16355131122E+03 -0.96392797803E+02  0.45787921867E+03  0.50275431253E+03  0.84070904612E+02 0.  0.
        -13    1    4    4    0    0  0.10042331530E+03 -0.43236487416E+02  0.17304703359E+03  0.20469372999E+03  0.10566000000E+00 0. -1.
     200003    1    4    4    0    0  0.63127995929E+02 -0.53156310387E+02  0.28483218508E+03  0.29806058254E+03  0.30000000000E+02 0. -1.
     200000    1    3    3    0    0 -0.21548335770E+03  0.33129308354E+03  0.33222945846E+03  0.52608516203E+03  0.10100000000E+03 0. -1.
    -200001    1    1    2    0    0  0.51932046471E+02 -0.23490028573E+03  0.33253651753E+03  0.73771581058E+03  0.61300000000E+03 0. -1.
<mgrwt>
<rscale>  0 0.13639594E+04</rscale>
<asrwt>0</asrwt>
<pdfrwt beam="1">  1        2 0.20637147E+00 0.13639594E+04</pdfrwt>
<pdfrwt beam="2">  1       -2 0.45993577E-01 0.13639594E+04</pdfrwt>
<totfact> 0.68493652E+01</totfact>
</mgrwt>
</event>
<event>
 8    1  0.7583103E-052  0.1440353E+04  0.7818608E-02  0.8925116E-01
         -2   -1    0    0    0  501 -0.00000000000E+00  0.00000000000E+00  0.69386260240E+03  0.69386260241E+03  0.25500000000E-02 0. -1.
          2   -1    0    0  501    0  0.00000000000E+00 -0.00000000000E+00 -0.74748864700E+03  0.74748864700E+03  0.25500000000E-02 0.  1.
     200001    2    1    2    0    0  0.31199685339E+03 -0.10928546102E+03  0.16268937585E+03  0.71207303800E+03  0.60933966711E+03 0.  0.
    5000001    2    3    3    0    0 -0.12039302058E+03  0.89992548153E+02  0.14818252439E+03  0.22516013327E+03  0.78395707488E+02 0.  0.
        -13    1    4    4    0    0 -0.11997912122E+02  0.22831858068E+02  0.65138168123E+02  0.70058802078E+02  0.10566000000E+00 0. -1.
     200003    1    4    4    0    0 -0.10839510846E+03  0.67160690085E+02  0.83044356272E+02  0.15510133120E+03  0.30000000000E+02 0. -1.
     200000    1    3    3    0    0  0.43238987397E+03 -0.19927800917E+03  0.14506851460E+02  0.48691290473E+03  0.10100000000E+03 0.  1.
    -200001    1    1    2    0    0 -0.31199685339E+03  0.10928546102E+03 -0.21631542045E+03  0.72927821141E+03  0.61300000000E+03 0.  1.
<mgrwt>
<rscale>  0 0.14403533E+04</rscale>
<asrwt>0</asrwt>
<pdfrwt beam="1">  1        2 0.10678409E+00 0.14403533E+04</pdfrwt>
<pdfrwt beam="2">  1       -2 0.99123229E-01 0.14403533E+04</pdfrwt>
<totfact> 0.34002030E+01</totfact>
</mgrwt>
</event>
<event>
 8    1  0.7583103E-052  0.1641630E+04  0.7818608E-02  0.8795374E-01
         -2   -1    0    0    0  501 -0.00000000000E+00  0.00000000000E+00  0.23866027181E+03  0.23866027182E+03  0.25500000000E-02 0. -1.
          2   -1    0    0  501    0  0.00000000000E+00 -0.00000000000E+00 -0.28229968645E+04  0.28229968645E+04  0.25500000000E-02 0.  1.
     200001    2    1    2    0    0  0.18741882051E+02  0.47496960515E+03 -0.17921892979E+04  0.19529580245E+04  0.61331491248E+03 0.  0.
    5000001    2    3    3    0    0 -0.15108165156E+03  0.41161825663E+03 -0.16305045914E+04  0.16899059949E+04  0.70581828433E+02 0.  0.
        -13    1    4    4    0    0 -0.65364836203E+02  0.11065104756E+03 -0.53205580483E+03  0.54735692812E+03  0.10566000000E+00 0. -1.
     200003    1    4    4    0    0 -0.85716815361E+02  0.30096720907E+03 -0.10984487866E+04  0.11425490668E+04  0.30000000000E+02 0. -1.
     200000    1    3    3    0    0  0.16982353361E+03  0.63351348517E+02 -0.16168470651E+03  0.26305202954E+03  0.10100000000E+03 0. -1.
    -200001    1    1    2    0    0 -0.18741882051E+02 -0.47496960515E+03 -0.79214729475E+03  0.11086991118E+04  0.61300000000E+03 0. -1.
<mgrwt>
<rscale>  0 0.16416299E+04</rscale>
<asrwt>0</asrwt>
<pdfrwt beam="1">  1        2 0.40328525E+00 0.16416299E+04</pdfrwt>
<pdfrwt beam="2">  1       -2 0.34094326E-01 0.16416299E+04</pdfrwt>
<totfact> 0.22860658E+01</totfact>
</mgrwt>
</event>
<event>
 8    1  0.7583103E-052  0.1540940E+04  0.7818608E-02  0.8857676E-01
         -2   -1    0    0    0  501 -0.00000000000E+00  0.00000000000E+00  0.31053546280E+03  0.31053546281E+03  0.25500000000E-02 0. -1.
          2   -1    0    0  501    0  0.00000000000E+00 -0.00000000000E+00 -0.19116143631E+04  0.19116143631E+04  0.25500000000E-02 0.  1.
     200001    2    1    2    0    0  0.39501481459E+03  0.24531649947E+03 -0.85150816248E+03  0.11479793647E+04  0.61365591535E+03 0.  0.
    5000001    2    3    3    0    0  0.26717122356E+03  0.35588510599E+03 -0.25506656884E+03  0.51987668592E+03  0.84723920224E+02 0.  0.
        -13    1    4    4    0    0  0.13670197523E+03  0.13183666514E+03 -0.13224334630E+03  0.23142309762E+03  0.10566000000E+00 0. -1.
     200003    1    4    4    0    0  0.13046924833E+03  0.22404844085E+03 -0.12282322254E+03  0.28845358830E+03  0.30000000000E+02 0. -1.
     200000    1    3    3    0    0  0.12784359103E+03 -0.11056860653E+03 -0.59644159364E+03  0.62810267882E+03  0.10100000000E+03 0.  1.
    -200001    1    1    2    0    0 -0.39501481459E+03 -0.24531649947E+03 -0.74957073781E+03  0.10741704612E+04  0.61300000000E+03 0. -1.
<mgrwt>
<rscale>  0 0.15409400E+04</rscale>
<asrwt>0</asrwt>
<pdfrwt beam="1">  1        2 0.27308776E+00 0.15409400E+04</pdfrwt>
<pdfrwt beam="2">  1       -2 0.44362210E-01 0.15409400E+04</pdfrwt>
<totfact> 0.41424114E+01</totfact>
</mgrwt>
</event>
<event>
 8    1  0.7583103E-052  0.1566824E+04  0.7818608E-02  0.8841192E-01
         -2   -1    0    0    0  501 -0.00000000000E+00  0.00000000000E+00  0.62626684018E+03  0.62626684018E+03  0.25500000000E-02 0. -1.
          2   -1    0    0  501    0  0.00000000000E+00 -0.00000000000E+00 -0.97998883971E+03  0.97998883971E+03  0.25500000000E-02 0.  1.
     200001    2    1    2    0    0 -0.19849762777E+03  0.44503605081E+03 -0.19834323786E+03  0.80790115067E+03  0.61311160036E+03 0.  0.
    5000001    2    3    3    0    0 -0.63885821167E+02  0.19129182381E+03 -0.39155692920E+03  0.44729194151E+03  0.77969815526E+02 0.  0.
        -13    1    4    4    0    0 -0.35842601949E+02  0.11844281269E+03 -0.29285174524E+03  0.31792380824E+03  0.10566000000E+00 0. -1.
     200003    1    4    4    0    0 -0.28043219219E+02  0.72849011117E+02 -0.98705183962E+02  0.12936813327E+03  0.30000000000E+02 0.  1.
     200000    1    3    3    0    0 -0.13461180660E+03  0.25374422700E+03  0.19321369134E+03  0.36060920916E+03  0.10100000000E+03 0. -1.
    -200001    1    1    2    0    0  0.19849762777E+03 -0.44503605081E+03 -0.15537876166E+03  0.79835452922E+03  0.61300000000E+03 0. -1.
<mgrwt>
<rscale>  0 0.15668242E+04</rscale>
<asrwt>0</asrwt>
<pdfrwt beam="1">  1        2 0.13999840E+00 0.15668242E+04</pdfrwt>
<pdfrwt beam="2">  1       -2 0.89466692E-01 0.15668242E+04</pdfrwt>
<totfact> 0.29840898E+01</totfact>
</mgrwt>
</event>
<event>
 8    1  0.7583103E-052  0.1970580E+04  0.7818608E-02  0.8620500E-01
         -2   -1    0    0    0  501 -0.00000000000E+00  0.00000000000E+00  0.56468857832E+03  0.56468857832E+03  0.25500000000E-02 0.  1.
          2   -1    0    0  501    0  0.00000000000E+00 -0.00000000000E+00 -0.17191716772E+04  0.17191716772E+04  0.25500000000E-02 0. -1.
     200001    2    1    2    0    0 -0.45691830680E+03  0.18313757193E+03  0.11102363376E+03  0.79403140638E+03  0.61306273555E+03 0.  0.
    5000001    2    3    3    0    0  0.10995479770E+03 -0.65544710181E+02 -0.74044366917E+01  0.15574134543E+03  0.88398950361E+02 0.  0.
        -13    1    4    4    0    0 -0.32811399137E+00  0.13961343464E+02  0.72714538326E+01  0.15745220703E+02  0.10566000000E+00 0. -1.
     200003    1    4    4    0    0  0.11028291169E+03 -0.79506053644E+02 -0.14675890524E+02  0.13999612473E+03  0.30000000000E+02 0. -1.
     200000    1    3    3    0    0 -0.56687310450E+03  0.24868228211E+03  0.11842807046E+03  0.63829006095E+03  0.10100000000E+03 0.  1.
    -200001    1    1    2    0    0  0.45691830680E+03 -0.18313757193E+03 -0.12655067326E+04  0.14898288491E+04  0.61300000000E+03 0. -1.
<mgrwt>
<rscale>  0 0.19705802E+04</rscale>
<asrwt>0</asrwt>
<pdfrwt beam="1">  1        2 0.24559595E+00 0.19705802E+04</pdfrwt>
<pdfrwt beam="2">  1       -2 0.80669797E-01 0.19705802E+04</pdfrwt>
<totfact> 0.14215246E+01</totfact>
</mgrwt>
</event>
<event>
 8    1  0.7583103E-052  0.1294576E+04  0.7818608E-02  0.9033877E-01
         -2   -1    0    0    0  501 -0.00000000000E+00  0.00000000000E+00  0.43226066394E+03  0.43226066395E+03  0.25500000000E-02 0. -1.
          2   -1    0    0  501    0  0.00000000000E+00 -0.00000000000E+00 -0.96928054916E+03  0.96928054917E+03  0.25500000000E-02 0.  1.
     200001    2    1    2    0    0 -0.78925818522E+02  0.12458119321E+03 -0.42920085353E+03  0.76189779517E+03  0.61198457422E+03 0.  0.
    5000001    2    3    3    0    0 -0.23905784771E+03  0.89164867495E+02  0.25768242056E+02  0.26783862782E+03  0.77294890578E+02 0.  0.
        -13    1    4    4    0    0 -0.19651000314E+03  0.64329989916E+02  0.59813293300E+01  0.20685820361E+03  0.10566000000E+00 0. -1.
     200003    1    4    4    0    0 -0.42547844564E+02  0.24834877579E+02  0.19786912726E+02  0.60980424208E+02  0.30000000000E+02 0.  1.
     200000    1    3    3    0    0  0.16013202918E+03  0.35416325718E+02 -0.45496909559E+03  0.49405916735E+03  0.10100000000E+03 0.  1.
    -200001    1    1    2    0    0  0.78925818522E+02 -0.12458119321E+03 -0.10781903169E+03  0.63964341795E+03  0.61300000000E+03 0. -1.
<mgrwt>
<rscale>  0 0.12945762E+04</rscale>
<asrwt>0</asrwt>
<pdfrwt beam="1">  1        2 0.13846865E+00 0.12945762E+04</pdfrwt>
<pdfrwt beam="2">  1       -2 0.61751524E-01 0.12945762E+04</pdfrwt>
<totfact> 0.70197058E+01</totfact>
</mgrwt>
</event>
<event>
 8    1  0.7583103E-052  0.1507621E+04  0.7818608E-02  0.8879401E-01
         -2   -1    0    0    0  501 -0.00000000000E+00  0.00000000000E+00  0.30462958832E+03  0.30462958833E+03  0.25500000000E-02 0. -1.
          2   -1    0    0  501    0  0.00000000000E+00 -0.00000000000E+00 -0.18653161963E+04  0.18653161963E+04  0.25500000000E-02 0.  1.
     200001    2    1    2    0    0 -0.11264539489E+03 -0.34081961885E+03 -0.41733186451E+03  0.82388632570E+03  0.61300554236E+03 0.  0.
    5000001    2    3    3    0    0 -0.10978373733E+03  0.15300341084E+03 -0.13161339789E+03  0.24448541450E+03  0.83597360522E+02 0.  0.
        -13    1    4    4    0    0 -0.23956107981E+02 -0.41226736430E+01 -0.19054418432E+02  0.30886462623E+02  0.10566000000E+00 0. -1.
     200003    1    4    4    0    0 -0.85827629352E+02  0.15712608448E+03 -0.11255897946E+03  0.21359895188E+03  0.30000000000E+02 0. -1.
     200000    1    3    3    0    0 -0.28616575564E+01 -0.49382302969E+03 -0.28571846661E+03  0.57940091120E+03  0.10100000000E+03 0.  1.
    -200001    1    1    2    0    0  0.11264539489E+03  0.34081961885E+03 -0.11433547435E+04  0.13460594590E+04  0.61300000000E+03 0. -1.
<mgrwt>
<rscale>  0 0.15076213E+04</rscale>
<asrwt>0</asrwt>
<pdfrwt beam="1">  1        2 0.26647374E+00 0.15076213E+04</pdfrwt>
<pdfrwt beam="2">  1       -2 0.43518514E-01 0.15076213E+04</pdfrwt>
<totfact> 0.45581604E+01</totfact>
</mgrwt>
</event>
<event>
 8    1  0.7583103E-052  0.1295967E+04  0.7818608E-02  0.9032769E-01
         -2   -1    0    0    0  501 -0.00000000000E+00  0.00000000000E+00  0.35544948597E+03  0.35544948598E+03  0.25500000000E-02 0. -1.
          2   -1    0    0  501    0  0.00000000000E+00 -0.00000000000E+00 -0.11812725717E+04  0.11812725717E+04  0.25500000000E-02 0.  1.
     200001    2    1    2    0    0  0.14325880777E+03 -0.87809732848E+02 -0.56207213855E+03  0.84855986944E+03  0.61310286894E+03 0.  0.
    5000001    2    3    3    0    0 -0.20290868069E+03  0.85622335579E+02 -0.24958213850E+03  0.34085758212E+03  0.73413420994E+02 0.  0.
        -13    1    4    4    0    0 -0.14767801842E+03  0.46186973423E+02 -0.14096653174E+03  0.20931700331E+03  0.10566000000E+00 0. -1.
     200003    1    4    4    0    0 -0.55230662268E+02  0.39435362156E+02 -0.10861560675E+03  0.13154057881E+03  0.30000000000E+02 0.  1.
     200000    1    3    3    0    0  0.34616748845E+03 -0.17343206843E+03 -0.31249000005E+03  0.50770228732E+03  0.10100000000E+03 0.  1.
    -200001    1    1    2    0    0 -0.14325880777E+03  0.87809732848E+02 -0.26375094718E+03  0.68816218824E+03  0.61300000000E+03 0. -1.
<mgrwt>
<rscale>  0 0.12959672E+04</rscale>
<asrwt>0</asrwt>
<pdfrwt beam="1">  1        2 0.16875322E+00 0.12959672E+04</pdfrwt>
<pdfrwt beam="2">  1       -2 0.50778498E-01 0.12959672E+04</pdfrwt>
<totfact> 0.78778715E+01</totfact>
</mgrwt>
</event>
<event>
 8    1  0.7583103E-052  0.1328732E+04  0.7818608E-02  0.9007086E-01
          2   -1    0    0  501    0  0.00000000000E+00  0.00000000000E+00  0.19609479262E+04  0.19609479262E+04  0.25500000000E-02 0.  1.
         -2   -1    0    0    0  501 -0.00000000000E+00 -0.00000000000E+00 -0.22508610705E+03  0.22508610706E+03  0.25500000000E-02 0. -1.
     200001    2    1    2    0    0 -0.79963399854E+02  0.21308440879E+03  0.10597417387E+04  0.12454456675E+04  0.61341930798E+03 0.  0.
    5000001    2    3    3    0    0  0.52605005614E+02 -0.17120021113E+03  0.49397198216E+03  0.54149576258E+03  0.13089133980E+03 0.  0.
        -13    1    4    4    0    0  0.37428159485E+02 -0.93379640079E+02  0.41004555482E+03  0.42220610192E+03  0.10566000000E+00 0. -1.
     200003    1    4    4    0    0  0.15176846129E+02 -0.77820571047E+02  0.83926427339E+02  0.11928966067E+03  0.30000000000E+02 0. -1.
     200000    1    3    3    0    0 -0.13256840547E+03  0.38428461992E+03  0.56576975656E+03  0.70394990494E+03  0.10100000000E+03 0.  1.
    -200001    1    1    2    0    0  0.79963399854E+02 -0.21308440879E+03  0.67612008042E+03  0.94058836573E+03  0.61300000000E+03 0. -1.
<mgrwt>
<rscale>  0 0.13287319E+04</rscale>
<asrwt>0</asrwt>
<pdfrwt beam="1">  1        2 0.28013542E+00 0.13287319E+04</pdfrwt>
<pdfrwt beam="2">  1       -2 0.32155158E-01 0.13287319E+04</pdfrwt>
<totfact> 0.74047177E+01</totfact>
</mgrwt>
</event>
<event>
 8    1  0.7583103E-052  0.1515501E+04  0.7818608E-02  0.8874210E-01
          2   -1    0    0  501    0  0.00000000000E+00  0.00000000000E+00  0.23204043207E+04  0.23204043207E+04  0.25500000000E-02 0.  1.
         -2   -1    0    0    0  501 -0.00000000000E+00 -0.00000000000E+00 -0.24745070185E+03  0.24745070186E+03  0.25500000000E-02 0. -1.
     200001    2    1    2    0    0  0.17220081586E+03 -0.27961178465E+03  0.15455465779E+04  0.16950646365E+04  0.61375404389E+03 0.  0.
    5000001    2    3    3    0    0 -0.16445680529E+03  0.20970485803E+02  0.24546493304E+03  0.31517285145E+03  0.10768050360E+03 0.  0.
        -13    1    4    4    0    0 -0.16413795977E+03  0.28160187773E+02  0.20051367936E+03  0.26065305060E+03  0.10566000000E+00 0. -1.
     200003    1    4    4    0    0 -0.31884551960E+00 -0.71897019706E+01  0.44951253688E+02  0.54519800852E+02  0.30000000000E+02 0.  1.
     200000    1    3    3    0    0  0.33665762115E+03 -0.30058227046E+03  0.13000816449E+04  0.13798917851E+04  0.10100000000E+03 0.  1.
    -200001    1    1    2    0    0 -0.17220081586E+03  0.27961178465E+03  0.52740704088E+03  0.87279038598E+03  0.61300000000E+03 0. -1.
<mgrwt>
<rscale>  0 0.15155008E+04</rscale>
<asrwt>0</asrwt>
<pdfrwt beam="1">  1        2 0.33148636E+00 0.15155008E+04</pdfrwt>
<pdfrwt beam="2">  1       -2 0.35350097E-01 0.15155008E+04</pdfrwt>
<totfact> 0.39809688E+01</totfact>
</mgrwt>
</event>
<event>
 8    1  0.7583103E-052  0.1964223E+04  0.7818608E-02  0.8623532E-01
          2   -1    0    0  501    0  0.00000000000E+00  0.00000000000E+00  0.15925109995E+04  0.15925109995E+04  0.25500000000E-02 0. -1.
         -2   -1    0    0    0  501 -0.00000000000E+00 -0.00000000000E+00 -0.60567461014E+03  0.60567461014E+03  0.25500000000E-02 0.  1.
     200001    2    1    2    0    0 -0.20868057397E+03 -0.12999865276E+03 -0.32094493589E+03  0.73308894856E+03  0.61152802303E+03 0.  0.
    5000001    2    3    3    0    0 -0.32698194263E+03 -0.56626403626E+02  0.28768708729E+02  0.34337195636E+03  0.83384179702E+02 0.  0.
        -13    1    4    4    0    0 -0.20913442736E+03 -0.10225770704E+02 -0.29498676383E+01  0.20940508107E+03  0.10566000000E+00 0. -1.
     200003    1    4    4    0    0 -0.11784751526E+03 -0.46400632923E+02  0.31718576368E+02  0.13396687529E+03  0.30000000000E+02 0. -1.
     200000    1    3    3    0    0  0.11830136866E+03 -0.73372249135E+02 -0.34971364462E+03  0.38971699219E+03  0.10100000000E+03 0.  1.
    -200001    1    1    2    0    0  0.20868057397E+03  0.12999865276E+03  0.13077813253E+04  0.14650966611E+04  0.61300000000E+03 0. -1.
<mgrwt>
<rscale>  0 0.19642235E+04</rscale>
<asrwt>0</asrwt>
<pdfrwt beam="1">  1        2 0.22750157E+00 0.19642235E+04</pdfrwt>
<pdfrwt beam="2">  1       -2 0.86524944E-01 0.19642235E+04</pdfrwt>
<totfact> 0.14131131E+01</totfact>
</mgrwt>
</event>
<event>
 8    1  0.7583103E-052  0.1253895E+04  0.7818608E-02  0.9066948E-01
          2   -1    0    0  501    0  0.00000000000E+00  0.00000000000E+00  0.56146023617E+03  0.56146023618E+03  0.25500000000E-02 0.  1.
         -2   -1    0    0    0  501 -0.00000000000E+00 -0.00000000000E+00 -0.70007265570E+03  0.70007265571E+03  0.25500000000E-02 0. -1.
     200001    2    1    2    0    0  0.11729953989E+03  0.10182104293E+02 -0.13527543822E+03  0.63731899205E+03  0.61156618295E+03 0.  0.
    5000001    2    3    3    0    0  0.30785417157E+03  0.12975696924E+03 -0.14180097137E+03  0.39063539193E+03  0.14449024855E+03 0.  0.
        -13    1    4    4    0    0  0.46719194517E+01  0.47120455916E+02 -0.28387730097E+02  0.55209044378E+02  0.10566000000E+00 0. -1.
     200003    1    4    4    0    0  0.30318225212E+03  0.82636513328E+02 -0.11341324127E+03  0.33542634755E+03  0.30000000000E+02 0. -1.
     200000    1    3    3    0    0 -0.19055463168E+03 -0.11957486495E+03  0.65255331469E+01  0.24668360012E+03  0.10100000000E+03 0.  1.
    -200001    1    1    2    0    0 -0.11729953989E+03 -0.10182104293E+02 -0.33369813096E+01  0.62421389984E+03  0.61300000000E+03 0.  1.
<mgrwt>
<rscale>  0 0.12538947E+04</rscale>
<asrwt>0</asrwt>
<pdfrwt beam="1">  1        2 0.80208605E-01 0.12538947E+04</pdfrwt>
<pdfrwt beam="2">  1       -2 0.10001038E+00 0.12538947E+04</pdfrwt>
<totfact> 0.47720266E+01</totfact>
</mgrwt>
</event>
<event>
 8    1  0.7583103E-052  0.1406062E+04  0.7818608E-02  0.8949442E-01
         -2   -1    0    0    0  501 -0.00000000000E+00  0.00000000000E+00  0.32247538292E+03  0.32247538293E+03  0.25500000000E-02 0. -1.
          2   -1    0    0  501    0  0.00000000000E+00 -0.00000000000E+00 -0.15326840799E+04  0.15326840799E+04  0.25500000000E-02 0.  1.
     200001    2    1    2    0    0  0.24940297941E+03  0.58038810739E+02 -0.30217233060E+03  0.73005084924E+03  0.61326647993E+03 0.  0.
    5000001    2    3    3    0    0  0.21489165607E+03 -0.24765734051E+03 -0.19241578200E+03  0.38816100107E+03  0.78310583125E+02 0.  0.
        -13    1    4    4    0    0  0.64670373089E+02 -0.10428790111E+03 -0.40859645687E+02  0.12933578501E+03  0.10566000000E+00 0. -1.
     200003    1    4    4    0    0  0.15022128298E+03 -0.14336943940E+03 -0.15155613632E+03  0.25882521606E+03  0.30000000000E+02 0. -1.
     200000    1    3    3    0    0  0.34511323342E+02  0.30569615125E+03 -0.10975654860E+03  0.34188984818E+03  0.10100000000E+03 0. -1.
    -200001    1    1    2    0    0 -0.24940297941E+03 -0.58038810739E+02 -0.90803636636E+03  0.11251086136E+04  0.61300000000E+03 0.  1.
<mgrwt>
<rscale>  0 0.14060624E+04</rscale>
<asrwt>0</asrwt>
<pdfrwt beam="1">  1        2 0.21895487E+00 0.14060624E+04</pdfrwt>
<pdfrwt beam="2">  1       -2 0.46067913E-01 0.14060624E+04</pdfrwt>
<totfact> 0.61090036E+01</totfact>
</mgrwt>
</event>
<event>
 8    1  0.7583103E-052  0.1656685E+04  0.7818608E-02  0.8786462E-01
         -2   -1    0    0    0  501 -0.00000000000E+00  0.00000000000E+00  0.31584297999E+03  0.31584298000E+03  0.25500000000E-02 0. -1.
          2   -1    0    0  501    0  0.00000000000E+00 -0.00000000000E+00 -0.21724432383E+04  0.21724432383E+04  0.25500000000E-02 0.  1.
     200001    2    1    2    0    0 -0.18613511762E+03 -0.50077794970E+03 -0.11663180545E+04  0.14216638119E+04  0.61270331563E+03 0.  0.
    5000001    2    3    3    0    0 -0.15106350717E+03 -0.24817773387E+03 -0.10978067449E+04  0.11389418877E+04  0.87158497224E+02 0.  0.
        -13    1    4    4    0    0 -0.10426131475E+02 -0.16993106098E+02 -0.19390615803E+03  0.19492839495E+03  0.10566000000E+00 0. -1.
     200003    1    4    4    0    0 -0.14063737570E+03 -0.23118462777E+03 -0.90390058688E+03  0.94401349277E+03  0.30000000000E+02 0. -1.
     200000    1    3    3    0    0 -0.35071610450E+02 -0.25260021582E+03 -0.68511309608E+02  0.28272192423E+03  0.10100000000E+03 0. -1.
    -200001    1    1    2    0    0  0.18613511762E+03  0.50077794970E+03 -0.69028220384E+03  0.10666224064E+04  0.61300000000E+03 0.  1.
<mgrwt>
<rscale>  0 0.16566846E+04</rscale>
<asrwt>0</asrwt>
<pdfrwt beam="1">  1        2 0.31034902E+00 0.16566846E+04</pdfrwt>
<pdfrwt beam="2">  1       -2 0.45120427E-01 0.16566846E+04</pdfrwt>
<totfact> 0.29133592E+01</totfact>
</mgrwt>
</event>
<event>
 8    1  0.7583103E-052  0.2473312E+04  0.7818608E-02  0.8412556E-01
         -2   -1    0    0    0  501 -0.00000000000E+00  0.00000000000E+00  0.83739621249E+03  0.83739621249E+03  0.25500000000E-02 0. -1.
          2   -1    0    0  501    0  0.00000000000E+00 -0.00000000000E+00 -0.18262770470E+04  0.18262770470E+04  0.25500000000E-02 0.  1.
     200001    2    1    2    0    0  0.10121811086E+04 -0.12037252057E+03 -0.13106817297E+03  0.11971768556E+04  0.61404675497E+03 0.  0.
    5000001    2    3    3    0    0  0.41799439263E+02 -0.10875372146E+03  0.11531599318E+03  0.19085596343E+03  0.97742802501E+02 0.  0.
        -13    1    4    4    0    0 -0.26604008678E+02 -0.11199572611E+02  0.27181237892E+02  0.39648891054E+02  0.10566000000E+00 0. -1.
     200003    1    4    4    0    0  0.68403447941E+02 -0.97554148846E+02  0.88134755287E+02  0.15120707238E+03  0.30000000000E+02 0. -1.
     200000    1    3    3    0    0  0.97038166934E+03 -0.11618799112E+02 -0.24638416615E+03  0.10063208922E+04  0.10100000000E+03 0. -1.
    -200001    1    1    2    0    0 -0.10121811086E+04  0.12037252057E+03 -0.85781266153E+03  0.14664964039E+04  0.61300000000E+03 0.  1.
<mgrwt>
<rscale>  0 0.24733115E+04</rscale>
<asrwt>0</asrwt>
<pdfrwt beam="1">  1        2 0.26089672E+00 0.24733115E+04</pdfrwt>
<pdfrwt beam="2">  1       -2 0.11962803E+00 0.24733115E+04</pdfrwt>
<totfact> 0.47464922E+00</totfact>
</mgrwt>
</event>
<event>
 8    1  0.7583103E-052  0.1530180E+04  0.7818608E-02  0.8864628E-01
         -2   -1    0    0    0  501 -0.00000000000E+00  0.00000000000E+00  0.13522776465E+03  0.13522776468E+03  0.25500000000E-02 0. -1.
          2   -1    0    0  501    0  0.00000000000E+00 -0.00000000000E+00 -0.43287182336E+04  0.43287182336E+04  0.25500000000E-02 0.  1.
     200001    2    1    2    0    0  0.98388886204E+02 -0.30947834910E+03 -0.11524809236E+04  0.13448170692E+04  0.61226093196E+03 0.  0.
    5000001    2    3    3    0    0  0.73870023251E+02 -0.38331059166E+03 -0.11464489105E+04  0.12171857256E+04  0.12170536695E+03 0.  0.
        -13    1    4    4    0    0  0.65085439780E+02 -0.76542835202E+02 -0.29127386465E+03  0.30811587996E+03  0.10566000000E+00 0. -1.
     200003    1    4    4    0    0  0.87845834709E+01 -0.30676775646E+03 -0.85517504581E+03  0.90906984565E+03  0.30000000000E+02 0. -1.
     200000    1    3    3    0    0  0.24518862953E+02  0.73832242566E+02 -0.60320131713E+01  0.12763134359E+03  0.10100000000E+03 0. -1.
    -200001    1    1    2    0    0 -0.98388886204E+02  0.30947834910E+03 -0.30410095453E+04  0.31191289291E+04  0.61300000000E+03 0.  1.
<mgrwt>
<rscale>  0 0.15301802E+04</rscale>
<asrwt>0</asrwt>
<pdfrwt beam="1">  1        2 0.61838823E+00 0.15301802E+04</pdfrwt>
<pdfrwt beam="2">  1       -2 0.19318255E-01 0.15301802E+04</pdfrwt>
<totfact> 0.74030984E+00</totfact>
</mgrwt>
</event>
<event>
 8    1  0.7583103E-052  0.1550315E+04  0.7818608E-02  0.8851667E-01
         -2   -1    0    0    0  501 -0.00000000000E+00  0.00000000000E+00  0.25891902820E+03  0.25891902822E+03  0.25500000000E-02 0. -1.
          2   -1    0    0  501    0  0.00000000000E+00 -0.00000000000E+00 -0.23206837205E+04  0.23206837205E+04  0.25500000000E-02 0.  1.
     200001    2    1    2    0    0 -0.26522742869E+03  0.31131995619E+03 -0.14351449631E+04  0.16122936001E+04  0.61039649713E+03 0.  0.
    5000001    2    3    3    0    0 -0.21773909543E+03  0.96270744813E+02 -0.14670200367E+03  0.30126821330E+03  0.11208339964E+03 0.  0.
        -13    1    4    4    0    0 -0.97098689323E+02 -0.92271111243E+01 -0.34985754493E+02  0.10362098836E+03  0.10566000000E+00 0. -1.
     200003    1    4    4    0    0 -0.12064040611E+03  0.10549785594E+03 -0.11171624918E+03  0.19764722493E+03  0.30000000000E+02 0. -1.
     200000    1    3    3    0    0 -0.47488333259E+02  0.21504921138E+03 -0.12884429594E+04  0.13110253868E+04  0.10100000000E+03 0.  1.
    -200001    1    1    2    0    0  0.26522742869E+03 -0.31131995619E+03 -0.62661972926E+03  0.96730914870E+03  0.61300000000E+03 0. -1.
<mgrwt>
<rscale>  0 0.15503150E+04</rscale>
<asrwt>0</asrwt>
<pdfrwt beam="1">  1        2 0.33152623E+00 0.15503150E+04</pdfrwt>
<pdfrwt beam="2">  1       -2 0.36988434E-01 0.15503150E+04</pdfrwt>
<totfact> 0.36377476E+01</totfact>
</mgrwt>
</event>
<event>
 8    1  0.7583103E-052  0.1453683E+04  0.7818608E-02  0.8915851E-01
          2   -1    0    0  501    0  0.00000000000E+00  0.00000000000E+00  0.26257976047E+04  0.26257976047E+04  0.25500000000E-02 0.  1.
         -2   -1    0    0    0  501 -0.00000000000E+00 -0.00000000000E+00 -0.20119548079E+03  0.20119548080E+03  0.25500000000E-02 0. -1.
     200001    2    1    2    0    0  0.22788985029E+03  0.15275240117E+03  0.17540060405E+04  0.18779223890E+04  0.61219950092E+03 0.  0.
    5000001    2    3    3    0    0  0.39574328809E+03  0.16297379763E+03  0.13746040594E+04  0.14508086842E+04  0.17926602934E+03 0.  0.
        -13    1    4    4    0    0  0.34657293935E+03  0.72832655514E+02  0.11196409011E+04  0.11743139089E+04  0.10566000000E+00 0. -1.
     200003    1    4    4    0    0  0.49170348733E+02  0.90141142114E+02  0.25496315836E+03  0.27649477539E+03  0.30000000000E+02 0. -1.
     200000    1    3    3    0    0 -0.16785343780E+03 -0.10221396454E+02  0.37940198108E+03  0.42711370473E+03  0.10100000000E+03 0. -1.
    -200001    1    1    2    0    0 -0.22788985029E+03 -0.15275240117E+03  0.67059608339E+03  0.94907069651E+03  0.61300000000E+03 0. -1.
<mgrwt>
<rscale>  0 0.14536831E+04</rscale>
<asrwt>0</asrwt>
<pdfrwt beam="1">  1        2 0.37511393E+00 0.14536831E+04</pdfrwt>
<pdfrwt beam="2">  1       -2 0.28742212E-01 0.14536831E+04</pdfrwt>
<totfact> 0.40847360E+01</totfact>
</mgrwt>
</event>
<event>
 8    1  0.7583103E-052  0.1302556E+04  0.7818608E-02  0.9027541E-01
         -2   -1    0    0    0  501 -0.00000000000E+00  0.00000000000E+00  0.62478160862E+03  0.62478160862E+03  0.25500000000E-02 0. -1.
          2   -1    0    0  501    0  0.00000000000E+00 -0.00000000000E+00 -0.67889758420E+03  0.67889758420E+03  0.25500000000E-02 0.  1.
     200001    2    1    2    0    0 -0.12031445163E+03  0.10456610264E+03  0.12584983433E+03  0.64522165446E+03  0.61242400793E+03 0.  0.
    5000001    2    3    3    0    0 -0.11895256374E+03  0.79065180292E+02  0.35455730834E+03  0.39390460281E+03  0.95125895862E+02 0.  0.
        -13    1    4    4    0    0 -0.99213580890E+02  0.82717837143E+02  0.22531424163E+03  0.25971540936E+03  0.10566000000E+00 0. -1.
     200003    1    4    4    0    0 -0.19738982853E+02 -0.36526568501E+01  0.12924306671E+03  0.13418919345E+03  0.30000000000E+02 0. -1.
     200000    1    3    3    0    0 -0.13618878912E+01  0.25500922352E+02 -0.22870747401E+03  0.25131705165E+03  0.10100000000E+03 0.  1.
    -200001    1    1    2    0    0  0.12031445163E+03 -0.10456610264E+03 -0.17996580991E+03  0.65845753836E+03  0.61300000000E+03 0.  1.
<mgrwt>
<rscale>  0 0.13025555E+04</rscale>
<asrwt>0</asrwt>
<pdfrwt beam="1">  1        2 0.96985368E-01 0.13025555E+04</pdfrwt>
<pdfrwt beam="2">  1       -2 0.89254516E-01 0.13025555E+04</pdfrwt>
<totfact> 0.49426427E+01</totfact>
</mgrwt>
</event>
<event>
 8    1  0.7583103E-052  0.1597060E+04  0.7818608E-02  0.8822356E-01
         -2   -1    0    0    0  501 -0.00000000000E+00  0.00000000000E+00  0.29328507018E+03  0.29328507019E+03  0.25500000000E-02 0.  1.
          2   -1    0    0  501    0  0.00000000000E+00 -0.00000000000E+00 -0.21741640726E+04  0.21741640726E+04  0.25500000000E-02 0. -1.
     200001    2    1    2    0    0  0.33713665715E+02 -0.46924064103E+03 -0.62644894579E+03  0.99412393857E+03  0.61198099081E+03 0.  0.
    5000001    2    3    3    0    0 -0.27025724158E+02 -0.51831673602E+03 -0.36404397511E+03  0.70231046181E+03  0.30220744589E+03 0.  0.
        -13    1    4    4    0    0  0.10447031448E+03 -0.16256001223E+03 -0.29095148683E+02  0.19541326215E+03  0.10566000000E+00 0. -1.
     200003    1    4    4    0    0 -0.13149603864E+03 -0.35575672379E+03 -0.33494882643E+03  0.50689719966E+03  0.30000000000E+02 0. -1.
     200000    1    3    3    0    0  0.60739389873E+02  0.49076094988E+02 -0.26240497068E+03  0.29181347676E+03  0.10100000000E+03 0. -1.
    -200001    1    1    2    0    0 -0.33713665715E+02  0.46924064103E+03 -0.12544300567E+04  0.14733252043E+04  0.61300000000E+03 0. -1.
<mgrwt>
<rscale>  0 0.15970596E+04</rscale>
<asrwt>0</asrwt>
<pdfrwt beam="1">  1        2 0.31059486E+00 0.15970596E+04</pdfrwt>
<pdfrwt beam="2">  1       -2 0.41897868E-01 0.15970596E+04</pdfrwt>
<totfact> 0.33841870E+01</totfact>
</mgrwt>
</event>
<event>
 8    1  0.7583103E-052  0.1700494E+04  0.7818608E-02  0.8761083E-01
         -2   -1    0    0    0  501 -0.00000000000E+00  0.00000000000E+00  0.23823773048E+03  0.23823773049E+03  0.25500000000E-02 0. -1.
          2   -1    0    0  501    0  0.00000000000E+00 -0.00000000000E+00 -0.30344468063E+04  0.30344468063E+04  0.25500000000E-02 0.  1.
     200001    2    1    2    0    0  0.17093116045E+02 -0.55567809593E+03 -0.10232782803E+04  0.13161255864E+04  0.61320290213E+03 0.  0.
    5000001    2    3    3    0    0  0.14247022972E+03 -0.34236728142E+03 -0.29829800058E+03  0.54345597376E+03  0.26239202830E+03 0.  0.
        -13    1    4    4    0    0  0.13355064248E+03 -0.29801948571E+03 -0.10554657382E+03  0.34320763159E+03  0.10566000000E+00 0. -1.
     200003    1    4    4    0    0  0.89195872415E+01 -0.44347795712E+02 -0.19275142677E+03  0.20024834217E+03  0.30000000000E+02 0. -1.
     200000    1    3    3    0    0 -0.12537711368E+03 -0.21331081450E+03 -0.72498027976E+03  0.77266961262E+03  0.10100000000E+03 0.  1.
    -200001    1    1    2    0    0 -0.17093116045E+02  0.55567809593E+03 -0.17729307955E+04  0.19565589504E+04  0.61300000000E+03 0. -1.
<mgrwt>
<rscale>  0 0.17004937E+04</rscale>
<asrwt>0</asrwt>
<pdfrwt beam="1">  1        2 0.43349238E+00 0.17004937E+04</pdfrwt>
<pdfrwt beam="2">  1       -2 0.34033963E-01 0.17004937E+04</pdfrwt>
<totfact> 0.17440655E+01</totfact>
</mgrwt>
</event>
<event>
 8    1  0.7583103E-052  0.1727479E+04  0.7818608E-02  0.8745845E-01
          2   -1    0    0  501    0  0.00000000000E+00  0.00000000000E+00  0.26060622094E+04  0.26060622094E+04  0.25500000000E-02 0.  1.
         -2   -1    0    0    0  501 -0.00000000000E+00 -0.00000000000E+00 -0.28627329193E+03  0.28627329194E+03  0.25500000000E-02 0. -1.
     200001    2    1    2    0    0 -0.46942353504E+03 -0.28222237844E+03  0.71626096005E+03  0.10903702308E+04  0.61308201009E+03 0.  0.
    5000001    2    3    3    0    0 -0.10113674024E+03  0.12427366360E+03  0.33237333730E+03  0.41328463624E+03  0.18617081272E+03 0.  0.
        -13    1    4    4    0    0 -0.55603574549E+02 -0.26836909944E+02  0.18590533298E+03  0.19588971701E+03  0.10566000000E+00 0. -1.
     200003    1    4    4    0    0 -0.45533165693E+02  0.15111057354E+03  0.14646800433E+03  0.21739491923E+03  0.30000000000E+02 0. -1.
     200000    1    3    3    0    0 -0.36828679480E+03 -0.40649604204E+03  0.38388762275E+03  0.67708559453E+03  0.10100000000E+03 0.  1.
    -200001    1    1    2    0    0  0.46942353504E+03  0.28222237844E+03  0.16035279575E+04  0.18019652706E+04  0.61300000000E+03 0. -1.
<mgrwt>
<rscale>  0 0.17274791E+04</rscale>
<asrwt>0</asrwt>
<pdfrwt beam="1">  1        2 0.37229464E+00 0.17274791E+04</pdfrwt>
<pdfrwt beam="2">  1       -2 0.40896181E-01 0.17274791E+04</pdfrwt>
<totfact> 0.20888757E+01</totfact>
</mgrwt>
</event>
<event>
 8    1  0.7583103E-052  0.1342106E+04  0.7818608E-02  0.8996825E-01
          2   -1    0    0  501    0  0.00000000000E+00  0.00000000000E+00  0.16341342753E+04  0.16341342753E+04  0.25500000000E-02 0.  1.
         -2   -1    0    0    0  501 -0.00000000000E+00 -0.00000000000E+00 -0.27556620041E+03  0.27556620042E+03  0.25500000000E-02 0. -1.
     200001    2    1    2    0    0  0.79474139302E+02  0.24281483650E+03  0.54875591926E+03  0.86239922438E+03  0.61426718913E+03 0.  0.
    5000001    2    3    3    0    0  0.26891359360E+03  0.18946332262E+03  0.81270167736E+02  0.34521683996E+03  0.66022382458E+02 0.  0.
        -13    1    4    4    0    0  0.13186685546E+03  0.63173349389E+02  0.25830650456E+02  0.14848223230E+03  0.10566000000E+00 0. -1.
     200003    1    4    4    0    0  0.13704673814E+03  0.12628997323E+03  0.55439517281E+02  0.19673460766E+03  0.30000000000E+02 0. -1.
     200000    1    3    3    0    0 -0.18943945430E+03  0.53351513879E+02  0.46748575153E+03  0.51718238442E+03  0.10100000000E+03 0.  1.
    -200001    1    1    2    0    0 -0.79474139302E+02 -0.24281483650E+03  0.80981215562E+03  0.10473012513E+04  0.61300000000E+03 0.  1.
<mgrwt>
<rscale>  0 0.13421061E+04</rscale>
<asrwt>0</asrwt>
<pdfrwt beam="1">  1        2 0.23344775E+00 0.13421061E+04</pdfrwt>
<pdfrwt beam="2">  1       -2 0.39366601E-01 0.13421061E+04</pdfrwt>
<totfact> 0.74064863E+01</totfact>
</mgrwt>
</event>
<event>
 8    1  0.7583103E-052  0.1819631E+04  0.7818608E-02  0.8695929E-01
          2   -1    0    0  501    0  0.00000000000E+00  0.00000000000E+00  0.39090095740E+03  0.39090095741E+03  0.25500000000E-02 0.  1.
         -2   -1    0    0    0  501 -0.00000000000E+00 -0.00000000000E+00 -0.21175795213E+04  0.21175795213E+04  0.25500000000E-02 0. -1.
     200001    2    1    2    0    0 -0.17885961657E+03  0.35243664954E+03 -0.16131159862E+04  0.17703288592E+04  0.61295899566E+03 0.  0.
    5000001    2    3    3    0    0 -0.27781295289E+03  0.17281962631E+03 -0.34778875873E+03  0.48451859698E+03  0.82186313292E+02 0.  0.
        -13    1    4    4    0    0 -0.12979820372E+03  0.53315679562E+02 -0.18599388810E+03  0.23298899749E+03  0.10566000000E+00 0. -1.
     200003    1    4    4    0    0 -0.14801474917E+03  0.11950394675E+03 -0.16179487063E+03  0.25152959950E+03  0.30000000000E+02 0. -1.
     200000    1    3    3    0    0  0.98953336319E+02  0.17961702323E+03 -0.12653272275E+04  0.12858102622E+04  0.10100000000E+03 0. -1.
    -200001    1    1    2    0    0  0.17885961657E+03 -0.35243664954E+03 -0.11356257772E+03  0.73815161955E+03  0.61300000000E+03 0.  1.
<mgrwt>
<rscale>  0 0.18196306E+04</rscale>
<asrwt>0</asrwt>
<pdfrwt beam="1">  1        2 0.55842995E-01 0.18196306E+04</pdfrwt>
<pdfrwt beam="2">  1       -2 0.30251135E+00 0.18196306E+04</pdfrwt>
<totfact> 0.25777804E+00</totfact>
</mgrwt>
</event>
<event>
 8    1  0.7583103E-052  0.1250550E+04  0.7818608E-02  0.9069725E-01
         -2   -1    0    0    0  501 -0.00000000000E+00  0.00000000000E+00  0.20977379028E+03  0.20977379029E+03  0.25500000000E-02 0. -1.
          2   -1    0    0  501    0  0.00000000000E+00 -0.00000000000E+00 -0.18637645373E+04  0.18637645373E+04  0.25500000000E-02 0.  1.
     200001    2    1    2    0    0  0.24895534635E+02  0.28745351899E+01 -0.10271258640E+04  0.11964085583E+04  0.61300721636E+03 0.  0.
    5000001    2    3    3    0    0  0.19619551441E+03  0.23016336720E+03 -0.53333777846E+03  0.61758944179E+03  0.74159808594E+02 0.  0.
        -13    1    4    4    0    0  0.77019639457E+02  0.12854692379E+03 -0.22290035953E+03  0.26859061399E+03  0.10566000000E+00 0. -1.
     200003    1    4    4    0    0  0.11917587495E+03  0.10161644340E+03 -0.31043741892E+03  0.34899882780E+03  0.30000000000E+02 0. -1.
     200000    1    3    3    0    0 -0.17129997977E+03 -0.22728883201E+03 -0.49378808552E+03  0.57881911650E+03  0.10100000000E+03 0.  1.
    -200001    1    1    2    0    0 -0.24895534635E+02 -0.28745351899E+01 -0.62686488305E+03  0.87712976930E+03  0.61300000000E+03 0. -1.
<mgrwt>
<rscale>  0 0.12505502E+04</rscale>
<asrwt>0</asrwt>
<pdfrwt beam="1">  1        2 0.26625207E+00 0.12505502E+04</pdfrwt>
<pdfrwt beam="2">  1       -2 0.29967685E-01 0.12505502E+04</pdfrwt>
<totfact> 0.95323049E+01</totfact>
</mgrwt>
</event>
<event>
 8    1  0.7583103E-052  0.1244517E+04  0.7818608E-02  0.9074759E-01
         -2   -1    0    0    0  501 -0.00000000000E+00  0.00000000000E+00  0.55907167751E+03  0.55907167752E+03  0.25500000000E-02 0. -1.
          2   -1    0    0  501    0  0.00000000000E+00 -0.00000000000E+00 -0.69258727014E+03  0.69258727015E+03  0.25500000000E-02 0.  1.
     200001    2    1    2    0    0 -0.78289573384E+02  0.10219787217E+02  0.47748259441E+01  0.61831311700E+03  0.61323291688E+03 0.  0.
    5000001    2    3    3    0    0 -0.24445860048E+03 -0.18696335930E+03 -0.76822515145E+02  0.32960484745E+03  0.89567580993E+02 0.  0.
        -13    1    4    4    0    0 -0.19867367522E+03 -0.11416615268E+03 -0.48438091813E+02  0.23420375647E+03  0.10566000000E+00 0. -1.
     200003    1    4    4    0    0 -0.45784925252E+02 -0.72797206621E+02 -0.28384423332E+02  0.95401090979E+02  0.30000000000E+02 0.  1.
     200000    1    3    3    0    0  0.16616902709E+03  0.19718314651E+03  0.81597341089E+02  0.28870826955E+03  0.10100000000E+03 0. -1.
    -200001    1    1    2    0    0  0.78289573384E+02 -0.10219787217E+02 -0.13829041858E+03  0.63334583067E+03  0.61300000000E+03 0.  1.
<mgrwt>
<rscale>  0 0.12445175E+04</rscale>
<asrwt>0</asrwt>
<pdfrwt beam="1">  1        2 0.98941039E-01 0.12445175E+04</pdfrwt>
<pdfrwt beam="2">  1       -2 0.79867382E-01 0.12445175E+04</pdfrwt>
<totfact> 0.62345408E+01</totfact>
</mgrwt>
</event>
<event>
 8    1  0.7583103E-052  0.1613143E+04  0.7818608E-02  0.8812514E-01
         -2   -1    0    0    0  501 -0.00000000000E+00  0.00000000000E+00  0.61703279814E+03  0.61703279815E+03  0.25500000000E-02 0. -1.
          2   -1    0    0  501    0  0.00000000000E+00 -0.00000000000E+00 -0.10543324034E+04  0.10543324034E+04  0.25500000000E-02 0.  1.
     200001    2    1    2    0    0  0.44517713322E+03 -0.26337466137E+03 -0.30345467825E+03  0.85820325171E+03  0.61390486828E+03 0.  0.
    5000001    2    3    3    0    0 -0.77802783607E+02  0.36541366187E+02 -0.20788152557E+03  0.23950070242E+03  0.82202878317E+02 0.  0.
        -13    1    4    4    0    0 -0.38622050693E+02 -0.15609255551E+02 -0.11357925228E+03  0.12097755730E+03  0.10566000000E+00 0. -1.
     200003    1    4    4    0    0 -0.39180732915E+02  0.52150621738E+02 -0.94302273294E+02  0.11852314511E+03  0.30000000000E+02 0. -1.
     200000    1    3    3    0    0  0.52297991683E+03 -0.29991602756E+03 -0.95573152675E+02  0.61870254930E+03  0.10100000000E+03 0. -1.
    -200001    1    1    2    0    0 -0.44517713322E+03  0.26337466137E+03 -0.13384492702E+03  0.81316194985E+03  0.61300000000E+03 0.  1.
<mgrwt>
<rscale>  0 0.16131431E+04</rscale>
<asrwt>0</asrwt>
<pdfrwt beam="1">  1        2 0.15061891E+00 0.16131431E+04</pdfrwt>
<pdfrwt beam="2">  1       -2 0.88147543E-01 0.16131431E+04</pdfrwt>
<totfact> 0.27702515E+01</totfact>
</mgrwt>
</event>
<event>
 8    1  0.7583103E-052  0.2439285E+04  0.7818608E-02  0.8424940E-01
          2   -1    0    0  501    0  0.00000000000E+00  0.00000000000E+00  0.23466918867E+04  0.23466918867E+04  0.25500000000E-02 0.  1.
         -2   -1    0    0    0  501 -0.00000000000E+00 -0.00000000000E+00 -0.63388303889E+03  0.63388303889E+03  0.25500000000E-02 0. -1.
     200001    2    1    2    0    0 -0.19979885428E+03  0.84799632394E+03  0.13299665840E+03  0.10751634474E+04  0.61584980295E+03 0.  0.
    5000001    2    3    3    0    0 -0.37214270319E+03  0.31516297993E+03  0.41888119811E+02  0.49886878266E+03  0.96423815950E+02 0.  0.
        -13    1    4    4    0    0 -0.25717323964E+03  0.16948928663E+03  0.42226776596E+02  0.31088230135E+03  0.10566000000E+00 0. -1.
     200003    1    4    4    0    0 -0.11496946355E+03  0.14567369330E+03 -0.33865678509E+00  0.18798648131E+03  0.30000000000E+02 0. -1.
     200000    1    3    3    0    0  0.17234384891E+03  0.53283334401E+03  0.91108538591E+02  0.57629466469E+03  0.10100000000E+03 0. -1.
    -200001    1    1    2    0    0  0.19979885428E+03 -0.84799632394E+03  0.15798121894E+04  0.19054114782E+04  0.61300000000E+03 0.  1.
<mgrwt>
<rscale>  0 0.24392853E+04</rscale>
<asrwt>0</asrwt>
<pdfrwt beam="1">  1        2 0.33524170E+00 0.24392853E+04</pdfrwt>
<pdfrwt beam="2">  1       -2 0.90554719E-01 0.24392853E+04</pdfrwt>
<totfact> 0.49817861E+00</totfact>
</mgrwt>
</event>
<event>
 8    1  0.7583103E-052  0.1623197E+04  0.7818608E-02  0.8806422E-01
         -2   -1    0    0    0  501 -0.00000000000E+00  0.00000000000E+00  0.35428371403E+03  0.35428371404E+03  0.25500000000E-02 0. -1.
          2   -1    0    0  501    0  0.00000000000E+00 -0.00000000000E+00 -0.18592229515E+04  0.18592229515E+04  0.25500000000E-02 0.  1.
     200001    2    1    2    0    0  0.11897670256E+03  0.32721372254E+02 -0.47291536562E+02  0.62740075359E+03  0.61332623637E+03 0.  0.
    5000001    2    3    3    0    0 -0.11579716565E+03  0.24771301266E+03 -0.69387300852E+02  0.29269282503E+03  0.77998539062E+02 0.  0.
        -13    1    4    4    0    0 -0.88775691790E+02  0.11312743834E+03 -0.32762580374E+02  0.14748674040E+03  0.10566000000E+00 0. -1.
     200003    1    4    4    0    0 -0.27021473856E+02  0.13458557432E+03 -0.36624720478E+02  0.14520608463E+03  0.30000000000E+02 0. -1.
     200000    1    3    3    0    0  0.23477386821E+03 -0.21499164040E+03  0.22095764290E+02  0.33470792855E+03  0.10100000000E+03 0. -1.
    -200001    1    1    2    0    0 -0.11897670256E+03 -0.32721372254E+02 -0.14576477009E+04  0.15861059119E+04  0.61300000000E+03 0.  1.
<mgrwt>
<rscale>  0 0.16231974E+04</rscale>
<asrwt>0</asrwt>
<pdfrwt beam="1">  1        2 0.26560327E+00 0.16231974E+04</pdfrwt>
<pdfrwt beam="2">  1       -2 0.50611960E-01 0.16231974E+04</pdfrwt>
<totfact> 0.33574034E+01</totfact>
</mgrwt>
</event>
<event>
 8    1  0.7583103E-052  0.1504822E+04  0.7818608E-02  0.8881252E-01
          2   -1    0    0  501    0  0.00000000000E+00  0.00000000000E+00  0.19521996358E+04  0.19521996358E+04  0.25500000000E-02 0.  1.
         -2   -1    0    0    0  501 -0.00000000000E+00 -0.00000000000E+00 -0.28999216997E+03  0.28999216998E+03  0.25500000000E-02 0. -1.
     200001    2    1    2    0    0  0.22232426040E+03 -0.30081804070E+03  0.11648853167E+04  0.13686828531E+04  0.61352700099E+03 0.  0.
    5000001    2    3    3    0    0  0.30948474559E+03 -0.11842515213E+02  0.26871794520E+03  0.41767246292E+03  0.79497794223E+02 0.  0.
        -13    1    4    4    0    0 -0.97598285456E+00 -0.64244974713E+01  0.96955100788E+00  0.65709895361E+01  0.10566000000E+00 0. -1.
     200003    1    4    4    0    0  0.31046072845E+03 -0.54180177413E+01  0.26774839419E+03  0.41110147338E+03  0.30000000000E+02 0. -1.
     200000    1    3    3    0    0 -0.87160485191E+02 -0.28897552549E+03  0.89616737147E+03  0.95101039017E+03  0.10100000000E+03 0. -1.
    -200001    1    1    2    0    0 -0.22232426040E+03  0.30081804070E+03  0.49732214913E+03  0.87350895266E+03  0.61300000000E+03 0.  1.
<mgrwt>
<rscale>  0 0.15048224E+04</rscale>
<asrwt>0</asrwt>
<pdfrwt beam="1">  1        2 0.27888565E+00 0.15048224E+04</pdfrwt>
<pdfrwt beam="2">  1       -2 0.41427454E-01 0.15048224E+04</pdfrwt>
<totfact> 0.45335746E+01</totfact>
</mgrwt>
</event>
<event>
 8    1  0.7583103E-052  0.1294543E+04  0.7818608E-02  0.9033904E-01
          2   -1    0    0  501    0  0.00000000000E+00  0.00000000000E+00  0.72058701989E+03  0.72058701990E+03  0.25500000000E-02 0. -1.
         -2   -1    0    0    0  501 -0.00000000000E+00 -0.00000000000E+00 -0.58141563133E+03  0.58141563134E+03  0.25500000000E-02 0.  1.
     200001    2    1    2    0    0 -0.83825835838E+02  0.12084199508E+03  0.21540550550E+03  0.66701430558E+03  0.61390471046E+03 0.  0.
    5000001    2    3    3    0    0 -0.77313098229E+02 -0.22532562721E+03  0.12079400553E+02  0.25298901236E+03  0.84312365759E+02 0.  0.
        -13    1    4    4    0    0 -0.12844261004E+02 -0.60397922527E+02  0.36505166834E+02  0.71732297160E+02  0.10566000000E+00 0. -1.
     200003    1    4    4    0    0 -0.64468837225E+02 -0.16492770469E+03 -0.24425766281E+02  0.18125671520E+03  0.30000000000E+02 0. -1.
     200000    1    3    3    0    0 -0.65127376083E+01  0.34616762229E+03  0.20332610495E+03  0.41402529322E+03  0.10100000000E+03 0. -1.
    -200001    1    1    2    0    0  0.83825835838E+02 -0.12084199508E+03 -0.76234116943E+02  0.63498834565E+03  0.61300000000E+03 0.  1.
<mgrwt>
<rscale>  0 0.12945433E+04</rscale>
<asrwt>0</asrwt>
<pdfrwt beam="1">  1        2 0.10294100E+00 0.12945433E+04</pdfrwt>
<pdfrwt beam="2">  1       -2 0.83059375E-01 0.12945433E+04</pdfrwt>
<totfact> 0.54144211E+01</totfact>
</mgrwt>
</event>
<event>
 8    1  0.7583103E-052  0.1287319E+04  0.7818608E-02  0.9039682E-01
          2   -1    0    0  501    0  0.00000000000E+00  0.00000000000E+00  0.65034449605E+03  0.65034449606E+03  0.25500000000E-02 0.  1.
         -2   -1    0    0    0  501 -0.00000000000E+00 -0.00000000000E+00 -0.63704337736E+03  0.63704337736E+03  0.25500000000E-02 0. -1.
     200001    2    1    2    0    0 -0.65805798430E+01  0.19077242018E+03 -0.44888971124E+02  0.64272322658E+03  0.61207900301E+03 0.  0.
    5000001    2    3    3    0    0  0.44282712762E+01 -0.36217889973E+02  0.24563345705E+03  0.26029666242E+03  0.78020587690E+02 0.  0.
        -13    1    4    4    0    0 -0.30167757424E+02 -0.11927303176E+02  0.69578037493E+02  0.76768930007E+02  0.10566000000E+00 0. -1.
     200003    1    4    4    0    0  0.34596028700E+02 -0.24290586797E+02  0.17605541955E+03  0.18352773241E+03  0.30000000000E+02 0. -1.
     200000    1    3    3    0    0 -0.11008851119E+02  0.22699031015E+03 -0.29052242817E+03  0.38242656416E+03  0.10100000000E+03 0. -1.
    -200001    1    1    2    0    0  0.65805798430E+01 -0.19077242018E+03  0.58190089820E+02  0.64466464684E+03  0.61300000000E+03 0. -1.
<mgrwt>
<rscale>  0 0.12873192E+04</rscale>
<asrwt>0</asrwt>
<pdfrwt beam="1">  1        2 0.92906356E-01 0.12873192E+04</pdfrwt>
<pdfrwt beam="2">  1       -2 0.91006197E-01 0.12873192E+04</pdfrwt>
<totfact> 0.49850015E+01</totfact>
</mgrwt>
</event>
<event>
 8    1  0.7583103E-052  0.1525027E+04  0.7818608E-02  0.8867979E-01
          2   -1    0    0  501    0  0.00000000000E+00  0.00000000000E+00  0.18830729510E+04  0.18830729510E+04  0.25500000000E-02 0.  1.
         -2   -1    0    0    0  501 -0.00000000000E+00 -0.00000000000E+00 -0.30876486934E+03  0.30876486935E+03  0.25500000000E-02 0. -1.
     200001    2    1    2    0    0  0.12442230056E+03  0.31017873022E+03  0.34516184133E+03  0.77823913838E+03  0.61223174226E+03 0.  0.
    5000001    2    3    3    0    0  0.24641024731E+03  0.22080799054E+03 -0.52498066910E+02  0.34097195359E+03  0.63495255296E+02 0.  0.
        -13    1    4    4    0    0  0.67619418714E+02  0.90071198606E+02 -0.67929263144E+01  0.11283333558E+03  0.10566000000E+00 0. -1.
     200003    1    4    4    0    0  0.17879082860E+03  0.13073679193E+03 -0.45705140595E+02  0.22813861802E+03  0.30000000000E+02 0. -1.
     200000    1    3    3    0    0 -0.12198794675E+03  0.89370739685E+02  0.39765990824E+03  0.43726718478E+03  0.10100000000E+03 0.  1.
    -200001    1    1    2    0    0 -0.12442230056E+03 -0.31017873022E+03  0.12291462404E+04  0.14135986820E+04  0.61300000000E+03 0.  1.
<mgrwt>
<rscale>  0 0.15250269E+04</rscale>
<asrwt>0</asrwt>
<pdfrwt beam="1">  1        2 0.26901041E+00 0.15250269E+04</pdfrwt>
<pdfrwt beam="2">  1       -2 0.44109269E-01 0.15250269E+04</pdfrwt>
<totfact> 0.43393095E+01</totfact>
</mgrwt>
</event>
<event>
 8    1  0.7583103E-052  0.1620870E+04  0.7818608E-02  0.8807828E-01
         -2   -1    0    0    0  501 -0.00000000000E+00  0.00000000000E+00  0.47377935001E+03  0.47377935001E+03  0.25500000000E-02 0. -1.
          2   -1    0    0  501    0  0.00000000000E+00 -0.00000000000E+00 -0.13863094287E+04  0.13863094287E+04  0.25500000000E-02 0.  1.
     200001    2    1    2    0    0  0.51876139353E+03  0.10034215361E+03 -0.42132783983E+03  0.91339422891E+03  0.61448347218E+03 0.  0.
    5000001    2    3    3    0    0  0.34295012820E+03  0.26139682711E+03 -0.47874149923E+03  0.64816689782E+03  0.70596123716E+02 0.  0.
        -13    1    4    4    0    0  0.19900411426E+03  0.16634787438E+03 -0.31920895821E+03  0.41130113417E+03  0.10566000000E+00 0. -1.
     200003    1    4    4    0    0  0.14394601393E+03  0.95048952736E+02 -0.15953254103E+03  0.23686576365E+03  0.30000000000E+02 0. -1.
     200000    1    3    3    0    0  0.17581126534E+03 -0.16105467350E+03  0.57413659400E+02  0.26522733110E+03  0.10100000000E+03 0. -1.
    -200001    1    1    2    0    0 -0.51876139353E+03 -0.10034215361E+03 -0.49120223890E+03  0.94669454985E+03  0.61300000000E+03 0.  1.
<mgrwt>
<rscale>  0 0.16208699E+04</rscale>
<asrwt>0</asrwt>
<pdfrwt beam="1">  1        2 0.19804420E+00 0.16208699E+04</pdfrwt>
<pdfrwt beam="2">  1       -2 0.67682765E-01 0.16208699E+04</pdfrwt>
<totfact> 0.32306078E+01</totfact>
</mgrwt>
</event>
<event>
 8    1  0.7583103E-052  0.1251452E+04  0.7818608E-02  0.9068975E-01
          2   -1    0    0  501    0  0.00000000000E+00  0.00000000000E+00  0.12302447757E+04  0.12302447757E+04  0.25500000000E-02 0.  1.
         -2   -1    0    0    0  501 -0.00000000000E+00 -0.00000000000E+00 -0.31825637261E+03  0.31825637262E+03  0.25500000000E-02 0. -1.
     200001    2    1    2    0    0  0.80436277097E+02  0.44046721906E+02  0.39058669245E+03  0.73853889475E+03  0.62005776050E+03 0.  0.
    5000001    2    3    3    0    0  0.26547779836E+03 -0.14016464039E+03  0.31320815296E+03  0.44808643915E+03  0.11206034996E+03 0.  0.
        -13    1    4    4    0    0  0.24908771987E+03 -0.11383602502E+03  0.29082354501E+03  0.39947675562E+03  0.10566000000E+00 0. -1.
     200003    1    4    4    0    0  0.16390078491E+02 -0.26328615371E+02  0.22384607946E+02  0.48609683533E+02  0.30000000000E+02 0.  1.
     200000    1    3    3    0    0 -0.18504152126E+03  0.18421136229E+03  0.77378539493E+02  0.29045245560E+03  0.10100000000E+03 0. -1.
    -200001    1    1    2    0    0 -0.80436277097E+02 -0.44046721906E+02  0.52140171069E+03  0.80996225362E+03  0.61300000000E+03 0.  1.
<mgrwt>
<rscale>  0 0.12514523E+04</rscale>
<asrwt>0</asrwt>
<pdfrwt beam="1">  1        2 0.17574925E+00 0.12514523E+04</pdfrwt>
<pdfrwt beam="2">  1       -2 0.45465196E-01 0.12514523E+04</pdfrwt>
<totfact> 0.92662016E+01</totfact>
</mgrwt>
</event>
<event>
 8    1  0.7583103E-052  0.1927455E+04  0.7818608E-02  0.8641310E-01
          2   -1    0    0  501    0  0.00000000000E+00  0.00000000000E+00  0.21321706037E+04  0.21321706037E+04  0.25500000000E-02 0.  1.
         -2   -1    0    0    0  501 -0.00000000000E+00 -0.00000000000E+00 -0.43559858892E+03  0.43559858893E+03  0.25500000000E-02 0. -1.
     200001    2    1    2    0    0 -0.16552588975E+03 -0.68333289542E+03  0.52620893672E+03  0.10711525414E+04  0.61329377608E+03 0.  0.
    5000001    2    3    3    0    0  0.21770239961E+03 -0.31358024887E+03  0.19930505603E+03  0.43818485772E+03  0.80972568843E+02 0.  0.
        -13    1    4    4    0    0  0.14950656385E+02 -0.99395641040E+01 -0.51165062192E+01  0.18668338460E+02  0.10566000000E+00 0. -1.
     200003    1    4    4    0    0  0.20275174322E+03 -0.30364068476E+03  0.20442156225E+03  0.41951651926E+03  0.30000000000E+02 0. -1.
     200000    1    3    3    0    0 -0.38322828936E+03 -0.36975264656E+03  0.32690388069E+03  0.63296768370E+03  0.10100000000E+03 0.  1.
    -200001    1    1    2    0    0  0.16552588975E+03  0.68333289542E+03  0.11703630780E+04  0.14966166512E+04  0.61300000000E+03 0.  1.
<mgrwt>
<rscale>  0 0.19274548E+04</rscale>
<asrwt>0</asrwt>
<pdfrwt beam="1">  1        2 0.30459580E+00 0.19274548E+04</pdfrwt>
<pdfrwt beam="2">  1       -2 0.62228370E-01 0.19274548E+04</pdfrwt>
<totfact> 0.15409117E+01</totfact>
</mgrwt>
</event>
<event>
 8    1  0.7583103E-052  0.1327941E+04  0.7818608E-02  0.9007697E-01
         -2   -1    0    0    0  501 -0.00000000000E+00  0.00000000000E+00  0.11603016239E+03  0.11603016242E+03  0.25500000000E-02 0. -1.
          2   -1    0    0  501    0  0.00000000000E+00 -0.00000000000E+00 -0.37995016851E+04  0.37995016851E+04  0.25500000000E-02 0.  1.
     200001    2    1    2    0    0 -0.20492807108E+02 -0.15022026845E+02 -0.10826201553E+04  0.12432963691E+04  0.61079771157E+03 0.  0.
    5000001    2    3    3    0    0  0.29835326454E+02  0.24684643784E+03 -0.48956434904E+03  0.58525062367E+03  0.20253821877E+03 0.  0.
        -13    1    4    4    0    0 -0.53964516249E+01  0.25869614141E+03 -0.46350209874E+03  0.53083615360E+03  0.10566000000E+00 0. -1.
     200003    1    4    4    0    0  0.35231778079E+02 -0.11849703567E+02 -0.26062250302E+02  0.54414470061E+02  0.30000000000E+02 0. -1.
     200000    1    3    3    0    0 -0.50328133562E+02 -0.26186846469E+03 -0.59305580624E+03  0.65804574548E+03  0.10100000000E+03 0.  1.
    -200001    1    1    2    0    0  0.20492807108E+02  0.15022026845E+02 -0.26008513674E+04  0.26722354783E+04  0.61300000000E+03 0.  1.
<mgrwt>
<rscale>  0 0.13279410E+04</rscale>
<asrwt>0</asrwt>
<pdfrwt beam="1">  1        2 0.54278588E+00 0.13279410E+04</pdfrwt>
<pdfrwt beam="2">  1       -2 0.16575740E-01 0.13279410E+04</pdfrwt>
<totfact> 0.23004321E+01</totfact>
</mgrwt>
</event>
<event>
 8    1  0.7583103E-052  0.1425514E+04  0.7818608E-02  0.8935554E-01
         -2   -1    0    0    0  501 -0.00000000000E+00  0.00000000000E+00  0.38803900253E+03  0.38803900254E+03  0.25500000000E-02 0. -1.
          2   -1    0    0  501    0  0.00000000000E+00 -0.00000000000E+00 -0.13092052326E+04  0.13092052326E+04  0.25500000000E-02 0.  1.
     200001    2    1    2    0    0  0.30787353828E+03  0.10426094398E+03 -0.26695361670E+03  0.74360929265E+03  0.61321618263E+03 0.  0.
    5000001    2    3    3    0    0 -0.25129124880E+02  0.96897755279E+02 -0.33089103993E+03  0.38972515298E+03  0.17993378413E+03 0.  0.
        -13    1    4    4    0    0  0.59127627614E+02  0.10000448412E+03 -0.19611329047E+03  0.22794167468E+03  0.10566000000E+00 0. -1.
     200003    1    4    4    0    0 -0.84256752495E+02 -0.31067288406E+01 -0.13477774946E+03  0.16178347831E+03  0.30000000000E+02 0. -1.
     200000    1    3    3    0    0  0.33300266316E+03  0.73631887046E+01  0.63937423228E+02  0.35388413967E+03  0.10100000000E+03 0. -1.
    -200001    1    1    2    0    0 -0.30787353828E+03 -0.10426094398E+03 -0.65421261335E+03  0.95363494246E+03  0.61300000000E+03 0.  1.
<mgrwt>
<rscale>  0 0.14255142E+04</rscale>
<asrwt>0</asrwt>
<pdfrwt beam="1">  1        2 0.18702932E+00 0.14255142E+04</pdfrwt>
<pdfrwt beam="2">  1       -2 0.55434144E-01 0.14255142E+04</pdfrwt>
<totfact> 0.55191470E+01</totfact>
</mgrwt>
</event>
<event>
 8    1  0.7583103E-052  0.1577145E+04  0.7818608E-02  0.8834713E-01
          2   -1    0    0  501    0  0.00000000000E+00  0.00000000000E+00  0.11157791061E+04  0.11157791061E+04  0.25500000000E-02 0.  1.
         -2   -1    0    0    0  501 -0.00000000000E+00 -0.00000000000E+00 -0.55732019355E+03  0.55732019356E+03  0.25500000000E-02 0. -1.
     200001    2    1    2    0    0 -0.31814857848E+03 -0.12334551241E+03  0.66119783853E+03  0.96404576123E+03  0.61300001195E+03 0.  0.
    5000001    2    3    3    0    0 -0.35210756141E+02  0.11262359269E+03 -0.29460914018E+02  0.17477664215E+03  0.12551915474E+03 0.  0.
        -13    1    4    4    0    0 -0.71724650774E+02  0.93121056795E+02 -0.38682264132E+01  0.11760497901E+03  0.10566000000E+00 0. -1.
     200003    1    4    4    0    0  0.36513894633E+02  0.19502535895E+02 -0.25592687605E+02  0.57171663142E+02  0.30000000000E+02 0. -1.
     200000    1    3    3    0    0 -0.28293782234E+03 -0.23596910510E+03  0.69065875255E+03  0.78926911908E+03  0.10100000000E+03 0.  1.
    -200001    1    1    2    0    0  0.31814857848E+03  0.12334551241E+03 -0.10273892600E+03  0.70905353841E+03  0.61300000000E+03 0. -1.
<mgrwt>
<rscale>  0 0.15771445E+04</rscale>
<asrwt>0</asrwt>
<pdfrwt beam="1">  1        2 0.15939701E+00 0.15771445E+04</pdfrwt>
<pdfrwt beam="2">  1       -2 0.79617172E-01 0.15771445E+04</pdfrwt>
<totfact> 0.32171779E+01</totfact>
</mgrwt>
</event>
<event>
 8    1  0.7583103E-052  0.1441486E+04  0.7818608E-02  0.8924324E-01
         -2   -1    0    0    0  501 -0.00000000000E+00  0.00000000000E+00  0.34828506190E+03  0.34828506191E+03  0.25500000000E-02 0. -1.
          2   -1    0    0  501    0  0.00000000000E+00 -0.00000000000E+00 -0.14915100000E+04  0.14915100000E+04  0.25500000000E-02 0.  1.
     200001    2    1    2    0    0 -0.21701186156E+03 -0.24572306887E+02 -0.17453740366E+03  0.67282356024E+03  0.61198880023E+03 0.  0.
    5000001    2    3    3    0    0 -0.11185829978E+02 -0.28761892993E+03 -0.11894741374E+03  0.31948359908E+03  0.71214543475E+02 0.  0.
        -13    1    4    4    0    0  0.24373292265E+02 -0.85563923038E+02 -0.41200202366E+02  0.98044429421E+02  0.10566000000E+00 0. -1.
     200003    1    4    4    0    0 -0.35559122244E+02 -0.20205500689E+03 -0.77747211374E+02  0.22143916966E+03  0.30000000000E+02 0. -1.
     200000    1    3    3    0    0 -0.20582603158E+03  0.26304662304E+03 -0.55589989924E+02  0.35333996116E+03  0.10100000000E+03 0.  1.
    -200001    1    1    2    0    0  0.21701186156E+03  0.24572306887E+02 -0.96868753441E+03  0.11669715016E+04  0.61300000000E+03 0.  1.
<mgrwt>
<rscale>  0 0.14414863E+04</rscale>
<asrwt>0</asrwt>
<pdfrwt beam="1">  1        2 0.21307285E+00 0.14414863E+04</pdfrwt>
<pdfrwt beam="2">  1       -2 0.49755010E-01 0.14414863E+04</pdfrwt>
<totfact> 0.54844585E+01</totfact>
</mgrwt>
</event>
<event>
 8    1  0.7583103E-052  0.1398506E+04  0.7818608E-02  0.8954900E-01
          2   -1    0    0  501    0  0.00000000000E+00  0.00000000000E+00  0.25397126364E+03  0.25397126365E+03  0.25500000000E-02 0. -1.
         -2   -1    0    0    0  501 -0.00000000000E+00 -0.00000000000E+00 -0.19252378453E+04  0.19252378453E+04  0.25500000000E-02 0.  1.
     200001    2    1    2    0    0  0.43554980851E+02  0.21059199439E+03 -0.12391376506E+04  0.13989845019E+04  0.61273933678E+03 0.  0.
    5000001    2    3    3    0    0  0.10017224906E+03 -0.46573113143E+02 -0.83229266312E+03  0.90394586555E+03  0.33496793342E+03 0.  0.
        -13    1    4    4    0    0 -0.12039125767E+02  0.13588239611E+03 -0.31876083449E+03  0.34672387702E+03  0.10566000000E+00 0. -1.
     200003    1    4    4    0    0  0.11221137483E+03 -0.18245550925E+03 -0.51353182862E+03  0.55722198854E+03  0.30000000000E+02 0. -1.
     200000    1    3    3    0    0 -0.56617268210E+02  0.25716510754E+03 -0.40684498750E+03  0.49503863632E+03  0.10100000000E+03 0.  1.
    -200001    1    1    2    0    0 -0.43554980851E+02 -0.21059199439E+03 -0.43212893107E+03  0.78022460710E+03  0.61300000000E+03 0. -1.
<mgrwt>
<rscale>  0 0.13985065E+04</rscale>
<asrwt>0</asrwt>
<pdfrwt beam="1">  1        2 0.36281610E-01 0.13985065E+04</pdfrwt>
<pdfrwt beam="2">  1       -2 0.27503397E+00 0.13985065E+04</pdfrwt>
<totfact> 0.63450878E+00</totfact>
</mgrwt>
</event>
<event>
 8    1  0.7583103E-052  0.1482056E+04  0.7818608E-02  0.8896474E-01
         -2   -1    0    0    0  501 -0.00000000000E+00  0.00000000000E+00  0.20373107842E+03  0.20373107844E+03  0.25500000000E-02 0. -1.
          2   -1    0    0  501    0  0.00000000000E+00 -0.00000000000E+00 -0.26953292048E+04  0.26953292048E+04  0.25500000000E-02 0.  1.
     200001    2    1    2    0    0  0.23080275228E+03  0.34316730396E+03 -0.11615975577E+04  0.13773164738E+04  0.61372475420E+03 0.  0.
    5000001    2    3    3    0    0 -0.10768339440E+03 -0.97679746058E+02 -0.31246632747E+03  0.35744205055E+03  0.94829148887E+02 0.  0.
        -13    1    4    4    0    0 -0.85304541482E+02 -0.97969538415E+02 -0.19626124502E+03  0.23535798843E+03  0.10566000000E+00 0. -1.
     200003    1    4    4    0    0 -0.22378852918E+02  0.28979235625E+00 -0.11620508245E+03  0.12208406213E+03  0.30000000000E+02 0. -1.
     200000    1    3    3    0    0  0.33848614668E+03  0.44084705001E+03 -0.84913123022E+03  0.10198744232E+04  0.10100000000E+03 0.  1.
    -200001    1    1    2    0    0 -0.23080275228E+03 -0.34316730396E+03 -0.13300005687E+04  0.15217438095E+04  0.61300000000E+03 0. -1.
<mgrwt>
<rscale>  0 0.14820558E+04</rscale>
<asrwt>0</asrwt>
<pdfrwt beam="1">  1        2 0.38504701E+00 0.14820558E+04</pdfrwt>
<pdfrwt beam="2">  1       -2 0.29104441E-01 0.14820558E+04</pdfrwt>
<totfact> 0.36556706E+01</totfact>
</mgrwt>
</event>
<event>
 8    1  0.7583103E-052  0.1452978E+04  0.7818608E-02  0.8916339E-01
          2   -1    0    0  501    0  0.00000000000E+00  0.00000000000E+00  0.14037786671E+04  0.14037786671E+04  0.25500000000E-02 0.  1.
         -2   -1    0    0    0  501 -0.00000000000E+00 -0.00000000000E+00 -0.37597522506E+03  0.37597522507E+03  0.25500000000E-02 0. -1.
     200001    2    1    2    0    0  0.16793671958E+03  0.34179526162E+03  0.61466194928E+03  0.94820014422E+03  0.61339013601E+03 0.  0.
    5000001    2    3    3    0    0 -0.96192438448E+02  0.40125576090E+03  0.43826702691E+03  0.60965039642E+03  0.96625297478E+02 0.  0.
        -13    1    4    4    0    0  0.14795230631E+02  0.92098966079E+02  0.11116249817E+03  0.14511454292E+03  0.10566000000E+00 0. -1.
     200003    1    4    4    0    0 -0.11098766908E+03  0.30915679482E+03  0.32710452874E+03  0.46453585350E+03  0.30000000000E+02 0. -1.
     200000    1    3    3    0    0  0.26412915803E+03 -0.59460499272E+02  0.17639492237E+03  0.33854974780E+03  0.10100000000E+03 0.  1.
    -200001    1    1    2    0    0 -0.16793671958E+03 -0.34179526162E+03  0.41314149273E+03  0.83155374791E+03  0.61300000000E+03 0.  1.
<mgrwt>
<rscale>  0 0.14529776E+04</rscale>
<asrwt>0</asrwt>
<pdfrwt beam="1">  1        2 0.20053981E+00 0.14529776E+04</pdfrwt>
<pdfrwt beam="2">  1       -2 0.53710747E-01 0.14529776E+04</pdfrwt>
<totfact> 0.52205625E+01</totfact>
</mgrwt>
</event>
<event>
 8    1  0.7583103E-052  0.1330696E+04  0.7818608E-02  0.9005571E-01
         -2   -1    0    0    0  501 -0.00000000000E+00  0.00000000000E+00  0.38137208413E+03  0.38137208414E+03  0.25500000000E-02 0. -1.
          2   -1    0    0  501    0  0.00000000000E+00 -0.00000000000E+00 -0.11607775152E+04  0.11607775152E+04  0.25500000000E-02 0.  1.
     200001    2    1    2    0    0  0.22644924290E+03  0.94680581455E+02 -0.48541857039E+03  0.81934883401E+03  0.61274599239E+03 0.  0.
    5000001    2    3    3    0    0  0.60422905130E+02 -0.18925532700E+01  0.10922757653E+03  0.18634318219E+03  0.13834236101E+03 0.  0.
        -13    1    4    4    0    0  0.80892953317E+01 -0.34551256599E+02 -0.19491944235E+02  0.40486702578E+02  0.10566000000E+00 0. -1.
     200003    1    4    4    0    0  0.52333609798E+02  0.32658703329E+02  0.12871952077E+03  0.14585647961E+03  0.30000000000E+02 0. -1.
     200000    1    3    3    0    0  0.16602633777E+03  0.96573134725E+02 -0.59464614692E+03  0.63300565182E+03  0.10100000000E+03 0.  1.
    -200001    1    1    2    0    0 -0.22644924290E+03 -0.94680581455E+02 -0.29398686066E+03  0.72280076533E+03  0.61300000000E+03 0. -1.
<mgrwt>
<rscale>  0 0.13306963E+04</rscale>
<asrwt>0</asrwt>
<pdfrwt beam="1">  1        2 0.16582536E+00 0.13306963E+04</pdfrwt>
<pdfrwt beam="2">  1       -2 0.54481727E-01 0.13306963E+04</pdfrwt>
<totfact> 0.69863477E+01</totfact>
</mgrwt>
</event>
<event>
 8    1  0.7583103E-052  0.1294044E+04  0.7818608E-02  0.9034302E-01
          2   -1    0    0  501    0  0.00000000000E+00  0.00000000000E+00  0.92842467545E+03  0.92842467546E+03  0.25500000000E-02 0.  1.
         -2   -1    0    0    0  501 -0.00000000000E+00 -0.00000000000E+00 -0.45091132843E+03  0.45091132844E+03  0.25500000000E-02 0. -1.
     200001    2    1    2    0    0  0.39925209019E+01  0.20017495301E+03  0.20855619053E+03  0.68062797899E+03  0.61617595631E+03 0.  0.
    5000001    2    3    3    0    0  0.13864847101E+02  0.38983843730E+03  0.23742918535E+03  0.46359261338E+03  0.79870219371E+02 0.  0.
        -13    1    4    4    0    0  0.33677950186E+02  0.14534986880E+03  0.67969808411E+02  0.16395333088E+03  0.10566000000E+00 0. -1.
     200003    1    4    4    0    0 -0.19813103085E+02  0.24448856850E+03  0.16945937694E+03  0.29963928250E+03  0.30000000000E+02 0. -1.
     200000    1    3    3    0    0 -0.98723261988E+01 -0.18966348429E+03 -0.28872994819E+02  0.21703536561E+03  0.10100000000E+03 0. -1.
    -200001    1    1    2    0    0 -0.39925209019E+01 -0.20017495301E+03  0.26895715649E+03  0.69870802490E+03  0.61300000000E+03 0.  1.
<mgrwt>
<rscale>  0 0.12940436E+04</rscale>
<asrwt>0</asrwt>
<pdfrwt beam="1">  1        2 0.13263210E+00 0.12940436E+04</pdfrwt>
<pdfrwt beam="2">  1       -2 0.64415905E-01 0.12940436E+04</pdfrwt>
<totfact> 0.68100540E+01</totfact>
</mgrwt>
</event>
<event>
 8    1  0.7583103E-052  0.1502397E+04  0.7818608E-02  0.8882861E-01
         -2   -1    0    0    0  501 -0.00000000000E+00  0.00000000000E+00  0.18791452239E+03  0.18791452240E+03  0.25500000000E-02 0. -1.
          2   -1    0    0  501    0  0.00000000000E+00 -0.00000000000E+00 -0.30029551205E+04  0.30029551205E+04  0.25500000000E-02 0.  1.
     200001    2    1    2    0    0 -0.14081768456E+02 -0.30847944279E+03 -0.20557108098E+04  0.21672932704E+04  0.61307040691E+03 0.  0.
    5000001    2    3    3    0    0 -0.13232485311E+01  0.98606296300E+02 -0.77815166350E+02  0.14537493502E+03  0.73169112079E+02 0.  0.
        -13    1    4    4    0    0  0.28061731855E+02  0.36186531002E+02 -0.17769746916E+02  0.49119251726E+02  0.10566000000E+00 0. -1.
     200003    1    4    4    0    0 -0.29384980386E+02  0.62419765299E+02 -0.60045419434E+02  0.96255683298E+02  0.30000000000E+02 0. -1.
     200000    1    3    3    0    0 -0.12758519925E+02 -0.40708573909E+03 -0.19778956434E+04  0.20219183354E+04  0.10100000000E+03 0. -1.
    -200001    1    1    2    0    0  0.14081768456E+02  0.30847944279E+03 -0.75932978835E+03  0.10235763725E+04  0.61300000000E+03 0. -1.
<mgrwt>
<rscale>  0 0.15023966E+04</rscale>
<asrwt>0</asrwt>
<pdfrwt beam="1">  1        2 0.42899356E+00 0.15023966E+04</pdfrwt>
<pdfrwt beam="2">  1       -2 0.26844934E-01 0.15023966E+04</pdfrwt>
<totfact> 0.28778073E+01</totfact>
</mgrwt>
</event>
<event>
 8    1  0.7583103E-052  0.1446567E+04  0.7818608E-02  0.8920784E-01
         -2   -1    0    0    0  501 -0.00000000000E+00  0.00000000000E+00  0.22316936199E+03  0.22316936201E+03  0.25500000000E-02 0. -1.
          2   -1    0    0  501    0  0.00000000000E+00 -0.00000000000E+00 -0.23441343442E+04  0.23441343442E+04  0.25500000000E-02 0.  1.
     200001    2    1    2    0    0  0.34298709568E+02  0.98040592796E+02 -0.40457367033E+03  0.74177460624E+03  0.61299376215E+03 0.  0.
    5000001    2    3    3    0    0  0.14999403914E+03  0.21072650114E+03 -0.46913537688E+03  0.54064594798E+03  0.72843456550E+02 0.  0.
        -13    1    4    4    0    0  0.11589500865E+03  0.15196864236E+03 -0.37354478618E+03  0.41959723514E+03  0.10566000000E+00 0. -1.
     200003    1    4    4    0    0  0.34099030488E+02  0.58757858782E+02 -0.95590590698E+02  0.12104871283E+03  0.30000000000E+02 0.  1.
     200000    1    3    3    0    0 -0.11569532957E+03 -0.11268590835E+03  0.64561706549E+02  0.20112865827E+03  0.10100000000E+03 0. -1.
    -200001    1    1    2    0    0 -0.34298709568E+02 -0.98040592796E+02 -0.17163913119E+04  0.18255290999E+04  0.61300000000E+03 0.  1.
<mgrwt>
<rscale>  0 0.14465669E+04</rscale>
<asrwt>0</asrwt>
<pdfrwt beam="1">  1        2 0.33487632E+00 0.14465669E+04</pdfrwt>
<pdfrwt beam="2">  1       -2 0.31881339E-01 0.14465669E+04</pdfrwt>
<totfact> 0.47336475E+01</totfact>
</mgrwt>
</event>
<event>
 8    1  0.7583103E-052  0.1820751E+04  0.7818608E-02  0.8695342E-01
         -2   -1    0    0    0  501 -0.00000000000E+00  0.00000000000E+00  0.50510894474E+03  0.50510894475E+03  0.25500000000E-02 0. -1.
          2   -1    0    0  501    0  0.00000000000E+00 -0.00000000000E+00 -0.16408012405E+04  0.16408012405E+04  0.25500000000E-02 0.  1.
     200001    2    1    2    0    0 -0.22346088530E+03 -0.44142157823E+02 -0.13144914493E+04  0.14679563264E+04  0.61247425146E+03 0.  0.
    5000001    2    3    3    0    0  0.84624194610E+02 -0.64771572321E+02 -0.10221483003E+04  0.10309122715E+04  0.81463812496E+02 0.  0.
        -13    1    4    4    0    0  0.62008885243E+02 -0.33519563436E+01 -0.48585640650E+03  0.48980893863E+03  0.10566000000E+00 0. -1.
     200003    1    4    4    0    0  0.22615309368E+02 -0.61419615978E+02 -0.53629189385E+03  0.54110333288E+03  0.30000000000E+02 0. -1.
     200000    1    3    3    0    0 -0.30808507991E+03  0.20629414499E+02 -0.29234314891E+03  0.43704405490E+03  0.10100000000E+03 0.  1.
    -200001    1    1    2    0    0  0.22346088530E+03  0.44142157823E+02  0.17879915354E+03  0.67795385880E+03  0.61300000000E+03 0. -1.
<mgrwt>
<rscale>  0 0.18207508E+04</rscale>
<asrwt>0</asrwt>
<pdfrwt beam="1">  1        2 0.23440017E+00 0.18207508E+04</pdfrwt>
<pdfrwt beam="2">  1       -2 0.72158422E-01 0.18207508E+04</pdfrwt>
<totfact> 0.20251592E+01</totfact>
</mgrwt>
</event>
<event>
 8    1  0.7583103E-052  0.1635498E+04  0.7818608E-02  0.8799032E-01
          2   -1    0    0  501    0  0.00000000000E+00  0.00000000000E+00  0.14408534129E+04  0.14408534129E+04  0.25500000000E-02 0.  1.
         -2   -1    0    0    0  501 -0.00000000000E+00 -0.00000000000E+00 -0.46410921226E+03  0.46410921226E+03  0.25500000000E-02 0. -1.
     200001    2    1    2    0    0  0.44163776107E+03 -0.21686969876E+03  0.22422964240E+03  0.81678821882E+03  0.61219905556E+03 0.  0.
    5000001    2    3    3    0    0  0.53932584091E+03 -0.20385279348E+03  0.38881219025E+02  0.58383449205E+03  0.83202408847E+02 0.  0.
        -13    1    4    4    0    0  0.31531599767E+03 -0.15438177734E+03  0.28636842572E+02  0.35224706028E+03  0.10566000000E+00 0. -1.
     200003    1    4    4    0    0  0.22400984324E+03 -0.49471016142E+02  0.10244376453E+02  0.23158743177E+03  0.30000000000E+02 0. -1.
     200000    1    3    3    0    0 -0.97688079839E+02 -0.13016905277E+02  0.18534842337E+03  0.23295372676E+03  0.10100000000E+03 0.  1.
    -200001    1    1    2    0    0 -0.44163776107E+03  0.21686969876E+03  0.75251455822E+03  0.10881744063E+04  0.61300000000E+03 0.  1.
<mgrwt>
<rscale>  0 0.16354979E+04</rscale>
<asrwt>0</asrwt>
<pdfrwt beam="1">  1        2 0.20583621E+00 0.16354979E+04</pdfrwt>
<pdfrwt beam="2">  1       -2 0.66301315E-01 0.16354979E+04</pdfrwt>
<totfact> 0.31526899E+01</totfact>
</mgrwt>
</event>
<event>
 8    1  0.7583103E-052  0.1353229E+04  0.7818608E-02  0.8988387E-01
         -2   -1    0    0    0  501 -0.00000000000E+00  0.00000000000E+00  0.69627459698E+03  0.69627459698E+03  0.25500000000E-02 0. -1.
          2   -1    0    0  501    0  0.00000000000E+00 -0.00000000000E+00 -0.65750989782E+03  0.65750989783E+03  0.25500000000E-02 0.  1.
     200001    2    1    2    0    0  0.97888571701E+02 -0.25344642077E+03  0.10669983553E+03  0.67983980611E+03  0.61398700834E+03 0.  0.
    5000001    2    3    3    0    0  0.72939332595E+02  0.17376230613E+03 -0.54951339131E+02  0.21137223718E+03  0.78390609825E+02 0.  0.
        -13    1    4    4    0    0 -0.77688757599E+01  0.17963017975E+02 -0.23539642414E+02  0.30612928222E+02  0.10566000000E+00 0. -1.
     200003    1    4    4    0    0  0.80708208355E+02  0.15579928815E+03 -0.31411696717E+02  0.18075930896E+03  0.30000000000E+02 0. -1.
     200000    1    3    3    0    0  0.24949239107E+02 -0.42720872690E+03  0.16165117466E+03  0.46846756893E+03  0.10100000000E+03 0. -1.
    -200001    1    1    2    0    0 -0.97888571701E+02  0.25344642077E+03 -0.67935136373E+02  0.67394468870E+03  0.61300000000E+03 0.  1.
<mgrwt>
<rscale>  0 0.13532294E+04</rscale>
<asrwt>0</asrwt>
<pdfrwt beam="1">  1        2 0.93929985E-01 0.13532294E+04</pdfrwt>
<pdfrwt beam="2">  1       -2 0.99467800E-01 0.13532294E+04</pdfrwt>
<totfact> 0.39773586E+01</totfact>
</mgrwt>
</event>
<event>
 8    1  0.7583103E-052  0.1728406E+04  0.7818608E-02  0.8745327E-01
          2   -1    0    0  501    0  0.00000000000E+00  0.00000000000E+00  0.93445928625E+03  0.93445928625E+03  0.25500000000E-02 0.  1.
         -2   -1    0    0    0  501 -0.00000000000E+00 -0.00000000000E+00 -0.79922898647E+03  0.79922898648E+03  0.25500000000E-02 0. -1.
     200001    2    1    2    0    0  0.30937777882E+03 -0.48342858059E+03 -0.13642999650E+03  0.85108636975E+03  0.61344686996E+03 0.  0.
    5000001    2    3    3    0    0  0.44369618041E+03 -0.49529942343E+03 -0.12485718947E+03  0.68221576907E+03  0.87414063234E+02 0.  0.
        -13    1    4    4    0    0  0.13784211086E+03 -0.21029944121E+03 -0.40775647474E+02  0.25473312916E+03  0.10566000000E+00 0. -1.
     200003    1    4    4    0    0  0.30585406954E+03 -0.28499998222E+03 -0.84081541995E+02  0.42748263991E+03  0.30000000000E+02 0. -1.
     200000    1    3    3    0    0 -0.13431840158E+03  0.11870842833E+02 -0.11572807028E+02  0.16887060068E+03  0.10100000000E+03 0.  1.
    -200001    1    1    2    0    0 -0.30937777882E+03  0.48342858059E+03  0.27166029628E+03  0.88260190298E+03  0.61300000000E+03 0.  1.
<mgrwt>
<rscale>  0 0.17284061E+04</rscale>
<asrwt>0</asrwt>
<pdfrwt beam="1">  1        2 0.13349418E+00 0.17284061E+04</pdfrwt>
<pdfrwt beam="2">  1       -2 0.11417557E+00 0.17284061E+04</pdfrwt>
<totfact> 0.17649993E+01</totfact>
</mgrwt>
</event>
<event>
 8    1  0.7583103E-052  0.1259132E+04  0.7818608E-02  0.9062617E-01
         -2   -1    0    0    0  501 -0.00000000000E+00  0.00000000000E+00  0.86754063683E+03  0.86754063684E+03  0.25500000000E-02 0. -1.
          2   -1    0    0  501    0  0.00000000000E+00 -0.00000000000E+00 -0.45686975642E+03  0.45686975643E+03  0.25500000000E-02 0.  1.
     200001    2    1    2    0    0  0.77507522228E+02  0.83191948595E+02  0.28965038970E+03  0.68931726979E+03  0.61508750098E+03 0.  0.
    5000001    2    3    3    0    0  0.41426551775E+02 -0.17610990141E+03  0.34748990941E+03  0.40281125609E+03  0.93684653631E+02 0.  0.
        -13    1    4    4    0    0  0.17604228464E+02 -0.89608930024E+01  0.98639487347E+02  0.10059804218E+03  0.10566000000E+00 0. -1.
     200003    1    4    4    0    0  0.23822323311E+02 -0.16714900841E+03  0.24885042207E+03  0.30221321391E+03  0.30000000000E+02 0. -1.
     200000    1    3    3    0    0  0.36080970453E+02  0.25930185000E+03 -0.57839519715E+02  0.28650601370E+03  0.10100000000E+03 0.  1.
    -200001    1    1    2    0    0 -0.77507522228E+02 -0.83191948595E+02  0.12102049071E+03  0.63509312348E+03  0.61300000000E+03 0.  1.
<mgrwt>
<rscale>  0 0.12591316E+04</rscale>
<asrwt>0</asrwt>
<pdfrwt beam="1">  1        2 0.65267108E-01 0.12591316E+04</pdfrwt>
<pdfrwt beam="2">  1       -2 0.12393438E+00 0.12591316E+04</pdfrwt>
<totfact> 0.35871380E+01</totfact>
</mgrwt>
</event>
<event>
 8    1  0.7583103E-052  0.1322221E+04  0.7818608E-02  0.9012127E-01
         -2   -1    0    0    0  501 -0.00000000000E+00  0.00000000000E+00  0.39617871406E+03  0.39617871407E+03  0.25500000000E-02 0. -1.
          2   -1    0    0  501    0  0.00000000000E+00 -0.00000000000E+00 -0.11032071695E+04  0.11032071695E+04  0.25500000000E-02 0.  1.
     200001    2    1    2    0    0  0.11700486196E+03 -0.12270904961E+03 -0.14817652159E+03  0.65272648776E+03  0.61265645977E+03 0.  0.
    5000001    2    3    3    0    0 -0.12896722186E+03 -0.19389614026E+02  0.16562006350E+03  0.22864339614E+03  0.88539797360E+02 0.  0.
        -13    1    4    4    0    0 -0.42728081795E+02 -0.14696112128E+02  0.11628053977E+03  0.12475111134E+03  0.10566000000E+00 0. -1.
     200003    1    4    4    0    0 -0.86239140067E+02 -0.46935018981E+01  0.49339523724E+02  0.10389228480E+03  0.30000000000E+02 0.  1.
     200000    1    3    3    0    0  0.24597208382E+03 -0.10331943558E+03 -0.31379658509E+03  0.42408309163E+03  0.10100000000E+03 0.  1.
    -200001    1    1    2    0    0 -0.11700486196E+03  0.12270904961E+03 -0.55885193389E+03  0.84665939585E+03  0.61300000000E+03 0.  1.
<mgrwt>
<rscale>  0 0.13222212E+04</rscale>
<asrwt>0</asrwt>
<pdfrwt beam="1">  1        2 0.15760102E+00 0.13222212E+04</pdfrwt>
<pdfrwt beam="2">  1       -2 0.56596959E-01 0.13222212E+04</pdfrwt>
<totfact> 0.69778449E+01</totfact>
</mgrwt>
</event>
<event>
 8    1  0.7583103E-052  0.1607763E+04  0.7818608E-02  0.8815793E-01
          2   -1    0    0  501    0  0.00000000000E+00  0.00000000000E+00  0.14742479022E+04  0.14742479022E+04  0.25500000000E-02 0. -1.
         -2   -1    0    0    0  501 -0.00000000000E+00 -0.00000000000E+00 -0.43834260631E+03  0.43834260631E+03  0.25500000000E-02 0.  1.
     200001    2    1    2    0    0 -0.19503915030E+03  0.11886203016E+03  0.10776793028E+04  0.12570887770E+04  0.60556672735E+03 0.  0.
    5000001    2    3    3    0    0  0.12674222948E+03  0.18755862913E+03  0.23246659300E+03  0.34448371245E+03  0.11569995328E+03 0.  0.
        -13    1    4    4    0    0  0.30022769555E+02 -0.66640478866E+01  0.53160564764E+02  0.61415250842E+02  0.10566000000E+00 0. -1.
     200003    1    4    4    0    0  0.96719459927E+02  0.19422267701E+03  0.17930602824E+03  0.28306846161E+03  0.30000000000E+02 0. -1.
     200000    1    3    3    0    0 -0.32178137978E+03 -0.68696598969E+02  0.84521270978E+03  0.91260506455E+03  0.10100000000E+03 0. -1.
    -200001    1    1    2    0    0  0.19503915030E+03 -0.11886203016E+03 -0.41774006883E+02  0.65550173151E+03  0.61300000000E+03 0.  1.
<mgrwt>
<rscale>  0 0.16077633E+04</rscale>
<asrwt>0</asrwt>
<pdfrwt beam="1">  1        2 0.21060684E+00 0.16077633E+04</pdfrwt>
<pdfrwt beam="2">  1       -2 0.62620372E-01 0.16077633E+04</pdfrwt>
<totfact> 0.34267947E+01</totfact>
</mgrwt>
</event>
<event>
 8    1  0.7583103E-052  0.1793101E+04  0.7818608E-02  0.8709977E-01
          2   -1    0    0  501    0  0.00000000000E+00  0.00000000000E+00  0.93445624778E+03  0.93445624778E+03  0.25500000000E-02 0.  1.
         -2   -1    0    0    0  501 -0.00000000000E+00 -0.00000000000E+00 -0.86018198591E+03  0.86018198591E+03  0.25500000000E-02 0. -1.
     200001    2    1    2    0    0  0.38955991267E+03  0.52491632579E+03  0.15545316287E+02  0.89657801094E+03  0.61344632870E+03 0.  0.
    5000001    2    3    3    0    0  0.63088763125E+02  0.36861667763E+03 -0.23250349909E+03  0.44630897324E+03  0.72631779865E+02 0.  0.
        -13    1    4    4    0    0  0.38781568309E+02  0.22507796076E+03 -0.10908130227E+03  0.25310638105E+03  0.10566000000E+00 0. -1.
     200003    1    4    4    0    0  0.24307194816E+02  0.14353871687E+03 -0.12342219682E+03  0.19320259218E+03  0.30000000000E+02 0.  1.
     200000    1    3    3    0    0  0.32647114955E+03  0.15629964816E+03  0.24804881537E+03  0.45026903770E+03  0.10100000000E+03 0.  1.
    -200001    1    1    2    0    0 -0.38955991267E+03 -0.52491632579E+03  0.58728945586E+02  0.89806022276E+03  0.61300000000E+03 0. -1.
<mgrwt>
<rscale>  0 0.17931006E+04</rscale>
<asrwt>0</asrwt>
<pdfrwt beam="1">  1        2 0.13349375E+00 0.17931006E+04</pdfrwt>
<pdfrwt beam="2">  1       -2 0.12288314E+00 0.17931006E+04</pdfrwt>
<totfact> 0.14646971E+01</totfact>
</mgrwt>
</event>
<event>
 8    1  0.7583103E-052  0.1735855E+04  0.7818608E-02  0.8741175E-01
         -2   -1    0    0    0  501 -0.00000000000E+00  0.00000000000E+00  0.50273903714E+03  0.50273903715E+03  0.25500000000E-02 0. -1.
          2   -1    0    0  501    0  0.00000000000E+00 -0.00000000000E+00 -0.14983888642E+04  0.14983888642E+04  0.25500000000E-02 0.  1.
     200001    2    1    2    0    0  0.59468603216E+03 -0.62737105781E+02 -0.33504561141E+03  0.91957607596E+03  0.61300666918E+03 0.  0.
    5000001    2    3    3    0    0  0.17015564725E+03 -0.73678565952E+02  0.16092863087E+03  0.25886644815E+03  0.82050828011E+02 0.  0.
        -13    1    4    4    0    0  0.13319033156E+03 -0.75188368563E+02  0.10560656872E+03  0.18586477264E+03  0.10566000000E+00 0. -1.
     200003    1    4    4    0    0  0.36965315685E+02  0.15098026109E+01  0.55322062143E+02  0.73001675510E+02  0.30000000000E+02 0. -1.
     200000    1    3    3    0    0  0.42453038491E+03  0.10941460171E+02 -0.49597424228E+03  0.66070962780E+03  0.10100000000E+03 0.  1.
    -200001    1    1    2    0    0 -0.59468603216E+03  0.62737105781E+02 -0.66060421566E+03  0.10815518254E+04  0.61300000000E+03 0.  1.
<mgrwt>
<rscale>  0 0.17358555E+04</rscale>
<asrwt>0</asrwt>
<pdfrwt beam="1">  1        2 0.21405555E+00 0.17358555E+04</pdfrwt>
<pdfrwt beam="2">  1       -2 0.71819863E-01 0.17358555E+04</pdfrwt>
<totfact> 0.24489335E+01</totfact>
</mgrwt>
</event>
<event>
 8    1  0.7583103E-052  0.1451907E+04  0.7818608E-02  0.8917079E-01
         -2   -1    0    0    0  501 -0.00000000000E+00  0.00000000000E+00  0.51420887679E+03  0.51420887680E+03  0.25500000000E-02 0. -1.
          2   -1    0    0  501    0  0.00000000000E+00 -0.00000000000E+00 -0.10248922661E+04  0.10248922661E+04  0.25500000000E-02 0.  1.
     200001    2    1    2    0    0 -0.29599290029E+03  0.23618819496E+03 -0.16167255527E+03  0.73849248521E+03  0.61305503434E+03 0.  0.
    5000001    2    3    3    0    0  0.80920611842E+02  0.29186816629E+03 -0.14026087928E+03  0.34374761228E+03  0.82183543230E+02 0.  0.
        -13    1    4    4    0    0  0.46115304689E+02  0.94239542173E+02 -0.80461826778E+02  0.13221886918E+03  0.10566000000E+00 0. -1.
     200003    1    4    4    0    0  0.34805307153E+02  0.19762862412E+03 -0.59799052504E+02  0.21152874310E+03  0.30000000000E+02 0. -1.
     200000    1    3    3    0    0 -0.37691351213E+03 -0.55679971337E+02 -0.21411675989E+02  0.39474487293E+03  0.10100000000E+03 0. -1.
    -200001    1    1    2    0    0  0.29599290029E+03 -0.23618819496E+03 -0.34901083400E+03  0.80060865765E+03  0.61300000000E+03 0.  1.
<mgrwt>
<rscale>  0 0.14519073E+04</rscale>
<asrwt>0</asrwt>
<pdfrwt beam="1">  1        2 0.14641318E+00 0.14519073E+04</pdfrwt>
<pdfrwt beam="2">  1       -2 0.73458411E-01 0.14519073E+04</pdfrwt>
<totfact> 0.44032643E+01</totfact>
</mgrwt>
</event>
<event>
 8    1  0.7583103E-052  0.1493253E+04  0.7818608E-02  0.8888952E-01
         -2   -1    0    0    0  501 -0.00000000000E+00  0.00000000000E+00  0.93265166889E+03  0.93265166889E+03  0.25500000000E-02 0. -1.
          2   -1    0    0  501    0  0.00000000000E+00 -0.00000000000E+00 -0.59770527017E+03  0.59770527018E+03  0.25500000000E-02 0.  1.
     200001    2    1    2    0    0  0.16657647723E+03 -0.22802601552E+03  0.49398969859E+03  0.83695420057E+03  0.61377758594E+03 0.  0.
    5000001    2    3    3    0    0  0.29324266641E+03 -0.19347443520E+03  0.56890876079E+02  0.36952023108E+03  0.99423392206E+02 0.  0.
        -13    1    4    4    0    0  0.24277633121E+03 -0.12805998429E+03  0.23464976559E+02  0.27548198283E+03  0.10566000000E+00 0. -1.
     200003    1    4    4    0    0  0.50466335200E+02 -0.65414450909E+02  0.33425899519E+02  0.94038248256E+02  0.30000000000E+02 0. -1.
     200000    1    3    3    0    0 -0.12666618918E+03 -0.34551580324E+02  0.43709882251E+03  0.46743396948E+03  0.10100000000E+03 0. -1.
    -200001    1    1    2    0    0 -0.16657647723E+03  0.22802601552E+03 -0.15904329988E+03  0.69340273850E+03  0.61300000000E+03 0.  1.
<mgrwt>
<rscale>  0 0.14932526E+04</rscale>
<asrwt>0</asrwt>
<pdfrwt beam="1">  1        2 0.85386468E-01 0.14932526E+04</pdfrwt>
<pdfrwt beam="2">  1       -2 0.13323595E+00 0.14932526E+04</pdfrwt>
<totfact> 0.21532576E+01</totfact>
</mgrwt>
</event>
<event>
 8    1  0.7583103E-052  0.1645857E+04  0.7818608E-02  0.8792861E-01
         -2   -1    0    0    0  501 -0.00000000000E+00  0.00000000000E+00  0.53535023775E+03  0.53535023776E+03  0.25500000000E-02 0. -1.
          2   -1    0    0  501    0  0.00000000000E+00 -0.00000000000E+00 -0.12649872846E+04  0.12649872846E+04  0.25500000000E-02 0.  1.
     200001    2    1    2    0    0 -0.35847396815E+03 -0.35808728642E+03 -0.13504013509E+03  0.80733974895E+03  0.61386606163E+03 0.  0.
    5000001    2    3    3    0    0 -0.12931337618E+03 -0.48779589119E+03 -0.10478500949E+03  0.52369336402E+03  0.92779634534E+02 0.  0.
        -13    1    4    4    0    0 -0.90058935400E+02 -0.21691722525E+03 -0.75930330028E+02  0.24683824793E+03  0.10566000000E+00 0. -1.
     200003    1    4    4    0    0 -0.39254440777E+02 -0.27087866594E+03 -0.28854679462E+02  0.27685511609E+03  0.30000000000E+02 0. -1.
     200000    1    3    3    0    0 -0.22916059197E+03  0.12970860477E+03 -0.30255125601E+02  0.28364638494E+03  0.10100000000E+03 0. -1.
    -200001    1    1    2    0    0  0.35847396815E+03  0.35808728642E+03 -0.59459691178E+03  0.99299777343E+03  0.61300000000E+03 0.  1.
<mgrwt>
<rscale>  0 0.16458569E+04</rscale>
<asrwt>0</asrwt>
<pdfrwt beam="1">  1        2 0.18071247E+00 0.16458569E+04</pdfrwt>
<pdfrwt beam="2">  1       -2 0.76478606E-01 0.16458569E+04</pdfrwt>
<totfact> 0.28760735E+01</totfact>
</mgrwt>
</event>
<event>
 8    1  0.7583103E-052  0.1292427E+04  0.7818608E-02  0.9035592E-01
          2   -1    0    0  501    0  0.00000000000E+00  0.00000000000E+00  0.29054903464E+04  0.29054903464E+04  0.25500000000E-02 0.  1.
         -2   -1    0    0    0  501 -0.00000000000E+00 -0.00000000000E+00 -0.14372503560E+03  0.14372503563E+03  0.25500000000E-02 0. -1.
     200001    2    1    2    0    0  0.10831067767E+03  0.11511584952E+03  0.10748293505E+04  0.12474094003E+04  0.61301649041E+03 0.  0.
    5000001    2    3    3    0    0 -0.23407205482E+03  0.11895644468E+03  0.49447754768E+03  0.56605053690E+03  0.83455392733E+02 0.  0.
        -13    1    4    4    0    0 -0.78567829925E+02  0.20090414058E+01  0.14569141063E+03  0.16553832922E+03  0.10566000000E+00 0. -1.
     200003    1    4    4    0    0 -0.15550422490E+03  0.11694740328E+03  0.34878613705E+03  0.40051220767E+03  0.30000000000E+02 0. -1.
     200000    1    3    3    0    0  0.34238273249E+03 -0.38405951646E+01  0.58035180280E+03  0.68135886337E+03  0.10100000000E+03 0.  1.
    -200001    1    1    2    0    0 -0.10831067767E+03 -0.11511584952E+03  0.16869359603E+04  0.18018059817E+04  0.61300000000E+03 0.  1.
<mgrwt>
<rscale>  0 0.12924267E+04</rscale>
<asrwt>0</asrwt>
<pdfrwt beam="1">  1        2 0.41507004E+00 0.12924267E+04</pdfrwt>
<pdfrwt beam="2">  1       -2 0.20532148E-01 0.12924267E+04</pdfrwt>
<totfact> 0.53726729E+01</totfact>
</mgrwt>
</event>
<event>
 8    1  0.7583103E-052  0.1329458E+04  0.7818608E-02  0.9006525E-01
          2   -1    0    0  501    0  0.00000000000E+00  0.00000000000E+00  0.44304769121E+03  0.44304769122E+03  0.25500000000E-02 0.  1.
         -2   -1    0    0    0  501 -0.00000000000E+00 -0.00000000000E+00 -0.99733041343E+03  0.99733041344E+03  0.25500000000E-02 0. -1.
     200001    2    1    2    0    0  0.25559440474E+03 -0.19978419510E+02 -0.29777929482E+03  0.72813471561E+03  0.61300898743E+03 0.  0.
    5000001    2    3    3    0    0  0.13523485385E+03 -0.22366790597E+03 -0.36192861375E+03  0.46300839948E+03  0.12275446502E+03 0.  0.
        -13    1    4    4    0    0  0.80925316291E+02 -0.42566065562E+02 -0.75930075143E+02  0.11885354109E+03  0.10566000000E+00 0. -1.
     200003    1    4    4    0    0  0.54309537557E+02 -0.18110184040E+03 -0.28599853861E+03  0.34415485839E+03  0.30000000000E+02 0. -1.
     200000    1    3    3    0    0  0.12035955089E+03  0.20368948646E+03  0.64149318936E+02  0.26512631613E+03  0.10100000000E+03 0.  1.
    -200001    1    1    2    0    0 -0.25559440474E+03  0.19978419510E+02 -0.25650342740E+03  0.71224338905E+03  0.61300000000E+03 0.  1.
<mgrwt>
<rscale>  0 0.13294584E+04</rscale>
<asrwt>0</asrwt>
<pdfrwt beam="1">  1        2 0.63292527E-01 0.13294584E+04</pdfrwt>
<pdfrwt beam="2">  1       -2 0.14247577E+00 0.13294584E+04</pdfrwt>
<totfact> 0.25885014E+01</totfact>
</mgrwt>
</event>
<event>
 8    1  0.7583103E-052  0.1439711E+04  0.7818608E-02  0.8925565E-01
         -2   -1    0    0    0  501 -0.00000000000E+00  0.00000000000E+00  0.18823646123E+03  0.18823646125E+03  0.25500000000E-02 0. -1.
          2   -1    0    0  501    0  0.00000000000E+00 -0.00000000000E+00 -0.27528779252E+04  0.27528779252E+04  0.25500000000E-02 0.  1.
     200001    2    1    2    0    0  0.26197670150E+03 -0.22159671800E+03 -0.16143844234E+04  0.17593807698E+04  0.60946429681E+03 0.  0.
    5000001    2    3    3    0    0  0.31354701463E+03 -0.51563837293E+02 -0.40142023393E+03  0.52931824999E+03  0.13442115109E+03 0.  0.
        -13    1    4    4    0    0  0.36426966445E+02 -0.36304341487E+02 -0.16867504683E+02  0.54124421230E+02  0.10566000000E+00 0. -1.
     200003    1    4    4    0    0  0.27712004818E+03 -0.15259495807E+02 -0.38455272925E+03  0.47519382876E+03  0.30000000000E+02 0. -1.
     200000    1    3    3    0    0 -0.51570313128E+02 -0.17003288071E+03 -0.12129641895E+04  0.12300625199E+04  0.10100000000E+03 0. -1.
    -200001    1    1    2    0    0 -0.26197670150E+03  0.22159671800E+03 -0.95025704056E+03  0.11817336166E+04  0.61300000000E+03 0. -1.
<mgrwt>
<rscale>  0 0.14397111E+04</rscale>
<asrwt>0</asrwt>
<pdfrwt beam="1">  1        2 0.39326825E+00 0.14397111E+04</pdfrwt>
<pdfrwt beam="2">  1       -2 0.26890925E-01 0.14397111E+04</pdfrwt>
<totfact> 0.39533841E+01</totfact>
</mgrwt>
</event>
<event>
 8    1  0.7583103E-052  0.1534563E+04  0.7818608E-02  0.8861789E-01
         -2   -1    0    0    0  501 -0.00000000000E+00  0.00000000000E+00  0.19489333845E+04  0.19489333845E+04  0.25500000000E-02 0. -1.
          2   -1    0    0  501    0  0.00000000000E+00 -0.00000000000E+00 -0.30207326726E+03  0.30207326727E+03  0.25500000000E-02 0.  1.
     200001    2    1    2    0    0  0.54435707199E+02  0.17618482810E+03  0.20933050213E+03  0.67739147194E+03  0.61728081719E+03 0.  0.
    5000001    2    3    3    0    0 -0.13808118552E+03  0.30635345608E+03  0.24387351541E+03  0.42165558189E+03  0.73486627212E+02 0.  0.
        -13    1    4    4    0    0 -0.93864211383E+02  0.24635858688E+03  0.18645948785E+03  0.32290895820E+03  0.10566000000E+00 0. -1.
     200003    1    4    4    0    0 -0.44216974134E+02  0.59994869199E+02  0.57414027552E+02  0.98746623697E+02  0.30000000000E+02 0.  1.
     200000    1    3    3    0    0  0.19251689272E+03 -0.13016862798E+03 -0.34543013276E+02  0.25573589005E+03  0.10100000000E+03 0.  1.
    -200001    1    1    2    0    0 -0.54435707199E+02 -0.17618482810E+03  0.14375296152E+04  0.15736151799E+04  0.61300000000E+03 0. -1.
<mgrwt>
<rscale>  0 0.15345627E+04</rscale>
<asrwt>0</asrwt>
<pdfrwt beam="1">  1        2 0.43153323E-01 0.15345627E+04</pdfrwt>
<pdfrwt beam="2">  1       -2 0.27841906E+00 0.15345627E+04</pdfrwt>
<totfact> 0.49313681E+00</totfact>
</mgrwt>
</event>
<event>
 8    1  0.7583103E-052  0.1252549E+04  0.7818608E-02  0.9068064E-01
          2   -1    0    0  501    0  0.00000000000E+00  0.00000000000E+00  0.28120854261E+04  0.28120854261E+04  0.25500000000E-02 0. -1.
         -2   -1    0    0    0  501 -0.00000000000E+00 -0.00000000000E+00 -0.13947653996E+03  0.13947653998E+03  0.25500000000E-02 0.  1.
     200001    2    1    2    0    0  0.51661388225E+02 -0.36152159181E+02  0.15947488012E+04  0.17099794113E+04  0.61386478192E+03 0.  0.
    5000001    2    3    3    0    0 -0.22201378025E+03  0.75938699583E+02  0.10756742655E+04  0.11040901210E+04  0.82964240272E+02 0.  0.
        -13    1    4    4    0    0 -0.96405971788E+02  0.58496567867E+02  0.61897718992E+03  0.62916510762E+03  0.10566000000E+00 0. -1.
     200003    1    4    4    0    0 -0.12560780846E+03  0.17442131716E+02  0.45669707555E+03  0.47492501337E+03  0.30000000000E+02 0. -1.
     200000    1    3    3    0    0  0.27367516848E+03 -0.11209085876E+03  0.51907453571E+03  0.60588929028E+03  0.10100000000E+03 0.  1.
    -200001    1    1    2    0    0 -0.51661388225E+02  0.36152159181E+02  0.10778600850E+04  0.12415825548E+04  0.61300000000E+03 0.  1.
<mgrwt>
<rscale>  0 0.12525493E+04</rscale>
<asrwt>0</asrwt>
<pdfrwt beam="1">  1        2 0.40172651E+00 0.12525493E+04</pdfrwt>
<pdfrwt beam="2">  1       -2 0.19925219E-01 0.12525493E+04</pdfrwt>
<totfact> 0.63898420E+01</totfact>
</mgrwt>
</event>
<event>
 8    1  0.7583103E-052  0.1379285E+04  0.7818608E-02  0.8968951E-01
          2   -1    0    0  501    0  0.00000000000E+00  0.00000000000E+00  0.25100268286E+04  0.25100268286E+04  0.25500000000E-02 0.  1.
         -2   -1    0    0    0  501 -0.00000000000E+00 -0.00000000000E+00 -0.18948271187E+03  0.18948271189E+03  0.25500000000E-02 0. -1.
     200001    2    1    2    0    0  0.10429026815E+03  0.14657167178E+03  0.65087538579E+03  0.91179524953E+03  0.61267617405E+03 0.  0.
    5000001    2    3    3    0    0 -0.10416248676E+03 -0.16224110938E+03  0.40154216812E+03  0.45224553702E+03  0.78217080935E+02 0.  0.
        -13    1    4    4    0    0 -0.34065521812E+02 -0.79312706834E+02  0.11089384779E+03  0.14052907842E+03  0.10566000000E+00 0. -1.
     200003    1    4    4    0    0 -0.70096964952E+02 -0.82928402551E+02  0.29064832034E+03  0.31171645860E+03  0.30000000000E+02 0. -1.
     200000    1    3    3    0    0  0.20845275492E+03  0.30881278116E+03  0.24933321766E+03  0.45954971251E+03  0.10100000000E+03 0.  1.
    -200001    1    1    2    0    0 -0.10429026815E+03 -0.14657167178E+03  0.16696687310E+04  0.17877142910E+04  0.61300000000E+03 0.  1.
<mgrwt>
<rscale>  0 0.13792849E+04</rscale>
<asrwt>0</asrwt>
<pdfrwt beam="1">  1        2 0.35857525E+00 0.13792849E+04</pdfrwt>
<pdfrwt beam="2">  1       -2 0.27068960E-01 0.13792849E+04</pdfrwt>
<totfact> 0.52841231E+01</totfact>
</mgrwt>
</event>
<event>
 8    1  0.7583103E-052  0.1347058E+04  0.7818608E-02  0.8993058E-01
         -2   -1    0    0    0  501 -0.00000000000E+00  0.00000000000E+00  0.22609839163E+03  0.22609839164E+03  0.25500000000E-02 0. -1.
          2   -1    0    0  501    0  0.00000000000E+00 -0.00000000000E+00 -0.20063902908E+04  0.20063902908E+04  0.25500000000E-02 0.  1.
     200001    2    1    2    0    0  0.11844395153E+03  0.22920158056E+03 -0.71228325046E+03  0.97432581227E+03  0.61269978405E+03 0.  0.
    5000001    2    3    3    0    0 -0.13636026374E+03  0.28140757173E+03 -0.56946584357E+03  0.66087969993E+03  0.12118699529E+03 0.  0.
        -13    1    4    4    0    0  0.76345878547E+01  0.15000030118E+02 -0.19790477774E+01  0.16947437252E+02  0.10566000000E+00 0. -1.
     200003    1    4    4    0    0 -0.14399485160E+03  0.26640754161E+03 -0.56748679580E+03  0.64393226268E+03  0.30000000000E+02 0. -1.
     200000    1    3    3    0    0  0.25480421527E+03 -0.52205991164E+02 -0.14281740689E+03  0.31344611234E+03  0.10100000000E+03 0.  1.
    -200001    1    1    2    0    0 -0.11844395153E+03 -0.22920158056E+03 -0.10680086488E+04  0.12581628702E+04  0.61300000000E+03 0.  1.
<mgrwt>
<rscale>  0 0.13470585E+04</rscale>
<asrwt>0</asrwt>
<pdfrwt beam="1">  1        2 0.28662717E+00 0.13470585E+04</pdfrwt>
<pdfrwt beam="2">  1       -2 0.32299771E-01 0.13470585E+04</pdfrwt>
<totfact> 0.69489714E+01</totfact>
</mgrwt>
</event>
<event>
 8    1  0.7583103E-052  0.1282001E+04  0.7818608E-02  0.9043962E-01
          2   -1    0    0  501    0  0.00000000000E+00  0.00000000000E+00  0.30611438309E+03  0.30611438310E+03  0.25500000000E-02 0.  1.
         -2   -1    0    0    0  501 -0.00000000000E+00 -0.00000000000E+00 -0.13422483845E+04  0.13422483845E+04  0.25500000000E-02 0. -1.
     200001    2    1    2    0    0  0.54202700339E+02 -0.15266415129E+03 -0.40000788360E+03  0.75021483236E+03  0.61365439128E+03 0.  0.
    5000001    2    3    3    0    0  0.25204303711E+03 -0.14470176343E+03 -0.10250463984E+02  0.30153226682E+03  0.79701587339E+02 0.  0.
        -13    1    4    4    0    0  0.17627772472E+03 -0.11896750023E+03  0.12709591620E+02  0.21304611526E+03  0.10566000000E+00 0. -1.
     200003    1    4    4    0    0  0.75765312390E+02 -0.25734263193E+02 -0.22960055604E+02  0.88486151555E+02  0.30000000000E+02 0.  1.
     200000    1    3    3    0    0 -0.19784033677E+03 -0.79623878614E+01 -0.38975741962E+03  0.44868256554E+03  0.10100000000E+03 0. -1.
    -200001    1    1    2    0    0 -0.54202700339E+02  0.15266415129E+03 -0.63612611781E+03  0.89814793524E+03  0.61300000000E+03 0. -1.
<mgrwt>
<rscale>  0 0.12820008E+04</rscale>
<asrwt>0</asrwt>
<pdfrwt beam="1">  1        2 0.43730627E-01 0.12820008E+04</pdfrwt>
<pdfrwt beam="2">  1       -2 0.19174977E+00 0.12820008E+04</pdfrwt>
<totfact> 0.17273234E+01</totfact>
</mgrwt>
</event>
<event>
 8    1  0.7583103E-052  0.1636164E+04  0.7818608E-02  0.8798634E-01
          2   -1    0    0  501    0  0.00000000000E+00  0.00000000000E+00  0.16161961228E+04  0.16161961228E+04  0.25500000000E-02 0.  1.
         -2   -1    0    0    0  501 -0.00000000000E+00 -0.00000000000E+00 -0.41409469487E+03  0.41409469488E+03  0.25500000000E-02 0. -1.
     200001    2    1    2    0    0  0.49279970034E+03 -0.16211125573E+03  0.79434786262E+03  0.11296446197E+04  0.61316950029E+03 0.  0.
    5000001    2    3    3    0    0 -0.11261470956E+03 -0.10784344672E+03  0.10991205064E+03  0.20870760583E+03  0.84651781116E+02 0.  0.
        -13    1    4    4    0    0 -0.54116700886E+00  0.76764788947E+01  0.21072922693E+02  0.22434358132E+02  0.10566000000E+00 0. -1.
     200003    1    4    4    0    0 -0.11207354255E+03 -0.11551992562E+03  0.88839127950E+02  0.18627324770E+03  0.30000000000E+02 0. -1.
     200000    1    3    3    0    0  0.60541440990E+03 -0.54267809005E+02  0.68443581198E+03  0.92093701387E+03  0.10100000000E+03 0.  1.
    -200001    1    1    2    0    0 -0.49279970034E+03  0.16211125573E+03  0.40775356528E+03  0.90064619795E+03  0.61300000000E+03 0.  1.
<mgrwt>
<rscale>  0 0.16361641E+04</rscale>
<asrwt>0</asrwt>
<pdfrwt beam="1">  1        2 0.23088516E+00 0.16361641E+04</pdfrwt>
<pdfrwt beam="2">  1       -2 0.59156385E-01 0.16361641E+04</pdfrwt>
<totfact> 0.32448935E+01</totfact>
</mgrwt>
</event>
<event>
 8    1  0.7583103E-052  0.1688593E+04  0.7818608E-02  0.8767897E-01
         -2   -1    0    0    0  501 -0.00000000000E+00  0.00000000000E+00  0.59849056434E+03  0.59849056434E+03  0.25500000000E-02 0. -1.
          2   -1    0    0  501    0  0.00000000000E+00 -0.00000000000E+00 -0.11910579653E+04  0.11910579653E+04  0.25500000000E-02 0.  1.
     200001    2    1    2    0    0  0.43425391081E+01  0.49394055874E+03 -0.61918377160E+03  0.10018470860E+04  0.61344348347E+03 0.  0.
    5000001    2    3    3    0    0  0.31562103736E+02  0.51195072579E+02 -0.52730398533E+03  0.53772709572E+03  0.86509159489E+02 0.  0.
        -13    1    4    4    0    0 -0.14494185418E+02  0.23609127045E+02 -0.32757169961E+03  0.32874108633E+03  0.10566000000E+00 0. -1.
     200003    1    4    4    0    0  0.46056289154E+02  0.27585945534E+02 -0.19973228572E+03  0.20898600939E+03  0.30000000000E+02 0. -1.
     200000    1    3    3    0    0 -0.27219564628E+02  0.44274548616E+03 -0.91879786277E+02  0.46411999024E+03  0.10100000000E+03 0.  1.
    -200001    1    1    2    0    0 -0.43425391081E+01 -0.49394055874E+03  0.26616370632E+02  0.78770144370E+03  0.61300000000E+03 0. -1.
<mgrwt>
<rscale>  0 0.16885934E+04</rscale>
<asrwt>0</asrwt>
<pdfrwt beam="1">  1        2 0.17015114E+00 0.16885934E+04</pdfrwt>
<pdfrwt beam="2">  1       -2 0.85498653E-01 0.16885934E+04</pdfrwt>
<totfact> 0.24554279E+01</totfact>
</mgrwt>
</event>
<event>
 8    1  0.7583103E-052  0.1650421E+04  0.7818608E-02  0.8790158E-01
         -2   -1    0    0    0  501 -0.00000000000E+00  0.00000000000E+00  0.40754843254E+03  0.40754843254E+03  0.25500000000E-02 0. -1.
          2   -1    0    0  501    0  0.00000000000E+00 -0.00000000000E+00 -0.16708984765E+04  0.16708984765E+04  0.25500000000E-02 0.  1.
     200001    2    1    2    0    0  0.48061276069E+02  0.47873331660E+03 -0.97172229891E+03  0.12463944970E+04  0.61462146183E+03 0.  0.
    5000001    2    3    3    0    0  0.26377308485E+03  0.46581907645E+03 -0.63986019302E+03  0.83769923235E+03  0.75863594683E+02 0.  0.
        -13    1    4    4    0    0  0.96201542289E+02  0.12894364878E+03 -0.15664272803E+03  0.22453987777E+03  0.10566000000E+00 0. -1.
     200003    1    4    4    0    0  0.16757154256E+03  0.33687542767E+03 -0.48321746499E+03  0.61315935458E+03  0.30000000000E+02 0. -1.
     200000    1    3    3    0    0 -0.21571180878E+03  0.12914240154E+02 -0.33186210589E+03  0.40869526468E+03  0.10100000000E+03 0.  1.
    -200001    1    1    2    0    0 -0.48061276069E+02 -0.47873331660E+03 -0.29162774508E+03  0.83205241204E+03  0.61300000000E+03 0. -1.
<mgrwt>
<rscale>  0 0.16504206E+04</rscale>
<asrwt>0</asrwt>
<pdfrwt beam="1">  1        2 0.23869978E+00 0.16504206E+04</pdfrwt>
<pdfrwt beam="2">  1       -2 0.58221205E-01 0.16504206E+04</pdfrwt>
<totfact> 0.31381198E+01</totfact>
</mgrwt>
</event>
<event>
 8    1  0.7583103E-052  0.1281620E+04  0.7818608E-02  0.9044269E-01
         -2   -1    0    0    0  501 -0.00000000000E+00  0.00000000000E+00  0.42497015507E+03  0.42497015508E+03  0.25500000000E-02 0. -1.
          2   -1    0    0  501    0  0.00000000000E+00 -0.00000000000E+00 -0.96627296942E+03  0.96627296942E+03  0.25500000000E-02 0.  1.
     200001    2    1    2    0    0  0.97109675446E+02  0.45205779060E+02 -0.43484994290E+03  0.75991510725E+03  0.61392397400E+03 0.  0.
    5000001    2    3    3    0    0  0.68897078176E+02 -0.10157826420E+03 -0.53493287556E+03  0.55361653864E+03  0.72616384909E+02 0.  0.
        -13    1    4    4    0    0 -0.10253061785E+02 -0.29921779232E+02 -0.12653924527E+03  0.13043247259E+03  0.10566000000E+00 0. -1.
     200003    1    4    4    0    0  0.79150139961E+02 -0.71656484970E+02 -0.40839363029E+03  0.42318406605E+03  0.30000000000E+02 0.  1.
     200000    1    3    3    0    0  0.28212597270E+02  0.14678404326E+03  0.10008293266E+03  0.20629856861E+03  0.10100000000E+03 0. -1.
    -200001    1    1    2    0    0 -0.97109675446E+02 -0.45205779060E+02 -0.10645287145E+03  0.63132801725E+03  0.61300000000E+03 0. -1.
<mgrwt>
<rscale>  0 0.12816196E+04</rscale>
<asrwt>0</asrwt>
<pdfrwt beam="1">  1        2 0.13803900E+00 0.12816196E+04</pdfrwt>
<pdfrwt beam="2">  1       -2 0.60710022E-01 0.12816196E+04</pdfrwt>
<totfact> 0.73159011E+01</totfact>
</mgrwt>
</event>
<event>
 8    1  0.7583103E-052  0.1859967E+04  0.7818608E-02  0.8675044E-01
         -2   -1    0    0    0  501 -0.00000000000E+00  0.00000000000E+00  0.47349154287E+03  0.47349154288E+03  0.25500000000E-02 0. -1.
          2   -1    0    0  501    0  0.00000000000E+00 -0.00000000000E+00 -0.18265789107E+04  0.18265789107E+04  0.25500000000E-02 0.  1.
     200001    2    1    2    0    0 -0.20789980701E+03 -0.59733307981E+03 -0.10456730172E+04  0.13671708228E+04  0.61293952554E+03 0.  0.
    5000001    2    3    3    0    0  0.74243307403E+02 -0.49474679744E+03 -0.43440461924E+03  0.67870968621E+03  0.14714959279E+03 0.  0.
        -13    1    4    4    0    0  0.27877240032E+01 -0.36734804658E+03 -0.26464866275E+03  0.45275963224E+03  0.10566000000E+00 0. -1.
     200003    1    4    4    0    0  0.71455583400E+02 -0.12739875086E+03 -0.16975595649E+03  0.22595005396E+03  0.30000000000E+02 0.  1.
     200000    1    3    3    0    0 -0.28214311441E+03 -0.10258628237E+03 -0.61126839792E+03  0.68846113662E+03  0.10100000000E+03 0.  1.
    -200001    1    1    2    0    0  0.20789980701E+03  0.59733307981E+03 -0.30741435062E+03  0.93289963070E+03  0.61300000000E+03 0.  1.
<mgrwt>
<rscale>  0 0.18599674E+04</rscale>
<asrwt>0</asrwt>
<pdfrwt beam="1">  1        2 0.26093984E+00 0.18599674E+04</pdfrwt>
<pdfrwt beam="2">  1       -2 0.67641650E-01 0.18599674E+04</pdfrwt>
<totfact> 0.18613726E+01</totfact>
</mgrwt>
</event>
<event>
 8    1  0.7583103E-052  0.1788781E+04  0.7818608E-02  0.8712288E-01
          2   -1    0    0  501    0  0.00000000000E+00  0.00000000000E+00  0.46795819922E+04  0.46795819922E+04  0.25500000000E-02 0. -1.
         -2   -1    0    0    0  501 -0.00000000000E+00 -0.00000000000E+00 -0.17094145178E+03  0.17094145180E+03  0.25500000000E-02 0.  1.
     200001    2    1    2    0    0  0.61372474108E+03  0.53587713860E+02  0.16809949592E+04  0.18923351076E+04  0.61290978581E+03 0.  0.
    5000001    2    3    3    0    0 -0.15600825862E+02  0.19558438916E+03  0.49068643524E+03  0.53467200235E+03  0.81267049454E+02 0.  0.
        -13    1    4    4    0    0 -0.70245415341E+01  0.98518858008E+01  0.10248916587E+03  0.10320098896E+03  0.10566000000E+00 0. -1.
     200003    1    4    4    0    0 -0.85762843281E+01  0.18573250336E+03  0.38819726937E+03  0.43147101340E+03  0.30000000000E+02 0. -1.
     200000    1    3    3    0    0  0.62932556694E+03 -0.14199667530E+03  0.11903085240E+04  0.13576631052E+04  0.10100000000E+03 0. -1.
    -200001    1    1    2    0    0 -0.61372474108E+03 -0.53587713860E+02  0.28276455812E+04  0.29581883364E+04  0.61300000000E+03 0. -1.
<mgrwt>
<rscale>  0 0.17887812E+04</rscale>
<asrwt>0</asrwt>
<pdfrwt beam="1">  1        2 0.66851170E+00 0.17887812E+04</pdfrwt>
<pdfrwt beam="2">  1       -2 0.24420208E-01 0.17887812E+04</pdfrwt>
<totfact> 0.24948426E+00</totfact>
</mgrwt>
</event>
<event>
 8    1  0.7583103E-052  0.1793109E+04  0.7818608E-02  0.8709973E-01
         -2   -1    0    0    0  501 -0.00000000000E+00  0.00000000000E+00  0.10234195550E+04  0.10234195550E+04  0.25500000000E-02 0. -1.
          2   -1    0    0  501    0  0.00000000000E+00 -0.00000000000E+00 -0.78541597029E+03  0.78541597029E+03  0.25500000000E-02 0.  1.
     200001    2    1    2    0    0 -0.52115528819E+03  0.35893954506E+03 -0.46484430788E+02  0.88301542269E+03  0.61409690033E+03 0.  0.
    5000001    2    3    3    0    0  0.57511998091E+01  0.29190717433E+03 -0.13554683501E+03  0.33505840096E+03  0.92996305570E+02 0.  0.
        -13    1    4    4    0    0  0.22923064229E+02  0.19957981369E+03 -0.56473500141E+02  0.20867878734E+03  0.10566000000E+00 0. -1.
     200003    1    4    4    0    0 -0.17171864420E+02  0.92327360645E+02 -0.79073334873E+02  0.12637961362E+03  0.30000000000E+02 0. -1.
     200000    1    3    3    0    0 -0.52690648799E+03  0.67032370733E+02  0.89062404227E+02  0.54795702173E+03  0.10100000000E+03 0. -1.
    -200001    1    1    2    0    0  0.52115528819E+03 -0.35893954506E+03  0.28448801550E+03  0.92582010260E+03  0.61300000000E+03 0. -1.
<mgrwt>
<rscale>  0 0.17931091E+04</rscale>
<asrwt>0</asrwt>
<pdfrwt beam="1">  1        2 0.11220228E+00 0.17931091E+04</pdfrwt>
<pdfrwt beam="2">  1       -2 0.14620279E+00 0.17931091E+04</pdfrwt>
<totfact> 0.11820822E+01</totfact>
</mgrwt>
</event>
<event>
 8    1  0.7583103E-052  0.1560844E+04  0.7818608E-02  0.8844971E-01
          2   -1    0    0  501    0  0.00000000000E+00  0.00000000000E+00  0.60294279667E+03  0.60294279668E+03  0.25500000000E-02 0. -1.
         -2   -1    0    0    0  501 -0.00000000000E+00 -0.00000000000E+00 -0.10101435695E+04  0.10101435695E+04  0.25500000000E-02 0.  1.
     200001    2    1    2    0    0 -0.31877166357E+03 -0.23343877883E+03  0.83785549394E+02  0.73391311501E+03  0.61278006262E+03 0.  0.
    5000001    2    3    3    0    0 -0.19154899620E+03 -0.40813087331E+03  0.15329482599E+03  0.48544687083E+03  0.94326735487E+02 0.  0.
        -13    1    4    4    0    0 -0.13419675653E+03 -0.28589073694E+03  0.68362839975E+02  0.32313429404E+03  0.10566000000E+00 0. -1.
     200003    1    4    4    0    0 -0.57352239668E+02 -0.12224013637E+03  0.84931986016E+02  0.16231257678E+03  0.30000000000E+02 0. -1.
     200000    1    3    3    0    0 -0.12722266737E+03  0.17469209448E+03 -0.69509276597E+02  0.24846624419E+03  0.10100000000E+03 0.  1.
    -200001    1    1    2    0    0  0.31877166357E+03  0.23343877883E+03 -0.49098632223E+03  0.87917325117E+03  0.61300000000E+03 0.  1.
<mgrwt>
<rscale>  0 0.15608444E+04</rscale>
<asrwt>0</asrwt>
<pdfrwt beam="1">  1        2 0.86134685E-01 0.15608444E+04</pdfrwt>
<pdfrwt beam="2">  1       -2 0.14430622E+00 0.15608444E+04</pdfrwt>
<totfact> 0.17245601E+01</totfact>
</mgrwt>
</event>
<event>
 8    1  0.7583103E-052  0.1434189E+04  0.7818608E-02  0.8929436E-01
         -2   -1    0    0    0  501 -0.00000000000E+00  0.00000000000E+00  0.32583696745E+03  0.32583696746E+03  0.25500000000E-02 0. -1.
          2   -1    0    0  501    0  0.00000000000E+00 -0.00000000000E+00 -0.15781648942E+04  0.15781648942E+04  0.25500000000E-02 0.  1.
     200001    2    1    2    0    0  0.19410864486E+03 -0.26370899170E+03 -0.86165477167E+03  0.11067471267E+04  0.61255175996E+03 0.  0.
    5000001    2    3    3    0    0  0.56133422491E+01  0.31464053955E+02 -0.39417226746E+03  0.51395838042E+03  0.32826809785E+03 0.  0.
        -13    1    4    4    0    0  0.15469745338E+02  0.60735459404E+01  0.57816107306E+02  0.60157413584E+02  0.10566000000E+00 0. -1.
     200003    1    4    4    0    0 -0.98564030886E+01  0.25390508015E+02 -0.45198837477E+03  0.45380096684E+03  0.30000000000E+02 0. -1.
     200000    1    3    3    0    0  0.18849530261E+03 -0.29517304565E+03 -0.46748250421E+03  0.59278874629E+03  0.10100000000E+03 0.  1.
    -200001    1    1    2    0    0 -0.19410864486E+03  0.26370899170E+03 -0.39067315509E+03  0.79725473496E+03  0.61300000000E+03 0. -1.
<mgrwt>
<rscale>  0 0.14341889E+04</rscale>
<asrwt>0</asrwt>
<pdfrwt beam="1">  1        2 0.22545212E+00 0.14341889E+04</pdfrwt>
<pdfrwt beam="2">  1       -2 0.46548139E-01 0.14341889E+04</pdfrwt>
<totfact> 0.56496419E+01</totfact>
</mgrwt>
</event>
<event>
 8    1  0.7583103E-052  0.1301510E+04  0.7818608E-02  0.9028369E-01
         -2   -1    0    0    0  501 -0.00000000000E+00  0.00000000000E+00  0.35999293011E+03  0.35999293012E+03  0.25500000000E-02 0. -1.
          2   -1    0    0  501    0  0.00000000000E+00 -0.00000000000E+00 -0.11763615012E+04  0.11763615012E+04  0.25500000000E-02 0.  1.
     200001    2    1    2    0    0  0.18558374061E+03  0.65909260730E+02 -0.50511682890E+03  0.82120968905E+03  0.61681195442E+03 0.  0.
    5000001    2    3    3    0    0 -0.15430420913E+03  0.15067636922E+03 -0.56837584019E+02  0.24339954510E+03  0.97466252639E+02 0.  0.
        -13    1    4    4    0    0 -0.12563954362E+03  0.14670856287E+03 -0.34849370893E+02  0.19627324615E+03  0.10566000000E+00 0. -1.
     200003    1    4    4    0    0 -0.28664665508E+02  0.39678063464E+01 -0.21988213127E+02  0.47126298947E+02  0.30000000000E+02 0. -1.
     200000    1    3    3    0    0  0.33988794974E+03 -0.84767108487E+02 -0.44827924488E+03  0.57781014394E+03  0.10100000000E+03 0.  1.
    -200001    1    1    2    0    0 -0.18558374061E+03 -0.65909260730E+02 -0.31125174223E+03  0.71514474232E+03  0.61300000000E+03 0. -1.
<mgrwt>
<rscale>  0 0.13015096E+04</rscale>
<asrwt>0</asrwt>
<pdfrwt beam="1">  1        2 0.16805164E+00 0.13015096E+04</pdfrwt>
<pdfrwt beam="2">  1       -2 0.51427562E-01 0.13015096E+04</pdfrwt>
<totfact> 0.77228306E+01</totfact>
</mgrwt>
</event>
<event>
 8    1  0.7583103E-052  0.1547221E+04  0.7818608E-02  0.8853645E-01
         -2   -1    0    0    0  501 -0.00000000000E+00  0.00000000000E+00  0.82161577577E+03  0.82161577577E+03  0.25500000000E-02 0. -1.
          2   -1    0    0  501    0  0.00000000000E+00 -0.00000000000E+00 -0.72841018621E+03  0.72841018621E+03  0.25500000000E-02 0.  1.
     200001    2    1    2    0    0 -0.15922513888E+03  0.37339816105E+03 -0.19394920457E+03  0.76071885615E+03  0.61343137564E+03 0.  0.
    5000001    2    3    3    0    0 -0.19273983688E+03  0.49892574173E+03 -0.23852340406E+03  0.59022466929E+03  0.73458869254E+02 0.  0.
        -13    1    4    4    0    0  0.47990303730E+01  0.19453284336E+02 -0.46735269091E+01  0.20574595544E+02  0.10566000000E+00 0. -1.
     200003    1    4    4    0    0 -0.19753886726E+03  0.47947245740E+03 -0.23384987715E+03  0.56965007375E+03  0.30000000000E+02 0. -1.
     200000    1    3    3    0    0  0.33514698005E+02 -0.12552758068E+03  0.44574199483E+02  0.17049418686E+03  0.10100000000E+03 0.  1.
    -200001    1    1    2    0    0  0.15922513888E+03 -0.37339816105E+03  0.28715479414E+03  0.78930710584E+03  0.61300000000E+03 0. -1.
<mgrwt>
<rscale>  0 0.15472211E+04</rscale>
<asrwt>0</asrwt>
<pdfrwt beam="1">  1        2 0.10405860E+00 0.15472211E+04</pdfrwt>
<pdfrwt beam="2">  1       -2 0.11737368E+00 0.15472211E+04</pdfrwt>
<totfact> 0.23178370E+01</totfact>
</mgrwt>
</event>
<event>
 8    1  0.7583103E-052  0.1272772E+04  0.7818608E-02  0.9051441E-01
          2   -1    0    0  501    0  0.00000000000E+00  0.00000000000E+00  0.25793969863E+04  0.25793969863E+04  0.25500000000E-02 0.  1.
         -2   -1    0    0    0  501 -0.00000000000E+00 -0.00000000000E+00 -0.15700838207E+03  0.15700838209E+03  0.25500000000E-02 0. -1.
     200001    2    1    2    0    0  0.97593411292E+02 -0.10073187043E+03  0.14202130509E+04  0.15532755262E+04  0.61317890284E+03 0.  0.
    5000001    2    3    3    0    0  0.32005517488E+02 -0.26014487386E+03  0.26429688541E+03  0.38022077088E+03  0.77558251829E+02 0.  0.
        -13    1    4    4    0    0 -0.56757101982E+01 -0.14537342483E+02 -0.81658126477E+00  0.15627731177E+02  0.10566000000E+00 0. -1.
     200003    1    4    4    0    0  0.37681227686E+02 -0.24560753138E+03  0.26511346667E+03  0.36459303970E+03  0.30000000000E+02 0. -1.
     200000    1    3    3    0    0  0.65587893805E+02  0.15941300343E+03  0.11559161655E+04  0.11730547554E+04  0.10100000000E+03 0.  1.
    -200001    1    1    2    0    0 -0.97593411292E+02  0.10073187043E+03  0.10021755533E+04  0.11831298421E+04  0.61300000000E+03 0. -1.
<mgrwt>
<rscale>  0 0.12727717E+04</rscale>
<asrwt>0</asrwt>
<pdfrwt beam="1">  1        2 0.36848523E+00 0.12727717E+04</pdfrwt>
<pdfrwt beam="2">  1       -2 0.22429772E-01 0.12727717E+04</pdfrwt>
<totfact> 0.68850331E+01</totfact>
</mgrwt>
</event>
<event>
 8    1  0.7583103E-052  0.2952767E+04  0.7818608E-02  0.8257349E-01
          2   -1    0    0  501    0  0.00000000000E+00  0.00000000000E+00  0.20561579687E+04  0.20561579687E+04  0.25500000000E-02 0.  1.
         -2   -1    0    0    0  501 -0.00000000000E+00 -0.00000000000E+00 -0.10600875923E+04  0.10600875923E+04  0.25500000000E-02 0. -1.
     200001    2    1    2    0    0  0.17022801215E+03  0.82070526587E+03  0.16055444515E+04  0.19121847828E+04  0.61330493901E+03 0.  0.
    5000001    2    3    3    0    0 -0.10511947515E+03 -0.22486094659E+02  0.68427263966E+02  0.13462517550E+03  0.43427167948E+02 0.  0.
        -13    1    4    4    0    0 -0.33636509714E+01 -0.99841477926E+00  0.12113835715E+02  0.12612182987E+02  0.10566000000E+00 0. -1.
     200003    1    4    4    0    0 -0.10175582418E+03 -0.21487679880E+02  0.56313428251E+02  0.12201299251E+03  0.30000000000E+02 0. -1.
     200000    1    3    3    0    0  0.27534748729E+03  0.84319136053E+03  0.15371171875E+04  0.17775596073E+04  0.10100000000E+03 0.  1.
    -200001    1    1    2    0    0 -0.17022801215E+03 -0.82070526587E+03 -0.60947407503E+03  0.12040607782E+04  0.61300000000E+03 0. -1.
<mgrwt>
<rscale>  0 0.29527665E+04</rscale>
<asrwt>0</asrwt>
<pdfrwt beam="1">  1        2 0.29373685E+00 0.29527665E+04</pdfrwt>
<pdfrwt beam="2">  1       -2 0.15144109E+00 0.29527665E+04</pdfrwt>
<totfact> 0.18988416E+00</totfact>
</mgrwt>
</event>
<event>
 8    1  0.7583103E-052  0.1506649E+04  0.7818608E-02  0.8880044E-01
          2   -1    0    0  501    0  0.00000000000E+00  0.00000000000E+00  0.18733683259E+04  0.18733683259E+04  0.25500000000E-02 0.  1.
         -2   -1    0    0    0  501 -0.00000000000E+00 -0.00000000000E+00 -0.30292894174E+03  0.30292894175E+03  0.25500000000E-02 0. -1.
     200001    2    1    2    0    0 -0.42928207711E+03  0.84494462002E+02  0.79499216359E+03  0.10953209461E+04  0.61342727276E+03 0.  0.
    5000001    2    3    3    0    0 -0.46221605342E+03  0.14059738771E+03  0.83587756557E+03  0.96841625288E+03  0.75679777715E+02 0.  0.
        -13    1    4    4    0    0 -0.14297516248E+03  0.45960664789E+02  0.20119698069E+03  0.25106675606E+03  0.10566000000E+00 0. -1.
     200003    1    4    4    0    0 -0.31924089094E+03  0.94636722919E+02  0.63468058488E+03  0.71734949682E+03  0.30000000000E+02 0. -1.
     200000    1    3    3    0    0  0.32933976309E+02 -0.56102925706E+02 -0.40885401975E+02  0.12690469323E+03  0.10100000000E+03 0. -1.
    -200001    1    1    2    0    0  0.42928207711E+03 -0.84494462002E+02  0.77544722056E+03  0.10809763215E+04  0.61300000000E+03 0.  1.
<mgrwt>
<rscale>  0 0.15066486E+04</rscale>
<asrwt>0</asrwt>
<pdfrwt beam="1">  1        2 0.26762405E+00 0.15066486E+04</pdfrwt>
<pdfrwt beam="2">  1       -2 0.43275562E-01 0.15066486E+04</pdfrwt>
<totfact> 0.45656094E+01</totfact>
</mgrwt>
</event>
<event>
 8    1  0.7583103E-052  0.1640208E+04  0.7818608E-02  0.8796220E-01
          2   -1    0    0  501    0  0.00000000000E+00  0.00000000000E+00  0.12072540776E+04  0.12072540776E+04  0.25500000000E-02 0.  1.
         -2   -1    0    0    0  501 -0.00000000000E+00 -0.00000000000E+00 -0.55710794822E+03  0.55710794823E+03  0.25500000000E-02 0. -1.
     200001    2    1    2    0    0 -0.22927803790E+03 -0.10345842134E+03  0.84509279630E+03  0.10736773897E+04  0.61264119934E+03 0.  0.
    5000001    2    3    3    0    0 -0.12377698116E+03  0.24523444858E+03  0.34843841770E+03  0.44951093568E+03  0.72042171882E+02 0.  0.
        -13    1    4    4    0    0 -0.98236911817E+02  0.13527516089E+03  0.20396471465E+03  0.26372613822E+03  0.10566000000E+00 0. -1.
     200003    1    4    4    0    0 -0.25540069342E+02  0.10995928769E+03  0.14447370306E+03  0.18578479746E+03  0.30000000000E+02 0.  1.
     200000    1    3    3    0    0 -0.10550105674E+03 -0.34869286992E+03  0.49665437860E+03  0.62416645399E+03  0.10100000000E+03 0.  1.
    -200001    1    1    2    0    0  0.22927803790E+03  0.10345842134E+03 -0.19494666697E+03  0.69068463612E+03  0.61300000000E+03 0. -1.
<mgrwt>
<rscale>  0 0.16402083E+04</rscale>
<asrwt>0</asrwt>
<pdfrwt beam="1">  1        2 0.17246487E+00 0.16402083E+04</pdfrwt>
<pdfrwt beam="2">  1       -2 0.79586850E-01 0.16402083E+04</pdfrwt>
<totfact> 0.28372032E+01</totfact>
</mgrwt>
</event>
<event>
 8    1  0.7583103E-052  0.2027863E+04  0.7818608E-02  0.8593704E-01
         -2   -1    0    0    0  501 -0.00000000000E+00  0.00000000000E+00  0.35430265633E+03  0.35430265634E+03  0.25500000000E-02 0. -1.
          2   -1    0    0  501    0  0.00000000000E+00 -0.00000000000E+00 -0.29016348983E+04  0.29016348983E+04  0.25500000000E-02 0.  1.
     200001    2    1    2    0    0 -0.13794916794E+03 -0.75314196916E+03 -0.86031465374E+03  0.13045149603E+04  0.61267053104E+03 0.  0.
    5000001    2    3    3    0    0 -0.16819260998E+03 -0.39914354301E+02 -0.34001553715E+02  0.20788255351E+03  0.11035008233E+03 0.  0.
        -13    1    4    4    0    0 -0.56485368968E+02 -0.65359470868E+02 -0.91185577737E+01  0.86865508688E+02  0.10566000000E+00 0. -1.
     200003    1    4    4    0    0 -0.11170724101E+03  0.25445116567E+02 -0.24882995941E+02  0.12101704482E+03  0.30000000000E+02 0. -1.
     200000    1    3    3    0    0  0.30243442034E+02 -0.71322761486E+03 -0.82631310002E+03  0.10966324068E+04  0.10100000000E+03 0. -1.
    -200001    1    1    2    0    0  0.13794916794E+03  0.75314196916E+03 -0.16870175882E+04  0.19514225943E+04  0.61300000000E+03 0. -1.
<mgrwt>
<rscale>  0 0.20278629E+04</rscale>
<asrwt>0</asrwt>
<pdfrwt beam="1">  1        2 0.41451926E+00 0.20278629E+04</pdfrwt>
<pdfrwt beam="2">  1       -2 0.50614667E-01 0.20278629E+04</pdfrwt>
<totfact> 0.91950747E+00</totfact>
</mgrwt>
</event>
<event>
 8    1  0.7583103E-052  0.1600114E+04  0.7818608E-02  0.8820478E-01
          2   -1    0    0  501    0  0.00000000000E+00  0.00000000000E+00  0.83468456208E+03  0.83468456209E+03  0.25500000000E-02 0.  1.
         -2   -1    0    0    0  501 -0.00000000000E+00 -0.00000000000E+00 -0.76686636634E+03  0.76686636634E+03  0.25500000000E-02 0. -1.
     200001    2    1    2    0    0  0.10590211805E+03 -0.50168758673E+03 -0.13637651831E+01  0.79939082159E+03  0.61328470755E+03 0.  0.
    5000001    2    3    3    0    0  0.24799373200E+03 -0.19500720859E+03  0.20532376331E+03  0.39053434858E+03  0.10406981853E+03 0.  0.
        -13    1    4    4    0    0  0.22162548634E+03 -0.13663155318E+03  0.17418602605E+03  0.31325200774E+03  0.10566000000E+00 0. -1.
     200003    1    4    4    0    0  0.26368245659E+02 -0.58375655411E+02  0.31137737260E+02  0.77282340838E+02  0.30000000000E+02 0.  1.
     200000    1    3    3    0    0 -0.14209161394E+03 -0.30668037814E+03 -0.20668752850E+03  0.40885647301E+03  0.10100000000E+03 0. -1.
    -200001    1    1    2    0    0 -0.10590211805E+03  0.50168758673E+03  0.69181960928E+02  0.80216010684E+03  0.61300000000E+03 0. -1.
<mgrwt>
<rscale>  0 0.16001144E+04</rscale>
<asrwt>0</asrwt>
<pdfrwt beam="1">  1        2 0.11924065E+00 0.16001144E+04</pdfrwt>
<pdfrwt beam="2">  1       -2 0.10955234E+00 0.16001144E+04</pdfrwt>
<totfact> 0.22938955E+01</totfact>
</mgrwt>
</event>
<event>
 8    1  0.7583103E-052  0.1282506E+04  0.7818608E-02  0.9043555E-01
          2   -1    0    0  501    0  0.00000000000E+00  0.00000000000E+00  0.22521006698E+04  0.22521006698E+04  0.25500000000E-02 0. -1.
         -2   -1    0    0    0  501 -0.00000000000E+00 -0.00000000000E+00 -0.18258739753E+03  0.18258739755E+03  0.25500000000E-02 0.  1.
     200001    2    1    2    0    0 -0.90899071930E+02  0.11299623783E+03  0.82610479814E+03  0.10408213504E+04  0.61630281107E+03 0.  0.
    5000001    2    3    3    0    0  0.15922685463E+03  0.24852037098E+03  0.26703256270E+03  0.40545331987E+03  0.77268616000E+02 0.  0.
        -13    1    4    4    0    0  0.95557222978E+02  0.18892051601E+03  0.20185468673E+03  0.29251917878E+03  0.10566000000E+00 0. -1.
     200003    1    4    4    0    0  0.63669631652E+02  0.59599854969E+02  0.65177875970E+02  0.11293414109E+03  0.30000000000E+02 0.  1.
     200000    1    3    3    0    0 -0.25012592656E+03 -0.13552413315E+03  0.55907223544E+03  0.63536803055E+03  0.10100000000E+03 0. -1.
    -200001    1    1    2    0    0  0.90899071930E+02 -0.11299623783E+03  0.12434084741E+04  0.13938667169E+04  0.61300000000E+03 0. -1.
<mgrwt>
<rscale>  0 0.12825057E+04</rscale>
<asrwt>0</asrwt>
<pdfrwt beam="1">  1        2 0.32172868E+00 0.12825057E+04</pdfrwt>
<pdfrwt beam="2">  1       -2 0.26083913E-01 0.12825057E+04</pdfrwt>
<totfact> 0.77593866E+01</totfact>
</mgrwt>
</event>
<event>
 8    1  0.7583103E-052  0.1669737E+04  0.7818608E-02  0.8778815E-01
          2   -1    0    0  501    0  0.00000000000E+00  0.00000000000E+00  0.16902326369E+04  0.16902326369E+04  0.25500000000E-02 0.  1.
         -2   -1    0    0    0  501 -0.00000000000E+00 -0.00000000000E+00 -0.41237247424E+03  0.41237247425E+03  0.25500000000E-02 0. -1.
     200001    2    1    2    0    0  0.30935251119E+03 -0.18682631026E+03  0.11886436537E+04  0.13854359318E+04  0.61315246008E+03 0.  0.
    5000001    2    3    3    0    0 -0.50743549468E+02 -0.79996987259E+02  0.88003548538E+03  0.88892643673E+03  0.82178638370E+02 0.  0.
        -13    1    4    4    0    0  0.68910283326E+01 -0.18429389708E+02  0.45083085664E+02  0.49189678323E+02  0.10566000000E+00 0. -1.
     200003    1    4    4    0    0 -0.57634577800E+02 -0.61567597551E+02  0.83495239972E+03  0.83973675841E+03  0.30000000000E+02 0. -1.
     200000    1    3    3    0    0  0.36009606066E+03 -0.10682932300E+03  0.30860816830E+03  0.49650949507E+03  0.10100000000E+03 0. -1.
    -200001    1    1    2    0    0 -0.30935251119E+03  0.18682631026E+03  0.89216509019E+02  0.71716917939E+03  0.61300000000E+03 0. -1.
<mgrwt>
<rscale>  0 0.16697370E+04</rscale>
<asrwt>0</asrwt>
<pdfrwt beam="1">  1        2 0.24146180E+00 0.16697370E+04</pdfrwt>
<pdfrwt beam="2">  1       -2 0.58910354E-01 0.16697370E+04</pdfrwt>
<totfact> 0.29867527E+01</totfact>
</mgrwt>
</event>
<event>
 8    1  0.7583103E-052  0.1504925E+04  0.7818608E-02  0.8881185E-01
         -2   -1    0    0    0  501 -0.00000000000E+00  0.00000000000E+00  0.73947389125E+03  0.73947389126E+03  0.25500000000E-02 0. -1.
          2   -1    0    0  501    0  0.00000000000E+00 -0.00000000000E+00 -0.76567884119E+03  0.76567884120E+03  0.25500000000E-02 0.  1.
     200001    2    1    2    0    0 -0.16483362529E+02  0.36517656389E+02  0.42233424908E+03  0.74452032877E+03  0.61183254371E+03 0.  0.
    5000001    2    3    3    0    0  0.20124338550E+03  0.19160714526E+03  0.32594944086E+03  0.44294327789E+03  0.11288716097E+03 0.  0.
        -13    1    4    4    0    0  0.50359774309E+02  0.12002780290E+03  0.13622112389E+03  0.18841174617E+03  0.10566000000E+00 0. -1.
     200003    1    4    4    0    0  0.15088361119E+03  0.71579342351E+02  0.18972831697E+03  0.25453153172E+03  0.30000000000E+02 0. -1.
     200000    1    3    3    0    0 -0.21772674803E+03 -0.15508948887E+03  0.96384808224E+02  0.30157705089E+03  0.10100000000E+03 0.  1.
    -200001    1    1    2    0    0  0.16483362529E+02 -0.36517656389E+02 -0.44853919902E+03  0.76063240368E+03  0.61300000000E+03 0.  1.
<mgrwt>
<rscale>  0 0.15049246E+04</rscale>
<asrwt>0</asrwt>
<pdfrwt beam="1">  1        2 0.10938269E+00 0.15049246E+04</pdfrwt>
<pdfrwt beam="2">  1       -2 0.10563913E+00 0.15049246E+04</pdfrwt>
<totfact> 0.28197443E+01</totfact>
</mgrwt>
</event>
<event>
 8    1  0.7583103E-052  0.1279742E+04  0.7818608E-02  0.9045786E-01
          2   -1    0    0  501    0  0.00000000000E+00  0.00000000000E+00  0.14249755204E+04  0.14249755204E+04  0.25500000000E-02 0.  1.
         -2   -1    0    0    0  501 -0.00000000000E+00 -0.00000000000E+00 -0.28732749131E+03  0.28732749133E+03  0.25500000000E-02 0. -1.
     200001    2    1    2    0    0  0.89175903742E+02 -0.12694923468E+03  0.43572107171E+03  0.76756024067E+03  0.61255809580E+03 0.  0.
    5000001    2    3    3    0    0  0.30846663675E+02 -0.31147864559E+03  0.44535203619E+03  0.54904900706E+03  0.71735017248E+02 0.  0.
        -13    1    4    4    0    0  0.11738748901E+02 -0.24858217526E+03  0.34575107466E+03  0.42599848929E+03  0.10566000000E+00 0. -1.
     200003    1    4    4    0    0  0.19107914774E+02 -0.62896470327E+02  0.99600961530E+02  0.12305051777E+03  0.30000000000E+02 0.  1.
     200000    1    3    3    0    0  0.58329240067E+02  0.18452941090E+03 -0.96309644831E+01  0.21851123361E+03  0.10100000000E+03 0. -1.
    -200001    1    1    2    0    0 -0.89175903742E+02  0.12694923468E+03  0.70192695741E+03  0.94474277110E+03  0.61300000000E+03 0.  1.
<mgrwt>
<rscale>  0 0.12797416E+04</rscale>
<asrwt>0</asrwt>
<pdfrwt beam="1">  1        2 0.20356793E+00 0.12797416E+04</pdfrwt>
<pdfrwt beam="2">  1       -2 0.41046784E-01 0.12797416E+04</pdfrwt>
<totfact> 0.88476587E+01</totfact>
</mgrwt>
</event>
<event>
 8    1  0.7583103E-052  0.2283995E+04  0.7818608E-02  0.8484259E-01
         -2   -1    0    0    0  501 -0.00000000000E+00  0.00000000000E+00  0.23209459749E+04  0.23209459749E+04  0.25500000000E-02 0. -1.
          2   -1    0    0  501    0  0.00000000000E+00 -0.00000000000E+00 -0.56190801639E+03  0.56190801640E+03  0.25500000000E-02 0.  1.
     200001    2    1    2    0    0  0.48102976508E+03  0.80943660272E+03  0.62119914138E+03  0.12837844423E+04  0.61289221920E+03 0.  0.
    5000001    2    3    3    0    0  0.94621377808E+02  0.23971835901E+03 -0.93656051586E+02  0.28623280661E+03  0.82095473687E+02 0.  0.
        -13    1    4    4    0    0  0.77992798814E+02  0.13015598922E+03 -0.77227402197E+02  0.17025727887E+03  0.10566000000E+00 0. -1.
     200003    1    4    4    0    0  0.16628578994E+02  0.10956236979E+03 -0.16428649389E+02  0.11597552774E+03  0.30000000000E+02 0. -1.
     200000    1    3    3    0    0  0.38640838727E+03  0.56971824372E+03  0.71485519296E+03  0.99755163570E+03  0.10100000000E+03 0. -1.
    -200001    1    1    2    0    0 -0.48102976508E+03 -0.80943660272E+03  0.11378388171E+04  0.15990695490E+04  0.61300000000E+03 0.  1.
<mgrwt>
<rscale>  0 0.22839949E+04</rscale>
<asrwt>0</asrwt>
<pdfrwt beam="1">  1        2 0.80272574E-01 0.22839949E+04</pdfrwt>
<pdfrwt beam="2">  1       -2 0.33156371E+00 0.22839949E+04</pdfrwt>
<totfact> 0.10857640E+00</totfact>
</mgrwt>
</event>
<event>
 8    1  0.7583103E-052  0.1389269E+04  0.7818608E-02  0.8961623E-01
         -2   -1    0    0    0  501 -0.00000000000E+00  0.00000000000E+00  0.25274481091E+03  0.25274481092E+03  0.25500000000E-02 0. -1.
          2   -1    0    0  501    0  0.00000000000E+00 -0.00000000000E+00 -0.19091090734E+04  0.19091090734E+04  0.25500000000E-02 0.  1.
     200001    2    1    2    0    0  0.51155427709E+02 -0.17974592085E+03 -0.41616187942E+03  0.76586089551E+03  0.61516398427E+03 0.  0.
    5000001    2    3    3    0    0  0.92929217703E+02 -0.82600862823E+02  0.39426841594E+02  0.28737965811E+03  0.25607391514E+03 0.  0.
        -13    1    4    4    0    0 -0.61742574848E+02 -0.55363216674E+02 -0.57030490808E+02  0.10064650692E+03  0.10566000000E+00 0. -1.
     200003    1    4    4    0    0  0.15467179255E+03 -0.27237646149E+02  0.96457332402E+02  0.18673315119E+03  0.30000000000E+02 0. -1.
     200000    1    3    3    0    0 -0.41773789993E+02 -0.97145058024E+02 -0.45558872102E+03  0.47848123740E+03  0.10100000000E+03 0.  1.
    -200001    1    1    2    0    0 -0.51155427709E+02  0.17974592085E+03 -0.12402023830E+04  0.13959929888E+04  0.61300000000E+03 0.  1.
<mgrwt>
<rscale>  0 0.13892695E+04</rscale>
<asrwt>0</asrwt>
<pdfrwt beam="1">  1        2 0.27272986E+00 0.13892695E+04</pdfrwt>
<pdfrwt beam="2">  1       -2 0.36106403E-01 0.13892695E+04</pdfrwt>
<totfact> 0.62872064E+01</totfact>
</mgrwt>
</event>
<event>
 8    1  0.7583103E-052  0.3044096E+04  0.7818608E-02  0.8231250E-01
         -2   -1    0    0    0  501 -0.00000000000E+00  0.00000000000E+00  0.73402936640E+03  0.73402936640E+03  0.25500000000E-02 0. -1.
          2   -1    0    0  501    0  0.00000000000E+00 -0.00000000000E+00 -0.31560458769E+04  0.31560458769E+04  0.25500000000E-02 0.  1.
     200001    2    1    2    0    0  0.59539253770E+03  0.29159777137E+03 -0.27770127051E+04  0.29198624664E+04  0.61178078125E+03 0.  0.
    5000001    2    3    3    0    0  0.21135812477E+03  0.11684840396E+03 -0.21020816457E+04  0.21175204529E+04  0.82582182191E+02 0.  0.
        -13    1    4    4    0    0  0.10764099254E+03  0.22055001425E+02 -0.79248369064E+03  0.80006463330E+03  0.10566000000E+00 0. -1.
     200003    1    4    4    0    0  0.10371713224E+03  0.94793402531E+02 -0.13095979551E+04  0.13174558196E+04  0.30000000000E+02 0. -1.
     200000    1    3    3    0    0  0.38403441293E+03  0.17474936741E+03 -0.67493105938E+03  0.80234201351E+03  0.10100000000E+03 0.  1.
    -200001    1    1    2    0    0 -0.59539253770E+03 -0.29159777137E+03  0.35499619461E+03  0.97021277687E+03  0.61300000000E+03 0. -1.
<mgrwt>
<rscale>  0 0.30440962E+04</rscale>
<asrwt>0</asrwt>
<pdfrwt beam="1">  1        2 0.45086369E+00 0.30440962E+04</pdfrwt>
<pdfrwt beam="2">  1       -2 0.10486134E+00 0.30440962E+04</pdfrwt>
<totfact> 0.12176129E+00</totfact>
</mgrwt>
</event>
<event>
 8    1  0.7583103E-052  0.2660544E+04  0.7818608E-02  0.8347922E-01
         -2   -1    0    0    0  501 -0.00000000000E+00  0.00000000000E+00  0.31491768451E+04  0.31491768451E+04  0.25500000000E-02 0. -1.
          2   -1    0    0  501    0  0.00000000000E+00 -0.00000000000E+00 -0.56193226073E+03  0.56193226073E+03  0.25500000000E-02 0.  1.
     200001    2    1    2    0    0  0.70157797251E+03  0.78971069333E+02  0.26135865906E+04  0.27757423422E+04  0.61275003231E+03 0.  0.
    5000001    2    3    3    0    0  0.43874580293E+03  0.16397082123E+03  0.79269773211E+03  0.93125245544E+03  0.13956049393E+03 0.  0.
        -13    1    4    4    0    0  0.12265572431E+03  0.77683616955E+02  0.35607589961E+03  0.38453768151E+03  0.10566000000E+00 0. -1.
     200003    1    4    4    0    0  0.31609007861E+03  0.86287204271E+02  0.43662183250E+03  0.54671477393E+03  0.30000000000E+02 0. -1.
     200000    1    3    3    0    0  0.26283216958E+03 -0.84999751892E+02  0.18208888585E+04  0.18444898867E+04  0.10100000000E+03 0.  1.
    -200001    1    1    2    0    0 -0.70157797251E+03 -0.78971069333E+02 -0.26342006245E+02  0.93536676368E+03  0.61300000000E+03 0.  1.
<mgrwt>
<rscale>  0 0.26605444E+04</rscale>
<asrwt>0</asrwt>
<pdfrwt beam="1">  1        2 0.80276036E-01 0.26605444E+04</pdfrwt>
<pdfrwt beam="2">  1       -2 0.44988241E+00 0.26605444E+04</pdfrwt>
<totfact> 0.18005560E-01</totfact>
</mgrwt>
</event>
<event>
 8    1  0.7583103E-052  0.1474474E+04  0.7818608E-02  0.8901607E-01
         -2   -1    0    0    0  501 -0.00000000000E+00  0.00000000000E+00  0.50699892839E+03  0.50699892840E+03  0.25500000000E-02 0. -1.
          2   -1    0    0  501    0  0.00000000000E+00 -0.00000000000E+00 -0.10720300531E+04  0.10720300531E+04  0.25500000000E-02 0.  1.
     200001    2    1    2    0    0  0.15231891722E+03 -0.59603547233E+02 -0.68326552325E+03  0.93365931347E+03  0.61490999584E+03 0.  0.
    5000001    2    3    3    0    0  0.32422859906E+03 -0.17358788856E+03 -0.28409838791E+03  0.47313703311E+03  0.88824650754E+02 0.  0.
        -13    1    4    4    0    0  0.25113300804E+03 -0.15364700066E+03 -0.24369299378E+03  0.38217989863E+03  0.10566000000E+00 0. -1.
     200003    1    4    4    0    0  0.73095591021E+02 -0.19940887899E+02 -0.40405394136E+02  0.90957134476E+02  0.30000000000E+02 0. -1.
     200000    1    3    3    0    0 -0.17190968184E+03  0.11398434133E+03 -0.39916713534E+03  0.46052228037E+03  0.10100000000E+03 0.  1.
    -200001    1    1    2    0    0 -0.15231891722E+03  0.59603547233E+02  0.11823439856E+03  0.64536966801E+03  0.61300000000E+03 0. -1.
<mgrwt>
<rscale>  0 0.14744736E+04</rscale>
<asrwt>0</asrwt>
<pdfrwt beam="1">  1        2 0.15314715E+00 0.14744736E+04</pdfrwt>
<pdfrwt beam="2">  1       -2 0.72428418E-01 0.14744736E+04</pdfrwt>
<totfact> 0.42467895E+01</totfact>
</mgrwt>
</event>
<event>
 8    1  0.7583103E-052  0.1312793E+04  0.7818608E-02  0.9019481E-01
         -2   -1    0    0    0  501 -0.00000000000E+00  0.00000000000E+00  0.15104669609E+03  0.15104669611E+03  0.25500000000E-02 0.  1.
          2   -1    0    0  501    0  0.00000000000E+00 -0.00000000000E+00 -0.28524721446E+04  0.28524721446E+04  0.25500000000E-02 0. -1.
     200001    2    1    2    0    0 -0.23402003706E+03  0.13849783729E+02 -0.13283138734E+04  0.14816247603E+04  0.61305545414E+03 0.  0.
    5000001    2    3    3    0    0 -0.79121413046E+02 -0.94591344722E+02 -0.10743258552E+04  0.11492635480E+04  0.38913100508E+03 0.  0.
        -13    1    4    4    0    0 -0.16441636976E+03 -0.19341955993E+03 -0.85852993152E+03  0.89527511039E+03  0.10566000000E+00 0. -1.
     200003    1    4    4    0    0  0.85294956712E+02  0.98828215212E+02 -0.21579592368E+03  0.25398843761E+03  0.30000000000E+02 0. -1.
     200000    1    3    3    0    0 -0.15489862401E+03  0.10844112845E+03 -0.25398801821E+03  0.33236121232E+03  0.10100000000E+03 0.  1.
    -200001    1    1    2    0    0  0.23402003706E+03 -0.13849783729E+02 -0.13731115751E+04  0.15218940804E+04  0.61300000000E+03 0. -1.
<mgrwt>
<rscale>  0 0.13127932E+04</rscale>
<asrwt>0</asrwt>
<pdfrwt beam="1">  1        2 0.40749599E+00 0.13127932E+04</pdfrwt>
<pdfrwt beam="2">  1       -2 0.21578101E-01 0.13127932E+04</pdfrwt>
<totfact> 0.52501244E+01</totfact>
</mgrwt>
</event>
<event>
 8    1  0.7583103E-052  0.1422318E+04  0.7818608E-02  0.8937820E-01
         -2   -1    0    0    0  501 -0.00000000000E+00  0.00000000000E+00  0.12622924346E+03  0.12622924349E+03  0.25500000000E-02 0. -1.
          2   -1    0    0  501    0  0.00000000000E+00 -0.00000000000E+00 -0.40065763423E+04  0.40065763423E+04  0.25500000000E-02 0.  1.
     200001    2    1    2    0    0  0.14018571933E+03  0.12934999906E+02 -0.29054299359E+04  0.29726108501E+04  0.61243187670E+03 0.  0.
    5000001    2    3    3    0    0 -0.13973181452E+02 -0.13407058622E+03 -0.52834505100E+03  0.58386449289E+03  0.20875603287E+03 0.  0.
        -13    1    4    4    0    0  0.17723406732E+02 -0.96191820915E+02 -0.51545901370E+03  0.52465702275E+03  0.10566000000E+00 0. -1.
     200003    1    4    4    0    0 -0.31696588184E+02 -0.37878765301E+02 -0.12886037299E+02  0.59207470141E+02  0.30000000000E+02 0. -1.
     200000    1    3    3    0    0  0.15415890078E+03  0.14700558612E+03 -0.23770848849E+04  0.23887463572E+04  0.10100000000E+03 0.  1.
    -200001    1    1    2    0    0 -0.14018571933E+03 -0.12934999906E+02 -0.97491716291E+03  0.11601947357E+04  0.61300000000E+03 0. -1.
<mgrwt>
<rscale>  0 0.14223180E+04</rscale>
<asrwt>0</asrwt>
<pdfrwt beam="1">  1        2 0.57236797E+00 0.14223180E+04</pdfrwt>
<pdfrwt beam="2">  1       -2 0.18032752E-01 0.14223180E+04</pdfrwt>
<totfact> 0.14346910E+01</totfact>
</mgrwt>
</event>
<event>
 8    1  0.7583103E-052  0.1979132E+04  0.7818608E-02  0.8616440E-01
         -2   -1    0    0    0  501 -0.00000000000E+00  0.00000000000E+00  0.36992432285E+03  0.36992432286E+03  0.25500000000E-02 0. -1.
          2   -1    0    0  501    0  0.00000000000E+00 -0.00000000000E+00 -0.26471379821E+04  0.26471379821E+04  0.25500000000E-02 0.  1.
     200001    2    1    2    0    0  0.29915447611E+03 -0.44542247615E+03 -0.19950048447E+04  0.21549106954E+04  0.61294468923E+03 0.  0.
    5000001    2    3    3    0    0  0.45144341749E+03 -0.43073485131E+03 -0.14735556329E+04  0.16021739331E+04  0.79129243564E+02 0.  0.
        -13    1    4    4    0    0  0.32575349384E+03 -0.33611219384E+03 -0.10632611246E+04  0.11617275825E+04  0.10566000000E+00 0. -1.
     200003    1    4    4    0    0  0.12568992365E+03 -0.94622657465E+02 -0.41029450825E+03  0.44044635055E+03  0.30000000000E+02 0. -1.
     200000    1    3    3    0    0 -0.15228894138E+03 -0.14687624842E+02 -0.52144921179E+03  0.55273676236E+03  0.10100000000E+03 0. -1.
    -200001    1    1    2    0    0 -0.29915447611E+03  0.44542247615E+03 -0.28220881457E+03  0.86215160956E+03  0.61300000000E+03 0. -1.
<mgrwt>
<rscale>  0 0.19791319E+04</rscale>
<asrwt>0</asrwt>
<pdfrwt beam="1">  1        2 0.37816256E+00 0.19791319E+04</pdfrwt>
<pdfrwt beam="2">  1       -2 0.52846333E-01 0.19791319E+04</pdfrwt>
<totfact> 0.11614396E+01</totfact>
</mgrwt>
</event>
<event>
 8    1  0.7583103E-052  0.2122948E+04  0.7818608E-02  0.8551201E-01
         -2   -1    0    0    0  501 -0.00000000000E+00  0.00000000000E+00  0.11768716160E+04  0.11768716160E+04  0.25500000000E-02 0. -1.
          2   -1    0    0  501    0  0.00000000000E+00 -0.00000000000E+00 -0.95739158126E+03  0.95739158126E+03  0.25500000000E-02 0.  1.
     200001    2    1    2    0    0 -0.60020561139E+03 -0.61903984769E+03  0.25884128190E+02  0.10587607640E+04  0.61387886289E+03 0.  0.
    5000001    2    3    3    0    0 -0.20103809442E+03  0.48500578174E+02  0.11427736332E+03  0.26948306205E+03  0.12958851598E+03 0.  0.
        -13    1    4    4    0    0 -0.12930385281E+02  0.39729772710E+02 -0.85696534054E+01  0.42650906515E+02  0.10566000000E+00 0. -1.
     200003    1    4    4    0    0 -0.18810770914E+03  0.87708054641E+01  0.12284701673E+03  0.22683215554E+03  0.30000000000E+02 0. -1.
     200000    1    3    3    0    0 -0.39916751697E+03 -0.66754042586E+03 -0.88393235133E+02  0.78927770194E+03  0.10100000000E+03 0.  1.
    -200001    1    1    2    0    0  0.60020561139E+03  0.61903984769E+03  0.19359590658E+03  0.10755024333E+04  0.61300000000E+03 0. -1.
<mgrwt>
<rscale>  0 0.21229479E+04</rscale>
<asrwt>0</asrwt>
<pdfrwt beam="1">  1        2 0.13677023E+00 0.21229479E+04</pdfrwt>
<pdfrwt beam="2">  1       -2 0.16812452E+00 0.21229479E+04</pdfrwt>
<totfact> 0.60626695E+00</totfact>
</mgrwt>
</event>
<event>
 8    1  0.7583103E-052  0.1686041E+04  0.7818608E-02  0.8769366E-01
          2   -1    0    0  501    0  0.00000000000E+00  0.00000000000E+00  0.17525703644E+04  0.17525703644E+04  0.25500000000E-02 0.  1.
         -2   -1    0    0    0  501 -0.00000000000E+00 -0.00000000000E+00 -0.40550907371E+03  0.40550907372E+03  0.25500000000E-02 0. -1.
     200001    2    1    2    0    0  0.12682261404E+03  0.52724591062E+03  0.93248413030E+03  0.12406289231E+04  0.61283051961E+03 0.  0.
    5000001    2    3    3    0    0  0.11830305657E+03  0.42020371181E+03  0.98825104229E+03  0.10830168561E+04  0.75621526878E+02 0.  0.
        -13    1    4    4    0    0  0.70856688272E+02  0.25244522344E+03  0.65911448882E+03  0.70935264971E+03  0.10566000000E+00 0. -1.
     200003    1    4    4    0    0  0.47446368296E+02  0.16775848837E+03  0.32913655347E+03  0.37366420635E+03  0.30000000000E+02 0.  1.
     200000    1    3    3    0    0  0.85195574766E+01  0.10704219882E+03 -0.55766911995E+02  0.15761206699E+03  0.10100000000E+03 0. -1.
    -200001    1    1    2    0    0 -0.12682261404E+03 -0.52724591062E+03  0.41457716041E+03  0.91745051509E+03  0.61300000000E+03 0. -1.
<mgrwt>
<rscale>  0 0.16860406E+04</rscale>
<asrwt>0</asrwt>
<pdfrwt beam="1">  1        2 0.25036720E+00 0.16860406E+04</pdfrwt>
<pdfrwt beam="2">  1       -2 0.57929866E-01 0.16860406E+04</pdfrwt>
<totfact> 0.28679724E+01</totfact>
</mgrwt>
</event>
<event>
 8    1  0.7583103E-052  0.1591763E+04  0.7818608E-02  0.8825624E-01
         -2   -1    0    0    0  501 -0.00000000000E+00  0.00000000000E+00  0.26671794051E+03  0.26671794053E+03  0.25500000000E-02 0. -1.
          2   -1    0    0  501    0  0.00000000000E+00 -0.00000000000E+00 -0.23748953522E+04  0.23748953522E+04  0.25500000000E-02 0.  1.
     200001    2    1    2    0    0 -0.74420456180E+02  0.30493432619E+03 -0.39173309101E+03  0.79216108908E+03  0.61281402471E+03 0.  0.
    5000001    2    3    3    0    0  0.23596819928E+03  0.14077704113E+02 -0.12494158265E+03  0.27999178019E+03  0.83101294052E+02 0.  0.
        -13    1    4    4    0    0  0.11173746548E+02  0.46454520503E+01 -0.32903094828E+02  0.35057918506E+02  0.10566000000E+00 0. -1.
     200003    1    4    4    0    0  0.22479445273E+03  0.94322520627E+01 -0.92038487822E+02  0.24493386168E+03  0.30000000000E+02 0. -1.
     200000    1    3    3    0    0 -0.31038865546E+03  0.29085662207E+03 -0.26679150837E+03  0.51216930890E+03  0.10100000000E+03 0.  1.
    -200001    1    1    2    0    0  0.74420456180E+02 -0.30493432619E+03 -0.17164443207E+04  0.18494522036E+04  0.61300000000E+03 0.  1.
<mgrwt>
<rscale>  0 0.15917628E+04</rscale>
<asrwt>0</asrwt>
<pdfrwt beam="1">  1        2 0.33927075E+00 0.15917628E+04</pdfrwt>
<pdfrwt beam="2">  1       -2 0.38102564E-01 0.15917628E+04</pdfrwt>
<totfact> 0.32083353E+01</totfact>
</mgrwt>
</event>
<event>
 8    1  0.7583103E-052  0.1876756E+04  0.7818608E-02  0.8666514E-01
          2   -1    0    0  501    0  0.00000000000E+00  0.00000000000E+00  0.80229287683E+03  0.80229287683E+03  0.25500000000E-02 0.  1.
         -2   -1    0    0    0  501 -0.00000000000E+00 -0.00000000000E+00 -0.10975461841E+04  0.10975461841E+04  0.25500000000E-02 0. -1.
     200001    2    1    2    0    0 -0.43401507217E+03  0.26159742232E+03  0.35765270394E+03  0.87083101739E+03  0.61125192023E+03 0.  0.
    5000001    2    3    3    0    0 -0.13676562287E+03  0.21573699896E+03  0.46758801189E+03  0.53505254060E+03  0.48942660532E+02 0.  0.
        -13    1    4    4    0    0 -0.85075716108E+02  0.12949012532E+03  0.28936718268E+03  0.32823611562E+03  0.10566000000E+00 0. -1.
     200003    1    4    4    0    0 -0.51689906762E+02  0.86246873642E+02  0.17822082922E+03  0.20681642498E+03  0.30000000000E+02 0.  1.
     200000    1    3    3    0    0 -0.29724944930E+03  0.45860423364E+02 -0.10993530796E+03  0.33577847679E+03  0.10100000000E+03 0. -1.
    -200001    1    1    2    0    0  0.43401507217E+03 -0.26159742232E+03 -0.65290601125E+03  0.10290080436E+04  0.61300000000E+03 0.  1.
<mgrwt>
<rscale>  0 0.18767562E+04</rscale>
<asrwt>0</asrwt>
<pdfrwt beam="1">  1        2 0.11461327E+00 0.18767562E+04</pdfrwt>
<pdfrwt beam="2">  1       -2 0.15679231E+00 0.18767562E+04</pdfrwt>
<totfact> 0.94846808E+00</totfact>
</mgrwt>
</event>
<event>
 8    1  0.7583103E-052  0.1270953E+04  0.7818608E-02  0.9052922E-01
          2   -1    0    0  501    0  0.00000000000E+00  0.00000000000E+00  0.81604978887E+03  0.81604978887E+03  0.25500000000E-02 0.  1.
         -2   -1    0    0    0  501 -0.00000000000E+00 -0.00000000000E+00 -0.49486032378E+03  0.49486032379E+03  0.25500000000E-02 0. -1.
     200001    2    1    2    0    0  0.17843302669E+02  0.10566904166E+03  0.27335966145E+02  0.62272176006E+03  0.61282200155E+03 0.  0.
    5000001    2    3    3    0    0 -0.19729855017E+03  0.20183947790E+03 -0.12799454077E+03  0.32294961988E+03  0.90818289894E+02 0.  0.
        -13    1    4    4    0    0 -0.13053097394E+03  0.17303072511E+03 -0.10596433910E+03  0.24126006573E+03  0.10566000000E+00 0. -1.
     200003    1    4    4    0    0 -0.66767576227E+02  0.28808752790E+02 -0.22030201664E+02  0.81689554154E+02  0.30000000000E+02 0. -1.
     200000    1    3    3    0    0  0.21514185284E+03 -0.96170436233E+02  0.15533050691E+03  0.29977214017E+03  0.10100000000E+03 0.  1.
    -200001    1    1    2    0    0 -0.17843302669E+02 -0.10566904166E+03  0.29385349894E+03  0.68818835260E+03  0.61300000000E+03 0.  1.
<mgrwt>
<rscale>  0 0.12709534E+04</rscale>
<asrwt>0</asrwt>
<pdfrwt beam="1">  1        2 0.11657854E+00 0.12709534E+04</pdfrwt>
<pdfrwt beam="2">  1       -2 0.70694332E-01 0.12709534E+04</pdfrwt>
<totfact> 0.66269435E+01</totfact>
</mgrwt>
</event>
<event>
 8    1  0.7583103E-052  0.1293451E+04  0.7818608E-02  0.9034774E-01
          2   -1    0    0  501    0  0.00000000000E+00  0.00000000000E+00  0.69279452179E+03  0.69279452180E+03  0.25500000000E-02 0. -1.
         -2   -1    0    0    0  501 -0.00000000000E+00 -0.00000000000E+00 -0.60372033839E+03  0.60372033840E+03  0.25500000000E-02 0.  1.
     200001    2    1    2    0    0 -0.16033672929E+03 -0.12675883829E+03  0.91696442996E+02  0.65033257470E+03  0.61053136710E+03 0.  0.
    5000001    2    3    3    0    0  0.10721528176E+03 -0.56487379589E+02  0.12871735072E+03  0.35352673895E+03  0.30614875156E+03 0.  0.
        -13    1    4    4    0    0  0.17360541579E+03  0.39031935898E+02  0.65884420060E+00  0.17794037667E+03  0.10566000000E+00 0. -1.
     200003    1    4    4    0    0 -0.66390134022E+02 -0.95519315487E+02  0.12805850651E+03  0.17558636228E+03  0.30000000000E+02 0. -1.
     200000    1    3    3    0    0 -0.26755201105E+03 -0.70271458706E+02 -0.37020907719E+02  0.29680583575E+03  0.10100000000E+03 0.  1.
    -200001    1    1    2    0    0  0.16033672929E+03  0.12675883829E+03 -0.26222595967E+01  0.64618228550E+03  0.61300000000E+03 0. -1.
<mgrwt>
<rscale>  0 0.12934514E+04</rscale>
<asrwt>0</asrwt>
<pdfrwt beam="1">  1        2 0.98970646E-01 0.12934514E+04</pdfrwt>
<pdfrwt beam="2">  1       -2 0.86245763E-01 0.12934514E+04</pdfrwt>
<totfact> 0.52188938E+01</totfact>
</mgrwt>
</event>
<event>
 8    1  0.7583103E-052  0.1268063E+04  0.7818608E-02  0.9055282E-01
         -2   -1    0    0    0  501 -0.00000000000E+00  0.00000000000E+00  0.16731397468E+04  0.16731397468E+04  0.25500000000E-02 0. -1.
          2   -1    0    0  501    0  0.00000000000E+00 -0.00000000000E+00 -0.24026438360E+03  0.24026438361E+03  0.25500000000E-02 0.  1.
     200001    2    1    2    0    0 -0.12792769759E+03 -0.63875185314E+02  0.57441435004E+03  0.84889962302E+03  0.60846790329E+03 0.  0.
    5000001    2    3    3    0    0 -0.11290638113E+03 -0.12934155685E+03 -0.29467860347E+02  0.23295627355E+03  0.15467120404E+03 0.  0.
        -13    1    4    4    0    0 -0.12493400239E+03 -0.12343596693E+03 -0.62451299557E+02  0.18640042614E+03  0.10566000000E+00 0. -1.
     200003    1    4    4    0    0  0.12027621257E+02 -0.59055899270E+01  0.32983439211E+02  0.46555847405E+02  0.30000000000E+02 0. -1.
     200000    1    3    3    0    0 -0.15021316453E+02  0.65466371540E+02  0.60388221038E+03  0.61594334948E+03  0.10100000000E+03 0. -1.
    -200001    1    1    2    0    0  0.12792769759E+03  0.63875185314E+02  0.85846101312E+03  0.10645045073E+04  0.61300000000E+03 0. -1.
<mgrwt>
<rscale>  0 0.12680629E+04</rscale>
<asrwt>0</asrwt>
<pdfrwt beam="1">  1        2 0.34323482E-01 0.12680629E+04</pdfrwt>
<pdfrwt beam="2">  1       -2 0.23901997E+00 0.12680629E+04</pdfrwt>
<totfact> 0.11315182E+01</totfact>
</mgrwt>
</event>
<event>
 8    1  0.7583103E-052  0.2828375E+04  0.7818608E-02  0.8294513E-01
          2   -1    0    0  501    0  0.00000000000E+00  0.00000000000E+00  0.21156722912E+04  0.21156722912E+04  0.25500000000E-02 0.  1.
         -2   -1    0    0    0  501 -0.00000000000E+00 -0.00000000000E+00 -0.94529119439E+03  0.94529119440E+03  0.25500000000E-02 0. -1.
     200001    2    1    2    0    0  0.11959372065E+04  0.43854154004E+03  0.54253151363E+03  0.15141769511E+04  0.61303092245E+03 0.  0.
    5000001    2    3    3    0    0  0.23097026792E+03  0.29491079984E+03  0.30503737027E+03  0.50502114049E+03  0.14723759896E+03 0.  0.
        -13    1    4    4    0    0  0.10973035785E+03  0.11840704464E+03  0.46528723814E+02  0.16800569323E+03  0.10566000000E+00 0. -1.
     200003    1    4    4    0    0  0.12123991007E+03  0.17650375520E+03  0.25850864646E+03  0.33701544725E+03  0.30000000000E+02 0. -1.
     200000    1    3    3    0    0  0.96496693853E+03  0.14363074019E+03  0.23749414336E+03  0.10091558106E+04  0.10100000000E+03 0. -1.
    -200001    1    1    2    0    0 -0.11959372065E+04 -0.43854154004E+03  0.62784958315E+03  0.15467865345E+04  0.61300000000E+03 0.  1.
<mgrwt>
<rscale>  0 0.28283751E+04</rscale>
<asrwt>0</asrwt>
<pdfrwt beam="1">  1        2 0.30223889E+00 0.28283751E+04</pdfrwt>
<pdfrwt beam="2">  1       -2 0.13504160E+00 0.28283751E+04</pdfrwt>
<totfact> 0.24107105E+00</totfact>
</mgrwt>
</event>
<event>
 8    1  0.7583103E-052  0.1501858E+04  0.7818608E-02  0.8883219E-01
         -2   -1    0    0    0  501 -0.00000000000E+00  0.00000000000E+00  0.83977119818E+03  0.83977119818E+03  0.25500000000E-02 0. -1.
          2   -1    0    0  501    0  0.00000000000E+00 -0.00000000000E+00 -0.67148535497E+03  0.67148535498E+03  0.25500000000E-02 0.  1.
     200001    2    1    2    0    0  0.17367744495E+03  0.45672429639E+01  0.48379048332E+03  0.80027350658E+03  0.61335123624E+03 0.  0.
    5000001    2    3    3    0    0  0.12228548302E+03 -0.22075115452E+03  0.10780670710E+03  0.34753261603E+03  0.21324122850E+03 0.  0.
        -13    1    4    4    0    0  0.14869488972E+03 -0.83137453018E+02  0.11250493421E+03  0.20415527842E+03  0.10566000000E+00 0. -1.
     200003    1    4    4    0    0 -0.26409406698E+02 -0.13761370150E+03 -0.46982271064E+01  0.14337733761E+03  0.30000000000E+02 0. -1.
     200000    1    3    3    0    0  0.51391961922E+02  0.22531839748E+03  0.37598377622E+03  0.45274089054E+03  0.10100000000E+03 0. -1.
    -200001    1    1    2    0    0 -0.17367744495E+03 -0.45672429639E+01 -0.31550464011E+03  0.71098304658E+03  0.61300000000E+03 0.  1.
<mgrwt>
<rscale>  0 0.15018576E+04</rscale>
<asrwt>0</asrwt>
<pdfrwt beam="1">  1        2 0.95926479E-01 0.15018576E+04</pdfrwt>
<pdfrwt beam="2">  1       -2 0.11996731E+00 0.15018576E+04</pdfrwt>
<totfact> 0.24364432E+01</totfact>
</mgrwt>
</event>
<event>
 8    1  0.7583103E-052  0.1811884E+04  0.7818608E-02  0.8700005E-01
          2   -1    0    0  501    0  0.00000000000E+00  0.00000000000E+00  0.27728321686E+04  0.27728321686E+04  0.25500000000E-02 0.  1.
         -2   -1    0    0    0  501 -0.00000000000E+00 -0.00000000000E+00 -0.29599001871E+03  0.29599001872E+03  0.25500000000E-02 0. -1.
     200001    2    1    2    0    0  0.46551929845E+03 -0.38996554421E+03  0.17034533195E+04  0.19100812215E+04  0.61471596542E+03 0.  0.
    5000001    2    3    3    0    0  0.43020180862E+03 -0.40678570086E+03  0.78854387769E+03  0.98878293677E+03  0.73089304512E+02 0.  0.
        -13    1    4    4    0    0  0.50886767416E+02 -0.54791822733E+02  0.13828903358E+03  0.15721156099E+03  0.10566000000E+00 0. -1.
     200003    1    4    4    0    0  0.37931504120E+03 -0.35199387813E+03  0.65025484412E+03  0.83157137578E+03  0.30000000000E+02 0. -1.
     200000    1    3    3    0    0  0.35317489833E+02  0.16820156651E+02  0.91490944179E+03  0.92129828472E+03  0.10100000000E+03 0.  1.
    -200001    1    1    2    0    0 -0.46551929845E+03  0.38996554421E+03  0.77338883040E+03  0.11587409658E+04  0.61300000000E+03 0. -1.
<mgrwt>
<rscale>  0 0.18118837E+04</rscale>
<asrwt>0</asrwt>
<pdfrwt beam="1">  1        2 0.39611888E+00 0.18118837E+04</pdfrwt>
<pdfrwt beam="2">  1       -2 0.42284288E-01 0.18118837E+04</pdfrwt>
<totfact> 0.15804884E+01</totfact>
</mgrwt>
</event>
<event>
 8    1  0.7583103E-052  0.1266797E+04  0.7818608E-02  0.9056318E-01
         -2   -1    0    0    0  501 -0.00000000000E+00  0.00000000000E+00  0.11322704627E+03  0.11322704630E+03  0.25500000000E-02 0. -1.
          2   -1    0    0  501    0  0.00000000000E+00 -0.00000000000E+00 -0.35432652775E+04  0.35432652775E+04  0.25500000000E-02 0.  1.
     200001    2    1    2    0    0  0.92226832606E+02 -0.12274198410E+03 -0.15887299254E+04  0.17097625890E+04  0.61290615230E+03 0.  0.
    5000001    2    3    3    0    0  0.15106221064E+03 -0.32372319547E+03 -0.12222455619E+04  0.12757501033E+04  0.77702083301E+02 0.  0.
        -13    1    4    4    0    0  0.92550256697E+02 -0.15625436087E+03 -0.70878220348E+03  0.73167834357E+03  0.10566000000E+00 0. -1.
     200003    1    4    4    0    0  0.58511953947E+02 -0.16746883460E+03 -0.51346335838E+03  0.54407175971E+03  0.30000000000E+02 0.  1.
     200000    1    3    3    0    0 -0.58835378037E+02  0.20098121138E+03 -0.36648436357E+03  0.43401248574E+03  0.10100000000E+03 0. -1.
    -200001    1    1    2    0    0 -0.92226832606E+02  0.12274198410E+03 -0.18413083058E+04  0.19467297348E+04  0.61300000000E+03 0.  1.
<mgrwt>
<rscale>  0 0.12667967E+04</rscale>
<asrwt>0</asrwt>
<pdfrwt beam="1">  1        2 0.50618068E+00 0.12667967E+04</pdfrwt>
<pdfrwt beam="2">  1       -2 0.16175295E-01 0.12667967E+04</pdfrwt>
<totfact> 0.34969135E+01</totfact>
</mgrwt>
</event>
<event>
 8    1  0.7583103E-052  0.1751337E+04  0.7818608E-02  0.8732615E-01
         -2   -1    0    0    0  501 -0.00000000000E+00  0.00000000000E+00  0.43447665913E+03  0.43447665913E+03  0.25500000000E-02 0. -1.
          2   -1    0    0  501    0  0.00000000000E+00 -0.00000000000E+00 -0.17648704364E+04  0.17648704364E+04  0.25500000000E-02 0.  1.
     200001    2    1    2    0    0 -0.54693318029E+03  0.19470830315E+03 -0.37367282880E+03  0.92336465041E+03  0.61312614332E+03 0.  0.
    5000001    2    3    3    0    0 -0.49940104312E+03  0.11253789563E+02 -0.46851280288E+03  0.68860842940E+03  0.71758434523E+02 0.  0.
        -13    1    4    4    0    0 -0.69653344615E+02  0.22751272209E+02 -0.58302893562E+02  0.93639988066E+02  0.10566000000E+00 0. -1.
     200003    1    4    4    0    0 -0.42974769851E+03 -0.11497482646E+02 -0.41020990932E+03  0.59496844133E+03  0.30000000000E+02 0. -1.
     200000    1    3    3    0    0 -0.47532137173E+02  0.18345451359E+03  0.94839974080E+02  0.23475622101E+03  0.10100000000E+03 0. -1.
    -200001    1    1    2    0    0  0.54693318029E+03 -0.19470830315E+03 -0.95672094849E+03  0.12759824451E+04  0.61300000000E+03 0. -1.
<mgrwt>
<rscale>  0 0.17513366E+04</rscale>
<asrwt>0</asrwt>
<pdfrwt beam="1">  1        2 0.25212435E+00 0.17513366E+04</pdfrwt>
<pdfrwt beam="2">  1       -2 0.62068095E-01 0.17513366E+04</pdfrwt>
<totfact> 0.24303811E+01</totfact>
</mgrwt>
</event>
<event>
 8    1  0.7583103E-052  0.1911131E+04  0.7818608E-02  0.8649335E-01
          2   -1    0    0  501    0  0.00000000000E+00  0.00000000000E+00  0.13199934967E+04  0.13199934967E+04  0.25500000000E-02 0.  1.
         -2   -1    0    0    0  501 -0.00000000000E+00 -0.00000000000E+00 -0.69175004054E+03  0.69175004055E+03  0.25500000000E-02 0. -1.
     200001    2    1    2    0    0  0.19023480433E+02 -0.49534236571E+03  0.88256372319E+03  0.11833874844E+04  0.61299368734E+03 0.  0.
    5000001    2    3    3    0    0  0.76906115923E+02 -0.29527444998E+02 -0.48074101606E+02  0.13619041567E+03  0.97212598987E+02 0.  0.
        -13    1    4    4    0    0 -0.17689489790E+02  0.26942060248E+01 -0.22528271815E+02  0.28769966808E+02  0.10566000000E+00 0. -1.
     200003    1    4    4    0    0  0.94595605713E+02 -0.32221651023E+02 -0.25545829792E+02  0.10742044887E+03  0.30000000000E+02 0. -1.
     200000    1    3    3    0    0 -0.57882635490E+02 -0.46581492071E+03  0.93063782480E+03  0.10471970687E+04  0.10100000000E+03 0.  1.
    -200001    1    1    2    0    0 -0.19023480433E+02  0.49534236571E+03 -0.25432026701E+03  0.82835605285E+03  0.61300000000E+03 0.  1.
<mgrwt>
<rscale>  0 0.19111311E+04</rscale>
<asrwt>0</asrwt>
<pdfrwt beam="1">  1        2 0.18857050E+00 0.19111311E+04</pdfrwt>
<pdfrwt beam="2">  1       -2 0.98821434E-01 0.19111311E+04</pdfrwt>
<totfact> 0.14602488E+01</totfact>
</mgrwt>
</event>
<event>
 8    1  0.7583103E-052  0.1333564E+04  0.7818608E-02  0.9003364E-01
         -2   -1    0    0    0  501 -0.00000000000E+00  0.00000000000E+00  0.24813321509E+03  0.24813321510E+03  0.25500000000E-02 0. -1.
          2   -1    0    0  501    0  0.00000000000E+00 -0.00000000000E+00 -0.17917735936E+04  0.17917735936E+04  0.25500000000E-02 0.  1.
     200001    2    1    2    0    0  0.16450102088E+03  0.16981875086E+03 -0.60088488142E+03  0.89079588225E+03  0.61364131958E+03 0.  0.
    5000001    2    3    3    0    0  0.17618322224E+03  0.95559943817E+02  0.57922012758E+02  0.22006615422E+03  0.70013727288E+02 0.  0.
        -13    1    4    4    0    0  0.78446125734E+02  0.44944661992E+02 -0.35470090211E+01  0.90478780502E+02  0.10566000000E+00 0. -1.
     200003    1    4    4    0    0  0.97737096504E+02  0.50615281825E+02  0.61469021779E+02  0.12958737371E+03  0.30000000000E+02 0. -1.
     200000    1    3    3    0    0 -0.11682201355E+02  0.74258807045E+02 -0.65880689418E+03  0.67072972803E+03  0.10100000000E+03 0.  1.
    -200001    1    1    2    0    0 -0.16450102088E+03 -0.16981875086E+03 -0.94275549711E+03  0.11491109265E+04  0.61300000000E+03 0.  1.
<mgrwt>
<rscale>  0 0.13335645E+04</rscale>
<asrwt>0</asrwt>
<pdfrwt beam="1">  1        2 0.25596765E+00 0.13335645E+04</pdfrwt>
<pdfrwt beam="2">  1       -2 0.35447603E-01 0.13335645E+04</pdfrwt>
<totfact> 0.75162487E+01</totfact>
</mgrwt>
</event>
<event>
 8    1  0.7583103E-052  0.1238697E+04  0.7818608E-02  0.9079643E-01
          2   -1    0    0  501    0  0.00000000000E+00  0.00000000000E+00  0.17584753531E+04  0.17584753531E+04  0.25500000000E-02 0.  1.
         -2   -1    0    0    0  501 -0.00000000000E+00 -0.00000000000E+00 -0.21813941604E+03  0.21813941606E+03  0.25500000000E-02 0. -1.
     200001    2    1    2    0    0  0.32497371966E+02 -0.78151830877E+02  0.81205493472E+03  0.10209338568E+04  0.61295100550E+03 0.  0.
    5000001    2    3    3    0    0  0.27291157672E+03 -0.21531042536E+02  0.64703866745E+03  0.70718830390E+03  0.80696626285E+02 0.  0.
        -13    1    4    4    0    0  0.14219751964E+02  0.15312182525E+02  0.31392714111E+02  0.37711774592E+02  0.10566000000E+00 0. -1.
     200003    1    4    4    0    0  0.25869182475E+03 -0.36843225060E+02  0.61564595334E+03  0.66947652930E+03  0.30000000000E+02 0. -1.
     200000    1    3    3    0    0 -0.24041420475E+03 -0.56620788341E+02  0.16501626727E+03  0.31374555293E+03  0.10100000000E+03 0. -1.
    -200001    1    1    2    0    0 -0.32497371966E+02  0.78151830877E+02  0.72828100235E+03  0.95568091235E+03  0.61300000000E+03 0.  1.
<mgrwt>
<rscale>  0 0.12386974E+04</rscale>
<asrwt>0</asrwt>
<pdfrwt beam="1">  1        2 0.25121076E+00 0.12386974E+04</pdfrwt>
<pdfrwt beam="2">  1       -2 0.31162774E-01 0.12386974E+04</pdfrwt>
<totfact> 0.10048324E+02</totfact>
</mgrwt>
</event>
<event>
 8    1  0.7583103E-052  0.1350778E+04  0.7818608E-02  0.8990239E-01
          2   -1    0    0  501    0  0.00000000000E+00  0.00000000000E+00  0.20169404084E+04  0.20169404084E+04  0.25500000000E-02 0.  1.
         -2   -1    0    0    0  501 -0.00000000000E+00 -0.00000000000E+00 -0.22615948697E+03  0.22615948699E+03  0.25500000000E-02 0. -1.
     200001    2    1    2    0    0  0.26969725834E+02 -0.28299159779E+03  0.93367081258E+03  0.11516703973E+04  0.61138523641E+03 0.  0.
    5000001    2    3    3    0    0 -0.17009968816E+03 -0.53094403228E+02  0.75457113093E+03  0.78565568456E+03  0.12698166594E+03 0.  0.
        -13    1    4    4    0    0  0.55575635825E+01 -0.34822362192E+02  0.75086311498E+02  0.82954498130E+02  0.10566000000E+00 0. -1.
     200003    1    4    4    0    0 -0.17565725174E+03 -0.18272041036E+02  0.67948481944E+03  0.70270118643E+03  0.30000000000E+02 0. -1.
     200000    1    3    3    0    0  0.19706941399E+03 -0.22989719456E+03  0.17909968165E+03  0.36601471277E+03  0.10100000000E+03 0. -1.
    -200001    1    1    2    0    0 -0.26969725834E+02  0.28299159779E+03  0.85711010882E+03  0.10914294980E+04  0.61300000000E+03 0.  1.
<mgrwt>
<rscale>  0 0.13507779E+04</rscale>
<asrwt>0</asrwt>
<pdfrwt beam="1">  1        2 0.28813431E+00 0.13507779E+04</pdfrwt>
<pdfrwt beam="2">  1       -2 0.32308502E-01 0.13507779E+04</pdfrwt>
<totfact> 0.68574666E+01</totfact>
</mgrwt>
</event>
<event>
 8    1  0.7583103E-052  0.3014114E+04  0.7818608E-02  0.8239712E-01
         -2   -1    0    0    0  501 -0.00000000000E+00  0.00000000000E+00  0.15732293712E+04  0.15732293712E+04  0.25500000000E-02 0. -1.
          2   -1    0    0  501    0  0.00000000000E+00 -0.00000000000E+00 -0.14436682081E+04  0.14436682081E+04  0.25500000000E-02 0.  1.
     200001    2    1    2    0    0 -0.12656290235E+04  0.21697581908E+03 -0.43310305371E+03  0.14867814556E+04  0.61159260168E+03 0.  0.
    5000001    2    3    3    0    0 -0.51914356784E+03  0.33504785788E+03 -0.50116709174E+02  0.63351650148E+03  0.13063063196E+03 0.  0.
        -13    1    4    4    0    0 -0.12184682515E+03  0.13739423648E+03  0.13931879954E+02  0.18416822055E+03  0.10566000000E+00 0. -1.
     200003    1    4    4    0    0 -0.39729674269E+03  0.19765362140E+03 -0.64048589128E+02  0.44934828093E+03  0.30000000000E+02 0. -1.
     200000    1    3    3    0    0 -0.74648545566E+03 -0.11807203880E+03 -0.38298634454E+03  0.85326495414E+03  0.10100000000E+03 0.  1.
    -200001    1    1    2    0    0  0.12656290235E+04 -0.21697581908E+03  0.56266421680E+03  0.15301161237E+04  0.61300000000E+03 0. -1.
<mgrwt>
<rscale>  0 0.30141143E+04</rscale>
<asrwt>0</asrwt>
<pdfrwt beam="1">  1        2 0.20623831E+00 0.30141143E+04</pdfrwt>
<pdfrwt beam="2">  1       -2 0.22474706E+00 0.30141143E+04</pdfrwt>
<totfact> 0.12452777E+00</totfact>
</mgrwt>
</event>
<event>
 8    1  0.7583103E-052  0.1570839E+04  0.7818608E-02  0.8838666E-01
          2   -1    0    0  501    0  0.00000000000E+00  0.00000000000E+00  0.60056673491E+03  0.60056673491E+03  0.25500000000E-02 0.  1.
         -2   -1    0    0    0  501 -0.00000000000E+00 -0.00000000000E+00 -0.10271691316E+04  0.10271691316E+04  0.25500000000E-02 0. -1.
     200001    2    1    2    0    0 -0.27542027711E+03 -0.38033185803E+03 -0.65631502081E+02  0.77534063071E+03  0.61346307817E+03 0.  0.
    5000001    2    3    3    0    0  0.93142841591E+02 -0.37395492438E+03 -0.25054393011E+02  0.39098800676E+03  0.61041169822E+02 0.  0.
        -13    1    4    4    0    0  0.61905772553E+02 -0.22209627758E+03  0.31027434579E+01  0.23058343256E+03  0.10566000000E+00 0. -1.
     200003    1    4    4    0    0  0.31237069038E+02 -0.15185864680E+03 -0.28157136469E+02  0.16040457420E+03  0.30000000000E+02 0. -1.
     200000    1    3    3    0    0 -0.36856311871E+03 -0.63769336506E+01 -0.40577109070E+02  0.38435262395E+03  0.10100000000E+03 0. -1.
    -200001    1    1    2    0    0  0.27542027711E+03  0.38033185803E+03 -0.36097089462E+03  0.85239523582E+03  0.61300000000E+03 0. -1.
<mgrwt>
<rscale>  0 0.15708388E+04</rscale>
<asrwt>0</asrwt>
<pdfrwt beam="1">  1        2 0.85795249E-01 0.15708388E+04</pdfrwt>
<pdfrwt beam="2">  1       -2 0.14673845E+00 0.15708388E+04</pdfrwt>
<totfact> 0.16569023E+01</totfact>
</mgrwt>
</event>
<event>
 8    1  0.7583103E-052  0.1427520E+04  0.7818608E-02  0.8934135E-01
          2   -1    0    0  501    0  0.00000000000E+00  0.00000000000E+00  0.11928275021E+04  0.11928275021E+04  0.25500000000E-02 0.  1.
         -2   -1    0    0    0  501 -0.00000000000E+00 -0.00000000000E+00 -0.42709739469E+03  0.42709739470E+03  0.25500000000E-02 0. -1.
     200001    2    1    2    0    0  0.22417538985E+03 -0.20655094882E+03  0.15140842224E+03  0.70009989564E+03  0.61179854010E+03 0.  0.
    5000001    2    3    3    0    0  0.25632531029E+03 -0.36365427043E+03 -0.69141143144E+01  0.45315436191E+03  0.85755335949E+02 0.  0.
        -13    1    4    4    0    0  0.68088533027E+02 -0.49209390414E+02  0.12501856448E+02  0.84934798601E+02  0.10566000000E+00 0. -1.
     200003    1    4    4    0    0  0.18823677726E+03 -0.31444488002E+03 -0.19415970762E+02  0.36821956331E+03  0.30000000000E+02 0. -1.
     200000    1    3    3    0    0 -0.32149920440E+02  0.15710332161E+03  0.15832253656E+03  0.24694553373E+03  0.10100000000E+03 0.  1.
    -200001    1    1    2    0    0 -0.22417538985E+03  0.20655094882E+03  0.61432168513E+03  0.91982500112E+03  0.61300000000E+03 0. -1.
<mgrwt>
<rscale>  0 0.14275203E+04</rscale>
<asrwt>0</asrwt>
<pdfrwt beam="1">  1        2 0.17040393E+00 0.14275203E+04</pdfrwt>
<pdfrwt beam="2">  1       -2 0.61013913E-01 0.14275203E+04</pdfrwt>
<totfact> 0.52450747E+01</totfact>
</mgrwt>
</event>
<event>
 8    1  0.7583103E-052  0.1263322E+04  0.7818608E-02  0.9059167E-01
          2   -1    0    0  501    0  0.00000000000E+00  0.00000000000E+00  0.93122458214E+03  0.93122458215E+03  0.25500000000E-02 0.  1.
         -2   -1    0    0    0  501 -0.00000000000E+00 -0.00000000000E+00 -0.42846361131E+03  0.42846361132E+03  0.25500000000E-02 0. -1.
     200001    2    1    2    0    0  0.25373470935E+02 -0.10027057039E+03  0.12912516312E+03  0.63438086749E+03  0.61242777286E+03 0.  0.
    5000001    2    3    3    0    0 -0.24566268933E+03 -0.18315935368E+03  0.10064021619E+03  0.33214992473E+03  0.79357505082E+02 0.  0.
        -13    1    4    4    0    0 -0.20658160701E+02 -0.30338375845E+02  0.35057157742E+02  0.50756202827E+02  0.10566000000E+00 0. -1.
     200003    1    4    4    0    0 -0.22500452862E+03 -0.15282097784E+03  0.65583058449E+02  0.28139372190E+03  0.30000000000E+02 0. -1.
     200000    1    3    3    0    0  0.27103616026E+03  0.82888783289E+02  0.28484946933E+02  0.30223094277E+03  0.10100000000E+03 0.  1.
    -200001    1    1    2    0    0 -0.25373470935E+02  0.10027057039E+03  0.37363580770E+03  0.72530732597E+03  0.61300000000E+03 0.  1.
<mgrwt>
<rscale>  0 0.12633224E+04</rscale>
<asrwt>0</asrwt>
<pdfrwt beam="1">  1        2 0.13303208E+00 0.12633224E+04</pdfrwt>
<pdfrwt beam="2">  1       -2 0.61209088E-01 0.12633224E+04</pdfrwt>
<totfact> 0.75780421E+01</totfact>
</mgrwt>
</event>
<event>
 8    1  0.7583103E-052  0.1517248E+04  0.7818608E-02  0.8873064E-01
         -2   -1    0    0    0  501 -0.00000000000E+00  0.00000000000E+00  0.35522781123E+03  0.35522781124E+03  0.25500000000E-02 0. -1.
          2   -1    0    0  501    0  0.00000000000E+00 -0.00000000000E+00 -0.16201164464E+04  0.16201164464E+04  0.25500000000E-02 0.  1.
     200001    2    1    2    0    0  0.67473335160E+02 -0.43344166437E+03 -0.73692930250E+03  0.10550538772E+04  0.61453198418E+03 0.  0.
    5000001    2    3    3    0    0 -0.15556991383E+03 -0.18314560664E+02 -0.17501879642E+00  0.17466380588E+03  0.77265731289E+02 0.  0.
        -13    1    4    4    0    0 -0.10463027320E+03 -0.39492783302E+02 -0.17159703960E+01  0.11184869119E+03  0.10566000000E+00 0. -1.
     200003    1    4    4    0    0 -0.50939640637E+02  0.21178222637E+02  0.15409515996E+01  0.62815114695E+02  0.30000000000E+02 0. -1.
     200000    1    3    3    0    0  0.22304324899E+03 -0.41512710370E+03 -0.73675428370E+03  0.88039007134E+03  0.10100000000E+03 0.  1.
    -200001    1    1    2    0    0 -0.67473335160E+02  0.43344166437E+03 -0.52795933270E+03  0.92029038045E+03  0.61300000000E+03 0.  1.
<mgrwt>
<rscale>  0 0.15172481E+04</rscale>
<asrwt>0</asrwt>
<pdfrwt beam="1">  1        2 0.23144520E+00 0.15172481E+04</pdfrwt>
<pdfrwt beam="2">  1       -2 0.50746831E-01 0.15172481E+04</pdfrwt>
<totfact> 0.44798866E+01</totfact>
</mgrwt>
</event>
<event>
 8    1  0.7583103E-052  0.1286355E+04  0.7818608E-02  0.9040456E-01
          2   -1    0    0  501    0  0.00000000000E+00  0.00000000000E+00  0.16247248040E+04  0.16247248040E+04  0.25500000000E-02 0.  1.
         -2   -1    0    0    0  501 -0.00000000000E+00 -0.00000000000E+00 -0.25461394494E+03  0.25461394495E+03  0.25500000000E-02 0. -1.
     200001    2    1    2    0    0 -0.29847308857E+02 -0.14044399515E+03  0.87844394264E+03  0.10805141535E+04  0.61256158702E+03 0.  0.
    5000001    2    3    3    0    0 -0.24490076576E+02  0.31901148279E+02  0.24739991454E+02  0.20373425826E+03  0.19818711789E+03 0.  0.
        -13    1    4    4    0    0 -0.47200921675E+02  0.80407815633E+02  0.78691034992E+02  0.12200669643E+03  0.10566000000E+00 0. -1.
     200003    1    4    4    0    0  0.22710845099E+02 -0.48506667354E+02 -0.53951043538E+02  0.81727561824E+02  0.30000000000E+02 0. -1.
     200000    1    3    3    0    0 -0.53572322809E+01 -0.17234514343E+03  0.85370395119E+03  0.87677989523E+03  0.10100000000E+03 0.  1.
    -200001    1    1    2    0    0  0.29847308857E+02  0.14044399515E+03  0.49166691642E+03  0.79882459546E+03  0.61300000000E+03 0. -1.
<mgrwt>
<rscale>  0 0.12863555E+04</rscale>
<asrwt>0</asrwt>
<pdfrwt beam="1">  1        2 0.23210355E+00 0.12863555E+04</pdfrwt>
<pdfrwt beam="2">  1       -2 0.36373420E-01 0.12863555E+04</pdfrwt>
<totfact> 0.87643647E+01</totfact>
</mgrwt>
</event>
<event>
 8    1  0.7583103E-052  0.1439168E+04  0.7818608E-02  0.8925945E-01
         -2   -1    0    0    0  501 -0.00000000000E+00  0.00000000000E+00  0.25189454656E+03  0.25189454657E+03  0.25500000000E-02 0. -1.
          2   -1    0    0  501    0  0.00000000000E+00 -0.00000000000E+00 -0.20556272923E+04  0.20556272923E+04  0.25500000000E-02 0.  1.
     200001    2    1    2    0    0 -0.72764549054E+02 -0.31005907119E+03 -0.57999488935E+03  0.90226931766E+03  0.61340406152E+03 0.  0.
    5000001    2    3    3    0    0  0.75131909848E+02 -0.76546626541E+02  0.78728606383E+02  0.18079924330E+03  0.12241724961E+03 0.  0.
        -13    1    4    4    0    0  0.25893688022E+02 -0.65111507682E+02  0.96621670112E+02  0.11935556045E+03  0.10566000000E+00 0. -1.
     200003    1    4    4    0    0  0.49238221826E+02 -0.11435118859E+02 -0.17893063729E+02  0.61443682845E+02  0.30000000000E+02 0. -1.
     200000    1    3    3    0    0 -0.14789645890E+03 -0.23351244465E+03 -0.65872349573E+03  0.72147007436E+03  0.10100000000E+03 0.  1.
    -200001    1    1    2    0    0  0.72764549054E+02  0.31005907119E+03 -0.12237378564E+04  0.14052525213E+04  0.61300000000E+03 0. -1.
<mgrwt>
<rscale>  0 0.14391682E+04</rscale>
<asrwt>0</asrwt>
<pdfrwt beam="1">  1        2 0.29366103E+00 0.14391682E+04</pdfrwt>
<pdfrwt beam="2">  1       -2 0.35984936E-01 0.14391682E+04</pdfrwt>
<totfact> 0.53009028E+01</totfact>
</mgrwt>
</event>
<event>
 8    1  0.7583103E-052  0.1819807E+04  0.7818608E-02  0.8695836E-01
          2   -1    0    0  501    0  0.00000000000E+00  0.00000000000E+00  0.97141311218E+03  0.97141311219E+03  0.25500000000E-02 0.  1.
         -2   -1    0    0    0  501 -0.00000000000E+00 -0.00000000000E+00 -0.85228905539E+03  0.85228905539E+03  0.25500000000E-02 0. -1.
     200001    2    1    2    0    0  0.50842074047E+03 -0.39725137449E+03  0.25240682301E+03  0.92379461697E+03  0.61105399612E+03 0.  0.
    5000001    2    3    3    0    0  0.30951447363E+03 -0.23190052497E+03  0.43930545710E+03  0.58907577100E+03  0.66662706812E+02 0.  0.
        -13    1    4    4    0    0  0.23930565985E+03 -0.17801591391E+03  0.34957800214E+03  0.45952329123E+03  0.10566000000E+00 0. -1.
     200003    1    4    4    0    0  0.70208813781E+02 -0.53884611064E+02  0.89727454962E+02  0.12955247978E+03  0.30000000000E+02 0.  1.
     200000    1    3    3    0    0  0.19890626683E+03 -0.16535084952E+03 -0.18689863409E+03  0.33471884597E+03  0.10100000000E+03 0.  1.
    -200001    1    1    2    0    0 -0.50842074047E+03  0.39725137449E+03 -0.13328276622E+03  0.89990755061E+03  0.61300000000E+03 0. -1.
<mgrwt>
<rscale>  0 0.18198074E+04</rscale>
<asrwt>0</asrwt>
<pdfrwt beam="1">  1        2 0.13877330E+00 0.18198074E+04</pdfrwt>
<pdfrwt beam="2">  1       -2 0.12175558E+00 0.18198074E+04</pdfrwt>
<totfact> 0.14171673E+01</totfact>
</mgrwt>
</event>
<event>
 8    1  0.7583103E-052  0.1292478E+04  0.7818608E-02  0.9035551E-01
         -2   -1    0    0    0  501 -0.00000000000E+00  0.00000000000E+00  0.60275531699E+03  0.60275531699E+03  0.25500000000E-02 0. -1.
          2   -1    0    0  501    0  0.00000000000E+00 -0.00000000000E+00 -0.69285995185E+03  0.69285995185E+03  0.25500000000E-02 0.  1.
     200001    2    1    2    0    0  0.89149424544E+02 -0.17533425394E+03 -0.10713619522E+03  0.65160533527E+03  0.61190001480E+03 0.  0.
    5000001    2    3    3    0    0  0.13453340645E+03 -0.50567170888E+02  0.22242470025E+03  0.28223030274E+03  0.97595698057E+02 0.  0.
        -13    1    4    4    0    0  0.11358333327E+03 -0.33569996967E+01  0.13696526707E+03  0.17796611642E+03  0.10566000000E+00 0. -1.
     200003    1    4    4    0    0  0.20950073180E+02 -0.47210171191E+02  0.85459433178E+02  0.10426418632E+03  0.30000000000E+02 0. -1.
     200000    1    3    3    0    0 -0.45383981911E+02 -0.12476708305E+03 -0.32956089547E+03  0.36937503253E+03  0.10100000000E+03 0.  1.
    -200001    1    1    2    0    0 -0.89149424544E+02  0.17533425394E+03  0.17031560363E+02  0.64400993358E+03  0.61300000000E+03 0.  1.
<mgrwt>
<rscale>  0 0.12924783E+04</rscale>
<asrwt>0</asrwt>
<pdfrwt beam="1">  1        2 0.98979993E-01 0.12924783E+04</pdfrwt>
<pdfrwt beam="2">  1       -2 0.86107903E-01 0.12924783E+04</pdfrwt>
<totfact> 0.52377430E+01</totfact>
</mgrwt>
</event>
<event>
 8    1  0.7583103E-052  0.1346872E+04  0.7818608E-02  0.8993199E-01
          2   -1    0    0  501    0  0.00000000000E+00  0.00000000000E+00  0.87994009034E+03  0.87994009034E+03  0.25500000000E-02 0.  1.
         -2   -1    0    0    0  501 -0.00000000000E+00 -0.00000000000E+00 -0.51539439782E+03  0.51539439783E+03  0.25500000000E-02 0. -1.
     200001    2    1    2    0    0 -0.20111669247E+02 -0.13649886356E+03 -0.67094239961E+02  0.63302323265E+03  0.61415010953E+03 0.  0.
    5000001    2    3    3    0    0  0.12210558132E+03  0.11847378913E+03  0.16389351818E+03  0.24728608848E+03  0.73099333474E+02 0.  0.
        -13    1    4    4    0    0  0.10081472930E+03  0.71694973986E+02  0.12686171071E+03  0.17719391566E+03  0.10566000000E+00 0. -1.
     200003    1    4    4    0    0  0.21290852015E+02  0.46778815149E+02  0.37031807472E+02  0.70092172822E+02  0.30000000000E+02 0. -1.
     200000    1    3    3    0    0 -0.14221725056E+03 -0.25497265269E+03 -0.23098775814E+03  0.38573714417E+03  0.10100000000E+03 0. -1.
    -200001    1    1    2    0    0  0.20111669247E+02  0.13649886356E+03  0.43163993247E+03  0.76231125552E+03  0.61300000000E+03 0.  1.
<mgrwt>
<rscale>  0 0.13468722E+04</rscale>
<asrwt>0</asrwt>
<pdfrwt beam="1">  1        2 0.12570573E+00 0.13468722E+04</pdfrwt>
<pdfrwt beam="2">  1       -2 0.73627772E-01 0.13468722E+04</pdfrwt>
<totfact> 0.54567168E+01</totfact>
</mgrwt>
</event>
<event>
 8    1  0.7583103E-052  0.1934577E+04  0.7818608E-02  0.8637834E-01
         -2   -1    0    0    0  501 -0.00000000000E+00  0.00000000000E+00  0.35145920169E+03  0.35145920170E+03  0.25500000000E-02 0. -1.
          2   -1    0    0  501    0  0.00000000000E+00 -0.00000000000E+00 -0.26621768906E+04  0.26621768906E+04  0.25500000000E-02 0.  1.
     200001    2    1    2    0    0  0.61467323970E+03 -0.42648263545E+03 -0.11309229935E+04  0.14880558246E+04  0.61287249072E+03 0.  0.
    5000001    2    3    3    0    0  0.59182553947E+03 -0.50734279465E+03 -0.74793012271E+03  0.10831546986E+04  0.78552225575E+02 0.  0.
        -13    1    4    4    0    0  0.24237508937E+03 -0.24970071367E+03 -0.31782688478E+03  0.47128555060E+03  0.10566000000E+00 0. -1.
     200003    1    4    4    0    0  0.34945045009E+03 -0.25764208099E+03 -0.43010323793E+03  0.61186914797E+03  0.30000000000E+02 0. -1.
     200000    1    3    3    0    0  0.22847700233E+02  0.80860159203E+02 -0.38299287083E+03  0.40490112603E+03  0.10100000000E+03 0.  1.
    -200001    1    1    2    0    0 -0.61467323970E+03  0.42648263545E+03 -0.11797946953E+04  0.15255802677E+04  0.61300000000E+03 0.  1.
<mgrwt>
<rscale>  0 0.19345765E+04</rscale>
<asrwt>0</asrwt>
<pdfrwt beam="1">  1        2 0.38031097E+00 0.19345765E+04</pdfrwt>
<pdfrwt beam="2">  1       -2 0.50208459E-01 0.19345765E+04</pdfrwt>
<totfact> 0.12710471E+01</totfact>
</mgrwt>
</event>
<event>
 8    1  0.7583103E-052  0.1347579E+04  0.7818608E-02  0.8992663E-01
         -2   -1    0    0    0  501 -0.00000000000E+00  0.00000000000E+00  0.66164111366E+03  0.66164111367E+03  0.25500000000E-02 0. -1.
          2   -1    0    0  501    0  0.00000000000E+00 -0.00000000000E+00 -0.68616075966E+03  0.68616075966E+03  0.25500000000E-02 0.  1.
     200001    2    1    2    0    0 -0.25856393808E+03 -0.91946894608E+02  0.42823227776E+02  0.67281031475E+03  0.61280531109E+03 0.  0.
    5000001    2    3    3    0    0 -0.67544010329E+02  0.18009085610E+03 -0.99477543051E+02  0.29738567519E+03  0.20383215756E+03 0.  0.
        -13    1    4    4    0    0  0.34655737982E+02 -0.23131843053E+02 -0.45466276565E+02  0.61670866759E+02  0.10566000000E+00 0. -1.
     200003    1    4    4    0    0 -0.10219974831E+03  0.20322269916E+03 -0.54011266485E+02  0.23571480843E+03  0.30000000000E+02 0. -1.
     200000    1    3    3    0    0 -0.19101992775E+03 -0.27203775071E+03  0.14230077083E+03  0.37542463956E+03  0.10100000000E+03 0. -1.
    -200001    1    1    2    0    0  0.25856393808E+03  0.91946894608E+02 -0.67342873769E+02  0.67499155858E+03  0.61300000000E+03 0. -1.
<mgrwt>
<rscale>  0 0.13475788E+04</rscale>
<asrwt>0</asrwt>
<pdfrwt beam="1">  1        2 0.98022966E-01 0.13475788E+04</pdfrwt>
<pdfrwt beam="2">  1       -2 0.94520159E-01 0.13475788E+04</pdfrwt>
<totfact> 0.42578601E+01</totfact>
</mgrwt>
</event>
<event>
 8    1  0.7583103E-052  0.1950794E+04  0.7818608E-02  0.8629978E-01
         -2   -1    0    0    0  501 -0.00000000000E+00  0.00000000000E+00  0.50376131039E+03  0.50376131039E+03  0.25500000000E-02 0. -1.
          2   -1    0    0  501    0  0.00000000000E+00 -0.00000000000E+00 -0.18885915779E+04  0.18885915779E+04  0.25500000000E-02 0.  1.
     200001    2    1    2    0    0  0.45893747408E+03  0.50947755913E+03 -0.10907255435E+04  0.14267144585E+04  0.61289554296E+03 0.  0.
    5000001    2    3    3    0    0  0.18770809158E+03  0.16259143618E+03 -0.95809209612E+02  0.33403203822E+03  0.20181103823E+03 0.  0.
        -13    1    4    4    0    0 -0.38840537071E+02  0.70249139285E+01 -0.30733282883E+02  0.50024819604E+02  0.10566000000E+00 0. -1.
     200003    1    4    4    0    0  0.22654862865E+03  0.15556652225E+03 -0.65075926729E+02  0.28400721862E+03  0.30000000000E+02 0. -1.
     200000    1    3    3    0    0  0.27122938250E+03  0.34688612295E+03 -0.99491633387E+03  0.10926824203E+04  0.10100000000E+03 0. -1.
    -200001    1    1    2    0    0 -0.45893747408E+03 -0.50947755913E+03 -0.29410472405E+03  0.96563842979E+03  0.61300000000E+03 0.  1.
<mgrwt>
<rscale>  0 0.19507941E+04</rscale>
<asrwt>0</asrwt>
<pdfrwt beam="1">  1        2 0.26979879E+00 0.19507941E+04</pdfrwt>
<pdfrwt beam="2">  1       -2 0.71965902E-01 0.19507941E+04</pdfrwt>
<totfact> 0.14996791E+01</totfact>
</mgrwt>
</event>
<event>
 8    1  0.7583103E-052  0.1674892E+04  0.7818608E-02  0.8775815E-01
          2   -1    0    0  501    0  0.00000000000E+00  0.00000000000E+00  0.16702122222E+04  0.16702122222E+04  0.25500000000E-02 0.  1.
         -2   -1    0    0    0  501 -0.00000000000E+00 -0.00000000000E+00 -0.41989643445E+03  0.41989643446E+03  0.25500000000E-02 0. -1.
     200001    2    1    2    0    0 -0.41562800654E+03 -0.38983551465E+03  0.62739580263E+03  0.10467886309E+04  0.61434727661E+03 0.  0.
    5000001    2    3    3    0    0 -0.39653582632E+03 -0.43527372204E+01  0.16816934912E+03  0.43847011345E+03  0.81948169780E+02 0.  0.
        -13    1    4    4    0    0 -0.28458151529E+03 -0.30039853292E+02  0.11543237236E+03  0.30856713270E+03  0.10566000000E+00 0. -1.
     200003    1    4    4    0    0 -0.11195431104E+03  0.25687116071E+02  0.52736976759E+02  0.12990298076E+03  0.30000000000E+02 0. -1.
     200000    1    3    3    0    0 -0.19092180218E+02 -0.38548277743E+03  0.45922645351E+03  0.60831851742E+03  0.10100000000E+03 0.  1.
    -200001    1    1    2    0    0  0.41562800654E+03  0.38983551465E+03  0.62291998510E+03  0.10433200258E+04  0.61300000000E+03 0. -1.
<mgrwt>
<rscale>  0 0.16748924E+04</rscale>
<asrwt>0</asrwt>
<pdfrwt beam="1">  1        2 0.23860175E+00 0.16748924E+04</pdfrwt>
<pdfrwt beam="2">  1       -2 0.59985205E-01 0.16748924E+04</pdfrwt>
<totfact> 0.29437634E+01</totfact>
</mgrwt>
</event>
<event>
 8    1  0.7583103E-052  0.1922261E+04  0.7818608E-02  0.8643854E-01
         -2   -1    0    0    0  501 -0.00000000000E+00  0.00000000000E+00  0.30219461529E+03  0.30219461530E+03  0.25500000000E-02 0. -1.
          2   -1    0    0  501    0  0.00000000000E+00 -0.00000000000E+00 -0.30568763165E+04  0.30568763165E+04  0.25500000000E-02 0.  1.
     200001    2    1    2    0    0  0.45966824221E+03  0.49614772350E+03 -0.85131608615E+03  0.12481405395E+04  0.61290967643E+03 0.  0.
    5000001    2    3    3    0    0  0.45498696771E+03  0.60214837214E+03 -0.76063333440E+03  0.10758546919E+04  0.96459554954E+02 0.  0.
        -13    1    4    4    0    0  0.72641139247E+02  0.58712564444E+02 -0.12305614691E+03  0.15448859761E+03  0.10566000000E+00 0. -1.
     200003    1    4    4    0    0  0.38234582846E+03  0.54343580770E+03 -0.63757718749E+03  0.92136609425E+03  0.30000000000E+02 0. -1.
     200000    1    3    3    0    0  0.46812745038E+01 -0.10600064864E+03 -0.90682751746E+02  0.17228584767E+03  0.10100000000E+03 0.  1.
    -200001    1    1    2    0    0 -0.45966824221E+03 -0.49614772350E+03 -0.19033656151E+04  0.21109303923E+04  0.61300000000E+03 0.  1.
<mgrwt>
<rscale>  0 0.19222607E+04</rscale>
<asrwt>0</asrwt>
<pdfrwt beam="1">  1        2 0.43669660E+00 0.19222607E+04</pdfrwt>
<pdfrwt beam="2">  1       -2 0.43170661E-01 0.19222607E+04</pdfrwt>
<totfact> 0.10471498E+01</totfact>
</mgrwt>
</event>
<event>
 8    1  0.7583103E-052  0.1904332E+04  0.7818608E-02  0.8652703E-01
          2   -1    0    0  501    0  0.00000000000E+00  0.00000000000E+00  0.14203306859E+04  0.14203306859E+04  0.25500000000E-02 0.  1.
         -2   -1    0    0    0  501 -0.00000000000E+00 -0.00000000000E+00 -0.63831648829E+03  0.63831648829E+03  0.25500000000E-02 0. -1.
     200001    2    1    2    0    0  0.22590949463E+03  0.61406945044E+03  0.44159450452E+02  0.89747749768E+03  0.61269846747E+03 0.  0.
    5000001    2    3    3    0    0  0.53439666423E+02 -0.59743129263E+02  0.14589435489E+03  0.18732242659E+03  0.85903953758E+02 0.  0.
        -13    1    4    4    0    0  0.20745032156E+02 -0.41943327673E+01  0.10110033670E+03  0.10329200372E+03  0.10566000000E+00 0. -1.
     200003    1    4    4    0    0  0.32694634267E+02 -0.55548796495E+02  0.44794018189E+02  0.84030422868E+02  0.30000000000E+02 0. -1.
     200000    1    3    3    0    0  0.17246982821E+03  0.67381257971E+03 -0.10173490444E+03  0.71015507109E+03  0.10100000000E+03 0. -1.
    -200001    1    1    2    0    0 -0.22590949463E+03 -0.61406945044E+03  0.73785474713E+03  0.11611696765E+04  0.61300000000E+03 0.  1.
<mgrwt>
<rscale>  0 0.19043324E+04</rscale>
<asrwt>0</asrwt>
<pdfrwt beam="1">  1        2 0.20290438E+00 0.19043324E+04</pdfrwt>
<pdfrwt beam="2">  1       -2 0.91188071E-01 0.19043324E+04</pdfrwt>
<totfact> 0.15541003E+01</totfact>
</mgrwt>
</event>
<event>
 8    1  0.7583103E-052  0.1370116E+04  0.7818608E-02  0.8975739E-01
         -2   -1    0    0    0  501 -0.00000000000E+00  0.00000000000E+00  0.14307768234E+03  0.14307768237E+03  0.25500000000E-02 0. -1.
          2   -1    0    0  501    0  0.00000000000E+00 -0.00000000000E+00 -0.32800688490E+04  0.32800688490E+04  0.25500000000E-02 0.  1.
     200001    2    1    2    0    0 -0.57892804477E+02 -0.21732638620E+03 -0.20875313360E+04  0.21871379266E+04  0.61253807729E+03 0.  0.
    5000001    2    3    3    0    0 -0.54221382764E+02 -0.41654625384E+03 -0.14382811253E+04  0.15005311461E+04  0.80562924854E+02 0.  0.
        -13    1    4    4    0    0 -0.11835146227E+02 -0.18932664259E+02 -0.13892556766E+03  0.14070835433E+03  0.10566000000E+00 0. -1.
     200003    1    4    4    0    0 -0.42386236537E+02 -0.39761358958E+03 -0.12993555577E+04  0.13598227917E+04  0.30000000000E+02 0. -1.
     200000    1    3    3    0    0 -0.36714217126E+01  0.19921986764E+03 -0.64925021066E+03  0.68660678051E+03  0.10100000000E+03 0.  1.
    -200001    1    1    2    0    0  0.57892804477E+02  0.21732638620E+03 -0.10494598306E+04  0.12360086048E+04  0.61300000000E+03 0. -1.
<mgrwt>
<rscale>  0 0.13701163E+04</rscale>
<asrwt>0</asrwt>
<pdfrwt beam="1">  1        2 0.46858122E+00 0.13701163E+04</pdfrwt>
<pdfrwt beam="2">  1       -2 0.20439671E-01 0.13701163E+04</pdfrwt>
<totfact> 0.33069788E+01</totfact>
</mgrwt>
</event>
<event>
 8    1  0.7583103E-052  0.1287616E+04  0.7818608E-02  0.9039444E-01
         -2   -1    0    0    0  501 -0.00000000000E+00  0.00000000000E+00  0.20647150975E+03  0.20647150977E+03  0.25500000000E-02 0. -1.
          2   -1    0    0  501    0  0.00000000000E+00 -0.00000000000E+00 -0.20074871458E+04  0.20074871458E+04  0.25500000000E-02 0.  1.
     200001    2    1    2    0    0 -0.16346963727E+03  0.33138373105E+02 -0.72638045532E+03  0.96558761868E+03  0.61393029686E+03 0.  0.
    5000001    2    3    3    0    0  0.63744339273E+02  0.56595082915E+02 -0.67936981228E+03  0.71144708880E+03  0.19325442845E+03 0.  0.
        -13    1    4    4    0    0  0.19829503074E+02 -0.69777301333E+02 -0.19538112689E+03  0.20841275605E+03  0.10566000000E+00 0. -1.
     200003    1    4    4    0    0  0.43914836200E+02  0.12637238425E+03 -0.48398868539E+03  0.50303433275E+03  0.30000000000E+02 0. -1.
     200000    1    3    3    0    0 -0.22721397654E+03 -0.23456709810E+02 -0.47010643035E+02  0.25414052989E+03  0.10100000000E+03 0. -1.
    -200001    1    1    2    0    0  0.16346963727E+03 -0.33138373105E+02 -0.10746351808E+04  0.12483710369E+04  0.61300000000E+03 0.  1.
<mgrwt>
<rscale>  0 0.12876163E+04</rscale>
<asrwt>0</asrwt>
<pdfrwt beam="1">  1        2 0.28678387E+00 0.12876163E+04</pdfrwt>
<pdfrwt beam="2">  1       -2 0.29495931E-01 0.12876163E+04</pdfrwt>
<totfact> 0.82618642E+01</totfact>
</mgrwt>
</event>
<event>
 8    1  0.7583103E-052  0.1368551E+04  0.7818608E-02  0.8976903E-01
          2   -1    0    0  501    0  0.00000000000E+00  0.00000000000E+00  0.11050670033E+04  0.11050670033E+04  0.25500000000E-02 0.  1.
         -2   -1    0    0    0  501 -0.00000000000E+00 -0.00000000000E+00 -0.42371435579E+03  0.42371435580E+03  0.25500000000E-02 0. -1.
     200001    2    1    2    0    0 -0.33340987164E+02 -0.21126693630E+03  0.59308252327E+03  0.87356692499E+03  0.60467094624E+03 0.  0.
    5000001    2    3    3    0    0  0.16297254928E+03 -0.33544243398E+03  0.41609288014E+03  0.56456062637E+03  0.80707729522E+02 0.  0.
        -13    1    4    4    0    0  0.11397654709E+03 -0.17973061981E+03  0.26712545349E+03  0.34154028760E+03  0.10566000000E+00 0. -1.
     200003    1    4    4    0    0  0.48996002192E+02 -0.15571181417E+03  0.14896742665E+03  0.22302033877E+03  0.30000000000E+02 0. -1.
     200000    1    3    3    0    0 -0.19631353645E+03  0.12417549768E+03  0.17698964313E+03  0.30900629863E+03  0.10100000000E+03 0. -1.
    -200001    1    1    2    0    0  0.33340987164E+02  0.21126693630E+03  0.88270124213E+02  0.65521443408E+03  0.61300000000E+03 0. -1.
<mgrwt>
<rscale>  0 0.13685507E+04</rscale>
<asrwt>0</asrwt>
<pdfrwt beam="1">  1        2 0.15786671E+00 0.13685507E+04</pdfrwt>
<pdfrwt beam="2">  1       -2 0.60530624E-01 0.13685507E+04</pdfrwt>
<totfact> 0.60237657E+01</totfact>
</mgrwt>
</event>
<event>
 8    1  0.7583103E-052  0.1897348E+04  0.7818608E-02  0.8656178E-01
          2   -1    0    0  501    0  0.00000000000E+00  0.00000000000E+00  0.11667422195E+04  0.11667422195E+04  0.25500000000E-02 0.  1.
         -2   -1    0    0    0  501 -0.00000000000E+00 -0.00000000000E+00 -0.77136321428E+03  0.77136321429E+03  0.25500000000E-02 0. -1.
     200001    2    1    2    0    0  0.46245511670E+03 -0.35150396412E+03 -0.24377118630E+03  0.87900121840E+03  0.61302445214E+03 0.  0.
    5000001    2    3    3    0    0  0.57930285758E+03 -0.27817172775E+03 -0.15405903989E+03  0.68592019744E+03  0.18379613317E+03 0.  0.
        -13    1    4    4    0    0  0.17489167629E+02 -0.61563949728E+02 -0.13736562573E+01  0.64014756002E+02  0.10566000000E+00 0. -1.
     200003    1    4    4    0    0  0.56181368995E+03 -0.21660777802E+03 -0.15268538363E+03  0.62190544144E+03  0.30000000000E+02 0. -1.
     200000    1    3    3    0    0 -0.11684774088E+03 -0.73332236368E+02 -0.89712146410E+02  0.19308102095E+03  0.10100000000E+03 0.  1.
    -200001    1    1    2    0    0 -0.46245511670E+03  0.35150396412E+03  0.63915019153E+03  0.10591042154E+04  0.61300000000E+03 0.  1.
<mgrwt>
<rscale>  0 0.18973477E+04</rscale>
<asrwt>0</asrwt>
<pdfrwt beam="1">  1        2 0.16667746E+00 0.18973477E+04</pdfrwt>
<pdfrwt beam="2">  1       -2 0.11019475E+00 0.18973477E+04</pdfrwt>
<totfact> 0.13736906E+01</totfact>
</mgrwt>
</event>
<event>
 8    1  0.7583103E-052  0.1262253E+04  0.7818608E-02  0.9060046E-01
          2   -1    0    0  501    0  0.00000000000E+00  0.00000000000E+00  0.42877361320E+03  0.42877361321E+03  0.25500000000E-02 0.  1.
         -2   -1    0    0    0  501 -0.00000000000E+00 -0.00000000000E+00 -0.92897682125E+03  0.92897682126E+03  0.25500000000E-02 0. -1.
     200001    2    1    2    0    0 -0.99828405666E+02  0.76052442757E+02 -0.32338582878E+03  0.70753272459E+03  0.61666399074E+03 0.  0.
    5000001    2    3    3    0    0 -0.20627309372E+03 -0.15909628807E+03 -0.33115412285E+03  0.43024813501E+03  0.87121676542E+02 0.  0.
        -13    1    4    4    0    0 -0.13310683940E+03 -0.92849996823E+02 -0.14601834944E+03  0.21831152544E+03  0.10566000000E+00 0. -1.
     200003    1    4    4    0    0 -0.73166254325E+02 -0.66246291249E+02 -0.18513577341E+03  0.21193660957E+03  0.30000000000E+02 0. -1.
     200000    1    3    3    0    0  0.10644468806E+03  0.23514873083E+03  0.77682940728E+01  0.27728458958E+03  0.10100000000E+03 0. -1.
    -200001    1    1    2    0    0  0.99828405666E+02 -0.76052442757E+02 -0.17681737927E+03  0.65021770988E+03  0.61300000000E+03 0. -1.
<mgrwt>
<rscale>  0 0.12622531E+04</rscale>
<asrwt>0</asrwt>
<pdfrwt beam="1">  1        2 0.61253374E-01 0.12622531E+04</pdfrwt>
<pdfrwt beam="2">  1       -2 0.13271097E+00 0.12622531E+04</pdfrwt>
<totfact> 0.32410434E+01</totfact>
</mgrwt>
</event>
<event>
 8    1  0.7583103E-052  0.1853203E+04  0.7818608E-02  0.8678508E-01
         -2   -1    0    0    0  501 -0.00000000000E+00  0.00000000000E+00  0.24950748880E+03  0.24950748881E+03  0.25500000000E-02 0. -1.
          2   -1    0    0  501    0  0.00000000000E+00 -0.00000000000E+00 -0.34411388614E+04  0.34411388614E+04  0.25500000000E-02 0.  1.
     200001    2    1    2    0    0  0.15211926546E+03  0.86808642936E+02 -0.29351724519E+04  0.30034664688E+04  0.61228873542E+03 0.  0.
    5000001    2    3    3    0    0  0.29431326415E+03 -0.25413118820E+02 -0.25150357029E+04  0.25349275217E+04  0.11483392146E+03 0.  0.
        -13    1    4    4    0    0  0.29000618808E+02 -0.39299576310E+02 -0.45509706003E+03  0.45771043008E+03  0.10566000000E+00 0. -1.
     200003    1    4    4    0    0  0.26531264534E+03  0.13886457490E+02 -0.20599386429E+04  0.20772170916E+04  0.30000000000E+02 0. -1.
     200000    1    3    3    0    0 -0.14219399869E+03  0.11222176176E+03 -0.42013674899E+03  0.46853894707E+03  0.10100000000E+03 0.  1.
    -200001    1    1    2    0    0 -0.15211926546E+03 -0.86808642936E+02 -0.25645892073E+03  0.68717988142E+03  0.61300000000E+03 0. -1.
<mgrwt>
<rscale>  0 0.18532025E+04</rscale>
<asrwt>0</asrwt>
<pdfrwt beam="1">  1        2 0.49159124E+00 0.18532025E+04</pdfrwt>
<pdfrwt beam="2">  1       -2 0.35643929E-01 0.18532025E+04</pdfrwt>
<totfact> 0.91453254E+00</totfact>
</mgrwt>
</event>
<event>
 8    1  0.7583103E-052  0.2111826E+04  0.7818608E-02  0.8556052E-01
          2   -1    0    0  501    0  0.00000000000E+00  0.00000000000E+00  0.16830416985E+04  0.16830416985E+04  0.25500000000E-02 0.  1.
         -2   -1    0    0    0  501 -0.00000000000E+00 -0.00000000000E+00 -0.66246238804E+03  0.66246238804E+03  0.25500000000E-02 0. -1.
     200001    2    1    2    0    0 -0.73121464244E+03  0.44486457259E+03  0.41559664171E+03  0.11312749604E+04  0.61195026445E+03 0.  0.
    5000001    2    3    3    0    0 -0.34886622104E+03  0.51800038603E+03  0.30118651708E+03  0.71314837768E+03  0.16683899549E+03 0.  0.
        -13    1    4    4    0    0 -0.12821621897E+03  0.10496115899E+03  0.22054070840E+02  0.16716051240E+03  0.10566000000E+00 0. -1.
     200003    1    4    4    0    0 -0.22065000207E+03  0.41303922704E+03  0.27913244624E+03  0.54598786528E+03  0.30000000000E+02 0. -1.
     200000    1    3    3    0    0 -0.38234842140E+03 -0.73135813440E+02  0.11441012463E+03  0.41812658271E+03  0.10100000000E+03 0.  1.
    -200001    1    1    2    0    0  0.73121464244E+03 -0.44486457259E+03  0.60498266873E+03  0.12142291261E+04  0.61300000000E+03 0. -1.
<mgrwt>
<rscale>  0 0.21118256E+04</rscale>
<asrwt>0</asrwt>
<pdfrwt beam="1">  1        2 0.24043452E+00 0.21118256E+04</pdfrwt>
<pdfrwt beam="2">  1       -2 0.94637486E-01 0.21118256E+04</pdfrwt>
<totfact> 0.10181118E+01</totfact>
</mgrwt>
</event>
<event>
 8    1  0.7583103E-052  0.1986038E+04  0.7818608E-02  0.8613176E-01
         -2   -1    0    0    0  501 -0.00000000000E+00  0.00000000000E+00  0.87680677006E+03  0.87680677007E+03  0.25500000000E-02 0. -1.
          2   -1    0    0  501    0  0.00000000000E+00 -0.00000000000E+00 -0.11246339339E+04  0.11246339339E+04  0.25500000000E-02 0.  1.
     200001    2    1    2    0    0  0.13403006218E+03  0.34128649550E+03  0.57115766364E+03  0.91472745881E+03  0.61324115777E+03 0.  0.
    5000001    2    3    3    0    0 -0.79824100056E+02  0.33171638478E+03  0.58119421362E+03  0.67781624746E+03  0.72391328865E+02 0.  0.
        -13    1    4    4    0    0 -0.14621625077E+02  0.13990647133E+02  0.17393523386E+02  0.26684751206E+02  0.10566000000E+00 0. -1.
     200003    1    4    4    0    0 -0.65202474979E+02  0.31772573765E+03  0.56380069023E+03  0.65113149625E+03  0.30000000000E+02 0. -1.
     200000    1    3    3    0    0  0.21385416224E+03  0.95701107231E+01 -0.10036549979E+02  0.23691121135E+03  0.10100000000E+03 0.  1.
    -200001    1    1    2    0    0 -0.13403006218E+03 -0.34128649550E+03 -0.81898482748E+03  0.10867132452E+04  0.61300000000E+03 0.  1.
<mgrwt>
<rscale>  0 0.19860379E+04</rscale>
<asrwt>0</asrwt>
<pdfrwt beam="1">  1        2 0.16066199E+00 0.19860379E+04</pdfrwt>
<pdfrwt beam="2">  1       -2 0.12525811E+00 0.19860379E+04</pdfrwt>
<totfact> 0.10525143E+01</totfact>
</mgrwt>
</event>
<event>
 8    1  0.7583103E-052  0.1557909E+04  0.7818608E-02  0.8846832E-01
         -2   -1    0    0    0  501 -0.00000000000E+00  0.00000000000E+00  0.33520222903E+03  0.33520222904E+03  0.25500000000E-02 0. -1.
          2   -1    0    0  501    0  0.00000000000E+00 -0.00000000000E+00 -0.18101610981E+04  0.18101610981E+04  0.25500000000E-02 0.  1.
     200001    2    1    2    0    0  0.23969544368E+02 -0.47399952978E+03 -0.83268913654E+03  0.11386213033E+04  0.61468461902E+03 0.  0.
    5000001    2    3    3    0    0  0.22176560957E+03 -0.29342468405E+02 -0.30019278868E+03  0.41020072001E+03  0.16765427008E+03 0.  0.
        -13    1    4    4    0    0 -0.14057590294E+01  0.42256199041E+02 -0.58675359134E+02  0.72321307022E+02  0.10566000000E+00 0. -1.
     200003    1    4    4    0    0  0.22317136860E+03 -0.71598667446E+02 -0.24151742955E+03  0.33787941299E+03  0.30000000000E+02 0. -1.
     200000    1    3    3    0    0 -0.19779606520E+03 -0.44465706138E+03 -0.53249634785E+03  0.72842058326E+03  0.10100000000E+03 0. -1.
    -200001    1    1    2    0    0 -0.23969544368E+02  0.47399952978E+03 -0.64226973253E+03  0.10067420239E+04  0.61300000000E+03 0. -1.
<mgrwt>
<rscale>  0 0.15579089E+04</rscale>
<asrwt>0</asrwt>
<pdfrwt beam="1">  1        2 0.25859444E+00 0.15579089E+04</pdfrwt>
<pdfrwt beam="2">  1       -2 0.47886034E-01 0.15579089E+04</pdfrwt>
<totfact> 0.40028486E+01</totfact>
</mgrwt>
</event>
<event>
 8    1  0.7583103E-052  0.1468171E+04  0.7818608E-02  0.8905899E-01
          2   -1    0    0  501    0  0.00000000000E+00  0.00000000000E+00  0.25519668921E+04  0.25519668921E+04  0.25500000000E-02 0.  1.
         -2   -1    0    0    0  501 -0.00000000000E+00 -0.00000000000E+00 -0.21116328737E+03  0.21116328738E+03  0.25500000000E-02 0. -1.
     200001    2    1    2    0    0  0.92575707511E+02  0.23299176202E+03  0.17659339725E+04  0.18861469887E+04  0.61332882296E+03 0.  0.
    5000001    2    3    3    0    0  0.24357059314E+03  0.34946490975E+03  0.13558624327E+04  0.14227625723E+04  0.66618644260E+02 0.  0.
        -13    1    4    4    0    0  0.15326001891E+03  0.20048477216E+03  0.86385452055E+03  0.89995967749E+03  0.10566000000E+00 0. -1.
     200003    1    4    4    0    0  0.90310574231E+02  0.14898013759E+03  0.49200791212E+03  0.52280289479E+03  0.30000000000E+02 0. -1.
     200000    1    3    3    0    0 -0.15099488563E+03 -0.11647314773E+03  0.41007153981E+03  0.46338441643E+03  0.10100000000E+03 0. -1.
    -200001    1    1    2    0    0 -0.92575707511E+02 -0.23299176202E+03  0.57486963222E+03  0.87698319074E+03  0.61300000000E+03 0.  1.
<mgrwt>
<rscale>  0 0.14681713E+04</rscale>
<asrwt>0</asrwt>
<pdfrwt beam="1">  1        2 0.36456671E+00 0.14681713E+04</pdfrwt>
<pdfrwt beam="2">  1       -2 0.30166183E-01 0.14681713E+04</pdfrwt>
<totfact> 0.40803978E+01</totfact>
</mgrwt>
</event>
<event>
 8    1  0.7583103E-052  0.1416901E+04  0.7818608E-02  0.8941675E-01
         -2   -1    0    0    0  501 -0.00000000000E+00  0.00000000000E+00  0.28719397613E+04  0.28719397613E+04  0.25500000000E-02 0. -1.
          2   -1    0    0  501    0  0.00000000000E+00 -0.00000000000E+00 -0.17476063984E+03  0.17476063986E+03  0.25500000000E-02 0.  1.
     200001    2    1    2    0    0 -0.10247424192E+03  0.21854156040E+03  0.19081359858E+04  0.20187804365E+04  0.61337600740E+03 0.  0.
    5000001    2    3    3    0    0  0.15763545351E+03  0.24228297464E+03  0.49143009774E+03  0.57466226898E+03  0.71994488764E+02 0.  0.
        -13    1    4    4    0    0  0.12367540082E+03  0.15757547435E+03  0.35826392374E+03  0.41046155131E+03  0.10566000000E+00 0. -1.
     200003    1    4    4    0    0  0.33960052696E+02  0.84707500288E+02  0.13316617400E+03  0.16420071767E+03  0.30000000000E+02 0.  1.
     200000    1    3    3    0    0 -0.26010969543E+03 -0.23741414243E+02  0.14167058881E+04  0.14441181675E+04  0.10100000000E+03 0. -1.
    -200001    1    1    2    0    0  0.10247424192E+03 -0.21854156040E+03  0.78904313564E+03  0.10279199647E+04  0.61300000000E+03 0.  1.
<mgrwt>
<rscale>  0 0.14169009E+04</rscale>
<asrwt>0</asrwt>
<pdfrwt beam="1">  1        2 0.24965808E-01 0.14169009E+04</pdfrwt>
<pdfrwt beam="2">  1       -2 0.41027707E+00 0.14169009E+04</pdfrwt>
<totfact> 0.13761910E+00</totfact>
</mgrwt>
</event>
<event>
 8    1  0.7583103E-052  0.1278743E+04  0.7818608E-02  0.9046594E-01
          2   -1    0    0  501    0  0.00000000000E+00  0.00000000000E+00  0.10742781660E+04  0.10742781660E+04  0.25500000000E-02 0.  1.
         -2   -1    0    0    0  501 -0.00000000000E+00 -0.00000000000E+00 -0.38053060872E+03  0.38053060873E+03  0.25500000000E-02 0. -1.
     200001    2    1    2    0    0  0.17682054781E+03  0.31532439984E+02  0.32993090088E+03  0.71969561313E+03  0.61387912108E+03 0.  0.
    5000001    2    3    3    0    0 -0.20103949266E+03  0.82493229922E+02  0.15136693806E+03  0.28672759917E+03  0.10990339211E+03 0.  0.
        -13    1    4    4    0    0 -0.14461798597E+03  0.50478339439E+02  0.46980708292E+02  0.16021742332E+03  0.10566000000E+00 0. -1.
     200003    1    4    4    0    0 -0.56421506688E+02  0.32014890483E+02  0.10438622977E+03  0.12651017586E+03  0.30000000000E+02 0.  1.
     200000    1    3    3    0    0  0.37786004047E+03 -0.50960789938E+02  0.17856396282E+03  0.43296801396E+03  0.10100000000E+03 0. -1.
    -200001    1    1    2    0    0 -0.17682054781E+03 -0.31532439984E+02  0.36381665641E+03  0.73511316161E+03  0.61300000000E+03 0. -1.
<mgrwt>
<rscale>  0 0.12787427E+04</rscale>
<asrwt>0</asrwt>
<pdfrwt beam="1">  1        2 0.15346831E+00 0.12787427E+04</pdfrwt>
<pdfrwt beam="2">  1       -2 0.54361515E-01 0.12787427E+04</pdfrwt>
<totfact> 0.79179678E+01</totfact>
</mgrwt>
</event>
<event>
 8    1  0.7583103E-052  0.1409192E+04  0.7818608E-02  0.8947192E-01
         -2   -1    0    0    0  501 -0.00000000000E+00  0.00000000000E+00  0.69747171203E+03  0.69747171203E+03  0.25500000000E-02 0. -1.
          2   -1    0    0  501    0  0.00000000000E+00 -0.00000000000E+00 -0.71179296655E+03  0.71179296655E+03  0.25500000000E-02 0.  1.
     200001    2    1    2    0    0  0.13927388750E+02 -0.28330566232E+02  0.33895622697E+03  0.70104820598E+03  0.61284636751E+03 0.  0.
    5000001    2    3    3    0    0  0.16340805144E+03  0.12680626733E+02 -0.10614655445E+03  0.21902759181E+03  0.99211921580E+02 0.  0.
        -13    1    4    4    0    0  0.83384433101E+02  0.13060199934E+02 -0.21613506526E+01  0.84428757581E+02  0.10566000000E+00 0. -1.
     200003    1    4    4    0    0  0.80023618338E+02 -0.37957320029E+00 -0.10398520380E+03  0.13459883423E+03  0.30000000000E+02 0. -1.
     200000    1    3    3    0    0 -0.14948066269E+03 -0.41011192965E+02  0.44510278141E+03  0.48202061417E+03  0.10100000000E+03 0. -1.
    -200001    1    1    2    0    0 -0.13927388750E+02  0.28330566232E+02 -0.35327748149E+03  0.70821647260E+03  0.61300000000E+03 0.  1.
<mgrwt>
<rscale>  0 0.14091919E+04</rscale>
<asrwt>0</asrwt>
<pdfrwt beam="1">  1        2 0.10168471E+00 0.14091919E+04</pdfrwt>
<pdfrwt beam="2">  1       -2 0.99638816E-01 0.14091919E+04</pdfrwt>
<totfact> 0.35791231E+01</totfact>
</mgrwt>
</event>
<event>
 8    1  0.7583103E-052  0.1317614E+04  0.7818608E-02  0.9015712E-01
         -2   -1    0    0    0  501 -0.00000000000E+00  0.00000000000E+00  0.23632142806E+03  0.23632142807E+03  0.25500000000E-02 0. -1.
          2   -1    0    0  501    0  0.00000000000E+00 -0.00000000000E+00 -0.18365955455E+04  0.18365955455E+04  0.25500000000E-02 0.  1.
     200001    2    1    2    0    0  0.17547415102E+03 -0.13559842518E+03 -0.65331605301E+03  0.92327499174E+03  0.61354440318E+03 0.  0.
    5000001    2    3    3    0    0 -0.93150778102E+02  0.64208913587E+02 -0.53845486697E+03  0.55520377958E+03  0.74281498708E+02 0.  0.
        -13    1    4    4    0    0 -0.28696754965E+02  0.30203271481E+02 -0.81800687259E+02  0.91799264451E+02  0.10566000000E+00 0. -1.
     200003    1    4    4    0    0 -0.64454023137E+02  0.34005642105E+02 -0.45665417971E+03  0.46340451512E+03  0.30000000000E+02 0. -1.
     200000    1    3    3    0    0  0.26862492912E+03 -0.19980733876E+03 -0.11486118604E+03  0.36807121217E+03  0.10100000000E+03 0. -1.
    -200001    1    1    2    0    0 -0.17547415102E+03  0.13559842518E+03 -0.94695806441E+03  0.11496419818E+04  0.61300000000E+03 0.  1.
<mgrwt>
<rscale>  0 0.13176143E+04</rscale>
<asrwt>0</asrwt>
<pdfrwt beam="1">  1        2 0.26237078E+00 0.13176143E+04</pdfrwt>
<pdfrwt beam="2">  1       -2 0.33760205E-01 0.13176143E+04</pdfrwt>
<totfact> 0.78301996E+01</totfact>
</mgrwt>
</event>
<event>
 8    1  0.7583103E-052  0.1332678E+04  0.7818608E-02  0.9004045E-01
          2   -1    0    0  501    0  0.00000000000E+00  0.00000000000E+00  0.32611733036E+04  0.32611733036E+04  0.25500000000E-02 0.  1.
         -2   -1    0    0    0  501 -0.00000000000E+00 -0.00000000000E+00 -0.13614976236E+03  0.13614976238E+03  0.25500000000E-02 0. -1.
     200001    2    1    2    0    0  0.13573384143E+03  0.20658188262E+03  0.13268271890E+04  0.14814997779E+04  0.61095945242E+03 0.  0.
    5000001    2    3    3    0    0  0.12323350487E+03  0.39006090666E+03  0.81011087558E+03  0.92381029508E+03  0.17266100587E+03 0.  0.
        -13    1    4    4    0    0 -0.41788625900E+02  0.54337505122E+02  0.11601580891E+03  0.13475360032E+03  0.10566000000E+00 0. -1.
     200003    1    4    4    0    0  0.16502213077E+03  0.33572340154E+03  0.69409506666E+03  0.78905669476E+03  0.30000000000E+02 0. -1.
     200000    1    3    3    0    0  0.12500336557E+02 -0.18347902405E+03  0.51671631343E+03  0.55768948282E+03  0.10100000000E+03 0. -1.
    -200001    1    1    2    0    0 -0.13573384143E+03 -0.20658188262E+03  0.17981963522E+04  0.19158232880E+04  0.61300000000E+03 0.  1.
<mgrwt>
<rscale>  0 0.13326785E+04</rscale>
<asrwt>0</asrwt>
<pdfrwt beam="1">  1        2 0.46588193E+00 0.13326785E+04</pdfrwt>
<pdfrwt beam="2">  1       -2 0.19449965E-01 0.13326785E+04</pdfrwt>
<totfact> 0.37138525E+01</totfact>
</mgrwt>
</event>
<event>
 8    1  0.7583103E-052  0.1573531E+04  0.7818608E-02  0.8836976E-01
          2   -1    0    0  501    0  0.00000000000E+00  0.00000000000E+00  0.14364652635E+04  0.14364652635E+04  0.25500000000E-02 0.  1.
         -2   -1    0    0    0  501 -0.00000000000E+00 -0.00000000000E+00 -0.43091861252E+03  0.43091861253E+03  0.25500000000E-02 0. -1.
     200001    2    1    2    0    0 -0.41498800801E+03 -0.59558250453E+02  0.19276839657E+03  0.76641170433E+03  0.61193546542E+03 0.  0.
    5000001    2    3    3    0    0 -0.44455984986E+03  0.12834606140E+03  0.26325220069E+03  0.53980303088E+03  0.89327595933E+02 0.  0.
        -13    1    4    4    0    0 -0.63731113905E+02  0.14819372304E+01  0.10780388540E+02  0.64653530133E+02  0.10566000000E+00 0. -1.
     200003    1    4    4    0    0 -0.38082873595E+03  0.12686412417E+03  0.25247181215E+03  0.47514950074E+03  0.30000000000E+02 0. -1.
     200000    1    3    3    0    0  0.29571841845E+02 -0.18790431185E+03 -0.70483804117E+02  0.22660867346E+03  0.10100000000E+03 0.  1.
    -200001    1    1    2    0    0  0.41498800801E+03  0.59558250453E+02  0.81277825439E+03  0.11009721717E+04  0.61300000000E+03 0.  1.
<mgrwt>
<rscale>  0 0.15735306E+04</rscale>
<asrwt>0</asrwt>
<pdfrwt beam="1">  1        2 0.20520932E+00 0.15735306E+04</pdfrwt>
<pdfrwt beam="2">  1       -2 0.61559803E-01 0.15735306E+04</pdfrwt>
<totfact> 0.37330459E+01</totfact>
</mgrwt>
</event>
<event>
 8    1  0.7583103E-052  0.1401870E+04  0.7818608E-02  0.8952466E-01
         -2   -1    0    0    0  501 -0.00000000000E+00  0.00000000000E+00  0.17815525717E+04  0.17815525717E+04  0.25500000000E-02 0. -1.
          2   -1    0    0  501    0  0.00000000000E+00 -0.00000000000E+00 -0.27577612665E+03  0.27577612667E+03  0.25500000000E-02 0.  1.
     200001    2    1    2    0    0  0.78698566439E+01  0.33352665895E+03  0.66475969458E+03  0.96445169639E+03  0.61397040340E+03 0.  0.
    5000001    2    3    3    0    0 -0.13676574491E+03 -0.10177382581E+03  0.34774051324E+03  0.39778765959E+03  0.90822777842E+02 0.  0.
        -13    1    4    4    0    0 -0.19779200075E+02  0.11016267680E+02  0.17879411787E+02  0.28848907069E+02  0.10566000000E+00 0. -1.
     200003    1    4    4    0    0 -0.11698654484E+03 -0.11279009349E+03  0.32986110145E+03  0.36893875252E+03  0.30000000000E+02 0. -1.
     200000    1    3    3    0    0  0.14463560155E+03  0.43530048475E+03  0.31701918135E+03  0.56666403680E+03  0.10100000000E+03 0. -1.
    -200001    1    1    2    0    0 -0.78698566439E+01 -0.33352665895E+03  0.84101675042E+03  0.10928770019E+04  0.61300000000E+03 0.  1.
<mgrwt>
<rscale>  0 0.14018697E+04</rscale>
<asrwt>0</asrwt>
<pdfrwt beam="1">  1        2 0.39396589E-01 0.14018697E+04</pdfrwt>
<pdfrwt beam="2">  1       -2 0.25450751E+00 0.14018697E+04</pdfrwt>
<totfact> 0.77115650E+00</totfact>
</mgrwt>
</event>
<event>
 8    1  0.7583103E-052  0.1509596E+04  0.7818608E-02  0.8878097E-01
          2   -1    0    0  501    0  0.00000000000E+00  0.00000000000E+00  0.27181221583E+04  0.27181221583E+04  0.25500000000E-02 0.  1.
         -2   -1    0    0    0  501 -0.00000000000E+00 -0.00000000000E+00 -0.20960050608E+03  0.20960050610E+03  0.25500000000E-02 0. -1.
     200001    2    1    2    0    0  0.35928905990E+03 -0.10479964282E+03  0.81979329974E+03  0.10926084875E+04  0.61778690421E+03 0.  0.
    5000001    2    3    3    0    0  0.33254422139E+03 -0.32782080637E+03  0.50588222657E+03  0.69361614720E+03  0.84465331525E+02 0.  0.
        -13    1    4    4    0    0  0.17892101541E+03 -0.22130640284E+03  0.32105633917E+03  0.42902964674E+03  0.10566000000E+00 0. -1.
     200003    1    4    4    0    0  0.15362320598E+03 -0.10651440353E+03  0.18482588740E+03  0.26458650046E+03  0.30000000000E+02 0. -1.
     200000    1    3    3    0    0  0.26744838512E+02  0.22302116355E+03  0.31391107317E+03  0.39899234033E+03  0.10100000000E+03 0. -1.
    -200001    1    1    2    0    0 -0.35928905990E+03  0.10479964282E+03  0.16887283524E+04  0.18351141768E+04  0.61300000000E+03 0.  1.
<mgrwt>
<rscale>  0 0.15095957E+04</rscale>
<asrwt>0</asrwt>
<pdfrwt beam="1">  1        2 0.38830311E+00 0.15095957E+04</pdfrwt>
<pdfrwt beam="2">  1       -2 0.29942934E-01 0.15095957E+04</pdfrwt>
<totfact> 0.33635461E+01</totfact>
</mgrwt>
</event>
<event>
 8    1  0.7583103E-052  0.1577672E+04  0.7818608E-02  0.8834383E-01
         -2   -1    0    0    0  501 -0.00000000000E+00  0.00000000000E+00  0.39340455426E+03  0.39340455427E+03  0.25500000000E-02 0. -1.
          2   -1    0    0  501    0  0.00000000000E+00 -0.00000000000E+00 -0.15817369986E+04  0.15817369986E+04  0.25500000000E-02 0.  1.
     200001    2    1    2    0    0  0.27117215301E+03 -0.18446384071E+03 -0.10698811267E+04  0.12699033238E+04  0.60037286863E+03 0.  0.
    5000001    2    3    3    0    0  0.23822679287E+03 -0.31479275158E+03 -0.99313452978E+03  0.10850735050E+04  0.18767481395E+03 0.  0.
        -13    1    4    4    0    0  0.15763504683E+03 -0.88947252242E+02 -0.29291570442E+03  0.34432548951E+03  0.10566000000E+00 0. -1.
     200003    1    4    4    0    0  0.80591746037E+02 -0.22584549933E+03 -0.70021882536E+03  0.74074801552E+03  0.30000000000E+02 0. -1.
     200000    1    3    3    0    0  0.32945360144E+02  0.13032891086E+03 -0.76746596926E+02  0.18482981876E+03  0.10100000000E+03 0.  1.
    -200001    1    1    2    0    0 -0.27117215301E+03  0.18446384071E+03 -0.11845131763E+03  0.70523822907E+03  0.61300000000E+03 0. -1.
<mgrwt>
<rscale>  0 0.15776724E+04</rscale>
<asrwt>0</asrwt>
<pdfrwt beam="1">  1        2 0.22596243E+00 0.15776724E+04</pdfrwt>
<pdfrwt beam="2">  1       -2 0.56200651E-01 0.15776724E+04</pdfrwt>
<totfact> 0.37835969E+01</totfact>
</mgrwt>
</event>
<event>
 8    1  0.7583103E-052  0.1368138E+04  0.7818608E-02  0.8977210E-01
          2   -1    0    0  501    0  0.00000000000E+00  0.00000000000E+00  0.14713078320E+04  0.14713078320E+04  0.25500000000E-02 0.  1.
         -2   -1    0    0    0  501 -0.00000000000E+00 -0.00000000000E+00 -0.31805060467E+03  0.31805060468E+03  0.25500000000E-02 0. -1.
     200001    2    1    2    0    0  0.29238566122E+03 -0.38248886006E+02  0.48517830571E+03  0.83591688227E+03  0.61351992108E+03 0.  0.
    5000001    2    3    3    0    0  0.44951814772E+03  0.45569113203E+02  0.24117469111E+03  0.51739711955E+03  0.73426415439E+02 0.  0.
        -13    1    4    4    0    0  0.13479459831E+03 -0.14753258726E+02  0.80054468388E+02  0.15746736630E+03  0.10566000000E+00 0. -1.
     200003    1    4    4    0    0  0.31472354941E+03  0.60322371928E+02  0.16112022272E+03  0.35992975325E+03  0.30000000000E+02 0.  1.
     200000    1    3    3    0    0 -0.15713248650E+03 -0.83817999208E+02  0.24400361460E+03  0.31851976272E+03  0.10100000000E+03 0.  1.
    -200001    1    1    2    0    0 -0.29238566122E+03  0.38248886006E+02  0.66807892165E+03  0.95344155443E+03  0.61300000000E+03 0.  1.
<mgrwt>
<rscale>  0 0.13681379E+04</rscale>
<asrwt>0</asrwt>
<pdfrwt beam="1">  1        2 0.21018683E+00 0.13681379E+04</pdfrwt>
<pdfrwt beam="2">  1       -2 0.45435801E-01 0.13681379E+04</pdfrwt>
<totfact> 0.67893408E+01</totfact>
</mgrwt>
</event>
<event>
 8    1  0.7583103E-052  0.1407686E+04  0.7818608E-02  0.8948274E-01
         -2   -1    0    0    0  501 -0.00000000000E+00  0.00000000000E+00  0.45138615887E+03  0.45138615888E+03  0.25500000000E-02 0. -1.
          2   -1    0    0  501    0  0.00000000000E+00 -0.00000000000E+00 -0.10974964218E+04  0.10974964218E+04  0.25500000000E-02 0.  1.
     200001    2    1    2    0    0 -0.38633208695E+02 -0.59544880886E+02 -0.69214357369E+03  0.93007228396E+03  0.61719819274E+03 0.  0.
    5000001    2    3    3    0    0  0.11597079923E+03  0.17159460255E+03 -0.56834265468E+03  0.60936131186E+03  0.73579218337E+02 0.  0.
        -13    1    4    4    0    0  0.98614908320E+02  0.14782351374E+03 -0.45371035201E+03  0.48726767392E+03  0.10566000000E+00 0. -1.
     200003    1    4    4    0    0  0.17355890915E+02  0.23771088808E+02 -0.11463230267E+03  0.12209363795E+03  0.30000000000E+02 0.  1.
     200000    1    3    3    0    0 -0.15460400793E+03 -0.23113948344E+03 -0.12380091902E+03  0.32071097209E+03  0.10100000000E+03 0. -1.
    -200001    1    1    2    0    0  0.38633208695E+02  0.59544880886E+02  0.46033310746E+02  0.61881029674E+03  0.61300000000E+03 0. -1.
<mgrwt>
<rscale>  0 0.14076856E+04</rscale>
<asrwt>0</asrwt>
<pdfrwt beam="1">  1        2 0.15678520E+00 0.14076856E+04</pdfrwt>
<pdfrwt beam="2">  1       -2 0.64483738E-01 0.14076856E+04</pdfrwt>
<totfact> 0.53038819E+01</totfact>
</mgrwt>
</event>
<event>
 8    1  0.7583103E-052  0.1411068E+04  0.7818608E-02  0.8945846E-01
         -2   -1    0    0    0  501 -0.00000000000E+00  0.00000000000E+00  0.33042884449E+03  0.33042884450E+03  0.25500000000E-02 0. -1.
          2   -1    0    0  501    0  0.00000000000E+00 -0.00000000000E+00 -0.15064602882E+04  0.15064602882E+04  0.25500000000E-02 0.  1.
     200001    2    1    2    0    0  0.19802969198E+03 -0.24403950548E+03 -0.78644873992E+03  0.10454886511E+04  0.61300396405E+03 0.  0.
    5000001    2    3    3    0    0  0.12569519957E+03 -0.22851795598E+03 -0.37120959923E+02  0.28577402103E+03  0.11076590644E+03 0.  0.
        -13    1    4    4    0    0 -0.16923294926E+02 -0.24340856262E+02 -0.16852816776E+02  0.34101375222E+02  0.10566000000E+00 0. -1.
     200003    1    4    4    0    0  0.14261849449E+03 -0.20417709971E+03 -0.20268143147E+02  0.25167264580E+03  0.30000000000E+02 0. -1.
     200000    1    3    3    0    0  0.72334492409E+02 -0.15521549498E+02 -0.74932778000E+03  0.75971463009E+03  0.10100000000E+03 0.  1.
    -200001    1    1    2    0    0 -0.19802969198E+03  0.24403950548E+03 -0.38958270377E+03  0.79140048156E+03  0.61300000000E+03 0. -1.
<mgrwt>
<rscale>  0 0.14110676E+04</rscale>
<asrwt>0</asrwt>
<pdfrwt beam="1">  1        2 0.21520861E+00 0.14110676E+04</pdfrwt>
<pdfrwt beam="2">  1       -2 0.47204121E-01 0.14110676E+04</pdfrwt>
<totfact> 0.60040786E+01</totfact>
</mgrwt>
</event>
<event>
 8    1  0.7583103E-052  0.1874417E+04  0.7818608E-02  0.8667696E-01
         -2   -1    0    0    0  501 -0.00000000000E+00  0.00000000000E+00  0.21204462370E+03  0.21204462371E+03  0.25500000000E-02 0. -1.
          2   -1    0    0  501    0  0.00000000000E+00 -0.00000000000E+00 -0.41423361970E+04  0.41423361970E+04  0.25500000000E-02 0.  1.
     200001    2    1    2    0    0  0.42914188411E+03  0.10369973846E+03 -0.67490280944E+03  0.10124889319E+04  0.61214674926E+03 0.  0.
    5000001    2    3    3    0    0  0.48898363497E+03 -0.56897399974E+02 -0.63383226653E+03  0.80936270144E+03  0.10479661730E+03 0.  0.
        -13    1    4    4    0    0  0.36564017827E+03 -0.62691728297E+02 -0.51996005157E+03  0.63873426334E+03  0.10566000000E+00 0. -1.
     200003    1    4    4    0    0  0.12334345669E+03  0.57943283224E+01 -0.11387221496E+03  0.17062843810E+03  0.30000000000E+02 0. -1.
     200000    1    3    3    0    0 -0.59841750861E+02  0.16059713843E+03 -0.41070542914E+02  0.20312623049E+03  0.10100000000E+03 0. -1.
    -200001    1    1    2    0    0 -0.42914188411E+03 -0.10369973846E+03 -0.32553887639E+04  0.33418918888E+04  0.61300000000E+03 0.  1.
<mgrwt>
<rscale>  0 0.18744174E+04</rscale>
<asrwt>0</asrwt>
<pdfrwt beam="1">  1        2 0.59176227E+00 0.18744174E+04</pdfrwt>
<pdfrwt beam="2">  1       -2 0.30292092E-01 0.18744174E+04</pdfrwt>
<totfact> 0.43326126E+00</totfact>
</mgrwt>
</event>
<event>
 8    1  0.7583103E-052  0.1579534E+04  0.7818608E-02  0.8833220E-01
         -2   -1    0    0    0  501 -0.00000000000E+00  0.00000000000E+00  0.52850294546E+03  0.52850294546E+03  0.25500000000E-02 0. -1.
          2   -1    0    0  501    0  0.00000000000E+00 -0.00000000000E+00 -0.11801869625E+04  0.11801869625E+04  0.25500000000E-02 0.  1.
     200001    2    1    2    0    0  0.12593278772E+03  0.22526112303E+03  0.13492335579E+03  0.67858224389E+03  0.61291753867E+03 0.  0.
    5000001    2    3    3    0    0  0.26483121947E+03 -0.58133016670E+02 -0.14488177389E+02  0.31508558777E+03  0.15985617880E+03 0.  0.
        -13    1    4    4    0    0  0.23540456946E+03  0.75421022323E+01  0.13258512147E+01  0.23552911428E+03  0.10566000000E+00 0. -1.
     200003    1    4    4    0    0  0.29426650018E+02 -0.65675118902E+02 -0.15814028604E+02  0.79556473494E+02  0.30000000000E+02 0. -1.
     200000    1    3    3    0    0 -0.13889843176E+03  0.28339413970E+03  0.14941153318E+03  0.36349665612E+03  0.10100000000E+03 0. -1.
    -200001    1    1    2    0    0 -0.12593278772E+03 -0.22526112303E+03 -0.78660737279E+03  0.10301076640E+04  0.61300000000E+03 0.  1.
<mgrwt>
<rscale>  0 0.15795345E+04</rscale>
<asrwt>0</asrwt>
<pdfrwt beam="1">  1        2 0.16859814E+00 0.15795345E+04</pdfrwt>
<pdfrwt beam="2">  1       -2 0.75500421E-01 0.15795345E+04</pdfrwt>
<totfact> 0.33224403E+01</totfact>
</mgrwt>
</event>
<event>
 8    1  0.7583103E-052  0.1401224E+04  0.7818608E-02  0.8952933E-01
          2   -1    0    0  501    0  0.00000000000E+00  0.00000000000E+00  0.68863909054E+03  0.68863909055E+03  0.25500000000E-02 0.  1.
         -2   -1    0    0    0  501 -0.00000000000E+00 -0.00000000000E+00 -0.71279263667E+03  0.71279263667E+03  0.25500000000E-02 0. -1.
     200001    2    1    2    0    0 -0.29841039896E+02 -0.29849761530E+03 -0.17092990691E+03  0.70336037407E+03  0.61278664210E+03 0.  0.
    5000001    2    3    3    0    0  0.83107302665E+02 -0.40508029324E+03  0.39468664288E+02  0.42302886659E+03  0.79992366992E+02 0.  0.
        -13    1    4    4    0    0  0.13586954360E+02 -0.22105644625E+03  0.84592282490E+01  0.22163512236E+03  0.10566000000E+00 0. -1.
     200003    1    4    4    0    0  0.69520348305E+02 -0.18402384699E+03  0.31009436039E+02  0.20139374422E+03  0.30000000000E+02 0.  1.
     200000    1    3    3    0    0 -0.11294834256E+03  0.10658267795E+03 -0.21039857120E+03  0.28033150748E+03  0.10100000000E+03 0. -1.
    -200001    1    1    2    0    0  0.29841039896E+02  0.29849761530E+03  0.14677636079E+03  0.69807135315E+03  0.61300000000E+03 0.  1.
<mgrwt>
<rscale>  0 0.14012236E+04</rscale>
<asrwt>0</asrwt>
<pdfrwt beam="1">  1        2 0.98377013E-01 0.14012236E+04</pdfrwt>
<pdfrwt beam="2">  1       -2 0.10182752E+00 0.14012236E+04</pdfrwt>
<totfact> 0.35427351E+01</totfact>
</mgrwt>
</event>
<event>
 8    1  0.7583103E-052  0.1407842E+04  0.7818608E-02  0.8948162E-01
          2   -1    0    0  501    0  0.00000000000E+00  0.00000000000E+00  0.12896931578E+04  0.12896931578E+04  0.25500000000E-02 0.  1.
         -2   -1    0    0    0  501 -0.00000000000E+00 -0.00000000000E+00 -0.38420340452E+03  0.38420340453E+03  0.25500000000E-02 0. -1.
     200001    2    1    2    0    0 -0.18068318380E+03 -0.23298529975E+03  0.20859665726E+03  0.70006005136E+03  0.59970238226E+03 0.  0.
    5000001    2    3    3    0    0 -0.54961682418E+02 -0.19836576991E+03  0.39369742204E+03  0.45213324587E+03  0.84006230130E+02 0.  0.
        -13    1    4    4    0    0 -0.15490699982E+02 -0.38392593046E+02  0.28201952059E+02  0.50093055913E+02  0.10566000000E+00 0. -1.
     200003    1    4    4    0    0 -0.39470982436E+02 -0.15997317686E+03  0.36549546998E+03  0.40204018996E+03  0.30000000000E+02 0. -1.
     200000    1    3    3    0    0 -0.12572150138E+03 -0.34619529843E+02 -0.18510076478E+03  0.24792680549E+03  0.10100000000E+03 0. -1.
    -200001    1    1    2    0    0  0.18068318380E+03  0.23298529975E+03  0.69689309602E+03  0.97383651097E+03  0.61300000000E+03 0. -1.
<mgrwt>
<rscale>  0 0.14078416E+04</rscale>
<asrwt>0</asrwt>
<pdfrwt beam="1">  1        2 0.18424188E+00 0.14078416E+04</pdfrwt>
<pdfrwt beam="2">  1       -2 0.54886200E-01 0.14078416E+04</pdfrwt>
<totfact> 0.57837391E+01</totfact>
</mgrwt>
</event>
<event>
 8    1  0.7583103E-052  0.1786566E+04  0.7818608E-02  0.8713476E-01
          2   -1    0    0  501    0  0.00000000000E+00  0.00000000000E+00  0.33867759838E+04  0.33867759838E+04  0.25500000000E-02 0.  1.
         -2   -1    0    0    0  501 -0.00000000000E+00 -0.00000000000E+00 -0.23560887572E+03  0.23560887574E+03  0.25500000000E-02 0. -1.
     200001    2    1    2    0    0  0.27216309254E+03  0.48958115212E+03  0.90902310024E+03  0.12314140932E+04  0.61342906581E+03 0.  0.
    5000001    2    3    3    0    0  0.11930009506E+03  0.50793233701E+03  0.90321958052E+03  0.10471899286E+04  0.92592463525E+02 0.  0.
        -13    1    4    4    0    0  0.83700872236E+02  0.35348358921E+03  0.55345873582E+03  0.66202195377E+03  0.10566000000E+00 0. -1.
     200003    1    4    4    0    0  0.35599222826E+02  0.15444874780E+03  0.34976084470E+03  0.38516797485E+03  0.30000000000E+02 0. -1.
     200000    1    3    3    0    0  0.15286299747E+03 -0.18351184893E+02  0.58035197177E+01  0.18422416461E+03  0.10100000000E+03 0.  1.
    -200001    1    1    2    0    0 -0.27216309254E+03 -0.48958115212E+03  0.22421440078E+04  0.23909707663E+04  0.61300000000E+03 0.  1.
<mgrwt>
<rscale>  0 0.17865660E+04</rscale>
<asrwt>0</asrwt>
<pdfrwt beam="1">  1        2 0.48382511E+00 0.17865660E+04</pdfrwt>
<pdfrwt beam="2">  1       -2 0.33658413E-01 0.17865660E+04</pdfrwt>
<totfact> 0.11064129E+01</totfact>
</mgrwt>
</event>
<event>
 8    1  0.7583103E-052  0.1636032E+04  0.7818608E-02  0.8798713E-01
          2   -1    0    0  501    0  0.00000000000E+00  0.00000000000E+00  0.10490796395E+04  0.10490796395E+04  0.25500000000E-02 0.  1.
         -2   -1    0    0    0  501 -0.00000000000E+00 -0.00000000000E+00 -0.63784473965E+03  0.63784473966E+03  0.25500000000E-02 0. -1.
     200001    2    1    2    0    0  0.22326504041E+03 -0.47781411894E+03  0.33843026373E+03  0.87499881261E+03  0.61068344348E+03 0.  0.
    5000001    2    3    3    0    0  0.43018274935E+02 -0.33120647156E+03 -0.10769096165E+03  0.36196095196E+03  0.88713520608E+02 0.  0.
        -13    1    4    4    0    0 -0.16049807188E+02 -0.10522562072E+03 -0.96613886800E+01  0.10688021876E+03  0.10566000000E+00 0. -1.
     200003    1    4    4    0    0  0.59068082123E+02 -0.22598085084E+03 -0.98029572969E+02  0.25508073320E+03  0.30000000000E+02 0. -1.
     200000    1    3    3    0    0  0.18024676548E+03 -0.14660764738E+03  0.44612122537E+03  0.51303786065E+03  0.10100000000E+03 0.  1.
    -200001    1    1    2    0    0 -0.22326504041E+03  0.47781411894E+03  0.72804636093E+02  0.81192556652E+03  0.61300000000E+03 0. -1.
<mgrwt>
<rscale>  0 0.16360317E+04</rscale>
<asrwt>0</asrwt>
<pdfrwt beam="1">  1        2 0.14986852E+00 0.16360317E+04</pdfrwt>
<pdfrwt beam="2">  1       -2 0.91120678E-01 0.16360317E+04</pdfrwt>
<totfact> 0.25806743E+01</totfact>
</mgrwt>
</event>
<event>
 8    1  0.7583103E-052  0.1665011E+04  0.7818608E-02  0.8781575E-01
          2   -1    0    0  501    0  0.00000000000E+00  0.00000000000E+00  0.20773858699E+04  0.20773858699E+04  0.25500000000E-02 0.  1.
         -2   -1    0    0    0  501 -0.00000000000E+00 -0.00000000000E+00 -0.33362391316E+03  0.33362391317E+03  0.25500000000E-02 0. -1.
     200001    2    1    2    0    0 -0.38233887957E+03 -0.18515959400E+03  0.33166601637E+03  0.81405923941E+03  0.61010081525E+03 0.  0.
    5000001    2    3    3    0    0 -0.30585984676E+03 -0.21520140254E+03 -0.75829998425E+02  0.38626775422E+03  0.59922448013E+02 0.  0.
        -13    1    4    4    0    0 -0.65488298576E+02 -0.52520428922E+02  0.30423556836E+01  0.84002260664E+02  0.10566000000E+00 0. -1.
     200003    1    4    4    0    0 -0.24037154818E+03 -0.16268097362E+03 -0.78872354109E+02  0.30226549356E+03  0.30000000000E+02 0. -1.
     200000    1    3    3    0    0 -0.76479032810E+02  0.30041808540E+02  0.40749601480E+03  0.42779148518E+03  0.10100000000E+03 0.  1.
    -200001    1    1    2    0    0  0.38233887957E+03  0.18515959400E+03  0.14120959403E+04  0.15969505436E+04  0.61300000000E+03 0. -1.
<mgrwt>
<rscale>  0 0.16650112E+04</rscale>
<asrwt>0</asrwt>
<pdfrwt beam="1">  1        2 0.29676942E+00 0.16650112E+04</pdfrwt>
<pdfrwt beam="2">  1       -2 0.47660557E-01 0.16650112E+04</pdfrwt>
<totfact> 0.29193872E+01</totfact>
</mgrwt>
</event>
<event>
 8    1  0.7583103E-052  0.1686354E+04  0.7818608E-02  0.8769186E-01
          2   -1    0    0  501    0  0.00000000000E+00  0.00000000000E+00  0.35416599979E+04  0.35416599979E+04  0.25500000000E-02 0.  1.
         -2   -1    0    0    0  501 -0.00000000000E+00 -0.00000000000E+00 -0.20073844377E+03  0.20073844379E+03  0.25500000000E-02 0. -1.
     200001    2    1    2    0    0 -0.48099809820E+03  0.26954533662E+03  0.20618443653E+04  0.22206161597E+04  0.61312321989E+03 0.  0.
    5000001    2    3    3    0    0  0.28544100399E+02  0.10411333356E+03  0.84113797718E+02  0.16912397156E+03  0.99365159377E+02 0.  0.
        -13    1    4    4    0    0 -0.23699951288E+02  0.69016454080E+02  0.62637554419E+02  0.96168773583E+02  0.10566000000E+00 0. -1.
     200003    1    4    4    0    0  0.52244051687E+02  0.35096879476E+02  0.21476243298E+02  0.72955197977E+02  0.30000000000E+02 0. -1.
     200000    1    3    3    0    0 -0.50954219860E+03  0.16543200306E+03  0.19777305676E+04  0.20514921881E+04  0.10100000000E+03 0. -1.
    -200001    1    1    2    0    0  0.48099809820E+03 -0.26954533662E+03  0.12790771888E+04  0.15217822820E+04  0.61300000000E+03 0. -1.
<mgrwt>
<rscale>  0 0.16863538E+04</rscale>
<asrwt>0</asrwt>
<pdfrwt beam="1">  1        2 0.50595135E+00 0.16863538E+04</pdfrwt>
<pdfrwt beam="2">  1       -2 0.28676925E-01 0.16863538E+04</pdfrwt>
<totfact> 0.12154553E+01</totfact>
</mgrwt>
</event>
<event>
 8    1  0.7583103E-052  0.1373521E+04  0.7818608E-02  0.8973212E-01
         -2   -1    0    0    0  501 -0.00000000000E+00  0.00000000000E+00  0.16789117238E+03  0.16789117240E+03  0.25500000000E-02 0. -1.
          2   -1    0    0  501    0  0.00000000000E+00 -0.00000000000E+00 -0.28091988262E+04  0.28091988262E+04  0.25500000000E-02 0.  1.
     200001    2    1    2    0    0 -0.82371235415E+02  0.23508867753E+03 -0.92250338512E+03  0.11353221466E+04  0.61310046010E+03 0.  0.
    5000001    2    3    3    0    0  0.24333741967E+01  0.35185823575E+03 -0.28763271970E+03  0.47646805546E+03  0.14310516085E+03 0.  0.
        -13    1    4    4    0    0  0.51427985297E+02  0.63806533772E+02 -0.93769672241E+02  0.12453462980E+03  0.10566000000E+00 0. -1.
     200003    1    4    4    0    0 -0.48994611101E+02  0.28805170197E+03 -0.19386304746E+03  0.35193342566E+03  0.30000000000E+02 0. -1.
     200000    1    3    3    0    0 -0.84804609611E+02 -0.11676955822E+03 -0.63487066542E+03  0.65885409109E+03  0.10100000000E+03 0.  1.
    -200001    1    1    2    0    0  0.82371235415E+02 -0.23508867753E+03 -0.17188042687E+04  0.18417678520E+04  0.61300000000E+03 0. -1.
<mgrwt>
<rscale>  0 0.13735206E+04</rscale>
<asrwt>0</asrwt>
<pdfrwt beam="1">  1        2 0.40131409E+00 0.13735206E+04</pdfrwt>
<pdfrwt beam="2">  1       -2 0.23984455E-01 0.13735206E+04</pdfrwt>
<totfact> 0.45630594E+01</totfact>
</mgrwt>
</event>
<event>
 8    1  0.7583103E-052  0.1272795E+04  0.7818608E-02  0.9051422E-01
          2   -1    0    0  501    0  0.00000000000E+00  0.00000000000E+00  0.44954695634E+03  0.44954695635E+03  0.25500000000E-02 0.  1.
         -2   -1    0    0    0  501 -0.00000000000E+00 -0.00000000000E+00 -0.90091028881E+03  0.90091028881E+03  0.25500000000E-02 0. -1.
     200001    2    1    2    0    0  0.99285089160E+02  0.71440635150E+02 -0.97644668972E+02  0.63223222040E+03  0.61255351265E+03 0.  0.
    5000001    2    3    3    0    0  0.27766229155E+03  0.13789163561E+03  0.99436281944E+02  0.34021156530E+03  0.98721242283E+02 0.  0.
        -13    1    4    4    0    0  0.19336477117E+03  0.12125229666E+03  0.10004013856E+03  0.24919890582E+03  0.10566000000E+00 0. -1.
     200003    1    4    4    0    0  0.84297520378E+02  0.16639338946E+02 -0.60385661454E+00  0.91012659478E+02  0.30000000000E+02 0.  1.
     200000    1    3    3    0    0 -0.17837720239E+03 -0.66451000458E+02 -0.19708095092E+03  0.29202065510E+03  0.10100000000E+03 0.  1.
    -200001    1    1    2    0    0 -0.99285089160E+02 -0.71440635150E+02 -0.35371866350E+03  0.71822502476E+03  0.61300000000E+03 0. -1.
<mgrwt>
<rscale>  0 0.12727945E+04</rscale>
<asrwt>0</asrwt>
<pdfrwt beam="1">  1        2 0.64220994E-01 0.12727945E+04</pdfrwt>
<pdfrwt beam="2">  1       -2 0.12870147E+00 0.12727945E+04</pdfrwt>
<totfact> 0.33190130E+01</totfact>
</mgrwt>
</event>
<event>
 8    1  0.7583103E-052  0.1364566E+04  0.7818608E-02  0.8979875E-01
          2   -1    0    0  501    0  0.00000000000E+00  0.00000000000E+00  0.31931956835E+03  0.31931956836E+03  0.25500000000E-02 0.  1.
         -2   -1    0    0    0  501 -0.00000000000E+00 -0.00000000000E+00 -0.14578178250E+04  0.14578178250E+04  0.25500000000E-02 0. -1.
     200001    2    1    2    0    0 -0.87808426941E+02  0.17540046905E+02 -0.94120203166E+03  0.11269737420E+04  0.61334376802E+03 0.  0.
    5000001    2    3    3    0    0  0.18724529192E+02 -0.66884408766E+02 -0.94983855324E+03  0.95740856590E+03  0.98049746069E+02 0.  0.
        -13    1    4    4    0    0 -0.22659248263E+02 -0.38770340420E+02 -0.67268850563E+03  0.67418574414E+03  0.10566000000E+00 0. -1.
     200003    1    4    4    0    0  0.41383777456E+02 -0.28114068346E+02 -0.27715004761E+03  0.28322282176E+03  0.30000000000E+02 0. -1.
     200000    1    3    3    0    0 -0.10653295613E+03  0.84424455671E+02  0.86365215776E+01  0.16956517615E+03  0.10100000000E+03 0.  1.
    -200001    1    1    2    0    0  0.87808426941E+02 -0.17540046905E+02 -0.19729622497E+03  0.65016365130E+03  0.61300000000E+03 0.  1.
<mgrwt>
<rscale>  0 0.13645655E+04</rscale>
<asrwt>0</asrwt>
<pdfrwt beam="1">  1        2 0.45617082E-01 0.13645655E+04</pdfrwt>
<pdfrwt beam="2">  1       -2 0.20825969E+00 0.13645655E+04</pdfrwt>
<totfact> 0.12767664E+01</totfact>
</mgrwt>
</event>
<event>
 8    1  0.7583103E-052  0.4063727E+04  0.7818608E-02  0.7991813E-01
         -2   -1    0    0    0  501 -0.00000000000E+00  0.00000000000E+00  0.25079078889E+04  0.25079078889E+04  0.25500000000E-02 0. -1.
          2   -1    0    0  501    0  0.00000000000E+00 -0.00000000000E+00 -0.16461803852E+04  0.16461803852E+04  0.25500000000E-02 0.  1.
     200001    2    1    2    0    0  0.54854399333E+03 -0.28438144756E+03 -0.14458601422E+04  0.16878151619E+04  0.61354311143E+03 0.  0.
    5000001    2    3    3    0    0  0.33205351977E+03  0.74999178973E+02 -0.29449206728E+03  0.45823311753E+03  0.85834698537E+02 0.  0.
        -13    1    4    4    0    0  0.13293920246E+03  0.49299850372E+02 -0.79514125062E+02  0.16256018591E+03  0.10566000000E+00 0. -1.
     200003    1    4    4    0    0  0.19911431732E+03  0.25699328601E+02 -0.21497794222E+03  0.29567293162E+03  0.30000000000E+02 0. -1.
     200000    1    3    3    0    0  0.21649047356E+03 -0.35938062653E+03 -0.11513680750E+04  0.12295820444E+04  0.10100000000E+03 0.  1.
    -200001    1    1    2    0    0 -0.54854399333E+03  0.28438144756E+03  0.23075876459E+04  0.24662731122E+04  0.61300000000E+03 0. -1.
<mgrwt>
<rscale>  0 0.40637267E+04</rscale>
<asrwt>0</asrwt>
<pdfrwt beam="1">  1        2 0.23516863E+00 0.40637267E+04</pdfrwt>
<pdfrwt beam="2">  1       -2 0.35827255E+00 0.40637267E+04</pdfrwt>
<totfact> 0.13382539E-01</totfact>
</mgrwt>
</event>
<event>
 8    1  0.7583103E-052  0.1326216E+04  0.7818608E-02  0.9009030E-01
         -2   -1    0    0    0  501 -0.00000000000E+00  0.00000000000E+00  0.58387400202E+03  0.58387400202E+03  0.25500000000E-02 0. -1.
          2   -1    0    0  501    0  0.00000000000E+00 -0.00000000000E+00 -0.75309442583E+03  0.75309442584E+03  0.25500000000E-02 0.  1.
     200001    2    1    2    0    0  0.25215735885E+03 -0.61202851365E+01 -0.10614126283E+03  0.67110900421E+03  0.61278098562E+03 0.  0.
    5000001    2    3    3    0    0  0.95187593168E+01  0.26466597916E+03  0.85777456812E+01  0.27669787121E+03  0.79683416759E+02 0.  0.
        -13    1    4    4    0    0  0.25744642361E+01  0.23040123166E+03  0.46531475558E+01  0.23046261814E+03  0.10566000000E+00 0. -1.
     200003    1    4    4    0    0  0.69442950807E+01  0.34264747507E+02  0.39245981254E+01  0.46235253069E+02  0.30000000000E+02 0.  1.
     200000    1    3    3    0    0  0.24263859953E+03 -0.27078626430E+03 -0.11471900851E+03  0.39441113300E+03  0.10100000000E+03 0. -1.
    -200001    1    1    2    0    0 -0.25215735885E+03  0.61202851365E+01 -0.63079160984E+02  0.66585942365E+03  0.61300000000E+03 0.  1.
<mgrwt>
<rscale>  0 0.13262161E+04</rscale>
<asrwt>0</asrwt>
<pdfrwt beam="1">  1        2 0.10758492E+00 0.13262161E+04</pdfrwt>
<pdfrwt beam="2">  1       -2 0.83410572E-01 0.13262161E+04</pdfrwt>
<totfact> 0.50624521E+01</totfact>
</mgrwt>
</event>
<event>
 8    1  0.7583103E-052  0.1589504E+04  0.7818608E-02  0.8827022E-01
          2   -1    0    0  501    0  0.00000000000E+00  0.00000000000E+00  0.11379001655E+04  0.11379001655E+04  0.25500000000E-02 0.  1.
         -2   -1    0    0    0  501 -0.00000000000E+00 -0.00000000000E+00 -0.55508478673E+03  0.55508478673E+03  0.25500000000E-02 0. -1.
     200001    2    1    2    0    0  0.29922510494E+03  0.35394898666E+03  0.50625055766E+03  0.92068532102E+03  0.61364182112E+03 0.  0.
    5000001    2    3    3    0    0  0.31048490780E+03  0.29022082853E+03  0.34279147672E+02  0.43370886046E+03  0.79368182473E+02 0.  0.
        -13    1    4    4    0    0 -0.28954651211E+01  0.10200386102E+02  0.38521842437E+01  0.11281936109E+02  0.10566000000E+00 0. -1.
     200003    1    4    4    0    0  0.31338037292E+03  0.28002044243E+03  0.30426963428E+02  0.42242692435E+03  0.30000000000E+02 0. -1.
     200000    1    3    3    0    0 -0.11259802858E+02  0.63728158126E+02  0.47197140999E+03  0.48697646056E+03  0.10100000000E+03 0.  1.
    -200001    1    1    2    0    0 -0.29922510494E+03 -0.35394898666E+03  0.76564821146E+02  0.77229963124E+03  0.61300000000E+03 0.  1.
<mgrwt>
<rscale>  0 0.15895044E+04</rscale>
<asrwt>0</asrwt>
<pdfrwt beam="1">  1        2 0.16255717E+00 0.15895044E+04</pdfrwt>
<pdfrwt beam="2">  1       -2 0.79297827E-01 0.15895044E+04</pdfrwt>
<totfact> 0.31480490E+01</totfact>
</mgrwt>
</event>
<event>
 8    1  0.7583103E-052  0.1939058E+04  0.7818608E-02  0.8635655E-01
          2   -1    0    0  501    0  0.00000000000E+00  0.00000000000E+00  0.15651862873E+04  0.15651862873E+04  0.25500000000E-02 0. -1.
         -2   -1    0    0    0  501 -0.00000000000E+00 -0.00000000000E+00 -0.60055872951E+03  0.60055872951E+03  0.25500000000E-02 0.  1.
     200001    2    1    2    0    0 -0.40193874149E+02  0.57461085375E+03 -0.55615257302E+02  0.84345246881E+03  0.61361700558E+03 0.  0.
    5000001    2    3    3    0    0 -0.25054495137E+03  0.22864520431E+03 -0.19725479502E+03  0.40276826791E+03  0.90892361413E+02 0.  0.
        -13    1    4    4    0    0 -0.11197898050E+03  0.96322623956E+02 -0.39828104613E+02  0.15298244683E+03  0.10566000000E+00 0. -1.
     200003    1    4    4    0    0 -0.13856597088E+03  0.13232258036E+03 -0.15742669041E+03  0.24978582108E+03  0.30000000000E+02 0. -1.
     200000    1    3    3    0    0  0.21035107722E+03  0.34596564944E+03  0.14163953772E+03  0.44068420090E+03  0.10100000000E+03 0.  1.
    -200001    1    1    2    0    0  0.40193874149E+02 -0.57461085375E+03  0.10202428151E+04  0.13222925480E+04  0.61300000000E+03 0. -1.
<mgrwt>
<rscale>  0 0.19390578E+04</rscale>
<asrwt>0</asrwt>
<pdfrwt beam="1">  1        2 0.22359804E+00 0.19390578E+04</pdfrwt>
<pdfrwt beam="2">  1       -2 0.85794104E-01 0.19390578E+04</pdfrwt>
<totfact> 0.14922779E+01</totfact>
</mgrwt>
</event>
<event>
 8    1  0.7583103E-052  0.1386952E+04  0.7818608E-02  0.8963318E-01
          2   -1    0    0  501    0  0.00000000000E+00  0.00000000000E+00  0.16285791504E+04  0.16285791504E+04  0.25500000000E-02 0.  1.
         -2   -1    0    0    0  501 -0.00000000000E+00 -0.00000000000E+00 -0.29529350129E+03  0.29529350130E+03  0.25500000000E-02 0. -1.
     200001    2    1    2    0    0 -0.95676403944E+02  0.27688584719E+03  0.87208934289E+03  0.11027205467E+04  0.60797453528E+03 0.  0.
    5000001    2    3    3    0    0 -0.60955146484E+02  0.40851918288E+03  0.46293880088E+03  0.65984577118E+03  0.22467900597E+03 0.  0.
        -13    1    4    4    0    0 -0.46759616880E+02  0.22301592058E+03  0.95835259362E+02  0.24719824171E+03  0.10566000000E+00 0. -1.
     200003    1    4    4    0    0 -0.14195529604E+02  0.18550326230E+03  0.36710354152E+03  0.41264752947E+03  0.30000000000E+02 0. -1.
     200000    1    3    3    0    0 -0.34721257460E+02 -0.13163333569E+03  0.40915054201E+03  0.44287477555E+03  0.10100000000E+03 0.  1.
    -200001    1    1    2    0    0  0.95676403944E+02 -0.27688584719E+03  0.46119630625E+03  0.82115210500E+03  0.61300000000E+03 0.  1.
<mgrwt>
<rscale>  0 0.13869518E+04</rscale>
<asrwt>0</asrwt>
<pdfrwt beam="1">  1        2 0.23265417E+00 0.13869518E+04</pdfrwt>
<pdfrwt beam="2">  1       -2 0.42184786E-01 0.13869518E+04</pdfrwt>
<totfact> 0.64895206E+01</totfact>
</mgrwt>
</event>
<event>
 8    1  0.7583103E-052  0.1379415E+04  0.7818608E-02  0.8968856E-01
          2   -1    0    0  501    0  0.00000000000E+00  0.00000000000E+00  0.14433983381E+04  0.14433983381E+04  0.25500000000E-02 0.  1.
         -2   -1    0    0    0  501 -0.00000000000E+00 -0.00000000000E+00 -0.32956679516E+03  0.32956679517E+03  0.25500000000E-02 0. -1.
     200001    2    1    2    0    0  0.24431184482E+03 -0.34568443356E+02  0.81105609726E+03  0.10461052945E+04  0.61289561869E+03 0.  0.
    5000001    2    3    3    0    0 -0.41215368716E+02 -0.11945842600E+03  0.66355839838E+03  0.69870254549E+03  0.17862384177E+03 0.  0.
        -13    1    4    4    0    0 -0.36735263097E+02  0.38470016346E+02  0.23551055441E+03  0.24144285890E+03  0.10566000000E+00 0. -1.
     200003    1    4    4    0    0 -0.44801056189E+01 -0.15792844234E+03  0.42804784398E+03  0.45725968659E+03  0.30000000000E+02 0. -1.
     200000    1    3    3    0    0  0.28552721353E+03  0.84889982641E+02  0.14749769888E+03  0.34740274897E+03  0.10100000000E+03 0. -1.
    -200001    1    1    2    0    0 -0.24431184482E+03  0.34568443356E+02  0.30277544571E+03  0.72685983884E+03  0.61300000000E+03 0.  1.
<mgrwt>
<rscale>  0 0.13794146E+04</rscale>
<asrwt>0</asrwt>
<pdfrwt beam="1">  1        2 0.20619977E+00 0.13794146E+04</pdfrwt>
<pdfrwt beam="2">  1       -2 0.47080970E-01 0.13794146E+04</pdfrwt>
<totfact> 0.65375948E+01</totfact>
</mgrwt>
</event>
<event>
 8    1  0.7583103E-052  0.1914613E+04  0.7818608E-02  0.8647616E-01
          2   -1    0    0  501    0  0.00000000000E+00  0.00000000000E+00  0.98366053680E+03  0.98366053680E+03  0.25500000000E-02 0.  1.
         -2   -1    0    0    0  501 -0.00000000000E+00 -0.00000000000E+00 -0.93165866208E+03  0.93165866208E+03  0.25500000000E-02 0. -1.
     200001    2    1    2    0    0 -0.23797312829E+03  0.60594878158E+03 -0.31634802713E+03  0.94823296390E+03  0.61258839678E+03 0.  0.
    5000001    2    3    3    0    0 -0.94767523340E+01 -0.89893102437E+02  0.50537371728E+02  0.12287703021E+03  0.66137432003E+02 0.  0.
        -13    1    4    4    0    0  0.18092600026E+02 -0.15781360382E+02 -0.65458693388E+00  0.24017351213E+02  0.10566000000E+00 0. -1.
     200003    1    4    4    0    0 -0.27569352360E+02 -0.74111742055E+02  0.51191958662E+02  0.98859678998E+02  0.30000000000E+02 0. -1.
     200000    1    3    3    0    0 -0.22849637596E+03  0.69584188402E+03 -0.36688539886E+03  0.82535593369E+03  0.10100000000E+03 0. -1.
    -200001    1    1    2    0    0  0.23797312829E+03 -0.60594878158E+03  0.36834990185E+03  0.96708623498E+03  0.61300000000E+03 0.  1.
<mgrwt>
<rscale>  0 0.19146131E+04</rscale>
<asrwt>0</asrwt>
<pdfrwt beam="1">  1        2 0.14052293E+00 0.19146131E+04</pdfrwt>
<pdfrwt beam="2">  1       -2 0.13309409E+00 0.19146131E+04</pdfrwt>
<totfact> 0.11041729E+01</totfact>
</mgrwt>
</event>
<event>
 8    1  0.7583103E-052  0.1591274E+04  0.7818608E-02  0.8825927E-01
          2   -1    0    0  501    0  0.00000000000E+00  0.00000000000E+00  0.60977395666E+03  0.60977395666E+03  0.25500000000E-02 0.  1.
         -2   -1    0    0    0  501 -0.00000000000E+00 -0.00000000000E+00 -0.10381521122E+04  0.10381521122E+04  0.25500000000E-02 0. -1.
     200001    2    1    2    0    0 -0.52708242695E+02  0.50412267307E+03 -0.23556598845E+03  0.82947426203E+03  0.61287713948E+03 0.  0.
    5000001    2    3    3    0    0 -0.13811198650E+03  0.60720703311E+03 -0.18896016632E+03  0.65542459269E+03  0.78103459398E+02 0.  0.
        -13    1    4    4    0    0 -0.45530474855E+02  0.10077934578E+03 -0.49808811696E+02  0.12128655969E+03  0.10566000000E+00 0. -1.
     200003    1    4    4    0    0 -0.92581511643E+02  0.50642768734E+03 -0.13915135462E+03  0.53413803300E+03  0.30000000000E+02 0. -1.
     200000    1    3    3    0    0  0.85403743803E+02 -0.10308436004E+03 -0.46605822132E+02  0.17404966934E+03  0.10100000000E+03 0.  1.
    -200001    1    1    2    0    0  0.52708242695E+02 -0.50412267307E+03 -0.19281216711E+03  0.81845180685E+03  0.61300000000E+03 0.  1.
<mgrwt>
<rscale>  0 0.15912739E+04</rscale>
<asrwt>0</asrwt>
<pdfrwt beam="1">  1        2 0.87110566E-01 0.15912739E+04</pdfrwt>
<pdfrwt beam="2">  1       -2 0.14830744E+00 0.15912739E+04</pdfrwt>
<totfact> 0.15797031E+01</totfact>
</mgrwt>
</event>
<event>
 8    1  0.7583103E-052  0.1752624E+04  0.7818608E-02  0.8731907E-01
          2   -1    0    0  501    0  0.00000000000E+00  0.00000000000E+00  0.38516096850E+03  0.38516096851E+03  0.25500000000E-02 0.  1.
         -2   -1    0    0    0  501 -0.00000000000E+00 -0.00000000000E+00 -0.19937717210E+04  0.19937717210E+04  0.25500000000E-02 0. -1.
     200001    2    1    2    0    0 -0.79028578086E+02  0.60577533093E+03 -0.62645700419E+03  0.10698856113E+04  0.61562778967E+03 0.  0.
    5000001    2    3    3    0    0  0.13890363237E+02  0.43839921049E+03 -0.70827450510E+03  0.83849028115E+03  0.95007194766E+02 0.  0.
        -13    1    4    4    0    0 -0.28468215201E+02  0.22158153260E+03 -0.31080626258E+03  0.38276540973E+03  0.10566000000E+00 0. -1.
     200003    1    4    4    0    0  0.42358578438E+02  0.21681767788E+03 -0.39746824253E+03  0.45572487142E+03  0.30000000000E+02 0. -1.
     200000    1    3    3    0    0 -0.92918941323E+02  0.16737612044E+03  0.81817500912E+02  0.23139533013E+03  0.10100000000E+03 0.  1.
    -200001    1    1    2    0    0  0.79028578086E+02 -0.60577533093E+03 -0.98215374833E+03  0.13090470782E+04  0.61300000000E+03 0. -1.
<mgrwt>
<rscale>  0 0.17526244E+04</rscale>
<asrwt>0</asrwt>
<pdfrwt beam="1">  1        2 0.55022997E-01 0.17526244E+04</pdfrwt>
<pdfrwt beam="2">  1       -2 0.28482453E+00 0.17526244E+04</pdfrwt>
<totfact> 0.33779840E+00</totfact>
</mgrwt>
</event>
<event>
 8    1  0.7583103E-052  0.1617837E+04  0.7818608E-02  0.8809665E-01
         -2   -1    0    0    0  501 -0.00000000000E+00  0.00000000000E+00  0.57999410059E+03  0.57999410060E+03  0.25500000000E-02 0. -1.
          2   -1    0    0  501    0  0.00000000000E+00 -0.00000000000E+00 -0.11281992713E+04  0.11281992713E+04  0.25500000000E-02 0.  1.
     200001    2    1    2    0    0 -0.35609119121E+03  0.38482562971E+03 -0.33687342997E+03  0.87433378758E+03  0.61325701182E+03 0.  0.
    5000001    2    3    3    0    0 -0.86434732976E+02  0.46468052366E+03 -0.87584470322E+02  0.48518420843E+03  0.65831030189E+02 0.  0.
        -13    1    4    4    0    0 -0.51403443094E+01  0.56372554880E+02 -0.29277675270E+02  0.63729753778E+02  0.10566000000E+00 0. -1.
     200003    1    4    4    0    0 -0.81294388667E+02  0.40830796878E+03 -0.58306795051E+02  0.42145445465E+03  0.30000000000E+02 0. -1.
     200000    1    3    3    0    0 -0.26965645823E+03 -0.79854893943E+02 -0.24928895965E+03  0.38914957915E+03  0.10100000000E+03 0.  1.
    -200001    1    1    2    0    0  0.35609119121E+03 -0.38482562971E+03 -0.21133174077E+03  0.83385958434E+03  0.61300000000E+03 0.  1.
<mgrwt>
<rscale>  0 0.16178367E+04</rscale>
<asrwt>0</asrwt>
<pdfrwt beam="1">  1        2 0.16117132E+00 0.16178367E+04</pdfrwt>
<pdfrwt beam="2">  1       -2 0.82856300E-01 0.16178367E+04</pdfrwt>
<totfact> 0.28826842E+01</totfact>
</mgrwt>
</event>
<event>
 8    1  0.7583103E-052  0.1573888E+04  0.7818608E-02  0.8836752E-01
          2   -1    0    0  501    0  0.00000000000E+00  0.00000000000E+00  0.41103445108E+04  0.41103445108E+04  0.25500000000E-02 0.  1.
         -2   -1    0    0    0  501 -0.00000000000E+00 -0.00000000000E+00 -0.15066396277E+03  0.15066396279E+03  0.25500000000E-02 0. -1.
     200001    2    1    2    0    0 -0.70427046030E+02  0.48777517518E+03  0.20743381790E+04  0.22181747949E+04  0.61199342280E+03 0.  0.
    5000001    2    3    3    0    0  0.17100667230E+03  0.43284077320E+03  0.96785656197E+03  0.10798380268E+04  0.11273607488E+03 0.  0.
        -13    1    4    4    0    0  0.66187923203E+02  0.26715774536E+03  0.63973475777E+03  0.69642994877E+03  0.10566000000E+00 0. -1.
     200003    1    4    4    0    0  0.10481874910E+03  0.16568302784E+03  0.32812180420E+03  0.38340807799E+03  0.30000000000E+02 0. -1.
     200000    1    3    3    0    0 -0.24143371833E+03  0.54934401976E+02  0.11064816171E+04  0.11383367682E+04  0.10100000000E+03 0.  1.
    -200001    1    1    2    0    0  0.70427046030E+02 -0.48777517518E+03  0.18853423690E+04  0.20428336787E+04  0.61300000000E+03 0. -1.
<mgrwt>
<rscale>  0 0.15738879E+04</rscale>
<asrwt>0</asrwt>
<pdfrwt beam="1">  1        2 0.58719205E+00 0.15738879E+04</pdfrwt>
<pdfrwt beam="2">  1       -2 0.21523424E-01 0.15738879E+04</pdfrwt>
<totfact> 0.87682128E+00</totfact>
</mgrwt>
</event>
<event>
 8    1  0.7583103E-052  0.1520926E+04  0.7818608E-02  0.8870656E-01
         -2   -1    0    0    0  501 -0.00000000000E+00  0.00000000000E+00  0.17176240972E+03  0.17176240974E+03  0.25500000000E-02 0. -1.
          2   -1    0    0  501    0  0.00000000000E+00 -0.00000000000E+00 -0.33668823915E+04  0.33668823915E+04  0.25500000000E-02 0.  1.
     200001    2    1    2    0    0 -0.30230482058E+03 -0.33095761020E+03 -0.16839737143E+04  0.18474164944E+04  0.61339961600E+03 0.  0.
    5000001    2    3    3    0    0 -0.35121560227E+03  0.10426100343E+01 -0.52868608801E+03  0.64014398566E+03  0.83197694747E+02 0.  0.
        -13    1    4    4    0    0 -0.90219918672E+02  0.25620310376E+02 -0.10289862677E+03  0.13922705407E+03  0.10566000000E+00 0. -1.
     200003    1    4    4    0    0 -0.26099568360E+03 -0.24577700341E+02 -0.42578746123E+03  0.50091693159E+03  0.30000000000E+02 0. -1.
     200000    1    3    3    0    0  0.48910781697E+02 -0.33200022024E+03 -0.11552876263E+04  0.12072725087E+04  0.10100000000E+03 0. -1.
    -200001    1    1    2    0    0  0.30230482058E+03  0.33095761020E+03 -0.15111462675E+04  0.16912283069E+04  0.61300000000E+03 0.  1.
<mgrwt>
<rscale>  0 0.15209258E+04</rscale>
<asrwt>0</asrwt>
<pdfrwt beam="1">  1        2 0.48098316E+00 0.15209258E+04</pdfrwt>
<pdfrwt beam="2">  1       -2 0.24537489E-01 0.15209258E+04</pdfrwt>
<totfact> 0.20922328E+01</totfact>
</mgrwt>
</event>
<event>
 8    1  0.7583103E-052  0.1644445E+04  0.7818608E-02  0.8793700E-01
         -2   -1    0    0    0  501 -0.00000000000E+00  0.00000000000E+00  0.16197100947E+03  0.16197100949E+03  0.25500000000E-02 0. -1.
          2   -1    0    0  501    0  0.00000000000E+00 -0.00000000000E+00 -0.41738931737E+04  0.41738931737E+04  0.25500000000E-02 0.  1.
     200001    2    1    2    0    0  0.52267767815E+03 -0.24992118957E+02 -0.15827657923E+04  0.17764919476E+04  0.61397029667E+03 0.  0.
    5000001    2    3    3    0    0  0.29999512044E+03 -0.14242489448E+03 -0.14091366946E+04  0.14544266718E+04  0.13931545783E+03 0.  0.
        -13    1    4    4    0    0  0.46039574730E+02 -0.13850277336E+02 -0.69210727174E+02  0.84271042141E+02  0.10566000000E+00 0. -1.
     200003    1    4    4    0    0  0.25395554571E+03 -0.12857461714E+03 -0.13399259674E+04  0.13701556297E+04  0.30000000000E+02 0. -1.
     200000    1    3    3    0    0  0.22268255771E+03  0.11743277552E+03 -0.17362909776E+03  0.32206527578E+03  0.10100000000E+03 0. -1.
    -200001    1    1    2    0    0 -0.52267767815E+03  0.24992118957E+02 -0.24291563719E+04  0.25593722356E+04  0.61300000000E+03 0.  1.
<mgrwt>
<rscale>  0 0.16444448E+04</rscale>
<asrwt>0</asrwt>
<pdfrwt beam="1">  1        2 0.59627039E+00 0.16444448E+04</pdfrwt>
<pdfrwt beam="2">  1       -2 0.23138718E-01 0.16444448E+04</pdfrwt>
<totfact> 0.68948250E+00</totfact>
</mgrwt>
</event>
<event>
 8    1  0.7583103E-052  0.1239115E+04  0.7818608E-02  0.9079292E-01
         -2   -1    0    0    0  501 -0.00000000000E+00  0.00000000000E+00  0.42537057972E+03  0.42537057973E+03  0.25500000000E-02 0. -1.
          2   -1    0    0  501    0  0.00000000000E+00 -0.00000000000E+00 -0.90239323206E+03  0.90239323206E+03  0.25500000000E-02 0.  1.
     200001    2    1    2    0    0  0.61089972799E+02  0.67422808157E+02 -0.22000799862E+03  0.65686638888E+03  0.61220267359E+03 0.  0.
    5000001    2    3    3    0    0  0.11321234702E+03 -0.91078311084E+02  0.13866230097E+03  0.24859597544E+03  0.14649379177E+03 0.  0.
        -13    1    4    4    0    0  0.92614525956E+02  0.86107613238E+01  0.32609263924E+02  0.98564551875E+02  0.10566000000E+00 0. -1.
     200003    1    4    4    0    0  0.20597821066E+02 -0.99689072407E+02  0.10605303704E+03  0.15003142356E+03  0.30000000000E+02 0. -1.
     200000    1    3    3    0    0 -0.52122374223E+02  0.15850111924E+03 -0.35867029958E+03  0.40827041345E+03  0.10100000000E+03 0.  1.
    -200001    1    1    2    0    0 -0.61089972799E+02 -0.67422808157E+02 -0.25701465372E+03  0.67089742291E+03  0.61300000000E+03 0.  1.
<mgrwt>
<rscale>  0 0.12391151E+04</rscale>
<asrwt>0</asrwt>
<pdfrwt beam="1">  1        2 0.12891332E+00 0.12391151E+04</pdfrwt>
<pdfrwt beam="2">  1       -2 0.60767226E-01 0.12391151E+04</pdfrwt>
<totfact> 0.80465641E+01</totfact>
</mgrwt>
</event>
<event>
 8    1  0.7583103E-052  0.1524264E+04  0.7818608E-02  0.8868476E-01
         -2   -1    0    0    0  501 -0.00000000000E+00  0.00000000000E+00  0.43291901572E+03  0.43291901572E+03  0.25500000000E-02 0. -1.
          2   -1    0    0  501    0  0.00000000000E+00 -0.00000000000E+00 -0.13416955247E+04  0.13416955247E+04  0.25500000000E-02 0.  1.
     200001    2    1    2    0    0 -0.14705837315E+03 -0.30500822069E+03 -0.80458777347E+03  0.10666029075E+04  0.61288179712E+03 0.  0.
    5000001    2    3    3    0    0 -0.16889452331E+02 -0.90494201336E+02 -0.24322113232E+03  0.44347072388E+03  0.35921485167E+03 0.  0.
        -13    1    4    4    0    0 -0.43027849470E+01 -0.15849421284E+02  0.94579462375E+02  0.95994812258E+02  0.10566000000E+00 0. -1.
     200003    1    4    4    0    0 -0.12586667384E+02 -0.74644780052E+02 -0.33780059469E+03  0.34747591163E+03  0.30000000000E+02 0. -1.
     200000    1    3    3    0    0 -0.13016892082E+03 -0.21451401936E+03 -0.56136664115E+03  0.62313218361E+03  0.10100000000E+03 0.  1.
    -200001    1    1    2    0    0  0.14705837315E+03  0.30500822069E+03 -0.10418873554E+03  0.70801163297E+03  0.61300000000E+03 0. -1.
<mgrwt>
<rscale>  0 0.15242644E+04</rscale>
<asrwt>0</asrwt>
<pdfrwt beam="1">  1        2 0.19167079E+00 0.15242644E+04</pdfrwt>
<pdfrwt beam="2">  1       -2 0.61845575E-01 0.15242644E+04</pdfrwt>
<totfact> 0.41770594E+01</totfact>
</mgrwt>
</event>
<event>
 8    1  0.7583103E-052  0.1285982E+04  0.7818608E-02  0.9040756E-01
         -2   -1    0    0    0  501 -0.00000000000E+00  0.00000000000E+00  0.23470387821E+03  0.23470387823E+03  0.25500000000E-02 0. -1.
          2   -1    0    0  501    0  0.00000000000E+00 -0.00000000000E+00 -0.17615273485E+04  0.17615273485E+04  0.25500000000E-02 0.  1.
     200001    2    1    2    0    0 -0.10583424382E+03 -0.61323039210E+02 -0.52870068191E+03  0.81853028720E+03  0.61278545814E+03 0.  0.
    5000001    2    3    3    0    0  0.13143103081E+03 -0.22349911853E+03 -0.22065420884E+03  0.38529880079E+03  0.18039100356E+03 0.  0.
        -13    1    4    4    0    0  0.25212350299E+02  0.19808404429E+02  0.86585889101E+01  0.33211712085E+02  0.10566000000E+00 0. -1.
     200003    1    4    4    0    0  0.10621868052E+03 -0.24330752295E+03 -0.22931279775E+03  0.35208708870E+03  0.30000000000E+02 0. -1.
     200000    1    3    3    0    0 -0.23726527464E+03  0.16217607931E+03 -0.30804647306E+03  0.43323148641E+03  0.10100000000E+03 0.  1.
    -200001    1    1    2    0    0  0.10583424382E+03  0.61323039210E+02 -0.99812278842E+03  0.11777009396E+04  0.61300000000E+03 0.  1.
<mgrwt>
<rscale>  0 0.12859818E+04</rscale>
<asrwt>0</asrwt>
<pdfrwt beam="1">  1        2 0.25164676E+00 0.12859818E+04</pdfrwt>
<pdfrwt beam="2">  1       -2 0.33529126E-01 0.12859818E+04</pdfrwt>
<totfact> 0.86925299E+01</totfact>
</mgrwt>
</event>
<event>
 8    1  0.7583103E-052  0.1298133E+04  0.7818608E-02  0.9031047E-01
         -2   -1    0    0    0  501 -0.00000000000E+00  0.00000000000E+00  0.98213432336E+03  0.98213432336E+03  0.25500000000E-02 0. -1.
          2   -1    0    0  501    0  0.00000000000E+00 -0.00000000000E+00 -0.42895103401E+03  0.42895103402E+03  0.25500000000E-02 0.  1.
     200001    2    1    2    0    0 -0.95324073501E+02  0.16300840302E+03  0.40576223308E+03  0.75293614461E+03  0.60548445861E+03 0.  0.
    5000001    2    3    3    0    0 -0.25780741828E+03 -0.44377948025E+02  0.24844467464E+02  0.27890104032E+03  0.93458416091E+02 0.  0.
        -13    1    4    4    0    0 -0.82046819831E+01  0.17065521859E+02  0.31328128468E+01  0.19193085295E+02  0.10566000000E+00 0. -1.
     200003    1    4    4    0    0 -0.24960273630E+03 -0.61443469884E+02  0.21711654617E+02  0.25970795503E+03  0.30000000000E+02 0. -1.
     200000    1    3    3    0    0  0.16248334478E+03  0.20738635105E+03  0.38091776562E+03  0.47403510429E+03  0.10100000000E+03 0. -1.
    -200001    1    1    2    0    0  0.95324073501E+02 -0.16300840302E+03  0.14742105627E+03  0.65814921277E+03  0.61300000000E+03 0.  1.
<mgrwt>
<rscale>  0 0.12981333E+04</rscale>
<asrwt>0</asrwt>
<pdfrwt beam="1">  1        2 0.61278719E-01 0.12981333E+04</pdfrwt>
<pdfrwt beam="2">  1       -2 0.14030490E+00 0.12981333E+04</pdfrwt>
<totfact> 0.28004017E+01</totfact>
</mgrwt>
</event>
<event>
 8    1  0.7583103E-052  0.1335854E+04  0.7818608E-02  0.9001606E-01
         -2   -1    0    0    0  501 -0.00000000000E+00  0.00000000000E+00  0.69032354058E+03  0.69032354058E+03  0.25500000000E-02 0. -1.
          2   -1    0    0  501    0  0.00000000000E+00 -0.00000000000E+00 -0.64625732816E+03  0.64625732817E+03  0.25500000000E-02 0.  1.
     200001    2    1    2    0    0  0.75746932089E+01 -0.13328971451E+03  0.25092249161E+03  0.67598867669E+03  0.61333112610E+03 0.  0.
    5000001    2    3    3    0    0 -0.16213609099E+03 -0.12664244701E+03 -0.12087721256E+03  0.25494003762E+03  0.89759126982E+02 0.  0.
        -13    1    4    4    0    0 -0.39256970150E+02 -0.46659248091E+02 -0.78500832842E+02  0.99401142140E+02  0.10566000000E+00 0. -1.
     200003    1    4    4    0    0 -0.12287912084E+03 -0.79983198919E+02 -0.42376379723E+02  0.15553889548E+03  0.30000000000E+02 0. -1.
     200000    1    3    3    0    0  0.16971078420E+03 -0.66472674972E+01  0.37179970418E+03  0.42104863907E+03  0.10100000000E+03 0.  1.
    -200001    1    1    2    0    0 -0.75746932089E+01  0.13328971451E+03 -0.20685627920E+03  0.66059219206E+03  0.61300000000E+03 0.  1.
<mgrwt>
<rscale>  0 0.13358543E+04</rscale>
<asrwt>0</asrwt>
<pdfrwt beam="1">  1        2 0.92322476E-01 0.13358543E+04</pdfrwt>
<pdfrwt beam="2">  1       -2 0.98617649E-01 0.13358543E+04</pdfrwt>
<totfact> 0.41496834E+01</totfact>
</mgrwt>
</event>
<event>
 8    1  0.7583103E-052  0.1307793E+04  0.7818608E-02  0.9023408E-01
         -2   -1    0    0    0  501 -0.00000000000E+00  0.00000000000E+00  0.15933836847E+03  0.15933836850E+03  0.25500000000E-02 0. -1.
          2   -1    0    0  501    0  0.00000000000E+00 -0.00000000000E+00 -0.26834740921E+04  0.26834740921E+04  0.25500000000E-02 0.  1.
     200001    2    1    2    0    0  0.14802714726E+03 -0.16471607142E+03 -0.13751901216E+04  0.15218702147E+04  0.61310493346E+03 0.  0.
    5000001    2    3    3    0    0  0.20874298370E+02  0.17273937206E+03 -0.77364612675E+03  0.81327992334E+03  0.18061361322E+03 0.  0.
        -13    1    4    4    0    0  0.14852423754E+02 -0.23828246423E+02 -0.21763844918E+02  0.35525426508E+02  0.10566000000E+00 0. -1.
     200003    1    4    4    0    0  0.60218746164E+01  0.19656761848E+03 -0.75188228183E+03  0.77775449683E+03  0.30000000000E+02 0. -1.
     200000    1    3    3    0    0  0.12715284889E+03 -0.33745544348E+03 -0.60154399485E+03  0.70859029139E+03  0.10100000000E+03 0.  1.
    -200001    1    1    2    0    0 -0.14802714726E+03  0.16471607142E+03 -0.11489456021E+04  0.13209422459E+04  0.61300000000E+03 0. -1.
<mgrwt>
<rscale>  0 0.13077926E+04</rscale>
<asrwt>0</asrwt>
<pdfrwt beam="1">  1        2 0.38335342E+00 0.13077926E+04</pdfrwt>
<pdfrwt beam="2">  1       -2 0.22762626E-01 0.13077926E+04</pdfrwt>
<totfact> 0.58886359E+01</totfact>
</mgrwt>
</event>
<event>
 8    1  0.7583103E-052  0.1719522E+04  0.7818608E-02  0.8750308E-01
          2   -1    0    0  501    0  0.00000000000E+00  0.00000000000E+00  0.33928386910E+04  0.33928386910E+04  0.25500000000E-02 0.  1.
         -2   -1    0    0    0  501 -0.00000000000E+00 -0.00000000000E+00 -0.21786745881E+03  0.21786745882E+03  0.25500000000E-02 0. -1.
     200001    2    1    2    0    0 -0.36799568699E+03  0.25276802059E+03  0.73105628929E+03  0.10518388719E+04  0.61041724784E+03 0.  0.
    5000001    2    3    3    0    0 -0.28409087122E+03  0.13237698717E+03  0.76393945874E+03  0.87068611352E+03  0.27615126620E+03 0.  0.
        -13    1    4    4    0    0 -0.67989462178E+02  0.13427911207E+03  0.52929124197E+03  0.55027509202E+03  0.10566000000E+00 0. -1.
     200003    1    4    4    0    0 -0.21610140905E+03 -0.19021248945E+01  0.23464821677E+03  0.32041102151E+03  0.30000000000E+02 0. -1.
     200000    1    3    3    0    0 -0.83904815767E+02  0.12039103342E+03 -0.32883169445E+02  0.18115275838E+03  0.10100000000E+03 0. -1.
    -200001    1    1    2    0    0  0.36799568699E+03 -0.25276802059E+03  0.24439149429E+04  0.25588672779E+04  0.61300000000E+03 0. -1.
<mgrwt>
<rscale>  0 0.17195222E+04</rscale>
<asrwt>0</asrwt>
<pdfrwt beam="1">  1        2 0.48469119E+00 0.17195222E+04</pdfrwt>
<pdfrwt beam="2">  1       -2 0.31123926E-01 0.17195222E+04</pdfrwt>
<totfact> 0.12797896E+01</totfact>
</mgrwt>
</event>
<event>
 8    1  0.7583103E-052  0.1831349E+04  0.7818608E-02  0.8689804E-01
          2   -1    0    0  501    0  0.00000000000E+00  0.00000000000E+00  0.18475509964E+04  0.18475509964E+04  0.25500000000E-02 0.  1.
         -2   -1    0    0    0  501 -0.00000000000E+00 -0.00000000000E+00 -0.45382219081E+03  0.45382219082E+03  0.25500000000E-02 0. -1.
     200001    2    1    2    0    0  0.32118349375E+03  0.17667699158E+03  0.14169274943E+04  0.15867538653E+04  0.61296876665E+03 0.  0.
    5000001    2    3    3    0    0 -0.95746805530E+02  0.11151108882E+03  0.88742201065E+03  0.90217039591E+03  0.69220116774E+02 0.  0.
        -13    1    4    4    0    0 -0.19764411538E+02  0.21497819325E+02  0.34795049939E+03  0.34917380972E+03  0.10566000000E+00 0. -1.
     200003    1    4    4    0    0 -0.75982393993E+02  0.90013269497E+02  0.53947151126E+03  0.55299658619E+03  0.30000000000E+02 0. -1.
     200000    1    3    3    0    0  0.41693029928E+03  0.65165902756E+02  0.52950548369E+03  0.68458346942E+03  0.10100000000E+03 0.  1.
    -200001    1    1    2    0    0 -0.32118349375E+03 -0.17667699158E+03 -0.23198688785E+02  0.71461932186E+03  0.61300000000E+03 0. -1.
<mgrwt>
<rscale>  0 0.18313488E+04</rscale>
<asrwt>0</asrwt>
<pdfrwt beam="1">  1        2 0.26393586E+00 0.18313488E+04</pdfrwt>
<pdfrwt beam="2">  1       -2 0.64831741E-01 0.18313488E+04</pdfrwt>
<totfact> 0.19940080E+01</totfact>
</mgrwt>
</event>
<event>
 8    1  0.7583103E-052  0.1228853E+04  0.7818608E-02  0.9087970E-01
         -2   -1    0    0    0  501 -0.00000000000E+00  0.00000000000E+00  0.30779209528E+03  0.30779209529E+03  0.25500000000E-02 0. -1.
          2   -1    0    0  501    0  0.00000000000E+00 -0.00000000000E+00 -0.12265416134E+04  0.12265416134E+04  0.25500000000E-02 0.  1.
     200001    2    1    2    0    0  0.33486804510E+02 -0.30356954509E+02 -0.45112257023E+03  0.76200808232E+03  0.61245557666E+03 0.  0.
    5000001    2    3    3    0    0  0.53550071298E+01  0.15996929446E+03  0.70799920959E+02  0.19665901680E+03  0.89684384424E+02 0.  0.
        -13    1    4    4    0    0  0.16862730728E+02  0.75450273838E+02  0.72832895684E+02  0.10621552319E+03  0.10566000000E+00 0. -1.
     200003    1    4    4    0    0 -0.11507723598E+02  0.84519020622E+02 -0.20329747247E+01  0.90443493605E+02  0.30000000000E+02 0.  1.
     200000    1    3    3    0    0  0.28131797380E+02 -0.19032624897E+03 -0.52192249119E+03  0.56534906552E+03  0.10100000000E+03 0.  1.
    -200001    1    1    2    0    0 -0.33486804510E+02  0.30356954509E+02 -0.46762694787E+03  0.77232562636E+03  0.61300000000E+03 0.  1.
<mgrwt>
<rscale>  0 0.12288528E+04</rscale>
<asrwt>0</asrwt>
<pdfrwt beam="1">  1        2 0.17522023E+00 0.12288528E+04</pdfrwt>
<pdfrwt beam="2">  1       -2 0.43970300E-01 0.12288528E+04</pdfrwt>
<totfact> 0.99680581E+01</totfact>
</mgrwt>
</event>
<event>
 8    1  0.7583103E-052  0.1421464E+04  0.7818608E-02  0.8938427E-01
          2   -1    0    0  501    0  0.00000000000E+00  0.00000000000E+00  0.17479546632E+04  0.17479546632E+04  0.25500000000E-02 0.  1.
         -2   -1    0    0    0  501 -0.00000000000E+00 -0.00000000000E+00 -0.28898899404E+03  0.28898899405E+03  0.25500000000E-02 0. -1.
     200001    2    1    2    0    0 -0.20062098387E+03  0.22703961897E+03  0.10090393016E+04  0.12184092939E+04  0.61201726081E+03 0.  0.
    5000001    2    3    3    0    0 -0.17166099982E+03 -0.17302716696E+03  0.50335865791E+03  0.56510536211E+03  0.81044632337E+02 0.  0.
        -13    1    4    4    0    0 -0.12475282281E+03 -0.12301798098E+03  0.40689779971E+03  0.44301526048E+03  0.10566000000E+00 0. -1.
     200003    1    4    4    0    0 -0.46908177005E+02 -0.50009185977E+02  0.96460858198E+02  0.12209010163E+03  0.30000000000E+02 0. -1.
     200000    1    3    3    0    0 -0.28959984050E+02  0.40006678593E+03  0.50568064366E+03  0.65330393176E+03  0.10100000000E+03 0. -1.
    -200001    1    1    2    0    0  0.20062098387E+03 -0.22703961897E+03  0.44992636756E+03  0.81853436334E+03  0.61300000000E+03 0. -1.
<mgrwt>
<rscale>  0 0.14214636E+04</rscale>
<asrwt>0</asrwt>
<pdfrwt beam="1">  1        2 0.24970781E+00 0.14214636E+04</pdfrwt>
<pdfrwt beam="2">  1       -2 0.41284142E-01 0.14214636E+04</pdfrwt>
<totfact> 0.58540114E+01</totfact>
</mgrwt>
</event>
<event>
 8    1  0.7583103E-052  0.2217014E+04  0.7818608E-02  0.8511380E-01
          2   -1    0    0  501    0  0.00000000000E+00  0.00000000000E+00  0.31213158365E+04  0.31213158365E+04  0.25500000000E-02 0.  1.
         -2   -1    0    0    0  501 -0.00000000000E+00 -0.00000000000E+00 -0.39367614294E+03  0.39367614295E+03  0.25500000000E-02 0. -1.
     200001    2    1    2    0    0  0.79971532035E+03  0.94853594974E+02  0.20804379351E+04  0.23136673296E+04  0.61342702291E+03 0.  0.
    5000001    2    3    3    0    0  0.25673765853E+03  0.18222146256E+03  0.13331802459E+04  0.13803651601E+04  0.17005740385E+03 0.  0.
        -13    1    4    4    0    0  0.59812110719E+02 -0.29814653112E+02  0.25949393883E+03  0.26796178381E+03  0.10566000000E+00 0. -1.
     200003    1    4    4    0    0  0.19692554781E+03  0.21203611568E+03  0.10736863070E+04  0.11124033763E+04  0.30000000000E+02 0. -1.
     200000    1    3    3    0    0  0.54297766181E+03 -0.87367867591E+02  0.74725768921E+03  0.93330216950E+03  0.10100000000E+03 0.  1.
    -200001    1    1    2    0    0 -0.79971532035E+03 -0.94853594974E+02  0.64720175850E+03  0.12013246498E+04  0.61300000000E+03 0. -1.
<mgrwt>
<rscale>  0 0.22170138E+04</rscale>
<asrwt>0</asrwt>
<pdfrwt beam="1">  1        2 0.44590226E+00 0.22170138E+04</pdfrwt>
<pdfrwt beam="2">  1       -2 0.56239449E-01 0.22170138E+04</pdfrwt>
<totfact> 0.54807577E+00</totfact>
</mgrwt>
</event>
<event>
 8    1  0.7583103E-052  0.1267816E+04  0.7818608E-02  0.9055484E-01
          2   -1    0    0  501    0  0.00000000000E+00  0.00000000000E+00  0.36424190949E+04  0.36424190949E+04  0.25500000000E-02 0.  1.
         -2   -1    0    0    0  501 -0.00000000000E+00 -0.00000000000E+00 -0.11032208643E+03  0.11032208646E+03  0.25500000000E-02 0. -1.
     200001    2    1    2    0    0  0.98040768936E+02  0.65066769525E+02  0.20892595758E+04  0.21806742191E+04  0.61358682980E+03 0.  0.
    5000001    2    3    3    0    0  0.23825010255E+03  0.20542249924E+03  0.70435429287E+03  0.77799035204E+03  0.10095792895E+03 0.  0.
        -13    1    4    4    0    0 -0.91958331638E+01  0.10426576195E+02  0.31019417604E+02  0.33992532581E+02  0.10566000000E+00 0. -1.
     200003    1    4    4    0    0  0.24744593572E+03  0.19499592304E+03  0.67333487527E+03  0.74399781946E+03  0.30000000000E+02 0. -1.
     200000    1    3    3    0    0 -0.14020933362E+03 -0.14035572971E+03  0.13849052830E+04  0.14026838670E+04  0.10100000000E+03 0. -1.
    -200001    1    1    2    0    0 -0.98040768936E+02 -0.65066769525E+02  0.14428374327E+04  0.15720669623E+04  0.61300000000E+03 0. -1.
<mgrwt>
<rscale>  0 0.12678159E+04</rscale>
<asrwt>0</asrwt>
<pdfrwt beam="1">  1        2 0.52034545E+00 0.12678159E+04</pdfrwt>
<pdfrwt beam="2">  1       -2 0.15760302E-01 0.12678159E+04</pdfrwt>
<totfact> 0.31753499E+01</totfact>
</mgrwt>
</event>
<event>
 8    1  0.7583103E-052  0.3066111E+04  0.7818608E-02  0.8225101E-01
          2   -1    0    0  501    0  0.00000000000E+00  0.00000000000E+00  0.34647236169E+04  0.34647236169E+04  0.25500000000E-02 0.  1.
         -2   -1    0    0    0  501 -0.00000000000E+00 -0.00000000000E+00 -0.67833941096E+03  0.67833941096E+03  0.25500000000E-02 0. -1.
     200001    2    1    2    0    0  0.11181002398E+04 -0.81839783553E+03  0.10755946933E+04  0.18577856005E+04  0.61199691971E+03 0.  0.
    5000001    2    3    3    0    0  0.75188207869E+03 -0.31930380785E+03  0.86269236725E+03  0.11954118462E+04  0.13224892990E+03 0.  0.
        -13    1    4    4    0    0  0.65039674509E+03 -0.23368895564E+03  0.70896455476E+03  0.99007939332E+03  0.10566000000E+00 0. -1.
     200003    1    4    4    0    0  0.10148533360E+03 -0.85614852201E+02  0.15372781250E+03  0.20533245284E+03  0.30000000000E+02 0.  1.
     200000    1    3    3    0    0  0.36621816111E+03 -0.49909402769E+03  0.21290232602E+03  0.66237375433E+03  0.10100000000E+03 0. -1.
    -200001    1    1    2    0    0 -0.11181002398E+04  0.81839783553E+03  0.17107895127E+04  0.22852774274E+04  0.61300000000E+03 0. -1.
<mgrwt>
<rscale>  0 0.30661106E+04</rscale>
<asrwt>0</asrwt>
<pdfrwt beam="1">  1        2 0.49496051E+00 0.30661106E+04</pdfrwt>
<pdfrwt beam="2">  1       -2 0.96905632E-01 0.30661106E+04</pdfrwt>
<totfact> 0.96270734E-01</totfact>
</mgrwt>
</event>
<event>
 8    1  0.7583103E-052  0.1420457E+04  0.7818608E-02  0.8939142E-01
         -2   -1    0    0    0  501 -0.00000000000E+00  0.00000000000E+00  0.16915806007E+03  0.16915806009E+03  0.25500000000E-02 0. -1.
          2   -1    0    0  501    0  0.00000000000E+00 -0.00000000000E+00 -0.29819729662E+04  0.29819729662E+04  0.25500000000E-02 0.  1.
     200001    2    1    2    0    0  0.78372678516E+02  0.33514290777E+03 -0.11824570834E+04  0.13756596310E+04  0.61300213777E+03 0.  0.
    5000001    2    3    3    0    0 -0.10911953910E+03 -0.26787583120E+02 -0.70712943052E+02  0.18724764625E+03  0.13204814382E+03 0.  0.
        -13    1    4    4    0    0 -0.81101058330E+02  0.32373524472E+02 -0.75003025860E+02  0.11511251800E+03  0.10566000000E+00 0. -1.
     200003    1    4    4    0    0 -0.28018480772E+02 -0.59161107591E+02  0.42900828082E+01  0.72135128244E+02  0.30000000000E+02 0. -1.
     200000    1    3    3    0    0  0.18749221762E+03  0.36193049089E+03 -0.11117441404E+04  0.11884119848E+04  0.10100000000E+03 0.  1.
    -200001    1    1    2    0    0 -0.78372678516E+02 -0.33514290777E+03 -0.16303578227E+04  0.17754713952E+04  0.61300000000E+03 0. -1.
<mgrwt>
<rscale>  0 0.14204573E+04</rscale>
<asrwt>0</asrwt>
<pdfrwt beam="1">  1        2 0.42599611E+00 0.14204573E+04</pdfrwt>
<pdfrwt beam="2">  1       -2 0.24165439E-01 0.14204573E+04</pdfrwt>
<totfact> 0.36049672E+01</totfact>
</mgrwt>
</event>
<event>
 8    1  0.7583103E-052  0.2009559E+04  0.7818608E-02  0.8602165E-01
          2   -1    0    0  501    0  0.00000000000E+00  0.00000000000E+00  0.14181587917E+04  0.14181587918E+04  0.25500000000E-02 0.  1.
         -2   -1    0    0    0  501 -0.00000000000E+00 -0.00000000000E+00 -0.71189590179E+03  0.71189590180E+03  0.25500000000E-02 0. -1.
     200001    2    1    2    0    0 -0.43401414530E+03  0.66752835238E+03  0.32265312196E+03  0.10544674894E+04  0.61141987997E+03 0.  0.
    5000001    2    3    3    0    0 -0.21464341280E+03  0.67729451348E+03  0.10179700953E+03  0.72705747344E+03  0.11597536759E+03 0.  0.
        -13    1    4    4    0    0 -0.31496593567E+02  0.15489442826E+03 -0.20364882212E+02  0.15937082200E+03  0.10566000000E+00 0. -1.
     200003    1    4    4    0    0 -0.18314681924E+03  0.52240008522E+03  0.12216189175E+03  0.56768665144E+03  0.30000000000E+02 0. -1.
     200000    1    3    3    0    0 -0.21937073249E+03 -0.97661611034E+01  0.22085611243E+03  0.32741001600E+03  0.10100000000E+03 0. -1.
    -200001    1    1    2    0    0  0.43401414530E+03 -0.66752835238E+03  0.38360976799E+03  0.10755872041E+04  0.61300000000E+03 0.  1.
<mgrwt>
<rscale>  0 0.20095586E+04</rscale>
<asrwt>0</asrwt>
<pdfrwt beam="1">  1        2 0.20259411E+00 0.20095586E+04</pdfrwt>
<pdfrwt beam="2">  1       -2 0.10169942E+00 0.20095586E+04</pdfrwt>
<totfact> 0.11965433E+01</totfact>
</mgrwt>
</event>
<event>
 8    1  0.7583103E-052  0.1513710E+04  0.7818608E-02  0.8875387E-01
          2   -1    0    0  501    0  0.00000000000E+00  0.00000000000E+00  0.12912622033E+04  0.12912622033E+04  0.25500000000E-02 0.  1.
         -2   -1    0    0    0  501 -0.00000000000E+00 -0.00000000000E+00 -0.44361966057E+03  0.44361966058E+03  0.25500000000E-02 0. -1.
     200001    2    1    2    0    0 -0.13897035286E+03  0.40282908564E+03  0.56982733898E+03  0.93830523942E+03  0.61166125827E+03 0.  0.
    5000001    2    3    3    0    0 -0.71242609081E+02 -0.13903472681E+03  0.22584555739E+03  0.28506110085E+03  0.76468626352E+02 0.  0.
        -13    1    4    4    0    0 -0.61811328180E+02 -0.10779275086E+03  0.13206394400E+03  0.18133067556E+03  0.10566000000E+00 0. -1.
     200003    1    4    4    0    0 -0.94312809017E+01 -0.31241975946E+02  0.93781613391E+02  0.10373042529E+03  0.30000000000E+02 0.  1.
     200000    1    3    3    0    0 -0.67727743774E+02  0.54186381245E+03  0.34398178159E+03  0.65324413857E+03  0.10100000000E+03 0.  1.
    -200001    1    1    2    0    0  0.13897035286E+03 -0.40282908564E+03  0.27781520375E+03  0.79657662446E+03  0.61300000000E+03 0.  1.
<mgrwt>
<rscale>  0 0.15137097E+04</rscale>
<asrwt>0</asrwt>
<pdfrwt beam="1">  1        2 0.18446603E+00 0.15137097E+04</pdfrwt>
<pdfrwt beam="2">  1       -2 0.63374237E-01 0.15137097E+04</pdfrwt>
<totfact> 0.42311321E+01</totfact>
</mgrwt>
</event>
<event>
 8    1  0.7583103E-052  0.1227784E+04  0.7818608E-02  0.9088879E-01
          2   -1    0    0  501    0  0.00000000000E+00  0.00000000000E+00  0.17957624987E+04  0.17957624987E+04  0.25500000000E-02 0.  1.
         -2   -1    0    0    0  501 -0.00000000000E+00 -0.00000000000E+00 -0.20986259893E+03  0.20986259894E+03  0.25500000000E-02 0. -1.
     200001    2    1    2    0    0 -0.32161195016E+02 -0.14194768503E+02  0.80689514935E+03  0.10137313356E+04  0.61264639468E+03 0.  0.
    5000001    2    3    3    0    0 -0.91428337288E+01  0.19002781466E+02  0.86742164696E+03  0.88924688203E+03  0.19466639789E+03 0.  0.
        -13    1    4    4    0    0  0.75540528336E+02 -0.22426380277E+02  0.57881867662E+03  0.58415784298E+03  0.10566000000E+00 0. -1.
     200003    1    4    4    0    0 -0.84683362065E+02  0.41429161743E+02  0.28860297034E+03  0.30508903904E+03  0.30000000000E+02 0. -1.
     200000    1    3    3    0    0 -0.23018361288E+02 -0.33197549969E+02 -0.60526497611E+02  0.12448445362E+03  0.10100000000E+03 0. -1.
    -200001    1    1    2    0    0  0.32161195016E+02  0.14194768503E+02  0.77900475046E+03  0.99189376203E+03  0.61300000000E+03 0. -1.
<mgrwt>
<rscale>  0 0.12277840E+04</rscale>
<asrwt>0</asrwt>
<pdfrwt beam="1">  1        2 0.25653751E+00 0.12277840E+04</pdfrwt>
<pdfrwt beam="2">  1       -2 0.29980370E-01 0.12277840E+04</pdfrwt>
<totfact> 0.10341056E+02</totfact>
</mgrwt>
</event>
<event>
 8    1  0.7583103E-052  0.2147861E+04  0.7818608E-02  0.8540448E-01
         -2   -1    0    0    0  501 -0.00000000000E+00  0.00000000000E+00  0.16921759082E+04  0.16921759082E+04  0.25500000000E-02 0.  1.
          2   -1    0    0  501    0  0.00000000000E+00 -0.00000000000E+00 -0.68156434001E+03  0.68156434001E+03  0.25500000000E-02 0. -1.
     200001    2    1    2    0    0 -0.78623121793E+03 -0.28268365322E+03  0.19350097554E+03  0.10540780579E+04  0.61283631486E+03 0.  0.
    5000001    2    3    3    0    0  0.91760988887E+01 -0.19501713123E+03  0.19324848205E+02  0.22891350339E+03  0.11794939597E+03 0.  0.
        -13    1    4    4    0    0  0.46138097207E+02 -0.15065463228E+03 -0.92768378910E+01  0.15783413169E+03  0.10566000000E+00 0. -1.
     200003    1    4    4    0    0 -0.36961998318E+02 -0.44362498949E+02  0.28601686096E+02  0.71079371693E+02  0.30000000000E+02 0.  1.
     200000    1    3    3    0    0 -0.79540731682E+03 -0.87666521990E+02  0.17417612733E+03  0.82516455453E+03  0.10100000000E+03 0. -1.
    -200001    1    1    2    0    0  0.78623121793E+03  0.28268365322E+03  0.81711059263E+03  0.13196621903E+04  0.61300000000E+03 0.  1.
<mgrwt>
<rscale>  0 0.21478610E+04</rscale>
<asrwt>0</asrwt>
<pdfrwt beam="1">  1        2 0.97366335E-01 0.21478610E+04</pdfrwt>
<pdfrwt beam="2">  1       -2 0.24173941E+00 0.21478610E+04</pdfrwt>
<totfact> 0.30966664E+00</totfact>
</mgrwt>
</event>
<event>
 8    1  0.7583103E-052  0.2348289E+04  0.7818608E-02  0.8459121E-01
         -2   -1    0    0    0  501 -0.00000000000E+00  0.00000000000E+00  0.10032118766E+04  0.10032118766E+04  0.25500000000E-02 0. -1.
          2   -1    0    0  501    0  0.00000000000E+00 -0.00000000000E+00 -0.13742019675E+04  0.13742019675E+04  0.25500000000E-02 0.  1.
     200001    2    1    2    0    0  0.38144956763E+03 -0.43710368260E+03 -0.10120048272E+04  0.13175873045E+04  0.61263295090E+03 0.  0.
    5000001    2    3    3    0    0  0.36104701341E+03  0.11035444032E+02 -0.33466552516E+03  0.49890881374E+03  0.80201395080E+02 0.  0.
        -13    1    4    4    0    0  0.11396600790E+02  0.10315281686E+02 -0.31933641486E+02  0.35440882726E+02  0.10566000000E+00 0. -1.
     200003    1    4    4    0    0  0.34965041262E+03  0.72016234637E+00 -0.30273188367E+03  0.46346793101E+03  0.30000000000E+02 0. -1.
     200000    1    3    3    0    0  0.20402554218E+02 -0.44813912663E+03 -0.67733930208E+03  0.81867849072E+03  0.10100000000E+03 0.  1.
    -200001    1    1    2    0    0 -0.38144956763E+03  0.43710368260E+03  0.64101473627E+03  0.10598265396E+04  0.61300000000E+03 0. -1.
<mgrwt>
<rscale>  0 0.23482894E+04</rscale>
<asrwt>0</asrwt>
<pdfrwt beam="1">  1        2 0.19631457E+00 0.23482894E+04</pdfrwt>
<pdfrwt beam="2">  1       -2 0.14331598E+00 0.23482894E+04</pdfrwt>
<totfact> 0.52429847E+00</totfact>
</mgrwt>
</event>
<event>
 8    1  0.7583103E-052  0.2837874E+04  0.7818608E-02  0.8291606E-01
          2   -1    0    0  501    0  0.00000000000E+00  0.00000000000E+00  0.13814902787E+04  0.13814902787E+04  0.25500000000E-02 0.  1.
         -2   -1    0    0    0  501 -0.00000000000E+00 -0.00000000000E+00 -0.14573983456E+04  0.14573983456E+04  0.25500000000E-02 0. -1.
     200001    2    1    2    0    0 -0.48024588482E+03  0.92229781955E+03  0.70825413407E+03  0.13994620943E+04  0.61286283708E+03 0.  0.
    5000001    2    3    3    0    0 -0.33415512831E+03  0.29293598031E+03  0.16837666915E+03  0.55146002414E+03  0.27979692132E+03 0.  0.
        -13    1    4    4    0    0 -0.16598384148E+03  0.28067784056E+03  0.23140304013E+02  0.32690391654E+03  0.10566000000E+00 0. -1.
     200003    1    4    4    0    0 -0.16817128683E+03  0.12258139744E+02  0.14523636514E+03  0.22455610761E+03  0.30000000000E+02 0. -1.
     200000    1    3    3    0    0 -0.14609075652E+03  0.62936183924E+03  0.53987746492E+03  0.84800207014E+03  0.10100000000E+03 0.  1.
    -200001    1    1    2    0    0  0.48024588482E+03 -0.92229781955E+03 -0.78416220101E+03  0.14394265300E+04  0.61300000000E+03 0.  1.
<mgrwt>
<rscale>  0 0.28378736E+04</rscale>
<asrwt>0</asrwt>
<pdfrwt beam="1">  1        2 0.19735575E+00 0.28378736E+04</pdfrwt>
<pdfrwt beam="2">  1       -2 0.20819976E+00 0.28378736E+04</pdfrwt>
<totfact> 0.17396736E+00</totfact>
</mgrwt>
</event>
<event>
 8    1  0.7583103E-052  0.1453236E+04  0.7818608E-02  0.8916160E-01
         -2   -1    0    0    0  501 -0.00000000000E+00  0.00000000000E+00  0.36961153218E+03  0.36961153219E+03  0.25500000000E-02 0. -1.
          2   -1    0    0  501    0  0.00000000000E+00 -0.00000000000E+00 -0.14284553894E+04  0.14284553894E+04  0.25500000000E-02 0.  1.
     200001    2    1    2    0    0  0.16829869704E+03  0.17843986276E+03 -0.90464970779E+03  0.11200476949E+04  0.61314803190E+03 0.  0.
    5000001    2    3    3    0    0  0.47177280984E+02  0.26146055566E+03 -0.12179304079E+03  0.31716015986E+03  0.12316535312E+03 0.  0.
        -13    1    4    4    0    0 -0.54853695768E+00  0.37343447703E+02 -0.71479906252E+02  0.80648757839E+02  0.10566000000E+00 0. -1.
     200003    1    4    4    0    0  0.47725817942E+02  0.22411710796E+03 -0.50313134537E+02  0.23651140202E+03  0.30000000000E+02 0. -1.
     200000    1    3    3    0    0  0.12112141605E+03 -0.83020692900E+02 -0.78285666701E+03  0.80288753506E+03  0.10100000000E+03 0. -1.
    -200001    1    1    2    0    0 -0.16829869704E+03 -0.17843986276E+03 -0.15419414943E+03  0.67801922669E+03  0.61300000000E+03 0. -1.
<mgrwt>
<rscale>  0 0.14532358E+04</rscale>
<asrwt>0</asrwt>
<pdfrwt beam="1">  1        2 0.20406505E+00 0.14532358E+04</pdfrwt>
<pdfrwt beam="2">  1       -2 0.52801648E-01 0.14532358E+04</pdfrwt>
<totfact> 0.52442136E+01</totfact>
</mgrwt>
</event>
<event>
 8    1  0.7583103E-052  0.1634027E+04  0.7818608E-02  0.8799912E-01
         -2   -1    0    0    0  501 -0.00000000000E+00  0.00000000000E+00  0.42813675751E+03  0.42813675752E+03  0.25500000000E-02 0. -1.
          2   -1    0    0  501    0  0.00000000000E+00 -0.00000000000E+00 -0.15591073277E+04  0.15591073277E+04  0.25500000000E-02 0.  1.
     200001    2    1    2    0    0  0.16262195749E+03  0.26666029207E+03 -0.29413618956E+02  0.68849456001E+03  0.61286702127E+03 0.  0.
    5000001    2    3    3    0    0 -0.13808982297E+03  0.96439380213E+02 -0.20925113207E+03  0.28607032508E+03  0.98391266652E+02 0.  0.
        -13    1    4    4    0    0 -0.12693415178E+03  0.85529595930E+02 -0.19835267828E+03  0.25054218570E+03  0.10566000000E+00 0. -1.
     200003    1    4    4    0    0 -0.11155671190E+02  0.10909784283E+02 -0.10898453786E+02  0.35528139379E+02  0.30000000000E+02 0.  1.
     200000    1    3    3    0    0  0.30071178046E+03  0.17022091186E+03  0.17983751312E+03  0.40242423493E+03  0.10100000000E+03 0. -1.
    -200001    1    1    2    0    0 -0.16262195749E+03 -0.26666029207E+03 -0.11015569513E+04  0.12987495252E+04  0.61300000000E+03 0.  1.
<mgrwt>
<rscale>  0 0.16340271E+04</rscale>
<asrwt>0</asrwt>
<pdfrwt beam="1">  1        2 0.22272962E+00 0.16340271E+04</pdfrwt>
<pdfrwt beam="2">  1       -2 0.61162395E-01 0.16340271E+04</pdfrwt>
<totfact> 0.32411326E+01</totfact>
</mgrwt>
</event>
<event>
 8    1  0.7583103E-052  0.1364078E+04  0.7818608E-02  0.8980239E-01
          2   -1    0    0  501    0  0.00000000000E+00  0.00000000000E+00  0.57020205267E+03  0.57020205268E+03  0.25500000000E-02 0.  1.
         -2   -1    0    0    0  501 -0.00000000000E+00 -0.00000000000E+00 -0.81581077972E+03  0.81581077973E+03  0.25500000000E-02 0. -1.
     200001    2    1    2    0    0  0.10383527605E+03 -0.16096932386E+03 -0.37364863192E+03  0.73114177256E+03  0.59855000098E+03 0.  0.
    5000001    2    3    3    0    0  0.16110942202E+02 -0.17901370670E+03  0.11120428285E+03  0.22784811329E+03  0.85105232270E+02 0.  0.
        -13    1    4    4    0    0 -0.23878820135E+02 -0.97432663314E+02  0.37594622428E+02  0.10712930846E+03  0.10566000000E+00 0. -1.
     200003    1    4    4    0    0  0.39989762337E+02 -0.81581043384E+02  0.73609660423E+02  0.12071880483E+03  0.30000000000E+02 0. -1.
     200000    1    3    3    0    0  0.87724333850E+02  0.18044382842E+02 -0.48485291477E+03  0.50329365928E+03  0.10100000000E+03 0. -1.
    -200001    1    1    2    0    0 -0.10383527605E+03  0.16096932386E+03  0.12803990487E+03  0.65487105984E+03  0.61300000000E+03 0. -1.
<mgrwt>
<rscale>  0 0.13640777E+04</rscale>
<asrwt>0</asrwt>
<pdfrwt beam="1">  1        2 0.81457436E-01 0.13640777E+04</pdfrwt>
<pdfrwt beam="2">  1       -2 0.11654440E+00 0.13640777E+04</pdfrwt>
<totfact> 0.32142018E+01</totfact>
</mgrwt>
</event>
<event>
 8    1  0.7583103E-052  0.1372853E+04  0.7818608E-02  0.8973707E-01
         -2   -1    0    0    0  501 -0.00000000000E+00  0.00000000000E+00  0.34680916537E+03  0.34680916538E+03  0.25500000000E-02 0. -1.
          2   -1    0    0  501    0  0.00000000000E+00 -0.00000000000E+00 -0.13586180843E+04  0.13586180843E+04  0.25500000000E-02 0.  1.
     200001    2    1    2    0    0  0.37588159501E+02  0.22430098967E+03 -0.76554167908E+03  0.10067568287E+04  0.61301015167E+03 0.  0.
    5000001    2    3    3    0    0 -0.74442383339E+02  0.39084620231E+03 -0.61223001285E+03  0.73473915027E+03  0.81936609686E+02 0.  0.
        -13    1    4    4    0    0 -0.89290376091E+00  0.15986875900E+03 -0.20639539828E+03  0.26107065898E+03  0.10566000000E+00 0. -1.
     200003    1    4    4    0    0 -0.73549479578E+02  0.23097744331E+03 -0.40583461457E+03  0.47366849129E+03  0.30000000000E+02 0. -1.
     200000    1    3    3    0    0  0.11203054284E+03 -0.16654521264E+03 -0.15331166623E+03  0.27201767844E+03  0.10100000000E+03 0. -1.
    -200001    1    1    2    0    0 -0.37588159501E+02 -0.22430098967E+03 -0.24626723984E+03  0.69867042096E+03  0.61300000000E+03 0. -1.
<mgrwt>
<rscale>  0 0.13728528E+04</rscale>
<asrwt>0</asrwt>
<pdfrwt beam="1">  1        2 0.19408829E+00 0.13728528E+04</pdfrwt>
<pdfrwt beam="2">  1       -2 0.49544167E-01 0.13728528E+04</pdfrwt>
<totfact> 0.65570142E+01</totfact>
</mgrwt>
</event>
<event>
 8    1  0.7583103E-052  0.1270661E+04  0.7818608E-02  0.9053161E-01
         -2   -1    0    0    0  501 -0.00000000000E+00  0.00000000000E+00  0.46575938914E+03  0.46575938915E+03  0.25500000000E-02 0. -1.
          2   -1    0    0  501    0  0.00000000000E+00 -0.00000000000E+00 -0.86663771034E+03  0.86663771034E+03  0.25500000000E-02 0.  1.
     200001    2    1    2    0    0 -0.91885584972E+02  0.56234113052E+02 -0.67705674504E+02  0.62643800103E+03  0.61338020393E+03 0.  0.
    5000001    2    3    3    0    0 -0.24284079268E+03  0.26907585809E+02  0.89564749993E+02  0.38439976778E+03  0.28292343180E+03 0.  0.
        -13    1    4    4    0    0 -0.72024317490E+02 -0.12410542892E+03  0.42699415317E+02  0.14970942198E+03  0.10566000000E+00 0. -1.
     200003    1    4    4    0    0 -0.17081647519E+03  0.15101301473E+03  0.46865334677E+02  0.23469034579E+03  0.30000000000E+02 0. -1.
     200000    1    3    3    0    0  0.15095520771E+03  0.29326527243E+02 -0.15727042450E+03  0.24203823325E+03  0.10100000000E+03 0. -1.
    -200001    1    1    2    0    0  0.91885584972E+02 -0.56234113052E+02 -0.33317264669E+03  0.70595909846E+03  0.61300000000E+03 0.  1.
<mgrwt>
<rscale>  0 0.12706607E+04</rscale>
<asrwt>0</asrwt>
<pdfrwt beam="1">  1        2 0.12380539E+00 0.12706607E+04</pdfrwt>
<pdfrwt beam="2">  1       -2 0.66537056E-01 0.12706607E+04</pdfrwt>
<totfact> 0.69836543E+01</totfact>
</mgrwt>
</event>
<event>
 8    1  0.7583103E-052  0.1387875E+04  0.7818608E-02  0.8962642E-01
         -2   -1    0    0    0  501 -0.00000000000E+00  0.00000000000E+00  0.18422102913E+03  0.18422102915E+03  0.25500000000E-02 0. -1.
          2   -1    0    0  501    0  0.00000000000E+00 -0.00000000000E+00 -0.26139754692E+04  0.26139754692E+04  0.25500000000E-02 0.  1.
     200001    2    1    2    0    0  0.41947963149E+02  0.30214583200E+02 -0.55599497950E+03  0.82603624403E+03  0.60871414191E+03 0.  0.
    5000001    2    3    3    0    0 -0.90850265240E+02 -0.25289840865E+03 -0.30578124132E+03  0.41300325456E+03  0.69700394115E+02 0.  0.
        -13    1    4    4    0    0 -0.28081304762E+02 -0.15473349844E+03 -0.17650696296E+03  0.23640163780E+03  0.10566000000E+00 0. -1.
     200003    1    4    4    0    0 -0.62768960479E+02 -0.98164910207E+02 -0.12927427836E+03  0.17660161676E+03  0.30000000000E+02 0.  1.
     200000    1    3    3    0    0  0.13279822839E+03  0.28311299185E+03 -0.25021373818E+03  0.41303298947E+03  0.10100000000E+03 0. -1.
    -200001    1    1    2    0    0 -0.41947963149E+02 -0.30214583200E+02 -0.18737594606E+04  0.19721602543E+04  0.61300000000E+03 0.  1.
<mgrwt>
<rscale>  0 0.13878750E+04</rscale>
<asrwt>0</asrwt>
<pdfrwt beam="1">  1        2 0.37342504E+00 0.13878750E+04</pdfrwt>
<pdfrwt beam="2">  1       -2 0.26317291E-01 0.13878750E+04</pdfrwt>
<totfact> 0.49000667E+01</totfact>
</mgrwt>
</event>
<event>
 8    1  0.7583103E-052  0.1313181E+04  0.7818608E-02  0.9019178E-01
          2   -1    0    0  501    0  0.00000000000E+00  0.00000000000E+00  0.13588853946E+04  0.13588853946E+04  0.25500000000E-02 0.  1.
         -2   -1    0    0    0  501 -0.00000000000E+00 -0.00000000000E+00 -0.31725327027E+03  0.31725327028E+03  0.25500000000E-02 0. -1.
     200001    2    1    2    0    0 -0.18740351965E+03  0.67125782444E+02  0.31543913064E+03  0.70518489980E+03  0.59846298793E+03 0.  0.
    5000001    2    3    3    0    0  0.10232427137E+03 -0.18764018904E+03  0.76247247734E+02  0.24014549291E+03  0.78594643101E+02 0.  0.
        -13    1    4    4    0    0 -0.20496034597E+01 -0.35717915527E+02 -0.56679164450E+01  0.36223014850E+02  0.10566000000E+00 0. -1.
     200003    1    4    4    0    0  0.10437387483E+03 -0.15192227351E+03  0.81915164179E+02  0.20392247806E+03  0.30000000000E+02 0. -1.
     200000    1    3    3    0    0 -0.28972779102E+03  0.25476597148E+03  0.23919188290E+03  0.46503940689E+03  0.10100000000E+03 0.  1.
    -200001    1    1    2    0    0  0.18740351965E+03 -0.67125782444E+02  0.72619299373E+03  0.97095376511E+03  0.61300000000E+03 0. -1.
<mgrwt>
<rscale>  0 0.13131806E+04</rscale>
<asrwt>0</asrwt>
<pdfrwt beam="1">  1        2 0.19412649E+00 0.13131806E+04</pdfrwt>
<pdfrwt beam="2">  1       -2 0.45321896E-01 0.13131806E+04</pdfrwt>
<totfact> 0.78778474E+01</totfact>
</mgrwt>
</event>
<event>
 8    1  0.7583103E-052  0.1288138E+04  0.7818608E-02  0.9039025E-01
          2   -1    0    0  501    0  0.00000000000E+00  0.00000000000E+00  0.14062481778E+04  0.14062481778E+04  0.25500000000E-02 0.  1.
         -2   -1    0    0    0  501 -0.00000000000E+00 -0.00000000000E+00 -0.29498699426E+03  0.29498699427E+03  0.25500000000E-02 0. -1.
     200001    2    1    2    0    0  0.15011094474E+03  0.11706217747E+02  0.72729796752E+03  0.96240699005E+03  0.61204129736E+03 0.  0.
    5000001    2    3    3    0    0  0.15138883840E+03  0.16785629017E+02  0.76390693174E+03  0.85484933253E+03  0.35215514085E+03 0.  0.
        -13    1    4    4    0    0  0.37984483245E+02 -0.60404985385E+01  0.72946686141E+03  0.73048013090E+03  0.10566000000E+00 0. -1.
     200003    1    4    4    0    0  0.11340435516E+03  0.22826127555E+02  0.34440070334E+02  0.12436920162E+03  0.30000000000E+02 0. -1.
     200000    1    3    3    0    0 -0.12778936671E+01 -0.50794112705E+01 -0.36608964219E+02  0.10755765753E+03  0.10100000000E+03 0. -1.
    -200001    1    1    2    0    0 -0.15011094474E+03 -0.11706217747E+02  0.38396321600E+03  0.73882818199E+03  0.61300000000E+03 0. -1.
<mgrwt>
<rscale>  0 0.12881381E+04</rscale>
<asrwt>0</asrwt>
<pdfrwt beam="1">  1        2 0.20089259E+00 0.12881381E+04</pdfrwt>
<pdfrwt beam="2">  1       -2 0.42141000E-01 0.12881381E+04</pdfrwt>
<totfact> 0.85940099E+01</totfact>
</mgrwt>
</event>
<event>
 8    1  0.7583103E-052  0.1594031E+04  0.7818608E-02  0.8824224E-01
          2   -1    0    0  501    0  0.00000000000E+00  0.00000000000E+00  0.20091925381E+04  0.20091925382E+04  0.25500000000E-02 0.  1.
         -2   -1    0    0    0  501 -0.00000000000E+00 -0.00000000000E+00 -0.31616349770E+03  0.31616349771E+03  0.25500000000E-02 0. -1.
     200001    2    1    2    0    0 -0.16310367421E+03  0.48132210930E+03  0.86860037918E+03  0.11791774289E+04  0.61458848735E+03 0.  0.
    5000001    2    3    3    0    0 -0.38202582595E+03  0.33818037409E+03  0.51924234933E+03  0.73121705358E+03  0.68964229779E+02 0.  0.
        -13    1    4    4    0    0 -0.21891702384E+03  0.22585051153E+03  0.31844942531E+03  0.44759710067E+03  0.10566000000E+00 0. -1.
     200003    1    4    4    0    0 -0.16310880211E+03  0.11232986256E+03  0.20079292402E+03  0.28361995291E+03  0.30000000000E+02 0. -1.
     200000    1    3    3    0    0  0.21892215174E+03  0.14314173520E+03  0.34935802985E+03  0.44796037537E+03  0.10100000000E+03 0.  1.
    -200001    1    1    2    0    0  0.16310367421E+03 -0.48132210930E+03  0.82442866127E+03  0.11461786069E+04  0.61300000000E+03 0. -1.
<mgrwt>
<rscale>  0 0.15940305E+04</rscale>
<asrwt>0</asrwt>
<pdfrwt beam="1">  1        2 0.28702749E+00 0.15940305E+04</pdfrwt>
<pdfrwt beam="2">  1       -2 0.45166216E-01 0.15940305E+04</pdfrwt>
<totfact> 0.35457653E+01</totfact>
</mgrwt>
</event>
<event>
 8    1  0.7583103E-052  0.1421681E+04  0.7818608E-02  0.8938272E-01
          2   -1    0    0  501    0  0.00000000000E+00  0.00000000000E+00  0.96060175093E+03  0.96060175093E+03  0.25500000000E-02 0.  1.
         -2   -1    0    0    0  501 -0.00000000000E+00 -0.00000000000E+00 -0.52601857429E+03  0.52601857429E+03  0.25500000000E-02 0. -1.
     200001    2    1    2    0    0 -0.15584224225E+03  0.12474561353E+03 -0.96134022097E+02  0.65158857876E+03  0.61276231379E+03 0.  0.
    5000001    2    3    3    0    0 -0.34902317812E+02  0.50265794937E+02  0.24642322341E+03  0.26724475462E+03  0.83369850115E+02 0.  0.
        -13    1    4    4    0    0 -0.39977393033E+02  0.24468650352E+02  0.20274367704E+03  0.20809112558E+03  0.10566000000E+00 0. -1.
     200003    1    4    4    0    0  0.50750752207E+01  0.25797144585E+02  0.43679546374E+02  0.59153629040E+02  0.30000000000E+02 0. -1.
     200000    1    3    3    0    0 -0.12093992444E+03  0.74479818593E+02 -0.34255724551E+03  0.38434382414E+03  0.10100000000E+03 0. -1.
    -200001    1    1    2    0    0  0.15584224225E+03 -0.12474561353E+03  0.53071719874E+03  0.83503174646E+03  0.61300000000E+03 0. -1.
<mgrwt>
<rscale>  0 0.14216812E+04</rscale>
<asrwt>0</asrwt>
<pdfrwt beam="1">  1        2 0.13722882E+00 0.14216812E+04</pdfrwt>
<pdfrwt beam="2">  1       -2 0.75145511E-01 0.14216812E+04</pdfrwt>
<totfact> 0.46009946E+01</totfact>
</mgrwt>
</event>
<event>
 8    1  0.7583103E-052  0.2008194E+04  0.7818608E-02  0.8602799E-01
         -2   -1    0    0    0  501 -0.00000000000E+00  0.00000000000E+00  0.22964964875E+04  0.22964964875E+04  0.25500000000E-02 0. -1.
          2   -1    0    0  501    0  0.00000000000E+00 -0.00000000000E+00 -0.43902124086E+03  0.43902124087E+03  0.25500000000E-02 0.  1.
     200001    2    1    2    0    0  0.54406730459E+03 -0.23854171550E+03  0.16486527925E+04  0.18567190032E+04  0.61354547087E+03 0.  0.
    5000001    2    3    3    0    0  0.61907919195E+03 -0.31971960375E+03  0.13538874014E+04  0.15261070426E+04  0.10252774551E+03 0.  0.
        -13    1    4    4    0    0  0.34963108883E+03 -0.14208800060E+03  0.79505790280E+03  0.88008407448E+03  0.10566000000E+00 0. -1.
     200003    1    4    4    0    0  0.26944810312E+03 -0.17763160315E+03  0.55882949865E+03  0.64602296807E+03  0.30000000000E+02 0. -1.
     200000    1    3    3    0    0 -0.75011887363E+02  0.81177888254E+02  0.29476539101E+03  0.33061196065E+03  0.10100000000E+03 0.  1.
    -200001    1    1    2    0    0 -0.54406730459E+03  0.23854171550E+03  0.20882245416E+03  0.87879872515E+03  0.61300000000E+03 0.  1.
<mgrwt>
<rscale>  0 0.20081940E+04</rscale>
<asrwt>0</asrwt>
<pdfrwt beam="1">  1        2 0.62717319E-01 0.20081940E+04</pdfrwt>
<pdfrwt beam="2">  1       -2 0.32807093E+00 0.20081940E+04</pdfrwt>
<totfact> 0.15506529E+00</totfact>
</mgrwt>
</event>
<event>
 8    1  0.7583103E-052  0.1840021E+04  0.7818608E-02  0.8685302E-01
         -2   -1    0    0    0  501 -0.00000000000E+00  0.00000000000E+00  0.28302130979E+03  0.28302130980E+03  0.25500000000E-02 0. -1.
          2   -1    0    0  501    0  0.00000000000E+00 -0.00000000000E+00 -0.29906548375E+04  0.29906548375E+04  0.25500000000E-02 0.  1.
     200001    2    1    2    0    0 -0.95481152285E+02 -0.19045061694E+03 -0.25140703557E+04  0.25964584648E+04  0.61291004066E+03 0.  0.
    5000001    2    3    3    0    0  0.30659257536E+02  0.79637778127E+01 -0.40416579542E+01  0.73419674238E+02  0.66111282974E+02 0.  0.
        -13    1    4    4    0    0  0.53043662406E+00 -0.57540389787E+00 -0.25168310957E+02  0.25180696835E+02  0.10566000000E+00 0. -1.
     200003    1    4    4    0    0  0.30128820912E+02  0.85391817106E+01  0.21126653002E+02  0.48238977403E+02  0.30000000000E+02 0. -1.
     200000    1    3    3    0    0 -0.12614040982E+03 -0.19841439475E+03 -0.25100286977E+04  0.25230387905E+04  0.10100000000E+03 0.  1.
    -200001    1    1    2    0    0  0.95481152285E+02  0.19045061694E+03 -0.19356317198E+03  0.67721768249E+03  0.61300000000E+03 0. -1.
<mgrwt>
<rscale>  0 0.18400207E+04</rscale>
<asrwt>0</asrwt>
<pdfrwt beam="1">  1        2 0.42723639E+00 0.18400207E+04</pdfrwt>
<pdfrwt beam="2">  1       -2 0.40431617E-01 0.18400207E+04</pdfrwt>
<totfact> 0.13071646E+01</totfact>
</mgrwt>
</event>
<event>
 8    1  0.7583103E-052  0.1351503E+04  0.7818608E-02  0.8989691E-01
          2   -1    0    0  501    0  0.00000000000E+00  0.00000000000E+00  0.23627563213E+04  0.23627563213E+04  0.25500000000E-02 0.  1.
         -2   -1    0    0    0  501 -0.00000000000E+00 -0.00000000000E+00 -0.19326584729E+03  0.19326584730E+03  0.25500000000E-02 0. -1.
     200001    2    1    2    0    0  0.74002837498E+02 -0.20118998535E+03  0.73069936414E+03  0.97746501474E+03  0.61283151365E+03 0.  0.
    5000001    2    3    3    0    0 -0.12090533358E+03 -0.29867106410E+03  0.47992939190E+03  0.63022110213E+03  0.25104563758E+03 0.  0.
        -13    1    4    4    0    0 -0.17698197931E+03 -0.16962304362E+03  0.38972460280E+03  0.46041272259E+03  0.10566000000E+00 0. -1.
     200003    1    4    4    0    0  0.56076645736E+02 -0.12904802048E+03  0.90204789093E+02  0.16980837954E+03  0.30000000000E+02 0. -1.
     200000    1    3    3    0    0  0.19490817107E+03  0.97481078744E+02  0.25076997225E+03  0.34724391261E+03  0.10100000000E+03 0.  1.
    -200001    1    1    2    0    0 -0.74002837498E+02  0.20118998535E+03  0.14387911098E+04  0.15785571538E+04  0.61300000000E+03 0.  1.
<mgrwt>
<rscale>  0 0.13515030E+04</rscale>
<asrwt>0</asrwt>
<pdfrwt beam="1">  1        2 0.33753660E+00 0.13515030E+04</pdfrwt>
<pdfrwt beam="2">  1       -2 0.27609408E-01 0.13515030E+04</pdfrwt>
<totfact> 0.60960513E+01</totfact>
</mgrwt>
</event>
<event>
 8    1  0.7583103E-052  0.1300832E+04  0.7818608E-02  0.9028906E-01
          2   -1    0    0  501    0  0.00000000000E+00  0.00000000000E+00  0.22458135877E+04  0.22458135877E+04  0.25500000000E-02 0.  1.
         -2   -1    0    0    0  501 -0.00000000000E+00 -0.00000000000E+00 -0.18836860029E+03  0.18836860031E+03  0.25500000000E-02 0. -1.
     200001    2    1    2    0    0  0.21736786705E+03  0.13140645735E+01  0.10061621065E+04  0.11979721686E+04  0.61280063298E+03 0.  0.
    5000001    2    3    3    0    0  0.37000319628E+03  0.72792530268E+02  0.87316763606E+03  0.96070598061E+03  0.13539993652E+03 0.  0.
        -13    1    4    4    0    0  0.24914218059E+03  0.10352626665E+03  0.53861911157E+03  0.60241187949E+03  0.10566000000E+00 0. -1.
     200003    1    4    4    0    0  0.12086101569E+03 -0.30733736384E+02  0.33454852448E+03  0.35829410113E+03  0.30000000000E+02 0. -1.
     200000    1    3    3    0    0 -0.15263532922E+03 -0.71478465694E+02  0.13299447040E+03  0.23726618795E+03  0.10100000000E+03 0. -1.
    -200001    1    1    2    0    0 -0.21736786705E+03 -0.13140645735E+01  0.10512828809E+04  0.12362100194E+04  0.61300000000E+03 0. -1.
<mgrwt>
<rscale>  0 0.13008317E+04</rscale>
<asrwt>0</asrwt>
<pdfrwt beam="1">  1        2 0.32083051E+00 0.13008317E+04</pdfrwt>
<pdfrwt beam="2">  1       -2 0.26909800E-01 0.13008317E+04</pdfrwt>
<totfact> 0.73743273E+01</totfact>
</mgrwt>
</event>
<event>
 8    1  0.7583103E-052  0.1479503E+04  0.7818608E-02  0.8898199E-01
          2   -1    0    0  501    0  0.00000000000E+00  0.00000000000E+00  0.25230074166E+04  0.25230074166E+04  0.25500000000E-02 0. -1.
         -2   -1    0    0    0  501 -0.00000000000E+00 -0.00000000000E+00 -0.21689678821E+03  0.21689678822E+03  0.25500000000E-02 0.  1.
     200001    2    1    2    0    0  0.51179461309E+02 -0.97477108900E+02  0.18910816761E+04  0.19914797563E+04  0.61455723069E+03 0.  0.
    5000001    2    3    3    0    0  0.21089687334E+03 -0.26258659195E+03  0.79424063099E+03  0.86629885018E+03  0.78906960769E+02 0.  0.
        -13    1    4    4    0    0  0.41535525475E+02 -0.84366845780E+02  0.28312796444E+03  0.29833608557E+03  0.10566000000E+00 0. -1.
     200003    1    4    4    0    0  0.16936134787E+03 -0.17821974617E+03  0.51111266655E+03  0.56796276461E+03  0.30000000000E+02 0. -1.
     200000    1    3    3    0    0 -0.15971741204E+03  0.16510948305E+03  0.10968410451E+04  0.11251809061E+04  0.10100000000E+03 0. -1.
    -200001    1    1    2    0    0 -0.51179461309E+02  0.97477108900E+02  0.41502895230E+03  0.74842444861E+03  0.61300000000E+03 0.  1.
<mgrwt>
<rscale>  0 0.14795029E+04</rscale>
<asrwt>0</asrwt>
<pdfrwt beam="1">  1        2 0.36042963E+00 0.14795029E+04</pdfrwt>
<pdfrwt beam="2">  1       -2 0.30985255E-01 0.14795029E+04</pdfrwt>
<totfact> 0.40161268E+01</totfact>
</mgrwt>
</event>
<event>
 8    1  0.7583103E-052  0.1457018E+04  0.7818608E-02  0.8913550E-01
          2   -1    0    0  501    0  0.00000000000E+00  0.00000000000E+00  0.14254791262E+04  0.14254791262E+04  0.25500000000E-02 0.  1.
         -2   -1    0    0    0  501 -0.00000000000E+00 -0.00000000000E+00 -0.37231357431E+03  0.37231357431E+03  0.25500000000E-02 0. -1.
     200001    2    1    2    0    0 -0.13481352857E+03  0.23246752769E+03  0.88189389526E+03  0.11069100627E+04  0.61261505485E+03 0.  0.
    5000001    2    3    3    0    0  0.21912437904E+03  0.16467533648E+03  0.46992629030E+03  0.55032571940E+03  0.83031434924E+02 0.  0.
        -13    1    4    4    0    0  0.11861316706E+03  0.46461604515E+02  0.23246084401E+03  0.26507700627E+03  0.10566000000E+00 0. -1.
     200003    1    4    4    0    0  0.10051121199E+03  0.11821373197E+03  0.23746544629E+03  0.28524871313E+03  0.30000000000E+02 0. -1.
     200000    1    3    3    0    0 -0.35393790761E+03  0.67792191208E+02  0.41196760496E+03  0.55658434327E+03  0.10100000000E+03 0.  1.
    -200001    1    1    2    0    0  0.13481352857E+03 -0.23246752769E+03  0.17127165664E+03  0.69088263785E+03  0.61300000000E+03 0. -1.
<mgrwt>
<rscale>  0 0.14570178E+04</rscale>
<asrwt>0</asrwt>
<pdfrwt beam="1">  1        2 0.20363987E+00 0.14570178E+04</pdfrwt>
<pdfrwt beam="2">  1       -2 0.53187654E-01 0.14570178E+04</pdfrwt>
<totfact> 0.51837289E+01</totfact>
</mgrwt>
</event>
<event>
 8    1  0.7583103E-052  0.1912076E+04  0.7818608E-02  0.8648869E-01
          2   -1    0    0  501    0  0.00000000000E+00  0.00000000000E+00  0.23354831330E+04  0.23354831330E+04  0.25500000000E-02 0.  1.
         -2   -1    0    0    0  501 -0.00000000000E+00 -0.00000000000E+00 -0.39135744999E+03  0.39135745000E+03  0.25500000000E-02 0. -1.
     200001    2    1    2    0    0  0.33212682906E+03  0.29725627297E+03  0.18070498933E+04  0.19566274343E+04  0.60356613319E+03 0.  0.
    5000001    2    3    3    0    0  0.21717042961E+03  0.46628574634E+03  0.12451387797E+04  0.13502191260E+04  0.90198198011E+02 0.  0.
        -13    1    4    4    0    0  0.14147646871E+03  0.31725412071E+03  0.92012998813E+03  0.98351663663E+03  0.10566000000E+00 0. -1.
     200003    1    4    4    0    0  0.75693960905E+02  0.14903162563E+03  0.32500879154E+03  0.36670248940E+03  0.30000000000E+02 0. -1.
     200000    1    3    3    0    0  0.11495639945E+03 -0.16902947337E+03  0.56191111365E+03  0.60640830823E+03  0.10100000000E+03 0. -1.
    -200001    1    1    2    0    0 -0.33212682906E+03 -0.29725627297E+03  0.13707578971E+03  0.77021314876E+03  0.61300000000E+03 0. -1.
<mgrwt>
<rscale>  0 0.19120761E+04</rscale>
<asrwt>0</asrwt>
<pdfrwt beam="1">  1        2 0.33364046E+00 0.19120761E+04</pdfrwt>
<pdfrwt beam="2">  1       -2 0.55908205E-01 0.19120761E+04</pdfrwt>
<totfact> 0.15168805E+01</totfact>
</mgrwt>
</event>
<event>
 8    1  0.7583103E-052  0.1575171E+04  0.7818608E-02  0.8835948E-01
         -2   -1    0    0    0  501 -0.00000000000E+00  0.00000000000E+00  0.71718364935E+03  0.71718364935E+03  0.25500000000E-02 0. -1.
          2   -1    0    0  501    0  0.00000000000E+00 -0.00000000000E+00 -0.86489834316E+03  0.86489834316E+03  0.25500000000E-02 0.  1.
     200001    2    1    2    0    0  0.31366065194E+03 -0.56176947747E+00 -0.45753183277E+03  0.82700651301E+03  0.61336862848E+03 0.  0.
    5000001    2    3    3    0    0  0.26073483345E+03  0.21655719240E+03 -0.13528787108E+03  0.42205718690E+03  0.21201365523E+03 0.  0.
        -13    1    4    4    0    0  0.28005203076E+03  0.22624740902E+03 -0.13658257258E+03  0.38506082678E+03  0.10566000000E+00 0. -1.
     200003    1    4    4    0    0 -0.19317197313E+02 -0.96902166282E+01  0.12947015037E+01  0.36996360123E+02  0.30000000000E+02 0. -1.
     200000    1    3    3    0    0  0.52925818489E+02 -0.21711896187E+03 -0.32224396169E+03  0.40494932611E+03  0.10100000000E+03 0.  1.
    -200001    1    1    2    0    0 -0.31366065194E+03  0.56176947747E+00  0.30981713896E+03  0.75507547951E+03  0.61300000000E+03 0. -1.
<mgrwt>
<rscale>  0 0.15751710E+04</rscale>
<asrwt>0</asrwt>
<pdfrwt beam="1">  1        2 0.12355691E+00 0.15751710E+04</pdfrwt>
<pdfrwt beam="2">  1       -2 0.10245481E+00 0.15751710E+04</pdfrwt>
<totfact> 0.25758667E+01</totfact>
</mgrwt>
</event>
<event>
 8    1  0.7583103E-052  0.1419253E+04  0.7818608E-02  0.8939999E-01
         -2   -1    0    0    0  501 -0.00000000000E+00  0.00000000000E+00  0.22517660125E+03  0.22517660127E+03  0.25500000000E-02 0. -1.
          2   -1    0    0  501    0  0.00000000000E+00 -0.00000000000E+00 -0.22363329984E+04  0.22363329984E+04  0.25500000000E-02 0.  1.
     200001    2    1    2    0    0 -0.31709627759E+03  0.67799561728E+02 -0.76197879965E+03  0.10327477231E+04  0.61709751143E+03 0.  0.
    5000001    2    3    3    0    0 -0.11782555002E+03  0.86324331882E+02 -0.78945855882E+03  0.80689793422E+03  0.80651780158E+02 0.  0.
        -13    1    4    4    0    0 -0.47541864456E+02  0.14913482767E+02 -0.13046323054E+03  0.13965423922E+03  0.10566000000E+00 0. -1.
     200003    1    4    4    0    0 -0.70283685567E+02  0.71410849115E+02 -0.65899532828E+03  0.66724369500E+03  0.30000000000E+02 0. -1.
     200000    1    3    3    0    0 -0.19927072757E+03 -0.18524770154E+02  0.27479759163E+02  0.22584978889E+03  0.10100000000E+03 0. -1.
    -200001    1    1    2    0    0  0.31709627759E+03 -0.67799561728E+02 -0.12491775974E+04  0.14287618765E+04  0.61300000000E+03 0.  1.
<mgrwt>
<rscale>  0 0.14192531E+04</rscale>
<asrwt>0</asrwt>
<pdfrwt beam="1">  1        2 0.31947613E+00 0.14192531E+04</pdfrwt>
<pdfrwt beam="2">  1       -2 0.32168087E-01 0.14192531E+04</pdfrwt>
<totfact> 0.53040941E+01</totfact>
</mgrwt>
</event>
<event>
 8    1  0.7583103E-052  0.3015646E+04  0.7818608E-02  0.8239277E-01
         -2   -1    0    0    0  501 -0.00000000000E+00  0.00000000000E+00  0.21522319703E+04  0.21522319703E+04  0.25500000000E-02 0. -1.
          2   -1    0    0  501    0  0.00000000000E+00 -0.00000000000E+00 -0.10563593239E+04  0.10563593239E+04  0.25500000000E-02 0.  1.
     200001    2    1    2    0    0 -0.19624509905E+02  0.12367140835E+04  0.11942036442E+04  0.18246531342E+04  0.61105635645E+03 0.  0.
    5000001    2    3    3    0    0 -0.26688896894E+03  0.88564748741E+03  0.75704947593E+03  0.12036118841E+04  0.14126735202E+03 0.  0.
        -13    1    4    4    0    0 -0.26754979081E+03  0.73917150514E+03  0.64219081850E+03  0.10150696839E+04  0.10566000000E+00 0. -1.
     200003    1    4    4    0    0  0.66082187072E+00  0.14647598228E+03  0.11485865743E+03  0.18854220020E+03  0.30000000000E+02 0. -1.
     200000    1    3    3    0    0  0.24726445903E+03  0.35106659605E+03  0.43715416822E+03  0.62104125012E+03  0.10100000000E+03 0.  1.
    -200001    1    1    2    0    0  0.19624509905E+02 -0.12367140835E+04 -0.98330997706E+02  0.13839381600E+04  0.61300000000E+03 0.  1.
<mgrwt>
<rscale>  0 0.30156461E+04</rscale>
<asrwt>0</asrwt>
<pdfrwt beam="1">  1        2 0.15090848E+00 0.30156461E+04</pdfrwt>
<pdfrwt beam="2">  1       -2 0.30746171E+00 0.30156461E+04</pdfrwt>
<totfact> 0.63858934E-01</totfact>
</mgrwt>
</event>
<event>
 8    1  0.7583103E-052  0.1266059E+04  0.7818608E-02  0.9056923E-01
         -2   -1    0    0    0  501 -0.00000000000E+00  0.00000000000E+00  0.19974555963E+03  0.19974555965E+03  0.25500000000E-02 0. -1.
          2   -1    0    0  501    0  0.00000000000E+00 -0.00000000000E+00 -0.20061830691E+04  0.20061830691E+04  0.25500000000E-02 0.  1.
     200001    2    1    2    0    0  0.11142083560E+03  0.11173652526E+03 -0.96127348792E+03  0.11500068149E+04  0.61120315937E+03 0.  0.
    5000001    2    3    3    0    0 -0.13438379451E+02  0.86425223439E+02 -0.75092355298E+02  0.24903595776E+03  0.22074903656E+03 0.  0.
        -13    1    4    4    0    0 -0.61463156953E+02  0.12400020948E+02 -0.12752069537E+03  0.14210214318E+03  0.10566000000E+00 0. -1.
     200003    1    4    4    0    0  0.48024777502E+02  0.74025202491E+02  0.52428340077E+02  0.10693381458E+03  0.30000000000E+02 0. -1.
     200000    1    3    3    0    0  0.12485921505E+03  0.25311301820E+02 -0.88618113262E+03  0.90097085713E+03  0.10100000000E+03 0.  1.
    -200001    1    1    2    0    0 -0.11142083560E+03 -0.11173652526E+03 -0.84516402156E+03  0.10559218139E+04  0.61300000000E+03 0.  1.
<mgrwt>
<rscale>  0 0.12660587E+04</rscale>
<asrwt>0</asrwt>
<pdfrwt beam="1">  1        2 0.28659757E+00 0.12660587E+04</pdfrwt>
<pdfrwt beam="2">  1       -2 0.28535081E-01 0.12660587E+04</pdfrwt>
<totfact> 0.88122687E+01</totfact>
</mgrwt>
</event>
<event>
 8    1  0.7583103E-052  0.1817276E+04  0.7818608E-02  0.8697166E-01
         -2   -1    0    0    0  501 -0.00000000000E+00  0.00000000000E+00  0.30636238989E+03  0.30636238990E+03  0.25500000000E-02 0. -1.
          2   -1    0    0  501    0  0.00000000000E+00 -0.00000000000E+00 -0.26949225440E+04  0.26949225440E+04  0.25500000000E-02 0.  1.
     200001    2    1    2    0    0 -0.21106298015E+03  0.40395740837E+03 -0.20061914584E+04  0.21470578044E+04  0.61426694379E+03 0.  0.
    5000001    2    3    3    0    0  0.51146866105E+02  0.37345180612E+03 -0.59052712736E+03  0.70345429461E+03  0.63587758655E+02 0.  0.
        -13    1    4    4    0    0  0.11860619456E+02  0.10727763638E+02 -0.20489921953E+02  0.25992446446E+02  0.10566000000E+00 0. -1.
     200003    1    4    4    0    0  0.39286246649E+02  0.36272404248E+03 -0.57003720541E+03  0.67746184817E+03  0.30000000000E+02 0. -1.
     200000    1    3    3    0    0 -0.26220984625E+03  0.30505602244E+02 -0.14156643310E+04  0.14436035097E+04  0.10100000000E+03 0.  1.
    -200001    1    1    2    0    0  0.21106298015E+03 -0.40395740837E+03 -0.38236869571E+03  0.85422712953E+03  0.61300000000E+03 0. -1.
<mgrwt>
<rscale>  0 0.18172759E+04</rscale>
<asrwt>0</asrwt>
<pdfrwt beam="1">  1        2 0.38498892E+00 0.18172759E+04</pdfrwt>
<pdfrwt beam="2">  1       -2 0.43766057E-01 0.18172759E+04</pdfrwt>
<totfact> 0.16254189E+01</totfact>
</mgrwt>
</event>
<event>
 8    1  0.7583103E-052  0.2999043E+04  0.7818608E-02  0.8244004E-01
         -2   -1    0    0    0  501 -0.00000000000E+00  0.00000000000E+00  0.15693229645E+04  0.15693229645E+04  0.25500000000E-02 0. -1.
          2   -1    0    0  501    0  0.00000000000E+00 -0.00000000000E+00 -0.14328243712E+04  0.14328243712E+04  0.25500000000E-02 0.  1.
     200001    2    1    2    0    0 -0.30943430833E+03 -0.70702823234E+03  0.11996556409E+04  0.15524196301E+04  0.61253125531E+03 0.  0.
    5000001    2    3    3    0    0 -0.25409747597E+03 -0.98652218639E+01  0.22338970296E+03  0.34726627483E+03  0.77640558651E+02 0.  0.
        -13    1    4    4    0    0 -0.77692839287E+02  0.15860246465E+02  0.10334661570E+03  0.13026226942E+03  0.10566000000E+00 0. -1.
     200003    1    4    4    0    0 -0.17640463668E+03 -0.25725468329E+02  0.12004308727E+03  0.21700400541E+03  0.30000000000E+02 0.  1.
     200000    1    3    3    0    0 -0.55336832366E+02 -0.69716301048E+03  0.97626593789E+03  0.12051533553E+04  0.10100000000E+03 0. -1.
    -200001    1    1    2    0    0  0.30943430833E+03  0.70702823234E+03 -0.10631570476E+04  0.14497277056E+04  0.61300000000E+03 0.  1.
<mgrwt>
<rscale>  0 0.29990426E+04</rscale>
<asrwt>0</asrwt>
<pdfrwt beam="1">  1        2 0.20468919E+00 0.29990426E+04</pdfrwt>
<pdfrwt beam="2">  1       -2 0.22418900E+00 0.29990426E+04</pdfrwt>
<totfact> 0.12738924E+00</totfact>
</mgrwt>
</event>
<event>
 8    1  0.7583103E-052  0.1337765E+04  0.7818608E-02  0.9000142E-01
          2   -1    0    0  501    0  0.00000000000E+00  0.00000000000E+00  0.98536393896E+03  0.98536393896E+03  0.25500000000E-02 0.  1.
         -2   -1    0    0    0  501 -0.00000000000E+00 -0.00000000000E+00 -0.45404931301E+03  0.45404931301E+03  0.25500000000E-02 0. -1.
     200001    2    1    2    0    0 -0.26469695289E+03 -0.12530558206E+02  0.19784354607E+03  0.69295933318E+03  0.60895736876E+03 0.  0.
    5000001    2    3    3    0    0 -0.38641272315E+03  0.12356532738E+03  0.23980167668E+03  0.48012535204E+03  0.91827701673E+02 0.  0.
        -13    1    4    4    0    0 -0.83116590783E+02  0.64791254584E+02  0.66861769681E+02  0.12480697794E+03  0.10566000000E+00 0. -1.
     200003    1    4    4    0    0 -0.30329613237E+03  0.58774072791E+02  0.17293990699E+03  0.35531837410E+03  0.30000000000E+02 0. -1.
     200000    1    3    3    0    0  0.12171577026E+03 -0.13609588558E+03 -0.41958130609E+02  0.21283398114E+03  0.10100000000E+03 0.  1.
    -200001    1    1    2    0    0  0.26469695289E+03  0.12530558206E+02  0.33347107988E+03  0.74645391879E+03  0.61300000000E+03 0. -1.
<mgrwt>
<rscale>  0 0.13377650E+04</rscale>
<asrwt>0</asrwt>
<pdfrwt beam="1">  1        2 0.14076628E+00 0.13377650E+04</pdfrwt>
<pdfrwt beam="2">  1       -2 0.64864188E-01 0.13377650E+04</pdfrwt>
<totfact> 0.61563819E+01</totfact>
</mgrwt>
</event>
<event>
 8    1  0.7583103E-052  0.1531153E+04  0.7818608E-02  0.8863997E-01
          2   -1    0    0  501    0  0.00000000000E+00  0.00000000000E+00  0.19769652642E+04  0.19769652642E+04  0.25500000000E-02 0.  1.
         -2   -1    0    0    0  501 -0.00000000000E+00 -0.00000000000E+00 -0.29646822073E+03  0.29646822075E+03  0.25500000000E-02 0. -1.
     200001    2    1    2    0    0 -0.33883998399E+03 -0.30270522632E+02  0.12972330504E+04  0.14744409145E+04  0.61272635326E+03 0.  0.
    5000001    2    3    3    0    0  0.13508550716E+03  0.11348347474E+03  0.26522744997E+03  0.32530770105E+03  0.65976562923E+02 0.  0.
        -13    1    4    4    0    0  0.89468150541E+01  0.26741420139E+02  0.19640990648E+02  0.34364643580E+02  0.10566000000E+00 0. -1.
     200003    1    4    4    0    0  0.12613869211E+03  0.86742054602E+02  0.24558645933E+03  0.29094305747E+03  0.30000000000E+02 0. -1.
     200000    1    3    3    0    0 -0.47392549115E+03 -0.14375399737E+03  0.10320056004E+04  0.11491332134E+04  0.10100000000E+03 0.  1.
    -200001    1    1    2    0    0  0.33883998399E+03  0.30270522632E+02  0.38326399310E+03  0.79899257049E+03  0.61300000000E+03 0. -1.
<mgrwt>
<rscale>  0 0.15311530E+04</rscale>
<asrwt>0</asrwt>
<pdfrwt beam="1">  1        2 0.28242361E+00 0.15311530E+04</pdfrwt>
<pdfrwt beam="2">  1       -2 0.42352603E-01 0.15311530E+04</pdfrwt>
<totfact> 0.42063906E+01</totfact>
</mgrwt>
</event>
<event>
 8    1  0.7583103E-052  0.1311053E+04  0.7818608E-02  0.9020846E-01
         -2   -1    0    0    0  501 -0.00000000000E+00  0.00000000000E+00  0.15680461805E+03  0.15680461807E+03  0.25500000000E-02 0. -1.
          2   -1    0    0  501    0  0.00000000000E+00 -0.00000000000E+00 -0.27404481623E+04  0.27404481623E+04  0.25500000000E-02 0.  1.
     200001    2    1    2    0    0 -0.11789947290E+03  0.17968572032E+03 -0.14823479478E+04  0.16186565836E+04  0.61360121683E+03 0.  0.
    5000001    2    3    3    0    0 -0.25850189978E+03 -0.88462869743E+02 -0.10043483599E+04  0.10438894004E+04  0.79627512163E+02 0.  0.
        -13    1    4    4    0    0 -0.12822579519E+03 -0.78683394740E+02 -0.51721667579E+03  0.53865205099E+03  0.10566000000E+00 0. -1.
     200003    1    4    4    0    0 -0.13027610459E+03 -0.97794750032E+01 -0.48713168413E+03  0.50523734941E+03  0.30000000000E+02 0. -1.
     200000    1    3    3    0    0  0.14060242689E+03  0.26814859006E+03 -0.47799958793E+03  0.57476718318E+03  0.10100000000E+03 0. -1.
    -200001    1    1    2    0    0  0.11789947290E+03 -0.17968572032E+03 -0.11012955964E+04  0.12785961968E+04  0.61300000000E+03 0. -1.
<mgrwt>
<rscale>  0 0.13110529E+04</rscale>
<asrwt>0</asrwt>
<pdfrwt beam="1">  1        2 0.39149256E+00 0.13110529E+04</pdfrwt>
<pdfrwt beam="2">  1       -2 0.22400661E-01 0.13110529E+04</pdfrwt>
<totfact> 0.56473845E+01</totfact>
</mgrwt>
</event>
<event>
 8    1  0.7583103E-052  0.2781833E+04  0.7818608E-02  0.8308931E-01
          2   -1    0    0  501    0  0.00000000000E+00  0.00000000000E+00  0.93262540920E+03  0.93262540921E+03  0.25500000000E-02 0.  1.
         -2   -1    0    0    0  501 -0.00000000000E+00 -0.00000000000E+00 -0.20744115417E+04  0.20744115417E+04  0.25500000000E-02 0. -1.
     200001    2    1    2    0    0  0.10639684909E+02  0.78270599374E+03 -0.16224564688E+04  0.19027023785E+04  0.61251079394E+03 0.  0.
    5000001    2    3    3    0    0 -0.17058855385E+02  0.78133602905E+03 -0.10012581714E+04  0.12727361805E+04  0.81009040551E+02 0.  0.
        -13    1    4    4    0    0 -0.39086370531E+01  0.15496371611E+03 -0.15334024138E+03  0.21804190319E+03  0.10566000000E+00 0. -1.
     200003    1    4    4    0    0 -0.13150218332E+02  0.62637231293E+03 -0.84791792998E+03  0.10546942773E+04  0.30000000000E+02 0. -1.
     200000    1    3    3    0    0  0.27698540294E+02  0.13699646950E+01 -0.62119829741E+03  0.62996619801E+03  0.10100000000E+03 0.  1.
    -200001    1    1    2    0    0 -0.10639684909E+02 -0.78270599374E+03  0.48067033628E+03  0.11043345724E+04  0.61300000000E+03 0.  1.
<mgrwt>
<rscale>  0 0.27818331E+04</rscale>
<asrwt>0</asrwt>
<pdfrwt beam="1">  1        2 0.13323220E+00 0.27818331E+04</pdfrwt>
<pdfrwt beam="2">  1       -2 0.29634451E+00 0.27818331E+04</pdfrwt>
<totfact> 0.90843119E-01</totfact>
</mgrwt>
</event>
<event>
 8    1  0.7583103E-052  0.1417493E+04  0.7818608E-02  0.8941253E-01
          2   -1    0    0  501    0  0.00000000000E+00  0.00000000000E+00  0.19680442372E+04  0.19680442372E+04  0.25500000000E-02 0.  1.
         -2   -1    0    0    0  501 -0.00000000000E+00 -0.00000000000E+00 -0.25523905561E+03  0.25523905562E+03  0.25500000000E-02 0. -1.
     200001    2    1    2    0    0  0.70638987210E+02  0.34234631849E+03  0.91260009197E+03  0.11563774611E+04  0.61820630570E+03 0.  0.
    5000001    2    3    3    0    0  0.40146936767E+02  0.20421328526E+03  0.95131517717E+03  0.97830343765E+03  0.93606663216E+02 0.  0.
        -13    1    4    4    0    0 -0.11784742468E+02  0.21245579442E+02  0.24540000757E+03  0.24659973576E+03  0.10566000000E+00 0. -1.
     200003    1    4    4    0    0  0.51931679236E+02  0.18296770582E+03  0.70591516961E+03  0.73170370189E+03  0.30000000000E+02 0. -1.
     200000    1    3    3    0    0  0.30492050443E+02  0.13813303323E+03 -0.38715085202E+02  0.17807402346E+03  0.10100000000E+03 0. -1.
    -200001    1    1    2    0    0 -0.70638987210E+02 -0.34234631849E+03  0.80020508963E+03  0.10669058317E+04  0.61300000000E+03 0.  1.
<mgrwt>
<rscale>  0 0.14174932E+04</rscale>
<asrwt>0</asrwt>
<pdfrwt beam="1">  1        2 0.28114917E+00 0.14174932E+04</pdfrwt>
<pdfrwt beam="2">  1       -2 0.36462723E-01 0.14174932E+04</pdfrwt>
<totfact> 0.57418483E+01</totfact>
</mgrwt>
</event>
<event>
 8    1  0.7583103E-052  0.1750021E+04  0.7818608E-02  0.8733339E-01
         -2   -1    0    0    0  501 -0.00000000000E+00  0.00000000000E+00  0.98771801550E+03  0.98771801551E+03  0.25500000000E-02 0. -1.
          2   -1    0    0  501    0  0.00000000000E+00 -0.00000000000E+00 -0.77516363025E+03  0.77516363026E+03  0.25500000000E-02 0.  1.
     200001    2    1    2    0    0 -0.30322893582E+03 -0.52576989741E+03 -0.43720051221E+02  0.86297756236E+03  0.61191262262E+03 0.  0.
    5000001    2    3    3    0    0 -0.27233219791E+03 -0.82776383796E+02 -0.54515941666E+02  0.40743896601E+03  0.28638744280E+03 0.  0.
        -13    1    4    4    0    0  0.43500977872E+02  0.39233522603E+02  0.15057829448E+02  0.60484326593E+02  0.10566000000E+00 0. -1.
     200003    1    4    4    0    0 -0.31583317578E+03 -0.12200990640E+03 -0.69573771114E+02  0.34695463941E+03  0.30000000000E+02 0. -1.
     200000    1    3    3    0    0 -0.30896737912E+02 -0.44299351361E+03  0.10795890446E+02  0.45553859635E+03  0.10100000000E+03 0.  1.
    -200001    1    1    2    0    0  0.30322893582E+03  0.52576989741E+03  0.25627443647E+03  0.89990408340E+03  0.61300000000E+03 0.  1.
<mgrwt>
<rscale>  0 0.17500207E+04</rscale>
<asrwt>0</asrwt>
<pdfrwt beam="1">  1        2 0.11073766E+00 0.17500207E+04</pdfrwt>
<pdfrwt beam="2">  1       -2 0.14110257E+00 0.17500207E+04</pdfrwt>
<totfact> 0.13237598E+01</totfact>
</mgrwt>
</event>
<event>
 8    1  0.7583103E-052  0.1241302E+04  0.7818608E-02  0.9077454E-01
         -2   -1    0    0    0  501 -0.00000000000E+00  0.00000000000E+00  0.28284587999E+03  0.28284588001E+03  0.25500000000E-02 0. -1.
          2   -1    0    0  501    0  0.00000000000E+00 -0.00000000000E+00 -0.13618996614E+04  0.13618996614E+04  0.25500000000E-02 0.  1.
     200001    2    1    2    0    0  0.23642335443E+02 -0.41427615437E+02 -0.42949012930E+03  0.75033112657E+03  0.61340021274E+03 0.  0.
    5000001    2    3    3    0    0 -0.44297177386E+02  0.24252127521E+03 -0.63833716374E+02  0.27163669145E+03  0.94514231412E+02 0.  0.
        -13    1    4    4    0    0  0.23646229371E+02  0.30432849101E+02 -0.16840321509E+02  0.42058412481E+02  0.10566000000E+00 0. -1.
     200003    1    4    4    0    0 -0.67943406758E+02  0.21208842611E+03 -0.46993394865E+02  0.22957827897E+03  0.30000000000E+02 0. -1.
     200000    1    3    3    0    0  0.67939512829E+02 -0.28394889065E+03 -0.36565641293E+03  0.47869443512E+03  0.10100000000E+03 0.  1.
    -200001    1    1    2    0    0 -0.23642335443E+02  0.41427615437E+02 -0.64956365214E+03  0.89441441487E+03  0.61300000000E+03 0.  1.
<mgrwt>
<rscale>  0 0.12413021E+04</rscale>
<asrwt>0</asrwt>
<pdfrwt beam="1">  1        2 0.19455709E+00 0.12413021E+04</pdfrwt>
<pdfrwt beam="2">  1       -2 0.40406555E-01 0.12413021E+04</pdfrwt>
<totfact> 0.98979439E+01</totfact>
</mgrwt>
</event>
<event>
 8    1  0.7583103E-052  0.1259664E+04  0.7818608E-02  0.9062178E-01
          2   -1    0    0  501    0  0.00000000000E+00  0.00000000000E+00  0.21106958452E+03  0.21106958453E+03  0.25500000000E-02 0.  1.
         -2   -1    0    0    0  501 -0.00000000000E+00 -0.00000000000E+00 -0.18794208759E+04  0.18794208759E+04  0.25500000000E-02 0. -1.
     200001    2    1    2    0    0 -0.57192182448E+02 -0.10905799091E+02 -0.10546617851E+04  0.12211380047E+04  0.61276150610E+03 0.  0.
    5000001    2    3    3    0    0 -0.19894064837E+03  0.10766272929E+02 -0.10207411411E+04  0.10424933396E+04  0.72017995440E+02 0.  0.
        -13    1    4    4    0    0 -0.81145955010E+02 -0.22499643721E+02 -0.47340211748E+03  0.48083310616E+03  0.10566000000E+00 0. -1.
     200003    1    4    4    0    0 -0.11779469336E+03  0.33265916650E+02 -0.54733902366E+03  0.56166023343E+03  0.30000000000E+02 0. -1.
     200000    1    3    3    0    0  0.14174846592E+03 -0.21672072020E+02 -0.33920644016E+02  0.17864466515E+03  0.10100000000E+03 0.  1.
    -200001    1    1    2    0    0  0.57192182448E+02  0.10905799091E+02 -0.61368950627E+03  0.86935245573E+03  0.61300000000E+03 0.  1.
<mgrwt>
<rscale>  0 0.12596644E+04</rscale>
<asrwt>0</asrwt>
<pdfrwt beam="1">  1        2 0.30152799E-01 0.12596644E+04</pdfrwt>
<pdfrwt beam="2">  1       -2 0.26848869E+00 0.12596644E+04</pdfrwt>
<totfact> 0.86604264E+00</totfact>
</mgrwt>
</event>
<event>
 8    1  0.7583103E-052  0.1232367E+04  0.7818608E-02  0.9084988E-01
          2   -1    0    0  501    0  0.00000000000E+00  0.00000000000E+00  0.33211985987E+04  0.33211985987E+04  0.25500000000E-02 0.  1.
         -2   -1    0    0    0  501 -0.00000000000E+00 -0.00000000000E+00 -0.11432078781E+03  0.11432078784E+03  0.25500000000E-02 0. -1.
     200001    2    1    2    0    0 -0.53754792085E+02 -0.18941453670E+02  0.14631648230E+04  0.15863162229E+04  0.61016350547E+03 0.  0.
    5000001    2    3    3    0    0 -0.86886646628E+02 -0.21198245961E+03  0.12525421688E+04  0.12814794597E+04  0.14436713034E+03 0.  0.
        -13    1    4    4    0    0 -0.60628633576E+01 -0.51385093895E+02  0.64784319181E+03  0.64990614593E+03  0.10566000000E+00 0. -1.
     200003    1    4    4    0    0 -0.80823783270E+02 -0.16059736572E+03  0.60469897701E+03  0.63157331373E+03  0.30000000000E+02 0. -1.
     200000    1    3    3    0    0  0.33131854543E+02  0.19304100594E+03  0.21062265418E+03  0.30483676322E+03  0.10100000000E+03 0. -1.
    -200001    1    1    2    0    0  0.53754792085E+02  0.18941453670E+02  0.17437129879E+04  0.18492031637E+04  0.61300000000E+03 0. -1.
<mgrwt>
<rscale>  0 0.12323669E+04</rscale>
<asrwt>0</asrwt>
<pdfrwt beam="1">  1        2 0.47445683E+00 0.12323669E+04</pdfrwt>
<pdfrwt beam="2">  1       -2 0.16331545E-01 0.12323669E+04</pdfrwt>
<totfact> 0.46840896E+01</totfact>
</mgrwt>
</event>
<event>
 8    1  0.7583103E-052  0.2144334E+04  0.7818608E-02  0.8541961E-01
         -2   -1    0    0    0  501 -0.00000000000E+00  0.00000000000E+00  0.31638850994E+03  0.31638850995E+03  0.25500000000E-02 0. -1.
          2   -1    0    0  501    0  0.00000000000E+00 -0.00000000000E+00 -0.36333254256E+04  0.36333254256E+04  0.25500000000E-02 0.  1.
     200001    2    1    2    0    0  0.36388818238E+03 -0.49586546157E+03 -0.28171555257E+04  0.29477919810E+04  0.61222148115E+03 0.  0.
    5000001    2    3    3    0    0  0.12982923167E+03  0.10413613726E+03 -0.10277140562E+04  0.10433006359E+04  0.67676221431E+02 0.  0.
        -13    1    4    4    0    0  0.95389254120E+02  0.89176613247E+02 -0.69914081272E+03  0.71123095076E+03  0.10566000000E+00 0. -1.
     200003    1    4    4    0    0  0.34439977547E+02  0.14959524013E+02 -0.32857324353E+03  0.33206968512E+03  0.30000000000E+02 0. -1.
     200000    1    3    3    0    0  0.23405895072E+03 -0.60000159883E+03 -0.17894414695E+04  0.19044913451E+04  0.10100000000E+03 0.  1.
    -200001    1    1    2    0    0 -0.36388818238E+03  0.49586546157E+03 -0.49978138993E+03  0.10019219545E+04  0.61300000000E+03 0. -1.
<mgrwt>
<rscale>  0 0.21443343E+04</rscale>
<asrwt>0</asrwt>
<pdfrwt beam="1">  1        2 0.51904646E+00 0.21443343E+04</pdfrwt>
<pdfrwt beam="2">  1       -2 0.45198361E-01 0.21443343E+04</pdfrwt>
<totfact> 0.42622779E+00</totfact>
</mgrwt>
</event>
<event>
 8    1  0.7583103E-052  0.1702713E+04  0.7818608E-02  0.8759819E-01
          2   -1    0    0  501    0  0.00000000000E+00  0.00000000000E+00  0.14146287949E+04  0.14146287949E+04  0.25500000000E-02 0.  1.
         -2   -1    0    0    0  501 -0.00000000000E+00 -0.00000000000E+00 -0.51236596352E+03  0.51236596352E+03  0.25500000000E-02 0. -1.
     200001    2    1    2    0    0 -0.15491283672E+03 -0.28746392081E+03  0.10079835208E+04  0.12244427270E+04  0.61367395308E+03 0.  0.
    5000001    2    3    3    0    0 -0.11620914144E+03 -0.44049216522E+03  0.65795390693E+03  0.82740702304E+03  0.21014548760E+03 0.  0.
        -13    1    4    4    0    0 -0.76972666791E+02 -0.44018209867E+03  0.62386449107E+03  0.76739298004E+03  0.10566000000E+00 0. -1.
     200003    1    4    4    0    0 -0.39236474645E+02 -0.31006654120E+00  0.34089415859E+02  0.60014043001E+02  0.30000000000E+02 0. -1.
     200000    1    3    3    0    0 -0.38703695286E+02  0.15302824441E+03  0.35002961384E+03  0.39703570391E+03  0.10100000000E+03 0.  1.
    -200001    1    1    2    0    0  0.15491283672E+03  0.28746392081E+03 -0.10572068940E+03  0.70255203146E+03  0.61300000000E+03 0. -1.
<mgrwt>
<rscale>  0 0.17027127E+04</rscale>
<asrwt>0</asrwt>
<pdfrwt beam="1">  1        2 0.20208983E+00 0.17027127E+04</pdfrwt>
<pdfrwt beam="2">  1       -2 0.73195136E-01 0.17027127E+04</pdfrwt>
<totfact> 0.26115815E+01</totfact>
</mgrwt>
</event>
<event>
 8    1  0.7583103E-052  0.1878511E+04  0.7818608E-02  0.8665627E-01
          2   -1    0    0  501    0  0.00000000000E+00  0.00000000000E+00  0.57933251809E+03  0.57933251809E+03  0.25500000000E-02 0.  1.
         -2   -1    0    0    0  501 -0.00000000000E+00 -0.00000000000E+00 -0.15227891827E+04  0.15227891827E+04  0.25500000000E-02 0. -1.
     200001    2    1    2    0    0  0.32909610356E+03 -0.53898137853E+03 -0.83907768430E+03  0.12158547301E+04  0.61273664219E+03 0.  0.
    5000001    2    3    3    0    0  0.31132721367E+03 -0.22405553599E+03 -0.79093933854E+03  0.88117231337E+03  0.61270640789E+02 0.  0.
        -13    1    4    4    0    0  0.18367775783E+03 -0.14490105804E+03 -0.51285401141E+03  0.56369591406E+03  0.10566000000E+00 0. -1.
     200003    1    4    4    0    0  0.12764945584E+03 -0.79154477947E+02 -0.27808532713E+03  0.31747639931E+03  0.30000000000E+02 0. -1.
     200000    1    3    3    0    0  0.17768889892E+02 -0.31492584254E+03 -0.48138345753E+02  0.33468241674E+03  0.10100000000E+03 0.  1.
    -200001    1    1    2    0    0 -0.32909610356E+03  0.53898137853E+03 -0.10437898031E+03  0.88626697067E+03  0.61300000000E+03 0.  1.
<mgrwt>
<rscale>  0 0.18785114E+04</rscale>
<asrwt>0</asrwt>
<pdfrwt beam="1">  1        2 0.82761789E-01 0.18785114E+04</pdfrwt>
<pdfrwt beam="2">  1       -2 0.21754131E+00 0.18785114E+04</pdfrwt>
<totfact> 0.54503147E+00</totfact>
</mgrwt>
</event>
<event>
 8    1  0.7583103E-052  0.1483151E+04  0.7818608E-02  0.8895735E-01
         -2   -1    0    0    0  501 -0.00000000000E+00  0.00000000000E+00  0.41820976198E+03  0.41820976199E+03  0.25500000000E-02 0. -1.
          2   -1    0    0  501    0  0.00000000000E+00 -0.00000000000E+00 -0.13149723855E+04  0.13149723855E+04  0.25500000000E-02 0.  1.
     200001    2    1    2    0    0 -0.22026656945E+02  0.41655631753E+03 -0.41984508139E+03  0.85157924296E+03  0.61230137627E+03 0.  0.
    5000001    2    3    3    0    0  0.15104180090E+03  0.17514144376E+03  0.81803201421E+02  0.25989872780E+03  0.85833757961E+02 0.  0.
        -13    1    4    4    0    0  0.10272246209E+03  0.15562351418E+03  0.58830719331E+02  0.19552914638E+03  0.10566000000E+00 0. -1.
     200003    1    4    4    0    0  0.48319338810E+02  0.19517929582E+02  0.22972482090E+02  0.64369581416E+02  0.30000000000E+02 0.  1.
     200000    1    3    3    0    0 -0.17306845784E+03  0.24141487376E+03 -0.50164828281E+03  0.59168051516E+03  0.10100000000E+03 0.  1.
    -200001    1    1    2    0    0  0.22026656945E+02 -0.41655631753E+03 -0.47691754213E+03  0.88160290453E+03  0.61300000000E+03 0. -1.
<mgrwt>
<rscale>  0 0.14831511E+04</rscale>
<asrwt>0</asrwt>
<pdfrwt beam="1">  1        2 0.18785320E+00 0.14831511E+04</pdfrwt>
<pdfrwt beam="2">  1       -2 0.59744252E-01 0.14831511E+04</pdfrwt>
<totfact> 0.46635173E+01</totfact>
</mgrwt>
</event>
<event>
 8    1  0.7583103E-052  0.1683669E+04  0.7818608E-02  0.8770734E-01
         -2   -1    0    0    0  501 -0.00000000000E+00  0.00000000000E+00  0.84905338611E+03  0.84905338612E+03  0.25500000000E-02 0. -1.
          2   -1    0    0  501    0  0.00000000000E+00 -0.00000000000E+00 -0.83467672658E+03  0.83467672658E+03  0.25500000000E-02 0.  1.
     200001    2    1    2    0    0 -0.55004410797E+03  0.79853462933E+02  0.15285096843E+03  0.84476096519E+03  0.61752131421E+03 0.  0.
    5000001    2    3    3    0    0 -0.93471601388E+02  0.69840770255E+02  0.31172138144E+03  0.35079789379E+03  0.11078930086E+03 0.  0.
        -13    1    4    4    0    0 -0.29824098704E+00  0.58053876987E+02  0.15640818615E+03  0.16683486878E+03  0.10566000000E+00 0. -1.
     200003    1    4    4    0    0 -0.93173360401E+02  0.11786893268E+02  0.15531319529E+03  0.18396302501E+03  0.30000000000E+02 0. -1.
     200000    1    3    3    0    0 -0.45657250658E+03  0.10012692677E+02 -0.15887041301E+03  0.49396307140E+03  0.10100000000E+03 0.  1.
    -200001    1    1    2    0    0  0.55004410797E+03 -0.79853462933E+02 -0.13847430890E+03  0.83896914751E+03  0.61300000000E+03 0.  1.
<mgrwt>
<rscale>  0 0.16836687E+04</rscale>
<asrwt>0</asrwt>
<pdfrwt beam="1">  1        2 0.11923953E+00 0.16836687E+04</pdfrwt>
<pdfrwt beam="2">  1       -2 0.12129334E+00 0.16836687E+04</pdfrwt>
<totfact> 0.17761769E+01</totfact>
</mgrwt>
</event>
<event>
 8    1  0.7583103E-052  0.1516289E+04  0.7818608E-02  0.8873693E-01
          2   -1    0    0  501    0  0.00000000000E+00  0.00000000000E+00  0.11394195042E+04  0.11394195042E+04  0.25500000000E-02 0.  1.
         -2   -1    0    0    0  501 -0.00000000000E+00 -0.00000000000E+00 -0.50445245706E+03  0.50445245707E+03  0.25500000000E-02 0. -1.
     200001    2    1    2    0    0 -0.25597689090E+03  0.20362281349E+03  0.64383763702E+03  0.94900930855E+03  0.61571531249E+03 0.  0.
    5000001    2    3    3    0    0 -0.32262628254E+02 -0.20264125890E+03  0.17758280440E+03  0.28365741913E+03  0.82592505787E+02 0.  0.
        -13    1    4    4    0    0 -0.30893198896E+02 -0.23531141080E+02  0.40567684646E+02  0.56159171469E+02  0.10566000000E+00 0. -1.
     200003    1    4    4    0    0 -0.13694293580E+01 -0.17911011782E+03  0.13701511976E+03  0.22749824766E+03  0.30000000000E+02 0. -1.
     200000    1    3    3    0    0 -0.22371426264E+03  0.40626407239E+03  0.46625483261E+03  0.66535188943E+03  0.10100000000E+03 0.  1.
    -200001    1    1    2    0    0  0.25597689090E+03 -0.20362281349E+03 -0.88705898356E+01  0.69486265277E+03  0.61300000000E+03 0. -1.
<mgrwt>
<rscale>  0 0.15162888E+04</rscale>
<asrwt>0</asrwt>
<pdfrwt beam="1">  1        2 0.16277421E+00 0.15162888E+04</pdfrwt>
<pdfrwt beam="2">  1       -2 0.72064637E-01 0.15162888E+04</pdfrwt>
<totfact> 0.39061259E+01</totfact>
</mgrwt>
</event>
<event>
 8    1  0.7583103E-052  0.1275585E+04  0.7818608E-02  0.9049154E-01
          2   -1    0    0  501    0  0.00000000000E+00  0.00000000000E+00  0.23483219393E+04  0.23483219393E+04  0.25500000000E-02 0.  1.
         -2   -1    0    0    0  501 -0.00000000000E+00 -0.00000000000E+00 -0.17322131481E+03  0.17322131483E+03  0.25500000000E-02 0. -1.
     200001    2    1    2    0    0  0.73287527518E+02  0.60042596439E+01  0.14016793070E+04  0.15319187560E+04  0.61372883480E+03 0.  0.
    5000001    2    3    3    0    0  0.71085611506E+02  0.16278852570E+03  0.13100218410E+04  0.13241009378E+04  0.74382801645E+02 0.  0.
        -13    1    4    4    0    0  0.33310752007E+02  0.72877590778E+02  0.79790557295E+03  0.80191898840E+03  0.10566000000E+00 0. -1.
     200003    1    4    4    0    0  0.37774859500E+02  0.89910934926E+02  0.51211626808E+03  0.52218194939E+03  0.30000000000E+02 0. -1.
     200000    1    3    3    0    0  0.22019160119E+01 -0.15678426606E+03  0.91657465928E+02  0.20781781824E+03  0.10100000000E+03 0. -1.
    -200001    1    1    2    0    0 -0.73287527518E+02 -0.60042596439E+01  0.77342131748E+03  0.98962449806E+03  0.61300000000E+03 0. -1.
<mgrwt>
<rscale>  0 0.12755852E+04</rscale>
<asrwt>0</asrwt>
<pdfrwt beam="1">  1        2 0.33547457E+00 0.12755852E+04</pdfrwt>
<pdfrwt beam="2">  1       -2 0.24745901E-01 0.12755852E+04</pdfrwt>
<totfact> 0.76183403E+01</totfact>
</mgrwt>
</event>
<event>
 8    1  0.7583103E-052  0.1276010E+04  0.7818608E-02  0.9048809E-01
         -2   -1    0    0    0  501 -0.00000000000E+00  0.00000000000E+00  0.28896833301E+03  0.28896833302E+03  0.25500000000E-02 0. -1.
          2   -1    0    0  501    0  0.00000000000E+00 -0.00000000000E+00 -0.14086333082E+04  0.14086333082E+04  0.25500000000E-02 0.  1.
     200001    2    1    2    0    0  0.73954753327E+02  0.13350842307E+03 -0.68365711086E+03  0.93003036613E+03  0.61178070591E+03 0.  0.
    5000001    2    3    3    0    0 -0.11335010548E+03  0.46190148132E+02 -0.66629456533E+03  0.69935733073E+03  0.17369643655E+03 0.  0.
        -13    1    4    4    0    0 -0.47444560790E+02 -0.35969395345E+01 -0.28345229615E+02  0.55384000655E+02  0.10566000000E+00 0. -1.
     200003    1    4    4    0    0 -0.65905544691E+02  0.49787087666E+02 -0.63794933571E+03  0.64397333008E+03  0.30000000000E+02 0. -1.
     200000    1    3    3    0    0  0.18730485881E+03  0.87318274942E+02 -0.17362545532E+02  0.23067303540E+03  0.10100000000E+03 0. -1.
    -200001    1    1    2    0    0 -0.73954753327E+02 -0.13350842307E+03 -0.43600786431E+03  0.76757127507E+03  0.61300000000E+03 0. -1.
<mgrwt>
<rscale>  0 0.12760101E+04</rscale>
<asrwt>0</asrwt>
<pdfrwt beam="1">  1        2 0.20123333E+00 0.12760101E+04</pdfrwt>
<pdfrwt beam="2">  1       -2 0.41281191E-01 0.12760101E+04</pdfrwt>
<totfact> 0.89309657E+01</totfact>
</mgrwt>
</event>
<event>
 8    1  0.7583103E-052  0.1262930E+04  0.7818608E-02  0.9059490E-01
         -2   -1    0    0    0  501 -0.00000000000E+00  0.00000000000E+00  0.23700311001E+03  0.23700311003E+03  0.25500000000E-02 0. -1.
          2   -1    0    0  501    0  0.00000000000E+00 -0.00000000000E+00 -0.16824586493E+04  0.16824586493E+04  0.25500000000E-02 0.  1.
     200001    2    1    2    0    0  0.21914685761E+02 -0.14087742303E+03 -0.65244478009E+03  0.90705780539E+03  0.61379391450E+03 0.  0.
    5000001    2    3    3    0    0 -0.22169982302E+02  0.16924971291E+03 -0.38057299141E+03  0.48016488218E+03  0.23787715076E+03 0.  0.
        -13    1    4    4    0    0 -0.44717589191E+02  0.12701139006E+03 -0.48194991804E+02  0.14301861553E+03  0.10566000000E+00 0. -1.
     200003    1    4    4    0    0  0.22547606889E+02  0.42238322845E+02 -0.33237799961E+03  0.33714626665E+03  0.30000000000E+02 0. -1.
     200000    1    3    3    0    0  0.44084668063E+02 -0.31012713594E+03 -0.27187178868E+03  0.42689292321E+03  0.10100000000E+03 0. -1.
    -200001    1    1    2    0    0 -0.21914685761E+02  0.14087742303E+03 -0.79301075924E+03  0.10124039540E+04  0.61300000000E+03 0. -1.
<mgrwt>
<rscale>  0 0.12629298E+04</rscale>
<asrwt>0</asrwt>
<pdfrwt beam="1">  1        2 0.24035123E+00 0.12629298E+04</pdfrwt>
<pdfrwt beam="2">  1       -2 0.33857588E-01 0.12629298E+04</pdfrwt>
<totfact> 0.93929495E+01</totfact>
</mgrwt>
</event>
<event>
 8    1  0.7583103E-052  0.1278851E+04  0.7818608E-02  0.9046507E-01
         -2   -1    0    0    0  501 -0.00000000000E+00  0.00000000000E+00  0.44624637903E+03  0.44624637904E+03  0.25500000000E-02 0. -1.
          2   -1    0    0  501    0  0.00000000000E+00 -0.00000000000E+00 -0.91623076101E+03  0.91623076101E+03  0.25500000000E-02 0.  1.
     200001    2    1    2    0    0 -0.11729039831E+02 -0.68758801040E+02 -0.41356831457E+03  0.74294738632E+03  0.61324279444E+03 0.  0.
    5000001    2    3    3    0    0 -0.17892042852E+03 -0.23332224134E+03 -0.37373564711E+03  0.48444839651E+03  0.92520953920E+02 0.  0.
        -13    1    4    4    0    0 -0.84623469953E+02 -0.52913594405E+02 -0.15306292011E+03  0.18272725252E+03  0.10566000000E+00 0. -1.
     200003    1    4    4    0    0 -0.94296958563E+02 -0.18040864694E+03 -0.22067272701E+03  0.30172114399E+03  0.30000000000E+02 0. -1.
     200000    1    3    3    0    0  0.16719138868E+03  0.16456344030E+03 -0.39832667454E+02  0.25849898981E+03  0.10100000000E+03 0.  1.
    -200001    1    1    2    0    0  0.11729039831E+02  0.68758801040E+02 -0.56416067412E+02  0.61952975373E+03  0.61300000000E+03 0. -1.
<mgrwt>
<rscale>  0 0.12788505E+04</rscale>
<asrwt>0</asrwt>
<pdfrwt beam="1">  1        2 0.13089011E+00 0.12788505E+04</pdfrwt>
<pdfrwt beam="2">  1       -2 0.63749483E-01 0.12788505E+04</pdfrwt>
<totfact> 0.70981940E+01</totfact>
</mgrwt>
</event>
<event>
 8    1  0.7583103E-052  0.1507582E+04  0.7818608E-02  0.8879426E-01
         -2   -1    0    0    0  501 -0.00000000000E+00  0.00000000000E+00  0.18543820813E+03  0.18543820814E+03  0.25500000000E-02 0. -1.
          2   -1    0    0  501    0  0.00000000000E+00 -0.00000000000E+00 -0.30640997376E+04  0.30640997376E+04  0.25500000000E-02 0.  1.
     200001    2    1    2    0    0 -0.50564344277E+02  0.13307038315E+03 -0.23341326506E+04  0.24173449515E+04  0.61246788010E+03 0.  0.
    5000001    2    3    3    0    0 -0.20255611537E+03 -0.14461267840E+03 -0.13976386301E+04  0.14236491069E+04  0.10696369748E+03 0.  0.
        -13    1    4    4    0    0 -0.16436345972E+03 -0.14423433523E+03 -0.10410976940E+04  0.10638154492E+04  0.10566000000E+00 0. -1.
     200003    1    4    4    0    0 -0.38192655647E+02 -0.37834317274E+00 -0.35654093613E+03  0.35983365772E+03  0.30000000000E+02 0. -1.
     200000    1    3    3    0    0  0.15199177109E+03  0.27768306155E+03 -0.93649402046E+03  0.99369584457E+03  0.10100000000E+03 0. -1.
    -200001    1    1    2    0    0  0.50564344277E+02 -0.13307038315E+03 -0.54452887894E+03  0.83219299431E+03  0.61300000000E+03 0. -1.
<mgrwt>
<rscale>  0 0.15075824E+04</rscale>
<asrwt>0</asrwt>
<pdfrwt beam="1">  1        2 0.43772850E+00 0.15075824E+04</pdfrwt>
<pdfrwt beam="2">  1       -2 0.26491174E-01 0.15075824E+04</pdfrwt>
<totfact> 0.27238811E+01</totfact>
</mgrwt>
</event>
<event>
 8    1  0.7583103E-052  0.1328619E+04  0.7818608E-02  0.9007173E-01
         -2   -1    0    0    0  501 -0.00000000000E+00  0.00000000000E+00  0.72970474524E+03  0.72970474524E+03  0.25500000000E-02 0. -1.
          2   -1    0    0  501    0  0.00000000000E+00 -0.00000000000E+00 -0.60477477017E+03  0.60477477018E+03  0.25500000000E-02 0.  1.
     200001    2    1    2    0    0 -0.76602006107E+02 -0.20476958640E+03  0.19709144349E+03  0.67967059033E+03  0.61262437383E+03 0.  0.
    5000001    2    3    3    0    0 -0.15334981310E+03 -0.20934037833E+03 -0.14903421430E+03  0.31100395366E+03  0.84691811802E+02 0.  0.
        -13    1    4    4    0    0 -0.11686734691E+03 -0.14291284433E+03 -0.13400559069E+03  0.22812182567E+03  0.10566000000E+00 0. -1.
     200003    1    4    4    0    0 -0.36482466193E+02 -0.66427534000E+02 -0.15028623605E+02  0.82882127991E+02  0.30000000000E+02 0. -1.
     200000    1    3    3    0    0  0.76747806995E+02  0.45707919286E+01  0.34612565778E+03  0.36866663667E+03  0.10100000000E+03 0. -1.
    -200001    1    1    2    0    0  0.76602006107E+02  0.20476958640E+03 -0.72161468416E+02  0.65480892509E+03  0.61300000000E+03 0.  1.
<mgrwt>
<rscale>  0 0.13286189E+04</rscale>
<asrwt>0</asrwt>
<pdfrwt beam="1">  1        2 0.86396395E-01 0.13286189E+04</pdfrwt>
<pdfrwt beam="2">  1       -2 0.10424354E+00 0.13286189E+04</pdfrwt>
<totfact> 0.39391260E+01</totfact>
</mgrwt>
</event>
<event>
 8    1  0.7583103E-052  0.2269996E+04  0.7818608E-02  0.8489846E-01
          2   -1    0    0  501    0  0.00000000000E+00  0.00000000000E+00  0.99568178806E+03  0.99568178806E+03  0.25500000000E-02 0.  1.
         -2   -1    0    0    0  501 -0.00000000000E+00 -0.00000000000E+00 -0.12938068388E+04  0.12938068388E+04  0.25500000000E-02 0. -1.
     200001    2    1    2    0    0  0.41220944032E+03 -0.18148469949E+02 -0.10176065914E+04  0.12581454846E+04  0.61413426524E+03 0.  0.
    5000001    2    3    3    0    0  0.40992487470E+03 -0.20318073741E+03 -0.43775745331E+03  0.64116235495E+03  0.10068149047E+03 0.  0.
        -13    1    4    4    0    0  0.26450746941E+03 -0.15022232681E+03 -0.33743676131E+03  0.45430664522E+03  0.10566000000E+00 0. -1.
     200003    1    4    4    0    0  0.14541740529E+03 -0.52958410602E+02 -0.10032069201E+03  0.18685570973E+03  0.30000000000E+02 0. -1.
     200000    1    3    3    0    0  0.22845656242E+01  0.18503226746E+03 -0.57984913812E+03  0.61698312961E+03  0.10100000000E+03 0. -1.
    -200001    1    1    2    0    0 -0.41220944032E+03  0.18148469949E+02  0.71948154073E+03  0.10313431423E+04  0.61300000000E+03 0.  1.
<mgrwt>
<rscale>  0 0.22699955E+04</rscale>
<asrwt>0</asrwt>
<pdfrwt beam="1">  1        2 0.14224026E+00 0.22699955E+04</pdfrwt>
<pdfrwt beam="2">  1       -2 0.18482955E+00 0.22699955E+04</pdfrwt>
<totfact> 0.43341684E+00</totfact>
</mgrwt>
</event>
<event>
 8    1  0.7583103E-052  0.1563192E+04  0.7818608E-02  0.8843485E-01
          2   -1    0    0  501    0  0.00000000000E+00  0.00000000000E+00  0.29836666371E+03  0.29836666372E+03  0.25500000000E-02 0.  1.
         -2   -1    0    0    0  501 -0.00000000000E+00 -0.00000000000E+00 -0.20474540230E+04  0.20474540230E+04  0.25500000000E-02 0. -1.
     200001    2    1    2    0    0  0.80776143870E+02  0.54443106897E+02 -0.16295080445E+03  0.64256292351E+03  0.61387727494E+03 0.  0.
    5000001    2    3    3    0    0 -0.15705706904E+03  0.10558300505E+02  0.13020189757E+03  0.24933268548E+03  0.14295402503E+03 0.  0.
        -13    1    4    4    0    0 -0.10813089718E+03  0.32320300002E+02  0.86818935017E+01  0.11319133869E+03  0.10566000000E+00 0. -1.
     200003    1    4    4    0    0 -0.48926171865E+02 -0.21761999497E+02  0.12152000407E+03  0.13614134679E+03  0.30000000000E+02 0. -1.
     200000    1    3    3    0    0  0.23783321291E+03  0.43884806392E+02 -0.29315270202E+03  0.39323023803E+03  0.10100000000E+03 0.  1.
    -200001    1    1    2    0    0 -0.80776143870E+02 -0.54443106897E+02 -0.15861365549E+04  0.17032577632E+04  0.61300000000E+03 0. -1.
<mgrwt>
<rscale>  0 0.15631916E+04</rscale>
<asrwt>0</asrwt>
<pdfrwt beam="1">  1        2 0.42623810E-01 0.15631916E+04</pdfrwt>
<pdfrwt beam="2">  1       -2 0.29249342E+00 0.15631916E+04</pdfrwt>
<totfact> 0.40963763E+00</totfact>
</mgrwt>
</event>
<event>
 8    1  0.7583103E-052  0.1730279E+04  0.7818608E-02  0.8744281E-01
         -2   -1    0    0    0  501 -0.00000000000E+00  0.00000000000E+00  0.52460059783E+03  0.52460059784E+03  0.25500000000E-02 0. -1.
          2   -1    0    0  501    0  0.00000000000E+00 -0.00000000000E+00 -0.14267349104E+04  0.14267349104E+04  0.25500000000E-02 0.  1.
     200001    2    1    2    0    0  0.42476513083E+03 -0.41183209909E+03 -0.28043552552E+03  0.89667467365E+03  0.61265838131E+03 0.  0.
    5000001    2    3    3    0    0  0.44551539780E+03 -0.97193546686E+02 -0.21744964648E+03  0.55963430041E+03  0.24078132453E+03 0.  0.
        -13    1    4    4    0    0  0.46390443731E+03 -0.98911288956E+02 -0.22271090822E+03  0.52401424584E+03  0.10566000000E+00 0. -1.
     200003    1    4    4    0    0 -0.18389039505E+02  0.17177422702E+01  0.52612617427E+01  0.35620054570E+02  0.30000000000E+02 0. -1.
     200000    1    3    3    0    0 -0.20750266978E+02 -0.31463855240E+03 -0.62985879046E+02  0.33704037324E+03  0.10100000000E+03 0. -1.
    -200001    1    1    2    0    0 -0.42476513083E+03  0.41183209909E+03 -0.62169878704E+03  0.10546608346E+04  0.61300000000E+03 0.  1.
<mgrwt>
<rscale>  0 0.17302786E+04</rscale>
<asrwt>0</asrwt>
<pdfrwt beam="1">  1        2 0.20381927E+00 0.17302786E+04</pdfrwt>
<pdfrwt beam="2">  1       -2 0.74942943E-01 0.17302786E+04</pdfrwt>
<totfact> 0.24366697E+01</totfact>
</mgrwt>
</event>
<event>
 8    1  0.7583103E-052  0.1257226E+04  0.7818608E-02  0.9064191E-01
         -2   -1    0    0    0  501 -0.00000000000E+00  0.00000000000E+00  0.49174699526E+03  0.49174699527E+03  0.25500000000E-02 0. -1.
          2   -1    0    0  501    0  0.00000000000E+00 -0.00000000000E+00 -0.80357189981E+03  0.80357189981E+03  0.25500000000E-02 0.  1.
     200001    2    1    2    0    0 -0.48858478714E+02  0.11666372393E+02 -0.13088684671E+02  0.61155315724E+03  0.60934612108E+03 0.  0.
    5000001    2    3    3    0    0 -0.25094775896E+03 -0.17586620757E+03 -0.30073297644E+02  0.31744769517E+03  0.77232993255E+02 0.  0.
        -13    1    4    4    0    0 -0.19513864920E+03 -0.15488118178E+03 -0.27581699836E+02  0.25065520983E+03  0.10566000000E+00 0. -1.
     200003    1    4    4    0    0 -0.55809109754E+02 -0.20985025789E+02 -0.24915978081E+01  0.66792485345E+02  0.30000000000E+02 0.  1.
     200000    1    3    3    0    0  0.20208928024E+03  0.18753257997E+03  0.16984612974E+02  0.29410546206E+03  0.10100000000E+03 0. -1.
    -200001    1    1    2    0    0  0.48858478714E+02 -0.11666372393E+02 -0.29873621988E+03  0.68376573785E+03  0.61300000000E+03 0.  1.
<mgrwt>
<rscale>  0 0.12572256E+04</rscale>
<asrwt>0</asrwt>
<pdfrwt beam="1">  1        2 0.11479599E+00 0.12572256E+04</pdfrwt>
<pdfrwt beam="2">  1       -2 0.70249571E-01 0.12572256E+04</pdfrwt>
<totfact> 0.68612454E+01</totfact>
</mgrwt>
</event>
<event>
 8    1  0.7583103E-052  0.1268907E+04  0.7818608E-02  0.9054592E-01
          2   -1    0    0  501    0  0.00000000000E+00  0.00000000000E+00  0.17105442933E+04  0.17105442933E+04  0.25500000000E-02 0.  1.
         -2   -1    0    0    0  501 -0.00000000000E+00 -0.00000000000E+00 -0.23532361317E+03  0.23532361318E+03  0.25500000000E-02 0. -1.
     200001    2    1    2    0    0 -0.12571784195E+03  0.82078466546E+02  0.64233077959E+03  0.90087200367E+03  0.61354680844E+03 0.  0.
    5000001    2    3    3    0    0  0.99868092209E+02  0.27085007806E+03  0.43518689865E+03  0.52719657979E+03  0.72216316475E+02 0.  0.
        -13    1    4    4    0    0  0.31757598679E+02  0.14784808158E+03  0.25765735623E+03  0.29875562704E+03  0.10566000000E+00 0. -1.
     200003    1    4    4    0    0  0.68110493530E+02  0.12300199648E+03  0.17752954242E+03  0.22844095276E+03  0.30000000000E+02 0. -1.
     200000    1    3    3    0    0 -0.22558593416E+03 -0.18877161151E+03  0.20714388094E+03  0.37367542388E+03  0.10100000000E+03 0. -1.
    -200001    1    1    2    0    0  0.12571784195E+03 -0.82078466546E+02  0.83288990053E+03  0.10449959028E+04  0.61300000000E+03 0.  1.
<mgrwt>
<rscale>  0 0.12689073E+04</rscale>
<asrwt>0</asrwt>
<pdfrwt beam="1">  1        2 0.24436346E+00 0.12689073E+04</pdfrwt>
<pdfrwt beam="2">  1       -2 0.33617661E-01 0.12689073E+04</pdfrwt>
<totfact> 0.92022923E+01</totfact>
</mgrwt>
</event>
<event>
 8    1  0.7583103E-052  0.1448744E+04  0.7818608E-02  0.8919271E-01
         -2   -1    0    0    0  501 -0.00000000000E+00  0.00000000000E+00  0.11870430206E+03  0.11870430209E+03  0.25500000000E-02 0. -1.
          2   -1    0    0  501    0  0.00000000000E+00 -0.00000000000E+00 -0.44203544430E+04  0.44203544430E+04  0.25500000000E-02 0.  1.
     200001    2    1    2    0    0  0.19537159049E+03  0.20117618460E+03 -0.29743545624E+04  0.30503934139E+04  0.61601379918E+03 0.  0.
    5000001    2    3    3    0    0  0.64234392466E+02 -0.13818637472E+03 -0.17367525979E+04  0.17564755131E+04  0.21371736111E+03 0.  0.
        -13    1    4    4    0    0  0.12603643067E+03 -0.42250587672E+02 -0.11729026869E+04  0.11804113766E+04  0.10566000000E+00 0. -1.
     200003    1    4    4    0    0 -0.61802038205E+02 -0.95935787046E+02 -0.56384991102E+03  0.57606413647E+03  0.30000000000E+02 0. -1.
     200000    1    3    3    0    0  0.13113719802E+03  0.33936255932E+03 -0.12376019645E+04  0.12939179008E+04  0.10100000000E+03 0. -1.
    -200001    1    1    2    0    0 -0.19537159049E+03 -0.20117618460E+03 -0.13272955785E+04  0.14886653312E+04  0.61300000000E+03 0. -1.
<mgrwt>
<rscale>  0 0.14487444E+04</rscale>
<asrwt>0</asrwt>
<pdfrwt beam="1">  1        2 0.63147910E+00 0.14487444E+04</pdfrwt>
<pdfrwt beam="2">  1       -2 0.16957760E-01 0.14487444E+04</pdfrwt>
<totfact> 0.79848091E+00</totfact>
</mgrwt>
</event>
<event>
 8    1  0.7583103E-052  0.1807793E+04  0.7818608E-02  0.8702166E-01
         -2   -1    0    0    0  501 -0.00000000000E+00  0.00000000000E+00  0.47316171515E+03  0.47316171515E+03  0.25500000000E-02 0. -1.
          2   -1    0    0  501    0  0.00000000000E+00 -0.00000000000E+00 -0.17267428924E+04  0.17267428924E+04  0.25500000000E-02 0.  1.
     200001    2    1    2    0    0 -0.61076222856E+03  0.25921977322E+02 -0.93824390620E+03  0.12785420061E+04  0.61698102501E+03 0.  0.
    5000001    2    3    3    0    0  0.86211283651E+02 -0.96672801672E+02 -0.13435806853E+03  0.20279343117E+03  0.79341471720E+02 0.  0.
        -13    1    4    4    0    0  0.22215776032E+02  0.86305753614E+01 -0.31510525831E+02  0.39508884292E+02  0.10566000000E+00 0. -1.
     200003    1    4    4    0    0  0.63995507619E+02 -0.10530337703E+03 -0.10284754270E+03  0.16328454688E+03  0.30000000000E+02 0. -1.
     200000    1    3    3    0    0 -0.69697351221E+03  0.12259477899E+03 -0.80388583768E+03  0.10757485750E+04  0.10100000000E+03 0. -1.
    -200001    1    1    2    0    0  0.61076222856E+03 -0.25921977322E+02 -0.31533727104E+03  0.92136260139E+03  0.61300000000E+03 0.  1.
<mgrwt>
<rscale>  0 0.18077927E+04</rscale>
<asrwt>0</asrwt>
<pdfrwt beam="1">  1        2 0.24667755E+00 0.18077927E+04</pdfrwt>
<pdfrwt beam="2">  1       -2 0.67594531E-01 0.18077927E+04</pdfrwt>
<totfact> 0.21086241E+01</totfact>
</mgrwt>
</event>
<event>
 8    1  0.7583103E-052  0.1258531E+04  0.7818608E-02  0.9063113E-01
          2   -1    0    0  501    0  0.00000000000E+00  0.00000000000E+00  0.26152786644E+04  0.26152786644E+04  0.25500000000E-02 0.  1.
         -2   -1    0    0    0  501 -0.00000000000E+00 -0.00000000000E+00 -0.15140824597E+03  0.15140824600E+03  0.25500000000E-02 0. -1.
     200001    2    1    2    0    0 -0.78664024056E+02  0.26036360626E+02  0.14908068950E+04  0.16136528513E+04  0.61196765081E+03 0.  0.
    5000001    2    3    3    0    0  0.29942119485E+02  0.13496455074E+03  0.77502304014E+02  0.18841900667E+03  0.10189776482E+03 0.  0.
        -13    1    4    4    0    0  0.42944361577E+02  0.12965441921E+03  0.73360216236E+02  0.15503618643E+03  0.10566000000E+00 0. -1.
     200003    1    4    4    0    0 -0.13002242092E+02  0.53101315211E+01  0.41420877775E+01  0.33382820243E+02  0.30000000000E+02 0. -1.
     200000    1    3    3    0    0 -0.10860614354E+03 -0.10892819011E+03  0.14133045910E+04  0.14252338447E+04  0.10100000000E+03 0.  1.
    -200001    1    1    2    0    0  0.78664024056E+02 -0.26036360626E+02  0.97306352338E+03  0.11530340590E+04  0.61300000000E+03 0. -1.
<mgrwt>
<rscale>  0 0.12585305E+04</rscale>
<asrwt>0</asrwt>
<pdfrwt beam="1">  1        2 0.37361123E+00 0.12585305E+04</pdfrwt>
<pdfrwt beam="2">  1       -2 0.21629750E-01 0.12585305E+04</pdfrwt>
<totfact> 0.70395174E+01</totfact>
</mgrwt>
</event>
<event>
 8    1  0.7583103E-052  0.1570757E+04  0.7818608E-02  0.8838718E-01
          2   -1    0    0  501    0  0.00000000000E+00  0.00000000000E+00  0.15604810835E+04  0.15604810835E+04  0.25500000000E-02 0.  1.
         -2   -1    0    0    0  501 -0.00000000000E+00 -0.00000000000E+00 -0.39527494120E+03  0.39527494121E+03  0.25500000000E-02 0. -1.
     200001    2    1    2    0    0  0.20722873457E+01  0.48714669430E+02 -0.26795761165E+02  0.61448239444E+03  0.61195848459E+03 0.  0.
    5000001    2    3    3    0    0 -0.20212880830E+03 -0.12580232112E+03  0.12321523388E+03  0.29066367033E+03  0.11234365244E+03 0.  0.
        -13    1    4    4    0    0 -0.42102830663E+02 -0.63338054494E+02  0.81266752478E+02  0.11130432929E+03  0.10566000000E+00 0. -1.
     200003    1    4    4    0    0 -0.16002597764E+03 -0.62464266623E+02  0.41948481404E+02  0.17935934103E+03  0.30000000000E+02 0. -1.
     200000    1    3    3    0    0  0.20420109565E+03  0.17451699055E+03 -0.15001099505E+03  0.32381872411E+03  0.10100000000E+03 0. -1.
    -200001    1    1    2    0    0 -0.20722873457E+01 -0.48714669430E+02  0.11920019035E+04  0.13412736303E+04  0.61300000000E+03 0.  1.
<mgrwt>
<rscale>  0 0.15707566E+04</rscale>
<asrwt>0</asrwt>
<pdfrwt beam="1">  1        2 0.22292587E+00 0.15707566E+04</pdfrwt>
<pdfrwt beam="2">  1       -2 0.56467848E-01 0.15707566E+04</pdfrwt>
<totfact> 0.38462588E+01</totfact>
</mgrwt>
</event>
<event>
 8    1  0.7583103E-052  0.1496291E+04  0.7818608E-02  0.8886923E-01
          2   -1    0    0  501    0  0.00000000000E+00  0.00000000000E+00  0.87023949783E+03  0.87023949784E+03  0.25500000000E-02 0.  1.
         -2   -1    0    0    0  501 -0.00000000000E+00 -0.00000000000E+00 -0.64318158227E+03  0.64318158227E+03  0.25500000000E-02 0. -1.
     200001    2    1    2    0    0 -0.32548603128E+03  0.27357223013E+03  0.59005406422E+02  0.74870311414E+03  0.61342627387E+03 0.  0.
    5000001    2    3    3    0    0 -0.15697636705E+03  0.82737966157E+02  0.31863284400E+03  0.37131653569E+03  0.69727537929E+02 0.  0.
        -13    1    4    4    0    0 -0.81370551445E+02  0.18814568363E+02  0.10685664205E+03  0.13562266676E+03  0.10566000000E+00 0. -1.
     200003    1    4    4    0    0 -0.75605815610E+02  0.63923397794E+02  0.21177620195E+03  0.23569386893E+03  0.30000000000E+02 0. -1.
     200000    1    3    3    0    0 -0.16850966423E+03  0.19083426397E+03 -0.25962743758E+03  0.37738657844E+03  0.10100000000E+03 0. -1.
    -200001    1    1    2    0    0  0.32548603128E+03 -0.27357223013E+03  0.16805250914E+03  0.76471796598E+03  0.61300000000E+03 0. -1.
<mgrwt>
<rscale>  0 0.14962914E+04</rscale>
<asrwt>0</asrwt>
<pdfrwt beam="1">  1        2 0.12431993E+00 0.14962914E+04</pdfrwt>
<pdfrwt beam="2">  1       -2 0.91883083E-01 0.14962914E+04</pdfrwt>
<totfact> 0.33198320E+01</totfact>
</mgrwt>
</event>
<event>
 8    1  0.7583103E-052  0.1605353E+04  0.7818608E-02  0.8817266E-01
          2   -1    0    0  501    0  0.00000000000E+00  0.00000000000E+00  0.30161911891E+04  0.30161911891E+04  0.25500000000E-02 0.  1.
         -2   -1    0    0    0  501 -0.00000000000E+00 -0.00000000000E+00 -0.21361033943E+03  0.21361033945E+03  0.25500000000E-02 0. -1.
     200001    2    1    2    0    0 -0.50551474548E+03  0.14540019547E+01  0.11817687152E+04  0.14247119886E+04  0.61455649225E+03 0.  0.
    5000001    2    3    3    0    0 -0.20295277215E+03 -0.19663737308E+03  0.92309573214E+03  0.96875513454E+03  0.80775589165E+02 0.  0.
        -13    1    4    4    0    0 -0.83970737945E+02 -0.45461924415E+02  0.37993435161E+03  0.39174991270E+03  0.10566000000E+00 0. -1.
     200003    1    4    4    0    0 -0.11898203420E+03 -0.15117544866E+03  0.54316138052E+03  0.57700522184E+03  0.30000000000E+02 0. -1.
     200000    1    3    3    0    0 -0.30256197333E+03  0.19809137503E+03  0.25867298303E+03  0.45595685401E+03  0.10100000000E+03 0. -1.
    -200001    1    1    2    0    0  0.50551474548E+03 -0.14540019547E+01  0.16208121345E+04  0.18050895400E+04  0.61300000000E+03 0.  1.
<mgrwt>
<rscale>  0 0.16053531E+04</rscale>
<asrwt>0</asrwt>
<pdfrwt beam="1">  1        2 0.43088442E+00 0.16053531E+04</pdfrwt>
<pdfrwt beam="2">  1       -2 0.30515765E-01 0.16053531E+04</pdfrwt>
<totfact> 0.22118306E+01</totfact>
</mgrwt>
</event>
<event>
 8    1  0.7583103E-052  0.1514367E+04  0.7818608E-02  0.8874955E-01
          2   -1    0    0  501    0  0.00000000000E+00  0.00000000000E+00  0.20075215912E+04  0.20075215912E+04  0.25500000000E-02 0.  1.
         -2   -1    0    0    0  501 -0.00000000000E+00 -0.00000000000E+00 -0.28558943212E+03  0.28558943213E+03  0.25500000000E-02 0. -1.
     200001    2    1    2    0    0 -0.30914927509E+03  0.14438688861E+03  0.12918442161E+04  0.14702103692E+04  0.61338096085E+03 0.  0.
    5000001    2    3    3    0    0 -0.80647028672E+02 -0.21104124366E+03  0.64054508161E+03  0.68730935603E+03  0.10513705134E+03 0.  0.
        -13    1    4    4    0    0 -0.74314389607E+02 -0.14637049668E+03  0.32937852234E+03  0.36801789758E+03  0.10566000000E+00 0. -1.
     200003    1    4    4    0    0 -0.63326390650E+01 -0.64670746982E+02  0.31116655927E+03  0.31929145845E+03  0.30000000000E+02 0. -1.
     200000    1    3    3    0    0 -0.22850224641E+03  0.35542813226E+03  0.65129913451E+03  0.78290101318E+03  0.10100000000E+03 0. -1.
    -200001    1    1    2    0    0  0.30914927509E+03 -0.14438688861E+03  0.43008794298E+03  0.82290065414E+03  0.61300000000E+03 0. -1.
<mgrwt>
<rscale>  0 0.15143671E+04</rscale>
<asrwt>0</asrwt>
<pdfrwt beam="1">  1        2 0.28678880E+00 0.15143671E+04</pdfrwt>
<pdfrwt beam="2">  1       -2 0.40798490E-01 0.15143671E+04</pdfrwt>
<totfact> 0.43725572E+01</totfact>
</mgrwt>
</event>
<event>
 8    1  0.7583103E-052  0.1584279E+04  0.7818608E-02  0.8830264E-01
          2   -1    0    0  501    0  0.00000000000E+00  0.00000000000E+00  0.14422995705E+04  0.14422995705E+04  0.25500000000E-02 0.  1.
         -2   -1    0    0    0  501 -0.00000000000E+00 -0.00000000000E+00 -0.43505896409E+03  0.43505896410E+03  0.25500000000E-02 0. -1.
     200001    2    1    2    0    0  0.10762025857E+03  0.31203033519E+02 -0.74130858099E+02  0.62928442078E+03  0.61477455116E+03 0.  0.
    5000001    2    3    3    0    0  0.10924396226E+03  0.17392251510E+03  0.20490870684E+03  0.29998886107E+03  0.76305006914E+02 0.  0.
        -13    1    4    4    0    0 -0.52221328396E+01 -0.83943012614E+00  0.15596594254E+02  0.16469372504E+02  0.10566000000E+00 0. -1.
     200003    1    4    4    0    0  0.11446609510E+03  0.17476194523E+03  0.18931211259E+03  0.28351948857E+03  0.30000000000E+02 0. -1.
     200000    1    3    3    0    0 -0.16237036838E+01 -0.14271948158E+03 -0.27903956494E+03  0.32929555970E+03  0.10100000000E+03 0. -1.
    -200001    1    1    2    0    0 -0.10762025857E+03 -0.31203033519E+02  0.10813714645E+04  0.12480741138E+04  0.61300000000E+03 0.  1.
<mgrwt>
<rscale>  0 0.15842795E+04</rscale>
<asrwt>0</asrwt>
<pdfrwt beam="1">  1        2 0.20604279E+00 0.15842795E+04</pdfrwt>
<pdfrwt beam="2">  1       -2 0.62151281E-01 0.15842795E+04</pdfrwt>
<totfact> 0.36286379E+01</totfact>
</mgrwt>
</event>
<event>
 8    1  0.7583103E-052  0.1638327E+04  0.7818608E-02  0.8797342E-01
          2   -1    0    0  501    0  0.00000000000E+00  0.00000000000E+00  0.32335028290E+04  0.32335028290E+04  0.25500000000E-02 0.  1.
         -2   -1    0    0    0  501 -0.00000000000E+00 -0.00000000000E+00 -0.20752375188E+03  0.20752375190E+03  0.25500000000E-02 0. -1.
     200001    2    1    2    0    0  0.49085475322E+03  0.18062452826E+03  0.11954684785E+04  0.14410011659E+04  0.61137211917E+03 0.  0.
    5000001    2    3    3    0    0  0.45267281171E+02 -0.15259294692E+03  0.10453301012E+03  0.21221181163E+03  0.93664126516E+02 0.  0.
        -13    1    4    4    0    0  0.27810806425E+02 -0.88765682763E+01  0.43216894595E+02  0.52153097328E+02  0.10566000000E+00 0. -1.
     200003    1    4    4    0    0  0.17456474746E+02 -0.14371637864E+03  0.61316115524E+02  0.16005871430E+03  0.30000000000E+02 0. -1.
     200000    1    3    3    0    0  0.44558747205E+03  0.33321747518E+03  0.10909354684E+04  0.12287893543E+04  0.10100000000E+03 0.  1.
    -200001    1    1    2    0    0 -0.49085475322E+03 -0.18062452826E+03  0.18305105986E+04  0.20000254150E+04  0.61300000000E+03 0. -1.
<mgrwt>
<rscale>  0 0.16383268E+04</rscale>
<asrwt>0</asrwt>
<pdfrwt beam="1">  1        2 0.46192894E+00 0.16383268E+04</pdfrwt>
<pdfrwt beam="2">  1       -2 0.29646252E-01 0.16383268E+04</pdfrwt>
<totfact> 0.17513578E+01</totfact>
</mgrwt>
</event>
<event>
 8    1  0.7583103E-052  0.1314666E+04  0.7818608E-02  0.9018015E-01
         -2   -1    0    0    0  501 -0.00000000000E+00  0.00000000000E+00  0.33596258138E+03  0.33596258139E+03  0.25500000000E-02 0. -1.
          2   -1    0    0  501    0  0.00000000000E+00 -0.00000000000E+00 -0.12861162002E+04  0.12861162002E+04  0.25500000000E-02 0.  1.
     200001    2    1    2    0    0 -0.35052593161E+02  0.15184580544E+03 -0.25426685292E+03  0.68169948371E+03  0.61300629742E+03 0.  0.
    5000001    2    3    3    0    0  0.81058387852E+02 -0.13383499904E+03  0.98360859699E+02  0.20248910645E+03  0.82732764367E+02 0.  0.
        -13    1    4    4    0    0 -0.83467043253E+01 -0.50281191915E+02  0.26625722772E+02  0.57504834672E+02  0.10566000000E+00 0. -1.
     200003    1    4    4    0    0  0.89405092178E+02 -0.83553807130E+02  0.71735136927E+02  0.14498427178E+03  0.30000000000E+02 0.  1.
     200000    1    3    3    0    0 -0.11611098101E+03  0.28568080449E+03 -0.35262771262E+03  0.47921037726E+03  0.10100000000E+03 0.  1.
    -200001    1    1    2    0    0  0.35052593161E+02 -0.15184580544E+03 -0.69588676587E+03  0.94037929785E+03  0.61300000000E+03 0.  1.
<mgrwt>
<rscale>  0 0.13146664E+04</rscale>
<asrwt>0</asrwt>
<pdfrwt beam="1">  1        2 0.18373088E+00 0.13146664E+04</pdfrwt>
<pdfrwt beam="2">  1       -2 0.47994655E-01 0.13146664E+04</pdfrwt>
<totfact> 0.76988574E+01</totfact>
</mgrwt>
</event>
<event>
 8    1  0.7583103E-052  0.1521373E+04  0.7818608E-02  0.8870363E-01
         -2   -1    0    0    0  501 -0.00000000000E+00  0.00000000000E+00  0.21543823165E+03  0.21543823167E+03  0.25500000000E-02 0. -1.
          2   -1    0    0  501    0  0.00000000000E+00 -0.00000000000E+00 -0.26858925369E+04  0.26858925369E+04  0.25500000000E-02 0.  1.
     200001    2    1    2    0    0  0.21026381147E+03  0.34138545977E+03 -0.16203846165E+04  0.17792156326E+04  0.61579790472E+03 0.  0.
    5000001    2    3    3    0    0 -0.18744987476E+03  0.64367787890E+02 -0.31512614912E+03  0.38321576393E+03  0.90934944871E+02 0.  0.
        -13    1    4    4    0    0 -0.73118175861E+02  0.22796814624E+02 -0.19555717391E+03  0.21002043194E+03  0.10566000000E+00 0. -1.
     200003    1    4    4    0    0 -0.11433169890E+03  0.41570973266E+02 -0.11956897521E+03  0.17319533199E+03  0.30000000000E+02 0. -1.
     200000    1    3    3    0    0  0.39771368623E+03  0.27701767188E+03 -0.13052584674E+04  0.13959998687E+04  0.10100000000E+03 0.  1.
    -200001    1    1    2    0    0 -0.21026381147E+03 -0.34138545977E+03 -0.85006968872E+03  0.11221151359E+04  0.61300000000E+03 0.  1.
<mgrwt>
<rscale>  0 0.15213730E+04</rscale>
<asrwt>0</asrwt>
<pdfrwt beam="1">  1        2 0.38369891E+00 0.15213730E+04</pdfrwt>
<pdfrwt beam="2">  1       -2 0.30776892E-01 0.15213730E+04</pdfrwt>
<totfact> 0.33216792E+01</totfact>
</mgrwt>
</event>
<event>
 8    1  0.7583103E-052  0.1266188E+04  0.7818608E-02  0.9056816E-01
         -2   -1    0    0    0  501 -0.00000000000E+00  0.00000000000E+00  0.11974668840E+03  0.11974668842E+03  0.25500000000E-02 0. -1.
          2   -1    0    0  501    0  0.00000000000E+00 -0.00000000000E+00 -0.33471346522E+04  0.33471346522E+04  0.25500000000E-02 0.  1.
     200001    2    1    2    0    0 -0.13959389911E+03  0.77031118427E+01 -0.14019760467E+04  0.15362225252E+04  0.61228834442E+03 0.  0.
    5000001    2    3    3    0    0 -0.32447850398E+03 -0.11164750980E+03 -0.10605245669E+04  0.11176332263E+04  0.81487457404E+02 0.  0.
        -13    1    4    4    0    0 -0.73492342776E+02 -0.10313137740E+02 -0.15162702971E+03  0.16881425461E+03  0.10566000000E+00 0. -1.
     200003    1    4    4    0    0 -0.25098616121E+03 -0.10133437206E+03 -0.90889753715E+03  0.94881897173E+03  0.30000000000E+02 0. -1.
     200000    1    3    3    0    0  0.18488460488E+03  0.11935062165E+03 -0.34145147984E+03  0.41858929883E+03  0.10100000000E+03 0. -1.
    -200001    1    1    2    0    0  0.13959389911E+03 -0.77031118427E+01 -0.18254119171E+04  0.19306588155E+04  0.61300000000E+03 0. -1.
<mgrwt>
<rscale>  0 0.12661884E+04</rscale>
<asrwt>0</asrwt>
<pdfrwt beam="1">  1        2 0.47816204E+00 0.12661884E+04</pdfrwt>
<pdfrwt beam="2">  1       -2 0.17106672E-01 0.12661884E+04</pdfrwt>
<totfact> 0.41623384E+01</totfact>
</mgrwt>
</event>
<event>
 8    1  0.7583103E-052  0.1768012E+04  0.7818608E-02  0.8723498E-01
          2   -1    0    0  501    0  0.00000000000E+00  0.00000000000E+00  0.76553353277E+03  0.76553353277E+03  0.25500000000E-02 0.  1.
         -2   -1    0    0    0  501 -0.00000000000E+00 -0.00000000000E+00 -0.10208130470E+04  0.10208130470E+04  0.25500000000E-02 0. -1.
     200001    2    1    2    0    0 -0.59633469297E+03 -0.10515413262E+03 -0.32260399700E+03  0.92206997843E+03  0.61600913029E+03 0.  0.
    5000001    2    3    3    0    0 -0.95988519831E+02 -0.28885270057E+03 -0.10357774785E+03  0.33703583015E+03  0.10106988864E+03 0.  0.
        -13    1    4    4    0    0 -0.10587955289E+03 -0.24236557283E+03 -0.83446937933E+02  0.27733545253E+03  0.10566000000E+00 0. -1.
     200003    1    4    4    0    0  0.98910330593E+01 -0.46487127741E+02 -0.20130809918E+02  0.59700377625E+02  0.30000000000E+02 0.  1.
     200000    1    3    3    0    0 -0.50034617314E+03  0.18369856795E+03 -0.21902624914E+03  0.58503414828E+03  0.10100000000E+03 0.  1.
    -200001    1    1    2    0    0  0.59633469297E+03  0.10515413262E+03  0.67324482762E+02  0.86427660134E+03  0.61300000000E+03 0. -1.
<mgrwt>
<rscale>  0 0.17680120E+04</rscale>
<asrwt>0</asrwt>
<pdfrwt beam="1">  1        2 0.10936193E+00 0.17680120E+04</pdfrwt>
<pdfrwt beam="2">  1       -2 0.14583043E+00 0.17680120E+04</pdfrwt>
<totfact> 0.12320659E+01</totfact>
</mgrwt>
</event>
<event>
 8    1  0.7583103E-052  0.1613702E+04  0.7818608E-02  0.8812174E-01
          2   -1    0    0  501    0  0.00000000000E+00  0.00000000000E+00  0.65464682474E+03  0.65464682475E+03  0.25500000000E-02 0.  1.
         -2   -1    0    0    0  501 -0.00000000000E+00 -0.00000000000E+00 -0.99444227996E+03  0.99444227997E+03  0.25500000000E-02 0. -1.
     200001    2    1    2    0    0 -0.29227231647E+03  0.40973652210E+03 -0.20227149012E+02  0.79398675596E+03  0.61375785662E+03 0.  0.
    5000001    2    3    3    0    0  0.13915658928E+03 -0.29829057918E+02  0.22448383559E+02  0.16839023988E+03  0.87160850868E+02 0.  0.
        -13    1    4    4    0    0  0.74980110604E+02 -0.10388560555E+01 -0.24224469802E+02  0.78803123728E+02  0.10566000000E+00 0. -1.
     200003    1    4    4    0    0  0.64176478679E+02 -0.28790201862E+02  0.46672853361E+02  0.89587116149E+02  0.30000000000E+02 0. -1.
     200000    1    3    3    0    0 -0.43142890575E+03  0.43956558002E+03 -0.42675532571E+02  0.62559651608E+03  0.10100000000E+03 0.  1.
    -200001    1    1    2    0    0  0.29227231647E+03 -0.40973652210E+03 -0.31956830621E+03  0.85510234876E+03  0.61300000000E+03 0. -1.
<mgrwt>
<rscale>  0 0.16137019E+04</rscale>
<asrwt>0</asrwt>
<pdfrwt beam="1">  1        2 0.93520975E-01 0.16137019E+04</pdfrwt>
<pdfrwt beam="2">  1       -2 0.14206318E+00 0.16137019E+04</pdfrwt>
<totfact> 0.16213869E+01</totfact>
</mgrwt>
</event>
<event>
 8    1  0.7583103E-052  0.1681893E+04  0.7818608E-02  0.8771759E-01
          2   -1    0    0  501    0  0.00000000000E+00  0.00000000000E+00  0.71138882292E+03  0.71138882293E+03  0.25500000000E-02 0.  1.
         -2   -1    0    0    0  501 -0.00000000000E+00 -0.00000000000E+00 -0.99409901732E+03  0.99409901732E+03  0.25500000000E-02 0. -1.
     200001    2    1    2    0    0  0.16087119688E+03 -0.51067979437E+03 -0.35635390873E+03  0.88825727852E+03  0.61264956559E+03 0.  0.
    5000001    2    3    3    0    0  0.80424484627E+02 -0.24198748633E+02  0.14423912296E+03  0.17837710219E+03  0.62926853006E+02 0.  0.
        -13    1    4    4    0    0  0.13421715988E+02  0.10237639256E+02  0.56221614558E+02  0.58701216556E+02  0.10566000000E+00 0. -1.
     200003    1    4    4    0    0  0.67002768639E+02 -0.34436387889E+02  0.88017508404E+02  0.11967588563E+03  0.30000000000E+02 0. -1.
     200000    1    3    3    0    0  0.80446712253E+02 -0.48648104574E+03 -0.50059303169E+03  0.70988017633E+03  0.10100000000E+03 0. -1.
    -200001    1    1    2    0    0 -0.16087119688E+03  0.51067979437E+03  0.73643714331E+02  0.81723056173E+03  0.61300000000E+03 0.  1.
<mgrwt>
<rscale>  0 0.16818929E+04</rscale>
<asrwt>0</asrwt>
<pdfrwt beam="1">  1        2 0.10162697E+00 0.16818929E+04</pdfrwt>
<pdfrwt beam="2">  1       -2 0.14201415E+00 0.16818929E+04</pdfrwt>
<totfact> 0.14579294E+01</totfact>
</mgrwt>
</event>
<event>
 8    1  0.7583103E-052  0.2321708E+04  0.7818608E-02  0.8469411E-01
         -2   -1    0    0    0  501 -0.00000000000E+00  0.00000000000E+00  0.48829349620E+03  0.48829349621E+03  0.25500000000E-02 0. -1.
          2   -1    0    0  501    0  0.00000000000E+00 -0.00000000000E+00 -0.27597787740E+04  0.27597787740E+04  0.25500000000E-02 0.  1.
     200001    2    1    2    0    0  0.74262896835E+03 -0.21926291925E+03 -0.28261457370E+03  0.10274980900E+04  0.61343892541E+03 0.  0.
    5000001    2    3    3    0    0  0.77122623341E+03 -0.16304655108E+03 -0.29695216457E+03  0.90756206480E+03  0.33780798170E+03 0.  0.
        -13    1    4    4    0    0  0.84656121212E+02 -0.11203022021E+03  0.31907159969E+02  0.14399828860E+03  0.10566000000E+00 0. -1.
     200003    1    4    4    0    0  0.68657011220E+03 -0.51016330866E+02 -0.32885932454E+03  0.76356377619E+03  0.30000000000E+02 0. -1.
     200000    1    3    3    0    0 -0.28597265063E+02 -0.56216368171E+02  0.14337590869E+02  0.11993602516E+03  0.10100000000E+03 0. -1.
    -200001    1    1    2    0    0 -0.74262896835E+03  0.21926291925E+03 -0.19888707041E+04  0.22205741802E+04  0.61300000000E+03 0. -1.
<mgrwt>
<rscale>  0 0.23217080E+04</rscale>
<asrwt>0</asrwt>
<pdfrwt beam="1">  1        2 0.39425410E+00 0.23217080E+04</pdfrwt>
<pdfrwt beam="2">  1       -2 0.69756215E-01 0.23217080E+04</pdfrwt>
<totfact> 0.54506782E+00</totfact>
</mgrwt>
</event>
<event>
 8    1  0.7583103E-052  0.1334675E+04  0.7818608E-02  0.9002510E-01
         -2   -1    0    0    0  501 -0.00000000000E+00  0.00000000000E+00  0.77682746607E+03  0.77682746608E+03  0.25500000000E-02 0. -1.
          2   -1    0    0  501    0  0.00000000000E+00 -0.00000000000E+00 -0.57327999911E+03  0.57327999911E+03  0.25500000000E-02 0.  1.
     200001    2    1    2    0    0  0.72892503795E+01 -0.13282687637E+03  0.33261639652E+03  0.70969829846E+03  0.61265152847E+03 0.  0.
    5000001    2    3    3    0    0  0.15872934602E+03 -0.21659385368E+03  0.41115349435E+03  0.49447728464E+03  0.57902386571E+02 0.  0.
        -13    1    4    4    0    0  0.57304374949E+02 -0.44520952026E+02  0.11607877030E+03  0.13689484518E+03  0.10566000000E+00 0. -1.
     200003    1    4    4    0    0  0.10142497107E+03 -0.17207290165E+03  0.29507472405E+03  0.35758243946E+03  0.30000000000E+02 0. -1.
     200000    1    3    3    0    0 -0.15144009564E+03  0.83766977311E+02 -0.78537097826E+02  0.21522101382E+03  0.10100000000E+03 0.  1.
    -200001    1    1    2    0    0 -0.72892503795E+01  0.13282687637E+03 -0.12906892956E+03  0.64040916673E+03  0.61300000000E+03 0.  1.
<mgrwt>
<rscale>  0 0.13346755E+04</rscale>
<asrwt>0</asrwt>
<pdfrwt beam="1">  1        2 0.81897143E-01 0.13346755E+04</pdfrwt>
<pdfrwt beam="2">  1       -2 0.11097535E+00 0.13346755E+04</pdfrwt>
<totfact> 0.36065404E+01</totfact>
</mgrwt>
</event>
<event>
 8    1  0.7583103E-052  0.1564617E+04  0.7818608E-02  0.8842585E-01
         -2   -1    0    0    0  501 -0.00000000000E+00  0.00000000000E+00  0.32511615223E+03  0.32511615224E+03  0.25500000000E-02 0. -1.
          2   -1    0    0  501    0  0.00000000000E+00 -0.00000000000E+00 -0.18824247272E+04  0.18824247272E+04  0.25500000000E-02 0.  1.
     200001    2    1    2    0    0  0.10924637284E+03 -0.40490868115E+03 -0.11247694072E+04  0.13480381501E+04  0.61336353390E+03 0.  0.
    5000001    2    3    3    0    0 -0.88842484635E+00 -0.93714367111E+02  0.43524879775E+02  0.12980823923E+03  0.78565844434E+02 0.  0.
        -13    1    4    4    0    0 -0.17981413670E+02  0.14718131864E+00 -0.49750907691E+01  0.18657856043E+02  0.10566000000E+00 0. -1.
     200003    1    4    4    0    0  0.17092988824E+02 -0.93861548430E+02  0.48499970544E+02  0.11115038319E+03  0.30000000000E+02 0. -1.
     200000    1    3    3    0    0  0.11013479769E+03 -0.31119431404E+03 -0.11682942870E+04  0.12182299109E+04  0.10100000000E+03 0.  1.
    -200001    1    1    2    0    0 -0.10924637284E+03  0.40490868115E+03 -0.43253916771E+03  0.85950272929E+03  0.61300000000E+03 0. -1.
<mgrwt>
<rscale>  0 0.15646171E+04</rscale>
<asrwt>0</asrwt>
<pdfrwt beam="1">  1        2 0.26891781E+00 0.15646171E+04</pdfrwt>
<pdfrwt beam="2">  1       -2 0.46445165E-01 0.15646171E+04</pdfrwt>
<totfact> 0.39049644E+01</totfact>
</mgrwt>
</event>
<event>
 8    1  0.7583103E-052  0.1287350E+04  0.7818608E-02  0.9039657E-01
         -2   -1    0    0    0  501 -0.00000000000E+00  0.00000000000E+00  0.64359746521E+03  0.64359746522E+03  0.25500000000E-02 0. -1.
          2   -1    0    0  501    0  0.00000000000E+00 -0.00000000000E+00 -0.64375244998E+03  0.64375244998E+03  0.25500000000E-02 0.  1.
     200001    2    1    2    0    0  0.97280059793E+02  0.14479442038E+03 -0.89675474307E+02  0.64375706855E+03  0.61314976834E+03 0.  0.
    5000001    2    3    3    0    0  0.13980509749E+03 -0.20766760802E+03 -0.73807721994E+02  0.27431066397E+03  0.84424284644E+02 0.  0.
        -13    1    4    4    0    0  0.62567012230E+02 -0.96882790570E+02 -0.71991943488E+02  0.13595498233E+03  0.10566000000E+00 0. -1.
     200003    1    4    4    0    0  0.77238085260E+02 -0.11078481745E+03 -0.18157785064E+01  0.13835568165E+03  0.30000000000E+02 0. -1.
     200000    1    3    3    0    0 -0.42525037696E+02  0.35246202840E+03 -0.15867752313E+02  0.36944640458E+03  0.10100000000E+03 0. -1.
    -200001    1    1    2    0    0 -0.97280059793E+02 -0.14479442038E+03  0.89520489542E+02  0.64359284665E+03  0.61300000000E+03 0. -1.
<mgrwt>
<rscale>  0 0.12873499E+04</rscale>
<asrwt>0</asrwt>
<pdfrwt beam="1">  1        2 0.91964635E-01 0.12873499E+04</pdfrwt>
<pdfrwt beam="2">  1       -2 0.91942496E-01 0.12873499E+04</pdfrwt>
<totfact> 0.49285354E+01</totfact>
</mgrwt>
</event>
<event>
 8    1  0.7583103E-052  0.1479643E+04  0.7818608E-02  0.8898104E-01
          2   -1    0    0  501    0  0.00000000000E+00  0.00000000000E+00  0.14594590577E+04  0.14594590577E+04  0.25500000000E-02 0.  1.
         -2   -1    0    0    0  501 -0.00000000000E+00 -0.00000000000E+00 -0.37502671509E+03  0.37502671509E+03  0.25500000000E-02 0. -1.
     200001    2    1    2    0    0 -0.25390517572E+02  0.23422351555E+03  0.11971177139E+03  0.66745530441E+03  0.61291136517E+03 0.  0.
    5000001    2    3    3    0    0  0.10993421249E+03  0.37160728982E+03  0.18121509650E+03  0.44124579312E+03  0.10808066348E+03 0.  0.
        -13    1    4    4    0    0 -0.26788158497E+01  0.73931587149E+02  0.72519845064E+02  0.10359630652E+03  0.10566000000E+00 0. -1.
     200003    1    4    4    0    0  0.11261302834E+03  0.29767570267E+03  0.10869525144E+03  0.33764948660E+03  0.30000000000E+02 0. -1.
     200000    1    3    3    0    0 -0.13532473006E+03 -0.13738377427E+03 -0.61503325113E+02  0.22620951129E+03  0.10100000000E+03 0. -1.
    -200001    1    1    2    0    0  0.25390517572E+02 -0.23422351555E+03  0.96472057127E+03  0.11670304684E+04  0.61300000000E+03 0.  1.
<mgrwt>
<rscale>  0 0.14796434E+04</rscale>
<asrwt>0</asrwt>
<pdfrwt beam="1">  1        2 0.20849415E+00 0.14796434E+04</pdfrwt>
<pdfrwt beam="2">  1       -2 0.53575246E-01 0.14796434E+04</pdfrwt>
<totfact> 0.48881388E+01</totfact>
</mgrwt>
</event>
<event>
 8    1  0.7583103E-052  0.1470609E+04  0.7818608E-02  0.8904236E-01
         -2   -1    0    0    0  501 -0.00000000000E+00  0.00000000000E+00  0.29014752080E+03  0.29014752082E+03  0.25500000000E-02 0. -1.
          2   -1    0    0  501    0  0.00000000000E+00 -0.00000000000E+00 -0.18634414201E+04  0.18634414201E+04  0.25500000000E-02 0.  1.
     200001    2    1    2    0    0  0.11747856121E+03 -0.35290181343E+03 -0.54582845885E+03  0.90067428557E+03  0.61232716740E+03 0.  0.
    5000001    2    3    3    0    0  0.88820229918E+02 -0.81060393310E+02 -0.58964152477E+03  0.60598861847E+03  0.71310990626E+02 0.  0.
        -13    1    4    4    0    0  0.78412329917E+02 -0.72664310912E+02 -0.44381779992E+03  0.45651160583E+03  0.10566000000E+00 0. -1.
     200003    1    4    4    0    0  0.10407900001E+02 -0.83960823974E+01 -0.14582372484E+03  0.14947701264E+03  0.30000000000E+02 0. -1.
     200000    1    3    3    0    0  0.28658331292E+02 -0.27184142012E+03  0.43813065918E+02  0.29468566710E+03  0.10100000000E+03 0. -1.
    -200001    1    1    2    0    0 -0.11747856121E+03  0.35290181343E+03 -0.10274654405E+04  0.12529146554E+04  0.61300000000E+03 0.  1.
<mgrwt>
<rscale>  0 0.14706093E+04</rscale>
<asrwt>0</asrwt>
<pdfrwt beam="1">  1        2 0.26620591E+00 0.14706093E+04</pdfrwt>
<pdfrwt beam="2">  1       -2 0.41449647E-01 0.14706093E+04</pdfrwt>
<totfact> 0.50442250E+01</totfact>
</mgrwt>
</event>
<event>
 8    1  0.7583103E-052  0.1716761E+04  0.7818608E-02  0.8751862E-01
          2   -1    0    0  501    0  0.00000000000E+00  0.00000000000E+00  0.11123629647E+04  0.11123629647E+04  0.25500000000E-02 0.  1.
         -2   -1    0    0    0  501 -0.00000000000E+00 -0.00000000000E+00 -0.66238899581E+03  0.66238899582E+03  0.25500000000E-02 0. -1.
     200001    2    1    2    0    0 -0.85881968170E+02  0.72759407348E+02 -0.38453707219E+03  0.73319191832E+03  0.61402930336E+03 0.  0.
    5000001    2    3    3    0    0 -0.36832022124E+02 -0.85261523440E+02 -0.49066474680E+03  0.51219283441E+03  0.11385728187E+03 0.  0.
        -13    1    4    4    0    0 -0.33134321110E+02 -0.92136039576E+02 -0.23394601859E+03  0.25360931332E+03  0.10566000000E+00 0. -1.
     200003    1    4    4    0    0 -0.36977010141E+01  0.68745161365E+01 -0.25671872821E+03  0.25858352109E+03  0.30000000000E+02 0. -1.
     200000    1    3    3    0    0 -0.49049946046E+02  0.15802093079E+03  0.10612767461E+03  0.22099908392E+03  0.10100000000E+03 0.  1.
    -200001    1    1    2    0    0  0.85881968170E+02 -0.72759407348E+02  0.83451104107E+03  0.10415600422E+04  0.61300000000E+03 0.  1.
<mgrwt>
<rscale>  0 0.17167609E+04</rscale>
<asrwt>0</asrwt>
<pdfrwt beam="1">  1        2 0.15890899E+00 0.17167609E+04</pdfrwt>
<pdfrwt beam="2">  1       -2 0.94627000E-01 0.17167609E+04</pdfrwt>
<totfact> 0.21538413E+01</totfact>
</mgrwt>
</event>
<event>
 8    1  0.7583103E-052  0.1582402E+04  0.7818608E-02  0.8831433E-01
          2   -1    0    0  501    0  0.00000000000E+00  0.00000000000E+00  0.57003375406E+03  0.57003375407E+03  0.25500000000E-02 0.  1.
         -2   -1    0    0    0  501 -0.00000000000E+00 -0.00000000000E+00 -0.10981789713E+04  0.10981789713E+04  0.25500000000E-02 0. -1.
     200001    2    1    2    0    0 -0.47946722337E+03  0.13452773170E+03 -0.22201212413E+03  0.82117494603E+03  0.61404591022E+03 0.  0.
    5000001    2    3    3    0    0 -0.21256157373E+03  0.18582895187E+03  0.16096470254E+03  0.34081810913E+03  0.10262809589E+03 0.  0.
        -13    1    4    4    0    0 -0.49345049164E+02  0.41195277360E+02 -0.59552969948E+01  0.64555878741E+02  0.10566000000E+00 0. -1.
     200003    1    4    4    0    0 -0.16321652457E+03  0.14463367451E+03  0.16691999953E+03  0.27626223039E+03  0.30000000000E+02 0. -1.
     200000    1    3    3    0    0 -0.26690564963E+03 -0.51301220170E+02 -0.38297682667E+03  0.48035683690E+03  0.10100000000E+03 0. -1.
    -200001    1    1    2    0    0  0.47946722337E+03 -0.13452773170E+03 -0.30613309307E+03  0.84703777930E+03  0.61300000000E+03 0. -1.
<mgrwt>
<rscale>  0 0.15824021E+04</rscale>
<asrwt>0</asrwt>
<pdfrwt beam="1">  1        2 0.81433395E-01 0.15824021E+04</pdfrwt>
<pdfrwt beam="2">  1       -2 0.15688271E+00 0.15824021E+04</pdfrwt>
<totfact> 0.14732220E+01</totfact>
</mgrwt>
</event>
<event>
 8    1  0.7583103E-052  0.1488378E+04  0.7818608E-02  0.8892218E-01
         -2   -1    0    0    0  501 -0.00000000000E+00  0.00000000000E+00  0.44990206008E+03  0.44990206009E+03  0.25500000000E-02 0. -1.
          2   -1    0    0  501    0  0.00000000000E+00 -0.00000000000E+00 -0.12309730648E+04  0.12309730648E+04  0.25500000000E-02 0.  1.
     200001    2    1    2    0    0 -0.35684589884E+03  0.21246256228E+03 -0.47752548753E+03  0.88063252614E+03  0.61237547221E+03 0.  0.
    5000001    2    3    3    0    0  0.10307771373E+03  0.15603998601E+03 -0.20424399257E+01  0.20906840778E+03  0.93444824732E+02 0.  0.
        -13    1    4    4    0    0  0.16948958843E+02  0.89922419135E+02  0.21473146086E+02  0.93991573217E+02  0.10566000000E+00 0. -1.
     200003    1    4    4    0    0  0.86128754886E+02  0.66117566877E+02 -0.23515586011E+02  0.11507683457E+03  0.30000000000E+02 0. -1.
     200000    1    3    3    0    0 -0.45992361256E+03  0.56422576272E+02 -0.47548304760E+03  0.67156411836E+03  0.10100000000E+03 0.  1.
    -200001    1    1    2    0    0  0.35684589884E+03 -0.21246256228E+03 -0.30354551724E+03  0.80024259879E+03  0.61300000000E+03 0.  1.
<mgrwt>
<rscale>  0 0.14883781E+04</rscale>
<asrwt>0</asrwt>
<pdfrwt beam="1">  1        2 0.17585329E+00 0.14883781E+04</pdfrwt>
<pdfrwt beam="2">  1       -2 0.64271724E-01 0.14883781E+04</pdfrwt>
<totfact> 0.44460963E+01</totfact>
</mgrwt>
</event>
<event>
 8    1  0.7583103E-052  0.1889138E+04  0.7818608E-02  0.8660282E-01
         -2   -1    0    0    0  501 -0.00000000000E+00  0.00000000000E+00  0.25824600198E+03  0.25824600199E+03  0.25500000000E-02 0. -1.
          2   -1    0    0  501    0  0.00000000000E+00 -0.00000000000E+00 -0.34548848148E+04  0.34548848148E+04  0.25500000000E-02 0.  1.
     200001    2    1    2    0    0  0.63488357722E+03  0.15445626763E+03 -0.10102748234E+04  0.13503167340E+04  0.61299769029E+03 0.  0.
    5000001    2    3    3    0    0  0.24935828309E+03  0.29413507965E+03 -0.74537498224E+03  0.85180610350E+03  0.14592729487E+03 0.  0.
        -13    1    4    4    0    0  0.95272771718E+02  0.28893888586E+02 -0.24043684521E+03  0.26023382856E+03  0.10566000000E+00 0. -1.
     200003    1    4    4    0    0  0.15408551137E+03  0.26524119106E+03 -0.50493813703E+03  0.59157227494E+03  0.30000000000E+02 0. -1.
     200000    1    3    3    0    0  0.38552529413E+03 -0.13967881202E+03 -0.26489984112E+03  0.49851063055E+03  0.10100000000E+03 0.  1.
    -200001    1    1    2    0    0 -0.63488357722E+03 -0.15445626763E+03 -0.21863639895E+04  0.23628140828E+04  0.61300000000E+03 0.  1.
<mgrwt>
<rscale>  0 0.18891376E+04</rscale>
<asrwt>0</asrwt>
<pdfrwt beam="1">  1        2 0.49355495E+00 0.18891376E+04</pdfrwt>
<pdfrwt beam="2">  1       -2 0.36892288E-01 0.18891376E+04</pdfrwt>
<totfact> 0.83705648E+00</totfact>
</mgrwt>
</event>
<event>
 8    1  0.7583103E-052  0.2284471E+04  0.7818608E-02  0.8484069E-01
          2   -1    0    0  501    0  0.00000000000E+00  0.00000000000E+00  0.17395301992E+04  0.17395301992E+04  0.25500000000E-02 0.  1.
         -2   -1    0    0    0  501 -0.00000000000E+00 -0.00000000000E+00 -0.75003120801E+03  0.75003120801E+03  0.25500000000E-02 0. -1.
     200001    2    1    2    0    0 -0.79994250452E+03 -0.29383065933E+03  0.41018012317E+01  0.10497624321E+04  0.61297624106E+03 0.  0.
    5000001    2    3    3    0    0 -0.57683263078E+03 -0.96237890475E+02  0.25632780214E+03  0.64647609012E+03  0.10114236229E+03 0.  0.
        -13    1    4    4    0    0 -0.47978891014E+03 -0.97169580105E+02  0.23348441035E+03  0.54235994195E+03  0.10566000000E+00 0. -1.
     200003    1    4    4    0    0 -0.97043720640E+02  0.93168962954E+00  0.22843391794E+02  0.10411614817E+03  0.30000000000E+02 0. -1.
     200000    1    3    3    0    0 -0.22310987373E+03 -0.19759276885E+03 -0.25222600091E+03  0.40328634194E+03  0.10100000000E+03 0. -1.
    -200001    1    1    2    0    0  0.79994250452E+03  0.29383065933E+03  0.98539718999E+03  0.14397989752E+04  0.61300000000E+03 0.  1.
<mgrwt>
<rscale>  0 0.22844710E+04</rscale>
<asrwt>0</asrwt>
<pdfrwt beam="1">  1        2 0.24850432E+00 0.22844710E+04</pdfrwt>
<pdfrwt beam="2">  1       -2 0.10714731E+00 0.22844710E+04</pdfrwt>
<totfact> 0.69895191E+00</totfact>
</mgrwt>
</event>
<event>
 8    1  0.7583103E-052  0.1372394E+04  0.7818608E-02  0.8974047E-01
          2   -1    0    0  501    0  0.00000000000E+00  0.00000000000E+00  0.40836248763E+03  0.40836248764E+03  0.25500000000E-02 0.  1.
         -2   -1    0    0    0  501 -0.00000000000E+00 -0.00000000000E+00 -0.11530595464E+04  0.11530595464E+04  0.25500000000E-02 0. -1.
     200001    2    1    2    0    0  0.34697560762E+02  0.24810125251E+03 -0.16430293424E+03  0.68086284124E+03  0.61140870304E+03 0.  0.
    5000001    2    3    3    0    0 -0.22422263134E+03  0.52884633713E+02  0.82220555936E+02  0.26119151109E+03  0.91587186663E+02 0.  0.
        -13    1    4    4    0    0 -0.12440953543E+03 -0.12118175039E+02  0.44810983905E+02  0.13278786886E+03  0.10566000000E+00 0. -1.
     200003    1    4    4    0    0 -0.99813095908E+02  0.65002808752E+02  0.37409572031E+02  0.12840364224E+03  0.30000000000E+02 0.  1.
     200000    1    3    3    0    0  0.25892019210E+03  0.19521661880E+03 -0.24652349018E+03  0.41967133014E+03  0.10100000000E+03 0. -1.
    -200001    1    1    2    0    0 -0.34697560762E+02 -0.24810125251E+03 -0.58039412448E+03  0.88055919276E+03  0.61300000000E+03 0. -1.
<mgrwt>
<rscale>  0 0.13723939E+04</rscale>
<asrwt>0</asrwt>
<pdfrwt beam="1">  1        2 0.58337499E-01 0.13723939E+04</pdfrwt>
<pdfrwt beam="2">  1       -2 0.16472279E+00 0.13723939E+04</pdfrwt>
<totfact> 0.19175811E+01</totfact>
</mgrwt>
</event>
<event>
 8    1  0.7583103E-052  0.1282906E+04  0.7818608E-02  0.9043232E-01
         -2   -1    0    0    0  501 -0.00000000000E+00  0.00000000000E+00  0.21988974062E+03  0.21988974063E+03  0.25500000000E-02 0.  1.
          2   -1    0    0  501    0  0.00000000000E+00 -0.00000000000E+00 -0.18712184210E+04  0.18712184210E+04  0.25500000000E-02 0. -1.
     200001    2    1    2    0    0  0.19235544767E+02 -0.11327028105E+03 -0.58071311220E+03  0.85208158502E+03  0.61287449456E+03 0.  0.
    5000001    2    3    3    0    0  0.11711457398E+03 -0.23158381716E+03 -0.46921250282E+02  0.28753473218E+03  0.11457630939E+03 0.  0.
        -13    1    4    4    0    0  0.11978817545E+03 -0.21712739501E+03 -0.29129403507E+02  0.24968389206E+03  0.10566000000E+00 0. -1.
     200003    1    4    4    0    0 -0.26736014716E+01 -0.14456422156E+02 -0.17791846776E+02  0.37850840124E+02  0.30000000000E+02 0.  1.
     200000    1    3    3    0    0 -0.97879029216E+02  0.11831353611E+03 -0.53379186192E+03  0.56454685283E+03  0.10100000000E+03 0. -1.
    -200001    1    1    2    0    0 -0.19235544767E+02  0.11327028105E+03 -0.10706155682E+04  0.12390265767E+04  0.61300000000E+03 0. -1.
<mgrwt>
<rscale>  0 0.12829057E+04</rscale>
<asrwt>0</asrwt>
<pdfrwt beam="1">  1        2 0.26731691E+00 0.12829057E+04</pdfrwt>
<pdfrwt beam="2">  1       -2 0.31412821E-01 0.12829057E+04</pdfrwt>
<totfact> 0.86321590E+01</totfact>
</mgrwt>
</event>
<event>
 8    1  0.7583103E-052  0.1347387E+04  0.7818608E-02  0.8992809E-01
          2   -1    0    0  501    0  0.00000000000E+00  0.00000000000E+00  0.13514873581E+04  0.13514873581E+04  0.25500000000E-02 0.  1.
         -2   -1    0    0    0  501 -0.00000000000E+00 -0.00000000000E+00 -0.33582465942E+03  0.33582465943E+03  0.25500000000E-02 0. -1.
     200001    2    1    2    0    0  0.69066508024E+02 -0.19033691254E+02  0.17051598474E+03  0.64080619718E+03  0.61353436526E+03 0.  0.
    5000001    2    3    3    0    0 -0.10681498912E+03 -0.12633225491E+02  0.34373192186E+03  0.37401034288E+03  0.10081201411E+03 0.  0.
        -13    1    4    4    0    0 -0.75971352526E+02 -0.12311029615E+02  0.98346371954E+02  0.12488085480E+03  0.10566000000E+00 0. -1.
     200003    1    4    4    0    0 -0.30843636594E+02 -0.32219587672E+00  0.24538554990E+03  0.24912948808E+03  0.30000000000E+02 0. -1.
     200000    1    3    3    0    0  0.17588149714E+03 -0.64004657630E+01 -0.17321593712E+03  0.26679585430E+03  0.10100000000E+03 0. -1.
    -200001    1    1    2    0    0 -0.69066508024E+02  0.19033691254E+02  0.84514671390E+03  0.10465058203E+04  0.61300000000E+03 0.  1.
<mgrwt>
<rscale>  0 0.13473868E+04</rscale>
<asrwt>0</asrwt>
<pdfrwt beam="1">  1        2 0.19306962E+00 0.13473868E+04</pdfrwt>
<pdfrwt beam="2">  1       -2 0.47974952E-01 0.13473868E+04</pdfrwt>
<totfact> 0.70751550E+01</totfact>
</mgrwt>
</event>
<event>
 8    1  0.7583103E-052  0.1831005E+04  0.7818608E-02  0.8689983E-01
          2   -1    0    0  501    0  0.00000000000E+00  0.00000000000E+00  0.17572809515E+04  0.17572809515E+04  0.25500000000E-02 0.  1.
         -2   -1    0    0    0  501 -0.00000000000E+00 -0.00000000000E+00 -0.47695561833E+03  0.47695561834E+03  0.25500000000E-02 0. -1.
     200001    2    1    2    0    0  0.30805713305E+03 -0.21758550743E+03  0.13302989857E+04  0.15127734618E+04  0.61363303791E+03 0.  0.
    5000001    2    3    3    0    0  0.22002590057E+03  0.18127138015E+03  0.57223336478E+03  0.64576665663E+03  0.91065036444E+02 0.  0.
        -13    1    4    4    0    0  0.83044930059E+02  0.24472138643E+02  0.13201539382E+03  0.15787153432E+03  0.10566000000E+00 0. -1.
     200003    1    4    4    0    0  0.13698097052E+03  0.15679924150E+03  0.44021797095E+03  0.48789512231E+03  0.30000000000E+02 0. -1.
     200000    1    3    3    0    0  0.88031232474E+02 -0.39885688757E+03  0.75806562090E+03  0.86700680519E+03  0.10100000000E+03 0. -1.
    -200001    1    1    2    0    0 -0.30805713305E+03  0.21758550743E+03 -0.49973652533E+02  0.72146310800E+03  0.61300000000E+03 0. -1.
<mgrwt>
<rscale>  0 0.18310052E+04</rscale>
<asrwt>0</asrwt>
<pdfrwt beam="1">  1        2 0.25104014E+00 0.18310052E+04</pdfrwt>
<pdfrwt beam="2">  1       -2 0.68136517E-01 0.18310052E+04</pdfrwt>
<totfact> 0.19944851E+01</totfact>
</mgrwt>
</event>
<event>
 8    1  0.7583103E-052  0.1396595E+04  0.7818608E-02  0.8956287E-01
         -2   -1    0    0    0  501 -0.00000000000E+00  0.00000000000E+00  0.52064240615E+03  0.52064240616E+03  0.25500000000E-02 0. -1.
          2   -1    0    0  501    0  0.00000000000E+00 -0.00000000000E+00 -0.93657314193E+03  0.93657314194E+03  0.25500000000E-02 0.  1.
     200001    2    1    2    0    0 -0.72053382469E+02  0.39209226371E+02 -0.54529558113E+03  0.82536642325E+03  0.61412816941E+03 0.  0.
    5000001    2    3    3    0    0  0.11591648423E+03  0.18645186847E+03 -0.49192226797E+03  0.56067268136E+03  0.15545226701E+03 0.  0.
        -13    1    4    4    0    0  0.18636978741E+02  0.15821905666E+03 -0.34180497127E+03  0.37710907761E+03  0.10566000000E+00 0. -1.
     200003    1    4    4    0    0  0.97279505487E+02  0.28232811810E+02 -0.15011729671E+03  0.18356360375E+03  0.30000000000E+02 0. -1.
     200000    1    3    3    0    0 -0.18796986670E+03 -0.14724264210E+03 -0.53373313160E+02  0.26469374189E+03  0.10100000000E+03 0.  1.
    -200001    1    1    2    0    0  0.72053382469E+02 -0.39209226371E+02  0.12936484535E+03  0.63184912485E+03  0.61300000000E+03 0. -1.
<mgrwt>
<rscale>  0 0.13965954E+04</rscale>
<asrwt>0</asrwt>
<pdfrwt beam="1">  1        2 0.13379616E+00 0.13965954E+04</pdfrwt>
<pdfrwt beam="2">  1       -2 0.74377487E-01 0.13965954E+04</pdfrwt>
<totfact> 0.48842105E+01</totfact>
</mgrwt>
</event>
<event>
 8    1  0.7583103E-052  0.1343201E+04  0.7818608E-02  0.8995991E-01
          2   -1    0    0  501    0  0.00000000000E+00  0.00000000000E+00  0.26234737792E+04  0.26234737792E+04  0.25500000000E-02 0.  1.
         -2   -1    0    0    0  501 -0.00000000000E+00 -0.00000000000E+00 -0.17192744332E+03  0.17192744334E+03  0.25500000000E-02 0. -1.
     200001    2    1    2    0    0  0.21944262128E+03 -0.12921838882E+03  0.10076053183E+04  0.12061916334E+04  0.61219059364E+03 0.  0.
    5000001    2    3    3    0    0 -0.13503344803E+03 -0.21357104468E+03  0.51134618884E+03  0.58229839104E+03  0.11725983183E+03 0.  0.
        -13    1    4    4    0    0 -0.18603828600E+02 -0.12702755248E+03  0.20260397191E+03  0.23985512737E+03  0.10566000000E+00 0. -1.
     200003    1    4    4    0    0 -0.11642961943E+03 -0.86543492203E+02  0.30874221693E+03  0.34244326367E+03  0.30000000000E+02 0. -1.
     200000    1    3    3    0    0  0.35447606931E+03  0.84352655867E+02  0.49625912946E+03  0.62389324234E+03  0.10100000000E+03 0. -1.
    -200001    1    1    2    0    0 -0.21944262128E+03  0.12921838882E+03  0.14439410176E+04  0.15892095892E+04  0.61300000000E+03 0.  1.
<mgrwt>
<rscale>  0 0.13432009E+04</rscale>
<asrwt>0</asrwt>
<pdfrwt beam="1">  1        2 0.37478193E+00 0.13432009E+04</pdfrwt>
<pdfrwt beam="2">  1       -2 0.24561066E-01 0.13432009E+04</pdfrwt>
<totfact> 0.55114353E+01</totfact>
</mgrwt>
</event>
<event>
 8    1  0.7583103E-052  0.2105695E+04  0.7818608E-02  0.8558739E-01
         -2   -1    0    0    0  501 -0.00000000000E+00  0.00000000000E+00  0.70750447161E+03  0.70750447161E+03  0.25500000000E-02 0. -1.
          2   -1    0    0  501    0  0.00000000000E+00 -0.00000000000E+00 -0.15667576845E+04  0.15667576845E+04  0.25500000000E-02 0.  1.
     200001    2    1    2    0    0  0.71384751950E+03  0.47104565064E+03 -0.39728975692E+03  0.11250704746E+04  0.61358140118E+03 0.  0.
    5000001    2    3    3    0    0  0.36259371760E+03  0.52013222682E+03 -0.11411818827E+03  0.66012331356E+03  0.14397253486E+03 0.  0.
        -13    1    4    4    0    0  0.57600395704E+02  0.10511128119E+03  0.31740971624E+02  0.12399067490E+03  0.10566000000E+00 0. -1.
     200003    1    4    4    0    0  0.30499332189E+03  0.41502094563E+03 -0.14585915989E+03  0.53613263866E+03  0.30000000000E+02 0. -1.
     200000    1    3    3    0    0  0.35125380190E+03 -0.49086576171E+02 -0.28317156866E+03  0.46494716109E+03  0.10100000000E+03 0.  1.
    -200001    1    1    2    0    0 -0.71384751950E+03 -0.47104565064E+03 -0.46196345595E+03  0.11491916815E+04  0.61300000000E+03 0.  1.
<mgrwt>
<rscale>  0 0.21056952E+04</rscale>
<asrwt>0</asrwt>
<pdfrwt beam="1">  1        2 0.22382253E+00 0.21056952E+04</pdfrwt>
<pdfrwt beam="2">  1       -2 0.10107207E+00 0.21056952E+04</pdfrwt>
<totfact> 0.10040239E+01</totfact>
</mgrwt>
</event>
<event>
 8    1  0.7583103E-052  0.1498550E+04  0.7818608E-02  0.8885418E-01
          2   -1    0    0  501    0  0.00000000000E+00  0.00000000000E+00  0.30346421305E+04  0.30346421305E+04  0.25500000000E-02 0.  1.
         -2   -1    0    0    0  501 -0.00000000000E+00 -0.00000000000E+00 -0.18500144693E+03  0.18500144695E+03  0.25500000000E-02 0. -1.
     200001    2    1    2    0    0  0.34758504547E+03 -0.49912107859E+02  0.19615674467E+04  0.20848529992E+04  0.61282835945E+03 0.  0.
    5000001    2    3    3    0    0  0.38768657858E+03  0.19139248348E+03  0.11708088828E+04  0.12509848171E+04  0.85074124696E+02 0.  0.
        -13    1    4    4    0    0  0.15531005115E+03  0.10721600081E+03  0.57756345442E+03  0.60761504085E+03  0.10566000000E+00 0. -1.
     200003    1    4    4    0    0  0.23237652743E+03  0.84176482668E+02  0.59324542834E+03  0.64336977624E+03  0.30000000000E+02 0. -1.
     200000    1    3    3    0    0 -0.40101533110E+02 -0.24130459134E+03  0.79075856389E+03  0.83386818210E+03  0.10100000000E+03 0. -1.
    -200001    1    1    2    0    0 -0.34758504547E+03  0.49912107859E+02  0.88807323689E+03  0.11347905782E+04  0.61300000000E+03 0. -1.
<mgrwt>
<rscale>  0 0.14985502E+04</rscale>
<asrwt>0</asrwt>
<pdfrwt beam="1">  1        2 0.43352031E+00 0.14985502E+04</pdfrwt>
<pdfrwt beam="2">  1       -2 0.26428778E-01 0.14985502E+04</pdfrwt>
<totfact> 0.28440313E+01</totfact>
</mgrwt>
</event>
<event>
 8    1  0.7583103E-052  0.1969426E+04  0.7818608E-02  0.8621050E-01
          2   -1    0    0  501    0  0.00000000000E+00  0.00000000000E+00  0.14752166072E+04  0.14752166072E+04  0.25500000000E-02 0.  1.
         -2   -1    0    0    0  501 -0.00000000000E+00 -0.00000000000E+00 -0.65730013714E+03  0.65730013714E+03  0.25500000000E-02 0. -1.
     200001    2    1    2    0    0 -0.16647346665E+01  0.69421211134E+03  0.77161477170E+03  0.12052378898E+04  0.61259757439E+03 0.  0.
    5000001    2    3    3    0    0  0.17071064001E+03  0.78653436123E+02  0.42244248797E+03  0.46988216894E+03  0.83684594859E+02 0.  0.
        -13    1    4    4    0    0  0.40088841543E+02  0.16268622865E+02  0.36528938726E+02  0.56622944419E+02  0.10566000000E+00 0. -1.
     200003    1    4    4    0    0  0.13062179847E+03  0.62384813259E+02  0.38591354924E+03  0.41325922452E+03  0.30000000000E+02 0. -1.
     200000    1    3    3    0    0 -0.17237537467E+03  0.61555867521E+03  0.34917228373E+03  0.73535572083E+03  0.10100000000E+03 0. -1.
    -200001    1    1    2    0    0  0.16647346665E+01 -0.69421211134E+03  0.46301698356E+02  0.92727885457E+03  0.61300000000E+03 0.  1.
<mgrwt>
<rscale>  0 0.19694264E+04</rscale>
<asrwt>0</asrwt>
<pdfrwt beam="1">  1        2 0.21074523E+00 0.19694264E+04</pdfrwt>
<pdfrwt beam="2">  1       -2 0.93900018E-01 0.19694264E+04</pdfrwt>
<totfact> 0.13496520E+01</totfact>
</mgrwt>
</event>
<event>
 8    1  0.7583103E-052  0.1491198E+04  0.7818608E-02  0.8890328E-01
         -2   -1    0    0    0  501 -0.00000000000E+00  0.00000000000E+00  0.40356527196E+03  0.40356527197E+03  0.25500000000E-02 0. -1.
          2   -1    0    0  501    0  0.00000000000E+00 -0.00000000000E+00 -0.13775161131E+04  0.13775161131E+04  0.25500000000E-02 0.  1.
     200001    2    1    2    0    0  0.34106044801E+03  0.13934511907E+03 -0.73851434355E+03  0.10281281091E+04  0.61311066025E+03 0.  0.
    5000001    2    3    3    0    0  0.26760326161E+03  0.18314765868E+03 -0.67052065230E+02  0.34374721230E+03  0.92258311324E+02 0.  0.
        -13    1    4    4    0    0  0.18713611664E+03  0.89323157929E+02 -0.20781717372E+02  0.20839972082E+03  0.10566000000E+00 0. -1.
     200003    1    4    4    0    0  0.80467144962E+02  0.93824500752E+02 -0.46270347857E+02  0.13534749148E+03  0.30000000000E+02 0.  1.
     200000    1    3    3    0    0  0.73457186399E+02 -0.43802539613E+02 -0.67146227832E+03  0.68438089681E+03  0.10100000000E+03 0.  1.
    -200001    1    1    2    0    0 -0.34106044801E+03 -0.13934511907E+03 -0.23543649759E+03  0.75295327597E+03  0.61300000000E+03 0.  1.
<mgrwt>
<rscale>  0 0.14911977E+04</rscale>
<asrwt>0</asrwt>
<pdfrwt beam="1">  1        2 0.19678801E+00 0.14911977E+04</pdfrwt>
<pdfrwt beam="2">  1       -2 0.57652183E-01 0.14911977E+04</pdfrwt>
<totfact> 0.46422276E+01</totfact>
</mgrwt>
</event>
<event>
 8    1  0.7583103E-052  0.1803799E+04  0.7818608E-02  0.8704282E-01
          2   -1    0    0  501    0  0.00000000000E+00  0.00000000000E+00  0.19099707266E+04  0.19099707266E+04  0.25500000000E-02 0.  1.
         -2   -1    0    0    0  501 -0.00000000000E+00 -0.00000000000E+00 -0.42588234006E+03  0.42588234007E+03  0.25500000000E-02 0. -1.
     200001    2    1    2    0    0 -0.63595445147E+03 -0.10401402357E+03  0.54636529001E+03  0.10434326292E+04  0.61235581167E+03 0.  0.
    5000001    2    3    3    0    0 -0.24273804345E+03 -0.32407494233E+03  0.35596445934E+03  0.54393345219E+03  0.72156622106E+02 0.  0.
        -13    1    4    4    0    0 -0.18021952853E+03 -0.21448529897E+03  0.26408494877E+03  0.38499856268E+03  0.10566000000E+00 0. -1.
     200003    1    4    4    0    0 -0.62518514920E+02 -0.10958964336E+03  0.91879510571E+02  0.15893488951E+03  0.30000000000E+02 0.  1.
     200000    1    3    3    0    0 -0.39321640802E+03  0.22006091876E+03  0.19040083067E+03  0.49949917700E+03  0.10100000000E+03 0. -1.
    -200001    1    1    2    0    0  0.63595445147E+03  0.10401402357E+03  0.93772309651E+03  0.12924204375E+04  0.61300000000E+03 0.  1.
<mgrwt>
<rscale>  0 0.18037991E+04</rscale>
<asrwt>0</asrwt>
<pdfrwt beam="1">  1        2 0.27285296E+00 0.18037991E+04</pdfrwt>
<pdfrwt beam="2">  1       -2 0.60840335E-01 0.18037991E+04</pdfrwt>
<totfact> 0.21249477E+01</totfact>
</mgrwt>
</event>
<event>
 8    1  0.7583103E-052  0.1776366E+04  0.7818608E-02  0.8718970E-01
          2   -1    0    0  501    0  0.00000000000E+00  0.00000000000E+00  0.80440685662E+03  0.80440685663E+03  0.25500000000E-02 0.  1.
         -2   -1    0    0    0  501 -0.00000000000E+00 -0.00000000000E+00 -0.98068366837E+03  0.98068366838E+03  0.25500000000E-02 0. -1.
     200001    2    1    2    0    0 -0.43244545167E+03  0.34303680024E+03 -0.41944733475E+03  0.92509970049E+03  0.61252761099E+03 0.  0.
    5000001    2    3    3    0    0 -0.34799886526E+03  0.46650213603E+03 -0.37568698578E+03  0.73938248740E+03  0.25849235626E+03 0.  0.
        -13    1    4    4    0    0 -0.20267359925E+03  0.20649093174E+03 -0.44155882961E+02  0.29268557513E+03  0.10566000000E+00 0. -1.
     200003    1    4    4    0    0 -0.14532526602E+03  0.26001120428E+03 -0.33153110282E+03  0.44669691227E+03  0.30000000000E+02 0. -1.
     200000    1    3    3    0    0 -0.84446586409E+02 -0.12346533579E+03 -0.43760348976E+02  0.18571721309E+03  0.10100000000E+03 0.  1.
    -200001    1    1    2    0    0  0.43244545167E+03 -0.34303680024E+03  0.24317052300E+03  0.85999082451E+03  0.61300000000E+03 0.  1.
<mgrwt>
<rscale>  0 0.17763656E+04</rscale>
<asrwt>0</asrwt>
<pdfrwt beam="1">  1        2 0.11491527E+00 0.17763656E+04</pdfrwt>
<pdfrwt beam="2">  1       -2 0.14009767E+00 0.17763656E+04</pdfrwt>
<totfact> 0.12833013E+01</totfact>
</mgrwt>
</event>
<event>
 8    1  0.7583103E-052  0.1907467E+04  0.7818608E-02  0.8651148E-01
          2   -1    0    0  501    0  0.00000000000E+00  0.00000000000E+00  0.11391404250E+04  0.11391404250E+04  0.25500000000E-02 0.  1.
         -2   -1    0    0    0  501 -0.00000000000E+00 -0.00000000000E+00 -0.79850347293E+03  0.79850347293E+03  0.25500000000E-02 0. -1.
     200001    2    1    2    0    0  0.28057705672E+03  0.28904650826E+03  0.78878241851E+03  0.10780656713E+04  0.61463527332E+03 0.  0.
    5000001    2    3    3    0    0 -0.13520149223E+03 -0.25465395100E+02  0.36378348657E+03  0.39790787251E+03  0.84049509552E+02 0.  0.
        -13    1    4    4    0    0 -0.26115367634E+02  0.25736570328E+02  0.72035980970E+02  0.80830546189E+02  0.10566000000E+00 0. -1.
     200003    1    4    4    0    0 -0.10908612459E+03 -0.51201965428E+02  0.29174750560E+03  0.31707732632E+03  0.30000000000E+02 0. -1.
     200000    1    3    3    0    0  0.41577854895E+03  0.31451190336E+03  0.42499893194E+03  0.68015779880E+03  0.10100000000E+03 0. -1.
    -200001    1    1    2    0    0 -0.28057705672E+03 -0.28904650826E+03 -0.44814546640E+03  0.85957822666E+03  0.61300000000E+03 0. -1.
<mgrwt>
<rscale>  0 0.19074670E+04</rscale>
<asrwt>0</asrwt>
<pdfrwt beam="1">  1        2 0.16273434E+00 0.19074670E+04</pdfrwt>
<pdfrwt beam="2">  1       -2 0.11407193E+00 0.19074670E+04</pdfrwt>
<totfact> 0.13093035E+01</totfact>
</mgrwt>
</event>
<event>
 8    1  0.7583103E-052  0.1542497E+04  0.7818608E-02  0.8856675E-01
         -2   -1    0    0    0  501 -0.00000000000E+00  0.00000000000E+00  0.34919127367E+03  0.34919127368E+03  0.25500000000E-02 0. -1.
          2   -1    0    0  501    0  0.00000000000E+00 -0.00000000000E+00 -0.17034337714E+04  0.17034337714E+04  0.25500000000E-02 0.  1.
     200001    2    1    2    0    0  0.34937747484E+03 -0.27023092563E+03 -0.46991881029E+03  0.88948844207E+03  0.61259825924E+03 0.  0.
    5000001    2    3    3    0    0  0.20397442533E+03 -0.29698770744E+03 -0.57359199333E+03  0.68258967199E+03  0.84342284403E+02 0.  0.
        -13    1    4    4    0    0  0.15237003888E+03 -0.16259685499E+03 -0.35485625414E+03  0.41901949629E+03  0.10566000000E+00 0. -1.
     200003    1    4    4    0    0  0.51604386455E+02 -0.13439085245E+03 -0.21873573919E+03  0.26357017571E+03  0.30000000000E+02 0. -1.
     200000    1    3    3    0    0  0.14540304950E+03  0.26756781816E+02  0.10367318304E+03  0.20689877008E+03  0.10100000000E+03 0. -1.
    -200001    1    1    2    0    0 -0.34937747484E+03  0.27023092563E+03 -0.88432368742E+03  0.11631366030E+04  0.61300000000E+03 0. -1.
<mgrwt>
<rscale>  0 0.15424969E+04</rscale>
<asrwt>0</asrwt>
<pdfrwt beam="1">  1        2 0.24334768E+00 0.15424969E+04</pdfrwt>
<pdfrwt beam="2">  1       -2 0.49884468E-01 0.15424969E+04</pdfrwt>
<totfact> 0.41893175E+01</totfact>
</mgrwt>
</event>
<event>
 8    1  0.7583103E-052  0.1621403E+04  0.7818608E-02  0.8807506E-01
         -2   -1    0    0    0  501 -0.00000000000E+00  0.00000000000E+00  0.14440799228E+04  0.14440799228E+04  0.25500000000E-02 0. -1.
          2   -1    0    0  501    0  0.00000000000E+00 -0.00000000000E+00 -0.45512515190E+03  0.45512515190E+03  0.25500000000E-02 0.  1.
     200001    2    1    2    0    0  0.32114978614E+03 -0.39276751201E+03  0.31338818137E+03  0.85538386371E+03  0.61324212057E+03 0.  0.
    5000001    2    3    3    0    0  0.39569064962E+03 -0.18619017813E+03 -0.15960218219E+02  0.44684756971E+03  0.90444178159E+02 0.  0.
        -13    1    4    4    0    0  0.19452457970E+03 -0.76456596544E+02  0.30191566601E+02  0.21117993541E+03  0.10566000000E+00 0. -1.
     200003    1    4    4    0    0  0.20116606992E+03 -0.10973358158E+03 -0.46151784820E+02  0.23566763430E+03  0.30000000000E+02 0. -1.
     200000    1    3    3    0    0 -0.74540863479E+02 -0.20657733389E+03  0.32934839959E+03  0.40853629400E+03  0.10100000000E+03 0. -1.
    -200001    1    1    2    0    0 -0.32114978614E+03  0.39276751201E+03  0.67556658954E+03  0.10438212110E+04  0.61300000000E+03 0. -1.
<mgrwt>
<rscale>  0 0.16214032E+04</rscale>
<asrwt>0</asrwt>
<pdfrwt beam="1">  1        2 0.65017879E-01 0.16214032E+04</pdfrwt>
<pdfrwt beam="2">  1       -2 0.20629713E+00 0.16214032E+04</pdfrwt>
<totfact> 0.86717788E+00</totfact>
</mgrwt>
</event>
<event>
 8    1  0.7583103E-052  0.1497405E+04  0.7818608E-02  0.8886180E-01
          2   -1    0    0  501    0  0.00000000000E+00  0.00000000000E+00  0.23557648515E+04  0.23557648515E+04  0.25500000000E-02 0.  1.
         -2   -1    0    0    0  501 -0.00000000000E+00 -0.00000000000E+00 -0.23795058392E+03  0.23795058393E+03  0.25500000000E-02 0. -1.
     200001    2    1    2    0    0  0.18604823517E+02 -0.50790586232E+02  0.17971592496E+04  0.18998030031E+04  0.61363202260E+03 0.  0.
    5000001    2    3    3    0    0  0.13976588162E+03 -0.16395495897E+02  0.17072907150E+04  0.17150318534E+04  0.81788501473E+02 0.  0.
        -13    1    4    4    0    0  0.44927869743E+02  0.28897965181E+02  0.54074850064E+03  0.54338067502E+03  0.10566000000E+00 0. -1.
     200003    1    4    4    0    0  0.94838011878E+02 -0.45293461079E+02  0.11665422143E+04  0.11716511784E+04  0.30000000000E+02 0. -1.
     200000    1    3    3    0    0 -0.12116105810E+03 -0.34395090335E+02  0.89868534646E+02  0.18477114969E+03  0.10100000000E+03 0. -1.
    -200001    1    1    2    0    0 -0.18604823517E+02  0.50790586232E+02  0.32065501794E+03  0.69391243225E+03  0.61300000000E+03 0. -1.
<mgrwt>
<rscale>  0 0.14974053E+04</rscale>
<asrwt>0</asrwt>
<pdfrwt beam="1">  1        2 0.33653782E+00 0.14974053E+04</pdfrwt>
<pdfrwt beam="2">  1       -2 0.33992942E-01 0.14974053E+04</pdfrwt>
<totfact> 0.41180710E+01</totfact>
</mgrwt>
</event>
<event>
 8    1  0.7583103E-052  0.1851620E+04  0.7818608E-02  0.8679320E-01
         -2   -1    0    0    0  501 -0.00000000000E+00  0.00000000000E+00  0.68920127293E+03  0.68920127293E+03  0.25500000000E-02 0. -1.
          2   -1    0    0  501    0  0.00000000000E+00 -0.00000000000E+00 -0.12436484284E+04  0.12436484284E+04  0.25500000000E-02 0.  1.
     200001    2    1    2    0    0  0.41401285655E+03 -0.53819266799E+03 -0.12575648260E+03  0.92260087740E+03  0.61181671504E+03 0.  0.
    5000001    2    3    3    0    0 -0.28919513314E+02 -0.11746818158E+03  0.16758845121E+03  0.23743635122E+03  0.11685469597E+03 0.  0.
        -13    1    4    4    0    0  0.33430252188E+02 -0.87702481414E+01  0.14876858091E+02  0.37627530938E+02  0.10566000000E+00 0. -1.
     200003    1    4    4    0    0 -0.62349765502E+02 -0.10869793344E+03  0.15271159312E+03  0.19980882029E+03  0.30000000000E+02 0. -1.
     200000    1    3    3    0    0  0.44293236987E+03 -0.42072448641E+03 -0.29334493381E+03  0.68516452617E+03  0.10100000000E+03 0.  1.
    -200001    1    1    2    0    0 -0.41401285655E+03  0.53819266799E+03 -0.42869067288E+03  0.10102488239E+04  0.61300000000E+03 0. -1.
<mgrwt>
<rscale>  0 0.18516199E+04</rscale>
<asrwt>0</asrwt>
<pdfrwt beam="1">  1        2 0.17766406E+00 0.18516199E+04</pdfrwt>
<pdfrwt beam="2">  1       -2 0.98457325E-01 0.18516199E+04</pdfrwt>
<totfact> 0.16321324E+01</totfact>
</mgrwt>
</event>
<event>
 8    1  0.7583103E-052  0.1554459E+04  0.7818608E-02  0.8849025E-01
          2   -1    0    0  501    0  0.00000000000E+00  0.00000000000E+00  0.21646099280E+04  0.21646099280E+04  0.25500000000E-02 0.  1.
         -2   -1    0    0    0  501 -0.00000000000E+00 -0.00000000000E+00 -0.27907365029E+03  0.27907365030E+03  0.25500000000E-02 0. -1.
     200001    2    1    2    0    0 -0.42646539959E+03 -0.21654359816E+03  0.93344258711E+03  0.12144499705E+04  0.61221711866E+03 0.  0.
    5000001    2    3    3    0    0 -0.30323917842E+03  0.59993051885E+02  0.13440971052E+03  0.35403625703E+03  0.10827065809E+03 0.  0.
        -13    1    4    4    0    0 -0.10454978540E+03  0.33699680105E+02  0.99869102388E+02  0.14845933733E+03  0.10566000000E+00 0. -1.
     200003    1    4    4    0    0 -0.19868939303E+03  0.26293371780E+02  0.34540608133E+02  0.20557691969E+03  0.30000000000E+02 0. -1.
     200000    1    3    3    0    0 -0.12322622116E+03 -0.27653665004E+03  0.79903287659E+03  0.86041371343E+03  0.10100000000E+03 0.  1.
    -200001    1    1    2    0    0  0.42646539959E+03  0.21654359816E+03  0.95209369058E+03  0.12292336078E+04  0.61300000000E+03 0. -1.
<mgrwt>
<rscale>  0 0.15544589E+04</rscale>
<asrwt>0</asrwt>
<pdfrwt beam="1">  1        2 0.30922996E+00 0.15544589E+04</pdfrwt>
<pdfrwt beam="2">  1       -2 0.39867668E-01 0.15544589E+04</pdfrwt>
<totfact> 0.37860303E+01</totfact>
</mgrwt>
</event>
<event>
 8    1  0.7583103E-052  0.1399150E+04  0.7818608E-02  0.8954434E-01
          2   -1    0    0  501    0  0.00000000000E+00  0.00000000000E+00  0.22781528285E+04  0.22781528285E+04  0.25500000000E-02 0. -1.
         -2   -1    0    0    0  501 -0.00000000000E+00 -0.00000000000E+00 -0.21482548648E+03  0.21482548650E+03  0.25500000000E-02 0.  1.
     200001    2    1    2    0    0  0.14880826340E+03  0.16398051243E+03  0.14899262230E+04  0.16248819200E+04  0.60936655325E+03 0.  0.
    5000001    2    3    3    0    0 -0.76418627412E+02  0.51996227682E+02  0.12707182049E+04  0.12762836016E+04  0.75044394499E+02 0.  0.
        -13    1    4    4    0    0 -0.67167107439E+02  0.41024835998E+02  0.10640474857E+04  0.10669543198E+04  0.10566000000E+00 0. -1.
     200003    1    4    4    0    0 -0.92515199736E+01  0.10971391684E+02  0.20667071924E+03  0.20932928187E+03  0.30000000000E+02 0.  1.
     200000    1    3    3    0    0  0.22522689081E+03  0.11198428475E+03  0.21920801806E+03  0.34859831835E+03  0.10100000000E+03 0. -1.
    -200001    1    1    2    0    0 -0.14880826340E+03 -0.16398051243E+03  0.57340111898E+03  0.86809639497E+03  0.61300000000E+03 0.  1.
<mgrwt>
<rscale>  0 0.13991502E+04</rscale>
<asrwt>0</asrwt>
<pdfrwt beam="1">  1        2 0.32545040E+00 0.13991502E+04</pdfrwt>
<pdfrwt beam="2">  1       -2 0.30689355E-01 0.13991502E+04</pdfrwt>
<totfact> 0.55215166E+01</totfact>
</mgrwt>
</event>
<event>
 8    1  0.7583103E-052  0.1282132E+04  0.7818608E-02  0.9043856E-01
          2   -1    0    0  501    0  0.00000000000E+00  0.00000000000E+00  0.14987376506E+04  0.14987376506E+04  0.25500000000E-02 0.  1.
         -2   -1    0    0    0  501 -0.00000000000E+00 -0.00000000000E+00 -0.27420765189E+03  0.27420765191E+03  0.25500000000E-02 0. -1.
     200001    2    1    2    0    0  0.14730753184E+03 -0.86556607132E+01  0.45254547917E+03  0.77619883133E+03  0.61311726908E+03 0.  0.
    5000001    2    3    3    0    0  0.16416466193E+03  0.25400672059E+03  0.36937406861E+03  0.48226997443E+03  0.68393532917E+02 0.  0.
        -13    1    4    4    0    0  0.11438708794E+03  0.20083852330E+03  0.28248806777E+03  0.36499320257E+03  0.10566000000E+00 0. -1.
     200003    1    4    4    0    0  0.49777573989E+02  0.53168197292E+02  0.86886000848E+02  0.11727677186E+03  0.30000000000E+02 0.  1.
     200000    1    3    3    0    0 -0.16857130090E+02 -0.26266238130E+03  0.83171410560E+02  0.29392885690E+03  0.10100000000E+03 0. -1.
    -200001    1    1    2    0    0 -0.14730753184E+03  0.86556607132E+01  0.77198451952E+03  0.99674647117E+03  0.61300000000E+03 0.  1.
<mgrwt>
<rscale>  0 0.12821316E+04</rscale>
<asrwt>0</asrwt>
<pdfrwt beam="1">  1        2 0.21410538E+00 0.12821316E+04</pdfrwt>
<pdfrwt beam="2">  1       -2 0.39172522E-01 0.12821316E+04</pdfrwt>
<totfact> 0.88506050E+01</totfact>
</mgrwt>
</event>
<event>
 8    1  0.7583103E-052  0.1306764E+04  0.7818608E-02  0.9024218E-01
         -2   -1    0    0    0  501 -0.00000000000E+00  0.00000000000E+00  0.21496192750E+03  0.21496192752E+03  0.25500000000E-02 0.  1.
          2   -1    0    0  501    0  0.00000000000E+00 -0.00000000000E+00 -0.19859715151E+04  0.19859715151E+04  0.25500000000E-02 0. -1.
     200001    2    1    2    0    0  0.86158257449E+02  0.13658952874E+03 -0.11504427581E+04  0.13138302161E+04  0.61363780221E+03 0.  0.
    5000001    2    3    3    0    0  0.31923211617E+03  0.28430563948E+02 -0.43464646478E+03  0.54663589986E+03  0.84710192474E+02 0.  0.
        -13    1    4    4    0    0  0.82495419075E+02  0.45142210148E+01 -0.17294257739E+03  0.19166381661E+03  0.10566000000E+00 0. -1.
     200003    1    4    4    0    0  0.23673669710E+03  0.23916342934E+02 -0.26170388739E+03  0.35497208325E+03  0.30000000000E+02 0. -1.
     200000    1    3    3    0    0 -0.23307385873E+03  0.10815896479E+03 -0.71579629336E+03  0.76719431624E+03  0.10100000000E+03 0. -1.
    -200001    1    1    2    0    0 -0.86158257449E+02 -0.13658952874E+03 -0.62056682947E+03  0.88710322654E+03  0.61300000000E+03 0.  1.
<mgrwt>
<rscale>  0 0.13067643E+04</rscale>
<asrwt>0</asrwt>
<pdfrwt beam="1">  1        2 0.28371021E+00 0.13067643E+04</pdfrwt>
<pdfrwt beam="2">  1       -2 0.30708848E-01 0.13067643E+04</pdfrwt>
<totfact> 0.78502120E+01</totfact>
</mgrwt>
</event>
<event>
 8    1  0.7583103E-052  0.1469099E+04  0.7818608E-02  0.8905266E-01
          2   -1    0    0  501    0  0.00000000000E+00  0.00000000000E+00  0.18440321101E+04  0.18440321101E+04  0.25500000000E-02 0.  1.
         -2   -1    0    0    0  501 -0.00000000000E+00 -0.00000000000E+00 -0.29259959123E+03  0.29259959124E+03  0.25500000000E-02 0. -1.
     200001    2    1    2    0    0  0.59782006065E+02  0.39921438678E+03  0.73346560384E+03  0.10376390312E+04  0.61300648632E+03 0.  0.
    5000001    2    3    3    0    0 -0.23265677902E+03  0.33666100251E+03  0.40809800604E+03  0.58431967074E+03  0.86114386942E+02 0.  0.
        -13    1    4    4    0    0 -0.96945913706E+02  0.18509953142E+03  0.24390808855E+03  0.32117209334E+03  0.10566000000E+00 0. -1.
     200003    1    4    4    0    0 -0.13571086532E+03  0.15156147109E+03  0.16418991749E+03  0.26314757740E+03  0.30000000000E+02 0. -1.
     200000    1    3    3    0    0  0.29243878509E+03  0.62553384269E+02  0.32536759780E+03  0.45331936050E+03  0.10100000000E+03 0.  1.
    -200001    1    1    2    0    0 -0.59782006065E+02 -0.39921438678E+03  0.81796691501E+03  0.10989926701E+04  0.61300000000E+03 0.  1.
<mgrwt>
<rscale>  0 0.14690991E+04</rscale>
<asrwt>0</asrwt>
<pdfrwt beam="1">  1        2 0.26343317E+00 0.14690991E+04</pdfrwt>
<pdfrwt beam="2">  1       -2 0.41799940E-01 0.14690991E+04</pdfrwt>
<totfact> 0.50774876E+01</totfact>
</mgrwt>
</event>
<event>
 8    1  0.7583103E-052  0.1317679E+04  0.7818608E-02  0.9015661E-01
          2   -1    0    0  501    0  0.00000000000E+00  0.00000000000E+00  0.17024815380E+04  0.17024815380E+04  0.25500000000E-02 0.  1.
         -2   -1    0    0    0  501 -0.00000000000E+00 -0.00000000000E+00 -0.25496300086E+03  0.25496300087E+03  0.25500000000E-02 0. -1.
     200001    2    1    2    0    0  0.94690756782E+02 -0.21786156743E+03  0.78727037022E+03  0.10257113990E+04  0.61307359778E+03 0.  0.
    5000001    2    3    3    0    0 -0.24009848685E+03 -0.71494741489E+02  0.44109525712E+03  0.51234477145E+03  0.71926055955E+02 0.  0.
        -13    1    4    4    0    0 -0.22102510254E+02  0.38036273843E+01  0.77900183108E+02  0.81064407930E+02  0.10566000000E+00 0. -1.
     200003    1    4    4    0    0 -0.21799597660E+03 -0.75298368873E+02  0.36319507402E+03  0.43128036352E+03  0.30000000000E+02 0. -1.
     200000    1    3    3    0    0  0.33478924363E+03 -0.14636682594E+03  0.34617511309E+03  0.51336662758E+03  0.10100000000E+03 0. -1.
    -200001    1    1    2    0    0 -0.94690756782E+02  0.21786156743E+03  0.66024816695E+03  0.93173313988E+03  0.61300000000E+03 0. -1.
<mgrwt>
<rscale>  0 0.13176795E+04</rscale>
<asrwt>0</asrwt>
<pdfrwt beam="1">  1        2 0.24321166E+00 0.13176795E+04</pdfrwt>
<pdfrwt beam="2">  1       -2 0.36423285E-01 0.13176795E+04</pdfrwt>
<totfact> 0.79450605E+01</totfact>
</mgrwt>
</event>
<event>
 8    1  0.7583103E-052  0.1483935E+04  0.7818608E-02  0.8895207E-01
          2   -1    0    0  501    0  0.00000000000E+00  0.00000000000E+00  0.18129423802E+04  0.18129423802E+04  0.25500000000E-02 0.  1.
         -2   -1    0    0    0  501 -0.00000000000E+00 -0.00000000000E+00 -0.30365874384E+03  0.30365874385E+03  0.25500000000E-02 0. -1.
     200001    2    1    2    0    0  0.31698437055E+03 -0.24527211936E+03  0.58170655531E+03  0.93473575736E+03  0.61213635401E+03 0.  0.
    5000001    2    3    3    0    0  0.14313666184E+03  0.10061401158E+03  0.48826827364E+03  0.52389277777E+03  0.73800083155E+02 0.  0.
        -13    1    4    4    0    0  0.12575025366E+03  0.81146683959E+02  0.40000557322E+03  0.42708591686E+03  0.10566000000E+00 0. -1.
     200003    1    4    4    0    0  0.17386408181E+02  0.19467327619E+02  0.88262700416E+02  0.96806860908E+02  0.30000000000E+02 0.  1.
     200000    1    3    3    0    0  0.17384770871E+03 -0.34588613094E+03  0.93438281673E+02  0.41084297959E+03  0.10100000000E+03 0. -1.
    -200001    1    1    2    0    0 -0.31698437055E+03  0.24527211936E+03  0.92757708106E+03  0.11818653667E+04  0.61300000000E+03 0.  1.
<mgrwt>
<rscale>  0 0.14839350E+04</rscale>
<asrwt>0</asrwt>
<pdfrwt beam="1">  1        2 0.25899177E+00 0.14839350E+04</pdfrwt>
<pdfrwt beam="2">  1       -2 0.43379821E-01 0.14839350E+04</pdfrwt>
<totfact> 0.48903203E+01</totfact>
</mgrwt>
</event>
<event>
 8    1  0.7583103E-052  0.1787769E+04  0.7818608E-02  0.8712831E-01
          2   -1    0    0  501    0  0.00000000000E+00  0.00000000000E+00  0.16356470574E+04  0.16356470574E+04  0.25500000000E-02 0.  1.
         -2   -1    0    0    0  501 -0.00000000000E+00 -0.00000000000E+00 -0.48850975693E+03  0.48850975694E+03  0.25500000000E-02 0. -1.
     200001    2    1    2    0    0 -0.25163125224E+03  0.42089747389E+03  0.65804902527E+02  0.78792265616E+03  0.61320376407E+03 0.  0.
    5000001    2    3    3    0    0 -0.16765611031E+03 -0.55448877708E+01 -0.71198491946E+02  0.32115093211E+03  0.26444163597E+03 0.  0.
        -13    1    4    4    0    0 -0.15046432187E+03  0.73341799561E+02  0.47959675539E+02  0.17412258142E+03  0.10566000000E+00 0. -1.
     200003    1    4    4    0    0 -0.17191788445E+02 -0.78886687332E+02 -0.11915816749E+03  0.14702835069E+03  0.30000000000E+02 0. -1.
     200000    1    3    3    0    0 -0.83975141933E+02  0.42644236166E+03  0.13700339447E+03  0.46677172406E+03  0.10100000000E+03 0.  1.
    -200001    1    1    2    0    0  0.25163125224E+03 -0.42089747389E+03  0.10813323979E+04  0.13362341582E+04  0.61300000000E+03 0.  1.
<mgrwt>
<rscale>  0 0.17877691E+04</rscale>
<asrwt>0</asrwt>
<pdfrwt beam="1">  1        2 0.23366386E+00 0.17877691E+04</pdfrwt>
<pdfrwt beam="2">  1       -2 0.69787110E-01 0.17877691E+04</pdfrwt>
<totfact> 0.21981262E+01</totfact>
</mgrwt>
</event>
<event>
 8    1  0.7583103E-052  0.1576885E+04  0.7818608E-02  0.8834876E-01
         -2   -1    0    0    0  501 -0.00000000000E+00  0.00000000000E+00  0.63511673472E+03  0.63511673472E+03  0.25500000000E-02 0. -1.
          2   -1    0    0  501    0  0.00000000000E+00 -0.00000000000E+00 -0.97878299233E+03  0.97878299234E+03  0.25500000000E-02 0.  1.
     200001    2    1    2    0    0  0.35961752672E+03  0.57569929632E+02  0.17209315557E+03  0.73389073017E+03  0.61346596263E+03 0.  0.
    5000001    2    3    3    0    0  0.41543046130E+03  0.14904983879E+03  0.30073587237E+03  0.53835657450E+03  0.67730449324E+02 0.  0.
        -13    1    4    4    0    0  0.15991511301E+03  0.36127553928E+02  0.89003015056E+02  0.18654648583E+03  0.10566000000E+00 0. -1.
     200003    1    4    4    0    0  0.25551534829E+03  0.11292228486E+03  0.21173285731E+03  0.35181008868E+03  0.30000000000E+02 0. -1.
     200000    1    3    3    0    0 -0.55812934584E+02 -0.91479909154E+02 -0.12864271680E+03  0.19553415566E+03  0.10100000000E+03 0.  1.
    -200001    1    1    2    0    0 -0.35961752672E+03 -0.57569929632E+02 -0.51575941318E+03  0.88000899689E+03  0.61300000000E+03 0.  1.
<mgrwt>
<rscale>  0 0.15768849E+04</rscale>
<asrwt>0</asrwt>
<pdfrwt beam="1">  1        2 0.13982614E+00 0.15768849E+04</pdfrwt>
<pdfrwt beam="2">  1       -2 0.90730962E-01 0.15768849E+04</pdfrwt>
<totfact> 0.28918432E+01</totfact>
</mgrwt>
</event>
<event>
 8    1  0.7583103E-052  0.1536601E+04  0.7818608E-02  0.8860472E-01
          2   -1    0    0  501    0  0.00000000000E+00  0.00000000000E+00  0.12421620612E+04  0.12421620612E+04  0.25500000000E-02 0.  1.
         -2   -1    0    0    0  501 -0.00000000000E+00 -0.00000000000E+00 -0.47520839547E+03  0.47520839547E+03  0.25500000000E-02 0. -1.
     200001    2    1    2    0    0  0.45395983986E+03 -0.10447006277E+03  0.34372244373E+03  0.83879934542E+03  0.60699727621E+03 0.  0.
    5000001    2    3    3    0    0  0.39371903047E+03  0.11294656679E+03  0.40773070327E+03  0.58346230695E+03  0.80077058729E+02 0.  0.
        -13    1    4    4    0    0  0.64935286244E+02  0.17768945274E+02  0.32742577214E+02  0.74862636491E+02  0.10566000000E+00 0. -1.
     200003    1    4    4    0    0  0.32878374422E+03  0.95177621520E+02  0.37498812606E+03  0.50859967046E+03  0.30000000000E+02 0. -1.
     200000    1    3    3    0    0  0.60240809396E+02 -0.21741662956E+03 -0.64008259541E+02  0.25533703847E+03  0.10100000000E+03 0. -1.
    -200001    1    1    2    0    0 -0.45395983986E+03  0.10447006277E+03  0.42323122197E+03  0.87857111122E+03  0.61300000000E+03 0. -1.
<mgrwt>
<rscale>  0 0.15366012E+04</rscale>
<asrwt>0</asrwt>
<pdfrwt beam="1">  1        2 0.17745172E+00 0.15366012E+04</pdfrwt>
<pdfrwt beam="2">  1       -2 0.67886915E-01 0.15366012E+04</pdfrwt>
<totfact> 0.38803891E+01</totfact>
</mgrwt>
</event>
<event>
 8    1  0.7583103E-052  0.1260045E+04  0.7818608E-02  0.9061864E-01
         -2   -1    0    0    0  501 -0.00000000000E+00  0.00000000000E+00  0.62162819869E+03  0.62162819870E+03  0.25500000000E-02 0. -1.
          2   -1    0    0  501    0  0.00000000000E+00 -0.00000000000E+00 -0.63853063916E+03  0.63853063917E+03  0.25500000000E-02 0.  1.
     200001    2    1    2    0    0 -0.60516160428E+01  0.13256596037E+03 -0.69994252807E+02  0.63071615068E+03  0.61261187664E+03 0.  0.
    5000001    2    3    3    0    0 -0.11621267250E+03  0.10088269265E+03  0.23412681755E+03  0.29037821091E+03  0.76298333896E+02 0.  0.
        -13    1    4    4    0    0 -0.34271855538E+02  0.42367353789E+02  0.13642943819E+03  0.14691002525E+03  0.10566000000E+00 0. -1.
     200003    1    4    4    0    0 -0.81940816960E+02  0.58515338858E+02  0.97697379351E+02  0.14346818566E+03  0.30000000000E+02 0. -1.
     200000    1    3    3    0    0  0.11016105646E+03  0.31683267723E+02 -0.30412107035E+03  0.34033793977E+03  0.10100000000E+03 0.  1.
    -200001    1    1    2    0    0  0.60516160428E+01 -0.13256596037E+03  0.53091812338E+02  0.62944268718E+03  0.61300000000E+03 0. -1.
<mgrwt>
<rscale>  0 0.12600455E+04</rscale>
<asrwt>0</asrwt>
<pdfrwt beam="1">  1        2 0.91218662E-01 0.12600455E+04</pdfrwt>
<pdfrwt beam="2">  1       -2 0.88804029E-01 0.12600455E+04</pdfrwt>
<totfact> 0.54030726E+01</totfact>
</mgrwt>
</event>
<event>
 8    1  0.7583103E-052  0.1507265E+04  0.7818608E-02  0.8879636E-01
         -2   -1    0    0    0  501 -0.00000000000E+00  0.00000000000E+00  0.50168023658E+03  0.50168023659E+03  0.25500000000E-02 0. -1.
          2   -1    0    0  501    0  0.00000000000E+00 -0.00000000000E+00 -0.11321195887E+04  0.11321195887E+04  0.25500000000E-02 0.  1.
     200001    2    1    2    0    0 -0.32898205588E+03  0.96514777260E+01 -0.11698531455E+01  0.69567859302E+03  0.61289884330E+03 0.  0.
    5000001    2    3    3    0    0 -0.80583436699E+02 -0.81102320427E+02 -0.27000053939E+03  0.30528255852E+03  0.85005132898E+02 0.  0.
        -13    1    4    4    0    0 -0.38978051166E+02  0.79634691259E+00 -0.12574924701E+03  0.13165411855E+03  0.10566000000E+00 0. -1.
     200003    1    4    4    0    0 -0.41605385533E+02 -0.81898667339E+02 -0.14425129237E+03  0.17362843998E+03  0.30000000000E+02 0. -1.
     200000    1    3    3    0    0 -0.24839861918E+03  0.90753798153E+02  0.26883068624E+03  0.39039603450E+03  0.10100000000E+03 0. -1.
    -200001    1    1    2    0    0  0.32898205588E+03 -0.96514777260E+01 -0.62926949900E+03  0.93812123229E+03  0.61300000000E+03 0.  1.
<mgrwt>
<rscale>  0 0.15072651E+04</rscale>
<asrwt>0</asrwt>
<pdfrwt beam="1">  1        2 0.16173137E+00 0.15072651E+04</pdfrwt>
<pdfrwt beam="2">  1       -2 0.71668606E-01 0.15072651E+04</pdfrwt>
<totfact> 0.39953085E+01</totfact>
</mgrwt>
</event>
<event>
 8    1  0.7583103E-052  0.1228621E+04  0.7818608E-02  0.9088167E-01
         -2   -1    0    0    0  501 -0.00000000000E+00  0.00000000000E+00  0.49469925890E+03  0.49469925890E+03  0.25500000000E-02 0. -1.
          2   -1    0    0  501    0  0.00000000000E+00 -0.00000000000E+00 -0.76284228824E+03  0.76284228824E+03  0.25500000000E-02 0.  1.
     200001    2    1    2    0    0  0.19149203295E+02 -0.29137008761E+02 -0.11174127956E+03  0.62394375311E+03  0.61286543076E+03 0.  0.
    5000001    2    3    3    0    0 -0.18306537811E+03 -0.21314389082E+03 -0.14499398039E+03  0.33059070354E+03  0.96559349938E+02 0.  0.
        -13    1    4    4    0    0 -0.98203651979E+02 -0.64975586543E+02 -0.26786667571E+02  0.12076142113E+03  0.10566000000E+00 0. -1.
     200003    1    4    4    0    0 -0.84861726134E+02 -0.14816830428E+03 -0.11820731282E+03  0.20982928242E+03  0.30000000000E+02 0. -1.
     200000    1    3    3    0    0  0.20221458141E+03  0.18400688206E+03  0.33252700831E+02  0.29335304957E+03  0.10100000000E+03 0. -1.
    -200001    1    1    2    0    0 -0.19149203295E+02  0.29137008761E+02 -0.15640174978E+03  0.63359779403E+03  0.61300000000E+03 0.  1.
<mgrwt>
<rscale>  0 0.12286212E+04</rscale>
<asrwt>0</asrwt>
<pdfrwt beam="1">  1        2 0.10897747E+00 0.12286212E+04</pdfrwt>
<pdfrwt beam="2">  1       -2 0.70671323E-01 0.12286212E+04</pdfrwt>
<totfact> 0.72534209E+01</totfact>
</mgrwt>
</event>
<event>
 8    1  0.7583103E-052  0.1337421E+04  0.7818608E-02  0.9000405E-01
          2   -1    0    0  501    0  0.00000000000E+00  0.00000000000E+00  0.11173529845E+04  0.11173529845E+04  0.25500000000E-02 0.  1.
         -2   -1    0    0    0  501 -0.00000000000E+00 -0.00000000000E+00 -0.40020828550E+03  0.40020828550E+03  0.25500000000E-02 0. -1.
     200001    2    1    2    0    0  0.46574593765E+02 -0.13951332607E+03  0.61082296715E+03  0.87825972016E+03  0.61367929566E+03 0.  0.
    5000001    2    3    3    0    0  0.23292981305E+03 -0.40524705047E+02  0.25840935938E+02  0.24823433044E+03  0.71091344875E+02 0.  0.
        -13    1    4    4    0    0  0.10090681678E+03 -0.46881744067E+02  0.84669189370E+01  0.11158755970E+03  0.10566000000E+00 0. -1.
     200003    1    4    4    0    0  0.13202299626E+03  0.63570390201E+01  0.17374017001E+02  0.13664677074E+03  0.30000000000E+02 0. -1.
     200000    1    3    3    0    0 -0.18635521928E+03 -0.98988621025E+02  0.58498203121E+03  0.63002538972E+03  0.10100000000E+03 0.  1.
    -200001    1    1    2    0    0 -0.46574593765E+02  0.13951332607E+03  0.10632173182E+03  0.63930154981E+03  0.61300000000E+03 0. -1.
<mgrwt>
<rscale>  0 0.13374213E+04</rscale>
<asrwt>0</asrwt>
<pdfrwt beam="1">  1        2 0.15962186E+00 0.13374213E+04</pdfrwt>
<pdfrwt beam="2">  1       -2 0.57172611E-01 0.13374213E+04</pdfrwt>
<totfact> 0.66948314E+01</totfact>
</mgrwt>
</event>
<event>
 8    1  0.7583103E-052  0.1611859E+04  0.7818608E-02  0.8813295E-01
          2   -1    0    0  501    0  0.00000000000E+00  0.00000000000E+00  0.86610113762E+03  0.86610113763E+03  0.25500000000E-02 0.  1.
         -2   -1    0    0    0  501 -0.00000000000E+00 -0.00000000000E+00 -0.74993834262E+03  0.74993834262E+03  0.25500000000E-02 0. -1.
     200001    2    1    2    0    0 -0.34910205891E+03 -0.12567287900E+03  0.42553728436E+03  0.83556046406E+03  0.61596541192E+03 0.  0.
    5000001    2    3    3    0    0 -0.85187981783E+01 -0.93683077770E+02 -0.12536397258E+03  0.17927279865E+03  0.87025983090E+02 0.  0.
        -13    1    4    4    0    0  0.27182312839E+02 -0.47807560661E+02 -0.88472412800E+02  0.10417206909E+03  0.10566000000E+00 0. -1.
     200003    1    4    4    0    0 -0.35701111018E+02 -0.45875517109E+02 -0.36891559781E+02  0.75100729564E+02  0.30000000000E+02 0. -1.
     200000    1    3    3    0    0 -0.34058326073E+03 -0.31989801233E+02  0.55090125694E+03  0.65628766541E+03  0.10100000000E+03 0.  1.
    -200001    1    1    2    0    0  0.34910205891E+03  0.12567287900E+03 -0.30937448935E+03  0.78047901619E+03  0.61300000000E+03 0. -1.
<mgrwt>
<rscale>  0 0.16118591E+04</rscale>
<asrwt>0</asrwt>
<pdfrwt beam="1">  1        2 0.12372873E+00 0.16118591E+04</pdfrwt>
<pdfrwt beam="2">  1       -2 0.10713405E+00 0.16118591E+04</pdfrwt>
<totfact> 0.23034010E+01</totfact>
</mgrwt>
</event>
<event>
 8    1  0.7583103E-052  0.1625271E+04  0.7818608E-02  0.8805172E-01
          2   -1    0    0  501    0  0.00000000000E+00  0.00000000000E+00  0.11430581326E+04  0.11430581326E+04  0.25500000000E-02 0.  1.
         -2   -1    0    0    0  501 -0.00000000000E+00 -0.00000000000E+00 -0.57772798461E+03  0.57772798462E+03  0.25500000000E-02 0. -1.
     200001    2    1    2    0    0  0.14645889708E+03 -0.39228151348E+03 -0.67534554579E+02  0.74527510953E+03  0.61281243336E+03 0.  0.
    5000001    2    3    3    0    0  0.19095154774E+03 -0.49316494470E+03  0.72978384987E+02  0.54008751526E+03  0.81820066023E+02 0.  0.
        -13    1    4    4    0    0  0.14749010695E+03 -0.40978879529E+03  0.47134679059E+02  0.43806606526E+03  0.10566000000E+00 0. -1.
     200003    1    4    4    0    0  0.43461440786E+02 -0.83376149404E+02  0.25843705928E+02  0.10202145000E+03  0.30000000000E+02 0.  1.
     200000    1    3    3    0    0 -0.44492650658E+02  0.10088343122E+03 -0.14051293957E+03  0.20518759427E+03  0.10100000000E+03 0.  1.
    -200001    1    1    2    0    0 -0.14645889708E+03  0.39228151348E+03  0.63286470255E+03  0.97551100767E+03  0.61300000000E+03 0.  1.
<mgrwt>
<rscale>  0 0.16252713E+04</rscale>
<asrwt>0</asrwt>
<pdfrwt beam="1">  1        2 0.16329402E+00 0.16252713E+04</pdfrwt>
<pdfrwt beam="2">  1       -2 0.82532569E-01 0.16252713E+04</pdfrwt>
<totfact> 0.28492749E+01</totfact>
</mgrwt>
</event>
<event>
 8    1  0.7583103E-052  0.1466962E+04  0.7818608E-02  0.8906725E-01
          2   -1    0    0  501    0  0.00000000000E+00  0.00000000000E+00  0.12920228136E+04  0.12920228136E+04  0.25500000000E-02 0.  1.
         -2   -1    0    0    0  501 -0.00000000000E+00 -0.00000000000E+00 -0.41639701330E+03  0.41639701331E+03  0.25500000000E-02 0. -1.
     200001    2    1    2    0    0 -0.22769521167E+03 -0.24264078200E+03  0.17400096252E+03  0.71909375757E+03  0.61326979276E+03 0.  0.
    5000001    2    3    3    0    0  0.50951744069E+02 -0.24669499029E+03  0.30049198666E+03  0.39681818957E+03  0.60948692067E+02 0.  0.
        -13    1    4    4    0    0  0.24472977733E+02 -0.17302914478E+03  0.19033517541E+03  0.25839021217E+03  0.10566000000E+00 0. -1.
     200003    1    4    4    0    0  0.26478766336E+02 -0.73665845518E+02  0.11015681125E+03  0.13842797740E+03  0.30000000000E+02 0.  1.
     200000    1    3    3    0    0 -0.27864695574E+03  0.40542082989E+01 -0.12649102414E+03  0.32227556801E+03  0.10100000000E+03 0. -1.
    -200001    1    1    2    0    0  0.22769521167E+03  0.24264078200E+03  0.70162483781E+03  0.98932606937E+03  0.61300000000E+03 0.  1.
<mgrwt>
<rscale>  0 0.14669621E+04</rscale>
<asrwt>0</asrwt>
<pdfrwt beam="1">  1        2 0.18457469E+00 0.14669621E+04</pdfrwt>
<pdfrwt beam="2">  1       -2 0.59485288E-01 0.14669621E+04</pdfrwt>
<totfact> 0.48520286E+01</totfact>
</mgrwt>
</event>
<event>
 8    1  0.7583103E-052  0.1710106E+04  0.7818608E-02  0.8755621E-01
          2   -1    0    0  501    0  0.00000000000E+00  0.00000000000E+00  0.13487314906E+04  0.13487314906E+04  0.25500000000E-02 0.  1.
         -2   -1    0    0    0  501 -0.00000000000E+00 -0.00000000000E+00 -0.54207666834E+03  0.54207666834E+03  0.25500000000E-02 0. -1.
     200001    2    1    2    0    0 -0.43187277638E+03 -0.40886571863E+03  0.36114375834E+03  0.92751465284E+03  0.61332972062E+03 0.  0.
    5000001    2    3    3    0    0 -0.11670339102E+01 -0.97307709517E+02  0.33425326083E+03  0.38575831601E+03  0.16617485880E+03 0.  0.
        -13    1    4    4    0    0 -0.66833771204E+02 -0.72117572582E+02  0.26478156869E+03  0.28244820327E+03  0.10566000000E+00 0. -1.
     200003    1    4    4    0    0  0.65666737294E+02 -0.25190136935E+02  0.69471692134E+02  0.10331011274E+03  0.30000000000E+02 0. -1.
     200000    1    3    3    0    0 -0.43070574247E+03 -0.31155800911E+03  0.26890497515E+02  0.54175633683E+03  0.10100000000E+03 0. -1.
    -200001    1    1    2    0    0  0.43187277638E+03  0.40886571863E+03  0.44551106395E+03  0.96329350613E+03  0.61300000000E+03 0. -1.
<mgrwt>
<rscale>  0 0.17101063E+04</rscale>
<asrwt>0</asrwt>
<pdfrwt beam="1">  1        2 0.19267593E+00 0.17101063E+04</pdfrwt>
<pdfrwt beam="2">  1       -2 0.77439524E-01 0.17101063E+04</pdfrwt>
<totfact> 0.25016034E+01</totfact>
</mgrwt>
</event>
<event>
 8    1  0.7583103E-052  0.1508934E+04  0.7818608E-02  0.8878533E-01
          2   -1    0    0  501    0  0.00000000000E+00  0.00000000000E+00  0.33220806751E+04  0.33220806751E+04  0.25500000000E-02 0.  1.
         -2   -1    0    0    0  501 -0.00000000000E+00 -0.00000000000E+00 -0.17134460737E+03  0.17134460739E+03  0.25500000000E-02 0. -1.
     200001    2    1    2    0    0 -0.93889921309E+01 -0.20057347171E+03  0.64855951675E+03  0.90944107917E+03  0.60509152942E+03 0.  0.
    5000001    2    3    3    0    0  0.24478315923E+03 -0.80422370491E+02  0.51442436953E+03  0.58197656602E+03  0.87622706583E+02 0.  0.
        -13    1    4    4    0    0 -0.27275670841E+00 -0.76942903015E+01  0.53598080549E+02  0.54148332403E+02  0.10566000000E+00 0. -1.
     200003    1    4    4    0    0  0.24505591594E+03 -0.72728080190E+02  0.46082628899E+03  0.52782823362E+03  0.30000000000E+02 0. -1.
     200000    1    3    3    0    0 -0.25417215136E+03 -0.12015110122E+03  0.13413514722E+03  0.32746451315E+03  0.10100000000E+03 0. -1.
    -200001    1    1    2    0    0  0.93889921309E+01  0.20057347171E+03  0.25021765510E+04  0.25839842033E+04  0.61300000000E+03 0.  1.
<mgrwt>
<rscale>  0 0.15089342E+04</rscale>
<asrwt>0</asrwt>
<pdfrwt beam="1">  1        2 0.47458295E+00 0.15089342E+04</pdfrwt>
<pdfrwt beam="2">  1       -2 0.24477801E-01 0.15089342E+04</pdfrwt>
<totfact> 0.22357452E+01</totfact>
</mgrwt>
</event>
<event>
 8    1  0.7583103E-052  0.1717797E+04  0.7818608E-02  0.8751279E-01
          2   -1    0    0  501    0  0.00000000000E+00  0.00000000000E+00  0.87960731965E+03  0.87960731965E+03  0.25500000000E-02 0.  1.
         -2   -1    0    0    0  501 -0.00000000000E+00 -0.00000000000E+00 -0.83867715710E+03  0.83867715710E+03  0.25500000000E-02 0. -1.
     200001    2    1    2    0    0  0.41848085640E+03 -0.41904781535E+03  0.12213479365E+03  0.86207743939E+03  0.61443738896E+03 0.  0.
    5000001    2    3    3    0    0  0.50345710697E+03 -0.42219335731E+03 -0.25990031863E+02  0.66365158036E+03  0.89675240972E+02 0.  0.
        -13    1    4    4    0    0  0.34538392769E+03 -0.31559695079E+03  0.66663892150E+01  0.46790591444E+03  0.10566000000E+00 0. -1.
     200003    1    4    4    0    0  0.15807317928E+03 -0.10659640652E+03 -0.32656421078E+02  0.19574566592E+03  0.30000000000E+02 0. -1.
     200000    1    3    3    0    0 -0.84976250573E+02  0.31455419618E+01  0.14812482551E+03  0.19842585902E+03  0.10100000000E+03 0. -1.
    -200001    1    1    2    0    0 -0.41848085640E+03  0.41904781535E+03 -0.81204631102E+02  0.85620703736E+03  0.61300000000E+03 0. -1.
<mgrwt>
<rscale>  0 0.17177969E+04</rscale>
<asrwt>0</asrwt>
<pdfrwt beam="1">  1        2 0.12565819E+00 0.17177969E+04</pdfrwt>
<pdfrwt beam="2">  1       -2 0.11981102E+00 0.17177969E+04</pdfrwt>
<totfact> 0.17037917E+01</totfact>
</mgrwt>
</event>
<event>
 8    1  0.7583103E-052  0.1668082E+04  0.7818608E-02  0.8779781E-01
          2   -1    0    0  501    0  0.00000000000E+00  0.00000000000E+00  0.66934328672E+03  0.66934328672E+03  0.25500000000E-02 0.  1.
         -2   -1    0    0    0  501 -0.00000000000E+00 -0.00000000000E+00 -0.10392637519E+04  0.10392637519E+04  0.25500000000E-02 0. -1.
     200001    2    1    2    0    0 -0.13123413133E+03 -0.34463193243E+03 -0.62400317268E+03  0.94944922349E+03  0.61325386455E+03 0.  0.
    5000001    2    3    3    0    0 -0.85982118645E+02  0.84660461490E+02 -0.45483840533E+03  0.47494166543E+03  0.64275128470E+02 0.  0.
        -13    1    4    4    0    0 -0.25139770134E+02  0.59065860512E+02 -0.20958969900E+03  0.21919999318E+03  0.10566000000E+00 0. -1.
     200003    1    4    4    0    0 -0.60842348511E+02  0.25594600978E+02 -0.24524870633E+03  0.25574167225E+03  0.30000000000E+02 0. -1.
     200000    1    3    3    0    0 -0.45252012686E+02 -0.42929239392E+03 -0.16916476735E+03  0.47450755805E+03  0.10100000000E+03 0.  1.
    -200001    1    1    2    0    0  0.13123413133E+03  0.34463193243E+03  0.25408270747E+03  0.75915781516E+03  0.61300000000E+03 0.  1.
<mgrwt>
<rscale>  0 0.16680818E+04</rscale>
<asrwt>0</asrwt>
<pdfrwt beam="1">  1        2 0.95620470E-01 0.16680818E+04</pdfrwt>
<pdfrwt beam="2">  1       -2 0.14846625E+00 0.16680818E+04</pdfrwt>
<totfact> 0.13996987E+01</totfact>
</mgrwt>
</event>
<event>
 8    1  0.7583103E-052  0.1760826E+04  0.7818608E-02  0.8727414E-01
         -2   -1    0    0    0  501 -0.00000000000E+00  0.00000000000E+00  0.81220271652E+03  0.81220271652E+03  0.25500000000E-02 0. -1.
          2   -1    0    0  501    0  0.00000000000E+00 -0.00000000000E+00 -0.95435194861E+03  0.95435194862E+03  0.25500000000E-02 0.  1.
     200001    2    1    2    0    0 -0.77365775843E+02 -0.60793102415E+03 -0.22959616779E+03  0.89535918767E+03  0.61105489221E+03 0.  0.
    5000001    2    3    3    0    0 -0.30144005976E+03 -0.29230590525E+03 -0.25349074968E+03  0.49460932625E+03  0.63812017387E+02 0.  0.
        -13    1    4    4    0    0 -0.11387557421E+03 -0.89792710350E+02 -0.64356964626E+02  0.15865751571E+03  0.10566000000E+00 0. -1.
     200003    1    4    4    0    0 -0.18756448555E+03 -0.20251319490E+03 -0.18913378506E+03  0.33595181053E+03  0.30000000000E+02 0. -1.
     200000    1    3    3    0    0  0.22407428392E+03 -0.31562511889E+03  0.23894581889E+02  0.40074986143E+03  0.10100000000E+03 0.  1.
    -200001    1    1    2    0    0  0.77365775843E+02  0.60793102415E+03  0.87446935699E+02  0.87119547747E+03  0.61300000000E+03 0. -1.
<mgrwt>
<rscale>  0 0.17608262E+04</rscale>
<asrwt>0</asrwt>
<pdfrwt beam="1">  1        2 0.13633599E+00 0.17608262E+04</pdfrwt>
<pdfrwt beam="2">  1       -2 0.11602896E+00 0.17608262E+04</pdfrwt>
<totfact> 0.16439967E+01</totfact>
</mgrwt>
</event>
<event>
 8    1  0.7583103E-052  0.1472866E+04  0.7818608E-02  0.8902700E-01
          2   -1    0    0  501    0  0.00000000000E+00  0.00000000000E+00  0.48839302242E+03  0.48839302242E+03  0.25500000000E-02 0.  1.
         -2   -1    0    0    0  501 -0.00000000000E+00 -0.00000000000E+00 -0.11104456574E+04  0.11104456574E+04  0.25500000000E-02 0. -1.
     200001    2    1    2    0    0 -0.66914888542E+02  0.40358373949E+03 -0.26889739888E+03  0.78162080321E+03  0.60931751313E+03 0.  0.
    5000001    2    3    3    0    0 -0.15857938147E+03  0.18321766851E+03 -0.41125179681E+03  0.48593624306E+03  0.91048655435E+02 0.  0.
        -13    1    4    4    0    0 -0.14847893322E+03  0.14794445483E+03 -0.35619755914E+03  0.41329198834E+03  0.10566000000E+00 0. -1.
     200003    1    4    4    0    0 -0.10100448254E+02  0.35273213685E+02 -0.55054237673E+02  0.72644254724E+02  0.30000000000E+02 0.  1.
     200000    1    3    3    0    0  0.91664492928E+02  0.22036607098E+03  0.14235439793E+03  0.29568456015E+03  0.10100000000E+03 0. -1.
    -200001    1    1    2    0    0  0.66914888542E+02 -0.40358373949E+03 -0.35315523613E+03  0.81721787664E+03  0.61300000000E+03 0. -1.
<mgrwt>
<rscale>  0 0.14728665E+04</rscale>
<asrwt>0</asrwt>
<pdfrwt beam="1">  1        2 0.69770432E-01 0.14728665E+04</pdfrwt>
<pdfrwt beam="2">  1       -2 0.15863509E+00 0.14728665E+04</pdfrwt>
<totfact> 0.17235399E+01</totfact>
</mgrwt>
</event>
<event>
 8    1  0.7583103E-052  0.1259856E+04  0.7818608E-02  0.9062020E-01
          2   -1    0    0  501    0  0.00000000000E+00  0.00000000000E+00  0.57001702041E+03  0.57001702042E+03  0.25500000000E-02 0.  1.
         -2   -1    0    0    0  501 -0.00000000000E+00 -0.00000000000E+00 -0.69613575254E+03  0.69613575254E+03  0.25500000000E-02 0. -1.
     200001    2    1    2    0    0  0.18193412378E+02  0.13958435886E+03 -0.83703281480E+02  0.63576966409E+03  0.61431427865E+03 0.  0.
    5000001    2    3    3    0    0 -0.15745000094E+03  0.21697366567E+03 -0.13231628955E+03  0.41349969760E+03  0.28566820797E+03 0.  0.
        -13    1    4    4    0    0 -0.65257720167E+02  0.17581243642E+03 -0.21080272988E+03  0.28214603475E+03  0.10566000000E+00 0. -1.
     200003    1    4    4    0    0 -0.92192280775E+02  0.41161229250E+02  0.78486440329E+02  0.13135366285E+03  0.30000000000E+02 0. -1.
     200000    1    3    3    0    0  0.17564341332E+03 -0.77389306805E+02  0.48613008066E+02  0.22226996649E+03  0.10100000000E+03 0.  1.
    -200001    1    1    2    0    0 -0.18193412378E+02 -0.13958435886E+03 -0.42415450648E+02  0.63038310887E+03  0.61300000000E+03 0.  1.
<mgrwt>
<rscale>  0 0.12598559E+04</rscale>
<asrwt>0</asrwt>
<pdfrwt beam="1">  1        2 0.81431004E-01 0.12598559E+04</pdfrwt>
<pdfrwt beam="2">  1       -2 0.99447964E-01 0.12598559E+04</pdfrwt>
<totfact> 0.47491935E+01</totfact>
</mgrwt>
</event>
<event>
 8    1  0.7583103E-052  0.1453700E+04  0.7818608E-02  0.8915839E-01
         -2   -1    0    0    0  501 -0.00000000000E+00  0.00000000000E+00  0.93449540858E+03  0.93449540858E+03  0.25500000000E-02 0. -1.
          2   -1    0    0  501    0  0.00000000000E+00 -0.00000000000E+00 -0.56534348988E+03  0.56534348988E+03  0.25500000000E-02 0.  1.
     200001    2    1    2    0    0  0.12435754184E+01 -0.16126327170E+03  0.54843593094E+03  0.84111350323E+03  0.61699478580E+03 0.  0.
    5000001    2    3    3    0    0 -0.19310435629E+03 -0.46050784226E+02  0.55395565249E+03  0.59357259115E+03  0.77791959014E+02 0.  0.
        -13    1    4    4    0    0 -0.10241572259E+03 -0.39643568808E+02  0.21595319507E+03  0.24227337123E+03  0.10566000000E+00 0. -1.
     200003    1    4    4    0    0 -0.90688633699E+02 -0.64072154177E+01  0.33800245742E+03  0.35129921992E+03  0.30000000000E+02 0. -1.
     200000    1    3    3    0    0  0.19434793171E+03 -0.11521248747E+03 -0.55197215584E+01  0.24754091209E+03  0.10100000000E+03 0. -1.
    -200001    1    1    2    0    0 -0.12435754184E+01  0.16126327170E+03 -0.17928401223E+03  0.65872539523E+03  0.61300000000E+03 0.  1.
<mgrwt>
<rscale>  0 0.14537000E+04</rscale>
<asrwt>0</asrwt>
<pdfrwt beam="1">  1        2 0.80763356E-01 0.14537000E+04</pdfrwt>
<pdfrwt beam="2">  1       -2 0.13349934E+00 0.14537000E+04</pdfrwt>
<totfact> 0.22943852E+01</totfact>
</mgrwt>
</event>
<event>
 8    1  0.7583103E-052  0.1231892E+04  0.7818608E-02  0.9085390E-01
         -2   -1    0    0    0  501 -0.00000000000E+00  0.00000000000E+00  0.43402918711E+03  0.43402918712E+03  0.25500000000E-02 0. -1.
          2   -1    0    0  501    0  0.00000000000E+00 -0.00000000000E+00 -0.87411121052E+03  0.87411121052E+03  0.25500000000E-02 0.  1.
     200001    2    1    2    0    0  0.49360809085E+02 -0.14353109323E+02 -0.26754075030E+03  0.66924917674E+03  0.61128872579E+03 0.  0.
    5000001    2    3    3    0    0 -0.31538213361E+02  0.24477846250E+03  0.16534734959E+02  0.26354767973E+03  0.90955084664E+02 0.  0.
        -13    1    4    4    0    0  0.25866523518E+02  0.76526300302E+02  0.20025783794E+02  0.83224965349E+02  0.10566000000E+00 0. -1.
     200003    1    4    4    0    0 -0.57404736879E+02  0.16825216220E+03 -0.34910488353E+01  0.18032271438E+03  0.30000000000E+02 0. -1.
     200000    1    3    3    0    0  0.80899022446E+02 -0.25913157182E+03 -0.28407548526E+03  0.40570149701E+03  0.10100000000E+03 0. -1.
    -200001    1    1    2    0    0 -0.49360809085E+02  0.14353109323E+02 -0.17254127310E+03  0.63889122090E+03  0.61300000000E+03 0. -1.
<mgrwt>
<rscale>  0 0.12318925E+04</rscale>
<asrwt>0</asrwt>
<pdfrwt beam="1">  1        2 0.12487303E+00 0.12318925E+04</pdfrwt>
<pdfrwt beam="2">  1       -2 0.62004170E-01 0.12318925E+04</pdfrwt>
<totfact> 0.80518424E+01</totfact>
</mgrwt>
</event>
<event>
 8    1  0.7583103E-052  0.1504191E+04  0.7818608E-02  0.8881671E-01
         -2   -1    0    0    0  501 -0.00000000000E+00  0.00000000000E+00  0.26707718988E+03  0.26707718989E+03  0.25500000000E-02 0. -1.
          2   -1    0    0  501    0  0.00000000000E+00 -0.00000000000E+00 -0.21179191524E+04  0.21179191524E+04  0.25500000000E-02 0.  1.
     200001    2    1    2    0    0  0.18254550562E+03 -0.53434769933E+02 -0.30089662590E+03  0.70741544028E+03  0.61132617269E+03 0.  0.
    5000001    2    3    3    0    0  0.35785937678E+03 -0.64625439081E+02 -0.24158550955E+03  0.49627806078E+03  0.23598426699E+03 0.  0.
        -13    1    4    4    0    0  0.36623577982E+03 -0.97242329260E+02 -0.17884847184E+03  0.41901253449E+03  0.10566000000E+00 0. -1.
     200003    1    4    4    0    0 -0.83764030340E+01  0.32616890179E+02 -0.62737037712E+02  0.77265526295E+02  0.30000000000E+02 0. -1.
     200000    1    3    3    0    0 -0.17531387116E+03  0.11190669149E+02 -0.59311116348E+02  0.21113737950E+03  0.10100000000E+03 0. -1.
    -200001    1    1    2    0    0 -0.18254550562E+03  0.53434769933E+02 -0.15499453367E+04  0.16775809020E+04  0.61300000000E+03 0.  1.
<mgrwt>
<rscale>  0 0.15041913E+04</rscale>
<asrwt>0</asrwt>
<pdfrwt beam="1">  1        2 0.30255987E+00 0.15041913E+04</pdfrwt>
<pdfrwt beam="2">  1       -2 0.38153886E-01 0.15041913E+04</pdfrwt>
<totfact> 0.43760985E+01</totfact>
</mgrwt>
</event>
<event>
 8    1  0.7583103E-052  0.1525859E+04  0.7818608E-02  0.8867437E-01
          2   -1    0    0  501    0  0.00000000000E+00  0.00000000000E+00  0.31329878346E+04  0.31329878346E+04  0.25500000000E-02 0.  1.
         -2   -1    0    0    0  501 -0.00000000000E+00 -0.00000000000E+00 -0.18578477749E+03  0.18578477751E+03  0.25500000000E-02 0. -1.
     200001    2    1    2    0    0 -0.44600044728E+03  0.65152485405E+02  0.13819104895E+04  0.15783499429E+04  0.61510218331E+03 0.  0.
    5000001    2    3    3    0    0 -0.22927496594E+03  0.11461655348E+03  0.12100274379E+03  0.29401899976E+03  0.78112379794E+02 0.  0.
        -13    1    4    4    0    0 -0.15452712092E+01 -0.50118200129E+01  0.11878902303E+02  0.12985595363E+02  0.10566000000E+00 0. -1.
     200003    1    4    4    0    0 -0.22772969473E+03  0.11962837350E+03  0.10912384148E+03  0.28103340440E+03  0.30000000000E+02 0. -1.
     200000    1    3    3    0    0 -0.21672548134E+03 -0.49464068079E+02  0.12609077457E+04  0.12843309431E+04  0.10100000000E+03 0.  1.
    -200001    1    1    2    0    0  0.44600044728E+03 -0.65152485405E+02  0.15652925676E+04  0.17404226693E+04  0.61300000000E+03 0. -1.
<mgrwt>
<rscale>  0 0.15258590E+04</rscale>
<asrwt>0</asrwt>
<pdfrwt beam="1">  1        2 0.44756971E+00 0.15258590E+04</pdfrwt>
<pdfrwt beam="2">  1       -2 0.26540682E-01 0.15258590E+04</pdfrwt>
<totfact> 0.24776858E+01</totfact>
</mgrwt>
</event>
<event>
 8    1  0.7583103E-052  0.1568622E+04  0.7818608E-02  0.8840060E-01
         -2   -1    0    0    0  501 -0.00000000000E+00  0.00000000000E+00  0.18350822645E+04  0.18350822645E+04  0.25500000000E-02 0. -1.
          2   -1    0    0  501    0  0.00000000000E+00 -0.00000000000E+00 -0.33521322128E+03  0.33521322129E+03  0.25500000000E-02 0.  1.
     200001    2    1    2    0    0 -0.22512459783E+03 -0.11012070136E+03  0.16865947746E+03  0.68345468686E+03  0.61307147726E+03 0.  0.
    5000001    2    3    3    0    0 -0.19220721828E+03  0.18421376621E+03 -0.73897397982E+02  0.28753655075E+03  0.79612286538E+02 0.  0.
        -13    1    4    4    0    0 -0.17214759791E+02  0.30099628599E+02  0.12793245609E+02  0.36959625184E+02  0.10566000000E+00 0. -1.
     200003    1    4    4    0    0 -0.17499245849E+03  0.15411413761E+03 -0.86690643591E+02  0.25057692556E+03  0.30000000000E+02 0. -1.
     200000    1    3    3    0    0 -0.32917379546E+02 -0.29433446757E+03  0.24255687545E+03  0.39591813611E+03  0.10100000000E+03 0.  1.
    -200001    1    1    2    0    0  0.22512459783E+03  0.11012070136E+03  0.13312095658E+04  0.14868407990E+04  0.61300000000E+03 0. -1.
<mgrwt>
<rscale>  0 0.15686221E+04</rscale>
<asrwt>0</asrwt>
<pdfrwt beam="1">  1        2 0.47887603E-01 0.15686221E+04</pdfrwt>
<pdfrwt beam="2">  1       -2 0.26215461E+00 0.15686221E+04</pdfrwt>
<totfact> 0.54998891E+00</totfact>
</mgrwt>
</event>
<event>
 8    1  0.7583103E-052  0.1283311E+04  0.7818608E-02  0.9042905E-01
          2   -1    0    0  501    0  0.00000000000E+00  0.00000000000E+00  0.17555293818E+04  0.17555293818E+04  0.25500000000E-02 0.  1.
         -2   -1    0    0    0  501 -0.00000000000E+00 -0.00000000000E+00 -0.23452856797E+03  0.23452856798E+03  0.25500000000E-02 0. -1.
     200001    2    1    2    0    0  0.42975041515E+01 -0.44078327812E+02  0.47242226690E+03  0.77463730795E+03  0.61230612693E+03 0.  0.
    5000001    2    3    3    0    0  0.90305249646E+02 -0.73806515562E+02  0.58274466656E+03  0.59955695697E+03  0.79213372531E+02 0.  0.
        -13    1    4    4    0    0  0.45233870490E+02 -0.18793416354E+02  0.10813656343E+03  0.11871319662E+03  0.10566000000E+00 0. -1.
     200003    1    4    4    0    0  0.45071379156E+02 -0.55013099207E+02  0.47460810314E+03  0.48084376035E+03  0.30000000000E+02 0.  1.
     200000    1    3    3    0    0 -0.86007745494E+02  0.29728187750E+02 -0.11032239966E+03  0.17508035098E+03  0.10100000000E+03 0. -1.
    -200001    1    1    2    0    0 -0.42975041515E+01  0.44078327812E+02  0.10485785470E+04  0.12154206419E+04  0.61300000000E+03 0.  1.
<mgrwt>
<rscale>  0 0.12833110E+04</rscale>
<asrwt>0</asrwt>
<pdfrwt beam="1">  1        2 0.25078991E+00 0.12833110E+04</pdfrwt>
<pdfrwt beam="2">  1       -2 0.33504081E-01 0.12833110E+04</pdfrwt>
<totfact> 0.87688936E+01</totfact>
</mgrwt>
</event>
<event>
 8    1  0.7583103E-052  0.1331592E+04  0.7818608E-02  0.9004881E-01
         -2   -1    0    0    0  501 -0.00000000000E+00  0.00000000000E+00  0.54754144299E+03  0.54754144300E+03  0.25500000000E-02 0. -1.
          2   -1    0    0  501    0  0.00000000000E+00 -0.00000000000E+00 -0.80959068939E+03  0.80959068939E+03  0.25500000000E-02 0.  1.
     200001    2    1    2    0    0 -0.19470944603E+03  0.44698113324E+02 -0.30150411224E+03  0.71119453777E+03  0.61235876016E+03 0.  0.
    5000001    2    3    3    0    0  0.11193732241E+03  0.23243908115E+03 -0.17410308327E+03  0.31659229022E+03  0.57973304444E+02 0.  0.
        -13    1    4    4    0    0  0.43683107704E+02  0.13369769936E+03 -0.95404179730E+02  0.16995663384E+03  0.10566000000E+00 0. -1.
     200003    1    4    4    0    0  0.68254214703E+02  0.98741381786E+02 -0.78698903542E+02  0.14663565637E+03  0.30000000000E+02 0.  1.
     200000    1    3    3    0    0 -0.30664676843E+03 -0.18774096782E+03 -0.12740102897E+03  0.39460224755E+03  0.10100000000E+03 0.  1.
    -200001    1    1    2    0    0  0.19470944603E+03 -0.44698113324E+02  0.39454865842E+02  0.64593759462E+03  0.61300000000E+03 0. -1.
<mgrwt>
<rscale>  0 0.13315922E+04</rscale>
<asrwt>0</asrwt>
<pdfrwt beam="1">  1        2 0.11565581E+00 0.13315922E+04</pdfrwt>
<pdfrwt beam="2">  1       -2 0.78220206E-01 0.13315922E+04</pdfrwt>
<totfact> 0.53307934E+01</totfact>
</mgrwt>
</event>
<event>
 8    1  0.7583103E-052  0.1665860E+04  0.7818608E-02  0.8781079E-01
          2   -1    0    0  501    0  0.00000000000E+00  0.00000000000E+00  0.15414313304E+04  0.15414313304E+04  0.25500000000E-02 0.  1.
         -2   -1    0    0    0  501 -0.00000000000E+00 -0.00000000000E+00 -0.45008307964E+03  0.45008307964E+03  0.25500000000E-02 0. -1.
     200001    2    1    2    0    0  0.38694672120E+03 -0.12072412287E+03  0.76841528845E+02  0.73879937153E+03  0.61287666943E+03 0.  0.
    5000001    2    3    3    0    0 -0.14639929400E+03 -0.41503630918E+02 -0.40459959262E+02  0.17782299289E+03  0.82635971792E+02 0.  0.
        -13    1    4    4    0    0 -0.69221779352E+02 -0.21449978836E+02 -0.55536855010E+02  0.91302298750E+02  0.10566000000E+00 0. -1.
     200003    1    4    4    0    0 -0.77177514650E+02 -0.20053652082E+02  0.15076895748E+02  0.86520694142E+02  0.30000000000E+02 0. -1.
     200000    1    3    3    0    0  0.53334601520E+03 -0.79220491953E+02  0.11730148811E+03  0.56097637864E+03  0.10100000000E+03 0. -1.
    -200001    1    1    2    0    0 -0.38694672120E+03  0.12072412287E+03  0.10145067219E+04  0.12527150385E+04  0.61300000000E+03 0.  1.
<mgrwt>
<rscale>  0 0.16658597E+04</rscale>
<asrwt>0</asrwt>
<pdfrwt beam="1">  1        2 0.22020448E+00 0.16658597E+04</pdfrwt>
<pdfrwt beam="2">  1       -2 0.64297581E-01 0.16658597E+04</pdfrwt>
<totfact> 0.29695401E+01</totfact>
</mgrwt>
</event>
<event>
 8    1  0.7583103E-052  0.2400997E+04  0.7818608E-02  0.8439131E-01
         -2   -1    0    0    0  501 -0.00000000000E+00  0.00000000000E+00  0.56703924498E+03  0.56703924498E+03  0.25500000000E-02 0. -1.
          2   -1    0    0  501    0  0.00000000000E+00 -0.00000000000E+00 -0.25416163579E+04  0.25416163579E+04  0.25500000000E-02 0.  1.
     200001    2    1    2    0    0  0.68320992806E+03  0.76060876991E+03 -0.11715734629E+04  0.16713367904E+04  0.61276486630E+03 0.  0.
    5000001    2    3    3    0    0  0.63749054237E+02  0.50847529890E+03 -0.53790581161E+03  0.74449335505E+03  0.48131299956E+02 0.  0.
        -13    1    4    4    0    0  0.30916927839E+02  0.14206370710E+03 -0.14227345485E+03  0.20342000989E+03  0.10566000000E+00 0. -1.
     200003    1    4    4    0    0  0.32832126399E+02  0.36641159180E+03 -0.39563235676E+03  0.54107334516E+03  0.30000000000E+02 0. -1.
     200000    1    3    3    0    0  0.61946087382E+03  0.25213347100E+03 -0.63366765133E+03  0.92684343540E+03  0.10100000000E+03 0.  1.
    -200001    1    1    2    0    0 -0.68320992806E+03 -0.76060876991E+03 -0.80300364995E+03  0.14373188124E+04  0.61300000000E+03 0. -1.
<mgrwt>
<rscale>  0 0.24009966E+04</rscale>
<asrwt>0</asrwt>
<pdfrwt beam="1">  1        2 0.36308805E+00 0.24009966E+04</pdfrwt>
<pdfrwt beam="2">  1       -2 0.81005608E-01 0.24009966E+04</pdfrwt>
<totfact> 0.50887423E+00</totfact>
</mgrwt>
</event>
<event>
 8    1  0.7583103E-052  0.1625260E+04  0.7818608E-02  0.8805179E-01
         -2   -1    0    0    0  501 -0.00000000000E+00  0.00000000000E+00  0.10934767397E+04  0.10934767397E+04  0.25500000000E-02 0. -1.
          2   -1    0    0  501    0  0.00000000000E+00 -0.00000000000E+00 -0.60391524994E+03  0.60391524995E+03  0.25500000000E-02 0.  1.
     200001    2    1    2    0    0 -0.23206502259E+03  0.21268815150E+03  0.69413237909E+03  0.97856748165E+03  0.61374598324E+03 0.  0.
    5000001    2    3    3    0    0  0.59607432217E+01  0.37504414421E+03  0.35912439439E+03  0.52530477266E+03  0.79253599056E+02 0.  0.
        -13    1    4    4    0    0  0.23963307409E+02  0.28944363231E+03  0.26110096394E+03  0.39054523543E+03  0.10566000000E+00 0. -1.
     200003    1    4    4    0    0 -0.18002564187E+02  0.85600511901E+02  0.98023430450E+02  0.13475953722E+03  0.30000000000E+02 0. -1.
     200000    1    3    3    0    0 -0.23802576581E+03 -0.16235599270E+03  0.33500798469E+03  0.45326270900E+03  0.10100000000E+03 0. -1.
    -200001    1    1    2    0    0  0.23206502259E+03 -0.21268815150E+03 -0.20457088935E+03  0.71882450798E+03  0.61300000000E+03 0.  1.
<mgrwt>
<rscale>  0 0.16252597E+04</rscale>
<asrwt>0</asrwt>
<pdfrwt beam="1">  1        2 0.86273607E-01 0.16252597E+04</pdfrwt>
<pdfrwt beam="2">  1       -2 0.15621096E+00 0.16252597E+04</pdfrwt>
<totfact> 0.13876806E+01</totfact>
</mgrwt>
</event>
<event>
 8    1  0.7583103E-052  0.1304240E+04  0.7818608E-02  0.9026210E-01
          2   -1    0    0  501    0  0.00000000000E+00  0.00000000000E+00  0.55062967267E+03  0.55062967268E+03  0.25500000000E-02 0.  1.
         -2   -1    0    0    0  501 -0.00000000000E+00 -0.00000000000E+00 -0.77231667699E+03  0.77231667700E+03  0.25500000000E-02 0. -1.
     200001    2    1    2    0    0  0.82370479149E+02  0.18547199460E+03 -0.13589944488E+02  0.64452307256E+03  0.61158854458E+03 0.  0.
    5000001    2    3    3    0    0 -0.13314442644E+03  0.19586335437E+02 -0.23039246427E+03  0.28235038029E+03  0.92357927822E+02 0.  0.
        -13    1    4    4    0    0 -0.83964181778E+02  0.50063617843E+01 -0.19695518376E+03  0.21416442995E+03  0.10566000000E+00 0. -1.
     200003    1    4    4    0    0 -0.49180244659E+02  0.14579973652E+02 -0.33437280504E+02  0.68185950341E+02  0.30000000000E+02 0. -1.
     200000    1    3    3    0    0  0.21551490559E+03  0.16588565916E+03  0.21680251978E+03  0.36217269227E+03  0.10100000000E+03 0. -1.
    -200001    1    1    2    0    0 -0.82370479149E+02 -0.18547199460E+03 -0.20809705983E+03  0.67842327711E+03  0.61300000000E+03 0. -1.
<mgrwt>
<rscale>  0 0.13042400E+04</rscale>
<asrwt>0</asrwt>
<pdfrwt beam="1">  1        2 0.78661382E-01 0.13042400E+04</pdfrwt>
<pdfrwt beam="2">  1       -2 0.11033095E+00 0.13042400E+04</pdfrwt>
<totfact> 0.38427839E+01</totfact>
</mgrwt>
</event>
<event>
 8    1  0.7583103E-052  0.1278267E+04  0.7818608E-02  0.9046980E-01
         -2   -1    0    0    0  501 -0.00000000000E+00  0.00000000000E+00  0.22718710691E+03  0.22718710692E+03  0.25500000000E-02 0. -1.
          2   -1    0    0  501    0  0.00000000000E+00 -0.00000000000E+00 -0.17980399747E+04  0.17980399747E+04  0.25500000000E-02 0.  1.
     200001    2    1    2    0    0  0.17065506357E+03 -0.51217167335E+02 -0.78911765851E+03  0.10159574019E+04  0.61458637681E+03 0.  0.
    5000001    2    3    3    0    0  0.24016490502E+03  0.76972487880E+01 -0.47409900589E+02  0.26187920659E+03  0.92707016606E+02 0.  0.
        -13    1    4    4    0    0  0.17274390200E+03 -0.94722396248E+01 -0.63743892458E+02  0.18437319217E+03  0.10566000000E+00 0. -1.
     200003    1    4    4    0    0  0.67421003020E+02  0.17169488413E+02  0.16333991869E+02  0.77506014418E+02  0.30000000000E+02 0. -1.
     200000    1    3    3    0    0 -0.69509841451E+02 -0.58914416124E+02 -0.74170775793E+03  0.75407819532E+03  0.10100000000E+03 0. -1.
    -200001    1    1    2    0    0 -0.17065506357E+03  0.51217167335E+02 -0.78173520923E+03  0.10092696797E+04  0.61300000000E+03 0. -1.
<mgrwt>
<rscale>  0 0.12782668E+04</rscale>
<asrwt>0</asrwt>
<pdfrwt beam="1">  1        2 0.25686285E+00 0.12782668E+04</pdfrwt>
<pdfrwt beam="2">  1       -2 0.32455302E-01 0.12782668E+04</pdfrwt>
<totfact> 0.88566188E+01</totfact>
</mgrwt>
</event>
<event>
 8    1  0.7583103E-052  0.1420361E+04  0.7818608E-02  0.8939211E-01
         -2   -1    0    0    0  501 -0.00000000000E+00  0.00000000000E+00  0.42765723494E+03  0.42765723495E+03  0.25500000000E-02 0. -1.
          2   -1    0    0  501    0  0.00000000000E+00 -0.00000000000E+00 -0.11793464749E+04  0.11793464749E+04  0.25500000000E-02 0.  1.
     200001    2    1    2    0    0  0.29552278369E+03 -0.33682669480E+02 -0.15012820226E+03  0.69809616782E+03  0.61345867383E+03 0.  0.
    5000001    2    3    3    0    0  0.11255398893E+03 -0.15238606503E+03  0.19251397252E+03  0.27955974657E+03  0.72125647661E+02 0.  0.
        -13    1    4    4    0    0  0.29698149028E+02 -0.41849429439E+01  0.23317026020E+02  0.37989323099E+02  0.10566000000E+00 0. -1.
     200003    1    4    4    0    0  0.82855839904E+02 -0.14820112208E+03  0.16919694650E+03  0.24157042347E+03  0.30000000000E+02 0. -1.
     200000    1    3    3    0    0  0.18296879476E+03  0.11870339555E+03 -0.34264217478E+03  0.41853642124E+03  0.10100000000E+03 0.  1.
    -200001    1    1    2    0    0 -0.29552278369E+03  0.33682669480E+02 -0.60156103773E+03  0.90890754206E+03  0.61300000000E+03 0.  1.
<mgrwt>
<rscale>  0 0.14203606E+04</rscale>
<asrwt>0</asrwt>
<pdfrwt beam="1">  1        2 0.16847807E+00 0.14203606E+04</pdfrwt>
<pdfrwt beam="2">  1       -2 0.61093891E-01 0.14203606E+04</pdfrwt>
<totfact> 0.53271765E+01</totfact>
</mgrwt>
</event>
<event>
 8    1  0.7583103E-052  0.2328385E+04  0.7818608E-02  0.8466813E-01
         -2   -1    0    0    0  501 -0.00000000000E+00  0.00000000000E+00  0.55028912336E+03  0.55028912337E+03  0.25500000000E-02 0. -1.
          2   -1    0    0  501    0  0.00000000000E+00 -0.00000000000E+00 -0.24629664530E+04  0.24629664530E+04  0.25500000000E-02 0.  1.
     200001    2    1    2    0    0  0.29367015165E+02  0.28585921572E+03  0.26528379903E+03  0.73249658192E+03  0.61935275547E+03 0.  0.
    5000001    2    3    3    0    0  0.18673497374E+03 -0.49016777151E+02 -0.72228443020E+02  0.22159334400E+03  0.81326915984E+02 0.  0.
        -13    1    4    4    0    0  0.63277561535E+02  0.18030694107E+02 -0.24675562848E+02  0.70271262190E+02  0.10566000000E+00 0. -1.
     200003    1    4    4    0    0  0.12345741220E+03 -0.67047471257E+02 -0.47552880172E+02  0.15132208181E+03  0.30000000000E+02 0. -1.
     200000    1    3    3    0    0 -0.15736795857E+03  0.33487599288E+03  0.33751224205E+03  0.51090323792E+03  0.10100000000E+03 0. -1.
    -200001    1    1    2    0    0 -0.29367015165E+02 -0.28585921572E+03 -0.21779611287E+04  0.22807589945E+04  0.61300000000E+03 0.  1.
<mgrwt>
<rscale>  0 0.23283845E+04</rscale>
<asrwt>0</asrwt>
<pdfrwt beam="1">  1        2 0.35185235E+00 0.23283845E+04</pdfrwt>
<pdfrwt beam="2">  1       -2 0.78612733E-01 0.23283845E+04</pdfrwt>
<totfact> 0.60250116E+00</totfact>
</mgrwt>
</event>
<event>
 8    1  0.7583103E-052  0.1711944E+04  0.7818608E-02  0.8754582E-01
         -2   -1    0    0    0  501 -0.00000000000E+00  0.00000000000E+00  0.75533983117E+03  0.75533983117E+03  0.25500000000E-02 0. -1.
          2   -1    0    0  501    0  0.00000000000E+00 -0.00000000000E+00 -0.97001066706E+03  0.97001066706E+03  0.25500000000E-02 0.  1.
     200001    2    1    2    0    0  0.41279447363E+03  0.15433313701E+03 -0.51386590435E+03  0.91325156114E+03  0.61298633886E+03 0.  0.
    5000001    2    3    3    0    0  0.32552177325E+03  0.20467464961E+02  0.28862045531E+02  0.33854192144E+03  0.85989958232E+02 0.  0.
        -13    1    4    4    0    0  0.28389555614E+03  0.21292151401E+02  0.35095039034E+02  0.28684789599E+03  0.10566000000E+00 0. -1.
     200003    1    4    4    0    0  0.41626217112E+02 -0.82468643947E+00 -0.62329935032E+01  0.51694025446E+02  0.30000000000E+02 0.  1.
     200000    1    3    3    0    0  0.87272700384E+02  0.13386567204E+03 -0.54272794988E+03  0.57470963971E+03  0.10100000000E+03 0.  1.
    -200001    1    1    2    0    0 -0.41279447363E+03 -0.15433313701E+03  0.29919506846E+03  0.81209893710E+03  0.61300000000E+03 0.  1.
<mgrwt>
<rscale>  0 0.17119436E+04</rscale>
<asrwt>0</asrwt>
<pdfrwt beam="1">  1        2 0.13857295E+00 0.17119436E+04</pdfrwt>
<pdfrwt beam="2">  1       -2 0.10790569E+00 0.17119436E+04</pdfrwt>
<totfact> 0.19242790E+01</totfact>
</mgrwt>
</event>
<event>
 8    1  0.7583103E-052  0.1359131E+04  0.7818608E-02  0.8983945E-01
         -2   -1    0    0    0  501 -0.00000000000E+00  0.00000000000E+00  0.13300086651E+04  0.13300086651E+04  0.25500000000E-02 0. -1.
          2   -1    0    0  501    0  0.00000000000E+00 -0.00000000000E+00 -0.34722262693E+03  0.34722262694E+03  0.25500000000E-02 0.  1.
     200001    2    1    2    0    0  0.22502902053E+02 -0.21109137974E+03  0.24307408280E+03  0.69335694635E+03  0.61367165009E+03 0.  0.
    5000001    2    3    3    0    0  0.65761876244E+02 -0.34375187516E+03 -0.30898918970E+02  0.36973316541E+03  0.11514293015E+03 0.  0.
        -13    1    4    4    0    0  0.55122592548E+02 -0.29194082761E+03  0.85985734249E+01  0.29722364251E+03  0.10566000000E+00 0. -1.
     200003    1    4    4    0    0  0.10639283696E+02 -0.51811047552E+02 -0.39497492395E+02  0.72509522902E+02  0.30000000000E+02 0. -1.
     200000    1    3    3    0    0 -0.43258974190E+02  0.13266049542E+03  0.27397300177E+03  0.32362378094E+03  0.10100000000E+03 0. -1.
    -200001    1    1    2    0    0 -0.22502902053E+02  0.21109137974E+03  0.73971195538E+03  0.98387434570E+03  0.61300000000E+03 0. -1.
<mgrwt>
<rscale>  0 0.13591308E+04</rscale>
<asrwt>0</asrwt>
<pdfrwt beam="1">  1        2 0.49603232E-01 0.13591308E+04</pdfrwt>
<pdfrwt beam="2">  1       -2 0.19000124E+00 0.13591308E+04</pdfrwt>
<totfact> 0.15338474E+01</totfact>
</mgrwt>
</event>
<event>
 8    1  0.7583103E-052  0.1294435E+04  0.7818608E-02  0.9033990E-01
         -2   -1    0    0    0  501 -0.00000000000E+00  0.00000000000E+00  0.29909929285E+04  0.29909929285E+04  0.25500000000E-02 0. -1.
          2   -1    0    0  501    0  0.00000000000E+00 -0.00000000000E+00 -0.14005065797E+03  0.14005065799E+03  0.25500000000E-02 0.  1.
     200001    2    1    2    0    0  0.91785048919E+02 -0.13176351186E+03  0.17457370006E+04  0.18570601459E+04  0.61260802468E+03 0.  0.
    5000001    2    3    3    0    0  0.18759990584E+03  0.71311359046E+02  0.14722453501E+04  0.14890675198E+04  0.97655890030E+02 0.  0.
        -13    1    4    4    0    0  0.53421220398E+01  0.34193192928E+02  0.25116578653E+03  0.25353890470E+03  0.10566000000E+00 0. -1.
     200003    1    4    4    0    0  0.18225778380E+03  0.37118166118E+02  0.12210795636E+04  0.12355286150E+04  0.30000000000E+02 0. -1.
     200000    1    3    3    0    0 -0.95814856916E+02 -0.20307487090E+03  0.27349165047E+03  0.36799262612E+03  0.10100000000E+03 0. -1.
    -200001    1    1    2    0    0 -0.91785048919E+02  0.13176351186E+03  0.11052052699E+04  0.12739834406E+04  0.61300000000E+03 0.  1.
<mgrwt>
<rscale>  0 0.12944351E+04</rscale>
<asrwt>0</asrwt>
<pdfrwt beam="1">  1        2 0.20007236E-01 0.12944351E+04</pdfrwt>
<pdfrwt beam="2">  1       -2 0.42728472E+00 0.12944351E+04</pdfrwt>
<totfact> 0.13934414E+00</totfact>
</mgrwt>
</event>
<event>
 8    1  0.7583103E-052  0.1504808E+04  0.7818608E-02  0.8881262E-01
         -2   -1    0    0    0  501 -0.00000000000E+00  0.00000000000E+00  0.10031860093E+04  0.10031860093E+04  0.25500000000E-02 0. -1.
          2   -1    0    0  501    0  0.00000000000E+00 -0.00000000000E+00 -0.56431396702E+03  0.56431396702E+03  0.25500000000E-02 0.  1.
     200001    2    1    2    0    0 -0.13975861800E+03  0.20011299663E+02  0.64766179293E+03  0.90470658206E+03  0.61570713670E+03 0.  0.
    5000001    2    3    3    0    0 -0.10857840081E+03  0.18525193320E+03  0.14902422060E+01  0.22941749887E+03  0.80762739468E+02 0.  0.
        -13    1    4    4    0    0 -0.42780619940E+02  0.63558042146E+02 -0.33469238792E+02  0.83606263361E+02  0.10566000000E+00 0. -1.
     200003    1    4    4    0    0 -0.65797780872E+02  0.12169389106E+03  0.34959480998E+02  0.14581123551E+03  0.30000000000E+02 0. -1.
     200000    1    3    3    0    0 -0.31180217187E+02 -0.16524063354E+03  0.64617155072E+03  0.67528908319E+03  0.10100000000E+03 0. -1.
    -200001    1    1    2    0    0  0.13975861800E+03 -0.20011299663E+02 -0.20878975069E+03  0.66279339421E+03  0.61300000000E+03 0.  1.
<mgrwt>
<rscale>  0 0.15048081E+04</rscale>
<asrwt>0</asrwt>
<pdfrwt beam="1">  1        2 0.80616280E-01 0.15048081E+04</pdfrwt>
<pdfrwt beam="2">  1       -2 0.14331229E+00 0.15048081E+04</pdfrwt>
<totfact> 0.19066754E+01</totfact>
</mgrwt>
</event>
<event>
 8    1  0.7583103E-052  0.1447585E+04  0.7818608E-02  0.8920076E-01
         -2   -1    0    0    0  501 -0.00000000000E+00  0.00000000000E+00  0.92073579295E+03  0.92073579295E+03  0.25500000000E-02 0. -1.
          2   -1    0    0  501    0  0.00000000000E+00 -0.00000000000E+00 -0.56897492700E+03  0.56897492700E+03  0.25500000000E-02 0.  1.
     200001    2    1    2    0    0  0.34332435590E+02 -0.14749713599E+03  0.53942252519E+03  0.83098466186E+03  0.61369758539E+03 0.  0.
    5000001    2    3    3    0    0  0.27176164281E+02 -0.11775514978E+03 -0.11079134851E+03  0.17226250532E+03  0.52866138792E+02 0.  0.
        -13    1    4    4    0    0  0.14627655303E+02 -0.63448974394E+02 -0.36440202657E+02  0.74616621373E+02  0.10566000000E+00 0. -1.
     200003    1    4    4    0    0  0.12548508978E+02 -0.54306175381E+02 -0.74351145857E+02  0.97645883950E+02  0.30000000000E+02 0. -1.
     200000    1    3    3    0    0  0.71562713093E+01 -0.29741986209E+02  0.65021387370E+03  0.65872215654E+03  0.10100000000E+03 0. -1.
    -200001    1    1    2    0    0 -0.34332435590E+02  0.14749713599E+03 -0.18766165924E+03  0.65872605809E+03  0.61300000000E+03 0.  1.
<mgrwt>
<rscale>  0 0.14475850E+04</rscale>
<asrwt>0</asrwt>
<pdfrwt beam="1">  1        2 0.81282133E-01 0.14475850E+04</pdfrwt>
<pdfrwt beam="2">  1       -2 0.13153368E+00 0.14475850E+04</pdfrwt>
<totfact> 0.23659372E+01</totfact>
</mgrwt>
</event>
<event>
 8    1  0.7583103E-052  0.1815321E+04  0.7818608E-02  0.8698194E-01
          2   -1    0    0  501    0  0.00000000000E+00  0.00000000000E+00  0.32057427968E+04  0.32057427968E+04  0.25500000000E-02 0.  1.
         -2   -1    0    0    0  501 -0.00000000000E+00 -0.00000000000E+00 -0.25699129812E+03  0.25699129813E+03  0.25500000000E-02 0. -1.
     200001    2    1    2    0    0  0.38201479669E+02  0.61174785314E+03  0.19869128149E+04  0.21678991856E+04  0.61340814788E+03 0.  0.
    5000001    2    3    3    0    0  0.27606304902E+03  0.29607031514E+03  0.66108591762E+03  0.78072637884E+03  0.92901289518E+02 0.  0.
        -13    1    4    4    0    0  0.13518315584E+03  0.99965274700E+02  0.21890028227E+03  0.27601609828E+03  0.10566000000E+00 0. -1.
     200003    1    4    4    0    0  0.14087989318E+03  0.19610504044E+03  0.44218563535E+03  0.50471028056E+03  0.30000000000E+02 0. -1.
     200000    1    3    3    0    0 -0.23786156935E+03  0.31567753799E+03  0.13258268973E+04  0.13871728067E+04  0.10100000000E+03 0. -1.
    -200001    1    1    2    0    0 -0.38201479669E+02 -0.61174785314E+03  0.96183868375E+03  0.12948349093E+04  0.61300000000E+03 0.  1.
<mgrwt>
<rscale>  0 0.18153215E+04</rscale>
<asrwt>0</asrwt>
<pdfrwt beam="1">  1        2 0.45796325E+00 0.18153215E+04</pdfrwt>
<pdfrwt beam="2">  1       -2 0.36713043E-01 0.18153215E+04</pdfrwt>
<totfact> 0.11932408E+01</totfact>
</mgrwt>
</event>
<event>
 8    1  0.7583103E-052  0.2310700E+04  0.7818608E-02  0.8473714E-01
         -2   -1    0    0    0  501 -0.00000000000E+00  0.00000000000E+00  0.71597367373E+03  0.71597367373E+03  0.25500000000E-02 0. -1.
          2   -1    0    0  501    0  0.00000000000E+00 -0.00000000000E+00 -0.18643609034E+04  0.18643609034E+04  0.25500000000E-02 0.  1.
     200001    2    1    2    0    0  0.26788981814E+03  0.66307642757E+03  0.17284136588E+03  0.95772886250E+03  0.61313549305E+03 0.  0.
    5000001    2    3    3    0    0 -0.13639488120E+03  0.44081414097E+03  0.10106333787E+03  0.48002631125E+03  0.85386127325E+02 0.  0.
        -13    1    4    4    0    0 -0.25474766466E+02  0.15402994776E+03  0.64505616886E+02  0.16892357535E+03  0.10566000000E+00 0. -1.
     200003    1    4    4    0    0 -0.11092011473E+03  0.28678419320E+03  0.36557720985E+02  0.31110273590E+03  0.30000000000E+02 0. -1.
     200000    1    3    3    0    0  0.40428469934E+03  0.22226228661E+03  0.71778028008E+02  0.47770255125E+03  0.10100000000E+03 0.  1.
    -200001    1    1    2    0    0 -0.26788981814E+03 -0.66307642757E+03 -0.13212285956E+04  0.16226057146E+04  0.61300000000E+03 0.  1.
<mgrwt>
<rscale>  0 0.23106997E+04</rscale>
<asrwt>0</asrwt>
<pdfrwt beam="1">  1        2 0.26633727E+00 0.23106997E+04</pdfrwt>
<pdfrwt beam="2">  1       -2 0.10228195E+00 0.23106997E+04</pdfrwt>
<totfact> 0.67191139E+00</totfact>
</mgrwt>
</event>
<event>
 8    1  0.7583103E-052  0.1235731E+04  0.7818608E-02  0.9082144E-01
         -2   -1    0    0    0  501 -0.00000000000E+00  0.00000000000E+00  0.35954478278E+03  0.35954478279E+03  0.25500000000E-02 0. -1.
          2   -1    0    0  501    0  0.00000000000E+00 -0.00000000000E+00 -0.10617809094E+04  0.10617809094E+04  0.25500000000E-02 0.  1.
     200001    2    1    2    0    0 -0.14385512061E+02  0.33371964154E+02 -0.27336719144E+03  0.67231421398E+03  0.61315263191E+03 0.  0.
    5000001    2    3    3    0    0  0.14017781122E+03 -0.76093041655E+02  0.11222997067E+03  0.23099960984E+03  0.12379532982E+03 0.  0.
        -13    1    4    4    0    0  0.14251046299E+03 -0.89737429705E+02  0.99398413564E+02  0.19555585938E+03  0.10566000000E+00 0. -1.
     200003    1    4    4    0    0 -0.23326517719E+01  0.13644388050E+02  0.12831557101E+02  0.35443750467E+02  0.30000000000E+02 0.  1.
     200000    1    3    3    0    0 -0.15456332328E+03  0.10946500581E+03 -0.38559716211E+03  0.44131460414E+03  0.10100000000E+03 0.  1.
    -200001    1    1    2    0    0  0.14385512061E+02 -0.33371964154E+02 -0.42886893521E+03  0.74901147824E+03  0.61300000000E+03 0.  1.
<mgrwt>
<rscale>  0 0.12357310E+04</rscale>
<asrwt>0</asrwt>
<pdfrwt beam="1">  1        2 0.15168299E+00 0.12357310E+04</pdfrwt>
<pdfrwt beam="2">  1       -2 0.51363541E-01 0.12357310E+04</pdfrwt>
<totfact> 0.90805211E+01</totfact>
</mgrwt>
</event>
<event>
 8    1  0.7583103E-052  0.1729540E+04  0.7818608E-02  0.8744694E-01
          2   -1    0    0  501    0  0.00000000000E+00  0.00000000000E+00  0.70444833977E+03  0.70444833977E+03  0.25500000000E-02 0.  1.
         -2   -1    0    0    0  501 -0.00000000000E+00 -0.00000000000E+00 -0.10615784904E+04  0.10615784904E+04  0.25500000000E-02 0. -1.
     200001    2    1    2    0    0  0.17238940039E+03 -0.47125385614E+03  0.17511889540E+03  0.81163888533E+03  0.61342705382E+03 0.  0.
    5000001    2    3    3    0    0  0.27266636978E+03 -0.81901682472E+02  0.23892655153E+03  0.39220712364E+03  0.12524254871E+03 0.  0.
        -13    1    4    4    0    0  0.13636471236E+02 -0.44940225042E+02  0.27088515145E+02  0.54216012316E+02  0.10566000000E+00 0. -1.
     200003    1    4    4    0    0  0.25902989854E+03 -0.36961457430E+02  0.21183803639E+03  0.33799111133E+03  0.30000000000E+02 0. -1.
     200000    1    3    3    0    0 -0.10027696939E+03 -0.38935217366E+03 -0.63807656133E+02  0.41943176168E+03  0.10100000000E+03 0.  1.
    -200001    1    1    2    0    0 -0.17238940039E+03  0.47125385614E+03 -0.53224904606E+03  0.95438794487E+03  0.61300000000E+03 0. -1.
<mgrwt>
<rscale>  0 0.17295401E+04</rscale>
<asrwt>0</asrwt>
<pdfrwt beam="1">  1        2 0.10063548E+00 0.17295401E+04</pdfrwt>
<pdfrwt beam="2">  1       -2 0.15165407E+00 0.17295401E+04</pdfrwt>
<totfact> 0.12365675E+01</totfact>
</mgrwt>
</event>
<event>
 8    1  0.7583103E-052  0.1440861E+04  0.7818608E-02  0.8924761E-01
          2   -1    0    0  501    0  0.00000000000E+00  0.00000000000E+00  0.51614227367E+03  0.51614227367E+03  0.25500000000E-02 0.  1.
         -2   -1    0    0    0  501 -0.00000000000E+00 -0.00000000000E+00 -0.10055762521E+04  0.10055762521E+04  0.25500000000E-02 0. -1.
     200001    2    1    2    0    0  0.43579079643E+02  0.54318256544E+02 -0.63838033337E+03  0.88705040321E+03  0.61194718614E+03 0.  0.
    5000001    2    3    3    0    0 -0.17543696627E+03 -0.50279239709E+02 -0.13570507744E+03  0.31978320205E+03  0.22480946865E+03 0.  0.
        -13    1    4    4    0    0  0.85587652783E+01 -0.64699290145E+02  0.28235357371E+02  0.71109051310E+02  0.10566000000E+00 0. -1.
     200003    1    4    4    0    0 -0.18399573155E+03  0.14420050436E+02 -0.16394043481E+03  0.24867415074E+03  0.30000000000E+02 0. -1.
     200000    1    3    3    0    0  0.21901604591E+03  0.10459749625E+03 -0.50267525593E+03  0.56726720116E+03  0.10100000000E+03 0.  1.
    -200001    1    1    2    0    0 -0.43579079643E+02 -0.54318256544E+02  0.14894635492E+03  0.63466812258E+03  0.61300000000E+03 0.  1.
<mgrwt>
<rscale>  0 0.14408614E+04</rscale>
<asrwt>0</asrwt>
<pdfrwt beam="1">  1        2 0.73734611E-01 0.14408614E+04</pdfrwt>
<pdfrwt beam="2">  1       -2 0.14365375E+00 0.14408614E+04</pdfrwt>
<totfact> 0.21116720E+01</totfact>
</mgrwt>
</event>
<event>
 8    1  0.7583103E-052  0.1460258E+04  0.7818608E-02  0.8911319E-01
          2   -1    0    0  501    0  0.00000000000E+00  0.00000000000E+00  0.39636046925E+04  0.39636046925E+04  0.25500000000E-02 0.  1.
         -2   -1    0    0    0  501 -0.00000000000E+00 -0.00000000000E+00 -0.13449591232E+03  0.13449591234E+03  0.25500000000E-02 0. -1.
     200001    2    1    2    0    0  0.30897036143E+01  0.35467691338E+03  0.24149111142E+04  0.25164782423E+04  0.61242288941E+03 0.  0.
    5000001    2    3    3    0    0 -0.16273056096E+03  0.13614743498E+03  0.19457554577E+04  0.19637038552E+04  0.15859120434E+03 0.  0.
        -13    1    4    4    0    0 -0.18102917903E+03  0.81507157216E+02  0.13738888678E+04  0.13881590732E+04  0.10566000000E+00 0. -1.
     200003    1    4    4    0    0  0.18298618069E+02  0.54640277762E+02  0.57186658990E+03  0.57554478194E+03  0.30000000000E+02 0. -1.
     200000    1    3    3    0    0  0.16582026458E+03  0.21852947840E+03  0.46915565648E+03  0.55277438715E+03  0.10100000000E+03 0.  1.
    -200001    1    1    2    0    0 -0.30897036143E+01 -0.35467691338E+03  0.14141976660E+04  0.15816223625E+04  0.61300000000E+03 0. -1.
<mgrwt>
<rscale>  0 0.14602584E+04</rscale>
<asrwt>0</asrwt>
<pdfrwt beam="1">  1        2 0.56622921E+00 0.14602584E+04</pdfrwt>
<pdfrwt beam="2">  1       -2 0.19213703E-01 0.14602584E+04</pdfrwt>
<totfact> 0.13680798E+01</totfact>
</mgrwt>
</event>
<event>
 8    1  0.7583103E-052  0.1356754E+04  0.7818608E-02  0.8985731E-01
         -2   -1    0    0    0  501 -0.00000000000E+00  0.00000000000E+00  0.91729264195E+03  0.91729264195E+03  0.25500000000E-02 0. -1.
          2   -1    0    0  501    0  0.00000000000E+00 -0.00000000000E+00 -0.50168885749E+03  0.50168885750E+03  0.25500000000E-02 0.  1.
     200001    2    1    2    0    0 -0.15385513111E+03  0.59734565413E+01  0.46527578660E+03  0.78499144326E+03  0.61320708153E+03 0.  0.
    5000001    2    3    3    0    0  0.30922275332E+02  0.27593153178E+03  0.24168726812E+03  0.37607473057E+03  0.76974476668E+02 0.  0.
        -13    1    4    4    0    0  0.84744633098E+01  0.22283354257E+03  0.19214166404E+03  0.29435528609E+03  0.10566000000E+00 0. -1.
     200003    1    4    4    0    0  0.22447812022E+02  0.53097989207E+02  0.49545604081E+02  0.81719444480E+02  0.30000000000E+02 0. -1.
     200000    1    3    3    0    0 -0.18477740644E+03 -0.26995807524E+03  0.22358851849E+03  0.40891671269E+03  0.10100000000E+03 0.  1.
    -200001    1    1    2    0    0  0.15385513111E+03 -0.59734565413E+01 -0.49672002148E+02  0.63399005619E+03  0.61300000000E+03 0.  1.
<mgrwt>
<rscale>  0 0.13567542E+04</rscale>
<asrwt>0</asrwt>
<pdfrwt beam="1">  1        2 0.71669838E-01 0.13567542E+04</pdfrwt>
<pdfrwt beam="2">  1       -2 0.13104180E+00 0.13567542E+04</pdfrwt>
<totfact> 0.27820495E+01</totfact>
</mgrwt>
</event>
<event>
 8    1  0.7583103E-052  0.1395355E+04  0.7818608E-02  0.8957188E-01
         -2   -1    0    0    0  501 -0.00000000000E+00  0.00000000000E+00  0.56179643112E+03  0.56179643112E+03  0.25500000000E-02 0. -1.
          2   -1    0    0  501    0  0.00000000000E+00 -0.00000000000E+00 -0.86642342834E+03  0.86642342834E+03  0.25500000000E-02 0.  1.
     200001    2    1    2    0    0 -0.30584632693E+02  0.21195033667E+03  0.10967947174E+03  0.65797495348E+03  0.61240761582E+03 0.  0.
    5000001    2    3    3    0    0  0.26436849393E+03  0.19169498939E+03  0.38365010432E+02  0.33751531735E+03  0.76203975508E+02 0.  0.
        -13    1    4    4    0    0  0.19507363222E+03  0.16237521508E+03  0.37067222852E+02  0.25650228582E+03  0.10566000000E+00 0. -1.
     200003    1    4    4    0    0  0.69294861711E+02  0.29319774314E+02  0.12977875801E+01  0.81013031532E+02  0.30000000000E+02 0.  1.
     200000    1    3    3    0    0 -0.29495312662E+03  0.20255347283E+02  0.71314461308E+02  0.32045963613E+03  0.10100000000E+03 0.  1.
    -200001    1    1    2    0    0  0.30584632693E+02 -0.21195033667E+03 -0.41430646896E+03  0.77024490599E+03  0.61300000000E+03 0.  1.
<mgrwt>
<rscale>  0 0.13953546E+04</rscale>
<asrwt>0</asrwt>
<pdfrwt beam="1">  1        2 0.12377478E+00 0.13953546E+04</pdfrwt>
<pdfrwt beam="2">  1       -2 0.80256633E-01 0.13953546E+04</pdfrwt>
<totfact> 0.45814679E+01</totfact>
</mgrwt>
</event>
<event>
 8    1  0.7583103E-052  0.2480921E+04  0.7818608E-02  0.8409814E-01
         -2   -1    0    0    0  501 -0.00000000000E+00  0.00000000000E+00  0.51303995135E+03  0.51303995136E+03  0.25500000000E-02 0. -1.
          2   -1    0    0  501    0  0.00000000000E+00 -0.00000000000E+00 -0.29992641136E+04  0.29992641136E+04  0.25500000000E-02 0.  1.
     200001    2    1    2    0    0 -0.47451186492E+03  0.62521708217E+03 -0.22894261847E+04  0.24971408496E+04  0.61496524934E+03 0.  0.
    5000001    2    3    3    0    0  0.86555972454E+02  0.88988396015E+02 -0.80587216487E+03  0.81980014132E+03  0.85037959781E+02 0.  0.
        -13    1    4    4    0    0  0.27198361747E+02  0.65006031048E+02 -0.26042852290E+03  0.26979355378E+03  0.10566000000E+00 0. -1.
     200003    1    4    4    0    0  0.59357610707E+02  0.23982364966E+02 -0.54544364197E+03  0.55000658754E+03  0.30000000000E+02 0. -1.
     200000    1    3    3    0    0 -0.56106783737E+03  0.53622868615E+03 -0.14835540198E+04  0.16773407083E+04  0.10100000000E+03 0.  1.
    -200001    1    1    2    0    0  0.47451186492E+03 -0.62521708217E+03 -0.19679797755E+03  0.10151632153E+04  0.61300000000E+03 0. -1.
<mgrwt>
<rscale>  0 0.24809211E+04</rscale>
<asrwt>0</asrwt>
<pdfrwt beam="1">  1        2 0.42846629E+00 0.24809211E+04</pdfrwt>
<pdfrwt beam="2">  1       -2 0.73291423E-01 0.24809211E+04</pdfrwt>
<totfact> 0.35618521E+00</totfact>
</mgrwt>
</event>
<event>
 8    1  0.7583103E-052  0.1882056E+04  0.7818608E-02  0.8663840E-01
         -2   -1    0    0    0  501 -0.00000000000E+00  0.00000000000E+00  0.85112203596E+03  0.85112203597E+03  0.25500000000E-02 0. -1.
          2   -1    0    0  501    0  0.00000000000E+00 -0.00000000000E+00 -0.10404311734E+04  0.10404311734E+04  0.25500000000E-02 0.  1.
     200001    2    1    2    0    0  0.95043143649E+02 -0.42767596666E+03  0.47210374693E+03  0.88896858190E+03  0.61273424918E+03 0.  0.
    5000001    2    3    3    0    0  0.12283491531E+03 -0.55281773714E+03  0.44448936176E+03  0.72345000421E+03  0.71506985382E+02 0.  0.
        -13    1    4    4    0    0 -0.35128135338E+01 -0.65508630813E+01  0.14264435751E+02  0.16085364694E+02  0.10566000000E+00 0. -1.
     200003    1    4    4    0    0  0.12634772884E+03 -0.54626687406E+03  0.43022492601E+03  0.70736463952E+03  0.30000000000E+02 0. -1.
     200000    1    3    3    0    0 -0.27791771656E+02  0.12514177048E+03  0.27614385171E+02  0.16551857769E+03  0.10100000000E+03 0. -1.
    -200001    1    1    2    0    0 -0.95043143649E+02  0.42767596666E+03 -0.66141288434E+03  0.10025846274E+04  0.61300000000E+03 0.  1.
<mgrwt>
<rscale>  0 0.18820562E+04</rscale>
<asrwt>0</asrwt>
<pdfrwt beam="1">  1        2 0.14863303E+00 0.18820562E+04</pdfrwt>
<pdfrwt beam="2">  1       -2 0.12158886E+00 0.18820562E+04</pdfrwt>
<totfact> 0.12830371E+01</totfact>
</mgrwt>
</event>
<event>
 8    1  0.7583103E-052  0.1475193E+04  0.7818608E-02  0.8901119E-01
          2   -1    0    0  501    0  0.00000000000E+00  0.00000000000E+00  0.27149710368E+04  0.27149710368E+04  0.25500000000E-02 0.  1.
         -2   -1    0    0    0  501 -0.00000000000E+00 -0.00000000000E+00 -0.20038833155E+03  0.20038833157E+03  0.25500000000E-02 0. -1.
     200001    2    1    2    0    0 -0.14040739445E+03  0.25188186363E+03  0.18341019644E+04  0.19551605617E+04  0.61283284560E+03 0.  0.
    5000001    2    3    3    0    0  0.20707854563E+03  0.15407275742E+02  0.87956397804E+03  0.90730061083E+03  0.80266423541E+02 0.  0.
        -13    1    4    4    0    0  0.10279652636E+03  0.40226716070E+02  0.39668212229E+03  0.41175482004E+03  0.10566000000E+00 0. -1.
     200003    1    4    4    0    0  0.10428201927E+03 -0.24819440327E+02  0.48288185575E+03  0.49554579079E+03  0.30000000000E+02 0. -1.
     200000    1    3    3    0    0 -0.34748594008E+03  0.23647458788E+03  0.95453798638E+03  0.10478599509E+04  0.10100000000E+03 0.  1.
    -200001    1    1    2    0    0  0.14040739445E+03 -0.25188186363E+03  0.68048074086E+03  0.96019880666E+03  0.61300000000E+03 0.  1.
<mgrwt>
<rscale>  0 0.14751929E+04</rscale>
<asrwt>0</asrwt>
<pdfrwt beam="1">  1        2 0.38785301E+00 0.14751929E+04</pdfrwt>
<pdfrwt beam="2">  1       -2 0.28626904E-01 0.14751929E+04</pdfrwt>
<totfact> 0.36813319E+01</totfact>
</mgrwt>
</event>
<event>
 8    1  0.7583103E-052  0.1311588E+04  0.7818608E-02  0.9020426E-01
          2   -1    0    0  501    0  0.00000000000E+00  0.00000000000E+00  0.20990573223E+04  0.20990573224E+04  0.25500000000E-02 0.  1.
         -2   -1    0    0    0  501 -0.00000000000E+00 -0.00000000000E+00 -0.20488509707E+03  0.20488509708E+03  0.25500000000E-02 0. -1.
     200001    2    1    2    0    0 -0.15053080231E+03 -0.16880983013E+03  0.10543983422E+04  0.12399191791E+04  0.61195377730E+03 0.  0.
    5000001    2    3    3    0    0  0.82400351766E+01  0.11361923712E+03  0.31673256588E+02  0.16235620760E+03  0.11126146566E+03 0.  0.
        -13    1    4    4    0    0 -0.35247500159E+00 -0.17885920395E+02  0.19790446610E+02  0.26677768424E+02  0.10566000000E+00 0. -1.
     200003    1    4    4    0    0  0.85925101782E+01  0.13150515752E+03  0.11882809978E+02  0.13567843918E+03  0.30000000000E+02 0. -1.
     200000    1    3    3    0    0 -0.15877083748E+03 -0.28242906726E+03  0.10227250856E+04  0.10775629715E+04  0.10100000000E+03 0.  1.
    -200001    1    1    2    0    0  0.15053080231E+03  0.16880983013E+03  0.83977388309E+03  0.10640232403E+04  0.61300000000E+03 0.  1.
<mgrwt>
<rscale>  0 0.13115877E+04</rscale>
<asrwt>0</asrwt>
<pdfrwt beam="1">  1        2 0.29986531E+00 0.13115877E+04</pdfrwt>
<pdfrwt beam="2">  1       -2 0.29269301E-01 0.13115877E+04</pdfrwt>
<totfact> 0.75083227E+01</totfact>
</mgrwt>
</event>
<event>
 8    1  0.7583103E-052  0.1276243E+04  0.7818608E-02  0.9048620E-01
          2   -1    0    0  501    0  0.00000000000E+00  0.00000000000E+00  0.16519834745E+04  0.16519834745E+04  0.25500000000E-02 0.  1.
         -2   -1    0    0    0  501 -0.00000000000E+00 -0.00000000000E+00 -0.24649089115E+03  0.24649089116E+03  0.25500000000E-02 0. -1.
     200001    2    1    2    0    0  0.43679665853E+02  0.16830821789E+03  0.66385865287E+03  0.92070882308E+03  0.61380848518E+03 0.  0.
    5000001    2    3    3    0    0 -0.97203965958E+02 -0.16025648043E+03  0.44284209725E+03  0.48844469485E+03  0.85664148370E+02 0.  0.
        -13    1    4    4    0    0 -0.46363599100E+02 -0.10790787743E+03  0.18801775454E+03  0.22168531868E+03  0.10566000000E+00 0. -1.
     200003    1    4    4    0    0 -0.50840366858E+02 -0.52348603002E+02  0.25482434271E+03  0.26675937617E+03  0.30000000000E+02 0. -1.
     200000    1    3    3    0    0  0.14088363181E+03  0.32856469832E+03  0.22101655562E+03  0.43226412823E+03  0.10100000000E+03 0. -1.
    -200001    1    1    2    0    0 -0.43679665853E+02 -0.16830821789E+03  0.74163393044E+03  0.97776554255E+03  0.61300000000E+03 0.  1.
<mgrwt>
<rscale>  0 0.12762427E+04</rscale>
<asrwt>0</asrwt>
<pdfrwt beam="1">  1        2 0.23599765E+00 0.12762427E+04</pdfrwt>
<pdfrwt beam="2">  1       -2 0.35212983E-01 0.12762427E+04</pdfrwt>
<totfact> 0.90320254E+01</totfact>
</mgrwt>
</event>
<event>
 8    1  0.7583103E-052  0.1269313E+04  0.7818608E-02  0.9054261E-01
         -2   -1    0    0    0  501 -0.00000000000E+00  0.00000000000E+00  0.16543039178E+03  0.16543039180E+03  0.25500000000E-02 0. -1.
          2   -1    0    0  501    0  0.00000000000E+00 -0.00000000000E+00 -0.24347931202E+04  0.24347931202E+04  0.25500000000E-02 0.  1.
     200001    2    1    2    0    0  0.97693797163E+02 -0.11565126029E+03 -0.12812034853E+04  0.14275569005E+04  0.61116040561E+03 0.  0.
    5000001    2    3    3    0    0  0.20822941157E+02 -0.23283735060E+03 -0.17533477839E+03  0.30827663836E+03  0.98210867686E+02 0.  0.
        -13    1    4    4    0    0  0.15753216301E+02 -0.16556225416E+03 -0.71886408741E+02  0.18118137529E+03  0.10566000000E+00 0. -1.
     200003    1    4    4    0    0  0.50697248560E+01 -0.67275096436E+02 -0.10344836965E+03  0.12709526306E+03  0.30000000000E+02 0. -1.
     200000    1    3    3    0    0  0.76870856007E+02  0.11718609031E+03 -0.11058687069E+04  0.11192802622E+04  0.10100000000E+03 0. -1.
    -200001    1    1    2    0    0 -0.97693797163E+02  0.11565126029E+03 -0.98815924311E+03  0.11726666115E+04  0.61300000000E+03 0.  1.
<mgrwt>
<rscale>  0 0.12693129E+04</rscale>
<asrwt>0</asrwt>
<pdfrwt beam="1">  1        2 0.34782757E+00 0.12693129E+04</pdfrwt>
<pdfrwt beam="2">  1       -2 0.23632915E-01 0.12693129E+04</pdfrwt>
<totfact> 0.74676565E+01</totfact>
</mgrwt>
</event>
<event>
 8    1  0.7583103E-052  0.1487247E+04  0.7818608E-02  0.8892978E-01
          2   -1    0    0  501    0  0.00000000000E+00  0.00000000000E+00  0.11028202990E+04  0.11028202990E+04  0.25500000000E-02 0. -1.
         -2   -1    0    0    0  501 -0.00000000000E+00 -0.00000000000E+00 -0.50141990083E+03  0.50141990083E+03  0.25500000000E-02 0.  1.
     200001    2    1    2    0    0 -0.10105502199E+03 -0.72518462923E+02  0.73454225690E+03  0.96473507902E+03  0.61293588620E+03 0.  0.
    5000001    2    3    3    0    0 -0.31448248672E+03  0.69754271377E+02  0.46798082373E+03  0.58126563919E+03  0.12287717080E+03 0.  0.
        -13    1    4    4    0    0 -0.17643821630E+03 -0.19232255527E+02  0.25374298096E+03  0.30965438052E+03  0.10566000000E+00 0. -1.
     200003    1    4    4    0    0 -0.13804427042E+03  0.88986526904E+02  0.21423784277E+03  0.27161125868E+03  0.30000000000E+02 0. -1.
     200000    1    3    3    0    0  0.21342746473E+03 -0.14227273430E+03  0.26656143317E+03  0.38346943983E+03  0.10100000000E+03 0. -1.
    -200001    1    1    2    0    0  0.10105502199E+03  0.72518462923E+02 -0.13314185877E+03  0.63950512077E+03  0.61300000000E+03 0.  1.
<mgrwt>
<rscale>  0 0.14872472E+04</rscale>
<asrwt>0</asrwt>
<pdfrwt beam="1">  1        2 0.15754576E+00 0.14872472E+04</pdfrwt>
<pdfrwt beam="2">  1       -2 0.71631415E-01 0.14872472E+04</pdfrwt>
<totfact> 0.41677400E+01</totfact>
</mgrwt>
</event>
<event>
 8    1  0.7583103E-052  0.1474100E+04  0.7818608E-02  0.8901861E-01
          2   -1    0    0  501    0  0.00000000000E+00  0.00000000000E+00  0.56878791002E+03  0.56878791002E+03  0.25500000000E-02 0.  1.
         -2   -1    0    0    0  501 -0.00000000000E+00 -0.00000000000E+00 -0.95508792742E+03  0.95508792742E+03  0.25500000000E-02 0. -1.
     200001    2    1    2    0    0 -0.30637396542E+02  0.20198121246E+03 -0.55995336324E+03  0.85480219070E+03  0.61270217558E+03 0.  0.
    5000001    2    3    3    0    0 -0.23343790163E+03  0.57452535928E+02 -0.52598574402E+03  0.58393066698E+03  0.80746350529E+02 0.  0.
        -13    1    4    4    0    0 -0.14571153748E+03  0.23190333679E+01 -0.30073024617E+03  0.33417947603E+03  0.10566000000E+00 0. -1.
     200003    1    4    4    0    0 -0.87726364156E+02  0.55133502560E+02 -0.22525549785E+03  0.24975119096E+03  0.30000000000E+02 0. -1.
     200000    1    3    3    0    0  0.20280050509E+03  0.14452867653E+03 -0.33967619215E+02  0.27087152372E+03  0.10100000000E+03 0. -1.
    -200001    1    1    2    0    0  0.30637396542E+02 -0.20198121246E+03  0.17365334584E+03  0.66907364675E+03  0.61300000000E+03 0.  1.
<mgrwt>
<rscale>  0 0.14740997E+04</rscale>
<asrwt>0</asrwt>
<pdfrwt beam="1">  1        2 0.81255416E-01 0.14740997E+04</pdfrwt>
<pdfrwt beam="2">  1       -2 0.13644113E+00 0.14740997E+04</pdfrwt>
<totfact> 0.21513384E+01</totfact>
</mgrwt>
</event>
<event>
 8    1  0.7583103E-052  0.1406413E+04  0.7818608E-02  0.8949189E-01
         -2   -1    0    0    0  501 -0.00000000000E+00  0.00000000000E+00  0.26234117653E+03  0.26234117654E+03  0.25500000000E-02 0. -1.
          2   -1    0    0  501    0  0.00000000000E+00 -0.00000000000E+00 -0.18849485248E+04  0.18849485248E+04  0.25500000000E-02 0.  1.
     200001    2    1    2    0    0  0.30564647489E+03 -0.56934757924E+02 -0.58585150790E+03  0.90338737125E+03  0.61337217002E+03 0.  0.
    5000001    2    3    3    0    0  0.15800088805E+03  0.15143792852E+03 -0.39366365499E+03  0.56819255242E+03  0.34637259786E+03 0.  0.
        -13    1    4    4    0    0  0.17903152561E+03 -0.43187704825E+02 -0.29290001166E+03  0.34598828449E+03  0.10566000000E+00 0. -1.
     200003    1    4    4    0    0 -0.21030637551E+02  0.19462563334E+03 -0.10076364333E+03  0.22220426793E+03  0.30000000000E+02 0. -1.
     200000    1    3    3    0    0  0.14764558683E+03 -0.20837268644E+03 -0.19218785292E+03  0.33519481884E+03  0.10100000000E+03 0. -1.
    -200001    1    1    2    0    0 -0.30564647489E+03  0.56934757924E+02 -0.10367558404E+04  0.12439023301E+04  0.61300000000E+03 0. -1.
<mgrwt>
<rscale>  0 0.14064133E+04</rscale>
<asrwt>0</asrwt>
<pdfrwt beam="1">  1        2 0.26927835E+00 0.14064133E+04</pdfrwt>
<pdfrwt beam="2">  1       -2 0.37477312E-01 0.14064133E+04</pdfrwt>
<totfact> 0.60137759E+01</totfact>
</mgrwt>
</event>
<event>
 8    1  0.7583103E-052  0.1636874E+04  0.7818608E-02  0.8798210E-01
         -2   -1    0    0    0  501 -0.00000000000E+00  0.00000000000E+00  0.64995049084E+03  0.64995049084E+03  0.25500000000E-02 0. -1.
          2   -1    0    0  501    0  0.00000000000E+00 -0.00000000000E+00 -0.10306006286E+04  0.10306006286E+04  0.25500000000E-02 0.  1.
     200001    2    1    2    0    0  0.46889052398E+03  0.27226504231E+03 -0.17929770116E+03  0.83775910449E+03  0.61294867222E+03 0.  0.
    5000001    2    3    3    0    0  0.18761725037E+03  0.18263504837E+03 -0.37796607266E+03  0.46786951003E+03  0.86531686681E+02 0.  0.
        -13    1    4    4    0    0  0.97749831057E+02  0.75654322979E+02 -0.11626539447E+03  0.16969460561E+03  0.10566000000E+00 0. -1.
     200003    1    4    4    0    0  0.89867419309E+02  0.10698072539E+03 -0.26170067819E+03  0.29817490442E+03  0.30000000000E+02 0. -1.
     200000    1    3    3    0    0  0.28127327361E+03  0.89629993938E+02  0.19866837150E+03  0.36988959447E+03  0.10100000000E+03 0.  1.
    -200001    1    1    2    0    0 -0.46889052398E+03 -0.27226504231E+03 -0.20135243659E+03  0.84279201495E+03  0.61300000000E+03 0. -1.
<mgrwt>
<rscale>  0 0.16368743E+04</rscale>
<asrwt>0</asrwt>
<pdfrwt beam="1">  1        2 0.14722866E+00 0.16368743E+04</pdfrwt>
<pdfrwt beam="2">  1       -2 0.92850070E-01 0.16368743E+04</pdfrwt>
<totfact> 0.25350431E+01</totfact>
</mgrwt>
</event>
<event>
 8    1  0.7583103E-052  0.1381733E+04  0.7818608E-02  0.8967148E-01
         -2   -1    0    0    0  501 -0.00000000000E+00  0.00000000000E+00  0.28497077702E+03  0.28497077704E+03  0.25500000000E-02 0. -1.
          2   -1    0    0  501    0  0.00000000000E+00 -0.00000000000E+00 -0.16748970072E+04  0.16748970072E+04  0.25500000000E-02 0.  1.
     200001    2    1    2    0    0 -0.31599155120E+03 -0.41606163324E+02 -0.70082095774E+03  0.98405181297E+03  0.61288353098E+03 0.  0.
    5000001    2    3    3    0    0 -0.11395214125E+03 -0.10785030806E+03  0.57382069423E+02  0.19014940065E+03  0.90814719260E+02 0.  0.
        -13    1    4    4    0    0 -0.64469957466E+02 -0.85215377445E+02  0.19369351338E+01  0.10687281624E+03  0.10566000000E+00 0. -1.
     200003    1    4    4    0    0 -0.49482183781E+02 -0.22634930615E+02  0.55445134289E+02  0.83276584416E+02  0.30000000000E+02 0. -1.
     200000    1    3    3    0    0 -0.20203940996E+03  0.66244144736E+02 -0.75820302716E+03  0.79390241232E+03  0.10100000000E+03 0.  1.
    -200001    1    1    2    0    0  0.31599155120E+03  0.41606163324E+02 -0.68910527240E+03  0.97581597123E+03  0.61300000000E+03 0.  1.
<mgrwt>
<rscale>  0 0.13817333E+04</rscale>
<asrwt>0</asrwt>
<pdfrwt beam="1">  1        2 0.23927100E+00 0.13817333E+04</pdfrwt>
<pdfrwt beam="2">  1       -2 0.40710112E-01 0.13817333E+04</pdfrwt>
<totfact> 0.65857479E+01</totfact>
</mgrwt>
</event>
<event>
 8    1  0.7583103E-052  0.2246264E+04  0.7818608E-02  0.8499415E-01
         -2   -1    0    0    0  501 -0.00000000000E+00  0.00000000000E+00  0.10109876604E+04  0.10109876604E+04  0.25500000000E-02 0. -1.
          2   -1    0    0  501    0  0.00000000000E+00 -0.00000000000E+00 -0.12477159185E+04  0.12477159185E+04  0.25500000000E-02 0.  1.
     200001    2    1    2    0    0  0.77549461445E+03 -0.42527627700E+03 -0.44086343201E+03  0.11633990650E+04  0.61390961065E+03 0.  0.
    5000001    2    3    3    0    0  0.11930941248E+03 -0.14931525194E+03 -0.38092260736E+03  0.44192321022E+03  0.11689444198E+03 0.  0.
        -13    1    4    4    0    0  0.84220415499E+02 -0.46635104796E+02 -0.25729746014E+03  0.27471786535E+03  0.10566000000E+00 0. -1.
     200003    1    4    4    0    0  0.35088996985E+02 -0.10268014715E+03 -0.12362514722E+03  0.16720534487E+03  0.30000000000E+02 0. -1.
     200000    1    3    3    0    0  0.65618520197E+03 -0.27596102506E+03 -0.59940824645E+02  0.72147585482E+03  0.10100000000E+03 0. -1.
    -200001    1    1    2    0    0 -0.77549461445E+03  0.42527627700E+03  0.20413517386E+03  0.10953045138E+04  0.61300000000E+03 0. -1.
<mgrwt>
<rscale>  0 0.22462639E+04</rscale>
<asrwt>0</asrwt>
<pdfrwt beam="1">  1        2 0.17824513E+00 0.22462639E+04</pdfrwt>
<pdfrwt beam="2">  1       -2 0.14442681E+00 0.22462639E+04</pdfrwt>
<totfact> 0.60846842E+00</totfact>
</mgrwt>
</event>
<event>
 8    1  0.7583103E-052  0.1532761E+04  0.7818608E-02  0.8862955E-01
         -2   -1    0    0    0  501 -0.00000000000E+00  0.00000000000E+00  0.35147348981E+03  0.35147348982E+03  0.25500000000E-02 0. -1.
          2   -1    0    0  501    0  0.00000000000E+00 -0.00000000000E+00 -0.16710761385E+04  0.16710761385E+04  0.25500000000E-02 0.  1.
     200001    2    1    2    0    0 -0.21140757087E+03  0.23932313660E+03 -0.22152885710E+03  0.72505058150E+03  0.61209034176E+03 0.  0.
    5000001    2    3    3    0    0 -0.97691089118E+02  0.24552896736E+03 -0.40197213326E+03  0.48897701994E+03  0.87686415175E+02 0.  0.
        -13    1    4    4    0    0 -0.43527985150E+02  0.79341108497E+02 -0.77261356440E+02  0.11899170287E+03  0.10566000000E+00 0. -1.
     200003    1    4    4    0    0 -0.54163103968E+02  0.16618785886E+03 -0.32471077682E+03  0.36998531707E+03  0.30000000000E+02 0.  1.
     200000    1    3    3    0    0 -0.11371648175E+03 -0.62058307516E+01  0.18044327616E+03  0.23607356156E+03  0.10100000000E+03 0. -1.
    -200001    1    1    2    0    0  0.21140757087E+03 -0.23932313660E+03 -0.10980737916E+04  0.12974990469E+04  0.61300000000E+03 0.  1.
<mgrwt>
<rscale>  0 0.15327609E+04</rscale>
<asrwt>0</asrwt>
<pdfrwt beam="1">  1        2 0.23872516E+00 0.15327609E+04</pdfrwt>
<pdfrwt beam="2">  1       -2 0.50210499E-01 0.15327609E+04</pdfrwt>
<totfact> 0.43007510E+01</totfact>
</mgrwt>
</event>
<event>
 8    1  0.7583103E-052  0.1336186E+04  0.7818608E-02  0.9001352E-01
         -2   -1    0    0    0  501 -0.00000000000E+00  0.00000000000E+00  0.26966091712E+03  0.26966091714E+03  0.25500000000E-02 0. -1.
          2   -1    0    0  501    0  0.00000000000E+00 -0.00000000000E+00 -0.16552202141E+04  0.16552202141E+04  0.25500000000E-02 0.  1.
     200001    2    1    2    0    0 -0.23168573151E+02  0.19645617817E+03 -0.94868493257E+03  0.11465752640E+04  0.61278048436E+03 0.  0.
    5000001    2    3    3    0    0 -0.20133977998E+03  0.23371905549E+03 -0.86355677488E+03  0.92167238674E+03  0.92668123609E+02 0.  0.
        -13    1    4    4    0    0 -0.12228483227E+03  0.18936639568E+03 -0.56891337954E+03  0.61194416134E+03  0.10566000000E+00 0. -1.
     200003    1    4    4    0    0 -0.79054947711E+02  0.44352659806E+02 -0.29464339535E+03  0.30972822540E+03  0.30000000000E+02 0. -1.
     200000    1    3    3    0    0  0.17817120683E+03 -0.37262877316E+02 -0.85128157684E+02  0.22490287726E+03  0.10100000000E+03 0. -1.
    -200001    1    1    2    0    0  0.23168573151E+02 -0.19645617817E+03 -0.43687436445E+03  0.77830586728E+03  0.61300000000E+03 0. -1.
<mgrwt>
<rscale>  0 0.13361859E+04</rscale>
<asrwt>0</asrwt>
<pdfrwt beam="1">  1        2 0.23646003E+00 0.13361859E+04</pdfrwt>
<pdfrwt beam="2">  1       -2 0.38522989E-01 0.13361859E+04</pdfrwt>
<totfact> 0.75350774E+01</totfact>
</mgrwt>
</event>
<event>
 8    1  0.7583103E-052  0.1261480E+04  0.7818608E-02  0.9060682E-01
          2   -1    0    0  501    0  0.00000000000E+00  0.00000000000E+00  0.16575672098E+04  0.16575672098E+04  0.25500000000E-02 0.  1.
         -2   -1    0    0    0  501 -0.00000000000E+00 -0.00000000000E+00 -0.24001015109E+03  0.24001015111E+03  0.25500000000E-02 0. -1.
     200001    2    1    2    0    0  0.90001874476E+02  0.11158489712E+03  0.75864233235E+03  0.98626559028E+03  0.61370196306E+03 0.  0.
    5000001    2    3    3    0    0  0.11216031065E+00 -0.11936191333E+03  0.67621323639E+03  0.70624390213E+03  0.16513276265E+03 0.  0.
        -13    1    4    4    0    0 -0.51775004883E+02 -0.42628815391E+01  0.37055821479E+03  0.37418207467E+03  0.10566000000E+00 0. -1.
     200003    1    4    4    0    0  0.51887165194E+02 -0.11509903179E+03  0.30565502159E+03  0.33206182746E+03  0.30000000000E+02 0. -1.
     200000    1    3    3    0    0  0.89889714165E+02  0.23094681045E+03  0.82429095959E+02  0.28002168814E+03  0.10100000000E+03 0. -1.
    -200001    1    1    2    0    0 -0.90001874476E+02 -0.11158489712E+03  0.65891472635E+03  0.91131177063E+03  0.61300000000E+03 0.  1.
<mgrwt>
<rscale>  0 0.12614800E+04</rscale>
<asrwt>0</asrwt>
<pdfrwt beam="1">  1        2 0.23679532E+00 0.12614800E+04</pdfrwt>
<pdfrwt beam="2">  1       -2 0.34287164E-01 0.12614800E+04</pdfrwt>
<totfact> 0.94491611E+01</totfact>
</mgrwt>
</event>
<event>
 8    1  0.7583103E-052  0.1304271E+04  0.7818608E-02  0.9026185E-01
          2   -1    0    0  501    0  0.00000000000E+00  0.00000000000E+00  0.19638497680E+04  0.19638497680E+04  0.25500000000E-02 0.  1.
         -2   -1    0    0    0  501 -0.00000000000E+00 -0.00000000000E+00 -0.21655464301E+03  0.21655464302E+03  0.25500000000E-02 0. -1.
     200001    2    1    2    0    0 -0.22711283057E+02  0.15609765882E+03  0.61173728956E+03  0.88034945870E+03  0.61311530443E+03 0.  0.
    5000001    2    3    3    0    0  0.13435819353E+03  0.68596546198E+02  0.63218697130E+03  0.67311419464E+03  0.17511351182E+03 0.  0.
        -13    1    4    4    0    0  0.63982337361E+02  0.83013022339E+02  0.55004798589E+03  0.55994437163E+03  0.10566000000E+00 0. -1.
     200003    1    4    4    0    0  0.70375856168E+02 -0.14416476142E+02  0.82138985412E+02  0.11316982301E+03  0.30000000000E+02 0. -1.
     200000    1    3    3    0    0 -0.15706947659E+03  0.87501112624E+02 -0.20449681746E+02  0.20723526406E+03  0.10100000000E+03 0. -1.
    -200001    1    1    2    0    0  0.22711283057E+02 -0.15609765882E+03  0.11355578355E+04  0.13000549524E+04  0.61300000000E+03 0.  1.
<mgrwt>
<rscale>  0 0.13042711E+04</rscale>
<asrwt>0</asrwt>
<pdfrwt beam="1">  1        2 0.28054999E+00 0.13042711E+04</pdfrwt>
<pdfrwt beam="2">  1       -2 0.30936375E-01 0.13042711E+04</pdfrwt>
<totfact> 0.79490303E+01</totfact>
</mgrwt>
</event>
<event>
 8    1  0.7583103E-052  0.1504598E+04  0.7818608E-02  0.8881401E-01
          2   -1    0    0  501    0  0.00000000000E+00  0.00000000000E+00  0.20536229310E+04  0.20536229310E+04  0.25500000000E-02 0.  1.
         -2   -1    0    0    0  501 -0.00000000000E+00 -0.00000000000E+00 -0.27558796793E+03  0.27558796794E+03  0.25500000000E-02 0. -1.
     200001    2    1    2    0    0  0.31338613403E+03 -0.21421848338E+03  0.55646427097E+03  0.91072424641E+03  0.61291576950E+03 0.  0.
    5000001    2    3    3    0    0  0.65375256761E+02 -0.38550690018E+03  0.36390765273E+03  0.53906826542E+03  0.72638287295E+02 0.  0.
        -13    1    4    4    0    0 -0.11477994111E+02 -0.80132682102E+02  0.64310525779E+02  0.10338687528E+03  0.10566000000E+00 0. -1.
     200003    1    4    4    0    0  0.76853250873E+02 -0.30537421808E+03  0.29959712695E+03  0.43568139014E+03  0.30000000000E+02 0. -1.
     200000    1    3    3    0    0  0.24801087727E+03  0.17128841680E+03  0.19255661824E+03  0.37165598099E+03  0.10100000000E+03 0. -1.
    -200001    1    1    2    0    0 -0.31338613403E+03  0.21421848338E+03  0.12215706921E+04  0.14184866526E+04  0.61300000000E+03 0. -1.
<mgrwt>
<rscale>  0 0.15045980E+04</rscale>
<asrwt>0</asrwt>
<pdfrwt beam="1">  1        2 0.29337471E+00 0.15045980E+04</pdfrwt>
<pdfrwt beam="2">  1       -2 0.39369708E-01 0.15045980E+04</pdfrwt>
<totfact> 0.44427649E+01</totfact>
</mgrwt>
</event>
<event>
 8    1  0.7583103E-052  0.2042217E+04  0.7818608E-02  0.8587133E-01
          2   -1    0    0  501    0  0.00000000000E+00  0.00000000000E+00  0.31081634537E+04  0.31081634537E+04  0.25500000000E-02 0.  1.
         -2   -1    0    0    0  501 -0.00000000000E+00 -0.00000000000E+00 -0.33545948615E+03  0.33545948616E+03  0.25500000000E-02 0. -1.
     200001    2    1    2    0    0 -0.62094581319E+03 -0.52362962534E+03  0.12376410337E+04  0.16018985038E+04  0.61201454296E+03 0.  0.
    5000001    2    3    3    0    0 -0.70372418487E+03 -0.48357776437E+03  0.11609695597E+04  0.14452590283E+04  0.10884924235E+03 0.  0.
        -13    1    4    4    0    0 -0.37326340392E+03 -0.24586614783E+03  0.68886920411E+03  0.82116777999E+03  0.10566000000E+00 0. -1.
     200003    1    4    4    0    0 -0.33046078095E+03 -0.23771161654E+03  0.47210035563E+03  0.62409124827E+03  0.30000000000E+02 0. -1.
     200000    1    3    3    0    0  0.82778371683E+02 -0.40051860967E+02  0.76671473981E+02  0.15663947557E+03  0.10100000000E+03 0. -1.
    -200001    1    1    2    0    0  0.62094581319E+03  0.52362962534E+03  0.15350629338E+04  0.18417244360E+04  0.61300000000E+03 0. -1.
<mgrwt>
<rscale>  0 0.20422173E+04</rscale>
<asrwt>0</asrwt>
<pdfrwt beam="1">  1        2 0.44402331E+00 0.20422173E+04</pdfrwt>
<pdfrwt beam="2">  1       -2 0.47922788E-01 0.20422173E+04</pdfrwt>
<totfact> 0.78641304E+00</totfact>
</mgrwt>
</event>
<event>
 8    1  0.7583103E-052  0.1363386E+04  0.7818608E-02  0.8980756E-01
         -2   -1    0    0    0  501 -0.00000000000E+00  0.00000000000E+00  0.84833881572E+03  0.84833881572E+03  0.25500000000E-02 0. -1.
          2   -1    0    0  501    0  0.00000000000E+00 -0.00000000000E+00 -0.54778296681E+03  0.54778296682E+03  0.25500000000E-02 0.  1.
     200001    2    1    2    0    0  0.65535475990E+02  0.24029034323E+03  0.31988539824E+03  0.73417240445E+03  0.61208504621E+03 0.  0.
    5000001    2    3    3    0    0  0.10528463707E+03 -0.17719148142E+03  0.77120668517E+02  0.23919080508E+03  0.93717489455E+02 0.  0.
        -13    1    4    4    0    0  0.46381755694E+02 -0.80753219762E+02 -0.96038487963E+01  0.93619414861E+02  0.10566000000E+00 0. -1.
     200003    1    4    4    0    0  0.58902881375E+02 -0.96438261660E+02  0.86724517313E+02  0.14557139022E+03  0.30000000000E+02 0. -1.
     200000    1    3    3    0    0 -0.39749161079E+02  0.41748182466E+03  0.24276472972E+03  0.49498159938E+03  0.10100000000E+03 0.  1.
    -200001    1    1    2    0    0 -0.65535475990E+02 -0.24029034323E+03 -0.19329549330E+02  0.66194937808E+03  0.61300000000E+03 0. -1.
<mgrwt>
<rscale>  0 0.13633863E+04</rscale>
<asrwt>0</asrwt>
<pdfrwt beam="1">  1        2 0.78254710E-01 0.13633863E+04</pdfrwt>
<pdfrwt beam="2">  1       -2 0.12119126E+00 0.13633863E+04</pdfrwt>
<totfact> 0.30581434E+01</totfact>
</mgrwt>
</event>
<event>
 8    1  0.7583103E-052  0.1506256E+04  0.7818608E-02  0.8880304E-01
         -2   -1    0    0    0  501 -0.00000000000E+00  0.00000000000E+00  0.11362613149E+04  0.11362613149E+04  0.25500000000E-02 0. -1.
          2   -1    0    0  501    0  0.00000000000E+00 -0.00000000000E+00 -0.49918230141E+03  0.49918230141E+03  0.25500000000E-02 0.  1.
     200001    2    1    2    0    0  0.13831256613E+03  0.23784922393E+03 -0.45363794997E+02  0.67773812603E+03  0.61771229088E+03 0.  0.
    5000001    2    3    3    0    0 -0.30354687497E+02  0.38774837713E+03 -0.12438343198E+03  0.41819332912E+03  0.90245284333E+02 0.  0.
        -13    1    4    4    0    0  0.27657053010E+02  0.14444647476E+03 -0.38291624268E+02  0.15197353817E+03  0.10566000000E+00 0. -1.
     200003    1    4    4    0    0 -0.58011740507E+02  0.24330190238E+03 -0.86091807711E+02  0.26621979095E+03  0.30000000000E+02 0. -1.
     200000    1    3    3    0    0  0.16866725363E+03 -0.14989915320E+03  0.79019636981E+02  0.25954479691E+03  0.10100000000E+03 0.  1.
    -200001    1    1    2    0    0 -0.13831256613E+03 -0.23784922393E+03  0.68244280852E+03  0.95770549031E+03  0.61300000000E+03 0. -1.
<mgrwt>
<rscale>  0 0.15062557E+04</rscale>
<asrwt>0</asrwt>
<pdfrwt beam="1">  1        2 0.71311759E-01 0.15062557E+04</pdfrwt>
<pdfrwt beam="2">  1       -2 0.16232304E+00 0.15062557E+04</pdfrwt>
<totfact> 0.15749177E+01</totfact>
</mgrwt>
</event>
<event>
 8    1  0.7583103E-052  0.1500287E+04  0.7818608E-02  0.8884262E-01
          2   -1    0    0  501    0  0.00000000000E+00  0.00000000000E+00  0.20157365838E+04  0.20157365838E+04  0.25500000000E-02 0.  1.
         -2   -1    0    0    0  501 -0.00000000000E+00 -0.00000000000E+00 -0.27916094537E+03  0.27916094538E+03  0.25500000000E-02 0. -1.
     200001    2    1    2    0    0  0.38914205659E+03 -0.15966658596E+03  0.10262991469E+04  0.12667017048E+04  0.61181558587E+03 0.  0.
    5000001    2    3    3    0    0  0.40701213255E+03 -0.12141853878E+03  0.10556475648E+04  0.11533677630E+04  0.18831908585E+03 0.  0.
        -13    1    4    4    0    0  0.59240359968E+02 -0.72602708751E+02  0.37916612547E+03  0.39057334194E+03  0.10566000000E+00 0. -1.
     200003    1    4    4    0    0  0.34777177258E+03 -0.48815830028E+02  0.67648143936E+03  0.76279442110E+03  0.30000000000E+02 0. -1.
     200000    1    3    3    0    0 -0.17870075958E+02 -0.38248047177E+02 -0.29348417888E+02  0.11333394178E+03  0.10100000000E+03 0. -1.
    -200001    1    1    2    0    0 -0.38914205659E+03  0.15966658596E+03  0.71027649152E+03  0.10281958244E+04  0.61300000000E+03 0. -1.
<mgrwt>
<rscale>  0 0.15002865E+04</rscale>
<asrwt>0</asrwt>
<pdfrwt beam="1">  1        2 0.28796236E+00 0.15002865E+04</pdfrwt>
<pdfrwt beam="2">  1       -2 0.39880136E-01 0.15002865E+04</pdfrwt>
<totfact> 0.45326481E+01</totfact>
</mgrwt>
</event>
<event>
 8    1  0.7583103E-052  0.1376309E+04  0.7818608E-02  0.8971148E-01
          2   -1    0    0  501    0  0.00000000000E+00  0.00000000000E+00  0.17215010904E+04  0.17215010904E+04  0.25500000000E-02 0.  1.
         -2   -1    0    0    0  501 -0.00000000000E+00 -0.00000000000E+00 -0.27508338609E+03  0.27508338610E+03  0.25500000000E-02 0. -1.
     200001    2    1    2    0    0 -0.34552792935E+02  0.28948001203E+03  0.87457633147E+03  0.11090237019E+04  0.61648782553E+03 0.  0.
    5000001    2    3    3    0    0 -0.22430338350E+03  0.88550652868E+02  0.21144031881E+03  0.38353885352E+03  0.21033739032E+03 0.  0.
        -13    1    4    4    0    0 -0.13990358881E+03 -0.26409148049E+02  0.18816003683E+03  0.23595480052E+03  0.10566000000E+00 0. -1.
     200003    1    4    4    0    0 -0.84399794693E+02  0.11495980092E+03  0.23280281973E+02  0.14758405300E+03  0.30000000000E+02 0. -1.
     200000    1    3    3    0    0  0.18975059057E+03  0.20092935916E+03  0.66313601266E+03  0.72548484842E+03  0.10100000000E+03 0.  1.
    -200001    1    1    2    0    0  0.34552792935E+02 -0.28948001203E+03  0.57184137287E+03  0.88756077459E+03  0.61300000000E+03 0. -1.
<mgrwt>
<rscale>  0 0.13763086E+04</rscale>
<asrwt>0</asrwt>
<pdfrwt beam="1">  1        2 0.24592873E+00 0.13763086E+04</pdfrwt>
<pdfrwt beam="2">  1       -2 0.39297626E-01 0.13763086E+04</pdfrwt>
<totfact> 0.66762731E+01</totfact>
</mgrwt>
</event>
<event>
 8    1  0.7583103E-052  0.1421290E+04  0.7818608E-02  0.8938551E-01
          2   -1    0    0  501    0  0.00000000000E+00  0.00000000000E+00  0.15696046074E+04  0.15696046074E+04  0.25500000000E-02 0.  1.
         -2   -1    0    0    0  501 -0.00000000000E+00 -0.00000000000E+00 -0.32174729298E+03  0.32174729299E+03  0.25500000000E-02 0. -1.
     200001    2    1    2    0    0 -0.11787795396E+03 -0.28400638934E+02  0.10730964146E+04  0.12424973863E+04  0.61446076483E+03 0.  0.
    5000001    2    3    3    0    0  0.22524981326E+02  0.23944340042E+03  0.23019542594E+03  0.34131122883E+03  0.75252269139E+02 0.  0.
        -13    1    4    4    0    0  0.14967409354E+02  0.76110006702E+02  0.11631835770E+03  0.13980961328E+03  0.10566000000E+00 0. -1.
     200003    1    4    4    0    0  0.75575719722E+01  0.16333339372E+03  0.11387706824E+03  0.20150161555E+03  0.30000000000E+02 0.  1.
     200000    1    3    3    0    0 -0.14040293529E+03 -0.26784403936E+03  0.84290098870E+03  0.90118615747E+03  0.10100000000E+03 0.  1.
    -200001    1    1    2    0    0  0.11787795396E+03  0.28400638934E+02  0.17476089973E+03  0.64885451405E+03  0.61300000000E+03 0. -1.
<mgrwt>
<rscale>  0 0.14212896E+04</rscale>
<asrwt>0</asrwt>
<pdfrwt beam="1">  1        2 0.22422924E+00 0.14212896E+04</pdfrwt>
<pdfrwt beam="2">  1       -2 0.45963898E-01 0.14212896E+04</pdfrwt>
<totfact> 0.58607759E+01</totfact>
</mgrwt>
</event>
<event>
 8    1  0.7583103E-052  0.2420161E+04  0.7818608E-02  0.8431994E-01
         -2   -1    0    0    0  501 -0.00000000000E+00  0.00000000000E+00  0.99484603443E+03  0.99484603444E+03  0.25500000000E-02 0. -1.
          2   -1    0    0  501    0  0.00000000000E+00 -0.00000000000E+00 -0.14718812842E+04  0.14718812842E+04  0.25500000000E-02 0.  1.
     200001    2    1    2    0    0 -0.34025846796E+03 -0.11135279647E+03  0.76091360817E+03  0.10396808425E+04  0.61136851800E+03 0.  0.
    5000001    2    3    3    0    0 -0.24514262984E+03  0.99312386766E+02  0.69382277851E+02  0.30358069786E+03  0.13186917951E+03 0.  0.
        -13    1    4    4    0    0 -0.16452240135E+03  0.10445506699E+03  0.90480467110E+02  0.21486090305E+03  0.10566000000E+00 0. -1.
     200003    1    4    4    0    0 -0.80620228487E+02 -0.51426802238E+01 -0.21098189259E+02  0.88719794811E+02  0.30000000000E+02 0. -1.
     200000    1    3    3    0    0 -0.95115838122E+02 -0.21066518323E+03  0.69153133032E+03  0.73610014461E+03  0.10100000000E+03 0. -1.
    -200001    1    1    2    0    0  0.34025846796E+03  0.11135279647E+03 -0.12379488580E+04  0.14270464762E+04  0.61300000000E+03 0.  1.
<mgrwt>
<rscale>  0 0.24201614E+04</rscale>
<asrwt>0</asrwt>
<pdfrwt beam="1">  1        2 0.21026876E+00 0.24201614E+04</pdfrwt>
<pdfrwt beam="2">  1       -2 0.14212086E+00 0.24201614E+04</pdfrwt>
<totfact> 0.47195230E+00</totfact>
</mgrwt>
</event>
<event>
 8    1  0.7583103E-052  0.2018044E+04  0.7818608E-02  0.8598231E-01
         -2   -1    0    0    0  501 -0.00000000000E+00  0.00000000000E+00  0.43751425085E+03  0.43751425086E+03  0.25500000000E-02 0. -1.
          2   -1    0    0  501    0  0.00000000000E+00 -0.00000000000E+00 -0.23270686589E+04  0.23270686589E+04  0.25500000000E-02 0.  1.
     200001    2    1    2    0    0  0.75564347898E+03 -0.24799252166E+03 -0.85893160568E+03  0.13256771731E+04  0.62222110702E+03 0.  0.
    5000001    2    3    3    0    0  0.53482451628E+03 -0.40055433360E+03 -0.77311888193E+03  0.10263430048E+04  0.95844251952E+02 0.  0.
        -13    1    4    4    0    0  0.42580468851E+03 -0.33620131282E+03 -0.58769609796E+03  0.79982977578E+03  0.10566000000E+00 0. -1.
     200003    1    4    4    0    0  0.10901982776E+03 -0.64353020781E+02 -0.18542278397E+03  0.22651322907E+03  0.30000000000E+02 0. -1.
     200000    1    3    3    0    0  0.22081896270E+03  0.15256181193E+03 -0.85812723754E+02  0.29933416829E+03  0.10100000000E+03 0. -1.
    -200001    1    1    2    0    0 -0.75564347898E+03  0.24799252166E+03 -0.10306228024E+04  0.14389057366E+04  0.61300000000E+03 0.  1.
<mgrwt>
<rscale>  0 0.20180443E+04</rscale>
<asrwt>0</asrwt>
<pdfrwt beam="1">  1        2 0.33243838E+00 0.20180443E+04</pdfrwt>
<pdfrwt beam="2">  1       -2 0.62502037E-01 0.20180443E+04</pdfrwt>
<totfact> 0.12010891E+01</totfact>
</mgrwt>
</event>
<event>
 8    1  0.7583103E-052  0.1646796E+04  0.7818608E-02  0.8792304E-01
         -2   -1    0    0    0  501 -0.00000000000E+00  0.00000000000E+00  0.29852855412E+03  0.29852855413E+03  0.25500000000E-02 0. -1.
          2   -1    0    0  501    0  0.00000000000E+00 -0.00000000000E+00 -0.22710867364E+04  0.22710867364E+04  0.25500000000E-02 0.  1.
     200001    2    1    2    0    0  0.24148495734E+02  0.15241243990E+03 -0.15963549794E+03  0.64964905097E+03  0.61053066716E+03 0.  0.
    5000001    2    3    3    0    0  0.85877489032E+02  0.17769299872E+02  0.20773024047E+03  0.24087303708E+03  0.84718805751E+02 0.  0.
        -13    1    4    4    0    0  0.51167572334E+01 -0.73588630874E+01  0.10113212451E+03  0.10152857648E+03  0.10566000000E+00 0. -1.
     200003    1    4    4    0    0  0.80760731798E+02  0.25128162960E+02  0.10659811596E+03  0.13934446060E+03  0.30000000000E+02 0. -1.
     200000    1    3    3    0    0 -0.61728993298E+02  0.13464314003E+03 -0.36736573841E+03  0.40877601389E+03  0.10100000000E+03 0.  1.
    -200001    1    1    2    0    0 -0.24148495734E+02 -0.15241243990E+03 -0.18129226844E+04  0.19199662396E+04  0.61300000000E+03 0.  1.
<mgrwt>
<rscale>  0 0.16467960E+04</rscale>
<asrwt>0</asrwt>
<pdfrwt beam="1">  1        2 0.32444095E+00 0.16467960E+04</pdfrwt>
<pdfrwt beam="2">  1       -2 0.42646938E-01 0.16467960E+04</pdfrwt>
<totfact> 0.29003027E+01</totfact>
</mgrwt>
</event>
<event>
 8    1  0.7583103E-052  0.1444468E+04  0.7818608E-02  0.8922245E-01
         -2   -1    0    0    0  501 -0.00000000000E+00  0.00000000000E+00  0.71659919883E+03  0.71659919884E+03  0.25500000000E-02 0. -1.
          2   -1    0    0  501    0  0.00000000000E+00 -0.00000000000E+00 -0.72791333741E+03  0.72791333741E+03  0.25500000000E-02 0.  1.
     200001    2    1    2    0    0  0.37691843172E+03  0.61534115354E+02 -0.80062435922E+01  0.72227026825E+03  0.61298963200E+03 0.  0.
    5000001    2    3    3    0    0  0.43308088959E+03  0.22501301633E+03  0.82798948999E+02  0.50243816017E+03  0.86014675475E+02 0.  0.
        -13    1    4    4    0    0  0.29356309120E+03  0.17667306648E+03  0.79509074536E+02  0.35173052900E+03  0.10566000000E+00 0. -1.
     200003    1    4    4    0    0  0.13951779839E+03  0.48339949848E+02  0.32898744627E+01  0.15070763117E+03  0.30000000000E+02 0. -1.
     200000    1    3    3    0    0 -0.56162457871E+02 -0.16347890098E+03 -0.90805192591E+02  0.21983210807E+03  0.10100000000E+03 0.  1.
    -200001    1    1    2    0    0 -0.37691843172E+03 -0.61534115354E+02 -0.33078949837E+01  0.72224226800E+03  0.61300000000E+03 0.  1.
<mgrwt>
<rscale>  0 0.14444682E+04</rscale>
<asrwt>0</asrwt>
<pdfrwt beam="1">  1        2 0.10398762E+00 0.14444682E+04</pdfrwt>
<pdfrwt beam="2">  1       -2 0.10237131E+00 0.14444682E+04</pdfrwt>
<totfact> 0.32551165E+01</totfact>
</mgrwt>
</event>
<event>
 8    1  0.7583103E-052  0.2372200E+04  0.7818608E-02  0.8449985E-01
         -2   -1    0    0    0  501 -0.00000000000E+00  0.00000000000E+00  0.92895012899E+03  0.92895012900E+03  0.25500000000E-02 0. -1.
          2   -1    0    0  501    0  0.00000000000E+00 -0.00000000000E+00 -0.15144340443E+04  0.15144340443E+04  0.25500000000E-02 0.  1.
     200001    2    1    2    0    0  0.18343040731E+03 -0.27450230854E+03 -0.12818518583E+04  0.14586529695E+04  0.61280181718E+03 0.  0.
    5000001    2    3    3    0    0  0.24188933627E+03 -0.77780407231E+01 -0.16891774494E+03  0.30826928479E+03  0.89026953623E+02 0.  0.
        -13    1    4    4    0    0  0.75970970465E+02  0.27395834246E+02 -0.82942124432E+02  0.11576496558E+03  0.10566000000E+00 0. -1.
     200003    1    4    4    0    0  0.16591836580E+03 -0.35173874969E+02 -0.85975620509E+02  0.19250431920E+03  0.30000000000E+02 0. -1.
     200000    1    3    3    0    0 -0.58458928952E+02 -0.26672426781E+03 -0.11129341133E+04  0.11503836847E+04  0.10100000000E+03 0.  1.
    -200001    1    1    2    0    0 -0.18343040731E+03  0.27450230854E+03  0.69636794298E+03  0.98473120379E+03  0.61300000000E+03 0. -1.
<mgrwt>
<rscale>  0 0.23722004E+04</rscale>
<asrwt>0</asrwt>
<pdfrwt beam="1">  1        2 0.21634772E+00 0.23722004E+04</pdfrwt>
<pdfrwt beam="2">  1       -2 0.13270716E+00 0.23722004E+04</pdfrwt>
<totfact> 0.53654599E+00</totfact>
</mgrwt>
</event>
<event>
 8    1  0.7583103E-052  0.2017338E+04  0.7818608E-02  0.8598557E-01
         -2   -1    0    0    0  501 -0.00000000000E+00  0.00000000000E+00  0.42049966982E+03  0.42049966983E+03  0.25500000000E-02 0. -1.
          2   -1    0    0  501    0  0.00000000000E+00 -0.00000000000E+00 -0.24195331453E+04  0.24195331453E+04  0.25500000000E-02 0.  1.
     200001    2    1    2    0    0  0.77590693638E+03  0.18973164632E+03 -0.10791570979E+04  0.14762251962E+04  0.61370279153E+03 0.  0.
    5000001    2    3    3    0    0 -0.31843589408E+02  0.16583872108E+03 -0.22038787520E+03  0.29270613776E+03  0.92679943613E+02 0.  0.
        -13    1    4    4    0    0  0.73342112239E+01  0.41947383403E+02 -0.11532274423E+03  0.12293380385E+03  0.10566000000E+00 0. -1.
     200003    1    4    4    0    0 -0.39177800631E+02  0.12389133767E+03 -0.10506513098E+03  0.16977233391E+03  0.30000000000E+02 0. -1.
     200000    1    3    3    0    0  0.80775052579E+03  0.23892925245E+02 -0.85876922267E+03  0.11835190584E+04  0.10100000000E+03 0. -1.
    -200001    1    1    2    0    0 -0.77590693638E+03 -0.18973164632E+03 -0.91987637764E+03  0.13638076190E+04  0.61300000000E+03 0. -1.
<mgrwt>
<rscale>  0 0.20173377E+04</rscale>
<asrwt>0</asrwt>
<pdfrwt beam="1">  1        2 0.34564758E+00 0.20173377E+04</pdfrwt>
<pdfrwt beam="2">  1       -2 0.60071383E-01 0.20173377E+04</pdfrwt>
<totfact> 0.11691529E+01</totfact>
</mgrwt>
</event>
<event>
 8    1  0.7583103E-052  0.1672129E+04  0.7818608E-02  0.8777422E-01
          2   -1    0    0  501    0  0.00000000000E+00  0.00000000000E+00  0.17812525952E+04  0.17812525952E+04  0.25500000000E-02 0.  1.
         -2   -1    0    0    0  501 -0.00000000000E+00 -0.00000000000E+00 -0.39242245714E+03  0.39242245715E+03  0.25500000000E-02 0. -1.
     200001    2    1    2    0    0 -0.28808123469E+03 -0.12038944758E+03  0.76339550688E+02  0.69182318431E+03  0.61262319127E+03 0.  0.
    5000001    2    3    3    0    0  0.70983707955E+02 -0.10923643812E+03 -0.17794180703E+03  0.24025698591E+03  0.95335441349E+02 0.  0.
        -13    1    4    4    0    0  0.67908454135E+02 -0.29623664169E+02 -0.10272889244E+03  0.12665842304E+03  0.10566000000E+00 0. -1.
     200003    1    4    4    0    0  0.30752538207E+01 -0.79612773956E+02 -0.75212914594E+02  0.11359856286E+03  0.30000000000E+02 0. -1.
     200000    1    3    3    0    0 -0.35906494264E+03 -0.11153009454E+02  0.25428135772E+03  0.45156619840E+03  0.10100000000E+03 0. -1.
    -200001    1    1    2    0    0  0.28808123469E+03  0.12038944758E+03  0.13124905874E+04  0.14818518680E+04  0.61300000000E+03 0.  1.
<mgrwt>
<rscale>  0 0.16721286E+04</rscale>
<asrwt>0</asrwt>
<pdfrwt beam="1">  1        2 0.25446466E+00 0.16721286E+04</pdfrwt>
<pdfrwt beam="2">  1       -2 0.56060350E-01 0.16721286E+04</pdfrwt>
<totfact> 0.29715642E+01</totfact>
</mgrwt>
</event>
<event>
 8    1  0.7583103E-052  0.1670594E+04  0.7818608E-02  0.8778316E-01
          2   -1    0    0  501    0  0.00000000000E+00  0.00000000000E+00  0.11981991631E+04  0.11981991631E+04  0.25500000000E-02 0.  1.
         -2   -1    0    0    0  501 -0.00000000000E+00 -0.00000000000E+00 -0.58230814667E+03  0.58230814668E+03  0.25500000000E-02 0. -1.
     200001    2    1    2    0    0  0.56719213105E+03 -0.29599031747E+01  0.31478342668E+03  0.89272892802E+03  0.61331937737E+03 0.  0.
    5000001    2    3    3    0    0  0.15149516222E+03  0.25403583957E+03  0.10299256177E+02  0.30812445338E+03  0.85729878837E+02 0.  0.
        -13    1    4    4    0    0  0.36704973867E+02  0.11346400085E+03 -0.22268753413E+02  0.12131464519E+03  0.10566000000E+00 0. -1.
     200003    1    4    4    0    0  0.11479018836E+03  0.14057183872E+03  0.32568009590E+02  0.18680980819E+03  0.30000000000E+02 0. -1.
     200000    1    3    3    0    0  0.41569696883E+03 -0.25699574275E+03  0.30448417050E+03  0.58460447464E+03  0.10100000000E+03 0. -1.
    -200001    1    1    2    0    0 -0.56719213105E+03  0.29599031747E+01  0.30110758977E+03  0.88777838179E+03  0.61300000000E+03 0.  1.
<mgrwt>
<rscale>  0 0.16705941E+04</rscale>
<asrwt>0</asrwt>
<pdfrwt beam="1">  1        2 0.17117131E+00 0.16705941E+04</pdfrwt>
<pdfrwt beam="2">  1       -2 0.83186879E-01 0.16705941E+04</pdfrwt>
<totfact> 0.25923628E+01</totfact>
</mgrwt>
</event>
<event>
 8    1  0.7583103E-052  0.1963573E+04  0.7818608E-02  0.8623843E-01
          2   -1    0    0  501    0  0.00000000000E+00  0.00000000000E+00  0.89523516405E+03  0.89523516406E+03  0.25500000000E-02 0.  1.
         -2   -1    0    0    0  501 -0.00000000000E+00 -0.00000000000E+00 -0.10767060200E+04  0.10767060200E+04  0.25500000000E-02 0. -1.
     200001    2    1    2    0    0 -0.13385439240E+03  0.21955482215E+03 -0.81627754560E+03  0.10527731626E+04  0.61310764321E+03 0.  0.
    5000001    2    3    3    0    0 -0.10489088218E+03  0.28995854024E+02 -0.82368585976E+03  0.83504055509E+03  0.83615048601E+02 0.  0.
        -13    1    4    4    0    0 -0.81185076480E+02  0.36423298879E+02 -0.41106963418E+03  0.42058997689E+03  0.10566000000E+00 0. -1.
     200003    1    4    4    0    0 -0.23705805698E+02 -0.74274448550E+01 -0.41261622558E+03  0.41445057820E+03  0.30000000000E+02 0.  1.
     200000    1    3    3    0    0 -0.28963510224E+02  0.19055896813E+03  0.74083141669E+01  0.21773260752E+03  0.10100000000E+03 0.  1.
    -200001    1    1    2    0    0  0.13385439240E+03 -0.21955482215E+03  0.63480668969E+03  0.91916802141E+03  0.61300000000E+03 0.  1.
<mgrwt>
<rscale>  0 0.19635734E+04</rscale>
<asrwt>0</asrwt>
<pdfrwt beam="1">  1        2 0.12789074E+00 0.19635734E+04</pdfrwt>
<pdfrwt beam="2">  1       -2 0.15381515E+00 0.19635734E+04</pdfrwt>
<totfact> 0.85816274E+00</totfact>
</mgrwt>
</event>
<event>
 8    1  0.7583103E-052  0.1614602E+04  0.7818608E-02  0.8811628E-01
          2   -1    0    0  501    0  0.00000000000E+00  0.00000000000E+00  0.18566645859E+04  0.18566645859E+04  0.25500000000E-02 0.  1.
         -2   -1    0    0    0  501 -0.00000000000E+00 -0.00000000000E+00 -0.35102445055E+03  0.35102445056E+03  0.25500000000E-02 0. -1.
     200001    2    1    2    0    0  0.20409038988E+03 -0.26828912324E+03  0.20150949104E+03  0.72777090416E+03  0.61270912600E+03 0.  0.
    5000001    2    3    3    0    0  0.36868421589E+03 -0.20503047770E+03 -0.16480644112E+02  0.42975499381E+03  0.80325557840E+02 0.  0.
        -13    1    4    4    0    0  0.30126161273E+03 -0.15335949441E+03 -0.26634092406E+02  0.33909744894E+03  0.10566000000E+00 0. -1.
     200003    1    4    4    0    0  0.67422603160E+02 -0.51670983288E+02  0.10153448294E+02  0.90657544877E+02  0.30000000000E+02 0.  1.
     200000    1    3    3    0    0 -0.16459382601E+03 -0.63258645536E+02  0.21799013515E+03  0.29801591035E+03  0.10100000000E+03 0.  1.
    -200001    1    1    2    0    0 -0.20409038988E+03  0.26828912324E+03  0.13041306443E+04  0.14799181323E+04  0.61300000000E+03 0.  1.
<mgrwt>
<rscale>  0 0.16146017E+04</rscale>
<asrwt>0</asrwt>
<pdfrwt beam="1">  1        2 0.26523779E+00 0.16146017E+04</pdfrwt>
<pdfrwt beam="2">  1       -2 0.50146351E-01 0.16146017E+04</pdfrwt>
<totfact> 0.34340413E+01</totfact>
</mgrwt>
</event>
<event>
 8    1  0.7583103E-052  0.1651773E+04  0.7818608E-02  0.8789358E-01
         -2   -1    0    0    0  501 -0.00000000000E+00  0.00000000000E+00  0.44060989245E+03  0.44060989246E+03  0.25500000000E-02 0. -1.
          2   -1    0    0  501    0  0.00000000000E+00 -0.00000000000E+00 -0.15480548069E+04  0.15480548069E+04  0.25500000000E-02 0.  1.
     200001    2    1    2    0    0  0.51687146571E+03  0.19611137205E+03 -0.52169579982E+03  0.97649534220E+03  0.61299336331E+03 0.  0.
    5000001    2    3    3    0    0  0.46035706762E+03  0.23597018236E+03 -0.91232932047E+02  0.52896670346E+03  0.62223539100E+02 0.  0.
        -13    1    4    4    0    0  0.35362676477E+03  0.18236452765E+03 -0.68055103298E+02  0.40365854129E+03  0.10566000000E+00 0. -1.
     200003    1    4    4    0    0  0.10673030285E+03  0.53605654708E+02 -0.23177828749E+02  0.12530816218E+03  0.30000000000E+02 0.  1.
     200000    1    3    3    0    0  0.56514398092E+02 -0.39858810310E+02 -0.43046286778E+03  0.44752863873E+03  0.10100000000E+03 0.  1.
    -200001    1    1    2    0    0 -0.51687146571E+03 -0.19611137205E+03 -0.58574911463E+03  0.10121693572E+04  0.61300000000E+03 0.  1.
<mgrwt>
<rscale>  0 0.16517727E+04</rscale>
<asrwt>0</asrwt>
<pdfrwt beam="1">  1        2 0.22115068E+00 0.16517727E+04</pdfrwt>
<pdfrwt beam="2">  1       -2 0.62944271E-01 0.16517727E+04</pdfrwt>
<totfact> 0.30861203E+01</totfact>
</mgrwt>
</event>
<event>
 8    1  0.7583103E-052  0.1913353E+04  0.7818608E-02  0.8648238E-01
         -2   -1    0    0    0  501 -0.00000000000E+00  0.00000000000E+00  0.11390657520E+04  0.11390657520E+04  0.25500000000E-02 0. -1.
          2   -1    0    0  501    0  0.00000000000E+00 -0.00000000000E+00 -0.80349209821E+03  0.80349209822E+03  0.25500000000E-02 0.  1.
     200001    2    1    2    0    0  0.27167541032E+03  0.67105459876E+03  0.29380728520E+03  0.99301310002E+03  0.61288701478E+03 0.  0.
    5000001    2    3    3    0    0 -0.14171901660E+02  0.20682666600E+03  0.37050124594E+03  0.43328171539E+03  0.86508722582E+02 0.  0.
        -13    1    4    4    0    0 -0.33745474956E+02  0.15295576580E+03  0.29376136958E+03  0.33291136477E+03  0.10566000000E+00 0. -1.
     200003    1    4    4    0    0  0.19573573296E+02  0.53870900198E+02  0.76739876362E+02  0.10037035062E+03  0.30000000000E+02 0.  1.
     200000    1    3    3    0    0  0.28584731198E+03  0.46422793276E+03 -0.76693960741E+02  0.55973138463E+03  0.10100000000E+03 0.  1.
    -200001    1    1    2    0    0 -0.27167541032E+03 -0.67105459876E+03  0.41766368598E+02  0.94954475021E+03  0.61300000000E+03 0.  1.
<mgrwt>
<rscale>  0 0.19133534E+04</rscale>
<asrwt>0</asrwt>
<pdfrwt beam="1">  1        2 0.11478459E+00 0.19133534E+04</pdfrwt>
<pdfrwt beam="2">  1       -2 0.16272368E+00 0.19133534E+04</pdfrwt>
<totfact> 0.85313557E+00</totfact>
</mgrwt>
</event>
<event>
 8    1  0.7583103E-052  0.1817647E+04  0.7818608E-02  0.8696971E-01
          2   -1    0    0  501    0  0.00000000000E+00  0.00000000000E+00  0.14488765326E+04  0.14488765326E+04  0.25500000000E-02 0.  1.
         -2   -1    0    0    0  501 -0.00000000000E+00 -0.00000000000E+00 -0.57006944113E+03  0.57006944113E+03  0.25500000000E-02 0. -1.
     200001    2    1    2    0    0  0.54478032393E+03 -0.25540883653E+03  0.76833426117E+03  0.11529248878E+04  0.61390470338E+03 0.  0.
    5000001    2    3    3    0    0  0.46973617712E+03  0.51514392512E+01  0.70972744336E+03  0.85769778810E+03  0.10608411017E+03 0.  0.
        -13    1    4    4    0    0  0.52668757353E+02 -0.23216850100E+02  0.50756253012E+02  0.76741309043E+02  0.10566000000E+00 0. -1.
     200003    1    4    4    0    0  0.41706741977E+03  0.28368289351E+02  0.65897119035E+03  0.78095647906E+03  0.30000000000E+02 0. -1.
     200000    1    3    3    0    0  0.75044146809E+02 -0.26056027579E+03  0.58606817812E+02  0.29522709967E+03  0.10100000000E+03 0.  1.
    -200001    1    1    2    0    0 -0.54478032393E+03  0.25540883653E+03  0.11047283031E+03  0.86602108598E+03  0.61300000000E+03 0. -1.
<mgrwt>
<rscale>  0 0.18176471E+04</rscale>
<asrwt>0</asrwt>
<pdfrwt beam="1">  1        2 0.20698236E+00 0.18176471E+04</pdfrwt>
<pdfrwt beam="2">  1       -2 0.81438491E-01 0.18176471E+04</pdfrwt>
<totfact> 0.19552885E+01</totfact>
</mgrwt>
</event>
<event>
 8    1  0.7583103E-052  0.1451360E+04  0.7818608E-02  0.8917459E-01
         -2   -1    0    0    0  501 -0.00000000000E+00  0.00000000000E+00  0.13028662787E+04  0.13028662787E+04  0.25500000000E-02 0. -1.
          2   -1    0    0  501    0  0.00000000000E+00 -0.00000000000E+00 -0.40419429399E+03  0.40419429400E+03  0.25500000000E-02 0.  1.
     200001    2    1    2    0    0 -0.18365797346E+03  0.70983059502E+02  0.84348313865E+03  0.10608534429E+04  0.61251724558E+03 0.  0.
    5000001    2    3    3    0    0 -0.26866154373E+03  0.11086629494E+03  0.14268814231E+03  0.34661895314E+03  0.12375149410E+03 0.  0.
        -13    1    4    4    0    0 -0.74542790910E+02  0.42087140310E+02  0.10440116042E+03  0.13500951269E+03  0.10566000000E+00 0. -1.
     200003    1    4    4    0    0 -0.19411875282E+03  0.68779154627E+02  0.38286981885E+02  0.21160944045E+03  0.30000000000E+02 0. -1.
     200000    1    3    3    0    0  0.85003570266E+02 -0.39883235435E+02  0.70079499635E+03  0.71423448974E+03  0.10100000000E+03 0. -1.
    -200001    1    1    2    0    0  0.18365797346E+03 -0.70983059502E+02  0.55188846091E+02  0.64620712986E+03  0.61300000000E+03 0.  1.
<mgrwt>
<rscale>  0 0.14513595E+04</rscale>
<asrwt>0</asrwt>
<pdfrwt beam="1">  1        2 0.57742042E-01 0.14513595E+04</pdfrwt>
<pdfrwt beam="2">  1       -2 0.18612376E+00 0.14513595E+04</pdfrwt>
<totfact> 0.13654951E+01</totfact>
</mgrwt>
</event>
<event>
 8    1  0.7583103E-052  0.1460911E+04  0.7818608E-02  0.8910871E-01
         -2   -1    0    0    0  501 -0.00000000000E+00  0.00000000000E+00  0.27340510917E+03  0.27340510919E+03  0.25500000000E-02 0. -1.
          2   -1    0    0  501    0  0.00000000000E+00 -0.00000000000E+00 -0.19515548610E+04  0.19515548610E+04  0.25500000000E-02 0.  1.
     200001    2    1    2    0    0 -0.11074749713E+03  0.19301864363E+03 -0.13379889006E+04  0.14894332136E+04  0.61536639072E+03 0.  0.
    5000001    2    3    3    0    0 -0.39811195379E+02  0.39356676293E+03 -0.97779123646E+03  0.10590904847E+04  0.95484158888E+02 0.  0.
        -13    1    4    4    0    0 -0.41421190491E+02  0.18288545026E+03 -0.55384369166E+03  0.58472698663E+03  0.10566000000E+00 0. -1.
     200003    1    4    4    0    0  0.16099951117E+01  0.21068131267E+03 -0.42394754480E+03  0.47436349810E+03  0.30000000000E+02 0. -1.
     200000    1    3    3    0    0 -0.70936301753E+02 -0.20054811930E+03 -0.36019766410E+03  0.43034272886E+03  0.10100000000E+03 0.  1.
    -200001    1    1    2    0    0  0.11074749713E+03 -0.19301864363E+03 -0.34016085124E+03  0.73552675657E+03  0.61300000000E+03 0. -1.
<mgrwt>
<rscale>  0 0.14609108E+04</rscale>
<asrwt>0</asrwt>
<pdfrwt beam="1">  1        2 0.27879354E+00 0.14609108E+04</pdfrwt>
<pdfrwt beam="2">  1       -2 0.39057874E-01 0.14609108E+04</pdfrwt>
<totfact> 0.51086468E+01</totfact>
</mgrwt>
</event>
<event>
 8    1  0.7583103E-052  0.1338146E+04  0.7818608E-02  0.8999851E-01
          2   -1    0    0  501    0  0.00000000000E+00  0.00000000000E+00  0.82919853642E+03  0.82919853642E+03  0.25500000000E-02 0.  1.
         -2   -1    0    0    0  501 -0.00000000000E+00 -0.00000000000E+00 -0.53986878670E+03  0.53986878671E+03  0.25500000000E-02 0. -1.
     200001    2    1    2    0    0 -0.18877393855E+03 -0.82265412876E+02  0.31938738758E+03  0.72170679018E+03  0.61355455309E+03 0.  0.
    5000001    2    3    3    0    0 -0.33316446262E+03 -0.11504737132E+03  0.64836653669E+02  0.41038644652E+03  0.19994696053E+03 0.  0.
        -13    1    4    4    0    0 -0.78269494661E+02 -0.37777700859E+02 -0.68837532751E+02  0.11086877629E+03  0.10566000000E+00 0. -1.
     200003    1    4    4    0    0 -0.25489496796E+03 -0.77269670463E+02  0.13367418642E+03  0.29951767023E+03  0.30000000000E+02 0. -1.
     200000    1    3    3    0    0  0.14439052408E+03  0.32781958447E+02  0.25455073391E+03  0.31132034366E+03  0.10100000000E+03 0.  1.
    -200001    1    1    2    0    0  0.18877393855E+03  0.82265412876E+02 -0.30057637865E+02  0.64736053295E+03  0.61300000000E+03 0.  1.
<mgrwt>
<rscale>  0 0.13381456E+04</rscale>
<asrwt>0</asrwt>
<pdfrwt beam="1">  1        2 0.11845693E+00 0.13381456E+04</pdfrwt>
<pdfrwt beam="2">  1       -2 0.77124113E-01 0.13381456E+04</pdfrwt>
<totfact> 0.53299368E+01</totfact>
</mgrwt>
</event>
<event>
 8    1  0.7583103E-052  0.1310800E+04  0.7818608E-02  0.9021044E-01
         -2   -1    0    0    0  501 -0.00000000000E+00  0.00000000000E+00  0.55428267215E+03  0.55428267216E+03  0.25500000000E-02 0. -1.
          2   -1    0    0  501    0  0.00000000000E+00 -0.00000000000E+00 -0.77496449136E+03  0.77496449136E+03  0.25500000000E-02 0.  1.
     200001    2    1    2    0    0  0.37821748855E+02 -0.47019174294E+02  0.11797430784E+03  0.62632593051E+03  0.61214781424E+03 0.  0.
    5000001    2    3    3    0    0  0.10801670509E+03  0.23183745996E+03  0.17278571962E+03  0.31665893967E+03  0.70723141550E+02 0.  0.
        -13    1    4    4    0    0  0.81256355460E+02  0.11779592854E+03  0.10942025382E+03  0.18014238589E+03  0.10566000000E+00 0. -1.
     200003    1    4    4    0    0  0.26760349635E+02  0.11404153143E+03  0.63365465792E+02  0.13651655379E+03  0.30000000000E+02 0. -1.
     200000    1    3    3    0    0 -0.70194956240E+02 -0.27885663426E+03 -0.54811411771E+02  0.30966699083E+03  0.10100000000E+03 0.  1.
    -200001    1    1    2    0    0 -0.37821748855E+02  0.47019174294E+02 -0.33865612705E+03  0.70292123302E+03  0.61300000000E+03 0.  1.
<mgrwt>
<rscale>  0 0.13108003E+04</rscale>
<asrwt>0</asrwt>
<pdfrwt beam="1">  1        2 0.11070921E+00 0.13108003E+04</pdfrwt>
<pdfrwt beam="2">  1       -2 0.79183239E-01 0.13108003E+04</pdfrwt>
<totfact> 0.54950902E+01</totfact>
</mgrwt>
</event>
<event>
 8    1  0.7583103E-052  0.2076993E+04  0.7818608E-02  0.8571446E-01
          2   -1    0    0  501    0  0.00000000000E+00  0.00000000000E+00  0.13675971299E+04  0.13675971299E+04  0.25500000000E-02 0. -1.
         -2   -1    0    0    0  501 -0.00000000000E+00 -0.00000000000E+00 -0.78859138272E+03  0.78859138273E+03  0.25500000000E-02 0.  1.
     200001    2    1    2    0    0  0.19939477197E+03  0.67782598626E+03  0.75781503914E+03  0.12038502820E+04  0.61299716570E+03 0.  0.
    5000001    2    3    3    0    0 -0.13997136676E+03  0.35865749590E+03  0.56411368624E+03  0.68930279587E+03  0.93203597064E+02 0.  0.
        -13    1    4    4    0    0  0.12491145185E+02  0.27185083879E+02  0.47258083551E+02  0.55932058057E+02  0.10566000000E+00 0. -1.
     200003    1    4    4    0    0 -0.15246251195E+03  0.33147241202E+03  0.51685560269E+03  0.63337073781E+03  0.30000000000E+02 0. -1.
     200000    1    3    3    0    0  0.33936613874E+03  0.31916849036E+03  0.19370135290E+03  0.51454748613E+03  0.10100000000E+03 0.  1.
    -200001    1    1    2    0    0 -0.19939477197E+03 -0.67782598626E+03 -0.17880929192E+03  0.95233823068E+03  0.61300000000E+03 0.  1.
<mgrwt>
<rscale>  0 0.20769933E+04</rscale>
<asrwt>0</asrwt>
<pdfrwt beam="1">  1        2 0.19537102E+00 0.20769933E+04</pdfrwt>
<pdfrwt beam="2">  1       -2 0.11265591E+00 0.20769933E+04</pdfrwt>
<totfact> 0.99087152E+00</totfact>
</mgrwt>
</event>
<event>
 8    1  0.7583103E-052  0.1708032E+04  0.7818608E-02  0.8756796E-01
         -2   -1    0    0    0  501 -0.00000000000E+00  0.00000000000E+00  0.50736778493E+03  0.50736778494E+03  0.25500000000E-02 0. -1.
          2   -1    0    0  501    0  0.00000000000E+00 -0.00000000000E+00 -0.14375046336E+04  0.14375046336E+04  0.25500000000E-02 0.  1.
     200001    2    1    2    0    0 -0.16701598175E+03 -0.55770357236E+03 -0.60217750126E+03  0.10380902251E+04  0.61325847704E+03 0.  0.
    5000001    2    3    3    0    0  0.23296038619E+02 -0.20792583642E+03  0.72931044367E+02  0.24781452762E+03  0.11098307980E+03 0.  0.
        -13    1    4    4    0    0 -0.78626686622E+01 -0.20739800875E+02  0.49538289998E+02  0.54277198148E+02  0.10566000000E+00 0. -1.
     200003    1    4    4    0    0  0.31158707281E+02 -0.18718603555E+03  0.23392754369E+02  0.19353732948E+03  0.30000000000E+02 0. -1.
     200000    1    3    3    0    0 -0.19031202037E+03 -0.34977773594E+03 -0.67510854563E+03  0.79027569749E+03  0.10100000000E+03 0.  1.
    -200001    1    1    2    0    0  0.16701598175E+03  0.55770357236E+03 -0.32795934741E+03  0.90678219344E+03  0.61300000000E+03 0.  1.
<mgrwt>
<rscale>  0 0.17080323E+04</rscale>
<asrwt>0</asrwt>
<pdfrwt beam="1">  1        2 0.20535780E+00 0.17080323E+04</pdfrwt>
<pdfrwt beam="2">  1       -2 0.72481113E-01 0.17080323E+04</pdfrwt>
<totfact> 0.25927571E+01</totfact>
</mgrwt>
</event>
<event>
 8    1  0.7583103E-052  0.1814185E+04  0.7818608E-02  0.8698792E-01
          2   -1    0    0  501    0  0.00000000000E+00  0.00000000000E+00  0.10941743786E+04  0.10941743786E+04  0.25500000000E-02 0.  1.
         -2   -1    0    0    0  501 -0.00000000000E+00 -0.00000000000E+00 -0.75199762113E+03  0.75199762114E+03  0.25500000000E-02 0. -1.
     200001    2    1    2    0    0 -0.51757724808E+02  0.44982167024E+03 -0.32822359239E+03  0.83117247944E+03  0.61489720025E+03 0.  0.
    5000001    2    3    3    0    0 -0.23342938236E+03  0.45455979710E+03 -0.20459812825E+03  0.58928139572E+03  0.21042405653E+03 0.  0.
        -13    1    4    4    0    0 -0.25175701383E+03  0.40221555061E+03 -0.13078459403E+03  0.49220276753E+03  0.10566000000E+00 0. -1.
     200003    1    4    4    0    0  0.18327631472E+02  0.52344246484E+02 -0.73813534225E+02  0.97078628184E+02  0.30000000000E+02 0. -1.
     200000    1    3    3    0    0  0.18167165755E+03 -0.47381268532E+01 -0.12362546414E+03  0.24189108373E+03  0.10100000000E+03 0. -1.
    -200001    1    1    2    0    0  0.51757724808E+02 -0.44982167024E+03  0.67040034984E+03  0.10149995203E+04  0.61300000000E+03 0. -1.
<mgrwt>
<rscale>  0 0.18141847E+04</rscale>
<asrwt>0</asrwt>
<pdfrwt beam="1">  1        2 0.15631062E+00 0.18141847E+04</pdfrwt>
<pdfrwt beam="2">  1       -2 0.10742823E+00 0.18141847E+04</pdfrwt>
<totfact> 0.16210995E+01</totfact>
</mgrwt>
</event>
<event>
 8    1  0.7583103E-052  0.1454324E+04  0.7818608E-02  0.8915408E-01
         -2   -1    0    0    0  501 -0.00000000000E+00  0.00000000000E+00  0.51449505316E+03  0.51449505316E+03  0.25500000000E-02 0. -1.
          2   -1    0    0  501    0  0.00000000000E+00 -0.00000000000E+00 -0.10277356308E+04  0.10277356308E+04  0.25500000000E-02 0.  1.
     200001    2    1    2    0    0 -0.14964460507E+03 -0.10945737048E+03  0.10680320176E+03  0.65082857931E+03  0.61465152075E+03 0.  0.
    5000001    2    3    3    0    0 -0.42390286219E+02 -0.18618792876E+03 -0.20402586731E+03  0.29839875982E+03  0.10465363894E+03 0.  0.
        -13    1    4    4    0    0 -0.22375025986E+02 -0.61901315398E+02 -0.13849384248E+03  0.15333939548E+03  0.10566000000E+00 0. -1.
     200003    1    4    4    0    0 -0.20015260233E+02 -0.12428661336E+03 -0.65532024831E+02  0.14505936434E+03  0.30000000000E+02 0. -1.
     200000    1    3    3    0    0 -0.10725431885E+03  0.76730558279E+02  0.31082906908E+03  0.35242981950E+03  0.10100000000E+03 0. -1.
    -200001    1    1    2    0    0  0.14964460507E+03  0.10945737048E+03 -0.62004377937E+03  0.89140210461E+03  0.61300000000E+03 0.  1.
<mgrwt>
<rscale>  0 0.14543244E+04</rscale>
<asrwt>0</asrwt>
<pdfrwt beam="1">  1        2 0.14681937E+00 0.14543244E+04</pdfrwt>
<pdfrwt beam="2">  1       -2 0.73499294E-01 0.14543244E+04</pdfrwt>
<totfact> 0.43795370E+01</totfact>
</mgrwt>
</event>
<event>
 8    1  0.7583103E-052  0.1266307E+04  0.7818608E-02  0.9056719E-01
         -2   -1    0    0    0  501 -0.00000000000E+00  0.00000000000E+00  0.27807778304E+03  0.27807778306E+03  0.25500000000E-02 0. -1.
          2   -1    0    0  501    0  0.00000000000E+00 -0.00000000000E+00 -0.14416238634E+04  0.14416238634E+04  0.25500000000E-02 0.  1.
     200001    2    1    2    0    0  0.15767277332E+03 -0.16017059846E+02 -0.60899167978E+03  0.87802663027E+03  0.61232560600E+03 0.  0.
    5000001    2    3    3    0    0 -0.14839419254E+03 -0.16711638105E+03 -0.92317269329E+02  0.25060218153E+03  0.65804665308E+02 0.  0.
        -13    1    4    4    0    0 -0.60949680709E+01 -0.37913618413E+02 -0.13370649663E+02  0.40661733035E+02  0.10566000000E+00 0. -1.
     200003    1    4    4    0    0 -0.14229922447E+03 -0.12920276264E+03 -0.78946619666E+02  0.20994044850E+03  0.30000000000E+02 0. -1.
     200000    1    3    3    0    0  0.30606696586E+03  0.15109932120E+03 -0.51667441045E+03  0.62742444874E+03  0.10100000000E+03 0.  1.
    -200001    1    1    2    0    0 -0.15767277332E+03  0.16017059846E+02 -0.55455440053E+03  0.84167501614E+03  0.61300000000E+03 0. -1.
<mgrwt>
<rscale>  0 0.12663073E+04</rscale>
<asrwt>0</asrwt>
<pdfrwt beam="1">  1        2 0.20594626E+00 0.12663073E+04</pdfrwt>
<pdfrwt beam="2">  1       -2 0.39725398E-01 0.12663073E+04</pdfrwt>
<totfact> 0.92490230E+01</totfact>
</mgrwt>
</event>
<event>
 8    1  0.7583103E-052  0.1513917E+04  0.7818608E-02  0.8875251E-01
         -2   -1    0    0    0  501 -0.00000000000E+00  0.00000000000E+00  0.23028530616E+03  0.23028530617E+03  0.25500000000E-02 0. -1.
          2   -1    0    0  501    0  0.00000000000E+00 -0.00000000000E+00 -0.24881573030E+04  0.24881573030E+04  0.25500000000E-02 0.  1.
     200001    2    1    2    0    0  0.78546434025E+02 -0.42738660129E+03 -0.96618812690E+03  0.12241049401E+04  0.61325733475E+03 0.  0.
    5000001    2    3    3    0    0 -0.18564751426E+03 -0.82446019043E+02 -0.15455448765E+03  0.29796639112E+03  0.15373527564E+03 0.  0.
        -13    1    4    4    0    0 -0.77096786724E+02 -0.97072458593E+02 -0.26419099407E+02  0.12674761031E+03  0.10566000000E+00 0. -1.
     200003    1    4    4    0    0 -0.10855072754E+03  0.14626439550E+02 -0.12813538824E+03  0.17121878081E+03  0.30000000000E+02 0. -1.
     200000    1    3    3    0    0  0.26419394829E+03 -0.34494058225E+03 -0.81163363925E+03  0.92613854901E+03  0.10100000000E+03 0. -1.
    -200001    1    1    2    0    0 -0.78546434025E+02  0.42738660129E+03 -0.12916838699E+04  0.14943376690E+04  0.61300000000E+03 0. -1.
<mgrwt>
<rscale>  0 0.15139169E+04</rscale>
<asrwt>0</asrwt>
<pdfrwt beam="1">  1        2 0.35545103E+00 0.15139169E+04</pdfrwt>
<pdfrwt beam="2">  1       -2 0.32897902E-01 0.15139169E+04</pdfrwt>
<totfact> 0.37318898E+01</totfact>
</mgrwt>
</event>
<event>
 8    1  0.7583103E-052  0.1532520E+04  0.7818608E-02  0.8863111E-01
         -2   -1    0    0    0  501 -0.00000000000E+00  0.00000000000E+00  0.11012621397E+04  0.11012621397E+04  0.25500000000E-02 0.  1.
          2   -1    0    0  501    0  0.00000000000E+00 -0.00000000000E+00 -0.53316466891E+03  0.53316466892E+03  0.25500000000E-02 0. -1.
     200001    2    1    2    0    0 -0.35952421463E+03 -0.14471628539E+03  0.19633090768E+02  0.72515092073E+03  0.61258300288E+03 0.  0.
    5000001    2    3    3    0    0 -0.20298169066E+03 -0.11606157951E+03 -0.24962206573E+03  0.39647784109E+03  0.20052841643E+03 0.  0.
        -13    1    4    4    0    0 -0.27231084390E+02 -0.12617657712E+03 -0.11437492183E+03  0.17246360335E+03  0.10566000000E+00 0. -1.
     200003    1    4    4    0    0 -0.17575060627E+03  0.10114997605E+02 -0.13524714389E+03  0.22401423774E+03  0.30000000000E+02 0. -1.
     200000    1    3    3    0    0 -0.15654252398E+03 -0.28654705875E+02  0.26925515649E+03  0.32867307964E+03  0.10100000000E+03 0.  1.
    -200001    1    1    2    0    0  0.35952421463E+03  0.14471628539E+03  0.54846438003E+03  0.90927588790E+03  0.61300000000E+03 0.  1.
<mgrwt>
<rscale>  0 0.15325196E+04</rscale>
<asrwt>0</asrwt>
<pdfrwt beam="1">  1        2 0.76166381E-01 0.15325196E+04</pdfrwt>
<pdfrwt beam="2">  1       -2 0.15732316E+00 0.15325196E+04</pdfrwt>
<totfact> 0.15865559E+01</totfact>
</mgrwt>
</event>
<event>
 8    1  0.7583103E-052  0.1625370E+04  0.7818608E-02  0.8805112E-01
          2   -1    0    0  501    0  0.00000000000E+00  0.00000000000E+00  0.15739243426E+04  0.15739243426E+04  0.25500000000E-02 0.  1.
         -2   -1    0    0    0  501 -0.00000000000E+00 -0.00000000000E+00 -0.41962429009E+03  0.41962429010E+03  0.25500000000E-02 0. -1.
     200001    2    1    2    0    0 -0.21910985515E+03  0.48464119594E+03  0.62786775780E+03  0.10261882147E+04  0.61315423281E+03 0.  0.
    5000001    2    3    3    0    0 -0.10194221851E+03  0.42839861912E+01  0.24293825783E+02  0.23943933768E+03  0.21524506499E+03 0.  0.
        -13    1    4    4    0    0 -0.11628958292E+03  0.48348439306E+02  0.89127266478E+02  0.15428713321E+03  0.10566000000E+00 0. -1.
     200003    1    4    4    0    0  0.14347364414E+02 -0.44064453115E+02 -0.64833440695E+02  0.85152204471E+02  0.30000000000E+02 0. -1.
     200000    1    3    3    0    0 -0.11716763665E+03  0.48035720975E+03  0.60357393202E+03  0.78674887699E+03  0.10100000000E+03 0. -1.
    -200001    1    1    2    0    0  0.21910985515E+03 -0.48464119594E+03  0.52643229468E+03  0.96736041800E+03  0.61300000000E+03 0. -1.
<mgrwt>
<rscale>  0 0.16253700E+04</rscale>
<asrwt>0</asrwt>
<pdfrwt beam="1">  1        2 0.22484634E+00 0.16253700E+04</pdfrwt>
<pdfrwt beam="2">  1       -2 0.59946327E-01 0.16253700E+04</pdfrwt>
<totfact> 0.33237633E+01</totfact>
</mgrwt>
</event>
<event>
 8    1  0.7583103E-052  0.1493447E+04  0.7818608E-02  0.8888823E-01
          2   -1    0    0  501    0  0.00000000000E+00  0.00000000000E+00  0.89615809481E+03  0.89615809482E+03  0.25500000000E-02 0.  1.
         -2   -1    0    0    0  501 -0.00000000000E+00 -0.00000000000E+00 -0.62220676529E+03  0.62220676529E+03  0.25500000000E-02 0. -1.
     200001    2    1    2    0    0  0.21599691995E+03  0.35516173455E+03  0.22653989851E+03  0.77619818684E+03  0.61511687713E+03 0.  0.
    5000001    2    3    3    0    0  0.17047991199E+03  0.44792488139E+03 -0.23227492645E+02  0.48764741296E+03  0.86950463999E+02 0.  0.
        -13    1    4    4    0    0  0.23651043305E-01  0.50403735834E+02 -0.19562991047E+02  0.54067170521E+02  0.10566000000E+00 0. -1.
     200003    1    4    4    0    0  0.17045626094E+03  0.39752114556E+03 -0.36645015982E+01  0.43358024244E+03  0.30000000000E+02 0. -1.
     200000    1    3    3    0    0  0.45517007963E+02 -0.92763146844E+02  0.24976739115E+03  0.28855077388E+03  0.10100000000E+03 0.  1.
    -200001    1    1    2    0    0 -0.21599691995E+03 -0.35516173455E+03  0.47411431020E+02  0.74216667327E+03  0.61300000000E+03 0.  1.
<mgrwt>
<rscale>  0 0.14934465E+04</rscale>
<asrwt>0</asrwt>
<pdfrwt beam="1">  1        2 0.12802259E+00 0.14934465E+04</pdfrwt>
<pdfrwt beam="2">  1       -2 0.88886681E-01 0.14934465E+04</pdfrwt>
<totfact> 0.34460438E+01</totfact>
</mgrwt>
</event>
<event>
 8    1  0.7583103E-052  0.1766011E+04  0.7818608E-02  0.8724586E-01
         -2   -1    0    0    0  501 -0.00000000000E+00  0.00000000000E+00  0.13371305618E+04  0.13371305618E+04  0.25500000000E-02 0. -1.
          2   -1    0    0  501    0  0.00000000000E+00 -0.00000000000E+00 -0.58311359427E+03  0.58311359428E+03  0.25500000000E-02 0.  1.
     200001    2    1    2    0    0  0.30680099698E+03 -0.10984619203E+03  0.96924519202E+03  0.11934118328E+04  0.61530685244E+03 0.  0.
    5000001    2    3    3    0    0  0.39475600188E+03 -0.26630940614E+03  0.75801099451E+03  0.89839029717E+03  0.75970108807E+02 0.  0.
        -13    1    4    4    0    0  0.19099911803E+03 -0.91223326939E+02  0.34651135795E+03  0.40604493694E+03  0.10566000000E+00 0. -1.
     200003    1    4    4    0    0  0.20375688385E+03 -0.17508607920E+03  0.41149963656E+03  0.49234536023E+03  0.30000000000E+02 0. -1.
     200000    1    3    3    0    0 -0.87955004907E+02  0.15646321411E+03  0.21123419750E+03  0.29502153558E+03  0.10100000000E+03 0.  1.
    -200001    1    1    2    0    0 -0.30680099698E+03  0.10984619203E+03 -0.21522822447E+03  0.72683232334E+03  0.61300000000E+03 0.  1.
<mgrwt>
<rscale>  0 0.17660113E+04</rscale>
<asrwt>0</asrwt>
<pdfrwt beam="1">  1        2 0.83301943E-01 0.17660113E+04</pdfrwt>
<pdfrwt beam="2">  1       -2 0.19101865E+00 0.17660113E+04</pdfrwt>
<totfact> 0.81233333E+00</totfact>
</mgrwt>
</event>
<event>
 8    1  0.7583103E-052  0.1528092E+04  0.7818608E-02  0.8865984E-01
          2   -1    0    0  501    0  0.00000000000E+00  0.00000000000E+00  0.98329463147E+03  0.98329463148E+03  0.25500000000E-02 0.  1.
         -2   -1    0    0    0  501 -0.00000000000E+00 -0.00000000000E+00 -0.59368420832E+03  0.59368420833E+03  0.25500000000E-02 0. -1.
     200001    2    1    2    0    0 -0.35400016527E+03 -0.28680399512E+03  0.20879246701E+03  0.79209873311E+03  0.61339502777E+03 0.  0.
    5000001    2    3    3    0    0  0.91478452956E+02 -0.84560594585E+02 -0.11718753941E+03  0.19559428473E+03  0.94896803492E+02 0.  0.
        -13    1    4    4    0    0  0.61425553175E+02 -0.90518518199E+02 -0.62116278842E+02  0.12579802853E+03  0.10566000000E+00 0. -1.
     200003    1    4    4    0    0  0.30052899782E+02  0.59579236136E+01 -0.55071260571E+02  0.69796256203E+02  0.30000000000E+02 0. -1.
     200000    1    3    3    0    0 -0.44547861822E+03 -0.20224340053E+03  0.32598000642E+03  0.59650444838E+03  0.10100000000E+03 0.  1.
    -200001    1    1    2    0    0  0.35400016527E+03  0.28680399512E+03  0.18081795615E+03  0.78488010670E+03  0.61300000000E+03 0.  1.
<mgrwt>
<rscale>  0 0.15280923E+04</rscale>
<asrwt>0</asrwt>
<pdfrwt beam="1">  1        2 0.14047066E+00 0.15280923E+04</pdfrwt>
<pdfrwt beam="2">  1       -2 0.84812030E-01 0.15280923E+04</pdfrwt>
<totfact> 0.33661300E+01</totfact>
</mgrwt>
</event>
<event>
 8    1  0.7583103E-052  0.1837974E+04  0.7818608E-02  0.8686362E-01
          2   -1    0    0  501    0  0.00000000000E+00  0.00000000000E+00  0.48122942300E+03  0.48122942301E+03  0.25500000000E-02 0.  1.
         -2   -1    0    0    0  501 -0.00000000000E+00 -0.00000000000E+00 -0.17549579139E+04  0.17549579139E+04  0.25500000000E-02 0. -1.
     200001    2    1    2    0    0 -0.15017964897E+03  0.11701311573E+03 -0.14369797062E+04  0.15738687160E+04  0.61311178683E+03 0.  0.
    5000001    2    3    3    0    0  0.11761599774E+03  0.22603589658E+03 -0.10374229836E+04  0.10704334673E+04  0.68232041505E+02 0.  0.
        -13    1    4    4    0    0  0.24117117642E+02  0.13405201741E+02 -0.74761574060E+02  0.79690896073E+02  0.10566000000E+00 0. -1.
     200003    1    4    4    0    0  0.93498880095E+02  0.21263069483E+03 -0.96266140959E+03  0.99074257124E+03  0.30000000000E+02 0. -1.
     200000    1    3    3    0    0 -0.26779564671E+03 -0.10902278084E+03 -0.39955672251E+03  0.50343524871E+03  0.10100000000E+03 0. -1.
    -200001    1    1    2    0    0  0.15017964897E+03 -0.11701311573E+03  0.16325121531E+03  0.66231862084E+03  0.61300000000E+03 0.  1.
<mgrwt>
<rscale>  0 0.18379743E+04</rscale>
<asrwt>0</asrwt>
<pdfrwt beam="1">  1        2 0.68747061E-01 0.18379743E+04</pdfrwt>
<pdfrwt beam="2">  1       -2 0.25070827E+00 0.18379743E+04</pdfrwt>
<totfact> 0.42127015E+00</totfact>
</mgrwt>
</event>
<event>
 8    1  0.7583103E-052  0.1420055E+04  0.7818608E-02  0.8939429E-01
          2   -1    0    0  501    0  0.00000000000E+00  0.00000000000E+00  0.34294848982E+03  0.34294848983E+03  0.25500000000E-02 0.  1.
         -2   -1    0    0    0  501 -0.00000000000E+00 -0.00000000000E+00 -0.14700131638E+04  0.14700131638E+04  0.25500000000E-02 0. -1.
     200001    2    1    2    0    0 -0.23021675226E+03 -0.21455487461E+03 -0.34437203081E+03  0.77017197163E+03  0.61281255130E+03 0.  0.
    5000001    2    3    3    0    0 -0.75855262261E+01  0.59369109970E+02 -0.36678171058E+03  0.40233748999E+03  0.15415706668E+03 0.  0.
        -13    1    4    4    0    0  0.51867347496E+02 -0.21738214088E+02 -0.87761876868E+02  0.10423497438E+03  0.10566000000E+00 0. -1.
     200003    1    4    4    0    0 -0.59452873722E+02  0.81107324058E+02 -0.27901983371E+03  0.29810251561E+03  0.30000000000E+02 0. -1.
     200000    1    3    3    0    0 -0.22263122603E+03 -0.27392398458E+03  0.22409679771E+02  0.36783448163E+03  0.10100000000E+03 0.  1.
    -200001    1    1    2    0    0  0.23021675226E+03  0.21455487461E+03 -0.78269264317E+03  0.10427896820E+04  0.61300000000E+03 0.  1.
<mgrwt>
<rscale>  0 0.14200546E+04</rscale>
<asrwt>0</asrwt>
<pdfrwt beam="1">  1        2 0.48992642E-01 0.14200546E+04</pdfrwt>
<pdfrwt beam="2">  1       -2 0.21000188E+00 0.14200546E+04</pdfrwt>
<totfact> 0.11445120E+01</totfact>
</mgrwt>
</event>
<event>
 8    1  0.7583103E-052  0.1596458E+04  0.7818608E-02  0.8822727E-01
         -2   -1    0    0    0  501 -0.00000000000E+00  0.00000000000E+00  0.26435067718E+03  0.26435067719E+03  0.25500000000E-02 0. -1.
          2   -1    0    0  501    0  0.00000000000E+00 -0.00000000000E+00 -0.24103183337E+04  0.24103183337E+04  0.25500000000E-02 0.  1.
     200001    2    1    2    0    0 -0.39875658936E+02  0.47067893068E+03 -0.14004451781E+04  0.16000986364E+04  0.61313964588E+03 0.  0.
    5000001    2    3    3    0    0 -0.14072216888E+03  0.27466536528E+03 -0.12973204494E+04  0.13366085112E+04  0.90764376781E+02 0.  0.
        -13    1    4    4    0    0 -0.10231463680E+03  0.11679308534E+03 -0.68612069768E+03  0.70347034951E+03  0.10566000000E+00 0. -1.
     200003    1    4    4    0    0 -0.38407532077E+02  0.15787227994E+03 -0.61119975173E+03  0.63313816171E+03  0.30000000000E+02 0. -1.
     200000    1    3    3    0    0  0.10084650994E+03  0.19601356540E+03 -0.10312472865E+03  0.26349012514E+03  0.10100000000E+03 0.  1.
    -200001    1    1    2    0    0  0.39875658936E+02 -0.47067893068E+03 -0.74552247848E+03  0.10745703746E+04  0.61300000000E+03 0.  1.
<mgrwt>
<rscale>  0 0.15964577E+04</rscale>
<asrwt>0</asrwt>
<pdfrwt beam="1">  1        2 0.34433118E+00 0.15964577E+04</pdfrwt>
<pdfrwt beam="2">  1       -2 0.37764384E-01 0.15964577E+04</pdfrwt>
<totfact> 0.31270960E+01</totfact>
</mgrwt>
</event>
<event>
 8    1  0.7583103E-052  0.1570820E+04  0.7818608E-02  0.8838678E-01
          2   -1    0    0  501    0  0.00000000000E+00  0.00000000000E+00  0.10809657735E+04  0.10809657735E+04  0.25500000000E-02 0.  1.
         -2   -1    0    0    0  501 -0.00000000000E+00 -0.00000000000E+00 -0.57066426901E+03  0.57066426902E+03  0.25500000000E-02 0. -1.
     200001    2    1    2    0    0 -0.31855908186E+03 -0.31456990487E+03  0.40525911758E+02  0.75894184321E+03  0.61148692395E+03 0.  0.
    5000001    2    3    3    0    0 -0.37251329666E+03 -0.28794865523E+03 -0.14862595981E+03  0.53623311247E+03  0.20922641026E+03 0.  0.
        -13    1    4    4    0    0 -0.39483286277E+02 -0.13698294493E+02 -0.90757944762E+02  0.99917910651E+02  0.10566000000E+00 0. -1.
     200003    1    4    4    0    0 -0.33303001038E+03 -0.27425036073E+03 -0.57868015051E+02  0.43631520182E+03  0.30000000000E+02 0. -1.
     200000    1    3    3    0    0  0.53954214796E+02 -0.26621249638E+02  0.18915187157E+03  0.22270873073E+03  0.10100000000E+03 0.  1.
    -200001    1    1    2    0    0  0.31855908186E+03  0.31456990487E+03  0.46977559275E+03  0.89268819933E+03  0.61300000000E+03 0.  1.
<mgrwt>
<rscale>  0 0.15708196E+04</rscale>
<asrwt>0</asrwt>
<pdfrwt beam="1">  1        2 0.15442368E+00 0.15708196E+04</pdfrwt>
<pdfrwt beam="2">  1       -2 0.81523467E-01 0.15708196E+04</pdfrwt>
<totfact> 0.32000020E+01</totfact>
</mgrwt>
</event>
<event>
 8    1  0.7583103E-052  0.1433224E+04  0.7818608E-02  0.8930115E-01
         -2   -1    0    0    0  501 -0.00000000000E+00  0.00000000000E+00  0.62038845744E+03  0.62038845744E+03  0.25500000000E-02 0. -1.
          2   -1    0    0  501    0  0.00000000000E+00 -0.00000000000E+00 -0.82775945566E+03  0.82775945566E+03  0.25500000000E-02 0.  1.
     200001    2    1    2    0    0 -0.18456136504E+03 -0.26052967249E+03 -0.29543303202E+03  0.75139650155E+03  0.61268051904E+03 0.  0.
    5000001    2    3    3    0    0 -0.21074990917E+01  0.51230567583E+02  0.12882021126E+03  0.18511417362E+03  0.12265234542E+03 0.  0.
        -13    1    4    4    0    0 -0.14563951897E+02  0.44477177939E+02  0.14192462894E+03  0.14944209419E+03  0.10566000000E+00 0. -1.
     200003    1    4    4    0    0  0.12456452806E+02  0.67533896439E+01 -0.13104417676E+02  0.35672079429E+02  0.30000000000E+02 0. -1.
     200000    1    3    3    0    0 -0.18245386595E+03 -0.31176024007E+03 -0.42425324328E+03  0.56628232793E+03  0.10100000000E+03 0.  1.
    -200001    1    1    2    0    0  0.18456136504E+03  0.26052967249E+03  0.88062033797E+02  0.69675141156E+03  0.61300000000E+03 0. -1.
<mgrwt>
<rscale>  0 0.14332235E+04</rscale>
<asrwt>0</asrwt>
<pdfrwt beam="1">  1        2 0.11825135E+00 0.14332235E+04</pdfrwt>
<pdfrwt beam="2">  1       -2 0.88626923E-01 0.14332235E+04</pdfrwt>
<totfact> 0.38731178E+01</totfact>
</mgrwt>
</event>
<event>
 8    1  0.7583103E-052  0.1775584E+04  0.7818608E-02  0.8719392E-01
          2   -1    0    0  501    0  0.00000000000E+00  0.00000000000E+00  0.12023438320E+04  0.12023438320E+04  0.25500000000E-02 0.  1.
         -2   -1    0    0    0  501 -0.00000000000E+00 -0.00000000000E+00 -0.65553182486E+03  0.65553182487E+03  0.25500000000E-02 0. -1.
     200001    2    1    2    0    0  0.23325686437E+03  0.59778891171E+03  0.25560022551E+03  0.92388762188E+03  0.61357682065E+03 0.  0.
    5000001    2    3    3    0    0 -0.16714613686E+03  0.37500657662E+03  0.11730496478E+03  0.43472393623E+03  0.81588494250E+02 0.  0.
        -13    1    4    4    0    0 -0.46942351404E+02  0.86608925913E+02 -0.30460101539E+01  0.98559523867E+02  0.10566000000E+00 0. -1.
     200003    1    4    4    0    0 -0.12020378545E+03  0.28839765070E+03  0.12035097494E+03  0.33616441236E+03  0.30000000000E+02 0. -1.
     200000    1    3    3    0    0  0.40040300123E+03  0.22278233510E+03  0.13829526072E+03  0.48916368566E+03  0.10100000000E+03 0. -1.
    -200001    1    1    2    0    0 -0.23325686437E+03 -0.59778891171E+03  0.29121178163E+03  0.93398803499E+03  0.61300000000E+03 0.  1.
<mgrwt>
<rscale>  0 0.17755840E+04</rscale>
<asrwt>0</asrwt>
<pdfrwt beam="1">  1        2 0.17176340E+00 0.17755840E+04</pdfrwt>
<pdfrwt beam="2">  1       -2 0.93647404E-01 0.17755840E+04</pdfrwt>
<totfact> 0.19484201E+01</totfact>
</mgrwt>
</event>
<event>
 8    1  0.7583103E-052  0.3026644E+04  0.7818608E-02  0.8236163E-01
         -2   -1    0    0    0  501 -0.00000000000E+00  0.00000000000E+00  0.81417410749E+03  0.81417410750E+03  0.25500000000E-02 0. -1.
          2   -1    0    0  501    0  0.00000000000E+00 -0.00000000000E+00 -0.28128431959E+04  0.28128431959E+04  0.25500000000E-02 0.  1.
     200001    2    1    2    0    0  0.78610019324E+03  0.59098177087E+03  0.17057508137E+03  0.11676266806E+04  0.60584093588E+03 0.  0.
    5000001    2    3    3    0    0  0.26208203991E+03  0.55338430885E+03  0.10599316299E+03  0.62875710609E+03  0.95811058535E+02 0.  0.
        -13    1    4    4    0    0  0.18524151136E+03  0.45042947698E+03  0.70228304447E+02  0.49207027666E+03  0.10566000000E+00 0. -1.
     200003    1    4    4    0    0  0.76840528558E+02  0.10295483187E+03  0.35764858543E+02  0.13668682943E+03  0.30000000000E+02 0. -1.
     200000    1    3    3    0    0  0.52401815333E+03  0.37597462027E+02  0.64581918380E+02  0.53886957452E+03  0.10100000000E+03 0. -1.
    -200001    1    1    2    0    0 -0.78610019324E+03 -0.59098177087E+03 -0.21692441698E+04  0.24593906228E+04  0.61300000000E+03 0.  1.
<mgrwt>
<rscale>  0 0.30266444E+04</rscale>
<asrwt>0</asrwt>
<pdfrwt beam="1">  1        2 0.40183474E+00 0.30266444E+04</pdfrwt>
<pdfrwt beam="2">  1       -2 0.11631059E+00 0.30266444E+04</pdfrwt>
<totfact> 0.14773023E+00</totfact>
</mgrwt>
</event>
<event>
 8    1  0.7583103E-052  0.1323699E+04  0.7818608E-02  0.9010980E-01
         -2   -1    0    0    0  501 -0.00000000000E+00  0.00000000000E+00  0.40225994072E+03  0.40225994073E+03  0.25500000000E-02 0. -1.
          2   -1    0    0  501    0  0.00000000000E+00 -0.00000000000E+00 -0.10889595792E+04  0.10889595792E+04  0.25500000000E-02 0.  1.
     200001    2    1    2    0    0 -0.59670424346E+02  0.16506551036E+03 -0.54343597795E+03  0.83769013366E+03  0.61285798979E+03 0.  0.
    5000001    2    3    3    0    0 -0.11630314525E+03  0.12738117737E+03 -0.64926505671E+03  0.67635765726E+03  0.78499558731E+02 0.  0.
        -13    1    4    4    0    0  0.77301587786E+01  0.24200976851E+02 -0.86407678722E+02  0.90065202722E+02  0.10566000000E+00 0. -1.
     200003    1    4    4    0    0 -0.12403330403E+03  0.10318020052E+03 -0.56285737799E+03  0.58629245454E+03  0.30000000000E+02 0. -1.
     200000    1    3    3    0    0  0.56632720904E+02  0.37684332986E+02  0.10582907876E+03  0.16133247640E+03  0.10100000000E+03 0. -1.
    -200001    1    1    2    0    0  0.59670424346E+02 -0.16506551036E+03 -0.14326366049E+03  0.65352938623E+03  0.61300000000E+03 0. -1.
<mgrwt>
<rscale>  0 0.13236991E+04</rscale>
<asrwt>0</asrwt>
<pdfrwt beam="1">  1        2 0.15556565E+00 0.13236991E+04</pdfrwt>
<pdfrwt beam="2">  1       -2 0.57465706E-01 0.13236991E+04</pdfrwt>
<totfact> 0.68909615E+01</totfact>
</mgrwt>
</event>
<event>
 8    1  0.7583103E-052  0.1346826E+04  0.7818608E-02  0.8993234E-01
         -2   -1    0    0    0  501 -0.00000000000E+00  0.00000000000E+00  0.71359238934E+03  0.71359238935E+03  0.25500000000E-02 0. -1.
          2   -1    0    0  501    0  0.00000000000E+00 -0.00000000000E+00 -0.63549603991E+03  0.63549603992E+03  0.25500000000E-02 0.  1.
     200001    2    1    2    0    0  0.97520383102E+02  0.24236911823E+03 -0.49701372115E+02  0.67059430828E+03  0.61560822388E+03 0.  0.
    5000001    2    3    3    0    0  0.23424068444E+03 -0.87232598068E+02  0.15963010444E+02  0.29397441592E+03  0.15390878826E+03 0.  0.
        -13    1    4    4    0    0 -0.16918842613E+02 -0.11316411059E+02  0.21790476359E+02  0.29818524756E+02  0.10566000000E+00 0. -1.
     200003    1    4    4    0    0  0.25115952705E+03 -0.75916187008E+02 -0.58274659153E+01  0.26415589116E+03  0.30000000000E+02 0. -1.
     200000    1    3    3    0    0 -0.13672030133E+03  0.32960171629E+03 -0.65664382559E+02  0.37661989235E+03  0.10100000000E+03 0. -1.
    -200001    1    1    2    0    0 -0.97520383102E+02 -0.24236911823E+03  0.12779772155E+03  0.67849412099E+03  0.61300000000E+03 0. -1.
<mgrwt>
<rscale>  0 0.13468261E+04</rscale>
<asrwt>0</asrwt>
<pdfrwt beam="1">  1        2 0.90785148E-01 0.13468261E+04</pdfrwt>
<pdfrwt beam="2">  1       -2 0.10194177E+00 0.13468261E+04</pdfrwt>
<totfact> 0.39111010E+01</totfact>
</mgrwt>
</event>
<event>
 8    1  0.7583103E-052  0.1287640E+04  0.7818608E-02  0.9039424E-01
         -2   -1    0    0    0  501 -0.00000000000E+00  0.00000000000E+00  0.25841026363E+03  0.25841026364E+03  0.25500000000E-02 0.  1.
          2   -1    0    0  501    0  0.00000000000E+00 -0.00000000000E+00 -0.16040556624E+04  0.16040556624E+04  0.25500000000E-02 0. -1.
     200001    2    1    2    0    0  0.19539469179E+03 -0.92173963071E+01 -0.70331406359E+03  0.95327805211E+03  0.61304512608E+03 0.  0.
    5000001    2    3    3    0    0 -0.18440089787E+03  0.10981819075E+03 -0.21041167724E+03  0.31174245420E+03  0.82743928364E+02 0.  0.
        -13    1    4    4    0    0 -0.53228873309E+02 -0.21309549944E+01 -0.33825180541E+02  0.63103153056E+02  0.10566000000E+00 0. -1.
     200003    1    4    4    0    0 -0.13117202456E+03  0.11194914574E+03 -0.17658649670E+03  0.24863930115E+03  0.30000000000E+02 0. -1.
     200000    1    3    3    0    0  0.37979558965E+03 -0.11903558706E+03 -0.49290238635E+03  0.64153559790E+03  0.10100000000E+03 0. -1.
    -200001    1    1    2    0    0 -0.19539469179E+03  0.92173963071E+01 -0.64233133519E+03  0.90918787395E+03  0.61300000000E+03 0. -1.
<mgrwt>
<rscale>  0 0.12876404E+04</rscale>
<asrwt>0</asrwt>
<pdfrwt beam="1">  1        2 0.22915080E+00 0.12876404E+04</pdfrwt>
<pdfrwt beam="2">  1       -2 0.36915753E-01 0.12876404E+04</pdfrwt>
<totfact> 0.87323881E+01</totfact>
</mgrwt>
</event>
<event>
 8    1  0.7583103E-052  0.2008817E+04  0.7818608E-02  0.8602509E-01
          2   -1    0    0  501    0  0.00000000000E+00  0.00000000000E+00  0.88582409935E+03  0.88582409935E+03  0.25500000000E-02 0.  1.
         -2   -1    0    0    0  501 -0.00000000000E+00 -0.00000000000E+00 -0.11388678976E+04  0.11388678976E+04  0.25500000000E-02 0. -1.
     200001    2    1    2    0    0  0.34182744488E+03 -0.60658580509E+03 -0.51443675329E+03  0.10609038366E+04  0.61325315852E+03 0.  0.
    5000001    2    3    3    0    0  0.34127003777E+03 -0.24486660149E+03 -0.64226516367E+01  0.42914405599E+03  0.87740977511E+02 0.  0.
        -13    1    4    4    0    0  0.14101360386E+03 -0.68535769678E+02 -0.29907502015E+02  0.15961346447E+03  0.10566000000E+00 0. -1.
     200003    1    4    4    0    0  0.20025643391E+03 -0.17633083181E+03  0.23484850378E+02  0.26953059152E+03  0.30000000000E+02 0. -1.
     200000    1    3    3    0    0  0.55740711118E+00 -0.36171920360E+03 -0.50801410165E+03  0.63175978064E+03  0.10100000000E+03 0. -1.
    -200001    1    1    2    0    0 -0.34182744488E+03  0.60658580509E+03  0.26139295504E+03  0.96378816031E+03  0.61300000000E+03 0.  1.
<mgrwt>
<rscale>  0 0.20088172E+04</rscale>
<asrwt>0</asrwt>
<pdfrwt beam="1">  1        2 0.12654630E+00 0.20088172E+04</pdfrwt>
<pdfrwt beam="2">  1       -2 0.16269541E+00 0.20088172E+04</pdfrwt>
<totfact> 0.74489137E+00</totfact>
</mgrwt>
</event>
<event>
 8    1  0.7583103E-052  0.1544216E+04  0.7818608E-02  0.8855571E-01
         -2   -1    0    0    0  501 -0.00000000000E+00  0.00000000000E+00  0.12010228769E+04  0.12010228769E+04  0.25500000000E-02 0. -1.
          2   -1    0    0  501    0  0.00000000000E+00 -0.00000000000E+00 -0.49636925971E+03  0.49636925972E+03  0.25500000000E-02 0.  1.
     200001    2    1    2    0    0 -0.16938634581E+03  0.20802752752E+03 -0.71727263821E+02  0.67245142674E+03  0.61243688213E+03 0.  0.
    5000001    2    3    3    0    0 -0.30480705980E+03  0.31516119727E+03  0.28457735198E+02  0.44872295962E+03  0.91151126333E+02 0.  0.
        -13    1    4    4    0    0 -0.86580735281E+02  0.14307075626E+03 -0.42614488273E+01  0.16728310175E+03  0.10566000000E+00 0. -1.
     200003    1    4    4    0    0 -0.21822632452E+03  0.17209044100E+03  0.32719184025E+02  0.28143985787E+03  0.30000000000E+02 0.  1.
     200000    1    3    3    0    0  0.13542071398E+03 -0.10713366975E+03 -0.10018499902E+03  0.22372846712E+03  0.10100000000E+03 0. -1.
    -200001    1    1    2    0    0  0.16938634581E+03 -0.20802752752E+03  0.77638088096E+03  0.10249407098E+04  0.61300000000E+03 0. -1.
<mgrwt>
<rscale>  0 0.15442161E+04</rscale>
<asrwt>0</asrwt>
<pdfrwt beam="1">  1        2 0.70909895E-01 0.15442161E+04</pdfrwt>
<pdfrwt beam="2">  1       -2 0.17157470E+00 0.15442161E+04</pdfrwt>
<totfact> 0.13558971E+01</totfact>
</mgrwt>
</event>
<event>
 8    1  0.7583103E-052  0.1334931E+04  0.7818608E-02  0.9002314E-01
          2   -1    0    0  501    0  0.00000000000E+00  0.00000000000E+00  0.13605370794E+04  0.13605370794E+04  0.25500000000E-02 0.  1.
         -2   -1    0    0    0  501 -0.00000000000E+00 -0.00000000000E+00 -0.32745181890E+03  0.32745181891E+03  0.25500000000E-02 0. -1.
     200001    2    1    2    0    0  0.10533421738E+03  0.23036852250E+03  0.41805170667E+03  0.78344468942E+03  0.61225272431E+03 0.  0.
    5000001    2    3    3    0    0  0.57237761738E+02 -0.16298033295E+03  0.30540889021E+03  0.35926784514E+03  0.77201321433E+02 0.  0.
        -13    1    4    4    0    0  0.42201249045E+02 -0.37091184975E+02  0.65757055668E+02  0.86491057098E+02  0.10566000000E+00 0. -1.
     200003    1    4    4    0    0  0.15036512693E+02 -0.12588914797E+03  0.23965183455E+03  0.27277678804E+03  0.30000000000E+02 0. -1.
     200000    1    3    3    0    0  0.48096455638E+02  0.39334885545E+03  0.11264281646E+03  0.42417684428E+03  0.10100000000E+03 0. -1.
    -200001    1    1    2    0    0 -0.10533421738E+03 -0.23036852250E+03  0.61503355381E+03  0.90454420888E+03  0.61300000000E+03 0.  1.
<mgrwt>
<rscale>  0 0.13349312E+04</rscale>
<asrwt>0</asrwt>
<pdfrwt beam="1">  1        2 0.19436244E+00 0.13349312E+04</pdfrwt>
<pdfrwt beam="2">  1       -2 0.46778832E-01 0.13349312E+04</pdfrwt>
<totfact> 0.73668727E+01</totfact>
</mgrwt>
</event>
<event>
 8    1  0.7583103E-052  0.1570013E+04  0.7818608E-02  0.8839185E-01
          2   -1    0    0  501    0  0.00000000000E+00  0.00000000000E+00  0.18747945570E+04  0.18747945570E+04  0.25500000000E-02 0.  1.
         -2   -1    0    0    0  501 -0.00000000000E+00 -0.00000000000E+00 -0.32869499027E+03  0.32869499028E+03  0.25500000000E-02 0. -1.
     200001    2    1    2    0    0 -0.41246396527E+03 -0.56705889408E+02  0.11359748926E+04  0.13565460256E+04  0.61354387171E+03 0.  0.
    5000001    2    3    3    0    0 -0.47675055217E+03  0.14738773040E+03  0.80047940049E+03  0.94600346252E+03  0.71701104822E+02 0.  0.
        -13    1    4    4    0    0 -0.51143128116E+02  0.30677270100E+01  0.11358771281E+03  0.12460822672E+03  0.10566000000E+00 0. -1.
     200003    1    4    4    0    0 -0.42560742405E+03  0.14432000339E+03  0.68689168769E+03  0.82139523580E+03  0.30000000000E+02 0. -1.
     200000    1    3    3    0    0  0.64286586901E+02 -0.20409361981E+03  0.33549549209E+03  0.41054256309E+03  0.10100000000E+03 0. -1.
    -200001    1    1    2    0    0  0.41246396527E+03  0.56705889408E+02  0.41012467413E+03  0.84694352165E+03  0.61300000000E+03 0. -1.
<mgrwt>
<rscale>  0 0.15700135E+04</rscale>
<asrwt>0</asrwt>
<pdfrwt beam="1">  1        2 0.26782780E+00 0.15700135E+04</pdfrwt>
<pdfrwt beam="2">  1       -2 0.46956426E-01 0.15700135E+04</pdfrwt>
<totfact> 0.38530319E+01</totfact>
</mgrwt>
</event>
<event>
 8    1  0.7583103E-052  0.1494633E+04  0.7818608E-02  0.8888030E-01
          2   -1    0    0  501    0  0.00000000000E+00  0.00000000000E+00  0.22462981909E+04  0.22462981909E+04  0.25500000000E-02 0.  1.
         -2   -1    0    0    0  501 -0.00000000000E+00 -0.00000000000E+00 -0.24862336717E+03  0.24862336719E+03  0.25500000000E-02 0. -1.
     200001    2    1    2    0    0 -0.37290952722E+03 -0.15727066720E+03  0.76703860943E+03  0.10617327812E+04  0.61248076874E+03 0.  0.
    5000001    2    3    3    0    0 -0.35445203774E+03 -0.33734961447E+03  0.66030113454E+03  0.82857404834E+03  0.10533924180E+03 0.  0.
        -13    1    4    4    0    0 -0.23937645130E+02 -0.62508166198E+02  0.12086773726E+03  0.13816404297E+03  0.10566000000E+00 0. -1.
     200003    1    4    4    0    0 -0.33051439261E+03 -0.27484144827E+03  0.53943339729E+03  0.69041000537E+03  0.30000000000E+02 0. -1.
     200000    1    3    3    0    0 -0.18457489477E+02  0.18007894726E+03  0.10673747489E+03  0.23315873286E+03  0.10100000000E+03 0. -1.
    -200001    1    1    2    0    0  0.37290952722E+03  0.15727066720E+03  0.12306362143E+04  0.14331887769E+04  0.61300000000E+03 0.  1.
<mgrwt>
<rscale>  0 0.14946334E+04</rscale>
<asrwt>0</asrwt>
<pdfrwt beam="1">  1        2 0.32089972E+00 0.14946334E+04</pdfrwt>
<pdfrwt beam="2">  1       -2 0.35517626E-01 0.14946334E+04</pdfrwt>
<totfact> 0.43167122E+01</totfact>
</mgrwt>
</event>
<event>
 8    1  0.7583103E-052  0.1582595E+04  0.7818608E-02  0.8831313E-01
          2   -1    0    0  501    0  0.00000000000E+00  0.00000000000E+00  0.44949929211E+03  0.44949929211E+03  0.25500000000E-02 0.  1.
         -2   -1    0    0    0  501 -0.00000000000E+00 -0.00000000000E+00 -0.13929974809E+04  0.13929974809E+04  0.25500000000E-02 0. -1.
     200001    2    1    2    0    0 -0.33823267592E+03 -0.15182845870E+03 -0.71060817832E+02  0.71361715580E+03  0.60559605455E+03 0.  0.
    5000001    2    3    3    0    0 -0.26772368238E+02  0.36897289406E+02 -0.27005026098E+03  0.28650741611E+03  0.84149785289E+02 0.  0.
        -13    1    4    4    0    0 -0.23798493840E+02  0.55419717271E+02 -0.17203184999E+03  0.18229833226E+03  0.10566000000E+00 0. -1.
     200003    1    4    4    0    0 -0.29738743984E+01 -0.18522427864E+02 -0.98018410991E+02  0.10420908385E+03  0.30000000000E+02 0. -1.
     200000    1    3    3    0    0 -0.31146030768E+03 -0.18872574811E+03  0.19898944314E+03  0.42710973969E+03  0.10100000000E+03 0.  1.
    -200001    1    1    2    0    0  0.33823267592E+03  0.15182845870E+03 -0.87243737098E+03  0.11288796172E+04  0.61300000000E+03 0. -1.
<mgrwt>
<rscale>  0 0.15825946E+04</rscale>
<asrwt>0</asrwt>
<pdfrwt beam="1">  1        2 0.64214185E-01 0.15825946E+04</pdfrwt>
<pdfrwt beam="2">  1       -2 0.19899964E+00 0.15825946E+04</pdfrwt>
<totfact> 0.98428285E+00</totfact>
</mgrwt>
</event>
<event>
 8    1  0.7583103E-052  0.1460444E+04  0.7818608E-02  0.8911192E-01
         -2   -1    0    0    0  501 -0.00000000000E+00  0.00000000000E+00  0.25188707558E+03  0.25188707559E+03  0.25500000000E-02 0. -1.
          2   -1    0    0  501    0  0.00000000000E+00 -0.00000000000E+00 -0.21169171083E+04  0.21169171083E+04  0.25500000000E-02 0.  1.
     200001    2    1    2    0    0 -0.38780787738E+03  0.79469787942E+02 -0.96209221193E+03  0.12078665864E+04  0.61368548089E+03 0.  0.
    5000001    2    3    3    0    0 -0.52721298442E+02  0.98927276626E+02  0.43720614665E+02  0.14272713483E+03  0.76768492892E+02 0.  0.
        -13    1    4    4    0    0  0.88916084948E+01  0.45758211695E+02  0.24642977464E+01  0.46679316260E+02  0.10566000000E+00 0. -1.
     200003    1    4    4    0    0 -0.61612906937E+02  0.53169064932E+02  0.41256316918E+02  0.96047818573E+02  0.30000000000E+02 0. -1.
     200000    1    3    3    0    0 -0.33508657894E+03 -0.19457488685E+02 -0.10058128266E+04  0.10651394516E+04  0.10100000000E+03 0.  1.
    -200001    1    1    2    0    0  0.38780787738E+03 -0.79469787942E+02 -0.90293782083E+03  0.11609375975E+04  0.61300000000E+03 0. -1.
<mgrwt>
<rscale>  0 0.14604438E+04</rscale>
<asrwt>0</asrwt>
<pdfrwt beam="1">  1        2 0.30241672E+00 0.14604438E+04</pdfrwt>
<pdfrwt beam="2">  1       -2 0.35983869E-01 0.14604438E+04</pdfrwt>
<totfact> 0.49221110E+01</totfact>
</mgrwt>
</event>
<event>
 8    1  0.7583103E-052  0.1484076E+04  0.7818608E-02  0.8895112E-01
         -2   -1    0    0    0  501 -0.00000000000E+00  0.00000000000E+00  0.76124671482E+03  0.76124671483E+03  0.25500000000E-02 0. -1.
          2   -1    0    0  501    0  0.00000000000E+00 -0.00000000000E+00 -0.72331358367E+03  0.72331358367E+03  0.25500000000E-02 0.  1.
     200001    2    1    2    0    0  0.78288480875E+02  0.41012127974E+02 -0.39002760887E+03  0.73174526419E+03  0.61279565527E+03 0.  0.
    5000001    2    3    3    0    0  0.25893650013E+03 -0.97266221430E+02 -0.33854299893E+03  0.47756762192E+03  0.19222549895E+03 0.  0.
        -13    1    4    4    0    0  0.17016606665E+03 -0.14986500284E+03 -0.20090054728E+03  0.30294727326E+03  0.10566000000E+00 0. -1.
     200003    1    4    4    0    0  0.88770433480E+02  0.52598781413E+02 -0.13764245166E+03  0.17462034866E+03  0.30000000000E+02 0. -1.
     200000    1    3    3    0    0 -0.18064801925E+03  0.13827834940E+03 -0.51484609934E+02  0.25417764228E+03  0.10100000000E+03 0. -1.
    -200001    1    1    2    0    0 -0.78288480875E+02 -0.41012127974E+02  0.42796074002E+03  0.75281503431E+03  0.61300000000E+03 0. -1.
<mgrwt>
<rscale>  0 0.14840756E+04</rscale>
<asrwt>0</asrwt>
<pdfrwt beam="1">  1        2 0.10333051E+00 0.14840756E+04</pdfrwt>
<pdfrwt beam="2">  1       -2 0.10874953E+00 0.14840756E+04</pdfrwt>
<totfact> 0.28291115E+01</totfact>
</mgrwt>
</event>
<event>
 8    1  0.7583103E-052  0.1702400E+04  0.7818608E-02  0.8759997E-01
          2   -1    0    0  501    0  0.00000000000E+00  0.00000000000E+00  0.28341838370E+04  0.28341838370E+04  0.25500000000E-02 0.  1.
         -2   -1    0    0    0  501 -0.00000000000E+00 -0.00000000000E+00 -0.25564387261E+03  0.25564387263E+03  0.25500000000E-02 0. -1.
     200001    2    1    2    0    0 -0.25004796083E+03  0.36383734742E+03  0.57906467069E+03  0.95240588692E+03  0.61388881933E+03 0.  0.
    5000001    2    3    3    0    0 -0.98569044737E+02 -0.72738979850E+02 -0.63000988289E+02  0.15491352834E+03  0.70867912104E+02 0.  0.
        -13    1    4    4    0    0 -0.32305087573E+02  0.35640317495E+01 -0.30570552481E+02  0.44619399911E+02  0.10566000000E+00 0. -1.
     200003    1    4    4    0    0 -0.66263957164E+02 -0.76303011600E+02 -0.32430435808E+02  0.11029412842E+03  0.30000000000E+02 0. -1.
     200000    1    3    3    0    0 -0.15147891609E+03  0.43657632727E+03  0.64206565898E+03  0.79749235858E+03  0.10100000000E+03 0.  1.
    -200001    1    1    2    0    0  0.25004796083E+03 -0.36383734742E+03  0.19994752936E+04  0.21374218227E+04  0.61300000000E+03 0.  1.
<mgrwt>
<rscale>  0 0.17024003E+04</rscale>
<asrwt>0</asrwt>
<pdfrwt beam="1">  1        2 0.40488342E+00 0.17024003E+04</pdfrwt>
<pdfrwt beam="2">  1       -2 0.36520552E-01 0.17024003E+04</pdfrwt>
<totfact> 0.19660814E+01</totfact>
</mgrwt>
</event>
<event>
 8    1  0.7583103E-052  0.1630909E+04  0.7818608E-02  0.8801782E-01
          2   -1    0    0  501    0  0.00000000000E+00  0.00000000000E+00  0.38025223564E+04  0.38025223564E+04  0.25500000000E-02 0.  1.
         -2   -1    0    0    0  501 -0.00000000000E+00 -0.00000000000E+00 -0.17487488768E+03  0.17487488770E+03  0.25500000000E-02 0. -1.
     200001    2    1    2    0    0 -0.45008678429E+03 -0.15829176126E+03  0.24186011887E+04  0.25403181571E+04  0.61314780784E+03 0.  0.
    5000001    2    3    3    0    0 -0.23739812409E+03  0.14899852284E+03  0.49824778858E+03  0.58133322449E+03  0.10554160287E+03 0.  0.
        -13    1    4    4    0    0 -0.31448969127E+02 -0.11955043721E+02  0.34750971117E+02  0.48369431330E+02  0.10566000000E+00 0. -1.
     200003    1    4    4    0    0 -0.20594915497E+03  0.16095356656E+03  0.46349681747E+03  0.53296379316E+03  0.30000000000E+02 0. -1.
     200000    1    3    3    0    0 -0.21268866020E+03 -0.30729028410E+03  0.19203534001E+04  0.19589849326E+04  0.10100000000E+03 0.  1.
    -200001    1    1    2    0    0  0.45008678429E+03  0.15829176126E+03  0.12090462801E+04  0.14370790870E+04  0.61300000000E+03 0. -1.
<mgrwt>
<rscale>  0 0.16309085E+04</rscale>
<asrwt>0</asrwt>
<pdfrwt beam="1">  1        2 0.54321751E+00 0.16309085E+04</pdfrwt>
<pdfrwt beam="2">  1       -2 0.24982126E-01 0.16309085E+04</pdfrwt>
<totfact> 0.10767838E+01</totfact>
</mgrwt>
</event>
<event>
 8    1  0.7583103E-052  0.1347023E+04  0.7818608E-02  0.8993085E-01
          2   -1    0    0  501    0  0.00000000000E+00  0.00000000000E+00  0.16039260592E+04  0.16039260592E+04  0.25500000000E-02 0.  1.
         -2   -1    0    0    0  501 -0.00000000000E+00 -0.00000000000E+00 -0.28281709794E+03  0.28281709796E+03  0.25500000000E-02 0. -1.
     200001    2    1    2    0    0 -0.67552577609E+02 -0.25820521890E+03  0.76879399873E+03  0.10195326270E+04  0.61414109061E+03 0.  0.
    5000001    2    3    3    0    0  0.52172441334E+02 -0.75587076614E+02 -0.34209425387E+02  0.18126121198E+03  0.15247941631E+03 0.  0.
        -13    1    4    4    0    0 -0.26942459496E+02 -0.20741600995E+02 -0.67080679312E+02  0.75205976069E+02  0.10566000000E+00 0. -1.
     200003    1    4    4    0    0  0.79114900830E+02 -0.54845475620E+02  0.32871253925E+02  0.10605523591E+03  0.30000000000E+02 0. -1.
     200000    1    3    3    0    0 -0.11972501894E+03 -0.18261814228E+03  0.80300342412E+03  0.83827141499E+03  0.10100000000E+03 0.  1.
    -200001    1    1    2    0    0  0.67552577609E+02  0.25820521890E+03  0.55231496249E+03  0.86721053014E+03  0.61300000000E+03 0. -1.
<mgrwt>
<rscale>  0 0.13470230E+04</rscale>
<asrwt>0</asrwt>
<pdfrwt beam="1">  1        2 0.22913229E+00 0.13470230E+04</pdfrwt>
<pdfrwt beam="2">  1       -2 0.40402444E-01 0.13470230E+04</pdfrwt>
<totfact> 0.72985674E+01</totfact>
</mgrwt>
</event>
<event>
 8    1  0.7583103E-052  0.1656679E+04  0.7818608E-02  0.8786465E-01
          2   -1    0    0  501    0  0.00000000000E+00  0.00000000000E+00  0.17057435896E+04  0.17057435896E+04  0.25500000000E-02 0.  1.
         -2   -1    0    0    0  501 -0.00000000000E+00 -0.00000000000E+00 -0.40225629918E+03  0.40225629919E+03  0.25500000000E-02 0. -1.
     200001    2    1    2    0    0  0.33072635819E+03  0.22683462676E+03  0.11438161385E+04  0.13582681043E+04  0.61297880274E+03 0.  0.
    5000001    2    3    3    0    0 -0.10011540684E+03  0.19718601972E+03  0.31590516375E+03  0.41904435647E+03  0.16400207057E+03 0.  0.
        -13    1    4    4    0    0 -0.96021724235E+02  0.20342620937E+03  0.31629195947E+03  0.38812756791E+03  0.10566000000E+00 0. -1.
     200003    1    4    4    0    0 -0.40936826080E+01 -0.62401896512E+01 -0.38679572039E+00  0.30916788564E+02  0.30000000000E+02 0.  1.
     200000    1    3    3    0    0  0.43084176503E+03  0.29648607040E+02  0.82791097477E+03  0.93922374786E+03  0.10100000000E+03 0.  1.
    -200001    1    1    2    0    0 -0.33072635819E+03 -0.22683462676E+03  0.15967115191E+03  0.74973178447E+03  0.61300000000E+03 0. -1.
<mgrwt>
<rscale>  0 0.16566787E+04</rscale>
<asrwt>0</asrwt>
<pdfrwt beam="1">  1        2 0.24367766E+00 0.16566787E+04</pdfrwt>
<pdfrwt beam="2">  1       -2 0.57465186E-01 0.16566787E+04</pdfrwt>
<totfact> 0.30918074E+01</totfact>
</mgrwt>
</event>
<event>
 8    1  0.7583103E-052  0.1692453E+04  0.7818608E-02  0.8765680E-01
         -2   -1    0    0    0  501 -0.00000000000E+00  0.00000000000E+00  0.15687550606E+04  0.15687550606E+04  0.25500000000E-02 0. -1.
          2   -1    0    0  501    0  0.00000000000E+00 -0.00000000000E+00 -0.45647632652E+03  0.45647632653E+03  0.25500000000E-02 0.  1.
     200001    2    1    2    0    0  0.33646752315E+02  0.33496026447E+03  0.11264163319E+04  0.13257320273E+04  0.61271622520E+03 0.  0.
    5000001    2    3    3    0    0 -0.40805231845E+02  0.46686569806E+03  0.57590885808E+03  0.74590306965E+03  0.71216076280E+02 0.  0.
        -13    1    4    4    0    0 -0.10452005887E+02  0.28385020695E+03  0.38007967677E+03  0.47448999597E+03  0.10566000000E+00 0. -1.
     200003    1    4    4    0    0 -0.30353225959E+02  0.18301549111E+03  0.19582918131E+03  0.27141307368E+03  0.30000000000E+02 0. -1.
     200000    1    3    3    0    0  0.74451984160E+02 -0.13190543359E+03  0.55050747385E+03  0.57982895765E+03  0.10100000000E+03 0. -1.
    -200001    1    1    2    0    0 -0.33646752315E+02 -0.33496026447E+03 -0.14137597878E+02  0.69949935982E+03  0.61300000000E+03 0.  1.
<mgrwt>
<rscale>  0 0.16924533E+04</rscale>
<asrwt>0</asrwt>
<pdfrwt beam="1">  1        2 0.65210903E-01 0.16924533E+04</pdfrwt>
<pdfrwt beam="2">  1       -2 0.22410787E+00 0.16924533E+04</pdfrwt>
<totfact> 0.66169813E+00</totfact>
</mgrwt>
</event>
<event>
 8    1  0.7583103E-052  0.1375373E+04  0.7818608E-02  0.8971841E-01
          2   -1    0    0  501    0  0.00000000000E+00  0.00000000000E+00  0.62156391111E+03  0.62156391111E+03  0.25500000000E-02 0.  1.
         -2   -1    0    0    0  501 -0.00000000000E+00 -0.00000000000E+00 -0.76084274477E+03  0.76084274477E+03  0.25500000000E-02 0. -1.
     200001    2    1    2    0    0 -0.19210977005E+03 -0.34607757763E+02 -0.31125241280E+03  0.71648791267E+03  0.61512031659E+03 0.  0.
    5000001    2    3    3    0    0  0.31957770369E+02 -0.25514237876E+03 -0.26318355313E+03  0.38279134841E+03  0.10556846714E+03 0.  0.
        -13    1    4    4    0    0  0.45019905492E+02 -0.51186715330E+02 -0.41597890034E+02  0.79857794460E+02  0.10566000000E+00 0. -1.
     200003    1    4    4    0    0 -0.13062135123E+02 -0.20395566343E+03 -0.22158566310E+03  0.30293355395E+03  0.30000000000E+02 0. -1.
     200000    1    3    3    0    0 -0.22406754042E+03  0.22053462100E+03 -0.48068859669E+02  0.33369656426E+03  0.10100000000E+03 0.  1.
    -200001    1    1    2    0    0  0.19210977005E+03  0.34607757763E+02  0.17197357914E+03  0.66591874322E+03  0.61300000000E+03 0.  1.
<mgrwt>
<rscale>  0 0.13753725E+04</rscale>
<asrwt>0</asrwt>
<pdfrwt beam="1">  1        2 0.88794844E-01 0.13753725E+04</pdfrwt>
<pdfrwt beam="2">  1       -2 0.10869182E+00 0.13753725E+04</pdfrwt>
<totfact> 0.34361273E+01</totfact>
</mgrwt>
</event>
<event>
 8    1  0.7583103E-052  0.1489695E+04  0.7818608E-02  0.8891335E-01
         -2   -1    0    0    0  501 -0.00000000000E+00  0.00000000000E+00  0.30635402244E+03  0.30635402245E+03  0.25500000000E-02 0. -1.
          2   -1    0    0  501    0  0.00000000000E+00 -0.00000000000E+00 -0.18109684102E+04  0.18109684102E+04  0.25500000000E-02 0.  1.
     200001    2    1    2    0    0  0.12739805599E+03 -0.34891420171E+03 -0.10409429774E+04  0.12636646783E+04  0.61262937575E+03 0.  0.
    5000001    2    3    3    0    0 -0.89478813002E+02 -0.17386434830E+03 -0.91550093819E+03  0.94177225418E+03  0.10275087025E+03 0.  0.
        -13    1    4    4    0    0  0.36155948083E+01 -0.24088512649E+02 -0.31319614744E+02  0.39676925274E+02  0.10566000000E+00 0. -1.
     200003    1    4    4    0    0 -0.93094407810E+02 -0.14977583566E+03 -0.88418132345E+03  0.90209532891E+03  0.30000000000E+02 0. -1.
     200000    1    3    3    0    0  0.21687686899E+03 -0.17504985341E+03 -0.12544203925E+03  0.32189242410E+03  0.10100000000E+03 0. -1.
    -200001    1    1    2    0    0 -0.12739805599E+03  0.34891420171E+03 -0.46367141030E+03  0.85365775434E+03  0.61300000000E+03 0. -1.
<mgrwt>
<rscale>  0 0.14896945E+04</rscale>
<asrwt>0</asrwt>
<pdfrwt beam="1">  1        2 0.25870977E+00 0.14896945E+04</pdfrwt>
<pdfrwt beam="2">  1       -2 0.43764861E-01 0.14896945E+04</pdfrwt>
<totfact> 0.48144331E+01</totfact>
</mgrwt>
</event>
<event>
 8    1  0.7583103E-052  0.1437522E+04  0.7818608E-02  0.8927097E-01
          2   -1    0    0  501    0  0.00000000000E+00  0.00000000000E+00  0.10012037345E+04  0.10012037345E+04  0.25500000000E-02 0.  1.
         -2   -1    0    0    0  501 -0.00000000000E+00 -0.00000000000E+00 -0.51599647748E+03  0.51599647748E+03  0.25500000000E-02 0. -1.
     200001    2    1    2    0    0  0.53232394853E+02 -0.34253057143E+03  0.10378391830E+03  0.71631717209E+03  0.61820571747E+03 0.  0.
    5000001    2    3    3    0    0  0.15318338322E+03 -0.10573386431E+02 -0.15490795450E+03  0.27212323043E+03  0.16271949108E+03 0.  0.
        -13    1    4    4    0    0  0.83920405032E+02  0.30309408162E+02 -0.16308012877E+03  0.18589360981E+03  0.10566000000E+00 0. -1.
     200003    1    4    4    0    0  0.69262978190E+02 -0.40882794593E+02  0.81721742649E+01  0.86229620628E+02  0.30000000000E+02 0.  1.
     200000    1    3    3    0    0 -0.99950988369E+02 -0.33195718500E+03  0.25869187281E+03  0.44419394166E+03  0.10100000000E+03 0. -1.
    -200001    1    1    2    0    0 -0.53232394853E+02  0.34253057143E+03  0.38142333867E+03  0.80088303984E+03  0.61300000000E+03 0.  1.
<mgrwt>
<rscale>  0 0.14375223E+04</rscale>
<asrwt>0</asrwt>
<pdfrwt beam="1">  1        2 0.14302910E+00 0.14375223E+04</pdfrwt>
<pdfrwt beam="2">  1       -2 0.73713784E-01 0.14375223E+04</pdfrwt>
<totfact> 0.45234124E+01</totfact>
</mgrwt>
</event>
<event>
 8    1  0.7583103E-052  0.1892218E+04  0.7818608E-02  0.8658740E-01
          2   -1    0    0  501    0  0.00000000000E+00  0.00000000000E+00  0.51144779733E+03  0.51144779734E+03  0.25500000000E-02 0.  1.
         -2   -1    0    0    0  501 -0.00000000000E+00 -0.00000000000E+00 -0.17501736488E+04  0.17501736488E+04  0.25500000000E-02 0. -1.
     200001    2    1    2    0    0 -0.36625466936E+03 -0.41127923421E+03 -0.11751288873E+04  0.14351187752E+04  0.61265398534E+03 0.  0.
    5000001    2    3    3    0    0 -0.39415006232E+02  0.56461396806E+02  0.19801758731E+02  0.10708801042E+03  0.79588317490E+02 0.  0.
        -13    1    4    4    0    0  0.27881653818E+01  0.30671448241E+02  0.35648752544E+02  0.47110044846E+02  0.10566000000E+00 0. -1.
     200003    1    4    4    0    0 -0.42203171613E+02  0.25789948564E+02 -0.15846993813E+02  0.59977965572E+02  0.30000000000E+02 0.  1.
     200000    1    3    3    0    0 -0.32683966313E+03 -0.46774063102E+03 -0.11949306460E+04  0.13280307648E+04  0.10100000000E+03 0. -1.
    -200001    1    1    2    0    0  0.36625466936E+03  0.41127923421E+03 -0.63596964197E+02  0.82650267101E+03  0.61300000000E+03 0.  1.
<mgrwt>
<rscale>  0 0.18922182E+04</rscale>
<asrwt>0</asrwt>
<pdfrwt beam="1">  1        2 0.73063972E-01 0.18922182E+04</pdfrwt>
<pdfrwt beam="2">  1       -2 0.25002480E+00 0.18922182E+04</pdfrwt>
<totfact> 0.39496701E+00</totfact>
</mgrwt>
</event>
<event>
 8    1  0.7583103E-052  0.1383223E+04  0.7818608E-02  0.8966053E-01
         -2   -1    0    0    0  501 -0.00000000000E+00  0.00000000000E+00  0.63425161632E+03  0.63425161633E+03  0.25500000000E-02 0. -1.
          2   -1    0    0  501    0  0.00000000000E+00 -0.00000000000E+00 -0.75415887953E+03  0.75415887954E+03  0.25500000000E-02 0.  1.
     200001    2    1    2    0    0  0.61745411920E+02  0.29675327024E+03  0.45406359545E+02  0.68486760935E+03  0.61245971750E+03 0.  0.
    5000001    2    3    3    0    0  0.15129673177E+03 -0.84678277397E+02  0.17480799952E+03  0.26006736353E+03  0.83762074775E+02 0.  0.
        -13    1    4    4    0    0  0.72691495189E+02 -0.14406503473E+02  0.11027389446E+03  0.13286061786E+03  0.10566000000E+00 0. -1.
     200003    1    4    4    0    0  0.78605236579E+02 -0.70271773924E+02  0.64534105065E+02  0.12720674567E+03  0.30000000000E+02 0. -1.
     200000    1    3    3    0    0 -0.89551319848E+02  0.38143154764E+03 -0.12940163998E+03  0.42480024582E+03  0.10100000000E+03 0. -1.
    -200001    1    1    2    0    0 -0.61745411920E+02 -0.29675327024E+03 -0.16531362276E+03  0.70354288651E+03  0.61300000000E+03 0.  1.
<mgrwt>
<rscale>  0 0.13832230E+04</rscale>
<asrwt>0</asrwt>
<pdfrwt beam="1">  1        2 0.10773698E+00 0.13832230E+04</pdfrwt>
<pdfrwt beam="2">  1       -2 0.90607375E-01 0.13832230E+04</pdfrwt>
<totfact> 0.41644586E+01</totfact>
</mgrwt>
</event>
<event>
 8    1  0.7583103E-052  0.1285154E+04  0.7818608E-02  0.9041421E-01
          2   -1    0    0  501    0  0.00000000000E+00  0.00000000000E+00  0.37263505457E+04  0.37263505457E+04  0.25500000000E-02 0.  1.
         -2   -1    0    0    0  501 -0.00000000000E+00 -0.00000000000E+00 -0.11080691397E+03  0.11080691400E+03  0.25500000000E-02 0. -1.
     200001    2    1    2    0    0 -0.15350399372E+03  0.50425707181E+02  0.15010584070E+04  0.16296876425E+04  0.61367682297E+03 0.  0.
    5000001    2    3    3    0    0 -0.31249594611E+02 -0.24469050533E+02  0.40544955605E+02  0.15868257644E+03  0.14819242573E+03 0.  0.
        -13    1    4    4    0    0  0.42736672433E+02 -0.42360113021E+02 -0.12118701916E+02  0.61381401466E+02  0.10566000000E+00 0. -1.
     200003    1    4    4    0    0 -0.73986267045E+02  0.17891062487E+02  0.52663657521E+02  0.97301174976E+02  0.30000000000E+02 0. -1.
     200000    1    3    3    0    0 -0.12225439911E+03  0.74894757715E+02  0.14605134514E+04  0.14710050661E+04  0.10100000000E+03 0.  1.
    -200001    1    1    2    0    0  0.15350399372E+03 -0.50425707181E+02  0.21144852247E+04  0.22074698172E+04  0.61300000000E+03 0.  1.
<mgrwt>
<rscale>  0 0.12851543E+04</rscale>
<asrwt>0</asrwt>
<pdfrwt beam="1">  1        2 0.53233577E+00 0.12851543E+04</pdfrwt>
<pdfrwt beam="2">  1       -2 0.15829560E-01 0.12851543E+04</pdfrwt>
<totfact> 0.27857104E+01</totfact>
</mgrwt>
</event>
<event>
 8    1  0.7583103E-052  0.1600781E+04  0.7818608E-02  0.8820068E-01
         -2   -1    0    0    0  501 -0.00000000000E+00  0.00000000000E+00  0.32563337824E+03  0.32563337825E+03  0.25500000000E-02 0. -1.
          2   -1    0    0  501    0  0.00000000000E+00 -0.00000000000E+00 -0.19673195948E+04  0.19673195948E+04  0.25500000000E-02 0.  1.
     200001    2    1    2    0    0  0.46975065921E+03 -0.15228930562E+02 -0.11195597704E+04  0.13605996989E+04  0.61393799264E+03 0.  0.
    5000001    2    3    3    0    0  0.30572401390E+03  0.23486466471E+03 -0.63407225768E+03  0.78150499865E+03  0.24509967677E+03 0.  0.
        -13    1    4    4    0    0  0.18653001393E+03  0.25340789670E+03 -0.34556166363E+03  0.46735626961E+03  0.10566000000E+00 0. -1.
     200003    1    4    4    0    0  0.11919399997E+03 -0.18543231988E+02 -0.28851059404E+03  0.31414872904E+03  0.30000000000E+02 0. -1.
     200000    1    3    3    0    0  0.16402664531E+03 -0.25009359527E+03 -0.48548751277E+03  0.57909470022E+03  0.10100000000E+03 0.  1.
    -200001    1    1    2    0    0 -0.46975065921E+03  0.15228930562E+02 -0.52212644611E+03  0.93235327418E+03  0.61300000000E+03 0.  1.
<mgrwt>
<rscale>  0 0.16007810E+04</rscale>
<asrwt>0</asrwt>
<pdfrwt beam="1">  1        2 0.28104565E+00 0.16007810E+04</pdfrwt>
<pdfrwt beam="2">  1       -2 0.46519055E-01 0.16007810E+04</pdfrwt>
<totfact> 0.35101158E+01</totfact>
</mgrwt>
</event>
<event>
 8    1  0.7583103E-052  0.1661024E+04  0.7818608E-02  0.8783911E-01
         -2   -1    0    0    0  501 -0.00000000000E+00  0.00000000000E+00  0.35466277478E+03  0.35466277479E+03  0.25500000000E-02 0. -1.
          2   -1    0    0  501    0  0.00000000000E+00 -0.00000000000E+00 -0.19448058763E+04  0.19448058763E+04  0.25500000000E-02 0.  1.
     200001    2    1    2    0    0  0.20202445576E+03 -0.37558121267E+03 -0.12980803881E+04  0.14976302904E+04  0.61319545408E+03 0.  0.
    5000001    2    3    3    0    0 -0.24070985212E+02 -0.22215132134E+03 -0.11430669174E+04  0.11676453573E+04  0.82843714464E+02 0.  0.
        -13    1    4    4    0    0  0.30331555358E+01 -0.13705698788E+02 -0.18576379399E+02  0.23283883855E+02  0.10566000000E+00 0. -1.
     200003    1    4    4    0    0 -0.27104140748E+02 -0.20844562255E+03 -0.11244905380E+04  0.11443614735E+04  0.30000000000E+02 0. -1.
     200000    1    3    3    0    0  0.22609544097E+03 -0.15342989133E+03 -0.15501347073E+03  0.32998493313E+03  0.10100000000E+03 0. -1.
    -200001    1    1    2    0    0 -0.20202445576E+03  0.37558121267E+03 -0.29206271345E+03  0.80183836066E+03  0.61300000000E+03 0. -1.
<mgrwt>
<rscale>  0 0.16610241E+04</rscale>
<asrwt>0</asrwt>
<pdfrwt beam="1">  1        2 0.27782941E+00 0.16610241E+04</pdfrwt>
<pdfrwt beam="2">  1       -2 0.50666112E-01 0.16610241E+04</pdfrwt>
<totfact> 0.30178054E+01</totfact>
</mgrwt>
</event>
<event>
 8    1  0.7583103E-052  0.1275605E+04  0.7818608E-02  0.9049138E-01
          2   -1    0    0  501    0  0.00000000000E+00  0.00000000000E+00  0.14752718675E+04  0.14752718675E+04  0.25500000000E-02 0.  1.
         -2   -1    0    0    0  501 -0.00000000000E+00 -0.00000000000E+00 -0.27574023529E+03  0.27574023530E+03  0.25500000000E-02 0. -1.
     200001    2    1    2    0    0  0.17215845765E+03  0.20372426787E+01  0.65172027075E+03  0.91106628750E+03  0.61291091034E+03 0.  0.
    5000001    2    3    3    0    0  0.31716668422E+03 -0.15302958965E+03  0.22891336111E+03  0.42728969536E+03  0.78500929802E+02 0.  0.
        -13    1    4    4    0    0  0.21883024498E+03 -0.95985659718E+02  0.18335511799E+03  0.30119600504E+03  0.10566000000E+00 0. -1.
     200003    1    4    4    0    0  0.98336439237E+02 -0.57043929932E+02  0.45558243112E+02  0.12609369032E+03  0.30000000000E+02 0. -1.
     200000    1    3    3    0    0 -0.14500822657E+03  0.15506683233E+03  0.42280690964E+03  0.48377659214E+03  0.10100000000E+03 0.  1.
    -200001    1    1    2    0    0 -0.17215845765E+03 -0.20372426787E+01  0.54781136147E+03  0.83994581531E+03  0.61300000000E+03 0.  1.
<mgrwt>
<rscale>  0 0.12756047E+04</rscale>
<asrwt>0</asrwt>
<pdfrwt beam="1">  1        2 0.21075312E+00 0.12756047E+04</pdfrwt>
<pdfrwt beam="2">  1       -2 0.39391462E-01 0.12756047E+04</pdfrwt>
<totfact> 0.90147873E+01</totfact>
</mgrwt>
</event>
<event>
 8    1  0.7583103E-052  0.1501936E+04  0.7818608E-02  0.8883166E-01
         -2   -1    0    0    0  501 -0.00000000000E+00  0.00000000000E+00  0.13186405099E+03  0.13186405102E+03  0.25500000000E-02 0. -1.
          2   -1    0    0  501    0  0.00000000000E+00 -0.00000000000E+00 -0.42767774876E+04  0.42767774876E+04  0.25500000000E-02 0.  1.
     200001    2    1    2    0    0  0.35595550075E+03 -0.67067386226E+02 -0.13712369692E+04  0.15450332381E+04  0.61289030699E+03 0.  0.
    5000001    2    3    3    0    0 -0.87362788443E+02 -0.19504691268E+03 -0.49953006282E+03  0.55357784561E+03  0.10603109232E+03 0.  0.
        -13    1    4    4    0    0 -0.43649699921E+02 -0.17624180103E+03 -0.36181829992E+03  0.40481966609E+03  0.10566000000E+00 0. -1.
     200003    1    4    4    0    0 -0.43713088522E+02 -0.18805111649E+02 -0.13771176290E+03  0.14875817952E+03  0.30000000000E+02 0.  1.
     200000    1    3    3    0    0  0.44331828919E+03  0.12797952645E+03 -0.87170690634E+03  0.99145539249E+03  0.10100000000E+03 0.  1.
    -200001    1    1    2    0    0 -0.35595550075E+03  0.67067386226E+02 -0.27736764674E+04  0.28636083005E+04  0.61300000000E+03 0.  1.
<mgrwt>
<rscale>  0 0.15019364E+04</rscale>
<asrwt>0</asrwt>
<pdfrwt beam="1">  1        2 0.61096813E+00 0.15019364E+04</pdfrwt>
<pdfrwt beam="2">  1       -2 0.18837724E-01 0.15019364E+04</pdfrwt>
<totfact> 0.84822363E+00</totfact>
</mgrwt>
</event>
<event>
 8    1  0.7583103E-052  0.1328538E+04  0.7818608E-02  0.9007236E-01
          2   -1    0    0  501    0  0.00000000000E+00  0.00000000000E+00  0.17428984267E+04  0.17428984267E+04  0.25500000000E-02 0.  1.
         -2   -1    0    0    0  501 -0.00000000000E+00 -0.00000000000E+00 -0.25317209214E+03  0.25317209215E+03  0.25500000000E-02 0. -1.
     200001    2    1    2    0    0 -0.56312337468E+02 -0.19179218122E+03  0.98380573539E+03  0.11765096774E+04  0.61347043609E+03 0.  0.
    5000001    2    3    3    0    0  0.12190261854E+03  0.16145948296E+03  0.28006404173E+03  0.36287543515E+03  0.11096531407E+03 0.  0.
        -13    1    4    4    0    0  0.71434053556E+02  0.10225973056E+03  0.85583766435E+02  0.15127613409E+03  0.10566000000E+00 0. -1.
     200003    1    4    4    0    0  0.50468564987E+02  0.59199752391E+02  0.19448027529E+03  0.21159930107E+03  0.30000000000E+02 0. -1.
     200000    1    3    3    0    0 -0.17821495601E+03 -0.35325166418E+03  0.70374169366E+03  0.81363424227E+03  0.10100000000E+03 0.  1.
    -200001    1    1    2    0    0  0.56312337468E+02  0.19179218122E+03  0.50592059915E+03  0.81956084141E+03  0.61300000000E+03 0. -1.
<mgrwt>
<rscale>  0 0.13285379E+04</rscale>
<asrwt>0</asrwt>
<pdfrwt beam="1">  1        2 0.24898549E+00 0.13285379E+04</pdfrwt>
<pdfrwt beam="2">  1       -2 0.36167442E-01 0.13285379E+04</pdfrwt>
<totfact> 0.76680477E+01</totfact>
</mgrwt>
</event>
<event>
 8    1  0.7583103E-052  0.1959239E+04  0.7818608E-02  0.8625919E-01
          2   -1    0    0  501    0  0.00000000000E+00  0.00000000000E+00  0.32738273016E+04  0.32738273016E+04  0.25500000000E-02 0.  1.
         -2   -1    0    0    0  501 -0.00000000000E+00 -0.00000000000E+00 -0.29312914403E+03  0.29312914404E+03  0.25500000000E-02 0. -1.
     200001    2    1    2    0    0  0.72764886821E+03  0.54606211959E+02  0.19033337269E+04  0.21285761655E+04  0.61294575830E+03 0.  0.
    5000001    2    3    3    0    0  0.11660494910E+02  0.10230167767E+03  0.13096030593E+03  0.21378564132E+03  0.13398544067E+03 0.  0.
        -13    1    4    4    0    0 -0.19184949828E+01  0.79875049028E+02  0.14975323679E+03  0.16973434294E+03  0.10566000000E+00 0. -1.
     200003    1    4    4    0    0  0.13578989893E+02  0.22426628641E+02 -0.18792930860E+02  0.44051298381E+02  0.30000000000E+02 0. -1.
     200000    1    3    3    0    0  0.71598837330E+03 -0.47695465710E+02  0.17723734210E+04  0.19147905242E+04  0.10100000000E+03 0.  1.
    -200001    1    1    2    0    0 -0.72764886821E+03 -0.54606211959E+02  0.10773644307E+04  0.14383802801E+04  0.61300000000E+03 0. -1.
<mgrwt>
<rscale>  0 0.19592388E+04</rscale>
<asrwt>0</asrwt>
<pdfrwt beam="1">  1        2 0.46768962E+00 0.19592388E+04</pdfrwt>
<pdfrwt beam="2">  1       -2 0.41875591E-01 0.19592388E+04</pdfrwt>
<totfact> 0.83233811E+00</totfact>
</mgrwt>
</event>
<event>
 8    1  0.7583103E-052  0.1601798E+04  0.7818608E-02  0.8819444E-01
          2   -1    0    0  501    0  0.00000000000E+00  0.00000000000E+00  0.16673900110E+04  0.16673900110E+04  0.25500000000E-02 0.  1.
         -2   -1    0    0    0  501 -0.00000000000E+00 -0.00000000000E+00 -0.38469642630E+03  0.38469642631E+03  0.25500000000E-02 0. -1.
     200001    2    1    2    0    0 -0.46785930815E+02  0.12694346558E+03  0.23826099006E+01  0.62615910433E+03  0.61136403257E+03 0.  0.
    5000001    2    3    3    0    0  0.26732708675E+03  0.79356008872E+02  0.32501914108E+02  0.29143574643E+03  0.78212993955E+02 0.  0.
        -13    1    4    4    0    0  0.16350999286E+03  0.77205042296E+02  0.30198106686E+02  0.18332504775E+03  0.10566000000E+00 0. -1.
     200003    1    4    4    0    0  0.10381709389E+03  0.21509665763E+01  0.23038074222E+01  0.10811069868E+03  0.30000000000E+02 0. -1.
     200000    1    3    3    0    0 -0.31411301756E+03  0.47587456711E+02 -0.30119304208E+02  0.33472335790E+03  0.10100000000E+03 0. -1.
    -200001    1    1    2    0    0  0.46785930815E+02 -0.12694346558E+03  0.12803109748E+04  0.14259273330E+04  0.61300000000E+03 0.  1.
<mgrwt>
<rscale>  0 0.16017977E+04</rscale>
<asrwt>0</asrwt>
<pdfrwt beam="1">  1        2 0.23819857E+00 0.16017977E+04</pdfrwt>
<pdfrwt beam="2">  1       -2 0.54956633E-01 0.16017977E+04</pdfrwt>
<totfact> 0.35682906E+01</totfact>
</mgrwt>
</event>
<event>
 8    1  0.7583103E-052  0.1507227E+04  0.7818608E-02  0.8879661E-01
         -2   -1    0    0    0  501 -0.00000000000E+00  0.00000000000E+00  0.41382143911E+03  0.41382143911E+03  0.25500000000E-02 0. -1.
          2   -1    0    0  501    0  0.00000000000E+00 -0.00000000000E+00 -0.13724114990E+04  0.13724114990E+04  0.25500000000E-02 0.  1.
     200001    2    1    2    0    0  0.41564249402E+03  0.13208885941E+03 -0.43222675155E+03  0.86806439040E+03  0.61360383923E+03 0.  0.
    5000001    2    3    3    0    0 -0.39621592724E+02  0.28542861255E+02 -0.37610033838E+03  0.38708794954E+03  0.77466448281E+02 0.  0.
        -13    1    4    4    0    0 -0.34674142490E+02  0.45008343874E+02 -0.24538560308E+03  0.25187725689E+03  0.10566000000E+00 0. -1.
     200003    1    4    4    0    0 -0.49474502340E+01 -0.16465482618E+02 -0.13071473530E+03  0.13521069265E+03  0.30000000000E+02 0. -1.
     200000    1    3    3    0    0  0.45526408674E+03  0.10354599815E+03 -0.56126413169E+02  0.48097644086E+03  0.10100000000E+03 0. -1.
    -200001    1    1    2    0    0 -0.41564249402E+03 -0.13208885941E+03 -0.52636330831E+03  0.91816854768E+03  0.61300000000E+03 0. -1.
<mgrwt>
<rscale>  0 0.15072270E+04</rscale>
<asrwt>0</asrwt>
<pdfrwt beam="1">  1        2 0.19605878E+00 0.15072270E+04</pdfrwt>
<pdfrwt beam="2">  1       -2 0.59117349E-01 0.15072270E+04</pdfrwt>
<totfact> 0.44268025E+01</totfact>
</mgrwt>
</event>
<event>
 8    1  0.7583103E-052  0.1358593E+04  0.7818608E-02  0.8984349E-01
         -2   -1    0    0    0  501 -0.00000000000E+00  0.00000000000E+00  0.24922986243E+03  0.24922986244E+03  0.25500000000E-02 0. -1.
          2   -1    0    0  501    0  0.00000000000E+00 -0.00000000000E+00 -0.18514773501E+04  0.18514773501E+04  0.25500000000E-02 0.  1.
     200001    2    1    2    0    0  0.55530188035E+02 -0.28429288790E+03 -0.76288727205E+03  0.10217259247E+04  0.61483398370E+03 0.  0.
    5000001    2    3    3    0    0 -0.11774445320E+03 -0.41243048472E+03 -0.45225848685E+03  0.63040177877E+03  0.94371620578E+02 0.  0.
        -13    1    4    4    0    0 -0.13341634069E+02 -0.13614046231E+02 -0.19723101876E+01  0.19163575500E+02  0.10566000000E+00 0. -1.
     200003    1    4    4    0    0 -0.10440281913E+03 -0.39881643848E+03 -0.45028617666E+03  0.61123820327E+03  0.30000000000E+02 0. -1.
     200000    1    3    3    0    0  0.17327464123E+03  0.12813759681E+03 -0.31062878520E+03  0.39132414595E+03  0.10100000000E+03 0. -1.
    -200001    1    1    2    0    0 -0.55530188035E+02  0.28429288790E+03 -0.83936021565E+03  0.10789812878E+04  0.61300000000E+03 0. -1.
<mgrwt>
<rscale>  0 0.13585926E+04</rscale>
<asrwt>0</asrwt>
<pdfrwt beam="1">  1        2 0.26449676E+00 0.13585926E+04</pdfrwt>
<pdfrwt beam="2">  1       -2 0.35604267E-01 0.13585926E+04</pdfrwt>
<totfact> 0.69304356E+01</totfact>
</mgrwt>
</event>
<event>
 8    1  0.7583103E-052  0.1473440E+04  0.7818608E-02  0.8902309E-01
         -2   -1    0    0    0  501 -0.00000000000E+00  0.00000000000E+00  0.20788774826E+03  0.20788774828E+03  0.25500000000E-02 0. -1.
          2   -1    0    0  501    0  0.00000000000E+00 -0.00000000000E+00 -0.26108158089E+04  0.26108158089E+04  0.25500000000E-02 0.  1.
     200001    2    1    2    0    0 -0.18536516064E+03 -0.18625298373E+03 -0.18000011689E+04  0.19196261114E+04  0.61311482025E+03 0.  0.
    5000001    2    3    3    0    0  0.13882133357E+03 -0.23723005868E+03 -0.74154388090E+03  0.80686900596E+03  0.16000250647E+03 0.  0.
        -13    1    4    4    0    0  0.10695830811E+03 -0.18453696882E+03 -0.35379136588E+03  0.41311295582E+03  0.10566000000E+00 0. -1.
     200003    1    4    4    0    0  0.31863025464E+02 -0.52693089858E+02 -0.38775251502E+03  0.39375605013E+03  0.30000000000E+02 0. -1.
     200000    1    3    3    0    0 -0.32418649422E+03  0.50977074948E+02 -0.10584572880E+04  0.11127571054E+04  0.10100000000E+03 0. -1.
    -200001    1    1    2    0    0  0.18536516064E+03  0.18625298373E+03 -0.60292689176E+03  0.89907744580E+03  0.61300000000E+03 0. -1.
<mgrwt>
<rscale>  0 0.14734404E+04</rscale>
<asrwt>0</asrwt>
<pdfrwt beam="1">  1        2 0.37297367E+00 0.14734404E+04</pdfrwt>
<pdfrwt beam="2">  1       -2 0.29698251E-01 0.14734404E+04</pdfrwt>
<totfact> 0.39086317E+01</totfact>
</mgrwt>
</event>
<event>
 8    1  0.7583103E-052  0.1252773E+04  0.7818608E-02  0.9067878E-01
         -2   -1    0    0    0  501 -0.00000000000E+00  0.00000000000E+00  0.21335638345E+03  0.21335638346E+03  0.25500000000E-02 0. -1.
          2   -1    0    0  501    0  0.00000000000E+00 -0.00000000000E+00 -0.18389894591E+04  0.18389894591E+04  0.25500000000E-02 0.  1.
     200001    2    1    2    0    0  0.13286346286E+03 -0.10964124331E+02 -0.83747202604E+03  0.10450029258E+04  0.61065441026E+03 0.  0.
    5000001    2    3    3    0    0  0.19376462567E+03  0.17343187653E+03 -0.71092743029E+03  0.79216825359E+03  0.23342961445E+03 0.  0.
        -13    1    4    4    0    0  0.51576048623E+02  0.91760376818E+02 -0.55167431979E+03  0.56162676381E+03  0.10566000000E+00 0. -1.
     200003    1    4    4    0    0  0.14218857705E+03  0.81671499711E+02 -0.15925311050E+03  0.23054148978E+03  0.30000000000E+02 0. -1.
     200000    1    3    3    0    0 -0.60901162812E+02 -0.18439600086E+03 -0.12654459575E+03  0.25283467223E+03  0.10100000000E+03 0. -1.
    -200001    1    1    2    0    0 -0.13286346286E+03  0.10964124331E+02 -0.78816104958E+03  0.10073429167E+04  0.61300000000E+03 0. -1.
<mgrwt>
<rscale>  0 0.12527731E+04</rscale>
<asrwt>0</asrwt>
<pdfrwt beam="1">  1        2 0.26271277E+00 0.12527731E+04</pdfrwt>
<pdfrwt beam="2">  1       -2 0.30479484E-01 0.12527731E+04</pdfrwt>
<totfact> 0.95094693E+01</totfact>
</mgrwt>
</event>
<event>
 8    1  0.7583103E-052  0.1479539E+04  0.7818608E-02  0.8898174E-01
          2   -1    0    0  501    0  0.00000000000E+00  0.00000000000E+00  0.26271259570E+04  0.26271259570E+04  0.25500000000E-02 0.  1.
         -2   -1    0    0    0  501 -0.00000000000E+00 -0.00000000000E+00 -0.20831083896E+03  0.20831083898E+03  0.25500000000E-02 0. -1.
     200001    2    1    2    0    0  0.14963290012E+03  0.38108045670E+03  0.13263900079E+04  0.15175696022E+04  0.61326562358E+03 0.  0.
    5000001    2    3    3    0    0  0.11098580233E+03  0.29925619036E+03  0.13404853951E+04  0.13812299943E+04  0.94989930249E+02 0.  0.
        -13    1    4    4    0    0  0.50112329423E+02  0.19242136087E+03  0.95561160523E+03  0.97607928822E+03  0.10566000000E+00 0. -1.
     200003    1    4    4    0    0  0.60873472908E+02  0.10683482950E+03  0.38487378991E+03  0.40515070611E+03  0.30000000000E+02 0. -1.
     200000    1    3    3    0    0  0.38647097791E+02  0.81824266332E+02 -0.14095387220E+02  0.13633960785E+03  0.10100000000E+03 0. -1.
    -200001    1    1    2    0    0 -0.14963290012E+03 -0.38108045670E+03  0.10924251101E+04  0.13178671938E+04  0.61300000000E+03 0. -1.
<mgrwt>
<rscale>  0 0.14795389E+04</rscale>
<asrwt>0</asrwt>
<pdfrwt beam="1">  1        2 0.37530371E+00 0.14795389E+04</pdfrwt>
<pdfrwt beam="2">  1       -2 0.29758692E-01 0.14795389E+04</pdfrwt>
<totfact> 0.38150275E+01</totfact>
</mgrwt>
</event>
<event>
 8    1  0.7583103E-052  0.1235763E+04  0.7818608E-02  0.9082117E-01
         -2   -1    0    0    0  501 -0.00000000000E+00  0.00000000000E+00  0.55785088286E+03  0.55785088286E+03  0.25500000000E-02 0. -1.
          2   -1    0    0  501    0  0.00000000000E+00 -0.00000000000E+00 -0.68437153834E+03  0.68437153834E+03  0.25500000000E-02 0.  1.
     200001    2    1    2    0    0  0.54786896167E+02  0.79486168721E+01 -0.10077331485E+02  0.61580975195E+03  0.61323349019E+03 0.  0.
    5000001    2    3    3    0    0  0.29764201381E+02  0.29094648026E+03  0.52560945940E+02  0.30785118374E+03  0.80460774495E+02 0.  0.
        -13    1    4    4    0    0  0.46720114697E+02  0.20114221679E+03  0.45164232637E+02  0.21137828547E+03  0.10566000000E+00 0. -1.
     200003    1    4    4    0    0 -0.16955913316E+02  0.89804263470E+02  0.73967133026E+01  0.96472898275E+02  0.30000000000E+02 0.  1.
     200000    1    3    3    0    0  0.25022694786E+02 -0.28299786339E+03 -0.62638277425E+02  0.30795856821E+03  0.10100000000E+03 0.  1.
    -200001    1    1    2    0    0 -0.54786896167E+02 -0.79486168721E+01 -0.11644332400E+03  0.62641266926E+03  0.61300000000E+03 0.  1.
<mgrwt>
<rscale>  0 0.12357625E+04</rscale>
<asrwt>0</asrwt>
<pdfrwt beam="1">  1        2 0.97767362E-01 0.12357625E+04</pdfrwt>
<pdfrwt beam="2">  1       -2 0.79692984E-01 0.12357625E+04</pdfrwt>
<totfact> 0.63616838E+01</totfact>
</mgrwt>
</event>
<event>
 8    1  0.7583103E-052  0.1283954E+04  0.7818608E-02  0.9042387E-01
         -2   -1    0    0    0  501 -0.00000000000E+00  0.00000000000E+00  0.39596526485E+03  0.39596526485E+03  0.25500000000E-02 0. -1.
          2   -1    0    0  501    0  0.00000000000E+00 -0.00000000000E+00 -0.10408351236E+04  0.10408351237E+04  0.25500000000E-02 0.  1.
     200001    2    1    2    0    0  0.84696411458E+02 -0.19291553781E+02 -0.13345358192E+03  0.63376785216E+03  0.61343800481E+03 0.  0.
    5000001    2    3    3    0    0 -0.32849288992E+01  0.95129506736E+02 -0.33806021226E+03  0.36377198456E+03  0.94788901415E+02 0.  0.
        -13    1    4    4    0    0 -0.17195448778E+02  0.41587289178E+02 -0.43588771644E+02  0.62651243063E+02  0.10566000000E+00 0. -1.
     200003    1    4    4    0    0  0.13910519879E+02  0.53542217558E+02 -0.29447144061E+03  0.30112074150E+03  0.30000000000E+02 0. -1.
     200000    1    3    3    0    0  0.87981340357E+02 -0.11442106052E+03  0.20460663034E+03  0.26999586760E+03  0.10100000000E+03 0. -1.
    -200001    1    1    2    0    0 -0.84696411458E+02  0.19291553781E+02 -0.51141627689E+03  0.80303253634E+03  0.61300000000E+03 0.  1.
<mgrwt>
<rscale>  0 0.12839541E+04</rscale>
<asrwt>0</asrwt>
<pdfrwt beam="1">  1        2 0.14869073E+00 0.12839541E+04</pdfrwt>
<pdfrwt beam="2">  1       -2 0.56566467E-01 0.12839541E+04</pdfrwt>
<totfact> 0.76327738E+01</totfact>
</mgrwt>
</event>
<event>
 8    1  0.7583103E-052  0.1303234E+04  0.7818608E-02  0.9027004E-01
         -2   -1    0    0    0  501 -0.00000000000E+00  0.00000000000E+00  0.61000234276E+03  0.61000234277E+03  0.25500000000E-02 0. -1.
          2   -1    0    0  501    0  0.00000000000E+00 -0.00000000000E+00 -0.69607105055E+03  0.69607105056E+03  0.25500000000E-02 0.  1.
     200001    2    1    2    0    0 -0.13813996756E+03  0.42697239686E+02 -0.21118067370E+03  0.66394590682E+03  0.61263462628E+03 0.  0.
    5000001    2    3    3    0    0 -0.14562137853E+03 -0.24875997087E+03 -0.17781363893E+03  0.35359507935E+03  0.10161043725E+03 0.  0.
        -13    1    4    4    0    0 -0.14723454104E+03 -0.21288367997E+03 -0.15078510748E+03  0.29955572282E+03  0.10566000000E+00 0. -1.
     200003    1    4    4    0    0  0.16131625051E+01 -0.35876290901E+02 -0.27028531455E+02  0.54039356535E+02  0.30000000000E+02 0. -1.
     200000    1    3    3    0    0  0.74814109777E+01  0.29145721056E+03 -0.33367034764E+02  0.31035082746E+03  0.10100000000E+03 0. -1.
    -200001    1    1    2    0    0  0.13813996756E+03 -0.42697239686E+02  0.12511196591E+03  0.64212748651E+03  0.61300000000E+03 0. -1.
<mgrwt>
<rscale>  0 0.13032344E+04</rscale>
<asrwt>0</asrwt>
<pdfrwt beam="1">  1        2 0.99438721E-01 0.13032344E+04</pdfrwt>
<pdfrwt beam="2">  1       -2 0.87143192E-01 0.13032344E+04</pdfrwt>
<totfact> 0.50637488E+01</totfact>
</mgrwt>
</event>
<event>
 8    1  0.7583103E-052  0.1583655E+04  0.7818608E-02  0.8830653E-01
          2   -1    0    0  501    0  0.00000000000E+00  0.00000000000E+00  0.31065576733E+04  0.31065576733E+04  0.25500000000E-02 0.  1.
         -2   -1    0    0    0  501 -0.00000000000E+00 -0.00000000000E+00 -0.20182813968E+03  0.20182813970E+03  0.25500000000E-02 0. -1.
     200001    2    1    2    0    0  0.31796371775E+03  0.25549678028E+03  0.84232319952E+03  0.11184843500E+04  0.61246986727E+03 0.  0.
    5000001    2    3    3    0    0  0.21495697739E+03  0.43687923042E+03  0.46936115602E+03  0.67938109605E+03  0.64721053698E+02 0.  0.
        -13    1    4    4    0    0  0.13839035564E+03  0.27505545893E+03  0.26714202969E+03  0.40764233246E+03  0.10566000000E+00 0. -1.
     200003    1    4    4    0    0  0.76566621742E+02  0.16182377148E+03  0.20221912633E+03  0.27173876359E+03  0.30000000000E+02 0.  1.
     200000    1    3    3    0    0  0.10300674036E+03 -0.18138245014E+03  0.37296204350E+03  0.43910325400E+03  0.10100000000E+03 0.  1.
    -200001    1    1    2    0    0 -0.31796371775E+03 -0.25549678028E+03  0.20624063341E+04  0.21899014630E+04  0.61300000000E+03 0.  1.
<mgrwt>
<rscale>  0 0.15836550E+04</rscale>
<asrwt>0</asrwt>
<pdfrwt beam="1">  1        2 0.44379397E+00 0.15836550E+04</pdfrwt>
<pdfrwt beam="2">  1       -2 0.28832590E-01 0.15836550E+04</pdfrwt>
<totfact> 0.21907956E+01</totfact>
</mgrwt>
</event>
<event>
 8    1  0.7583103E-052  0.1389046E+04  0.7818608E-02  0.8961786E-01
         -2   -1    0    0    0  501 -0.00000000000E+00  0.00000000000E+00  0.30777870903E+03  0.30777870904E+03  0.25500000000E-02 0. -1.
          2   -1    0    0  501    0  0.00000000000E+00 -0.00000000000E+00 -0.15672367975E+04  0.15672367975E+04  0.25500000000E-02 0.  1.
     200001    2    1    2    0    0  0.97326197944E+02 -0.12305385970E+03 -0.10139431561E+04  0.11962952230E+04  0.61516412090E+03 0.  0.
    5000001    2    3    3    0    0  0.15848733866E+03  0.19299826542E+03 -0.25541467563E+03  0.36611687676E+03  0.80239291825E+02 0.  0.
        -13    1    4    4    0    0  0.97527003769E+02  0.90726676021E+02 -0.92742467296E+02  0.16230841817E+03  0.10566000000E+00 0. -1.
     200003    1    4    4    0    0  0.60960334894E+02  0.10227158939E+03 -0.16267220833E+03  0.20380845858E+03  0.30000000000E+02 0. -1.
     200000    1    3    3    0    0 -0.61161140719E+02 -0.31605212511E+03 -0.75852848047E+03  0.83017834626E+03  0.10100000000E+03 0.  1.
    -200001    1    1    2    0    0 -0.97326197944E+02  0.12305385970E+03 -0.24551493233E+03  0.67872028347E+03  0.61300000000E+03 0. -1.
<mgrwt>
<rscale>  0 0.13890459E+04</rscale>
<asrwt>0</asrwt>
<pdfrwt beam="1">  1        2 0.22389097E+00 0.13890459E+04</pdfrwt>
<pdfrwt beam="2">  1       -2 0.43968388E-01 0.13890459E+04</pdfrwt>
<totfact> 0.64375528E+01</totfact>
</mgrwt>
</event>
<event>
 8    1  0.7583103E-052  0.1245960E+04  0.7818608E-02  0.9073552E-01
          2   -1    0    0  501    0  0.00000000000E+00  0.00000000000E+00  0.12211766045E+04  0.12211766045E+04  0.25500000000E-02 0.  1.
         -2   -1    0    0    0  501 -0.00000000000E+00 -0.00000000000E+00 -0.31781169174E+03  0.31781169175E+03  0.25500000000E-02 0. -1.
     200001    2    1    2    0    0  0.53787590794E+02 -0.15230776644E+02  0.57148899253E+03  0.83967741551E+03  0.61264460501E+03 0.  0.
    5000001    2    3    3    0    0 -0.11988393934E+02 -0.26666936129E+03  0.22114723976E+03  0.39191834441E+03  0.18285955593E+03 0.  0.
        -13    1    4    4    0    0  0.81355314293E+02 -0.88592090633E+02  0.82197315894E+02  0.14568340877E+03  0.10566000000E+00 0. -1.
     200003    1    4    4    0    0 -0.93343708228E+02 -0.17807727065E+03  0.13894992386E+03  0.24623493564E+03  0.30000000000E+02 0. -1.
     200000    1    3    3    0    0  0.65775984729E+02  0.25143858464E+03  0.35034175277E+03  0.44775907110E+03  0.10100000000E+03 0. -1.
    -200001    1    1    2    0    0 -0.53787590794E+02  0.15230776644E+02  0.33187592022E+03  0.69931088073E+03  0.61300000000E+03 0. -1.
<mgrwt>
<rscale>  0 0.12459602E+04</rscale>
<asrwt>0</asrwt>
<pdfrwt beam="1">  1        2 0.17445380E+00 0.12459602E+04</pdfrwt>
<pdfrwt beam="2">  1       -2 0.45401670E-01 0.12459602E+04</pdfrwt>
<totfact> 0.94060336E+01</totfact>
</mgrwt>
</event>
<event>
 8    1  0.7583103E-052  0.1501229E+04  0.7818608E-02  0.8883636E-01
         -2   -1    0    0    0  501 -0.00000000000E+00  0.00000000000E+00  0.36095713959E+03  0.36095713960E+03  0.25500000000E-02 0. -1.
          2   -1    0    0  501    0  0.00000000000E+00 -0.00000000000E+00 -0.15609107161E+04  0.15609107161E+04  0.25500000000E-02 0.  1.
     200001    2    1    2    0    0  0.20557437781E+03  0.21938983230E+03 -0.99954588551E+03  0.12103027034E+04  0.61265645620E+03 0.  0.
    5000001    2    3    3    0    0  0.32326762969E+03  0.19139188877E+03 -0.98043537332E+03  0.10515519615E+04  0.58096393968E+02 0.  0.
        -13    1    4    4    0    0  0.94901020553E+02  0.37445020493E+02 -0.22998558021E+03  0.25159831385E+03  0.10566000000E+00 0. -1.
     200003    1    4    4    0    0  0.22836660914E+03  0.15394686828E+03 -0.75044979311E+03  0.79995364766E+03  0.30000000000E+02 0. -1.
     200000    1    3    3    0    0 -0.11769325188E+03  0.27997943525E+02 -0.19110512186E+02  0.15875074191E+03  0.10100000000E+03 0. -1.
    -200001    1    1    2    0    0 -0.20557437781E+03 -0.21938983230E+03 -0.20040769100E+03  0.71156515228E+03  0.61300000000E+03 0. -1.
<mgrwt>
<rscale>  0 0.15012287E+04</rscale>
<asrwt>0</asrwt>
<pdfrwt beam="1">  1        2 0.22298724E+00 0.15012287E+04</pdfrwt>
<pdfrwt beam="2">  1       -2 0.51565307E-01 0.15012287E+04</pdfrwt>
<totfact> 0.46633369E+01</totfact>
</mgrwt>
</event>
<event>
 8    1  0.7583103E-052  0.1625014E+04  0.7818608E-02  0.8805327E-01
          2   -1    0    0  501    0  0.00000000000E+00  0.00000000000E+00  0.38746530857E+03  0.38746530858E+03  0.25500000000E-02 0.  1.
         -2   -1    0    0    0  501 -0.00000000000E+00 -0.00000000000E+00 -0.17038103911E+04  0.17038103911E+04  0.25500000000E-02 0. -1.
     200001    2    1    2    0    0  0.51251157573E+03 -0.36890368505E+02 -0.84199320435E+03  0.11613253145E+04  0.61293956908E+03 0.  0.
    5000001    2    3    3    0    0  0.24189996358E+03  0.45828729709E+02 -0.82062071648E+03  0.86010964909E+03  0.75857651544E+02 0.  0.
        -13    1    4    4    0    0  0.30870905730E+02  0.19524396965E+02 -0.64999570393E+02  0.74559843164E+02  0.10566000000E+00 0. -1.
     200003    1    4    4    0    0  0.21102905785E+03  0.26304332745E+02 -0.75562114609E+03  0.78554980593E+03  0.30000000000E+02 0. -1.
     200000    1    3    3    0    0  0.27061161215E+03 -0.82719098214E+02 -0.21372487869E+02  0.30121566539E+03  0.10100000000E+03 0.  1.
    -200001    1    1    2    0    0 -0.51251157573E+03  0.36890368505E+02 -0.47435187814E+03  0.92995038515E+03  0.61300000000E+03 0. -1.
<mgrwt>
<rscale>  0 0.16250137E+04</rscale>
<asrwt>0</asrwt>
<pdfrwt beam="1">  1        2 0.55352188E-01 0.16250137E+04</pdfrwt>
<pdfrwt beam="2">  1       -2 0.24340148E+00 0.16250137E+04</pdfrwt>
<totfact> 0.60678492E+00</totfact>
</mgrwt>
</event>
<event>
 8    1  0.7583103E-052  0.1944636E+04  0.7818608E-02  0.8632952E-01
          2   -1    0    0  501    0  0.00000000000E+00  0.00000000000E+00  0.76943325366E+03  0.76943325366E+03  0.25500000000E-02 0.  1.
         -2   -1    0    0    0  501 -0.00000000000E+00 -0.00000000000E+00 -0.12286990286E+04  0.12286990286E+04  0.25500000000E-02 0. -1.
     200001    2    1    2    0    0  0.27178973199E+03  0.32991410533E+02  0.49299133738E+03  0.83300537949E+03  0.61310636268E+03 0.  0.
    5000001    2    3    3    0    0  0.13528766577E+03  0.55019911790E+02 -0.63981116068E+02  0.25030701598E+03  0.19295096743E+03 0.  0.
        -13    1    4    4    0    0  0.10485494934E+03  0.86920493452E+02 -0.11368405970E+03  0.17740859387E+03  0.10566000000E+00 0. -1.
     200003    1    4    4    0    0  0.30432716429E+02 -0.31900581662E+02  0.49702943637E+02  0.72898422108E+02  0.30000000000E+02 0. -1.
     200000    1    3    3    0    0  0.13650206622E+03 -0.22028501257E+02  0.55697245344E+03  0.58269836352E+03  0.10100000000E+03 0.  1.
    -200001    1    1    2    0    0 -0.27178973199E+03 -0.32991410533E+02 -0.95225711227E+03  0.11651269027E+04  0.61300000000E+03 0. -1.
<mgrwt>
<rscale>  0 0.19446356E+04</rscale>
<asrwt>0</asrwt>
<pdfrwt beam="1">  1        2 0.10991904E+00 0.19446356E+04</pdfrwt>
<pdfrwt beam="2">  1       -2 0.17552843E+00 0.19446356E+04</pdfrwt>
<totfact> 0.72869532E+00</totfact>
</mgrwt>
</event>
<event>
 8    1  0.7583103E-052  0.1400622E+04  0.7818608E-02  0.8953368E-01
         -2   -1    0    0    0  501 -0.00000000000E+00  0.00000000000E+00  0.53259286221E+03  0.53259286222E+03  0.25500000000E-02 0. -1.
          2   -1    0    0  501    0  0.00000000000E+00 -0.00000000000E+00 -0.92084534989E+03  0.92084534990E+03  0.25500000000E-02 0.  1.
     200001    2    1    2    0    0 -0.20795705628E+03  0.25533427595E+03 -0.11133095181E+03  0.70450813076E+03  0.61277679113E+03 0.  0.
    5000001    2    3    3    0    0 -0.30161166277E+03  0.38677226617E+03 -0.43188416072E+02  0.50229157415E+03  0.99343873417E+02 0.  0.
        -13    1    4    4    0    0 -0.12702045676E+03  0.23508783683E+03 -0.21886447767E+02  0.26810355316E+03  0.10566000000E+00 0. -1.
     200003    1    4    4    0    0 -0.17459120601E+03  0.15168442934E+03 -0.21301968305E+02  0.23418802099E+03  0.30000000000E+02 0. -1.
     200000    1    3    3    0    0  0.93654606490E+02 -0.13143799022E+03 -0.68142535736E+02  0.20221655661E+03  0.10100000000E+03 0. -1.
    -200001    1    1    2    0    0  0.20795705628E+03 -0.25533427595E+03 -0.27692153588E+03  0.74893008136E+03  0.61300000000E+03 0. -1.
<mgrwt>
<rscale>  0 0.14006222E+04</rscale>
<asrwt>0</asrwt>
<pdfrwt beam="1">  1        2 0.13154934E+00 0.14006222E+04</pdfrwt>
<pdfrwt beam="2">  1       -2 0.76084694E-01 0.14006222E+04</pdfrwt>
<totfact> 0.47525471E+01</totfact>
</mgrwt>
</event>
<event>
 8    1  0.7583103E-052  0.1830953E+04  0.7818608E-02  0.8690010E-01
         -2   -1    0    0    0  501 -0.00000000000E+00  0.00000000000E+00  0.26416779246E+03  0.26416779247E+03  0.25500000000E-02 0. -1.
          2   -1    0    0  501    0  0.00000000000E+00 -0.00000000000E+00 -0.31725932465E+04  0.31725932465E+04  0.25500000000E-02 0.  1.
     200001    2    1    2    0    0  0.38637348773E+02 -0.29637931379E+03 -0.30738558602E+03  0.74780009888E+03  0.61268715265E+03 0.  0.
    5000001    2    3    3    0    0  0.65996037347E+02  0.82713897334E+02 -0.31525375088E+03  0.35445156567E+03  0.12269441390E+03 0.  0.
        -13    1    4    4    0    0  0.40966518119E+02  0.95805334688E+01 -0.23610430565E+03  0.23982346954E+03  0.10566000000E+00 0. -1.
     200003    1    4    4    0    0  0.25029519227E+02  0.73133363865E+02 -0.79149445224E+02  0.11462809613E+03  0.30000000000E+02 0. -1.
     200000    1    3    3    0    0 -0.27358688573E+02 -0.37909321112E+03  0.78681648546E+01  0.39334853321E+03  0.10100000000E+03 0.  1.
    -200001    1    1    2    0    0 -0.38637348773E+02  0.29637931379E+03 -0.26010398680E+04  0.26889609401E+04  0.61300000000E+03 0.  1.
<mgrwt>
<rscale>  0 0.18309527E+04</rscale>
<asrwt>0</asrwt>
<pdfrwt beam="1">  1        2 0.45322758E+00 0.18309527E+04</pdfrwt>
<pdfrwt beam="2">  1       -2 0.37738258E-01 0.18309527E+04</pdfrwt>
<totfact> 0.11805663E+01</totfact>
</mgrwt>
</event>
<event>
 8    1  0.7583103E-052  0.1267224E+04  0.7818608E-02  0.9055969E-01
         -2   -1    0    0    0  501 -0.00000000000E+00  0.00000000000E+00  0.51264135507E+03  0.51264135508E+03  0.25500000000E-02 0. -1.
          2   -1    0    0  501    0  0.00000000000E+00 -0.00000000000E+00 -0.78312819072E+03  0.78312819073E+03  0.25500000000E-02 0.  1.
     200001    2    1    2    0    0  0.14371751278E+02  0.14130613745E+02 -0.29748205335E+03  0.68184449887E+03  0.61319664635E+03 0.  0.
    5000001    2    3    3    0    0  0.13429065229E+03  0.10373993797E+02  0.14449627387E+03  0.21286635786E+03  0.79317804485E+02 0.  0.
        -13    1    4    4    0    0  0.85432095453E+02 -0.14084649347E+01  0.42884277586E+02  0.95601773702E+02  0.10566000000E+00 0. -1.
     200003    1    4    4    0    0  0.48858556838E+02  0.11782458731E+02  0.10161199628E+03  0.11726458416E+03  0.30000000000E+02 0.  1.
     200000    1    3    3    0    0 -0.11991890101E+03  0.37566199479E+01 -0.44197832721E+03  0.46897814100E+03  0.10100000000E+03 0.  1.
    -200001    1    1    2    0    0 -0.14371751278E+02 -0.14130613745E+02  0.26995217693E+02  0.61392504694E+03  0.61300000000E+03 0. -1.
<mgrwt>
<rscale>  0 0.12672236E+04</rscale>
<asrwt>0</asrwt>
<pdfrwt beam="1">  1        2 0.11187546E+00 0.12672236E+04</pdfrwt>
<pdfrwt beam="2">  1       -2 0.73234480E-01 0.12672236E+04</pdfrwt>
<totfact> 0.64695682E+01</totfact>
</mgrwt>
</event>
<event>
 8    1  0.7583103E-052  0.1645258E+04  0.7818608E-02  0.8793217E-01
         -2   -1    0    0    0  501 -0.00000000000E+00  0.00000000000E+00  0.76027206711E+03  0.76027206711E+03  0.25500000000E-02 0. -1.
          2   -1    0    0  501    0  0.00000000000E+00 -0.00000000000E+00 -0.89010056924E+03  0.89010056924E+03  0.25500000000E-02 0.  1.
     200001    2    1    2    0    0  0.26893662188E+03 -0.66770831158E+02  0.41420744420E+03  0.78519672281E+03  0.60677906703E+03 0.  0.
    5000001    2    3    3    0    0  0.16772092557E+03  0.25067243304E+03  0.13875543319E+03  0.34124891784E+03  0.78935265405E+02 0.  0.
        -13    1    4    4    0    0  0.39157673689E+02  0.86106605388E+02  0.75400717555E+02  0.12096673209E+03  0.10566000000E+00 0. -1.
     200003    1    4    4    0    0  0.12856325188E+03  0.16456582765E+03  0.63354715635E+02  0.22028218575E+03  0.30000000000E+02 0. -1.
     200000    1    3    3    0    0  0.10121569631E+03 -0.31744326420E+03  0.27545201101E+03  0.44394780497E+03  0.10100000000E+03 0. -1.
    -200001    1    1    2    0    0 -0.26893662188E+03  0.66770831158E+02 -0.54403594633E+03  0.86517591355E+03  0.61300000000E+03 0.  1.
<mgrwt>
<rscale>  0 0.16452582E+04</rscale>
<asrwt>0</asrwt>
<pdfrwt beam="1">  1        2 0.12715722E+00 0.16452582E+04</pdfrwt>
<pdfrwt beam="2">  1       -2 0.10861030E+00 0.16452582E+04</pdfrwt>
<totfact> 0.21429017E+01</totfact>
</mgrwt>
</event>
<event>
 8    1  0.7583103E-052  0.1259291E+04  0.7818608E-02  0.9062486E-01
          2   -1    0    0  501    0  0.00000000000E+00  0.00000000000E+00  0.22151885810E+04  0.22151885810E+04  0.25500000000E-02 0.  1.
         -2   -1    0    0    0  501 -0.00000000000E+00 -0.00000000000E+00 -0.17897046726E+03  0.17897046728E+03  0.25500000000E-02 0. -1.
     200001    2    1    2    0    0 -0.72466141028E+02  0.11863564202E+03  0.93693907594E+03  0.11278616266E+04  0.61228364312E+03 0.  0.
    5000001    2    3    3    0    0 -0.24221312558E+03  0.27166398441E+03  0.61236387873E+03  0.71824989463E+03  0.91787104414E+02 0.  0.
        -13    1    4    4    0    0 -0.17113444522E+03  0.22561122901E+03  0.42862388533E+03  0.51371769605E+03  0.10566000000E+00 0. -1.
     200003    1    4    4    0    0 -0.71078680358E+02  0.46052755396E+02  0.18373999340E+03  0.20453219858E+03  0.30000000000E+02 0. -1.
     200000    1    3    3    0    0  0.16974698455E+03 -0.15302834239E+03  0.32457519721E+03  0.40961173199E+03  0.10100000000E+03 0. -1.
    -200001    1    1    2    0    0  0.72466141028E+02 -0.11863564202E+03  0.10992790378E+04  0.12662974216E+04  0.61300000000E+03 0. -1.
<mgrwt>
<rscale>  0 0.12592908E+04</rscale>
<asrwt>0</asrwt>
<pdfrwt beam="1">  1        2 0.31645550E+00 0.12592908E+04</pdfrwt>
<pdfrwt beam="2">  1       -2 0.25567210E-01 0.12592908E+04</pdfrwt>
<totfact> 0.84223161E+01</totfact>
</mgrwt>
</event>
<event>
 8    1  0.7583103E-052  0.1282881E+04  0.7818608E-02  0.9043252E-01
          2   -1    0    0  501    0  0.00000000000E+00  0.00000000000E+00  0.27045382512E+04  0.27045382512E+04  0.25500000000E-02 0.  1.
         -2   -1    0    0    0  501 -0.00000000000E+00 -0.00000000000E+00 -0.15213171332E+03  0.15213171334E+03  0.25500000000E-02 0. -1.
     200001    2    1    2    0    0  0.60734939081E+02 -0.98171378101E+02  0.94239503952E+03  0.11300454028E+04  0.61283590757E+03 0.  0.
    5000001    2    3    3    0    0 -0.12203778344E+03  0.19629973951E+03  0.22859676761E+03  0.33015285991E+03  0.57598788452E+02 0.  0.
        -13    1    4    4    0    0 -0.67631197421E+01 -0.13417917520E+01  0.10981526045E+02  0.12967084177E+02  0.10566000000E+00 0. -1.
     200003    1    4    4    0    0 -0.11527466369E+03  0.19764153126E+03  0.21761524156E+03  0.31718577574E+03  0.30000000000E+02 0. -1.
     200000    1    3    3    0    0  0.18277272252E+03 -0.29447111761E+03  0.71379827191E+03  0.79989254290E+03  0.10100000000E+03 0. -1.
    -200001    1    1    2    0    0 -0.60734939081E+02  0.98171378101E+02  0.16100114983E+04  0.17266245617E+04  0.61300000000E+03 0.  1.
<mgrwt>
<rscale>  0 0.12828812E+04</rscale>
<asrwt>0</asrwt>
<pdfrwt beam="1">  1        2 0.38636260E+00 0.12828812E+04</pdfrwt>
<pdfrwt beam="2">  1       -2 0.21733102E-01 0.12828812E+04</pdfrwt>
<totfact> 0.62447410E+01</totfact>
</mgrwt>
</event>
<event>
 8    1  0.7583103E-052  0.1245855E+04  0.7818608E-02  0.9073640E-01
         -2   -1    0    0    0  501 -0.00000000000E+00  0.00000000000E+00  0.33247780233E+03  0.33247780234E+03  0.25500000000E-02 0. -1.
          2   -1    0    0  501    0  0.00000000000E+00 -0.00000000000E+00 -0.11671108989E+04  0.11671108989E+04  0.25500000000E-02 0.  1.
     200001    2    1    2    0    0  0.93293079587E+01 -0.21334314237E+02 -0.54943337745E+03  0.82309031343E+03  0.61242014896E+03 0.  0.
    5000001    2    3    3    0    0 -0.12171081823E+03 -0.26293323549E+03 -0.35871269412E+03  0.47363798124E+03  0.10821612981E+03 0.  0.
        -13    1    4    4    0    0 -0.12200063235E+03 -0.15520349038E+03 -0.22517488287E+03  0.29945954111E+03  0.10566000000E+00 0. -1.
     200003    1    4    4    0    0  0.28981412056E+00 -0.10772974511E+03 -0.13353781125E+03  0.17417844013E+03  0.30000000000E+02 0. -1.
     200000    1    3    3    0    0  0.13104012619E+03  0.24159892125E+03 -0.19072068333E+03  0.34945233219E+03  0.10100000000E+03 0. -1.
    -200001    1    1    2    0    0 -0.93293079587E+01  0.21334314237E+02 -0.28519971916E+03  0.67649838785E+03  0.61300000000E+03 0. -1.
<mgrwt>
<rscale>  0 0.12458547E+04</rscale>
<asrwt>0</asrwt>
<pdfrwt beam="1">  1        2 0.16673013E+00 0.12458547E+04</pdfrwt>
<pdfrwt beam="2">  1       -2 0.47496830E-01 0.12458547E+04</pdfrwt>
<totfact> 0.92246112E+01</totfact>
</mgrwt>
</event>
<event>
 8    1  0.7583103E-052  0.1849771E+04  0.7818608E-02  0.8680271E-01
          2   -1    0    0  501    0  0.00000000000E+00  0.00000000000E+00  0.79809764279E+03  0.79809764280E+03  0.25500000000E-02 0.  1.
         -2   -1    0    0    0  501 -0.00000000000E+00 -0.00000000000E+00 -0.10718149746E+04  0.10718149746E+04  0.25500000000E-02 0. -1.
     200001    2    1    2    0    0 -0.11976894432E+03  0.50912294438E+03 -0.59466072302E+03  0.10025462398E+04  0.61475752537E+03 0.  0.
    5000001    2    3    3    0    0 -0.12610545720E+03 -0.91493895691E+02 -0.66191995126E+02  0.19615865540E+03  0.99111647077E+02 0.  0.
        -13    1    4    4    0    0  0.48765508366E+01 -0.33463822746E+02  0.35883141131E+01  0.34007283677E+02  0.10566000000E+00 0. -1.
     200003    1    4    4    0    0 -0.13098200804E+03 -0.58030072945E+02 -0.69780309239E+02  0.16215137173E+03  0.30000000000E+02 0. -1.
     200000    1    3    3    0    0  0.63365128783E+01  0.60061684007E+03 -0.52846872789E+03  0.80638758444E+03  0.10100000000E+03 0. -1.
    -200001    1    1    2    0    0  0.11976894432E+03 -0.50912294438E+03  0.32094339123E+03  0.86736637754E+03  0.61300000000E+03 0.  1.
<mgrwt>
<rscale>  0 0.18497708E+04</rscale>
<asrwt>0</asrwt>
<pdfrwt beam="1">  1        2 0.11401395E+00 0.18497708E+04</pdfrwt>
<pdfrwt beam="2">  1       -2 0.15311643E+00 0.18497708E+04</pdfrwt>
<totfact> 0.10199175E+01</totfact>
</mgrwt>
</event>
<event>
 8    1  0.7583103E-052  0.1295236E+04  0.7818608E-02  0.9033352E-01
          2   -1    0    0  501    0  0.00000000000E+00  0.00000000000E+00  0.10624929220E+04  0.10624929220E+04  0.25500000000E-02 0.  1.
         -2   -1    0    0    0  501 -0.00000000000E+00 -0.00000000000E+00 -0.39474030279E+03  0.39474030280E+03  0.25500000000E-02 0. -1.
     200001    2    1    2    0    0  0.10793896955E+03 -0.17275236208E+03  0.38176048308E+03  0.75079518671E+03  0.61356185197E+03 0.  0.
    5000001    2    3    3    0    0 -0.14350720526E+03 -0.63727355850E+02  0.41996132544E+03  0.45622442244E+03  0.84366550948E+02 0.  0.
        -13    1    4    4    0    0 -0.61922922537E+02 -0.60294495252E+02  0.26207002555E+03  0.27595395259E+03  0.10566000000E+00 0. -1.
     200003    1    4    4    0    0 -0.81584282720E+02 -0.34328605980E+01  0.15789129989E+03  0.18027046985E+03  0.30000000000E+02 0. -1.
     200000    1    3    3    0    0  0.25144617480E+03 -0.10902500623E+03 -0.38200842360E+02  0.29457076427E+03  0.10100000000E+03 0.  1.
    -200001    1    1    2    0    0 -0.10793896955E+03  0.17275236208E+03  0.28599213616E+03  0.70643803811E+03  0.61300000000E+03 0.  1.
<mgrwt>
<rscale>  0 0.12952355E+04</rscale>
<asrwt>0</asrwt>
<pdfrwt beam="1">  1        2 0.15178470E+00 0.12952355E+04</pdfrwt>
<pdfrwt beam="2">  1       -2 0.56391471E-01 0.12952355E+04</pdfrwt>
<totfact> 0.74487059E+01</totfact>
</mgrwt>
</event>
<event>
 8    1  0.7583103E-052  0.2294335E+04  0.7818608E-02  0.8480158E-01
          2   -1    0    0  501    0  0.00000000000E+00  0.00000000000E+00  0.55737462844E+03  0.55737462844E+03  0.25500000000E-02 0.  1.
         -2   -1    0    0    0  501 -0.00000000000E+00 -0.00000000000E+00 -0.23610574016E+04  0.23610574016E+04  0.25500000000E-02 0. -1.
     200001    2    1    2    0    0 -0.89371212206E+03 -0.55947646291E+01 -0.42398141005E+03  0.11639812585E+04  0.61346513795E+03 0.  0.
    5000001    2    3    3    0    0  0.76096826628E+01 -0.65614106221E+02 -0.11862738158E+03  0.20511453168E+03  0.15374133225E+03 0.  0.
        -13    1    4    4    0    0 -0.50699587425E+02  0.15842652115E+02 -0.74773740824E+02  0.91720015656E+02  0.10566000000E+00 0. -1.
     200003    1    4    4    0    0  0.58309270088E+02 -0.81456758336E+02 -0.43853640752E+02  0.11339451602E+03  0.30000000000E+02 0. -1.
     200000    1    3    3    0    0 -0.90132180472E+03  0.60019341592E+02 -0.30535402848E+03  0.95886672679E+03  0.10100000000E+03 0.  1.
    -200001    1    1    2    0    0  0.89371212206E+03  0.55947646291E+01 -0.13797013631E+04  0.17544507716E+04  0.61300000000E+03 0. -1.
<mgrwt>
<rscale>  0 0.22943352E+04</rscale>
<asrwt>0</asrwt>
<pdfrwt beam="1">  1        2 0.79624948E-01 0.22943352E+04</pdfrwt>
<pdfrwt beam="2">  1       -2 0.33729391E+00 0.22943352E+04</pdfrwt>
<totfact> 0.10087572E+00</totfact>
</mgrwt>
</event>
<event>
 8    1  0.7583103E-052  0.1270354E+04  0.7818608E-02  0.9053411E-01
         -2   -1    0    0    0  501 -0.00000000000E+00  0.00000000000E+00  0.19543087069E+03  0.19543087070E+03  0.25500000000E-02 0. -1.
          2   -1    0    0  501    0  0.00000000000E+00 -0.00000000000E+00 -0.20644105816E+04  0.20644105816E+04  0.25500000000E-02 0.  1.
     200001    2    1    2    0    0 -0.16350099791E+03  0.12726064888E+02 -0.96341918544E+03  0.11540822587E+04  0.61386871873E+03 0.  0.
    5000001    2    3    3    0    0 -0.18033934907E+03 -0.23818384547E+03 -0.26724344178E+03  0.40702069544E+03  0.70660910491E+02 0.  0.
        -13    1    4    4    0    0 -0.56106363156E+01 -0.23002688987E+02 -0.43544254892E+02  0.49565272506E+02  0.10566000000E+00 0. -1.
     200003    1    4    4    0    0 -0.17472871275E+03 -0.21518115649E+03 -0.22369918689E+03  0.35745542293E+03  0.30000000000E+02 0. -1.
     200000    1    3    3    0    0  0.16838351161E+02  0.25090991036E+03 -0.69617574366E+03  0.74706156322E+03  0.10100000000E+03 0. -1.
    -200001    1    1    2    0    0  0.16350099791E+03 -0.12726064888E+02 -0.90556052550E+03  0.11057591937E+04  0.61300000000E+03 0. -1.
<mgrwt>
<rscale>  0 0.12703536E+04</rscale>
<asrwt>0</asrwt>
<pdfrwt beam="1">  1        2 0.29491579E+00 0.12703536E+04</pdfrwt>
<pdfrwt beam="2">  1       -2 0.27918697E-01 0.12703536E+04</pdfrwt>
<totfact> 0.85623730E+01</totfact>
</mgrwt>
</event>
<event>
 8    1  0.7583103E-052  0.1684269E+04  0.7818608E-02  0.8770388E-01
         -2   -1    0    0    0  501 -0.00000000000E+00  0.00000000000E+00  0.56623073502E+03  0.56623073502E+03  0.25500000000E-02 0. -1.
          2   -1    0    0  501    0  0.00000000000E+00 -0.00000000000E+00 -0.12524757749E+04  0.12524757749E+04  0.25500000000E-02 0.  1.
     200001    2    1    2    0    0 -0.13454096763E+03  0.55591160882E+03 -0.25827580057E+03  0.87739590306E+03  0.61317060656E+03 0.  0.
    5000001    2    3    3    0    0  0.10146258716E+03  0.52521357697E+03 -0.58729996502E+02  0.55080812779E+03  0.11745817609E+03 0.  0.
        -13    1    4    4    0    0  0.11085707097E+03  0.47973999899E+03 -0.52138257670E+02  0.49513449273E+03  0.10566000000E+00 0. -1.
     200003    1    4    4    0    0 -0.93944838132E+01  0.45473577980E+02 -0.65917388321E+01  0.55673635064E+02  0.30000000000E+02 0.  1.
     200000    1    3    3    0    0 -0.23600355479E+03  0.30698031849E+02 -0.19954580407E+03  0.32658777526E+03  0.10100000000E+03 0. -1.
    -200001    1    1    2    0    0  0.13454096763E+03 -0.55591160882E+03 -0.42796923930E+03  0.94131060685E+03  0.61300000000E+03 0. -1.
<mgrwt>
<rscale>  0 0.16842687E+04</rscale>
<asrwt>0</asrwt>
<pdfrwt beam="1">  1        2 0.17892511E+00 0.16842687E+04</pdfrwt>
<pdfrwt beam="2">  1       -2 0.80890105E-01 0.16842687E+04</pdfrwt>
<totfact> 0.25703850E+01</totfact>
</mgrwt>
</event>
<event>
 8    1  0.7583103E-052  0.1853799E+04  0.7818608E-02  0.8678201E-01
          2   -1    0    0  501    0  0.00000000000E+00  0.00000000000E+00  0.32204369900E+04  0.32204369900E+04  0.25500000000E-02 0.  1.
         -2   -1    0    0    0  501 -0.00000000000E+00 -0.00000000000E+00 -0.26677836983E+03  0.26677836984E+03  0.25500000000E-02 0. -1.
     200001    2    1    2    0    0  0.57442356712E+03 -0.16347194775E+03  0.80694922313E+03  0.11761948607E+04  0.61284728068E+03 0.  0.
    5000001    2    3    3    0    0  0.67396588595E+03 -0.65508871761E+02  0.63535598503E+03  0.93298573904E+03  0.90905081454E+02 0.  0.
        -13    1    4    4    0    0  0.11133352997E+03 -0.35663792462E+02  0.82771036917E+02  0.14324146294E+03  0.10566000000E+00 0. -1.
     200003    1    4    4    0    0  0.56263235598E+03 -0.29845079299E+02  0.55258494812E+03  0.78974427610E+03  0.30000000000E+02 0. -1.
     200000    1    3    3    0    0 -0.99542318826E+02 -0.97963075985E+02  0.17159323810E+03  0.24320912165E+03  0.10100000000E+03 0. -1.
    -200001    1    1    2    0    0 -0.57442356712E+03  0.16347194775E+03  0.21467093970E+04  0.23110204991E+04  0.61300000000E+03 0.  1.
<mgrwt>
<rscale>  0 0.18537993E+04</rscale>
<asrwt>0</asrwt>
<pdfrwt beam="1">  1        2 0.46006244E+00 0.18537993E+04</pdfrwt>
<pdfrwt beam="2">  1       -2 0.38111194E-01 0.18537993E+04</pdfrwt>
<totfact> 0.10848558E+01</totfact>
</mgrwt>
</event>
<event>
 8    1  0.7583103E-052  0.1714539E+04  0.7818608E-02  0.8753116E-01
         -2   -1    0    0    0  501 -0.00000000000E+00  0.00000000000E+00  0.12430130111E+04  0.12430130111E+04  0.25500000000E-02 0. -1.
          2   -1    0    0  501    0  0.00000000000E+00 -0.00000000000E+00 -0.59123342103E+03  0.59123342103E+03  0.25500000000E-02 0.  1.
     200001    2    1    2    0    0  0.38487290847E+03  0.45590157339E+03  0.38979127801E+03  0.93960668568E+03  0.61233167733E+03 0.  0.
    5000001    2    3    3    0    0  0.11148115640E+03 -0.76728623352E+02  0.52377667907E+02  0.24499390083E+03  0.19739113830E+03 0.  0.
        -13    1    4    4    0    0 -0.18263214610E+02 -0.77694683691E+02  0.75459907838E+02  0.10983723292E+03  0.10566000000E+00 0. -1.
     200003    1    4    4    0    0  0.12974437101E+03  0.96606033861E+00 -0.23082239930E+02  0.13515666791E+03  0.30000000000E+02 0. -1.
     200000    1    3    3    0    0  0.27339175207E+03  0.53263019674E+03  0.33741361011E+03  0.69461278484E+03  0.10100000000E+03 0.  1.
    -200001    1    1    2    0    0 -0.38487290847E+03 -0.45590157339E+03  0.26198831206E+03  0.89463974646E+03  0.61300000000E+03 0.  1.
<mgrwt>
<rscale>  0 0.17145388E+04</rscale>
<asrwt>0</asrwt>
<pdfrwt beam="1">  1        2 0.84461918E-01 0.17145388E+04</pdfrwt>
<pdfrwt beam="2">  1       -2 0.17757329E+00 0.17145388E+04</pdfrwt>
<totfact> 0.99113952E+00</totfact>
</mgrwt>
</event>
<event>
 8    1  0.7583103E-052  0.1255567E+04  0.7818608E-02  0.9065563E-01
          2   -1    0    0  501    0  0.00000000000E+00  0.00000000000E+00  0.12253036874E+04  0.12253036874E+04  0.25500000000E-02 0.  1.
         -2   -1    0    0    0  501 -0.00000000000E+00 -0.00000000000E+00 -0.32164421573E+03  0.32164421574E+03  0.25500000000E-02 0. -1.
     200001    2    1    2    0    0  0.93197610099E+02 -0.56805590569E+02  0.54143918282E+03  0.82661103242E+03  0.61499328498E+03 0.  0.
    5000001    2    3    3    0    0  0.25518771793E+03  0.70950858781E+02  0.61986079870E+02  0.29497320145E+03  0.11407067867E+03 0.  0.
        -13    1    4    4    0    0  0.19734576931E+03  0.27831482077E+02  0.69837624032E+01  0.19942098225E+03  0.10566000000E+00 0. -1.
     200003    1    4    4    0    0  0.57841948616E+02  0.43119376705E+02  0.55002317466E+02  0.95552219198E+02  0.30000000000E+02 0. -1.
     200000    1    3    3    0    0 -0.16199010783E+03 -0.12775644935E+03  0.47945310295E+03  0.53163783097E+03  0.10100000000E+03 0.  1.
    -200001    1    1    2    0    0 -0.93197610099E+02  0.56805590569E+02  0.36222028883E+03  0.72033687070E+03  0.61300000000E+03 0. -1.
<mgrwt>
<rscale>  0 0.12555666E+04</rscale>
<asrwt>0</asrwt>
<pdfrwt beam="1">  1        2 0.17504338E+00 0.12555666E+04</pdfrwt>
<pdfrwt beam="2">  1       -2 0.45949174E-01 0.12555666E+04</pdfrwt>
<totfact> 0.91277661E+01</totfact>
</mgrwt>
</event>
<event>
 8    1  0.7583103E-052  0.1507449E+04  0.7818608E-02  0.8879514E-01
          2   -1    0    0  501    0  0.00000000000E+00  0.00000000000E+00  0.15563738135E+04  0.15563738135E+04  0.25500000000E-02 0.  1.
         -2   -1    0    0    0  501 -0.00000000000E+00 -0.00000000000E+00 -0.36501570159E+03  0.36501570160E+03  0.25500000000E-02 0. -1.
     200001    2    1    2    0    0  0.55178697335E+02  0.27223466664E+03  0.16527135114E+03  0.69428746435E+03  0.61446241649E+03 0.  0.
    5000001    2    3    3    0    0  0.25684980655E+02 -0.13488743086E+03 -0.99693580722E+02  0.19727066714E+03  0.10061097774E+03 0.  0.
        -13    1    4    4    0    0  0.56285411027E+02 -0.91159559696E+02 -0.49122613456E+02  0.11786074468E+03  0.10566000000E+00 0. -1.
     200003    1    4    4    0    0 -0.30600430372E+02 -0.43727871159E+02 -0.50570967265E+02  0.79409922461E+02  0.30000000000E+02 0. -1.
     200000    1    3    3    0    0  0.29493716680E+02  0.40712209749E+03  0.26496493186E+03  0.49701679721E+03  0.10100000000E+03 0.  1.
    -200001    1    1    2    0    0 -0.55178697335E+02 -0.27223466664E+03  0.10260867608E+04  0.12271020508E+04  0.61300000000E+03 0. -1.
<mgrwt>
<rscale>  0 0.15074493E+04</rscale>
<asrwt>0</asrwt>
<pdfrwt beam="1">  1        2 0.22233912E+00 0.15074493E+04</pdfrwt>
<pdfrwt beam="2">  1       -2 0.52145099E-01 0.15074493E+04</pdfrwt>
<totfact> 0.45805845E+01</totfact>
</mgrwt>
</event>
<event>
 8    1  0.7583103E-052  0.1596500E+04  0.7818608E-02  0.8822701E-01
         -2   -1    0    0    0  501 -0.00000000000E+00  0.00000000000E+00  0.52181472813E+03  0.52181472814E+03  0.25500000000E-02 0. -1.
          2   -1    0    0  501    0  0.00000000000E+00 -0.00000000000E+00 -0.12211295057E+04  0.12211295057E+04  0.25500000000E-02 0.  1.
     200001    2    1    2    0    0 -0.36303742913E+03 -0.24572021330E+03 -0.61374006887E+02  0.75556789978E+03  0.61232465595E+03 0.  0.
    5000001    2    3    3    0    0 -0.25352196405E+03  0.86767128501E+02 -0.22422913847E+03  0.35648863017E+03  0.70735536036E+02 0.  0.
        -13    1    4    4    0    0 -0.12806273219E+03  0.27630774382E+02 -0.13874760816E+03  0.19082566128E+03  0.10566000000E+00 0. -1.
     200003    1    4    4    0    0 -0.12545923186E+03  0.59136354119E+02 -0.85481530304E+02  0.16566296889E+03  0.30000000000E+02 0. -1.
     200000    1    3    3    0    0 -0.10951546508E+03 -0.33248734180E+03  0.16285513158E+03  0.39907926961E+03  0.10100000000E+03 0. -1.
    -200001    1    1    2    0    0  0.36303742913E+03  0.24572021330E+03 -0.63794077070E+03  0.98737633408E+03  0.61300000000E+03 0. -1.
<mgrwt>
<rscale>  0 0.15965004E+04</rscale>
<asrwt>0</asrwt>
<pdfrwt beam="1">  1        2 0.17444707E+00 0.15965004E+04</pdfrwt>
<pdfrwt beam="2">  1       -2 0.74544962E-01 0.15965004E+04</pdfrwt>
<totfact> 0.32344693E+01</totfact>
</mgrwt>
</event>
<event>
 8    1  0.7583103E-052  0.1826579E+04  0.7818608E-02  0.8692291E-01
          2   -1    0    0  501    0  0.00000000000E+00  0.00000000000E+00  0.15072864416E+04  0.15072864416E+04  0.25500000000E-02 0.  1.
         -2   -1    0    0    0  501 -0.00000000000E+00 -0.00000000000E+00 -0.55337693520E+03  0.55337693521E+03  0.25500000000E-02 0. -1.
     200001    2    1    2    0    0 -0.44912397141E+03  0.13888506004E+03 -0.72783277690E+02  0.77580211017E+03  0.61283774935E+03 0.  0.
    5000001    2    3    3    0    0 -0.35242557299E+03  0.20345864807E+03 -0.29379756258E+03  0.50641643376E+03  0.67389840668E+02 0.  0.
        -13    1    4    4    0    0 -0.10422082578E+03  0.72060620963E+02 -0.12164669850E+03  0.17564920734E+03  0.10566000000E+00 0. -1.
     200003    1    4    4    0    0 -0.24820474721E+03  0.13139802711E+03 -0.17215086409E+03  0.33076722642E+03  0.30000000000E+02 0. -1.
     200000    1    3    3    0    0 -0.96698398419E+02 -0.64573588032E+02  0.22101428489E+03  0.26938567641E+03  0.10100000000E+03 0.  1.
    -200001    1    1    2    0    0  0.44912397141E+03 -0.13888506004E+03  0.10266927841E+04  0.12848612666E+04  0.61300000000E+03 0.  1.
<mgrwt>
<rscale>  0 0.18265788E+04</rscale>
<asrwt>0</asrwt>
<pdfrwt beam="1">  1        2 0.21532663E+00 0.18265788E+04</pdfrwt>
<pdfrwt beam="2">  1       -2 0.79053849E-01 0.18265788E+04</pdfrwt>
<totfact> 0.19440816E+01</totfact>
</mgrwt>
</event>
<event>
 8    1  0.7583103E-052  0.1455644E+04  0.7818608E-02  0.8914497E-01
         -2   -1    0    0    0  501 -0.00000000000E+00  0.00000000000E+00  0.73552647004E+03  0.73552647005E+03  0.25500000000E-02 0. -1.
          2   -1    0    0  501    0  0.00000000000E+00 -0.00000000000E+00 -0.72019782428E+03  0.72019782428E+03  0.25500000000E-02 0.  1.
     200001    2    1    2    0    0 -0.12860418983E+03  0.15300640900E+03 -0.33131635075E+03  0.72368484700E+03  0.61155476832E+03 0.  0.
    5000001    2    3    3    0    0 -0.14881737147E+03  0.21974799294E+03 -0.46461455206E+03  0.54248765548E+03  0.89388947378E+02 0.  0.
        -13    1    4    4    0    0 -0.11233789952E+03  0.18206979602E+03 -0.40256870641E+03  0.45588462228E+03  0.10566000000E+00 0. -1.
     200003    1    4    4    0    0 -0.36479471945E+02  0.37678196922E+02 -0.62045845653E+02  0.86603033200E+02  0.30000000000E+02 0. -1.
     200000    1    3    3    0    0  0.20213181637E+02 -0.66741583941E+02  0.13329820131E+03  0.18119719151E+03  0.10100000000E+03 0. -1.
    -200001    1    1    2    0    0  0.12860418983E+03 -0.15300640900E+03  0.34664499652E+03  0.73203944733E+03  0.61300000000E+03 0.  1.
<mgrwt>
<rscale>  0 0.14556436E+04</rscale>
<asrwt>0</asrwt>
<pdfrwt beam="1">  1        2 0.10288540E+00 0.14556436E+04</pdfrwt>
<pdfrwt beam="2">  1       -2 0.10507521E+00 0.14556436E+04</pdfrwt>
<totfact> 0.30965088E+01</totfact>
</mgrwt>
</event>
<event>
 8    1  0.7583103E-052  0.1342772E+04  0.7818608E-02  0.8996317E-01
          2   -1    0    0  501    0  0.00000000000E+00  0.00000000000E+00  0.24593280124E+04  0.24593280124E+04  0.25500000000E-02 0. -1.
         -2   -1    0    0    0  501 -0.00000000000E+00 -0.00000000000E+00 -0.18328562421E+03  0.18328562423E+03  0.25500000000E-02 0.  1.
     200001    2    1    2    0    0  0.16871188083E+03 -0.10294285302E+03  0.15115923511E+04  0.16430068195E+04  0.61277976723E+03 0.  0.
    5000001    2    3    3    0    0  0.37590831685E+03  0.15588177675E+02  0.96637179957E+03  0.10393128422E+04  0.68896117711E+02 0.  0.
        -13    1    4    4    0    0  0.10217923292E+03  0.27784260470E+02  0.23631213533E+03  0.25895172762E+03  0.10566000000E+00 0. -1.
     200003    1    4    4    0    0  0.27372908393E+03 -0.12196082795E+02  0.73005966424E+03  0.78036111460E+03  0.30000000000E+02 0. -1.
     200000    1    3    3    0    0 -0.20719643602E+03 -0.11853103070E+03  0.54522055158E+03  0.60369397727E+03  0.10100000000E+03 0. -1.
    -200001    1    1    2    0    0 -0.16871188083E+03  0.10294285302E+03  0.76445003701E+03  0.99960681711E+03  0.61300000000E+03 0.  1.
<mgrwt>
<rscale>  0 0.13427725E+04</rscale>
<asrwt>0</asrwt>
<pdfrwt beam="1">  1        2 0.35133258E+00 0.13427725E+04</pdfrwt>
<pdfrwt beam="2">  1       -2 0.26183660E-01 0.13427725E+04</pdfrwt>
<totfact> 0.59872518E+01</totfact>
</mgrwt>
</event>
<event>
 8    1  0.7583103E-052  0.1274818E+04  0.7818608E-02  0.9049777E-01
          2   -1    0    0  501    0  0.00000000000E+00  0.00000000000E+00  0.84619613991E+03  0.84619613992E+03  0.25500000000E-02 0.  1.
         -2   -1    0    0    0  501 -0.00000000000E+00 -0.00000000000E+00 -0.48013697514E+03  0.48013697514E+03  0.25500000000E-02 0. -1.
     200001    2    1    2    0    0  0.37248371781E+02 -0.10340213464E+02  0.78872046659E+01  0.61531235993E+03  0.61404619621E+03 0.  0.
    5000001    2    3    3    0    0 -0.13876909866E+03 -0.19998290447E+03 -0.15009866079E+03  0.29577044745E+03  0.75501819796E+02 0.  0.
        -13    1    4    4    0    0 -0.82174000513E+00 -0.36859696384E+02 -0.36833996437E+02  0.52115899030E+02  0.10566000000E+00 0. -1.
     200003    1    4    4    0    0 -0.13794735865E+03 -0.16312320808E+03 -0.11326466435E+03  0.24365454842E+03  0.30000000000E+02 0. -1.
     200000    1    3    3    0    0  0.17601747044E+03  0.18964269100E+03  0.15798586545E+03  0.31954191248E+03  0.10100000000E+03 0. -1.
    -200001    1    1    2    0    0 -0.37248371781E+02  0.10340213464E+02  0.35817196011E+03  0.71102075513E+03  0.61300000000E+03 0.  1.
<mgrwt>
<rscale>  0 0.12748177E+04</rscale>
<asrwt>0</asrwt>
<pdfrwt beam="1">  1        2 0.12088516E+00 0.12748177E+04</pdfrwt>
<pdfrwt beam="2">  1       -2 0.68590997E-01 0.12748177E+04</pdfrwt>
<totfact> 0.67472662E+01</totfact>
</mgrwt>
</event>
<event>
 8    1  0.7583103E-052  0.1362418E+04  0.7818608E-02  0.8981481E-01
         -2   -1    0    0    0  501 -0.00000000000E+00  0.00000000000E+00  0.34682785370E+03  0.34682785371E+03  0.25500000000E-02 0. -1.
          2   -1    0    0  501    0  0.00000000000E+00 -0.00000000000E+00 -0.13379704819E+04  0.13379704819E+04  0.25500000000E-02 0.  1.
     200001    2    1    2    0    0  0.19575072455E+03  0.20906048692E+03 -0.39840308564E+03  0.78527968730E+03  0.61311869593E+03 0.  0.
    5000001    2    3    3    0    0  0.24318820207E+03  0.24093861609E+03  0.17285013395E+02  0.35369641020E+03  0.87237953641E+02 0.  0.
        -13    1    4    4    0    0  0.50573189421E+02  0.37176954921E+02  0.33671587637E+02  0.71228929821E+02  0.10566000000E+00 0. -1.
     200003    1    4    4    0    0  0.19261501265E+03  0.20376166117E+03 -0.16386574241E+02  0.28246748038E+03  0.30000000000E+02 0. -1.
     200000    1    3    3    0    0 -0.47437477522E+02 -0.31878129169E+02 -0.41568809904E+03  0.43158327710E+03  0.10100000000E+03 0.  1.
    -200001    1    1    2    0    0 -0.19575072455E+03 -0.20906048692E+03 -0.59273954257E+03  0.89951864832E+03  0.61300000000E+03 0. -1.
<mgrwt>
<rscale>  0 0.13624176E+04</rscale>
<asrwt>0</asrwt>
<pdfrwt beam="1">  1        2 0.19113864E+00 0.13624176E+04</pdfrwt>
<pdfrwt beam="2">  1       -2 0.49546837E-01 0.13624176E+04</pdfrwt>
<totfact> 0.67342533E+01</totfact>
</mgrwt>
</event>
<event>
 8    1  0.7583103E-052  0.1839164E+04  0.7818608E-02  0.8685745E-01
          2   -1    0    0  501    0  0.00000000000E+00  0.00000000000E+00  0.40711951663E+04  0.40711951663E+04  0.25500000000E-02 0.  1.
         -2   -1    0    0    0  501 -0.00000000000E+00 -0.00000000000E+00 -0.20771081746E+03  0.20771081748E+03  0.25500000000E-02 0. -1.
     200001    2    1    2    0    0  0.22428312818E+03 -0.53998705467E+03  0.11035682806E+04  0.13919015424E+04  0.61452258949E+03 0.  0.
    5000001    2    3    3    0    0 -0.11606622143E+03  0.54059428232E+02  0.26172765499E+03  0.30211920516E+03  0.79880280456E+02 0.  0.
        -13    1    4    4    0    0 -0.70131968929E+02  0.44366557207E+02  0.94051182524E+02  0.12542934490E+03  0.10566000000E+00 0. -1.
     200003    1    4    4    0    0 -0.45934252498E+02  0.96928710248E+01  0.16767647246E+03  0.17668986026E+03  0.30000000000E+02 0. -1.
     200000    1    3    3    0    0  0.34034934961E+03 -0.59404648290E+03  0.84184062561E+03  0.10897823372E+04  0.10100000000E+03 0. -1.
    -200001    1    1    2    0    0 -0.22428312818E+03  0.53998705467E+03  0.27599160683E+04  0.28870044414E+04  0.61300000000E+03 0.  1.
<mgrwt>
<rscale>  0 0.18391642E+04</rscale>
<asrwt>0</asrwt>
<pdfrwt beam="1">  1        2 0.58159924E+00 0.18391642E+04</pdfrwt>
<pdfrwt beam="2">  1       -2 0.29672977E-01 0.18391642E+04</pdfrwt>
<totfact> 0.50708340E+00</totfact>
</mgrwt>
</event>
<event>
 8    1  0.7583103E-052  0.1740830E+04  0.7818608E-02  0.8738414E-01
         -2   -1    0    0    0  501 -0.00000000000E+00  0.00000000000E+00  0.36622341377E+03  0.36622341378E+03  0.25500000000E-02 0. -1.
          2   -1    0    0  501    0  0.00000000000E+00 -0.00000000000E+00 -0.20687422198E+04  0.20687422198E+04  0.25500000000E-02 0.  1.
     200001    2    1    2    0    0 -0.10984477566E+03 -0.57943193505E+03 -0.59743959943E+03  0.10404132699E+04  0.61458803698E+03 0.  0.
    5000001    2    3    3    0    0 -0.34790009021E+03 -0.31157697385E+03 -0.27497010421E+03  0.54786460394E+03  0.80202136127E+02 0.  0.
        -13    1    4    4    0    0 -0.23667574173E+03 -0.22447761961E+03 -0.21942006352E+03  0.39312947469E+03  0.10566000000E+00 0. -1.
     200003    1    4    4    0    0 -0.11122434848E+03 -0.87099354242E+02 -0.55550040687E+02  0.15473512925E+03  0.30000000000E+02 0. -1.
     200000    1    3    3    0    0  0.23805531455E+03 -0.26785496120E+03 -0.32246949522E+03  0.49254866600E+03  0.10100000000E+03 0.  1.
    -200001    1    1    2    0    0  0.10984477566E+03  0.57943193505E+03 -0.11050792066E+04  0.13945523637E+04  0.61300000000E+03 0. -1.
<mgrwt>
<rscale>  0 0.17408295E+04</rscale>
<asrwt>0</asrwt>
<pdfrwt beam="1">  1        2 0.29553460E+00 0.17408295E+04</pdfrwt>
<pdfrwt beam="2">  1       -2 0.52317632E-01 0.17408295E+04</pdfrwt>
<totfact> 0.24243994E+01</totfact>
</mgrwt>
</event>
<event>
 8    1  0.7583103E-052  0.1351912E+04  0.7818608E-02  0.8989382E-01
          2   -1    0    0  501    0  0.00000000000E+00  0.00000000000E+00  0.78659334373E+03  0.78659334374E+03  0.25500000000E-02 0.  1.
         -2   -1    0    0    0  501 -0.00000000000E+00 -0.00000000000E+00 -0.58088056272E+03  0.58088056272E+03  0.25500000000E-02 0. -1.
     200001    2    1    2    0    0  0.57468953488E+02 -0.27834132241E+03  0.11419041840E+03  0.68562207854E+03  0.61340167146E+03 0.  0.
    5000001    2    3    3    0    0  0.26332785168E+03  0.12994010943E+02  0.15325545590E+03  0.31282020142E+03  0.69705393391E+02 0.  0.
        -13    1    4    4    0    0  0.16465706304E+02  0.17408791900E+02  0.14734173615E+02  0.28129922781E+02  0.10566000000E+00 0. -1.
     200003    1    4    4    0    0  0.24686214537E+03 -0.44147809565E+01  0.13852128229E+03  0.28469027864E+03  0.30000000000E+02 0. -1.
     200000    1    3    3    0    0 -0.20585889819E+03 -0.29133533336E+03 -0.39065037503E+02  0.37280187712E+03  0.10100000000E+03 0.  1.
    -200001    1    1    2    0    0 -0.57468953488E+02  0.27834132241E+03  0.91522362616E+02  0.68185182792E+03  0.61300000000E+03 0.  1.
<mgrwt>
<rscale>  0 0.13519124E+04</rscale>
<asrwt>0</asrwt>
<pdfrwt beam="1">  1        2 0.11237048E+00 0.13519124E+04</pdfrwt>
<pdfrwt beam="2">  1       -2 0.82982938E-01 0.13519124E+04</pdfrwt>
<totfact> 0.48365075E+01</totfact>
</mgrwt>
</event>
<event>
 8    1  0.7583103E-052  0.1258606E+04  0.7818608E-02  0.9063051E-01
          2   -1    0    0  501    0  0.00000000000E+00  0.00000000000E+00  0.42292369182E+03  0.42292369182E+03  0.25500000000E-02 0.  1.
         -2   -1    0    0    0  501 -0.00000000000E+00 -0.00000000000E+00 -0.93639160289E+03  0.93639160290E+03  0.25500000000E-02 0. -1.
     200001    2    1    2    0    0 -0.13645962122E+03  0.82398256192E+00 -0.20790938657E+03  0.66091933320E+03  0.61234479242E+03 0.  0.
    5000001    2    3    3    0    0 -0.23993600706E+03  0.75858589793E+02  0.12386826130E+03  0.29130471994E+03  0.78684690870E+02 0.  0.
        -13    1    4    4    0    0 -0.15852599542E+03  0.73134066872E+02  0.64392070441E+02  0.18607910378E+03  0.10566000000E+00 0. -1.
     200003    1    4    4    0    0 -0.81410011632E+02  0.27245229208E+01  0.59476190856E+02  0.10522561617E+03  0.30000000000E+02 0. -1.
     200000    1    3    3    0    0  0.10347638583E+03 -0.75034607231E+02 -0.33177764787E+03  0.36961461326E+03  0.10100000000E+03 0. -1.
    -200001    1    1    2    0    0  0.13645962122E+03 -0.82398256192E+00 -0.30555852451E+03  0.69839596152E+03  0.61300000000E+03 0. -1.
<mgrwt>
<rscale>  0 0.12586059E+04</rscale>
<asrwt>0</asrwt>
<pdfrwt beam="1">  1        2 0.60417671E-01 0.12586059E+04</pdfrwt>
<pdfrwt beam="2">  1       -2 0.13377023E+00 0.12586059E+04</pdfrwt>
<totfact> 0.32262627E+01</totfact>
</mgrwt>
</event>
<event>
 8    1  0.7583103E-052  0.2066851E+04  0.7818608E-02  0.8575988E-01
         -2   -1    0    0    0  501 -0.00000000000E+00  0.00000000000E+00  0.86856121499E+03  0.86856121499E+03  0.25500000000E-02 0. -1.
          2   -1    0    0  501    0  0.00000000000E+00 -0.00000000000E+00 -0.12295829441E+04  0.12295829441E+04  0.25500000000E-02 0.  1.
     200001    2    1    2    0    0 -0.45247946765E+03  0.51918799741E+03  0.29422864607E+03  0.96703147707E+03  0.61178880031E+03 0.  0.
    5000001    2    3    3    0    0  0.19204902935E+02  0.29180942787E+03  0.22595972381E+03  0.42939888404E+03  0.21864133722E+03 0.  0.
        -13    1    4    4    0    0  0.95456661160E+02  0.15643698301E+03  0.44407504216E+02  0.18856442244E+03  0.10566000000E+00 0. -1.
     200003    1    4    4    0    0 -0.76251758225E+02  0.13537244486E+03  0.18155221959E+03  0.24083446161E+03  0.30000000000E+02 0. -1.
     200000    1    3    3    0    0 -0.47168437058E+03  0.22737856953E+03  0.68268922262E+02  0.53763259302E+03  0.10100000000E+03 0.  1.
    -200001    1    1    2    0    0  0.45247946765E+03 -0.51918799741E+03 -0.65525037519E+03  0.11311126820E+04  0.61300000000E+03 0.  1.
<mgrwt>
<rscale>  0 0.20668508E+04</rscale>
<asrwt>0</asrwt>
<pdfrwt beam="1">  1        2 0.17565471E+00 0.20668508E+04</pdfrwt>
<pdfrwt beam="2">  1       -2 0.12408017E+00 0.20668508E+04</pdfrwt>
<totfact> 0.93201910E+00</totfact>
</mgrwt>
</event>
<event>
 8    1  0.7583103E-052  0.1250375E+04  0.7818608E-02  0.9069872E-01
         -2   -1    0    0    0  501 -0.00000000000E+00  0.00000000000E+00  0.46078861402E+03  0.46078861403E+03  0.25500000000E-02 0.  1.
          2   -1    0    0  501    0  0.00000000000E+00 -0.00000000000E+00 -0.84823958154E+03  0.84823958155E+03  0.25500000000E-02 0. -1.
     200001    2    1    2    0    0  0.28114028742E+02  0.89562682560E+02 -0.27950328651E+03  0.67955732687E+03  0.61226154592E+03 0.  0.
    5000001    2    3    3    0    0  0.18095213435E+03 -0.19669335316E+03 -0.14299738870E+03  0.31331032736E+03  0.79266373371E+02 0.  0.
        -13    1    4    4    0    0  0.36270900280E+02 -0.77755844939E+02 -0.22888974729E+02  0.88800146157E+02  0.10566000000E+00 0. -1.
     200003    1    4    4    0    0  0.14468123407E+03 -0.11893750822E+03 -0.12010841397E+03  0.22451018120E+03  0.30000000000E+02 0. -1.
     200000    1    3    3    0    0 -0.15283810561E+03  0.28625603572E+03 -0.13650589781E+03  0.36624699951E+03  0.10100000000E+03 0.  1.
    -200001    1    1    2    0    0 -0.28114028742E+02 -0.89562682560E+02 -0.10794768100E+03  0.62947086871E+03  0.61300000000E+03 0.  1.
<mgrwt>
<rscale>  0 0.12503746E+04</rscale>
<asrwt>0</asrwt>
<pdfrwt beam="1">  1        2 0.12117708E+00 0.12503746E+04</pdfrwt>
<pdfrwt beam="2">  1       -2 0.65826945E-01 0.12503746E+04</pdfrwt>
<totfact> 0.73639849E+01</totfact>
</mgrwt>
</event>
<event>
 8    1  0.7583103E-052  0.2742803E+04  0.7818608E-02  0.8321249E-01
          2   -1    0    0  501    0  0.00000000000E+00  0.00000000000E+00  0.37240018665E+04  0.37240018665E+04  0.25500000000E-02 0.  1.
         -2   -1    0    0    0  501 -0.00000000000E+00 -0.00000000000E+00 -0.50503257331E+03  0.50503257332E+03  0.25500000000E-02 0. -1.
     200001    2    1    2    0    0  0.24793385062E+03  0.90553635614E+03  0.28267852045E+04  0.30411604372E+04  0.61357552594E+03 0.  0.
    5000001    2    3    3    0    0  0.27807253642E+03  0.62222466218E+03  0.11742616983E+04  0.13612173445E+04  0.97643520525E+02 0.  0.
        -13    1    4    4    0    0  0.40678380454E+01  0.80501706487E+02  0.14384439873E+03  0.16488873298E+03  0.10566000000E+00 0. -1.
     200003    1    4    4    0    0  0.27400469838E+03  0.54172295569E+03  0.10304172996E+04  0.11963286115E+04  0.30000000000E+02 0. -1.
     200000    1    3    3    0    0 -0.30138685804E+02  0.28331169396E+03  0.16525235062E+04  0.16799430928E+04  0.10100000000E+03 0.  1.
    -200001    1    1    2    0    0 -0.24793385062E+03 -0.90553635614E+03  0.39218408866E+03  0.11878740026E+04  0.61300000000E+03 0. -1.
<mgrwt>
<rscale>  0 0.27428031E+04</rscale>
<asrwt>0</asrwt>
<pdfrwt beam="1">  1        2 0.53200025E+00 0.27428031E+04</pdfrwt>
<pdfrwt beam="2">  1       -2 0.72147513E-01 0.27428031E+04</pdfrwt>
<totfact> 0.13297818E+00</totfact>
</mgrwt>
</event>
<event>
 8    1  0.7583103E-052  0.1369895E+04  0.7818608E-02  0.8975903E-01
         -2   -1    0    0    0  501 -0.00000000000E+00  0.00000000000E+00  0.57464481349E+03  0.57464481350E+03  0.25500000000E-02 0. -1.
          2   -1    0    0  501    0  0.00000000000E+00 -0.00000000000E+00 -0.81642289655E+03  0.81642289656E+03  0.25500000000E-02 0.  1.
     200001    2    1    2    0    0 -0.29182487592E+02  0.24624113026E+03 -0.30300806881E+03  0.72698607127E+03  0.61254268932E+03 0.  0.
    5000001    2    3    3    0    0 -0.18420804763E+03 -0.11939474955E+03 -0.93361225874E+02  0.26668690809E+03  0.11923874125E+03 0.  0.
        -13    1    4    4    0    0  0.60881236070E+01 -0.24476987316E+02  0.11467756334E+02  0.27707557750E+02  0.10566000000E+00 0. -1.
     200003    1    4    4    0    0 -0.19029617124E+03 -0.94917762237E+02 -0.10482898221E+03  0.23897935034E+03  0.30000000000E+02 0. -1.
     200000    1    3    3    0    0  0.15502556004E+03  0.36563587981E+03 -0.20964684294E+03  0.46029916318E+03  0.10100000000E+03 0.  1.
    -200001    1    1    2    0    0  0.29182487592E+02 -0.24624113026E+03  0.61229985751E+02  0.66408163878E+03  0.61300000000E+03 0. -1.
<mgrwt>
<rscale>  0 0.13698952E+04</rscale>
<asrwt>0</asrwt>
<pdfrwt beam="1">  1        2 0.11663184E+00 0.13698952E+04</pdfrwt>
<pdfrwt beam="2">  1       -2 0.82092117E-01 0.13698952E+04</pdfrwt>
<totfact> 0.47171262E+01</totfact>
</mgrwt>
</event>
<event>
 8    1  0.7583103E-052  0.2109170E+04  0.7818608E-02  0.8557215E-01
          2   -1    0    0  501    0  0.00000000000E+00  0.00000000000E+00  0.27944255317E+04  0.27944255317E+04  0.25500000000E-02 0.  1.
         -2   -1    0    0    0  501 -0.00000000000E+00 -0.00000000000E+00 -0.39798850936E+03  0.39798850937E+03  0.25500000000E-02 0. -1.
     200001    2    1    2    0    0 -0.61874002700E+03  0.31355286377E+03  0.43308066637E+03  0.10217708645E+04  0.61261914483E+03 0.  0.
    5000001    2    3    3    0    0 -0.15533883992E+03  0.32417388091E+03  0.16103306670E+03  0.47490309012E+03  0.26529688310E+03 0.  0.
        -13    1    4    4    0    0 -0.11386024734E+03  0.36014480772E+03  0.16506701532E+03  0.41220816242E+03  0.10566000000E+00 0. -1.
     200003    1    4    4    0    0 -0.41478592583E+02 -0.35970926812E+02 -0.40339486201E+01  0.62694927705E+02  0.30000000000E+02 0. -1.
     200000    1    3    3    0    0 -0.46340118708E+03 -0.10621017144E+02  0.27204759967E+03  0.54686777440E+03  0.10100000000E+03 0. -1.
    -200001    1    1    2    0    0  0.61874002700E+03 -0.31355286377E+03  0.19633563560E+04  0.21706431766E+04  0.61300000000E+03 0.  1.
<mgrwt>
<rscale>  0 0.21091697E+04</rscale>
<asrwt>0</asrwt>
<pdfrwt beam="1">  1        2 0.39920366E+00 0.21091697E+04</pdfrwt>
<pdfrwt beam="2">  1       -2 0.56855500E-01 0.21091697E+04</pdfrwt>
<totfact> 0.82207049E+00</totfact>
</mgrwt>
</event>
<event>
 8    1  0.7583103E-052  0.1704146E+04  0.7818608E-02  0.8759003E-01
         -2   -1    0    0    0  501 -0.00000000000E+00  0.00000000000E+00  0.65624374960E+03  0.65624374961E+03  0.25500000000E-02 0. -1.
          2   -1    0    0  501    0  0.00000000000E+00 -0.00000000000E+00 -0.11063397505E+04  0.11063397505E+04  0.25500000000E-02 0.  1.
     200001    2    1    2    0    0 -0.77387594639E+02  0.57748252150E+03 -0.12855044827E+03  0.85779874952E+03  0.61629422721E+03 0.  0.
    5000001    2    3    3    0    0 -0.10322512472E+03 -0.76982229160E+02 -0.10950269249E+03  0.19480892697E+03  0.96840014373E+02 0.  0.
        -13    1    4    4    0    0 -0.26426224743E+02 -0.21810374344E+02 -0.86401830374E+02  0.92947970603E+02  0.10566000000E+00 0. -1.
     200003    1    4    4    0    0 -0.76798899973E+02 -0.55171854816E+02 -0.23100862120E+02  0.10186095636E+03  0.30000000000E+02 0. -1.
     200000    1    3    3    0    0  0.25837530077E+02  0.65446475066E+03 -0.19047755777E+02  0.66298982256E+03  0.10100000000E+03 0. -1.
    -200001    1    1    2    0    0  0.77387594639E+02 -0.57748252150E+03 -0.32154555259E+03  0.90478475055E+03  0.61300000000E+03 0. -1.
<mgrwt>
<rscale>  0 0.17041462E+04</rscale>
<asrwt>0</asrwt>
<pdfrwt beam="1">  1        2 0.15804853E+00 0.17041462E+04</pdfrwt>
<pdfrwt beam="2">  1       -2 0.93749108E-01 0.17041462E+04</pdfrwt>
<totfact> 0.22213810E+01</totfact>
</mgrwt>
</event>
