<event>
 4    1  0.4915183E-005  0.6761289E+03  0.7818608E-02  0.9758949E-01
          2   -1    0    0  501    0  0.00000000000E+00  0.00000000000E+00  0.15025816545E+04  0.15025816545E+04  0.25500000000E-02 0.  1.
         -2   -1    0    0    0  501 -0.00000000000E+00 -0.00000000000E+00 -0.76060799083E+02  0.76060799126E+02  0.25500000000E-02 0. -1.
    5000001    1    1    2    0    0 -0.24178071258E+03 -0.12725585991E+03  0.69952766591E+03  0.77691178536E+03  0.19900000000E+03 0.  0.
   -5000001    1    1    2    0    0  0.24178071258E+03  0.12725585991E+03  0.72699318952E+03  0.80173066828E+03  0.19900000000E+03 0.  0.
<mgrwt>
<rscale>  0 0.67612887E+03</rscale>
<asrwt>0</asrwt>
<pdfrwt beam="1">  1        2 0.21465450E+00 0.67612887E+03</pdfrwt>
<pdfrwt beam="2">  1       -2 0.10865830E-01 0.67612887E+03</pdfrwt>
<totfact> 0.88435406E+02</totfact>
</mgrwt>
</event>
<event>
 4    1  0.4915183E-005  0.6184125E+03  0.7818608E-02  0.9867926E-01
         -2   -1    0    0    0  501 -0.00000000000E+00  0.00000000000E+00  0.37226703494E+02  0.37226703581E+02  0.25500000000E-02 0. -1.
          2   -1    0    0  501    0  0.00000000000E+00 -0.00000000000E+00 -0.25682773377E+04  0.25682773377E+04  0.25500000000E-02 0.  1.
    5000001    1    1    2    0    0 -0.17911411292E+03  0.44858416431E+02 -0.18892141286E+04  0.19086186541E+04  0.19900000000E+03 0.  0.
   -5000001    1    1    2    0    0  0.17911411292E+03 -0.44858416431E+02 -0.64183650553E+03  0.69688538713E+03  0.19900000000E+03 0.  0.
<mgrwt>
<rscale>  0 0.61841248E+03</rscale>
<asrwt>0</asrwt>
<pdfrwt beam="1">  1        2 0.36689665E+00 0.61841248E+03</pdfrwt>
<pdfrwt beam="2">  1       -2 0.53181021E-02 0.61841248E+03</pdfrwt>
<totfact> 0.79470348E+02</totfact>
</mgrwt>
</event>
<event>
 4    1  0.4915183E-005  0.1384687E+04  0.7818608E-02  0.8964978E-01
         -2   -1    0    0    0  501 -0.00000000000E+00  0.00000000000E+00  0.47861147147E+03  0.47861147148E+03  0.25500000000E-02 0. -1.
          2   -1    0    0  501    0  0.00000000000E+00 -0.00000000000E+00 -0.10015210377E+04  0.10015210377E+04  0.25500000000E-02 0.  1.
    5000001    1    1    2    0    0 -0.40235766673E+02 -0.41018142553E+03 -0.81675380785E+03  0.93624542797E+03  0.19900000000E+03 0.  0.
   -5000001    1    1    2    0    0  0.40235766673E+02  0.41018142553E+03  0.29384424162E+03  0.54388708120E+03  0.19900000000E+03 0.  0.
<mgrwt>
<rscale>  0 0.13846869E+04</rscale>
<asrwt>0</asrwt>
<pdfrwt beam="1">  1        2 0.14307443E+00 0.13846869E+04</pdfrwt>
<pdfrwt beam="2">  1       -2 0.68373068E-01 0.13846869E+04</pdfrwt>
<totfact> 0.53511172E+01</totfact>
</mgrwt>
</event>
<event>
 4    1  0.4915183E-005  0.5676992E+03  0.7818608E-02  0.9974783E-01
         -2   -1    0    0    0  501 -0.00000000000E+00  0.00000000000E+00  0.33086595827E+03  0.33086595828E+03  0.25500000000E-02 0. -1.
          2   -1    0    0  501    0  0.00000000000E+00 -0.00000000000E+00 -0.24351432602E+03  0.24351432604E+03  0.25500000000E-02 0.  1.
    5000001    1    1    2    0    0 -0.10517782122E+03 -0.13827066303E+03  0.14876566421E+03  0.30317218405E+03  0.19900000000E+03 0.  0.
   -5000001    1    1    2    0    0  0.10517782122E+03  0.13827066303E+03 -0.61414031960E+02  0.27120810027E+03  0.19900000000E+03 0.  0.
<mgrwt>
<rscale>  0 0.56769922E+03</rscale>
<asrwt>0</asrwt>
<pdfrwt beam="1">  1        2 0.34787761E-01 0.56769922E+03</pdfrwt>
<pdfrwt beam="2">  1       -2 0.47266565E-01 0.56769922E+03</pdfrwt>
<totfact> 0.64293809E+02</totfact>
</mgrwt>
</event>
<event>
 4    1  0.4915183E-005  0.9286795E+03  0.7818608E-02  0.9390424E-01
         -2   -1    0    0    0  501 -0.00000000000E+00  0.00000000000E+00  0.18260224139E+03  0.18260224141E+03  0.25500000000E-02 0. -1.
          2   -1    0    0  501    0  0.00000000000E+00 -0.00000000000E+00 -0.11807707518E+04  0.11807707518E+04  0.25500000000E-02 0.  1.
    5000001    1    1    2    0    0 -0.30858541773E+03 -0.22406547091E+02 -0.91505390973E+03  0.98623104347E+03  0.19900000000E+03 0.  0.
   -5000001    1    1    2    0    0  0.30858541773E+03  0.22406547091E+02 -0.83114600641E+02  0.37714194971E+03  0.19900000000E+03 0.  0.
<mgrwt>
<rscale>  0 0.92867946E+03</rscale>
<asrwt>0</asrwt>
<pdfrwt beam="1">  1        2 0.16868153E+00 0.92867946E+03</pdfrwt>
<pdfrwt beam="2">  1       -2 0.26086035E-01 0.92867946E+03</pdfrwt>
<totfact> 0.29048807E+02</totfact>
</mgrwt>
</event>
<event>
 4    1  0.4915183E-005  0.5730534E+03  0.7818608E-02  0.9962945E-01
         -2   -1    0    0    0  501 -0.00000000000E+00  0.00000000000E+00  0.97748007111E+02  0.97748007144E+02  0.25500000000E-02 0. -1.
          2   -1    0    0  501    0  0.00000000000E+00 -0.00000000000E+00 -0.83988964136E+03  0.83988964136E+03  0.25500000000E-02 0.  1.
    5000001    1    1    2    0    0  0.68538761236E+01  0.19641392329E+03 -0.47287346234E+03  0.54939577379E+03  0.19900000000E+03 0.  0.
   -5000001    1    1    2    0    0 -0.68538761236E+01 -0.19641392329E+03 -0.26926817191E+03  0.38824187472E+03  0.19900000000E+03 0.  0.
<mgrwt>
<rscale>  0 0.57305336E+03</rscale>
<asrwt>0</asrwt>
<pdfrwt beam="1">  1        2 0.11998423E+00 0.57305336E+03</pdfrwt>
<pdfrwt beam="2">  1       -2 0.13964002E-01 0.57305336E+03</pdfrwt>
<totfact> 0.14129720E+03</totfact>
</mgrwt>
</event>
<event>
 4    1  0.4915183E-005  0.4142466E+03  0.7818608E-02  0.1038955E+00
          2   -1    0    0  501    0  0.00000000000E+00  0.00000000000E+00  0.59299507702E+03  0.59299507702E+03  0.25500000000E-02 0.  1.
         -2   -1    0    0    0  501 -0.00000000000E+00 -0.00000000000E+00 -0.72344702403E+02  0.72344702448E+02  0.25500000000E-02 0. -1.
    5000001    1    1    2    0    0  0.40081913932E+02 -0.35732353733E+02  0.22757829170E+03  0.30704436126E+03  0.19900000000E+03 0.  0.
   -5000001    1    1    2    0    0 -0.40081913932E+02  0.35732353733E+02  0.29307208292E+03  0.35829541821E+03  0.19900000000E+03 0.  0.
<mgrwt>
<rscale>  0 0.41424656E+03</rscale>
<asrwt>0</asrwt>
<pdfrwt beam="1">  1        2 0.84713580E-01 0.41424656E+03</pdfrwt>
<pdfrwt beam="2">  1       -2 0.10334958E-01 0.41424656E+03</pdfrwt>
<totfact> 0.35348892E+03</totfact>
</mgrwt>
</event>
<event>
 4    1  0.4915183E-005  0.8891561E+03  0.7818608E-02  0.9439239E-01
          2   -1    0    0  501    0  0.00000000000E+00  0.00000000000E+00  0.69997696515E+03  0.69997696516E+03  0.25500000000E-02 0.  1.
         -2   -1    0    0    0  501 -0.00000000000E+00 -0.00000000000E+00 -0.28236589385E+03  0.28236589386E+03  0.25500000000E-02 0. -1.
    5000001    1    1    2    0    0  0.18397710596E+03 -0.35911038313E+02  0.59613564861E+03  0.65583221157E+03  0.19900000000E+03 0.  0.
   -5000001    1    1    2    0    0 -0.18397710596E+03  0.35911038313E+02 -0.17852457731E+03  0.32651064744E+03  0.19900000000E+03 0.  0.
<mgrwt>
<rscale>  0 0.88915605E+03</rscale>
<asrwt>0</asrwt>
<pdfrwt beam="1">  1        2 0.99996709E-01 0.88915605E+03</pdfrwt>
<pdfrwt beam="2">  1       -2 0.40337985E-01 0.88915605E+03</pdfrwt>
<totfact> 0.26232847E+02</totfact>
</mgrwt>
</event>
<event>
 4    1  0.4915183E-005  0.6669610E+03  0.7818608E-02  0.9775463E-01
         -2   -1    0    0    0  501 -0.00000000000E+00  0.00000000000E+00  0.64947399231E+02  0.64947399281E+02  0.25500000000E-02 0. -1.
          2   -1    0    0  501    0  0.00000000000E+00 -0.00000000000E+00 -0.17122971820E+04  0.17122971820E+04  0.25500000000E-02 0.  1.
    5000001    1    1    2    0    0 -0.99097501545E+02 -0.23622145991E+03 -0.61748646562E+03  0.69750371193E+03  0.19900000000E+03 0.  0.
   -5000001    1    1    2    0    0  0.99097501545E+02  0.23622145991E+03 -0.10298633172E+04  0.10797408694E+04  0.19900000000E+03 0.  0.
<mgrwt>
<rscale>  0 0.66696101E+03</rscale>
<asrwt>0</asrwt>
<pdfrwt beam="1">  1        2 0.24461386E+00 0.66696101E+03</pdfrwt>
<pdfrwt beam="2">  1       -2 0.92782009E-02 0.66696101E+03</pdfrwt>
<totfact> 0.89148883E+02</totfact>
</mgrwt>
</event>
<event>
 4    1  0.4915183E-005  0.5902267E+03  0.7818608E-02  0.9925893E-01
          2   -1    0    0  501    0  0.00000000000E+00  0.00000000000E+00  0.31933435705E+03  0.31933435706E+03  0.25500000000E-02 0.  1.
         -2   -1    0    0    0  501 -0.00000000000E+00 -0.00000000000E+00 -0.27272947556E+03  0.27272947557E+03  0.25500000000E-02 0. -1.
    5000001    1    1    2    0    0 -0.16597813894E+03  0.13329411477E+03  0.70082648043E+02  0.29971426592E+03  0.19900000000E+03 0.  0.
   -5000001    1    1    2    0    0  0.16597813894E+03 -0.13329411477E+03 -0.23477766551E+02  0.29234956672E+03  0.19900000000E+03 0.  0.
<mgrwt>
<rscale>  0 0.59022671E+03</rscale>
<asrwt>0</asrwt>
<pdfrwt beam="1">  1        2 0.45619194E-01 0.59022671E+03</pdfrwt>
<pdfrwt beam="2">  1       -2 0.38961353E-01 0.59022671E+03</pdfrwt>
<totfact> 0.69641881E+02</totfact>
</mgrwt>
</event>
<event>
 4    1  0.4915183E-005  0.1089004E+04  0.7818608E-02  0.9215976E-01
          2   -1    0    0  501    0  0.00000000000E+00  0.00000000000E+00  0.88174186985E+03  0.88174186986E+03  0.25500000000E-02 0.  1.
         -2   -1    0    0    0  501 -0.00000000000E+00 -0.00000000000E+00 -0.33624631666E+03  0.33624631667E+03  0.25500000000E-02 0. -1.
    5000001    1    1    2    0    0  0.13135049278E+03  0.48501583618E+03  0.19865873932E+03  0.57581212909E+03  0.19900000000E+03 0.  0.
   -5000001    1    1    2    0    0 -0.13135049278E+03 -0.48501583618E+03  0.34683681387E+03  0.64217605744E+03  0.19900000000E+03 0.  0.
<mgrwt>
<rscale>  0 0.10890041E+04</rscale>
<asrwt>0</asrwt>
<pdfrwt beam="1">  1        2 0.12596312E+00 0.10890041E+04</pdfrwt>
<pdfrwt beam="2">  1       -2 0.48035189E-01 0.10890041E+04</pdfrwt>
<totfact> 0.13632686E+02</totfact>
</mgrwt>
</event>
<event>
 4    1  0.4915183E-005  0.7160877E+03  0.7818608E-02  0.9690109E-01
          2   -1    0    0  501    0  0.00000000000E+00  0.00000000000E+00  0.23217640642E+04  0.23217640642E+04  0.25500000000E-02 0.  1.
         -2   -1    0    0    0  501 -0.00000000000E+00 -0.00000000000E+00 -0.55214658782E+02  0.55214658841E+02  0.25500000000E-02 0. -1.
    5000001    1    1    2    0    0  0.22672771497E+03 -0.39196514474E+02  0.50650992154E+03  0.59084272366E+03  0.19900000000E+03 0.  0.
   -5000001    1    1    2    0    0 -0.22672771497E+03  0.39196514474E+02  0.17600394839E+04  0.17861359994E+04  0.19900000000E+03 0.  0.
<mgrwt>
<rscale>  0 0.71608773E+03</rscale>
<asrwt>0</asrwt>
<pdfrwt beam="1">  1        2 0.33168050E+00 0.71608773E+03</pdfrwt>
<pdfrwt beam="2">  1       -2 0.78878104E-02 0.71608773E+03</pdfrwt>
<totfact> 0.56688848E+02</totfact>
</mgrwt>
</event>
<event>
 4    1  0.4915183E-005  0.6543704E+03  0.7818608E-02  0.9798613E-01
          2   -1    0    0  501    0  0.00000000000E+00  0.00000000000E+00  0.18869949737E+03  0.18869949739E+03  0.25500000000E-02 0.  1.
         -2   -1    0    0    0  501 -0.00000000000E+00 -0.00000000000E+00 -0.56730500616E+03  0.56730500617E+03  0.25500000000E-02 0. -1.
    5000001    1    1    2    0    0 -0.16915009786E+03  0.16793620802E+03 -0.30844513355E+03  0.43766851153E+03  0.19900000000E+03 0.  0.
   -5000001    1    1    2    0    0  0.16915009786E+03 -0.16793620802E+03 -0.70160375238E+02  0.31833599203E+03  0.19900000000E+03 0.  0.
<mgrwt>
<rscale>  0 0.65437044E+03</rscale>
<asrwt>0</asrwt>
<pdfrwt beam="1">  1        2 0.26957071E-01 0.65437044E+03</pdfrwt>
<pdfrwt beam="2">  1       -2 0.81043571E-01 0.65437044E+03</pdfrwt>
<totfact> 0.27255780E+02</totfact>
</mgrwt>
</event>
<event>
 4    1  0.4915183E-005  0.5713542E+03  0.7818608E-02  0.9966686E-01
          2   -1    0    0  501    0  0.00000000000E+00  0.00000000000E+00  0.27601314948E+03  0.27601314950E+03  0.25500000000E-02 0.  1.
         -2   -1    0    0    0  501 -0.00000000000E+00 -0.00000000000E+00 -0.29567943969E+03  0.29567943970E+03  0.25500000000E-02 0. -1.
    5000001    1    1    2    0    0 -0.48182788378E+02 -0.19706326629E+03  0.19422866908E+02  0.28483988445E+03  0.19900000000E+03 0.  0.
   -5000001    1    1    2    0    0  0.48182788378E+02  0.19706326629E+03 -0.39089157115E+02  0.28685270475E+03  0.19900000000E+03 0.  0.
<mgrwt>
<rscale>  0 0.57135423E+03</rscale>
<asrwt>0</asrwt>
<pdfrwt beam="1">  1        2 0.39430450E-01 0.57135423E+03</pdfrwt>
<pdfrwt beam="2">  1       -2 0.42239920E-01 0.57135423E+03</pdfrwt>
<totfact> 0.69911756E+02</totfact>
</mgrwt>
</event>
<event>
 4    1  0.4915183E-005  0.5692079E+03  0.7818608E-02  0.9971433E-01
         -2   -1    0    0    0  501 -0.00000000000E+00  0.00000000000E+00  0.48436832232E+02  0.48436832299E+02  0.25500000000E-02 0. -1.
          2   -1    0    0  501    0  0.00000000000E+00 -0.00000000000E+00 -0.16722686806E+04  0.16722686806E+04  0.25500000000E-02 0.  1.
    5000001    1    1    2    0    0  0.80151264578E+02 -0.26118309051E+02 -0.13717149102E+04  0.13886357284E+04  0.19900000000E+03 0.  0.
   -5000001    1    1    2    0    0 -0.80151264578E+02  0.26118309051E+02 -0.25211693819E+03  0.33206978454E+03  0.19900000000E+03 0.  0.
<mgrwt>
<rscale>  0 0.56920786E+03</rscale>
<asrwt>0</asrwt>
<pdfrwt beam="1">  1        2 0.23889549E+00 0.56920786E+03</pdfrwt>
<pdfrwt beam="2">  1       -2 0.69195485E-02 0.56920786E+03</pdfrwt>
<totfact> 0.14983755E+03</totfact>
</mgrwt>
</event>
<event>
 4    1  0.4915183E-005  0.6900237E+03  0.7818608E-02  0.9734447E-01
         -2   -1    0    0    0  501 -0.00000000000E+00  0.00000000000E+00  0.79925996133E+02  0.79925996173E+02  0.25500000000E-02 0. -1.
          2   -1    0    0  501    0  0.00000000000E+00 -0.00000000000E+00 -0.14892924032E+04  0.14892924032E+04  0.25500000000E-02 0.  1.
    5000001    1    1    2    0    0 -0.83669339282E+02  0.19977773192E+03 -0.29457557972E+03  0.41627811938E+03  0.19900000000E+03 0.  0.
   -5000001    1    1    2    0    0  0.83669339282E+02 -0.19977773192E+03 -0.11147908274E+04  0.11529402800E+04  0.19900000000E+03 0.  0.
<mgrwt>
<rscale>  0 0.69002371E+03</rscale>
<asrwt>0</asrwt>
<pdfrwt beam="1">  1        2 0.21275604E+00 0.69002371E+03</pdfrwt>
<pdfrwt beam="2">  1       -2 0.11418000E-01 0.69002371E+03</pdfrwt>
<totfact> 0.82799243E+02</totfact>
</mgrwt>
</event>
<event>
 4    1  0.4915183E-005  0.4339031E+03  0.7818608E-02  0.1032634E+00
         -2   -1    0    0    0  501 -0.00000000000E+00  0.00000000000E+00  0.29258094838E+02  0.29258094949E+02  0.25500000000E-02 0. -1.
          2   -1    0    0  501    0  0.00000000000E+00 -0.00000000000E+00 -0.16087161592E+04  0.16087161592E+04  0.25500000000E-02 0.  1.
    5000001    1    1    2    0    0  0.79507029732E+02 -0.26574680603E+02 -0.86885859101E+03  0.89528980369E+03  0.19900000000E+03 0.  0.
   -5000001    1    1    2    0    0 -0.79507029732E+02  0.26574680603E+02 -0.71059947340E+03  0.74268445051E+03  0.19900000000E+03 0.  0.
<mgrwt>
<rscale>  0 0.43390308E+03</rscale>
<asrwt>0</asrwt>
<pdfrwt beam="1">  1        2 0.22981654E+00 0.43390308E+03</pdfrwt>
<pdfrwt beam="2">  1       -2 0.41797289E-02 0.43390308E+03</pdfrwt>
<totfact> 0.35392524E+03</totfact>
</mgrwt>
</event>
<event>
 4    1  0.4915183E-005  0.5017163E+03  0.7818608E-02  0.1013332E+00
          2   -1    0    0  501    0  0.00000000000E+00  0.00000000000E+00  0.28378646542E+03  0.28378646543E+03  0.25500000000E-02 0.  1.
         -2   -1    0    0    0  501 -0.00000000000E+00 -0.00000000000E+00 -0.22175056115E+03  0.22175056117E+03  0.25500000000E-02 0. -1.
    5000001    1    1    2    0    0  0.94428435579E+02 -0.23527447888E+02 -0.87600833831E+02  0.23821246050E+03  0.19900000000E+03 0.  0.
   -5000001    1    1    2    0    0 -0.94428435579E+02  0.23527447888E+02  0.14963673810E+03  0.26732456609E+03  0.19900000000E+03 0.  0.
<mgrwt>
<rscale>  0 0.50171629E+03</rscale>
<asrwt>0</asrwt>
<pdfrwt beam="1">  1        2 0.40540924E-01 0.50171629E+03</pdfrwt>
<pdfrwt beam="2">  1       -2 0.31678652E-01 0.50171629E+03</pdfrwt>
<totfact> 0.11738757E+03</totfact>
</mgrwt>
</event>
<event>
 4    1  0.4915183E-005  0.7105388E+03  0.7818608E-02  0.9699377E-01
         -2   -1    0    0    0  501 -0.00000000000E+00  0.00000000000E+00  0.18037171086E+03  0.18037171088E+03  0.25500000000E-02 0. -1.
          2   -1    0    0  501    0  0.00000000000E+00 -0.00000000000E+00 -0.69975692345E+03  0.69975692346E+03  0.25500000000E-02 0.  1.
    5000001    1    1    2    0    0  0.25723887616E+03  0.86644740014E+01 -0.82910935209E+02  0.33574117367E+03  0.19900000000E+03 0.  0.
   -5000001    1    1    2    0    0 -0.25723887616E+03 -0.86644740014E+01 -0.43647427738E+03  0.54438746067E+03  0.19900000000E+03 0.  0.
<mgrwt>
<rscale>  0 0.71053882E+03</rscale>
<asrwt>0</asrwt>
<pdfrwt beam="1">  1        2 0.99965273E-01 0.71053882E+03</pdfrwt>
<pdfrwt beam="2">  1       -2 0.25767388E-01 0.71053882E+03</pdfrwt>
<totfact> 0.61312782E+02</totfact>
</mgrwt>
</event>
<event>
 4    1  0.4915183E-005  0.5451229E+03  0.7818608E-02  0.1002629E+00
          2   -1    0    0  501    0  0.00000000000E+00  0.00000000000E+00  0.44922036498E+03  0.44922036499E+03  0.25500000000E-02 0.  1.
         -2   -1    0    0    0  501 -0.00000000000E+00 -0.00000000000E+00 -0.16537486586E+03  0.16537486588E+03  0.25500000000E-02 0. -1.
    5000001    1    1    2    0    0 -0.49453871229E+02  0.17624235410E+03  0.18067966708E+03  0.32519716305E+03  0.19900000000E+03 0.  0.
   -5000001    1    1    2    0    0  0.49453871229E+02 -0.17624235410E+03  0.10316583204E+03  0.28939806782E+03  0.19900000000E+03 0.  0.
<mgrwt>
<rscale>  0 0.54512295E+03</rscale>
<asrwt>0</asrwt>
<pdfrwt beam="1">  1        2 0.64174336E-01 0.54512295E+03</pdfrwt>
<pdfrwt beam="2">  1       -2 0.23624981E-01 0.54512295E+03</pdfrwt>
<totfact> 0.12044116E+03</totfact>
</mgrwt>
</event>
<event>
 4    1  0.4915183E-005  0.4963117E+03  0.7818608E-02  0.1014746E+00
         -2   -1    0    0    0  501 -0.00000000000E+00  0.00000000000E+00  0.35938681748E+02  0.35938681839E+02  0.25500000000E-02 0. -1.
          2   -1    0    0  501    0  0.00000000000E+00 -0.00000000000E+00 -0.17135111866E+04  0.17135111866E+04  0.25500000000E-02 0.  1.
    5000001    1    1    2    0    0 -0.72330324585E+02  0.12915548097E+03 -0.86775038413E+03  0.90249905444E+03  0.19900000000E+03 0.  0.
   -5000001    1    1    2    0    0  0.72330324585E+02 -0.12915548097E+03 -0.80982212075E+03  0.84695081402E+03  0.19900000000E+03 0.  0.
<mgrwt>
<rscale>  0 0.49631173E+03</rscale>
<asrwt>0</asrwt>
<pdfrwt beam="1">  1        2 0.24478726E+00 0.49631173E+03</pdfrwt>
<pdfrwt beam="2">  1       -2 0.51340985E-02 0.49631173E+03</pdfrwt>
<totfact> 0.22812203E+03</totfact>
</mgrwt>
</event>
<event>
 4    1  0.4915183E-005  0.8615731E+03  0.7818608E-02  0.9474934E-01
         -2   -1    0    0    0  501 -0.00000000000E+00  0.00000000000E+00  0.23558549098E+03  0.23558549099E+03  0.25500000000E-02 0. -1.
          2   -1    0    0  501    0  0.00000000000E+00 -0.00000000000E+00 -0.78772702671E+03  0.78772702672E+03  0.25500000000E-02 0.  1.
    5000001    1    1    2    0    0 -0.95178357498E+02  0.29495701732E+03 -0.10706437167E+02  0.36847549389E+03  0.19900000000E+03 0.  0.
   -5000001    1    1    2    0    0  0.95178357498E+02 -0.29495701732E+03 -0.54143509856E+03  0.65483702382E+03  0.19900000000E+03 0.  0.
<mgrwt>
<rscale>  0 0.86157312E+03</rscale>
<asrwt>0</asrwt>
<pdfrwt beam="1">  1        2 0.11253243E+00 0.86157312E+03</pdfrwt>
<pdfrwt beam="2">  1       -2 0.33655070E-01 0.86157312E+03</pdfrwt>
<totfact> 0.32064554E+02</totfact>
</mgrwt>
</event>
<event>
 4    1  0.4915183E-005  0.6701808E+03  0.7818608E-02  0.9769631E-01
          2   -1    0    0  501    0  0.00000000000E+00  0.00000000000E+00  0.25996021008E+04  0.25996021008E+04  0.25500000000E-02 0.  1.
         -2   -1    0    0    0  501 -0.00000000000E+00 -0.00000000000E+00 -0.43193368040E+02  0.43193368115E+02  0.25500000000E-02 0. -1.
    5000001    1    1    2    0    0 -0.33235573000E+02 -0.26748361632E+03  0.12557296841E+04  0.12996576964E+04  0.19900000000E+03 0.  0.
   -5000001    1    1    2    0    0  0.33235573000E+02  0.26748361632E+03  0.13006790487E+04  0.13431377725E+04  0.19900000000E+03 0.  0.
<mgrwt>
<rscale>  0 0.67018078E+03</rscale>
<asrwt>0</asrwt>
<pdfrwt beam="1">  1        2 0.37137166E+00 0.67018078E+03</pdfrwt>
<pdfrwt beam="2">  1       -2 0.61704823E-02 0.67018078E+03</pdfrwt>
<totfact> 0.60422365E+02</totfact>
</mgrwt>
</event>
<event>
 4    1  0.4915183E-005  0.4632253E+03  0.7818608E-02  0.1023850E+00
         -2   -1    0    0    0  501 -0.00000000000E+00  0.00000000000E+00  0.73765336224E+03  0.73765336225E+03  0.25500000000E-02 0. -1.
          2   -1    0    0  501    0  0.00000000000E+00 -0.00000000000E+00 -0.72723078436E+02  0.72723078481E+02  0.25500000000E-02 0.  1.
    5000001    1    1    2    0    0  0.11167022524E+03 -0.32447608181E+02  0.37237101494E+03  0.43793179748E+03  0.19900000000E+03 0.  0.
   -5000001    1    1    2    0    0 -0.11167022524E+03  0.32447608181E+02  0.29255926887E+03  0.37244464325E+03  0.19900000000E+03 0.  0.
<mgrwt>
<rscale>  0 0.46322532E+03</rscale>
<asrwt>0</asrwt>
<pdfrwt beam="1">  1        2 0.10389011E-01 0.46322532E+03</pdfrwt>
<pdfrwt beam="2">  1       -2 0.10537905E+00 0.46322532E+03</pdfrwt>
<totfact> 0.46580457E+02</totfact>
</mgrwt>
</event>
<event>
 4    1  0.4915183E-005  0.5082124E+03  0.7818608E-02  0.1011657E+00
          2   -1    0    0  501    0  0.00000000000E+00  0.00000000000E+00  0.19950621575E+04  0.19950621575E+04  0.25500000000E-02 0.  1.
         -2   -1    0    0    0  501 -0.00000000000E+00 -0.00000000000E+00 -0.32364891468E+02  0.32364891568E+02  0.25500000000E-02 0. -1.
    5000001    1    1    2    0    0  0.14409851807E+03 -0.63460728316E+02  0.92822559352E+03  0.96228654745E+03  0.19900000000E+03 0.  0.
   -5000001    1    1    2    0    0 -0.14409851807E+03  0.63460728316E+02  0.10344716725E+04  0.10651405016E+04  0.19900000000E+03 0.  0.
<mgrwt>
<rscale>  0 0.50821244E+03</rscale>
<asrwt>0</asrwt>
<pdfrwt beam="1">  1        2 0.28500887E+00 0.50821244E+03</pdfrwt>
<pdfrwt beam="2">  1       -2 0.46235561E-02 0.50821244E+03</pdfrwt>
<totfact> 0.19370040E+03</totfact>
</mgrwt>
</event>
<event>
 4    1  0.4915183E-005  0.6529111E+03  0.7818608E-02  0.9801332E-01
          2   -1    0    0  501    0  0.00000000000E+00  0.00000000000E+00  0.23574923374E+04  0.23574923374E+04  0.25500000000E-02 0.  1.
         -2   -1    0    0    0  501 -0.00000000000E+00 -0.00000000000E+00 -0.45206186817E+02  0.45206186889E+02  0.25500000000E-02 0. -1.
    5000001    1    1    2    0    0  0.12104308427E+03  0.14426326143E+03  0.50291930868E+03  0.57270598730E+03  0.19900000000E+03 0.  0.
   -5000001    1    1    2    0    0 -0.12104308427E+03 -0.14426326143E+03  0.18093668419E+04  0.18299925370E+04  0.19900000000E+03 0.  0.
<mgrwt>
<rscale>  0 0.65291114E+03</rscale>
<asrwt>0</asrwt>
<pdfrwt beam="1">  1        2 0.33678462E+00 0.65291114E+03</pdfrwt>
<pdfrwt beam="2">  1       -2 0.64580266E-02 0.65291114E+03</pdfrwt>
<totfact> 0.75003891E+02</totfact>
</mgrwt>
</event>
<event>
 4    1  0.4915183E-005  0.7485462E+03  0.7818608E-02  0.9637634E-01
          2   -1    0    0  501    0  0.00000000000E+00  0.00000000000E+00  0.11202386419E+04  0.11202386419E+04  0.25500000000E-02 0.  1.
         -2   -1    0    0    0  501 -0.00000000000E+00 -0.00000000000E+00 -0.12504508394E+03  0.12504508397E+03  0.25500000000E-02 0. -1.
    5000001    1    1    2    0    0 -0.22169040444E+03  0.18266469842E+03  0.72058357428E+03  0.80084624928E+03  0.19900000000E+03 0.  0.
   -5000001    1    1    2    0    0  0.22169040444E+03 -0.18266469842E+03  0.27460998370E+03  0.44443747661E+03  0.19900000000E+03 0.  0.
<mgrwt>
<rscale>  0 0.74854615E+03</rscale>
<asrwt>0</asrwt>
<pdfrwt beam="1">  1        2 0.16003409E+00 0.74854615E+03</pdfrwt>
<pdfrwt beam="2">  1       -2 0.17863583E-01 0.74854615E+03</pdfrwt>
<totfact> 0.62032515E+02</totfact>
</mgrwt>
</event>
<event>
 4    1  0.4915183E-005  0.5458232E+03  0.7818608E-02  0.1002465E+00
         -2   -1    0    0    0  501 -0.00000000000E+00  0.00000000000E+00  0.36907670984E+02  0.36907671072E+02  0.25500000000E-02 0. -1.
          2   -1    0    0  501    0  0.00000000000E+00 -0.00000000000E+00 -0.20180286189E+04  0.20180286189E+04  0.25500000000E-02 0.  1.
    5000001    1    1    2    0    0  0.12006974662E+03 -0.14286734331E+03 -0.96343414939E+03  0.10013162248E+04  0.19900000000E+03 0.  0.
   -5000001    1    1    2    0    0 -0.12006974662E+03  0.14286734331E+03 -0.10176867985E+04  0.10536200652E+04  0.19900000000E+03 0.  0.
<mgrwt>
<rscale>  0 0.54582318E+03</rscale>
<asrwt>0</asrwt>
<pdfrwt beam="1">  1        2 0.28828973E+00 0.54582318E+03</pdfrwt>
<pdfrwt beam="2">  1       -2 0.52725257E-02 0.54582318E+03</pdfrwt>
<totfact> 0.15371517E+03</totfact>
</mgrwt>
</event>
<event>
 4    1  0.4915183E-005  0.4889084E+03  0.7818608E-02  0.1016715E+00
          2   -1    0    0  501    0  0.00000000000E+00  0.00000000000E+00  0.27262950553E+03  0.27262950554E+03  0.25500000000E-02 0.  1.
         -2   -1    0    0    0  501 -0.00000000000E+00 -0.00000000000E+00 -0.21919067356E+03  0.21919067357E+03  0.25500000000E-02 0. -1.
    5000001    1    1    2    0    0 -0.74301541739E+02 -0.12097648063E+03  0.25810160661E+02  0.24581129422E+03  0.19900000000E+03 0.  0.
   -5000001    1    1    2    0    0  0.74301541739E+02  0.12097648063E+03  0.27628671311E+02  0.24600888490E+03  0.19900000000E+03 0.  0.
<mgrwt>
<rscale>  0 0.48890836E+03</rscale>
<asrwt>0</asrwt>
<pdfrwt beam="1">  1        2 0.38947072E-01 0.48890836E+03</pdfrwt>
<pdfrwt beam="2">  1       -2 0.31312953E-01 0.48890836E+03</pdfrwt>
<totfact> 0.12534324E+03</totfact>
</mgrwt>
</event>
<event>
 4    1  0.4915183E-005  0.8027118E+03  0.7818608E-02  0.9556100E-01
          2   -1    0    0  501    0  0.00000000000E+00  0.00000000000E+00  0.53082100229E+03  0.53082100229E+03  0.25500000000E-02 0.  1.
         -2   -1    0    0    0  501 -0.00000000000E+00 -0.00000000000E+00 -0.30346677802E+03  0.30346677803E+03  0.25500000000E-02 0. -1.
    5000001    1    1    2    0    0 -0.31375906530E+03  0.12888619167E+03  0.30341116378E+02  0.39443375211E+03  0.19900000000E+03 0.  0.
   -5000001    1    1    2    0    0  0.31375906530E+03 -0.12888619167E+03  0.19701310788E+03  0.43985402822E+03  0.19900000000E+03 0.  0.
<mgrwt>
<rscale>  0 0.80271175E+03</rscale>
<asrwt>0</asrwt>
<pdfrwt beam="1">  1        2 0.75831571E-01 0.80271175E+03</pdfrwt>
<pdfrwt beam="2">  1       -2 0.43352398E-01 0.80271175E+03</pdfrwt>
<totfact> 0.31780217E+02</totfact>
</mgrwt>
</event>
<event>
 4    1  0.4915183E-005  0.6969435E+03  0.7818608E-02  0.9722473E-01
         -2   -1    0    0    0  501 -0.00000000000E+00  0.00000000000E+00  0.86330982615E+02  0.86330982653E+02  0.25500000000E-02 0. -1.
          2   -1    0    0  501    0  0.00000000000E+00 -0.00000000000E+00 -0.14065932240E+04  0.14065932240E+04  0.25500000000E-02 0.  1.
    5000001    1    1    2    0    0 -0.18888804682E+03 -0.67836843228E+02 -0.22348346783E+03  0.36031429603E+03  0.19900000000E+03 0.  0.
   -5000001    1    1    2    0    0  0.18888804682E+03  0.67836843228E+02 -0.10967787736E+04  0.11326099107E+04  0.19900000000E+03 0.  0.
<mgrwt>
<rscale>  0 0.69694354E+03</rscale>
<asrwt>0</asrwt>
<pdfrwt beam="1">  1        2 0.20094187E+00 0.69694354E+03</pdfrwt>
<pdfrwt beam="2">  1       -2 0.12332998E-01 0.69694354E+03</pdfrwt>
<totfact> 0.80614145E+02</totfact>
</mgrwt>
</event>
<event>
 4    1  0.4915183E-005  0.5879168E+03  0.7818608E-02  0.9930797E-01
         -2   -1    0    0    0  501 -0.00000000000E+00  0.00000000000E+00  0.61633774241E+02  0.61633774294E+02  0.25500000000E-02 0. -1.
          2   -1    0    0  501    0  0.00000000000E+00 -0.00000000000E+00 -0.14020161280E+04  0.14020161280E+04  0.25500000000E-02 0.  1.
    5000001    1    1    2    0    0  0.32265944370E+02 -0.12370430307E+03 -0.11047354518E+04  0.11297722178E+04  0.19900000000E+03 0.  0.
   -5000001    1    1    2    0    0 -0.32265944370E+02  0.12370430307E+03 -0.23564690195E+03  0.33387768443E+03  0.19900000000E+03 0.  0.
<mgrwt>
<rscale>  0 0.58791682E+03</rscale>
<asrwt>0</asrwt>
<pdfrwt beam="1">  1        2 0.20028800E+00 0.58791682E+03</pdfrwt>
<pdfrwt beam="2">  1       -2 0.88048257E-02 0.58791682E+03</pdfrwt>
<totfact> 0.14092982E+03</totfact>
</mgrwt>
</event>
<event>
 4    1  0.4915183E-005  0.7472808E+03  0.7818608E-02  0.9639626E-01
         -2   -1    0    0    0  501 -0.00000000000E+00  0.00000000000E+00  0.36462543202E+03  0.36462543203E+03  0.25500000000E-02 0. -1.
          2   -1    0    0  501    0  0.00000000000E+00 -0.00000000000E+00 -0.38287821764E+03  0.38287821765E+03  0.25500000000E-02 0.  1.
    5000001    1    1    2    0    0  0.30386282828E+03  0.83651352423E+02  0.16880753193E+02  0.37311677395E+03  0.19900000000E+03 0.  0.
   -5000001    1    1    2    0    0 -0.30386282828E+03 -0.83651352423E+02 -0.35133538816E+02  0.37438687573E+03  0.19900000000E+03 0.  0.
<mgrwt>
<rscale>  0 0.74728077E+03</rscale>
<asrwt>0</asrwt>
<pdfrwt beam="1">  1        2 0.54696888E-01 0.74728077E+03</pdfrwt>
<pdfrwt beam="2">  1       -2 0.52089347E-01 0.74728077E+03</pdfrwt>
<totfact> 0.31847445E+02</totfact>
</mgrwt>
</event>
<event>
 4    1  0.4915183E-005  0.4754743E+03  0.7818608E-02  0.1020386E+00
         -2   -1    0    0    0  501 -0.00000000000E+00  0.00000000000E+00  0.12393488498E+03  0.12393488501E+03  0.25500000000E-02 0. -1.
          2   -1    0    0  501    0  0.00000000000E+00 -0.00000000000E+00 -0.45603745832E+03  0.45603745832E+03  0.25500000000E-02 0.  1.
    5000001    1    1    2    0    0  0.10025067276E+03  0.78129577659E+02 -0.13234655084E+03  0.27068623499E+03  0.19900000000E+03 0.  0.
   -5000001    1    1    2    0    0 -0.10025067276E+03 -0.78129577659E+02 -0.19975602249E+03  0.30928610835E+03  0.19900000000E+03 0.  0.
<mgrwt>
<rscale>  0 0.47547429E+03</rscale>
<asrwt>0</asrwt>
<pdfrwt beam="1">  1        2 0.65148208E-01 0.47547429E+03</pdfrwt>
<pdfrwt beam="2">  1       -2 0.17704984E-01 0.47547429E+03</pdfrwt>
<totfact> 0.19561892E+03</totfact>
</mgrwt>
</event>
<event>
 4    1  0.4915183E-005  0.6335660E+03  0.7818608E-02  0.9838115E-01
          2   -1    0    0  501    0  0.00000000000E+00  0.00000000000E+00  0.10558637214E+04  0.10558637214E+04  0.25500000000E-02 0.  1.
         -2   -1    0    0    0  501 -0.00000000000E+00 -0.00000000000E+00 -0.95042057423E+02  0.95042057457E+02  0.25500000000E-02 0. -1.
    5000001    1    1    2    0    0  0.70147972203E+02  0.21137342689E+03  0.67223564044E+03  0.73559582644E+03  0.19900000000E+03 0.  0.
   -5000001    1    1    2    0    0 -0.70147972203E+02 -0.21137342689E+03  0.28858602355E+03  0.41530995243E+03  0.19900000000E+03 0.  0.
<mgrwt>
<rscale>  0 0.63356597E+03</rscale>
<asrwt>0</asrwt>
<pdfrwt beam="1">  1        2 0.15083767E+00 0.63356597E+03</pdfrwt>
<pdfrwt beam="2">  1       -2 0.13577437E-01 0.63356597E+03</pdfrwt>
<totfact> 0.10816656E+03</totfact>
</mgrwt>
</event>
<event>
 4    1  0.4915183E-005  0.5828054E+03  0.7818608E-02  0.9941736E-01
          2   -1    0    0  501    0  0.00000000000E+00  0.00000000000E+00  0.77061302871E+03  0.77061302871E+03  0.25500000000E-02 0.  1.
         -2   -1    0    0    0  501 -0.00000000000E+00 -0.00000000000E+00 -0.11019218138E+03  0.11019218141E+03  0.25500000000E-02 0. -1.
    5000001    1    1    2    0    0 -0.95458157678E+02  0.13800113374E+03  0.52817574255E+03  0.58883545053E+03  0.19900000000E+03 0.  0.
   -5000001    1    1    2    0    0  0.95458157678E+02 -0.13800113374E+03  0.13224510478E+03  0.29196975959E+03  0.19900000000E+03 0.  0.
<mgrwt>
<rscale>  0 0.58280539E+03</rscale>
<asrwt>0</asrwt>
<pdfrwt beam="1">  1        2 0.11008758E+00 0.58280539E+03</pdfrwt>
<pdfrwt beam="2">  1       -2 0.15741739E-01 0.58280539E+03</pdfrwt>
<totfact> 0.12895909E+03</totfact>
</mgrwt>
</event>
<event>
 4    1  0.4915183E-005  0.9138254E+03  0.7818608E-02  0.9408462E-01
         -2   -1    0    0    0  501 -0.00000000000E+00  0.00000000000E+00  0.13155340340E+03  0.13155340343E+03  0.25500000000E-02 0. -1.
          2   -1    0    0  501    0  0.00000000000E+00 -0.00000000000E+00 -0.15869540865E+04  0.15869540865E+04  0.25500000000E-02 0.  1.
    5000001    1    1    2    0    0 -0.40380321074E+02 -0.40427588585E+03 -0.84809537425E+03  0.96121606626E+03  0.19900000000E+03 0.  0.
   -5000001    1    1    2    0    0  0.40380321074E+02  0.40427588585E+03 -0.60730530888E+03  0.75729142369E+03  0.19900000000E+03 0.  0.
<mgrwt>
<rscale>  0 0.91382539E+03</rscale>
<asrwt>0</asrwt>
<pdfrwt beam="1">  1        2 0.22670772E+00 0.91382539E+03</pdfrwt>
<pdfrwt beam="2">  1       -2 0.18793344E-01 0.91382539E+03</pdfrwt>
<totfact> 0.31357152E+02</totfact>
</mgrwt>
</event>
<event>
 4    1  0.4915183E-005  0.5270313E+03  0.7818608E-02  0.1006955E+00
          2   -1    0    0  501    0  0.00000000000E+00  0.00000000000E+00  0.15008505404E+04  0.15008505404E+04  0.25500000000E-02 0.  1.
         -2   -1    0    0    0  501 -0.00000000000E+00 -0.00000000000E+00 -0.46267437719E+02  0.46267437789E+02  0.25500000000E-02 0. -1.
    5000001    1    1    2    0    0  0.33811482446E+02  0.15850667175E+03  0.90273546835E+03  0.93850940706E+03  0.19900000000E+03 0.  0.
   -5000001    1    1    2    0    0 -0.33811482446E+02 -0.15850667175E+03  0.55184763435E+03  0.60860857114E+03  0.19900000000E+03 0.  0.
<mgrwt>
<rscale>  0 0.52703134E+03</rscale>
<asrwt>0</asrwt>
<pdfrwt beam="1">  1        2 0.21440724E+00 0.52703134E+03</pdfrwt>
<pdfrwt beam="2">  1       -2 0.66096334E-02 0.52703134E+03</pdfrwt>
<totfact> 0.19747923E+03</totfact>
</mgrwt>
</event>
<event>
 4    1  0.4915183E-005  0.6750418E+03  0.7818608E-02  0.9760892E-01
          2   -1    0    0  501    0  0.00000000000E+00  0.00000000000E+00  0.17350068799E+04  0.17350068799E+04  0.25500000000E-02 0.  1.
         -2   -1    0    0    0  501 -0.00000000000E+00 -0.00000000000E+00 -0.65659883376E+02  0.65659883426E+02  0.25500000000E-02 0. -1.
    5000001    1    1    2    0    0 -0.24952015048E+03 -0.99187600908E+02  0.96038171266E+03  0.10168738957E+04  0.19900000000E+03 0.  0.
   -5000001    1    1    2    0    0  0.24952015048E+03  0.99187600908E+02  0.70896528383E+03  0.78379286763E+03  0.19900000000E+03 0.  0.
<mgrwt>
<rscale>  0 0.67504177E+03</rscale>
<asrwt>0</asrwt>
<pdfrwt beam="1">  1        2 0.24785811E+00 0.67504177E+03</pdfrwt>
<pdfrwt beam="2">  1       -2 0.93799839E-02 0.67504177E+03</pdfrwt>
<totfact> 0.85252960E+02</totfact>
</mgrwt>
</event>
<event>
 4    1  0.4915183E-005  0.7173509E+03  0.7818608E-02  0.9688011E-01
          2   -1    0    0  501    0  0.00000000000E+00  0.00000000000E+00  0.79838266186E+03  0.79838266186E+03  0.25500000000E-02 0.  1.
         -2   -1    0    0    0  501 -0.00000000000E+00 -0.00000000000E+00 -0.16113585971E+03  0.16113585973E+03  0.25500000000E-02 0. -1.
    5000001    1    1    2    0    0 -0.85854028399E+02 -0.27336865955E+03  0.43009928606E+03  0.55379394551E+03  0.19900000000E+03 0.  0.
   -5000001    1    1    2    0    0  0.85854028399E+02  0.27336865955E+03  0.20714751608E+03  0.40572457608E+03  0.19900000000E+03 0.  0.
<mgrwt>
<rscale>  0 0.71735089E+03</rscale>
<asrwt>0</asrwt>
<pdfrwt beam="1">  1        2 0.11405467E+00 0.71735089E+03</pdfrwt>
<pdfrwt beam="2">  1       -2 0.23019408E-01 0.71735089E+03</pdfrwt>
<totfact> 0.63594682E+02</totfact>
</mgrwt>
</event>
<event>
 4    1  0.4915183E-005  0.4577333E+03  0.7818608E-02  0.1025441E+00
          2   -1    0    0  501    0  0.00000000000E+00  0.00000000000E+00  0.11770451106E+04  0.11770451106E+04  0.25500000000E-02 0. -1.
         -2   -1    0    0    0  501 -0.00000000000E+00 -0.00000000000E+00 -0.44501229555E+02  0.44501229628E+02  0.25500000000E-02 0.  1.
    5000001    1    1    2    0    0 -0.10608904789E+03 -0.38502817037E+02  0.54905908322E+03  0.59481444995E+03  0.19900000000E+03 0.  0.
   -5000001    1    1    2    0    0  0.10608904789E+03  0.38502817037E+02  0.58348479781E+03  0.62673189027E+03  0.19900000000E+03 0.  0.
<mgrwt>
<rscale>  0 0.45773335E+03</rscale>
<asrwt>0</asrwt>
<pdfrwt beam="1">  1        2 0.16814931E+00 0.45773335E+03</pdfrwt>
<pdfrwt beam="2">  1       -2 0.63573183E-02 0.45773335E+03</pdfrwt>
<totfact> 0.31323942E+03</totfact>
</mgrwt>
</event>
<event>
 4    1  0.4915183E-005  0.4885734E+03  0.7818608E-02  0.1016805E+00
         -2   -1    0    0    0  501 -0.00000000000E+00  0.00000000000E+00  0.33432493135E+02  0.33432493233E+02  0.25500000000E-02 0. -1.
          2   -1    0    0  501    0  0.00000000000E+00 -0.00000000000E+00 -0.17849700657E+04  0.17849700658E+04  0.25500000000E-02 0.  1.
    5000001    1    1    2    0    0  0.62556792098E+02  0.36047539941E+02 -0.13295035575E+04  0.13462516432E+04  0.19900000000E+03 0.  0.
   -5000001    1    1    2    0    0 -0.62556792098E+02 -0.36047539941E+02 -0.42203401508E+03  0.47215091577E+03  0.19900000000E+03 0.  0.
<mgrwt>
<rscale>  0 0.48857343E+03</rscale>
<asrwt>0</asrwt>
<pdfrwt beam="1">  1        2 0.25499566E+00 0.48857343E+03</pdfrwt>
<pdfrwt beam="2">  1       -2 0.47760716E-02 0.48857343E+03</pdfrwt>
<totfact> 0.23484216E+03</totfact>
</mgrwt>
</event>
<event>
 4    1  0.4915183E-005  0.1247388E+04  0.7818608E-02  0.9072360E-01
          2   -1    0    0  501    0  0.00000000000E+00  0.00000000000E+00  0.12911193711E+04  0.12911193711E+04  0.25500000000E-02 0.  1.
         -2   -1    0    0    0  501 -0.00000000000E+00 -0.00000000000E+00 -0.30128467688E+03  0.30128467689E+03  0.25500000000E-02 0. -1.
    5000001    1    1    2    0    0 -0.25288173941E+01 -0.57237308244E+03  0.68330048548E+03  0.91330054958E+03  0.19900000000E+03 0.  0.
   -5000001    1    1    2    0    0  0.25288173941E+01  0.57237308244E+03  0.30653420875E+03  0.67910349841E+03  0.19900000000E+03 0.  0.
<mgrwt>
<rscale>  0 0.12473884E+04</rscale>
<asrwt>0</asrwt>
<pdfrwt beam="1">  1        2 0.18444563E+00 0.12473884E+04</pdfrwt>
<pdfrwt beam="2">  1       -2 0.43040668E-01 0.12473884E+04</pdfrwt>
<totfact> 0.95567595E+01</totfact>
</mgrwt>
</event>
<event>
 4    1  0.4915183E-005  0.6918372E+03  0.7818608E-02  0.9731294E-01
         -2   -1    0    0    0  501 -0.00000000000E+00  0.00000000000E+00  0.18209425096E+03  0.18209425097E+03  0.25500000000E-02 0. -1.
          2   -1    0    0  501    0  0.00000000000E+00 -0.00000000000E+00 -0.65713046270E+03  0.65713046271E+03  0.25500000000E-02 0.  1.
    5000001    1    1    2    0    0 -0.12716764353E+03  0.20134491197E+03 -0.42286813072E+03  0.52452820621E+03  0.19900000000E+03 0.  0.
   -5000001    1    1    2    0    0  0.12716764353E+03 -0.20134491197E+03 -0.52168081029E+02  0.31469650747E+03  0.19900000000E+03 0.  0.
<mgrwt>
<rscale>  0 0.69183720E+03</rscale>
<asrwt>0</asrwt>
<pdfrwt beam="1">  1        2 0.93875779E-01 0.69183720E+03</pdfrwt>
<pdfrwt beam="2">  1       -2 0.26013465E-01 0.69183720E+03</pdfrwt>
<totfact> 0.65097944E+02</totfact>
</mgrwt>
</event>
<event>
 4    1  0.4915183E-005  0.7902996E+03  0.7818608E-02  0.9574165E-01
          2   -1    0    0  501    0  0.00000000000E+00  0.00000000000E+00  0.89629988342E+03  0.89629988342E+03  0.25500000000E-02 0.  1.
         -2   -1    0    0    0  501 -0.00000000000E+00 -0.00000000000E+00 -0.17420886267E+03  0.17420886269E+03  0.25500000000E-02 0. -1.
    5000001    1    1    2    0    0  0.34514406622E+02 -0.23142612733E+03  0.69776509432E+03  0.76238207188E+03  0.19900000000E+03 0.  0.
   -5000001    1    1    2    0    0 -0.34514406622E+02  0.23142612733E+03  0.24325926431E+02  0.30812667423E+03  0.19900000000E+03 0.  0.
<mgrwt>
<rscale>  0 0.79029965E+03</rscale>
<asrwt>0</asrwt>
<pdfrwt beam="1">  1        2 0.12804284E+00 0.79029965E+03</pdfrwt>
<pdfrwt beam="2">  1       -2 0.24886980E-01 0.79029965E+03</pdfrwt>
<totfact> 0.47378530E+02</totfact>
</mgrwt>
</event>
<event>
 4    1  0.4915183E-005  0.4681418E+03  0.7818608E-02  0.1022446E+00
          2   -1    0    0  501    0  0.00000000000E+00  0.00000000000E+00  0.67629243077E+03  0.67629243077E+03  0.25500000000E-02 0.  1.
         -2   -1    0    0    0  501 -0.00000000000E+00 -0.00000000000E+00 -0.81014037690E+02  0.81014037730E+02  0.25500000000E-02 0. -1.
    5000001    1    1    2    0    0  0.14848688209E+01  0.12070131109E+03  0.25745119816E+03  0.34706358318E+03  0.19900000000E+03 0.  0.
   -5000001    1    1    2    0    0 -0.14848688209E+01 -0.12070131109E+03  0.33782719492E+03  0.41024288533E+03  0.19900000000E+03 0.  0.
<mgrwt>
<rscale>  0 0.46814178E+03</rscale>
<asrwt>0</asrwt>
<pdfrwt beam="1">  1        2 0.96613207E-01 0.46814178E+03</pdfrwt>
<pdfrwt beam="2">  1       -2 0.11573434E-01 0.46814178E+03</pdfrwt>
<totfact> 0.25234730E+03</totfact>
</mgrwt>
</event>
<event>
 4    1  0.4915183E-005  0.9910689E+03  0.7818608E-02  0.9318395E-01
          2   -1    0    0  501    0  0.00000000000E+00  0.00000000000E+00  0.13077492459E+04  0.13077492459E+04  0.25500000000E-02 0.  1.
         -2   -1    0    0    0  501 -0.00000000000E+00 -0.00000000000E+00 -0.18776871714E+03  0.18776871715E+03  0.25500000000E-02 0. -1.
    5000001    1    1    2    0    0  0.34409997925E+03 -0.29427204190E+03  0.60656342903E+03  0.78263722362E+03  0.19900000000E+03 0.  0.
   -5000001    1    1    2    0    0 -0.34409997925E+03  0.29427204190E+03  0.51341709976E+03  0.71288073945E+03  0.19900000000E+03 0.  0.
<mgrwt>
<rscale>  0 0.99106891E+03</rscale>
<asrwt>0</asrwt>
<pdfrwt beam="1">  1        2 0.18682132E+00 0.99106891E+03</pdfrwt>
<pdfrwt beam="2">  1       -2 0.26824103E-01 0.99106891E+03</pdfrwt>
<totfact> 0.23353636E+02</totfact>
</mgrwt>
</event>
<event>
 4    1  0.4915183E-005  0.7433021E+03  0.7818608E-02  0.9645917E-01
          2   -1    0    0  501    0  0.00000000000E+00  0.00000000000E+00  0.27507349118E+04  0.27507349118E+04  0.25500000000E-02 0.  1.
         -2   -1    0    0    0  501 -0.00000000000E+00 -0.00000000000E+00 -0.50213672862E+02  0.50213672927E+02  0.25500000000E-02 0. -1.
    5000001    1    1    2    0    0 -0.93091436814E+02  0.29968314638E+03  0.13762312894E+04  0.14255137901E+04  0.19900000000E+03 0.  0.
   -5000001    1    1    2    0    0  0.93091436814E+02 -0.29968314638E+03  0.13242899496E+04  0.13754347946E+04  0.19900000000E+03 0.  0.
<mgrwt>
<rscale>  0 0.74330210E+03</rscale>
<asrwt>0</asrwt>
<pdfrwt beam="1">  1        2 0.39296219E+00 0.74330210E+03</pdfrwt>
<pdfrwt beam="2">  1       -2 0.71733807E-02 0.74330210E+03</pdfrwt>
<totfact> 0.39431624E+02</totfact>
</mgrwt>
</event>
<event>
 4    1  0.4915183E-005  0.4534681E+03  0.7818608E-02  0.1026693E+00
          2   -1    0    0  501    0  0.00000000000E+00  0.00000000000E+00  0.33040693227E+03  0.33040693228E+03  0.25500000000E-02 0. -1.
         -2   -1    0    0    0  501 -0.00000000000E+00 -0.00000000000E+00 -0.15559097845E+03  0.15559097847E+03  0.25500000000E-02 0.  1.
    5000001    1    1    2    0    0 -0.20275274790E+02  0.10587369861E+03  0.10206417319E+03  0.24827086473E+03  0.19900000000E+03 0.  0.
   -5000001    1    1    2    0    0  0.20275274790E+02 -0.10587369861E+03  0.72751780625E+02  0.23772704602E+03  0.19900000000E+03 0.  0.
<mgrwt>
<rscale>  0 0.45346814E+03</rscale>
<asrwt>0</asrwt>
<pdfrwt beam="1">  1        2 0.47200989E-01 0.45346814E+03</pdfrwt>
<pdfrwt beam="2">  1       -2 0.22227283E-01 0.45346814E+03</pdfrwt>
<totfact> 0.18817890E+03</totfact>
</mgrwt>
</event>
<event>
 4    1  0.4915183E-005  0.5501927E+03  0.7818608E-02  0.1001449E+00
          2   -1    0    0  501    0  0.00000000000E+00  0.00000000000E+00  0.12447116923E+04  0.12447116923E+04  0.25500000000E-02 0.  1.
         -2   -1    0    0    0  501 -0.00000000000E+00 -0.00000000000E+00 -0.60799619958E+02  0.60799620012E+02  0.25500000000E-02 0. -1.
    5000001    1    1    2    0    0 -0.11389947568E+03 -0.14824141562E+03  0.51224922307E+03  0.58047297474E+03  0.19900000000E+03 0.  0.
   -5000001    1    1    2    0    0  0.11389947568E+03  0.14824141562E+03  0.67166284929E+03  0.72503833760E+03  0.19900000000E+03 0.  0.
<mgrwt>
<rscale>  0 0.55019269E+03</rscale>
<asrwt>0</asrwt>
<pdfrwt beam="1">  1        2 0.17781595E+00 0.55019269E+03</pdfrwt>
<pdfrwt beam="2">  1       -2 0.86856604E-02 0.55019269E+03</pdfrwt>
<totfact> 0.17531872E+03</totfact>
</mgrwt>
</event>
<event>
 4    1  0.4915183E-005  0.9006535E+03  0.7818608E-02  0.9424765E-01
         -2   -1    0    0    0  501 -0.00000000000E+00  0.00000000000E+00  0.13844653637E+03  0.13844653639E+03  0.25500000000E-02 0. -1.
          2   -1    0    0  501    0  0.00000000000E+00 -0.00000000000E+00 -0.14647834066E+04  0.14647834066E+04  0.25500000000E-02 0.  1.
    5000001    1    1    2    0    0 -0.45894598427E+02  0.39145457864E+03 -0.82088528413E+03  0.93209261933E+03  0.19900000000E+03 0.  0.
   -5000001    1    1    2    0    0  0.45894598427E+02 -0.39145457864E+03 -0.50545158607E+03  0.67113732363E+03  0.19900000000E+03 0.  0.
<mgrwt>
<rscale>  0 0.90065352E+03</rscale>
<asrwt>0</asrwt>
<pdfrwt beam="1">  1        2 0.20925476E+00 0.90065352E+03</pdfrwt>
<pdfrwt beam="2">  1       -2 0.19778077E-01 0.90065352E+03</pdfrwt>
<totfact> 0.33284622E+02</totfact>
</mgrwt>
</event>
<event>
 4    1  0.4915183E-005  0.4578691E+03  0.7818608E-02  0.1025401E+00
          2   -1    0    0  501    0  0.00000000000E+00  0.00000000000E+00  0.42668346191E+03  0.42668346192E+03  0.25500000000E-02 0.  1.
         -2   -1    0    0    0  501 -0.00000000000E+00 -0.00000000000E+00 -0.12283353062E+03  0.12283353065E+03  0.25500000000E-02 0. -1.
    5000001    1    1    2    0    0  0.57743073374E+02  0.21049820392E+02  0.26598881868E+03  0.33782896431E+03  0.19900000000E+03 0.  0.
   -5000001    1    1    2    0    0 -0.57743073374E+02 -0.21049820392E+02  0.37861112607E+02  0.21168802826E+03  0.19900000000E+03 0.  0.
<mgrwt>
<rscale>  0 0.45786913E+03</rscale>
<asrwt>0</asrwt>
<pdfrwt beam="1">  1        2 0.60954781E-01 0.45786913E+03</pdfrwt>
<pdfrwt beam="2">  1       -2 0.17547647E-01 0.45786913E+03</pdfrwt>
<totfact> 0.21378937E+03</totfact>
</mgrwt>
</event>
<event>
 4    1  0.4915183E-005  0.5939051E+03  0.7818608E-02  0.9918132E-01
         -2   -1    0    0    0  501 -0.00000000000E+00  0.00000000000E+00  0.30005183818E+03  0.30005183819E+03  0.25500000000E-02 0. -1.
          2   -1    0    0  501    0  0.00000000000E+00 -0.00000000000E+00 -0.29388530790E+03  0.29388530792E+03  0.25500000000E-02 0.  1.
    5000001    1    1    2    0    0 -0.78273725547E+02 -0.19439209579E+03  0.71386023016E+02  0.29767772389E+03  0.19900000000E+03 0.  0.
   -5000001    1    1    2    0    0  0.78273725547E+02  0.19439209579E+03 -0.65219492743E+02  0.29625942222E+03  0.19900000000E+03 0.  0.
<mgrwt>
<rscale>  0 0.59390513E+03</rscale>
<asrwt>0</asrwt>
<pdfrwt beam="1">  1        2 0.41983615E-01 0.59390513E+03</pdfrwt>
<pdfrwt beam="2">  1       -2 0.42864549E-01 0.59390513E+03</pdfrwt>
<totfact> 0.63365131E+02</totfact>
</mgrwt>
</event>
<event>
 4    1  0.4915183E-005  0.4564082E+03  0.7818608E-02  0.1025828E+00
         -2   -1    0    0    0  501 -0.00000000000E+00  0.00000000000E+00  0.97400570149E+03  0.97400570149E+03  0.25500000000E-02 0. -1.
          2   -1    0    0  501    0  0.00000000000E+00 -0.00000000000E+00 -0.53466951987E+02  0.53466952048E+02  0.25500000000E-02 0.  1.
    5000001    1    1    2    0    0  0.78812033168E+02  0.79124783932E+02  0.46479879597E+03  0.51779434985E+03  0.19900000000E+03 0.  0.
   -5000001    1    1    2    0    0 -0.78812033168E+02 -0.79124783932E+02  0.45573995353E+03  0.50967830369E+03  0.19900000000E+03 0.  0.
<mgrwt>
<rscale>  0 0.45640822E+03</rscale>
<asrwt>0</asrwt>
<pdfrwt beam="1">  1        2 0.76381362E-02 0.45640822E+03</pdfrwt>
<pdfrwt beam="2">  1       -2 0.13914367E+00 0.45640822E+03</pdfrwt>
<totfact> 0.34822504E+02</totfact>
</mgrwt>
</event>
<event>
 4    1  0.4915183E-005  0.8250733E+03  0.7818608E-02  0.9524417E-01
          2   -1    0    0  501    0  0.00000000000E+00  0.00000000000E+00  0.14411699062E+04  0.14411699062E+04  0.25500000000E-02 0.  1.
         -2   -1    0    0    0  501 -0.00000000000E+00 -0.00000000000E+00 -0.11808911824E+03  0.11808911827E+03  0.25500000000E-02 0. -1.
    5000001    1    1    2    0    0  0.34913075663E+03  0.20901187202E+02  0.48982094476E+03  0.63392010757E+03  0.19900000000E+03 0.  0.
   -5000001    1    1    2    0    0 -0.34913075663E+03 -0.20901187202E+02  0.83325984317E+03  0.92533891688E+03  0.19900000000E+03 0.  0.
<mgrwt>
<rscale>  0 0.82507329E+03</rscale>
<asrwt>0</asrwt>
<pdfrwt beam="1">  1        2 0.20588141E+00 0.82507329E+03</pdfrwt>
<pdfrwt beam="2">  1       -2 0.16869874E-01 0.82507329E+03</pdfrwt>
<totfact> 0.45312354E+02</totfact>
</mgrwt>
</event>
<event>
 4    1  0.4915183E-005  0.6112634E+03  0.7818608E-02  0.9882310E-01
          2   -1    0    0  501    0  0.00000000000E+00  0.00000000000E+00  0.58404655560E+03  0.58404655561E+03  0.25500000000E-02 0.  1.
         -2   -1    0    0    0  501 -0.00000000000E+00 -0.00000000000E+00 -0.15993711987E+03  0.15993711989E+03  0.25500000000E-02 0. -1.
    5000001    1    1    2    0    0 -0.87174983730E+02  0.21019034414E+03  0.26689648633E+03  0.40325450149E+03  0.19900000000E+03 0.  0.
   -5000001    1    1    2    0    0  0.87174983730E+02 -0.21019034414E+03  0.15721294940E+03  0.34072917401E+03  0.19900000000E+03 0.  0.
<mgrwt>
<rscale>  0 0.61126336E+03</rscale>
<asrwt>0</asrwt>
<pdfrwt beam="1">  1        2 0.83435222E-01 0.61126336E+03</pdfrwt>
<pdfrwt beam="2">  1       -2 0.22848160E-01 0.61126336E+03</pdfrwt>
<totfact> 0.94647211E+02</totfact>
</mgrwt>
</event>
<event>
 4    1  0.4915183E-005  0.5281097E+03  0.7818608E-02  0.1006692E+00
         -2   -1    0    0    0  501 -0.00000000000E+00  0.00000000000E+00  0.20018568486E+03  0.20018568488E+03  0.25500000000E-02 0. -1.
          2   -1    0    0  501    0  0.00000000000E+00 -0.00000000000E+00 -0.34830146206E+03  0.34830146207E+03  0.25500000000E-02 0.  1.
    5000001    1    1    2    0    0  0.88389831631E+02  0.82851281454E+02  0.55023176695E+02  0.23938597943E+03  0.19900000000E+03 0.  0.
   -5000001    1    1    2    0    0 -0.88389831631E+02 -0.82851281454E+02 -0.20313895389E+03  0.30910116752E+03  0.19900000000E+03 0.  0.
<mgrwt>
<rscale>  0 0.52810971E+03</rscale>
<asrwt>0</asrwt>
<pdfrwt beam="1">  1        2 0.49757352E-01 0.52810971E+03</pdfrwt>
<pdfrwt beam="2">  1       -2 0.28597955E-01 0.52810971E+03</pdfrwt>
<totfact> 0.11317062E+03</totfact>
</mgrwt>
</event>
<event>
 4    1  0.4915183E-005  0.5226231E+03  0.7818608E-02  0.1008037E+00
          2   -1    0    0  501    0  0.00000000000E+00  0.00000000000E+00  0.15572019660E+04  0.15572019660E+04  0.25500000000E-02 0.  1.
         -2   -1    0    0    0  501 -0.00000000000E+00 -0.00000000000E+00 -0.43850272973E+02  0.43850273047E+02  0.25500000000E-02 0. -1.
    5000001    1    1    2    0    0 -0.15208316951E+03 -0.72294911947E+02  0.70128787697E+03  0.74817212667E+03  0.19900000000E+03 0.  0.
   -5000001    1    1    2    0    0  0.15208316951E+03  0.72294911947E+02  0.81206381606E+03  0.85288011238E+03  0.19900000000E+03 0.  0.
<mgrwt>
<rscale>  0 0.52262312E+03</rscale>
<asrwt>0</asrwt>
<pdfrwt beam="1">  1        2 0.22245737E+00 0.52262312E+03</pdfrwt>
<pdfrwt beam="2">  1       -2 0.62643261E-02 0.52262312E+03</pdfrwt>
<totfact> 0.20091169E+03</totfact>
</mgrwt>
</event>
<event>
 4    1  0.4915183E-005  0.7401215E+03  0.7818608E-02  0.9650977E-01
          2   -1    0    0  501    0  0.00000000000E+00  0.00000000000E+00  0.27722867120E+04  0.27722867120E+04  0.25500000000E-02 0.  1.
         -2   -1    0    0    0  501 -0.00000000000E+00 -0.00000000000E+00 -0.49397839848E+02  0.49397839913E+02  0.25500000000E-02 0. -1.
    5000001    1    1    2    0    0  0.21242089909E+03  0.18095684835E+03  0.82939154922E+03  0.89741816410E+03  0.19900000000E+03 0.  0.
   -5000001    1    1    2    0    0 -0.21242089909E+03 -0.18095684835E+03  0.18934973230E+04  0.19242663878E+04  0.19900000000E+03 0.  0.
<mgrwt>
<rscale>  0 0.74012154E+03</rscale>
<asrwt>0</asrwt>
<pdfrwt beam="1">  1        2 0.39604104E+00 0.74012154E+03</pdfrwt>
<pdfrwt beam="2">  1       -2 0.70568328E-02 0.74012154E+03</pdfrwt>
<totfact> 0.39430601E+02</totfact>
</mgrwt>
</event>
<event>
 4    1  0.4915183E-005  0.5210356E+03  0.7818608E-02  0.1008430E+00
          2   -1    0    0  501    0  0.00000000000E+00  0.00000000000E+00  0.23955436699E+04  0.23955436699E+04  0.25500000000E-02 0.  1.
         -2   -1    0    0    0  501 -0.00000000000E+00 -0.00000000000E+00 -0.28331573025E+02  0.28331573140E+02  0.25500000000E-02 0. -1.
    5000001    1    1    2    0    0  0.56963033796E+02 -0.15127013848E+03  0.13988639869E+04  0.14221634561E+04  0.19900000000E+03 0.  0.
   -5000001    1    1    2    0    0 -0.56963033796E+02  0.15127013848E+03  0.96834811005E+03  0.10017117870E+04  0.19900000000E+03 0.  0.
<mgrwt>
<rscale>  0 0.52103559E+03</rscale>
<asrwt>0</asrwt>
<pdfrwt beam="1">  1        2 0.34222056E+00 0.52103559E+03</pdfrwt>
<pdfrwt beam="2">  1       -2 0.40473672E-02 0.52103559E+03</pdfrwt>
<totfact> 0.14952217E+03</totfact>
</mgrwt>
</event>
<event>
 4    1  0.4915183E-005  0.6556701E+03  0.7818608E-02  0.9796197E-01
         -2   -1    0    0    0  501 -0.00000000000E+00  0.00000000000E+00  0.39896727274E+03  0.39896727275E+03  0.25500000000E-02 0. -1.
          2   -1    0    0  501    0  0.00000000000E+00 -0.00000000000E+00 -0.26938506367E+03  0.26938506368E+03  0.25500000000E-02 0.  1.
    5000001    1    1    2    0    0  0.21434928843E+03 -0.40389355543E+02 -0.80435341228E+02  0.30601921771E+03  0.19900000000E+03 0.  0.
   -5000001    1    1    2    0    0 -0.21434928843E+03  0.40389355543E+02  0.21001755029E+03  0.36233311872E+03  0.19900000000E+03 0.  0.
<mgrwt>
<rscale>  0 0.65567011E+03</rscale>
<asrwt>0</asrwt>
<pdfrwt beam="1">  1        2 0.38483581E-01 0.65567011E+03</pdfrwt>
<pdfrwt beam="2">  1       -2 0.56995324E-01 0.65567011E+03</pdfrwt>
<totfact> 0.39153512E+02</totfact>
</mgrwt>
</event>
<event>
 4    1  0.4915183E-005  0.7163075E+03  0.7818608E-02  0.9689744E-01
         -2   -1    0    0    0  501 -0.00000000000E+00  0.00000000000E+00  0.14173877163E+03  0.14173877166E+03  0.25500000000E-02 0. -1.
          2   -1    0    0  501    0  0.00000000000E+00 -0.00000000000E+00 -0.90500363243E+03  0.90500363243E+03  0.25500000000E-02 0.  1.
    5000001    1    1    2    0    0  0.96890034038E+02 -0.14715727267E+03 -0.30827856229E+02  0.26757110890E+03  0.19900000000E+03 0.  0.
   -5000001    1    1    2    0    0 -0.96890034038E+02  0.14715727267E+03 -0.73243700457E+03  0.77917129519E+03  0.19900000000E+03 0.  0.
<mgrwt>
<rscale>  0 0.71630748E+03</rscale>
<asrwt>0</asrwt>
<pdfrwt beam="1">  1        2 0.12928623E+00 0.71630748E+03</pdfrwt>
<pdfrwt beam="2">  1       -2 0.20248397E-01 0.71630748E+03</pdfrwt>
<totfact> 0.67631308E+02</totfact>
</mgrwt>
</event>
<event>
 4    1  0.4915183E-005  0.6905835E+03  0.7818608E-02  0.9733472E-01
          2   -1    0    0  501    0  0.00000000000E+00  0.00000000000E+00  0.30886642248E+04  0.30886642248E+04  0.25500000000E-02 0.  1.
         -2   -1    0    0    0  501 -0.00000000000E+00 -0.00000000000E+00 -0.38601285280E+02  0.38601285364E+02  0.25500000000E-02 0. -1.
    5000001    1    1    2    0    0  0.24492533082E+03 -0.13810807999E+03  0.16324948279E+04  0.16684431733E+04  0.19900000000E+03 0.  0.
   -5000001    1    1    2    0    0 -0.24492533082E+03  0.13810807999E+03  0.14175681117E+04  0.14588223369E+04  0.19900000000E+03 0.  0.
<mgrwt>
<rscale>  0 0.69058355E+03</rscale>
<asrwt>0</asrwt>
<pdfrwt beam="1">  1        2 0.44123796E+00 0.69058355E+03</pdfrwt>
<pdfrwt beam="2">  1       -2 0.55144666E-02 0.69058355E+03</pdfrwt>
<totfact> 0.39369539E+02</totfact>
</mgrwt>
</event>
<event>
 4    1  0.4915183E-005  0.7218046E+03  0.7818608E-02  0.9680653E-01
         -2   -1    0    0    0  501 -0.00000000000E+00  0.00000000000E+00  0.67150891736E+02  0.67150891784E+02  0.25500000000E-02 0. -1.
          2   -1    0    0  501    0  0.00000000000E+00 -0.00000000000E+00 -0.19396686366E+04  0.19396686366E+04  0.25500000000E-02 0.  1.
    5000001    1    1    2    0    0  0.24986560390E+03 -0.59437481584E+02 -0.49944637100E+03  0.59582993524E+03  0.19900000000E+03 0.  0.
   -5000001    1    1    2    0    0 -0.24986560390E+03  0.59437481584E+02 -0.13730713739E+04  0.14109895932E+04  0.19900000000E+03 0.  0.
<mgrwt>
<rscale>  0 0.72180462E+03</rscale>
<asrwt>0</asrwt>
<pdfrwt beam="1">  1        2 0.27709548E+00 0.72180462E+03</pdfrwt>
<pdfrwt beam="2">  1       -2 0.95929858E-02 0.72180462E+03</pdfrwt>
<totfact> 0.64569465E+02</totfact>
</mgrwt>
</event>
<event>
 4    1  0.4915183E-005  0.5746585E+03  0.7818608E-02  0.9959423E-01
         -2   -1    0    0    0  501 -0.00000000000E+00  0.00000000000E+00  0.74009786796E+02  0.74009786840E+02  0.25500000000E-02 0. -1.
          2   -1    0    0  501    0  0.00000000000E+00 -0.00000000000E+00 -0.11155025883E+04  0.11155025883E+04  0.25500000000E-02 0.  1.
    5000001    1    1    2    0    0  0.18321750342E+02  0.18641043399E+03 -0.70440760633E+03  0.75556310941E+03  0.19900000000E+03 0.  0.
   -5000001    1    1    2    0    0 -0.18321750342E+02 -0.18641043399E+03 -0.33708519520E+03  0.43394926576E+03  0.19900000000E+03 0.  0.
<mgrwt>
<rscale>  0 0.57465854E+03</rscale>
<asrwt>0</asrwt>
<pdfrwt beam="1">  1        2 0.15935750E+00 0.57465854E+03</pdfrwt>
<pdfrwt beam="2">  1       -2 0.10572827E-01 0.57465854E+03</pdfrwt>
<totfact> 0.15088333E+03</totfact>
</mgrwt>
</event>
<event>
 4    1  0.4915183E-005  0.4081005E+03  0.7818608E-02  0.1041010E+00
          2   -1    0    0  501    0  0.00000000000E+00  0.00000000000E+00  0.16990925797E+04  0.16990925797E+04  0.25500000000E-02 0.  1.
         -2   -1    0    0    0  501 -0.00000000000E+00 -0.00000000000E+00 -0.24505144510E+02  0.24505144643E+02  0.25500000000E-02 0. -1.
    5000001    1    1    2    0    0  0.32794270399E+02 -0.68639576627E+01  0.96490462380E+03  0.98578116796E+03  0.19900000000E+03 0.  0.
   -5000001    1    1    2    0    0 -0.32794270399E+02  0.68639576627E+01  0.70968281143E+03  0.73781655641E+03  0.19900000000E+03 0.  0.
<mgrwt>
<rscale>  0 0.40810052E+03</rscale>
<asrwt>0</asrwt>
<pdfrwt beam="1">  1        2 0.24272756E+00 0.40810052E+03</pdfrwt>
<pdfrwt beam="2">  1       -2 0.35007342E-02 0.40810052E+03</pdfrwt>
<totfact> 0.41729947E+03</totfact>
</mgrwt>
</event>
<event>
 4    1  0.4915183E-005  0.4796698E+03  0.7818608E-02  0.1019226E+00
          2   -1    0    0  501    0  0.00000000000E+00  0.00000000000E+00  0.86983901871E+03  0.86983901871E+03  0.25500000000E-02 0.  1.
         -2   -1    0    0    0  501 -0.00000000000E+00 -0.00000000000E+00 -0.66128073648E+02  0.66128073697E+02  0.25500000000E-02 0. -1.
    5000001    1    1    2    0    0 -0.11724131774E+03  0.48454322406E+02  0.31846435131E+03  0.39637594654E+03  0.19900000000E+03 0.  0.
   -5000001    1    1    2    0    0  0.11724131774E+03 -0.48454322406E+02  0.48524659376E+03  0.53959114587E+03  0.19900000000E+03 0.  0.
<mgrwt>
<rscale>  0 0.47966980E+03</rscale>
<asrwt>0</asrwt>
<pdfrwt beam="1">  1        2 0.12426271E+00 0.47966980E+03</pdfrwt>
<pdfrwt beam="2">  1       -2 0.94468680E-02 0.47966980E+03</pdfrwt>
<totfact> 0.25589197E+03</totfact>
</mgrwt>
</event>
<event>
 4    1  0.4915183E-005  0.4347492E+03  0.7818608E-02  0.1032370E+00
          2   -1    0    0  501    0  0.00000000000E+00  0.00000000000E+00  0.20639631700E+04  0.20639631700E+04  0.25500000000E-02 0.  1.
         -2   -1    0    0    0  501 -0.00000000000E+00 -0.00000000000E+00 -0.22893682682E+02  0.22893682824E+02  0.25500000000E-02 0. -1.
    5000001    1    1    2    0    0  0.61394056700E+02 -0.61883931985E+02  0.10551046792E+04  0.10772398690E+04  0.19900000000E+03 0.  0.
   -5000001    1    1    2    0    0 -0.61394056700E+02  0.61883931985E+02  0.98596480808E+03  0.10096169838E+04  0.19900000000E+03 0.  0.
<mgrwt>
<rscale>  0 0.43474921E+03</rscale>
<asrwt>0</asrwt>
<pdfrwt beam="1">  1        2 0.29485202E+00 0.43474921E+03</pdfrwt>
<pdfrwt beam="2">  1       -2 0.32705246E-02 0.43474921E+03</pdfrwt>
<totfact> 0.30440538E+03</totfact>
</mgrwt>
</event>
<event>
 4    1  0.4915183E-005  0.7098691E+03  0.7818608E-02  0.9700502E-01
         -2   -1    0    0    0  501 -0.00000000000E+00  0.00000000000E+00  0.88113351480E+02  0.88113351517E+02  0.25500000000E-02 0. -1.
          2   -1    0    0  501    0  0.00000000000E+00 -0.00000000000E+00 -0.14297325314E+04  0.14297325314E+04  0.25500000000E-02 0.  1.
    5000001    1    1    2    0    0 -0.66426707537E+02  0.28548481193E+03 -0.62477904950E+03  0.71823669220E+03  0.19900000000E+03 0.  0.
   -5000001    1    1    2    0    0  0.66426707537E+02 -0.28548481193E+03 -0.71684013043E+03  0.79960919074E+03  0.19900000000E+03 0.  0.
<mgrwt>
<rscale>  0 0.70986907E+03</rscale>
<asrwt>0</asrwt>
<pdfrwt beam="1">  1        2 0.20424749E+00 0.70986907E+03</pdfrwt>
<pdfrwt beam="2">  1       -2 0.12587623E-01 0.70986907E+03</pdfrwt>
<totfact> 0.75709549E+02</totfact>
</mgrwt>
</event>
<event>
 4    1  0.4915183E-005  0.1160911E+04  0.7818608E-02  0.9147776E-01
         -2   -1    0    0    0  501 -0.00000000000E+00  0.00000000000E+00  0.36801955755E+03  0.36801955756E+03  0.25500000000E-02 0. -1.
          2   -1    0    0  501    0  0.00000000000E+00 -0.00000000000E+00 -0.91551818610E+03  0.91551818610E+03  0.25500000000E-02 0.  1.
    5000001    1    1    2    0    0 -0.12026144341E+03  0.50831197458E+03 -0.44675023279E+03  0.71556316895E+03  0.19900000000E+03 0.  0.
   -5000001    1    1    2    0    0  0.12026144341E+03 -0.50831197458E+03 -0.10074839576E+03  0.56797457471E+03  0.19900000000E+03 0.  0.
<mgrwt>
<rscale>  0 0.11609110E+04</rscale>
<asrwt>0</asrwt>
<pdfrwt beam="1">  1        2 0.13078831E+00 0.11609110E+04</pdfrwt>
<pdfrwt beam="2">  1       -2 0.52574223E-01 0.11609110E+04</pdfrwt>
<totfact> 0.10729445E+02</totfact>
</mgrwt>
</event>
<event>
 4    1  0.4915183E-005  0.1139893E+04  0.7818608E-02  0.9167159E-01
         -2   -1    0    0    0  501 -0.00000000000E+00  0.00000000000E+00  0.76015475959E+02  0.76015476002E+02  0.25500000000E-02 0. -1.
          2   -1    0    0  501    0  0.00000000000E+00 -0.00000000000E+00 -0.42733279576E+04  0.42733279576E+04  0.25500000000E-02 0.  1.
    5000001    1    1    2    0    0 -0.24749428386E+03  0.44036699590E+03 -0.27602101625E+04  0.28131010741E+04  0.19900000000E+03 0.  0.
   -5000001    1    1    2    0    0  0.24749428386E+03 -0.44036699590E+03 -0.14371023191E+04  0.15362423595E+04  0.19900000000E+03 0.  0.
<mgrwt>
<rscale>  0 0.11398931E+04</rscale>
<asrwt>0</asrwt>
<pdfrwt beam="1">  1        2 0.61047527E+00 0.11398931E+04</pdfrwt>
<pdfrwt beam="2">  1       -2 0.10859356E-01 0.11398931E+04</pdfrwt>
<totfact> 0.22628329E+01</totfact>
</mgrwt>
</event>
<event>
 4    1  0.4915183E-005  0.5449684E+03  0.7818608E-02  0.1002665E+00
          2   -1    0    0  501    0  0.00000000000E+00  0.00000000000E+00  0.55715017050E+03  0.55715017051E+03  0.25500000000E-02 0.  1.
         -2   -1    0    0    0  501 -0.00000000000E+00 -0.00000000000E+00 -0.13326324813E+03  0.13326324815E+03  0.25500000000E-02 0. -1.
    5000001    1    1    2    0    0  0.12717471204E+03  0.13340525850E+03  0.24488912744E+03  0.36543406397E+03  0.19900000000E+03 0.  0.
   -5000001    1    1    2    0    0 -0.12717471204E+03 -0.13340525850E+03  0.17899779494E+03  0.32497935468E+03  0.19900000000E+03 0.  0.
<mgrwt>
<rscale>  0 0.54496841E+03</rscale>
<asrwt>0</asrwt>
<pdfrwt beam="1">  1        2 0.79592882E-01 0.54496841E+03</pdfrwt>
<pdfrwt beam="2">  1       -2 0.19037607E-01 0.54496841E+03</pdfrwt>
<totfact> 0.13767050E+03</totfact>
</mgrwt>
</event>
<event>
 4    1  0.4915183E-005  0.7364377E+03  0.7818608E-02  0.9656871E-01
          2   -1    0    0  501    0  0.00000000000E+00  0.00000000000E+00  0.24311918763E+04  0.24311918763E+04  0.25500000000E-02 0.  1.
         -2   -1    0    0    0  501 -0.00000000000E+00 -0.00000000000E+00 -0.55768990632E+02  0.55768990691E+02  0.25500000000E-02 0. -1.
    5000001    1    1    2    0    0  0.29165215288E+03 -0.78073820075E+02  0.95307289227E+03  0.10193652131E+04  0.19900000000E+03 0.  0.
   -5000001    1    1    2    0    0 -0.29165215288E+03  0.78073820075E+02  0.14223499934E+04  0.14675956539E+04  0.19900000000E+03 0.  0.
<mgrwt>
<rscale>  0 0.73643769E+03</rscale>
<asrwt>0</asrwt>
<pdfrwt beam="1">  1        2 0.34731314E+00 0.73643769E+03</pdfrwt>
<pdfrwt beam="2">  1       -2 0.79669984E-02 0.73643769E+03</pdfrwt>
<totfact> 0.48970137E+02</totfact>
</mgrwt>
</event>
<event>
 4    1  0.4915183E-005  0.1075612E+04  0.7818608E-02  0.9229293E-01
         -2   -1    0    0    0  501 -0.00000000000E+00  0.00000000000E+00  0.19727412005E+03  0.19727412007E+03  0.25500000000E-02 0. -1.
          2   -1    0    0  501    0  0.00000000000E+00 -0.00000000000E+00 -0.14661603888E+04  0.14661603888E+04  0.25500000000E-02 0.  1.
    5000001    1    1    2    0    0  0.38178694300E+03  0.27918891977E+03 -0.88345737581E+03  0.10216680761E+04  0.19900000000E+03 0.  0.
   -5000001    1    1    2    0    0 -0.38178694300E+03 -0.27918891977E+03 -0.38542889291E+03  0.64176643279E+03  0.19900000000E+03 0.  0.
<mgrwt>
<rscale>  0 0.10756124E+04</rscale>
<asrwt>0</asrwt>
<pdfrwt beam="1">  1        2 0.20945148E+00 0.10756124E+04</pdfrwt>
<pdfrwt beam="2">  1       -2 0.28182018E-01 0.10756124E+04</pdfrwt>
<totfact> 0.17418588E+02</totfact>
</mgrwt>
</event>
<event>
 4    1  0.4915183E-005  0.5655299E+03  0.7818608E-02  0.9979619E-01
         -2   -1    0    0    0  501 -0.00000000000E+00  0.00000000000E+00  0.32904149231E+02  0.32904149329E+02  0.25500000000E-02 0. -1.
          2   -1    0    0  501    0  0.00000000000E+00 -0.00000000000E+00 -0.24299674724E+04  0.24299674724E+04  0.25500000000E-02 0.  1.
    5000001    1    1    2    0    0 -0.19813666761E+03 -0.63699152010E+01 -0.10569916067E+04  0.10936777274E+04  0.19900000000E+03 0.  0.
   -5000001    1    1    2    0    0  0.19813666761E+03  0.63699152010E+01 -0.13400717165E+04  0.13691938943E+04  0.19900000000E+03 0.  0.
<mgrwt>
<rscale>  0 0.56552988E+03</rscale>
<asrwt>0</asrwt>
<pdfrwt beam="1">  1        2 0.34713810E+00 0.56552988E+03</pdfrwt>
<pdfrwt beam="2">  1       -2 0.47005943E-02 0.56552988E+03</pdfrwt>
<totfact> 0.11375709E+03</totfact>
</mgrwt>
</event>
<event>
 4    1  0.4915183E-005  0.5752081E+03  0.7818608E-02  0.9958220E-01
          2   -1    0    0  501    0  0.00000000000E+00  0.00000000000E+00  0.19449291480E+04  0.19449291480E+04  0.25500000000E-02 0.  1.
         -2   -1    0    0    0  501 -0.00000000000E+00 -0.00000000000E+00 -0.42529095594E+02  0.42529095670E+02  0.25500000000E-02 0. -1.
    5000001    1    1    2    0    0  0.15507090024E+03 -0.10591427983E+02  0.47548657623E+03  0.53837500557E+03  0.19900000000E+03 0.  0.
   -5000001    1    1    2    0    0 -0.15507090024E+03  0.10591427983E+02  0.14269134762E+04  0.14490832381E+04  0.19900000000E+03 0.  0.
<mgrwt>
<rscale>  0 0.57520806E+03</rscale>
<asrwt>0</asrwt>
<pdfrwt beam="1">  1        2 0.27784700E+00 0.57520806E+03</pdfrwt>
<pdfrwt beam="2">  1       -2 0.60755854E-02 0.57520806E+03</pdfrwt>
<totfact> 0.13388826E+03</totfact>
</mgrwt>
</event>
<event>
 4    1  0.4915183E-005  0.6443254E+03  0.7818608E-02  0.9817486E-01
         -2   -1    0    0    0  501 -0.00000000000E+00  0.00000000000E+00  0.14545878295E+03  0.14545878297E+03  0.25500000000E-02 0. -1.
          2   -1    0    0  501    0  0.00000000000E+00 -0.00000000000E+00 -0.71352720204E+03  0.71352720204E+03  0.25500000000E-02 0.  1.
    5000001    1    1    2    0    0  0.12603042929E+03  0.21784043841E+03 -0.32289455647E+03  0.45519228938E+03  0.19900000000E+03 0.  0.
   -5000001    1    1    2    0    0 -0.12603042929E+03 -0.21784043841E+03 -0.24517386262E+03  0.40379369563E+03  0.19900000000E+03 0.  0.
<mgrwt>
<rscale>  0 0.64432538E+03</rscale>
<asrwt>0</asrwt>
<pdfrwt beam="1">  1        2 0.10193246E+00 0.64432538E+03</pdfrwt>
<pdfrwt beam="2">  1       -2 0.20779826E-01 0.64432538E+03</pdfrwt>
<totfact> 0.87931726E+02</totfact>
</mgrwt>
</event>
<event>
 4    1  0.4915183E-005  0.5466326E+03  0.7818608E-02  0.1002276E+00
         -2   -1    0    0    0  501 -0.00000000000E+00  0.00000000000E+00  0.23760422402E+03  0.23760422403E+03  0.25500000000E-02 0. -1.
          2   -1    0    0  501    0  0.00000000000E+00 -0.00000000000E+00 -0.31439596724E+03  0.31439596725E+03  0.25500000000E-02 0.  1.
    5000001    1    1    2    0    0  0.13067934054E+03 -0.39394988911E+02  0.91206695202E+02  0.25797037901E+03  0.19900000000E+03 0.  0.
   -5000001    1    1    2    0    0 -0.13067934054E+03  0.39394988911E+02 -0.16799843842E+03  0.29402981227E+03  0.19900000000E+03 0.  0.
<mgrwt>
<rscale>  0 0.54663264E+03</rscale>
<asrwt>0</asrwt>
<pdfrwt beam="1">  1        2 0.44913710E-01 0.54663264E+03</pdfrwt>
<pdfrwt beam="2">  1       -2 0.33943461E-01 0.54663264E+03</pdfrwt>
<totfact> 0.92177097E+02</totfact>
</mgrwt>
</event>
<event>
 4    1  0.4915183E-005  0.5671948E+03  0.7818608E-02  0.9975905E-01
          2   -1    0    0  501    0  0.00000000000E+00  0.00000000000E+00  0.17889156163E+04  0.17889156163E+04  0.25500000000E-02 0.  1.
         -2   -1    0    0    0  501 -0.00000000000E+00 -0.00000000000E+00 -0.44958793398E+02  0.44958793470E+02  0.25500000000E-02 0. -1.
    5000001    1    1    2    0    0 -0.17090754375E+03 -0.10550600680E+03  0.80073109812E+03  0.84918325317E+03  0.19900000000E+03 0.  0.
   -5000001    1    1    2    0    0  0.17090754375E+03  0.10550600680E+03  0.94322572475E+03  0.98469115657E+03  0.19900000000E+03 0.  0.
<mgrwt>
<rscale>  0 0.56719481E+03</rscale>
<asrwt>0</asrwt>
<pdfrwt beam="1">  1        2 0.25555936E+00 0.56719481E+03</pdfrwt>
<pdfrwt beam="2">  1       -2 0.64226852E-02 0.56719481E+03</pdfrwt>
<totfact> 0.14706455E+03</totfact>
</mgrwt>
</event>
<event>
 4    1  0.4915183E-005  0.9036463E+03  0.7818608E-02  0.9421035E-01
          2   -1    0    0  501    0  0.00000000000E+00  0.00000000000E+00  0.10358146373E+04  0.10358146373E+04  0.25500000000E-02 0. -1.
         -2   -1    0    0    0  501 -0.00000000000E+00 -0.00000000000E+00 -0.19708563079E+03  0.19708563080E+03  0.25500000000E-02 0.  1.
    5000001    1    1    2    0    0 -0.11652599362E+03 -0.38843457696E+03  0.43182833349E+03  0.62492914588E+03  0.19900000000E+03 0.  0.
   -5000001    1    1    2    0    0  0.11652599362E+03  0.38843457696E+03  0.40690067306E+03  0.60797112226E+03  0.19900000000E+03 0.  0.
<mgrwt>
<rscale>  0 0.90364635E+03</rscale>
<asrwt>0</asrwt>
<pdfrwt beam="1">  1        2 0.14797352E+00 0.90364635E+03</pdfrwt>
<pdfrwt beam="2">  1       -2 0.28155090E-01 0.90364635E+03</pdfrwt>
<totfact> 0.30779324E+02</totfact>
</mgrwt>
</event>
<event>
 4    1  0.4915183E-005  0.5390684E+03  0.7818608E-02  0.1004056E+00
         -2   -1    0    0    0  501 -0.00000000000E+00  0.00000000000E+00  0.18306576545E+03  0.18306576547E+03  0.25500000000E-02 0. -1.
          2   -1    0    0  501    0  0.00000000000E+00 -0.00000000000E+00 -0.39684469345E+03  0.39684469346E+03  0.25500000000E-02 0.  1.
    5000001    1    1    2    0    0 -0.12407514136E+03 -0.10677754152E+03 -0.21831995153E+02  0.25859953613E+03  0.19900000000E+03 0.  0.
   -5000001    1    1    2    0    0  0.12407514136E+03  0.10677754152E+03 -0.19194693284E+03  0.32131092279E+03  0.19900000000E+03 0.  0.
<mgrwt>
<rscale>  0 0.53906837E+03</rscale>
<asrwt>0</asrwt>
<pdfrwt beam="1">  1        2 0.56692099E-01 0.53906837E+03</pdfrwt>
<pdfrwt beam="2">  1       -2 0.26152252E-01 0.53906837E+03</pdfrwt>
<totfact> 0.11525430E+03</totfact>
</mgrwt>
</event>
<event>
 4    1  0.4915183E-005  0.4750498E+03  0.7818608E-02  0.1020505E+00
          2   -1    0    0  501    0  0.00000000000E+00  0.00000000000E+00  0.28997059891E+04  0.28997059891E+04  0.25500000000E-02 0.  1.
         -2   -1    0    0    0  501 -0.00000000000E+00 -0.00000000000E+00 -0.19456479294E+02  0.19456479461E+02  0.25500000000E-02 0. -1.
    5000001    1    1    2    0    0  0.95250515222E+02  0.81318545547E+02  0.16468461591E+04  0.16635470051E+04  0.19900000000E+03 0.  0.
   -5000001    1    1    2    0    0 -0.95250515222E+02 -0.81318545547E+02  0.12334033507E+04  0.12556154634E+04  0.19900000000E+03 0.  0.
<mgrwt>
<rscale>  0 0.47504976E+03</rscale>
<asrwt>0</asrwt>
<pdfrwt beam="1">  1        2 0.41424388E+00 0.47504976E+03</pdfrwt>
<pdfrwt beam="2">  1       -2 0.27794959E-02 0.47504976E+03</pdfrwt>
<totfact> 0.14555411E+03</totfact>
</mgrwt>
</event>
<event>
 4    1  0.4915183E-005  0.5173719E+03  0.7818608E-02  0.1009341E+00
          2   -1    0    0  501    0  0.00000000000E+00  0.00000000000E+00  0.14867439111E+03  0.14867439114E+03  0.25500000000E-02 0.  1.
         -2   -1    0    0    0  501 -0.00000000000E+00 -0.00000000000E+00 -0.45010057056E+03  0.45010057056E+03  0.25500000000E-02 0. -1.
    5000001    1    1    2    0    0  0.14121898784E+03  0.50197362552E+02 -0.70073427079E+02  0.25879308901E+03  0.19900000000E+03 0.  0.
   -5000001    1    1    2    0    0 -0.14121898784E+03 -0.50197362552E+02 -0.23135275236E+03  0.33998187269E+03  0.19900000000E+03 0.  0.
<mgrwt>
<rscale>  0 0.51737193E+03</rscale>
<asrwt>0</asrwt>
<pdfrwt beam="1">  1        2 0.21239199E-01 0.51737193E+03</pdfrwt>
<pdfrwt beam="2">  1       -2 0.64300081E-01 0.51737193E+03</pdfrwt>
<totfact> 0.59597426E+02</totfact>
</mgrwt>
</event>
<event>
 4    1  0.4915183E-005  0.5110113E+03  0.7818608E-02  0.1010944E+00
          2   -1    0    0  501    0  0.00000000000E+00  0.00000000000E+00  0.74261805043E+02  0.74261805086E+02  0.25500000000E-02 0.  1.
         -2   -1    0    0    0  501 -0.00000000000E+00 -0.00000000000E+00 -0.87909439418E+03  0.87909439418E+03  0.25500000000E-02 0. -1.
    5000001    1    1    2    0    0 -0.39540232951E+01 -0.15677127994E+03 -0.46398954362E+03  0.52865883621E+03  0.19900000000E+03 0.  0.
   -5000001    1    1    2    0    0  0.39540232951E+01  0.15677127994E+03 -0.34084304552E+03  0.42469736306E+03  0.19900000000E+03 0.  0.
<mgrwt>
<rscale>  0 0.51101130E+03</rscale>
<asrwt>0</asrwt>
<pdfrwt beam="1">  1        2 0.10608830E-01 0.51101130E+03</pdfrwt>
<pdfrwt beam="2">  1       -2 0.12558491E+00 0.51101130E+03</pdfrwt>
<totfact> 0.29612196E+02</totfact>
</mgrwt>
</event>
<event>
 4    1  0.4915183E-005  0.6242726E+03  0.7818608E-02  0.9856290E-01
          2   -1    0    0  501    0  0.00000000000E+00  0.00000000000E+00  0.16957236271E+04  0.16957236271E+04  0.25500000000E-02 0.  1.
         -2   -1    0    0    0  501 -0.00000000000E+00 -0.00000000000E+00 -0.57455743181E+02  0.57455743237E+02  0.25500000000E-02 0. -1.
    5000001    1    1    2    0    0 -0.20478067782E+03  0.45279414429E+02  0.48871673509E+03  0.56782955060E+03  0.19900000000E+03 0.  0.
   -5000001    1    1    2    0    0  0.20478067782E+03 -0.45279414429E+02  0.11495511489E+04  0.11853498198E+04  0.19900000000E+03 0.  0.
<mgrwt>
<rscale>  0 0.62427257E+03</rscale>
<asrwt>0</asrwt>
<pdfrwt beam="1">  1        2 0.24224622E+00 0.62427257E+03</pdfrwt>
<pdfrwt beam="2">  1       -2 0.82079638E-02 0.62427257E+03</pdfrwt>
<totfact> 0.11090332E+03</totfact>
</mgrwt>
</event>
<event>
 4    1  0.4915183E-005  0.6016015E+03  0.7818608E-02  0.9902089E-01
         -2   -1    0    0    0  501 -0.00000000000E+00  0.00000000000E+00  0.12236961424E+03  0.12236961427E+03  0.25500000000E-02 0. -1.
          2   -1    0    0  501    0  0.00000000000E+00 -0.00000000000E+00 -0.73940821441E+03  0.73940821442E+03  0.25500000000E-02 0.  1.
    5000001    1    1    2    0    0 -0.18063484125E+03  0.13243010538E+03 -0.34678052023E+03  0.45828419992E+03  0.19900000000E+03 0.  0.
   -5000001    1    1    2    0    0  0.18063484125E+03 -0.13243010538E+03 -0.27025807994E+03  0.40349362877E+03  0.19900000000E+03 0.  0.
<mgrwt>
<rscale>  0 0.60160152E+03</rscale>
<asrwt>0</asrwt>
<pdfrwt beam="1">  1        2 0.10562974E+00 0.60160152E+03</pdfrwt>
<pdfrwt beam="2">  1       -2 0.17481374E-01 0.60160152E+03</pdfrwt>
<totfact> 0.11359367E+03</totfact>
</mgrwt>
</event>
<event>
 4    1  0.4915183E-005  0.6400855E+03  0.7818608E-02  0.9825563E-01
         -2   -1    0    0    0  501 -0.00000000000E+00  0.00000000000E+00  0.21828087364E+03  0.21828087365E+03  0.25500000000E-02 0. -1.
          2   -1    0    0  501    0  0.00000000000E+00 -0.00000000000E+00 -0.46924570712E+03  0.46924570713E+03  0.25500000000E-02 0.  1.
    5000001    1    1    2    0    0  0.11368464853E+03  0.18671786267E+03 -0.25720348809E+03  0.39184485939E+03  0.19900000000E+03 0.  0.
   -5000001    1    1    2    0    0 -0.11368464853E+03 -0.18671786267E+03  0.62386546063E+01  0.29568172139E+03  0.19900000000E+03 0.  0.
<mgrwt>
<rscale>  0 0.64008550E+03</rscale>
<asrwt>0</asrwt>
<pdfrwt beam="1">  1        2 0.67035101E-01 0.64008550E+03</pdfrwt>
<pdfrwt beam="2">  1       -2 0.31182982E-01 0.64008550E+03</pdfrwt>
<totfact> 0.69159757E+02</totfact>
</mgrwt>
</event>
<event>
 4    1  0.4915183E-005  0.6176889E+03  0.7818608E-02  0.9869372E-01
         -2   -1    0    0    0  501 -0.00000000000E+00  0.00000000000E+00  0.32151768633E+03  0.32151768634E+03  0.25500000000E-02 0. -1.
          2   -1    0    0  501    0  0.00000000000E+00 -0.00000000000E+00 -0.29667077258E+03  0.29667077259E+03  0.25500000000E-02 0.  1.
    5000001    1    1    2    0    0 -0.15292555387E+02 -0.22086771966E+03  0.94754733077E+02  0.31240337911E+03  0.19900000000E+03 0.  0.
   -5000001    1    1    2    0    0  0.15292555387E+02  0.22086771966E+03 -0.69907819331E+02  0.30578507982E+03  0.19900000000E+03 0.  0.
<mgrwt>
<rscale>  0 0.61768892E+03</rscale>
<asrwt>0</asrwt>
<pdfrwt beam="1">  1        2 0.42381539E-01 0.61768892E+03</pdfrwt>
<pdfrwt beam="2">  1       -2 0.45931098E-01 0.61768892E+03</pdfrwt>
<totfact> 0.54670045E+02</totfact>
</mgrwt>
</event>
<event>
 4    1  0.4915183E-005  0.5288951E+03  0.7818608E-02  0.1006500E+00
          2   -1    0    0  501    0  0.00000000000E+00  0.00000000000E+00  0.10015353037E+04  0.10015353037E+04  0.25500000000E-02 0.  1.
         -2   -1    0    0    0  501 -0.00000000000E+00 -0.00000000000E+00 -0.69825298039E+02  0.69825298085E+02  0.25500000000E-02 0. -1.
    5000001    1    1    2    0    0 -0.14787509330E+03 -0.82242383010E+02  0.38231905531E+03  0.46303316602E+03  0.19900000000E+03 0.  0.
   -5000001    1    1    2    0    0  0.14787509330E+03  0.82242383010E+02  0.54939095038E+03  0.60832743580E+03  0.19900000000E+03 0.  0.
<mgrwt>
<rscale>  0 0.52889508E+03</rscale>
<asrwt>0</asrwt>
<pdfrwt beam="1">  1        2 0.14307647E+00 0.52889508E+03</pdfrwt>
<pdfrwt beam="2">  1       -2 0.99750430E-02 0.52889508E+03</pdfrwt>
<totfact> 0.19375465E+03</totfact>
</mgrwt>
</event>
<event>
 4    1  0.4915183E-005  0.1024624E+04  0.7818608E-02  0.9281942E-01
          2   -1    0    0  501    0  0.00000000000E+00  0.00000000000E+00  0.92457664332E+03  0.92457664332E+03  0.25500000000E-02 0.  1.
         -2   -1    0    0    0  501 -0.00000000000E+00 -0.00000000000E+00 -0.28387451398E+03  0.28387451399E+03  0.25500000000E-02 0. -1.
    5000001    1    1    2    0    0  0.36432740174E+03 -0.30014160292E+03  0.31258953113E+03  0.60011053351E+03  0.19900000000E+03 0.  0.
   -5000001    1    1    2    0    0 -0.36432740174E+03  0.30014160292E+03  0.32811259821E+03  0.60834062380E+03  0.19900000000E+03 0.  0.
<mgrwt>
<rscale>  0 0.10246243E+04</rscale>
<asrwt>0</asrwt>
<pdfrwt beam="1">  1        2 0.13208238E+00 0.10246243E+04</pdfrwt>
<pdfrwt beam="2">  1       -2 0.40553502E-01 0.10246243E+04</pdfrwt>
<totfact> 0.17966001E+02</totfact>
</mgrwt>
</event>
<event>
 4    1  0.4915183E-005  0.8351405E+03  0.7818608E-02  0.9510501E-01
         -2   -1    0    0    0  501 -0.00000000000E+00  0.00000000000E+00  0.41633274107E+03  0.41633274108E+03  0.25500000000E-02 0. -1.
          2   -1    0    0  501    0  0.00000000000E+00 -0.00000000000E+00 -0.41881148001E+03  0.41881148002E+03  0.25500000000E-02 0.  1.
    5000001    1    1    2    0    0 -0.81407270175E+02 -0.27318446878E+03 -0.23255626296E+03  0.41825866765E+03  0.19900000000E+03 0.  0.
   -5000001    1    1    2    0    0  0.81407270175E+02  0.27318446878E+03  0.23007752402E+03  0.41688555345E+03  0.19900000000E+03 0.  0.
<mgrwt>
<rscale>  0 0.83514054E+03</rscale>
<asrwt>0</asrwt>
<pdfrwt beam="1">  1        2 0.59830211E-01 0.83514054E+03</pdfrwt>
<pdfrwt beam="2">  1       -2 0.59476106E-01 0.83514054E+03</pdfrwt>
<totfact> 0.21797076E+02</totfact>
</mgrwt>
</event>
<event>
 4    1  0.4915183E-005  0.1706939E+04  0.7818608E-02  0.8757417E-01
         -2   -1    0    0    0  501 -0.00000000000E+00  0.00000000000E+00  0.22532760061E+03  0.22532760062E+03  0.25500000000E-02 0. -1.
          2   -1    0    0  501    0  0.00000000000E+00 -0.00000000000E+00 -0.32326724343E+04  0.32326724343E+04  0.25500000000E-02 0.  1.
    5000001    1    1    2    0    0 -0.75203861900E+03 -0.14403807953E+03 -0.21522612351E+04  0.22930631210E+04  0.19900000000E+03 0.  0.
   -5000001    1    1    2    0    0  0.75203861900E+03  0.14403807953E+03 -0.85508359862E+03  0.11649369139E+04  0.19900000000E+03 0.  0.
<mgrwt>
<rscale>  0 0.17069392E+04</rscale>
<asrwt>0</asrwt>
<pdfrwt beam="1">  1        2 0.46181032E+00 0.17069392E+04</pdfrwt>
<pdfrwt beam="2">  1       -2 0.32189659E-01 0.17069392E+04</pdfrwt>
<totfact> 0.14935549E+01</totfact>
</mgrwt>
</event>
<event>
 4    1  0.4915183E-005  0.4398887E+03  0.7818608E-02  0.1030781E+00
          2   -1    0    0  501    0  0.00000000000E+00  0.00000000000E+00  0.14649010083E+04  0.14649010083E+04  0.25500000000E-02 0.  1.
         -2   -1    0    0    0  501 -0.00000000000E+00 -0.00000000000E+00 -0.33023065704E+02  0.33023065803E+02  0.25500000000E-02 0. -1.
    5000001    1    1    2    0    0  0.25391022125E+02 -0.30815945262E+02  0.42739293282E+03  0.47313850563E+03  0.19900000000E+03 0.  0.
   -5000001    1    1    2    0    0 -0.25391022125E+02  0.30815945262E+02  0.10044850098E+04  0.10247855685E+04  0.19900000000E+03 0.  0.
<mgrwt>
<rscale>  0 0.43988872E+03</rscale>
<asrwt>0</asrwt>
<pdfrwt beam="1">  1        2 0.20927156E+00 0.43988872E+03</pdfrwt>
<pdfrwt beam="2">  1       -2 0.47175811E-02 0.43988872E+03</pdfrwt>
<totfact> 0.34839278E+03</totfact>
</mgrwt>
</event>
<event>
 4    1  0.4915183E-005  0.4190571E+03  0.7818608E-02  0.1037374E+00
         -2   -1    0    0    0  501 -0.00000000000E+00  0.00000000000E+00  0.24903318301E+02  0.24903318432E+02  0.25500000000E-02 0. -1.
          2   -1    0    0  501    0  0.00000000000E+00 -0.00000000000E+00 -0.17629064810E+04  0.17629064810E+04  0.25500000000E-02 0.  1.
    5000001    1    1    2    0    0  0.63236614822E+02  0.17274090463E+02 -0.87748887436E+03  0.90215574502E+03  0.19900000000E+03 0.  0.
   -5000001    1    1    2    0    0 -0.63236614822E+02 -0.17274090463E+02 -0.86051428833E+03  0.88565405440E+03  0.19900000000E+03 0.  0.
<mgrwt>
<rscale>  0 0.41905714E+03</rscale>
<asrwt>0</asrwt>
<pdfrwt beam="1">  1        2 0.25184370E+00 0.41905714E+03</pdfrwt>
<pdfrwt beam="2">  1       -2 0.35576180E-02 0.41905714E+03</pdfrwt>
<totfact> 0.37834174E+03</totfact>
</mgrwt>
</event>
<event>
 4    1  0.4915183E-005  0.4728914E+03  0.7818608E-02  0.1021107E+00
          2   -1    0    0  501    0  0.00000000000E+00  0.00000000000E+00  0.25968171983E+02  0.25968172108E+02  0.25500000000E-02 0.  1.
         -2   -1    0    0    0  501 -0.00000000000E+00 -0.00000000000E+00 -0.21528885516E+04  0.21528885516E+04  0.25500000000E-02 0. -1.
    5000001    1    1    2    0    0 -0.96601404147E+02  0.42954663494E+02 -0.73349466168E+03  0.76732806094E+03  0.19900000000E+03 0.  0.
   -5000001    1    1    2    0    0  0.96601404147E+02 -0.42954663494E+02 -0.13934257179E+04  0.14115286627E+04  0.19900000000E+03 0.  0.
<mgrwt>
<rscale>  0 0.47289145E+03</rscale>
<asrwt>0</asrwt>
<pdfrwt beam="1">  1        2 0.37097402E-02 0.47289145E+03</pdfrwt>
<pdfrwt beam="2">  1       -2 0.30755539E+00 0.47289145E+03</pdfrwt>
<totfact> 0.75956509E+01</totfact>
</mgrwt>
</event>
<event>
 4    1  0.4915183E-005  0.8363969E+03  0.7818608E-02  0.9508779E-01
         -2   -1    0    0    0  501 -0.00000000000E+00  0.00000000000E+00  0.13137993432E+03  0.13137993435E+03  0.25500000000E-02 0.  1.
          2   -1    0    0  501    0  0.00000000000E+00 -0.00000000000E+00 -0.13311769120E+04  0.13311769120E+04  0.25500000000E-02 0. -1.
    5000001    1    1    2    0    0 -0.16196596644E+03 -0.32153322506E+03 -0.46819972000E+03  0.62324037651E+03  0.19900000000E+03 0.  0.
   -5000001    1    1    2    0    0  0.16196596644E+03  0.32153322506E+03 -0.73159725768E+03  0.83931646984E+03  0.19900000000E+03 0.  0.
<mgrwt>
<rscale>  0 0.83639688E+03</rscale>
<asrwt>0</asrwt>
<pdfrwt beam="1">  1        2 0.19016812E+00 0.83639688E+03</pdfrwt>
<pdfrwt beam="2">  1       -2 0.18768563E-01 0.83639688E+03</pdfrwt>
<totfact> 0.43179357E+02</totfact>
</mgrwt>
</event>
<event>
 4    1  0.4915183E-005  0.7805770E+03  0.7818608E-02  0.9588564E-01
          2   -1    0    0  501    0  0.00000000000E+00  0.00000000000E+00  0.61499691830E+03  0.61499691830E+03  0.25500000000E-02 0.  1.
         -2   -1    0    0    0  501 -0.00000000000E+00 -0.00000000000E+00 -0.24768437064E+03  0.24768437066E+03  0.25500000000E-02 0. -1.
    5000001    1    1    2    0    0 -0.23216252220E+03  0.13618524689E+03  0.40546059215E+03  0.52578051502E+03  0.19900000000E+03 0.  0.
   -5000001    1    1    2    0    0  0.23216252220E+03 -0.13618524689E+03 -0.38148044500E+02  0.33690077394E+03  0.19900000000E+03 0.  0.
<mgrwt>
<rscale>  0 0.78057703E+03</rscale>
<asrwt>0</asrwt>
<pdfrwt beam="1">  1        2 0.87856701E-01 0.78057703E+03</pdfrwt>
<pdfrwt beam="2">  1       -2 0.35383482E-01 0.78057703E+03</pdfrwt>
<totfact> 0.39697432E+02</totfact>
</mgrwt>
</event>
<event>
 4    1  0.4915183E-005  0.7189896E+03  0.7818608E-02  0.9685297E-01
         -2   -1    0    0    0  501 -0.00000000000E+00  0.00000000000E+00  0.92623493104E+02  0.92623493139E+02  0.25500000000E-02 0. -1.
          2   -1    0    0  501    0  0.00000000000E+00 -0.00000000000E+00 -0.13952886305E+04  0.13952886305E+04  0.25500000000E-02 0.  1.
    5000001    1    1    2    0    0  0.20109738215E+03  0.19351514013E+03 -0.87562912601E+03  0.94032740728E+03  0.19900000000E+03 0.  0.
   -5000001    1    1    2    0    0 -0.20109738215E+03 -0.19351514013E+03 -0.42703601137E+03  0.54758471634E+03  0.19900000000E+03 0.  0.
<mgrwt>
<rscale>  0 0.71898959E+03</rscale>
<asrwt>0</asrwt>
<pdfrwt beam="1">  1        2 0.19932694E+00 0.71898959E+03</pdfrwt>
<pdfrwt beam="2">  1       -2 0.13231928E-01 0.71898959E+03</pdfrwt>
<totfact> 0.72656053E+02</totfact>
</mgrwt>
</event>
<event>
 4    1  0.4915183E-005  0.5539905E+03  0.7818608E-02  0.1000574E+00
          2   -1    0    0  501    0  0.00000000000E+00  0.00000000000E+00  0.37978582838E+03  0.37978582838E+03  0.25500000000E-02 0.  1.
         -2   -1    0    0    0  501 -0.00000000000E+00 -0.00000000000E+00 -0.20202533362E+03  0.20202533363E+03  0.25500000000E-02 0. -1.
    5000001    1    1    2    0    0  0.17328786087E+03 -0.15992998618E+02  0.17574355827E+03  0.31744488814E+03  0.19900000000E+03 0.  0.
   -5000001    1    1    2    0    0 -0.17328786087E+03  0.15992998618E+02  0.20169364854E+01  0.26436627388E+03  0.19900000000E+03 0.  0.
<mgrwt>
<rscale>  0 0.55399046E+03</rscale>
<asrwt>0</asrwt>
<pdfrwt beam="1">  1        2 0.54255118E-01 0.55399046E+03</pdfrwt>
<pdfrwt beam="2">  1       -2 0.28860762E-01 0.55399046E+03</pdfrwt>
<totfact> 0.10114678E+03</totfact>
</mgrwt>
</event>
<event>
 4    1  0.4915183E-005  0.4186180E+03  0.7818608E-02  0.1037517E+00
          2   -1    0    0  501    0  0.00000000000E+00  0.00000000000E+00  0.53903002147E+03  0.53903002147E+03  0.25500000000E-02 0.  1.
         -2   -1    0    0    0  501 -0.00000000000E+00 -0.00000000000E+00 -0.81276088368E+02  0.81276088408E+02  0.25500000000E-02 0. -1.
    5000001    1    1    2    0    0  0.18970539436E+02  0.43243236608E+02  0.16295135281E+03  0.26150335038E+03  0.19900000000E+03 0.  0.
   -5000001    1    1    2    0    0 -0.18970539436E+02 -0.43243236608E+02  0.29480258029E+03  0.35880275950E+03  0.19900000000E+03 0.  0.
<mgrwt>
<rscale>  0 0.41861797E+03</rscale>
<asrwt>0</asrwt>
<pdfrwt beam="1">  1        2 0.77004290E-01 0.41861797E+03</pdfrwt>
<pdfrwt beam="2">  1       -2 0.11610870E-01 0.41861797E+03</pdfrwt>
<totfact> 0.32669399E+03</totfact>
</mgrwt>
</event>
<event>
 4    1  0.4915183E-005  0.4823492E+03  0.7818608E-02  0.1018492E+00
         -2   -1    0    0    0  501 -0.00000000000E+00  0.00000000000E+00  0.12783154165E+03  0.12783154168E+03  0.25500000000E-02 0. -1.
          2   -1    0    0  501    0  0.00000000000E+00 -0.00000000000E+00 -0.45501438228E+03  0.45501438229E+03  0.25500000000E-02 0.  1.
    5000001    1    1    2    0    0 -0.40788842801E+02  0.38681903013E+02 -0.31356382433E+03  0.37561055796E+03  0.19900000000E+03 0.  0.
   -5000001    1    1    2    0    0  0.40788842801E+02 -0.38681903013E+02 -0.13619016293E+02  0.20723536600E+03  0.19900000000E+03 0.  0.
<mgrwt>
<rscale>  0 0.48234921E+03</rscale>
<asrwt>0</asrwt>
<pdfrwt beam="1">  1        2 0.65002054E-01 0.48234921E+03</pdfrwt>
<pdfrwt beam="2">  1       -2 0.18261649E-01 0.48234921E+03</pdfrwt>
<totfact> 0.18602034E+03</totfact>
</mgrwt>
</event>
<event>
 4    1  0.4915183E-005  0.5843866E+03  0.7818608E-02  0.9938339E-01
         -2   -1    0    0    0  501 -0.00000000000E+00  0.00000000000E+00  0.14730402172E+03  0.14730402174E+03  0.25500000000E-02 0. -1.
          2   -1    0    0  501    0  0.00000000000E+00 -0.00000000000E+00 -0.57959668060E+03  0.57959668060E+03  0.25500000000E-02 0.  1.
    5000001    1    1    2    0    0 -0.14798309471E+03  0.81690354749E+02 -0.37929542148E+03  0.46047619606E+03  0.19900000000E+03 0.  0.
   -5000001    1    1    2    0    0  0.14798309471E+03 -0.81690354749E+02 -0.52997237393E+02  0.26642450629E+03  0.19900000000E+03 0.  0.
<mgrwt>
<rscale>  0 0.58438659E+03</rscale>
<asrwt>0</asrwt>
<pdfrwt beam="1">  1        2 0.82799524E-01 0.58438659E+03</pdfrwt>
<pdfrwt beam="2">  1       -2 0.21043432E-01 0.58438659E+03</pdfrwt>
<totfact> 0.11044069E+03</totfact>
</mgrwt>
</event>
<event>
 4    1  0.4915183E-005  0.6125038E+03  0.7818608E-02  0.9879799E-01
         -2   -1    0    0    0  501 -0.00000000000E+00  0.00000000000E+00  0.34856567074E+02  0.34856567167E+02  0.25500000000E-02 0. -1.
          2   -1    0    0  501    0  0.00000000000E+00 -0.00000000000E+00 -0.26907480035E+04  0.26907480035E+04  0.25500000000E-02 0.  1.
    5000001    1    1    2    0    0 -0.21018083886E+03  0.13425524889E+02 -0.17692084445E+04  0.17927787788E+04  0.19900000000E+03 0.  0.
   -5000001    1    1    2    0    0  0.21018083886E+03 -0.13425524889E+02 -0.88668299197E+03  0.93282579187E+03  0.19900000000E+03 0.  0.
<mgrwt>
<rscale>  0 0.61250384E+03</rscale>
<asrwt>0</asrwt>
<pdfrwt beam="1">  1        2 0.38439244E+00 0.61250384E+03</pdfrwt>
<pdfrwt beam="2">  1       -2 0.49795113E-02 0.61250384E+03</pdfrwt>
<totfact> 0.76058909E+02</totfact>
</mgrwt>
</event>
<event>
 4    1  0.4915183E-005  0.7571418E+03  0.7818608E-02  0.9624212E-01
         -2   -1    0    0    0  501 -0.00000000000E+00  0.00000000000E+00  0.11853724260E+03  0.11853724263E+03  0.25500000000E-02 0. -1.
          2   -1    0    0  501    0  0.00000000000E+00 -0.00000000000E+00 -0.12090371796E+04  0.12090371796E+04  0.25500000000E-02 0.  1.
    5000001    1    1    2    0    0  0.51331286014E+02  0.20825670833E+03 -0.12403472557E+03  0.31779139484E+03  0.19900000000E+03 0.  0.
   -5000001    1    1    2    0    0 -0.51331286014E+02 -0.20825670833E+03 -0.96646521146E+03  0.10097830274E+04  0.19900000000E+03 0.  0.
<mgrwt>
<rscale>  0 0.75714182E+03</rscale>
<asrwt>0</asrwt>
<pdfrwt beam="1">  1        2 0.17271959E+00 0.75714182E+03</pdfrwt>
<pdfrwt beam="2">  1       -2 0.16933893E-01 0.75714182E+03</pdfrwt>
<totfact> 0.60473892E+02</totfact>
</mgrwt>
</event>
<event>
 4    1  0.4915183E-005  0.4458921E+03  0.7818608E-02  0.1028954E+00
         -2   -1    0    0    0  501 -0.00000000000E+00  0.00000000000E+00  0.28776566704E+02  0.28776566817E+02  0.25500000000E-02 0. -1.
          2   -1    0    0  501    0  0.00000000000E+00 -0.00000000000E+00 -0.17272715660E+04  0.17272715660E+04  0.25500000000E-02 0.  1.
    5000001    1    1    2    0    0  0.91827111225E+01  0.97865258137E+02 -0.76644853092E+03  0.79793877051E+03  0.19900000000E+03 0.  0.
   -5000001    1    1    2    0    0 -0.91827111225E+01 -0.97865258137E+02 -0.93204646842E+03  0.95810936235E+03  0.19900000000E+03 0.  0.
<mgrwt>
<rscale>  0 0.44589212E+03</rscale>
<asrwt>0</asrwt>
<pdfrwt beam="1">  1        2 0.24675302E+00 0.44589212E+03</pdfrwt>
<pdfrwt beam="2">  1       -2 0.41109392E-02 0.44589212E+03</pdfrwt>
<totfact> 0.31627284E+03</totfact>
</mgrwt>
</event>
<event>
 4    1  0.4915183E-005  0.6102334E+03  0.7818608E-02  0.9884400E-01
         -2   -1    0    0    0  501 -0.00000000000E+00  0.00000000000E+00  0.33236224830E+02  0.33236224928E+02  0.25500000000E-02 0. -1.
          2   -1    0    0  501    0  0.00000000000E+00 -0.00000000000E+00 -0.28010457504E+04  0.28010457504E+04  0.25500000000E-02 0.  1.
    5000001    1    1    2    0    0 -0.31078981264E+02 -0.20782045214E+03 -0.18327733648E+04  0.18554822689E+04  0.19900000000E+03 0.  0.
   -5000001    1    1    2    0    0  0.31078981264E+02  0.20782045214E+03 -0.93503616082E+03  0.97879970650E+03  0.19900000000E+03 0.  0.
<mgrwt>
<rscale>  0 0.61023335E+03</rscale>
<asrwt>0</asrwt>
<pdfrwt beam="1">  1        2 0.40014924E+00 0.61023335E+03</pdfrwt>
<pdfrwt beam="2">  1       -2 0.47480339E-02 0.61023335E+03</pdfrwt>
<totfact> 0.71649715E+02</totfact>
</mgrwt>
</event>
<event>
 4    1  0.4915183E-005  0.7341590E+03  0.7818608E-02  0.9660535E-01
         -2   -1    0    0    0  501 -0.00000000000E+00  0.00000000000E+00  0.19254297861E+03  0.19254297862E+03  0.25500000000E-02 0. -1.
          2   -1    0    0  501    0  0.00000000000E+00 -0.00000000000E+00 -0.69982994673E+03  0.69982994674E+03  0.25500000000E-02 0.  1.
    5000001    1    1    2    0    0  0.75984371233E+02 -0.22646435206E+03 -0.49085866205E+03  0.58103610347E+03  0.19900000000E+03 0.  0.
   -5000001    1    1    2    0    0 -0.75984371233E+02  0.22646435206E+03 -0.16428306072E+02  0.31133682189E+03  0.19900000000E+03 0.  0.
<mgrwt>
<rscale>  0 0.73415895E+03</rscale>
<asrwt>0</asrwt>
<pdfrwt beam="1">  1        2 0.99975706E-01 0.73415895E+03</pdfrwt>
<pdfrwt beam="2">  1       -2 0.27506140E-01 0.73415895E+03</pdfrwt>
<totfact> 0.54403236E+02</totfact>
</mgrwt>
</event>
<event>
 4    1  0.4915183E-005  0.6606720E+03  0.7818608E-02  0.9786958E-01
         -2   -1    0    0    0  501 -0.00000000000E+00  0.00000000000E+00  0.66052627500E+02  0.66052627549E+02  0.25500000000E-02 0. -1.
          2   -1    0    0  501    0  0.00000000000E+00 -0.00000000000E+00 -0.16520442289E+04  0.16520442289E+04  0.25500000000E-02 0.  1.
    5000001    1    1    2    0    0 -0.24372381488E+03 -0.91817311508E+02 -0.89987551642E+03  0.95771011360E+03  0.19900000000E+03 0.  0.
   -5000001    1    1    2    0    0  0.24372381488E+03  0.91817311508E+02 -0.68611608493E+03  0.76038674281E+03  0.19900000000E+03 0.  0.
<mgrwt>
<rscale>  0 0.66067197E+03</rscale>
<asrwt>0</asrwt>
<pdfrwt beam="1">  1        2 0.23600629E+00 0.66067197E+03</pdfrwt>
<pdfrwt beam="2">  1       -2 0.94360907E-02 0.66067197E+03</pdfrwt>
<totfact> 0.93156322E+02</totfact>
</mgrwt>
</event>
<event>
 4    1  0.4915183E-005  0.6213163E+03  0.7818608E-02  0.9862143E-01
         -2   -1    0    0    0  501 -0.00000000000E+00  0.00000000000E+00  0.73092143352E+02  0.73092143396E+02  0.25500000000E-02 0. -1.
          2   -1    0    0  501    0  0.00000000000E+00 -0.00000000000E+00 -0.13203672393E+04  0.13203672393E+04  0.25500000000E-02 0.  1.
    5000001    1    1    2    0    0 -0.16055863867E+03  0.14618737267E+03 -0.40209652579E+03  0.49842997545E+03  0.19900000000E+03 0.  0.
   -5000001    1    1    2    0    0  0.16055863867E+03 -0.14618737267E+03 -0.84517857019E+03  0.89502940728E+03  0.19900000000E+03 0.  0.
<mgrwt>
<rscale>  0 0.62131625E+03</rscale>
<asrwt>0</asrwt>
<pdfrwt beam="1">  1        2 0.18862388E+00 0.62131625E+03</pdfrwt>
<pdfrwt beam="2">  1       -2 0.10441736E-01 0.62131625E+03</pdfrwt>
<totfact> 0.11820405E+03</totfact>
</mgrwt>
</event>
<event>
 4    1  0.4915183E-005  0.6118957E+03  0.7818608E-02  0.9881029E-01
         -2   -1    0    0    0  501 -0.00000000000E+00  0.00000000000E+00  0.72369907428E+02  0.72369907473E+02  0.25500000000E-02 0. -1.
          2   -1    0    0  501    0  0.00000000000E+00 -0.00000000000E+00 -0.12934119341E+04  0.12934119341E+04  0.25500000000E-02 0.  1.
    5000001    1    1    2    0    0 -0.18788828134E+03 -0.13524812962E+03 -0.65566358852E+03  0.72324947573E+03  0.19900000000E+03 0.  0.
   -5000001    1    1    2    0    0  0.18788828134E+03  0.13524812962E+03 -0.56537843812E+03  0.64253236581E+03  0.19900000000E+03 0.  0.
<mgrwt>
<rscale>  0 0.61189575E+03</rscale>
<asrwt>0</asrwt>
<pdfrwt beam="1">  1        2 0.18477312E+00 0.61189575E+03</pdfrwt>
<pdfrwt beam="2">  1       -2 0.10338559E-01 0.61189575E+03</pdfrwt>
<totfact> 0.12428759E+03</totfact>
</mgrwt>
</event>
<event>
 4    1  0.4915183E-005  0.8450667E+03  0.7818608E-02  0.9496982E-01
          2   -1    0    0  501    0  0.00000000000E+00  0.00000000000E+00  0.57042918535E+03  0.57042918536E+03  0.25500000000E-02 0.  1.
         -2   -1    0    0    0  501 -0.00000000000E+00 -0.00000000000E+00 -0.31298260935E+03  0.31298260936E+03  0.25500000000E-02 0. -1.
    5000001    1    1    2    0    0 -0.36113894778E+03  0.10581372377E+02  0.22453414126E+03  0.46962739021E+03  0.19900000000E+03 0.  0.
   -5000001    1    1    2    0    0  0.36113894778E+03 -0.10581372377E+02  0.32912434741E+02  0.41378440450E+03  0.19900000000E+03 0.  0.
<mgrwt>
<rscale>  0 0.84506666E+03</rscale>
<asrwt>0</asrwt>
<pdfrwt beam="1">  1        2 0.81489882E-01 0.84506666E+03</pdfrwt>
<pdfrwt beam="2">  1       -2 0.44711802E-01 0.84506666E+03</pdfrwt>
<totfact> 0.27441067E+02</totfact>
</mgrwt>
</event>
<event>
 4    1  0.4915183E-005  0.8467529E+03  0.7818608E-02  0.9494705E-01
         -2   -1    0    0    0  501 -0.00000000000E+00  0.00000000000E+00  0.52826565639E+03  0.52826565640E+03  0.25500000000E-02 0. -1.
          2   -1    0    0  501    0  0.00000000000E+00 -0.00000000000E+00 -0.33931343563E+03  0.33931343564E+03  0.25500000000E-02 0.  1.
    5000001    1    1    2    0    0 -0.33823872695E+03  0.65455797671E+02  0.24280105531E+03  0.46609360682E+03  0.19900000000E+03 0.  0.
   -5000001    1    1    2    0    0  0.33823872695E+03 -0.65455797671E+02 -0.53848834549E+02  0.40148548522E+03  0.19900000000E+03 0.  0.
<mgrwt>
<rscale>  0 0.84675294E+03</rscale>
<asrwt>0</asrwt>
<pdfrwt beam="1">  1        2 0.48473348E-01 0.84675294E+03</pdfrwt>
<pdfrwt beam="2">  1       -2 0.75466522E-01 0.84675294E+03</pdfrwt>
<totfact> 0.16470185E+02</totfact>
</mgrwt>
</event>
<event>
 4    1  0.4915183E-005  0.4606999E+03  0.7818608E-02  0.1024578E+00
         -2   -1    0    0    0  501 -0.00000000000E+00  0.00000000000E+00  0.26718069925E+02  0.26718070047E+02  0.25500000000E-02 0. -1.
          2   -1    0    0  501    0  0.00000000000E+00 -0.00000000000E+00 -0.19859628870E+04  0.19859628870E+04  0.25500000000E-02 0.  1.
    5000001    1    1    2    0    0  0.25149504786E+02 -0.79315835515E+02 -0.62641267761E+03  0.66250837129E+03  0.19900000000E+03 0.  0.
   -5000001    1    1    2    0    0 -0.25149504786E+02  0.79315835515E+02 -0.13328321395E+04  0.13501725858E+04  0.19900000000E+03 0.  0.
<mgrwt>
<rscale>  0 0.46069988E+03</rscale>
<asrwt>0</asrwt>
<pdfrwt beam="1">  1        2 0.28370889E+00 0.46069988E+03</pdfrwt>
<pdfrwt beam="2">  1       -2 0.38168684E-02 0.46069988E+03</pdfrwt>
<totfact> 0.26302414E+03</totfact>
</mgrwt>
</event>
<event>
 4    1  0.4915183E-005  0.5688395E+03  0.7818608E-02  0.9972250E-01
          2   -1    0    0  501    0  0.00000000000E+00  0.00000000000E+00  0.10821995640E+03  0.10821995643E+03  0.25500000000E-02 0.  1.
         -2   -1    0    0    0  501 -0.00000000000E+00 -0.00000000000E+00 -0.74750153625E+03  0.74750153625E+03  0.25500000000E-02 0. -1.
    5000001    1    1    2    0    0  0.37562552253E+02 -0.12797204389E+03 -0.55027843135E+03  0.60016259576E+03  0.19900000000E+03 0.  0.
   -5000001    1    1    2    0    0 -0.37562552253E+02  0.12797204389E+03 -0.89003148507E+02  0.25555889692E+03  0.19900000000E+03 0.  0.
<mgrwt>
<rscale>  0 0.56883946E+03</rscale>
<asrwt>0</asrwt>
<pdfrwt beam="1">  1        2 0.15459994E-01 0.56883946E+03</pdfrwt>
<pdfrwt beam="2">  1       -2 0.10678593E+00 0.56883946E+03</pdfrwt>
<totfact> 0.27616875E+02</totfact>
</mgrwt>
</event>
<event>
 4    1  0.4915183E-005  0.5046294E+03  0.7818608E-02  0.1012578E+00
         -2   -1    0    0    0  501 -0.00000000000E+00  0.00000000000E+00  0.11698294021E+03  0.11698294024E+03  0.25500000000E-02 0. -1.
          2   -1    0    0  501    0  0.00000000000E+00 -0.00000000000E+00 -0.54420514296E+03  0.54420514297E+03  0.25500000000E-02 0.  1.
    5000001    1    1    2    0    0 -0.14638890984E+03  0.50593924789E+02 -0.20247328401E+03  0.32339741633E+03  0.19900000000E+03 0.  0.
   -5000001    1    1    2    0    0  0.14638890984E+03 -0.50593924789E+02 -0.22474891874E+03  0.33779066687E+03  0.19900000000E+03 0.  0.
<mgrwt>
<rscale>  0 0.50462944E+03</rscale>
<asrwt>0</asrwt>
<pdfrwt beam="1">  1        2 0.77743591E-01 0.50462944E+03</pdfrwt>
<pdfrwt beam="2">  1       -2 0.16711849E-01 0.50462944E+03</pdfrwt>
<totfact> 0.17678083E+03</totfact>
</mgrwt>
</event>
<event>
 4    1  0.4915183E-005  0.5181828E+03  0.7818608E-02  0.1009139E+00
          2   -1    0    0  501    0  0.00000000000E+00  0.00000000000E+00  0.63761381880E+03  0.63761381880E+03  0.25500000000E-02 0. -1.
         -2   -1    0    0    0  501 -0.00000000000E+00 -0.00000000000E+00 -0.10528057099E+03  0.10528057102E+03  0.25500000000E-02 0.  1.
    5000001    1    1    2    0    0 -0.10193532680E+02 -0.13884920283E+03  0.13678518015E+03  0.27873678398E+03  0.19900000000E+03 0.  0.
   -5000001    1    1    2    0    0  0.10193532680E+02  0.13884920283E+03  0.39554806766E+03  0.46415760585E+03  0.19900000000E+03 0.  0.
<mgrwt>
<rscale>  0 0.51818277E+03</rscale>
<asrwt>0</asrwt>
<pdfrwt beam="1">  1        2 0.91087689E-01 0.51818277E+03</pdfrwt>
<pdfrwt beam="2">  1       -2 0.15040081E-01 0.51818277E+03</pdfrwt>
<totfact> 0.17558181E+03</totfact>
</mgrwt>
</event>
<event>
 4    1  0.4915183E-005  0.5838361E+03  0.7818608E-02  0.9939520E-01
          2   -1    0    0  501    0  0.00000000000E+00  0.00000000000E+00  0.17934997472E+04  0.17934997472E+04  0.25500000000E-02 0.  1.
         -2   -1    0    0    0  501 -0.00000000000E+00 -0.00000000000E+00 -0.47513885884E+02  0.47513885952E+02  0.25500000000E-02 0. -1.
    5000001    1    1    2    0    0 -0.15952608434E+03  0.14095197769E+03  0.92752878383E+03  0.97222768755E+03  0.19900000000E+03 0.  0.
   -5000001    1    1    2    0    0  0.15952608434E+03 -0.14095197769E+03  0.81845707749E+03  0.86878594561E+03  0.19900000000E+03 0.  0.
<mgrwt>
<rscale>  0 0.58383608E+03</rscale>
<asrwt>0</asrwt>
<pdfrwt beam="1">  1        2 0.25621419E+00 0.58383608E+03</pdfrwt>
<pdfrwt beam="2">  1       -2 0.67876996E-02 0.58383608E+03</pdfrwt>
<totfact> 0.13400094E+03</totfact>
</mgrwt>
</event>
<event>
 4    1  0.4915183E-005  0.6280164E+03  0.7818608E-02  0.9848927E-01
          2   -1    0    0  501    0  0.00000000000E+00  0.00000000000E+00  0.14887640895E+04  0.14887640895E+04  0.25500000000E-02 0.  1.
         -2   -1    0    0    0  501 -0.00000000000E+00 -0.00000000000E+00 -0.66230199655E+02  0.66230199704E+02  0.25500000000E-02 0. -1.
    5000001    1    1    2    0    0  0.21793264014E+03 -0.96739940764E+02  0.82599320625E+03  0.88245058137E+03  0.19900000000E+03 0.  0.
   -5000001    1    1    2    0    0 -0.21793264014E+03  0.96739940764E+02  0.59654068359E+03  0.67254370784E+03  0.19900000000E+03 0.  0.
<mgrwt>
<rscale>  0 0.62801638E+03</rscale>
<asrwt>0</asrwt>
<pdfrwt beam="1">  1        2 0.21268061E+00 0.62801638E+03</pdfrwt>
<pdfrwt beam="2">  1       -2 0.94614561E-02 0.62801638E+03</pdfrwt>
<totfact> 0.11282882E+03</totfact>
</mgrwt>
</event>
<event>
 4    1  0.4915183E-005  0.5021788E+03  0.7818608E-02  0.1013212E+00
         -2   -1    0    0    0  501 -0.00000000000E+00  0.00000000000E+00  0.69733448506E+02  0.69733448553E+02  0.25500000000E-02 0. -1.
          2   -1    0    0  501    0  0.00000000000E+00 -0.00000000000E+00 -0.90409832468E+03  0.90409832468E+03  0.25500000000E-02 0.  1.
    5000001    1    1    2    0    0 -0.11945012763E+03  0.85142032164E+02 -0.33204688819E+03  0.41397298775E+03  0.19900000000E+03 0.  0.
   -5000001    1    1    2    0    0  0.11945012763E+03 -0.85142032164E+02 -0.50231798798E+03  0.55985878548E+03  0.19900000000E+03 0.  0.
<mgrwt>
<rscale>  0 0.50217883E+03</rscale>
<asrwt>0</asrwt>
<pdfrwt beam="1">  1        2 0.12915690E+00 0.50217883E+03</pdfrwt>
<pdfrwt beam="2">  1       -2 0.99619217E-02 0.50217883E+03</pdfrwt>
<totfact> 0.22327800E+03</totfact>
</mgrwt>
</event>
<event>
 4    1  0.4915183E-005  0.5434979E+03  0.7818608E-02  0.1003010E+00
         -2   -1    0    0    0  501 -0.00000000000E+00  0.00000000000E+00  0.27931397949E+02  0.27931398065E+02  0.25500000000E-02 0. -1.
          2   -1    0    0  501    0  0.00000000000E+00 -0.00000000000E+00 -0.26438883238E+04  0.26438883238E+04  0.25500000000E-02 0.  1.
    5000001    1    1    2    0    0  0.17686393752E+03 -0.53851981529E+02 -0.13477974454E+04  0.13748963023E+04  0.19900000000E+03 0.  0.
   -5000001    1    1    2    0    0 -0.17686393752E+03  0.53851981529E+02 -0.12681594805E+04  0.12969234196E+04  0.19900000000E+03 0.  0.
<mgrwt>
<rscale>  0 0.54349792E+03</rscale>
<asrwt>0</asrwt>
<pdfrwt beam="1">  1        2 0.37769817E+00 0.54349792E+03</pdfrwt>
<pdfrwt beam="2">  1       -2 0.39902014E-02 0.54349792E+03</pdfrwt>
<totfact> 0.11383966E+03</totfact>
</mgrwt>
</event>
<event>
 4    1  0.4915183E-005  0.4887898E+03  0.7818608E-02  0.1016747E+00
         -2   -1    0    0    0  501 -0.00000000000E+00  0.00000000000E+00  0.42426069261E+02  0.42426069338E+02  0.25500000000E-02 0. -1.
          2   -1    0    0  501    0  0.00000000000E+00 -0.00000000000E+00 -0.14078339274E+04  0.14078339274E+04  0.25500000000E-02 0.  1.
    5000001    1    1    2    0    0 -0.10433411064E+03  0.95688143327E+02 -0.71022432363E+03  0.75104022349E+03  0.19900000000E+03 0.  0.
   -5000001    1    1    2    0    0  0.10433411064E+03 -0.95688143327E+02 -0.65518353448E+03  0.69921977323E+03  0.19900000000E+03 0.  0.
<mgrwt>
<rscale>  0 0.48878977E+03</rscale>
<asrwt>0</asrwt>
<pdfrwt beam="1">  1        2 0.20111910E+00 0.48878977E+03</pdfrwt>
<pdfrwt beam="2">  1       -2 0.60608679E-02 0.48878977E+03</pdfrwt>
<totfact> 0.25312445E+03</totfact>
</mgrwt>
</event>
<event>
 4    1  0.4915183E-005  0.4654767E+03  0.7818608E-02  0.1023205E+00
          2   -1    0    0  501    0  0.00000000000E+00  0.00000000000E+00  0.21657148584E+04  0.21657148584E+04  0.25500000000E-02 0.  1.
         -2   -1    0    0    0  501 -0.00000000000E+00 -0.00000000000E+00 -0.25011207004E+02  0.25011207134E+02  0.25500000000E-02 0. -1.
    5000001    1    1    2    0    0 -0.91653733760E+02  0.67924745846E+02  0.12557609253E+04  0.12765385538E+04  0.19900000000E+03 0.  0.
   -5000001    1    1    2    0    0  0.91653733760E+02 -0.67924745846E+02  0.88494272610E+03  0.91418751166E+03  0.19900000000E+03 0.  0.
<mgrwt>
<rscale>  0 0.46547671E+03</rscale>
<asrwt>0</asrwt>
<pdfrwt beam="1">  1        2 0.30938777E+00 0.46547671E+03</pdfrwt>
<pdfrwt beam="2">  1       -2 0.35730303E-02 0.46547671E+03</pdfrwt>
<totfact> 0.23662876E+03</totfact>
</mgrwt>
</event>
<event>
 4    1  0.4915183E-005  0.5547865E+03  0.7818608E-02  0.1000392E+00
         -2   -1    0    0    0  501 -0.00000000000E+00  0.00000000000E+00  0.40537102005E+02  0.40537102086E+02  0.25500000000E-02 0. -1.
          2   -1    0    0  501    0  0.00000000000E+00 -0.00000000000E+00 -0.18981871840E+04  0.18981871840E+04  0.25500000000E-02 0.  1.
    5000001    1    1    2    0    0  0.36420740357E+02  0.90495178341E+02 -0.15117975007E+04  0.15279556704E+04  0.19900000000E+03 0.  0.
   -5000001    1    1    2    0    0 -0.36420740357E+02 -0.90495178341E+02 -0.34585258128E+03  0.41076861566E+03  0.19900000000E+03 0.  0.
<mgrwt>
<rscale>  0 0.55478647E+03</rscale>
<asrwt>0</asrwt>
<pdfrwt beam="1">  1        2 0.27116954E+00 0.55478647E+03</pdfrwt>
<pdfrwt beam="2">  1       -2 0.57910158E-02 0.55478647E+03</pdfrwt>
<totfact> 0.15246515E+03</totfact>
</mgrwt>
</event>
<event>
 4    1  0.4915183E-005  0.6075558E+03  0.7818608E-02  0.9889853E-01
         -2   -1    0    0    0  501 -0.00000000000E+00  0.00000000000E+00  0.78827624817E+02  0.78827624858E+02  0.25500000000E-02 0. -1.
          2   -1    0    0  501    0  0.00000000000E+00 -0.00000000000E+00 -0.11706685549E+04  0.11706685549E+04  0.25500000000E-02 0.  1.
    5000001    1    1    2    0    0 -0.12061105173E+03 -0.68852831290E+02 -0.92173346535E+03  0.95314286406E+03  0.19900000000E+03 0.  0.
   -5000001    1    1    2    0    0  0.12061105173E+03  0.68852831290E+02 -0.17010746478E+03  0.29635331574E+03  0.19900000000E+03 0.  0.
<mgrwt>
<rscale>  0 0.60755583E+03</rscale>
<asrwt>0</asrwt>
<pdfrwt beam="1">  1        2 0.16723835E+00 0.60755583E+03</pdfrwt>
<pdfrwt beam="2">  1       -2 0.11261090E-01 0.60755583E+03</pdfrwt>
<totfact> 0.12649485E+03</totfact>
</mgrwt>
</event>
<event>
 4    1  0.4915183E-005  0.6161892E+03  0.7818608E-02  0.9872376E-01
         -2   -1    0    0    0  501 -0.00000000000E+00  0.00000000000E+00  0.61925201287E+02  0.61925201339E+02  0.25500000000E-02 0. -1.
          2   -1    0    0  501    0  0.00000000000E+00 -0.00000000000E+00 -0.15328538028E+04  0.15328538028E+04  0.25500000000E-02 0.  1.
    5000001    1    1    2    0    0 -0.20500934581E+03  0.26854701908E+01 -0.10337765459E+04  0.10725348435E+04  0.19900000000E+03 0.  0.
   -5000001    1    1    2    0    0  0.20500934581E+03 -0.26854701908E+01 -0.43715205558E+03  0.52224416063E+03  0.19900000000E+03 0.  0.
<mgrwt>
<rscale>  0 0.61618919E+03</rscale>
<asrwt>0</asrwt>
<pdfrwt beam="1">  1        2 0.21897909E+00 0.61618919E+03</pdfrwt>
<pdfrwt beam="2">  1       -2 0.88464583E-02 0.61618919E+03</pdfrwt>
<totfact> 0.11930792E+03</totfact>
</mgrwt>
</event>
<event>
 4    1  0.4915183E-005  0.5445194E+03  0.7818608E-02  0.1002770E+00
         -2   -1    0    0    0  501 -0.00000000000E+00  0.00000000000E+00  0.63819953722E+02  0.63819953773E+02  0.25500000000E-02 0.  1.
          2   -1    0    0  501    0  0.00000000000E+00 -0.00000000000E+00 -0.11614761518E+04  0.11614761518E+04  0.25500000000E-02 0. -1.
    5000001    1    1    2    0    0  0.12926650974E+03  0.96146168981E+02 -0.75714723882E+03  0.79926644969E+03  0.19900000000E+03 0.  0.
   -5000001    1    1    2    0    0 -0.12926650974E+03 -0.96146168981E+02 -0.34050895922E+03  0.42602965585E+03  0.19900000000E+03 0.  0.
<mgrwt>
<rscale>  0 0.54451944E+03</rscale>
<asrwt>0</asrwt>
<pdfrwt beam="1">  1        2 0.16592515E+00 0.54451944E+03</pdfrwt>
<pdfrwt beam="2">  1       -2 0.91171369E-02 0.54451944E+03</pdfrwt>
<totfact> 0.18054086E+03</totfact>
</mgrwt>
</event>
<event>
 4    1  0.4915183E-005  0.1231144E+04  0.7818608E-02  0.9086025E-01
         -2   -1    0    0    0  501 -0.00000000000E+00  0.00000000000E+00  0.43149645424E+03  0.43149645425E+03  0.25500000000E-02 0. -1.
          2   -1    0    0  501    0  0.00000000000E+00 -0.00000000000E+00 -0.87817385406E+03  0.87817385406E+03  0.25500000000E-02 0.  1.
    5000001    1    1    2    0    0  0.51628109693E+03  0.14768014878E+03 -0.46350953239E+03  0.73674804649E+03  0.19900000000E+03 0.  0.
   -5000001    1    1    2    0    0 -0.51628109693E+03 -0.14768014878E+03  0.16832132571E+02  0.57292226181E+03  0.19900000000E+03 0.  0.
<mgrwt>
<rscale>  0 0.12311440E+04</rscale>
<asrwt>0</asrwt>
<pdfrwt beam="1">  1        2 0.12545341E+00 0.12311440E+04</pdfrwt>
<pdfrwt beam="2">  1       -2 0.61642351E-01 0.12311440E+04</pdfrwt>
<totfact> 0.81025080E+01</totfact>
</mgrwt>
</event>
<event>
 4    1  0.4915183E-005  0.6024810E+03  0.7818608E-02  0.9900272E-01
         -2   -1    0    0    0  501 -0.00000000000E+00  0.00000000000E+00  0.97255104304E+02  0.97255104337E+02  0.25500000000E-02 0. -1.
          2   -1    0    0  501    0  0.00000000000E+00 -0.00000000000E+00 -0.93307027511E+03  0.93307027512E+03  0.25500000000E-02 0.  1.
    5000001    1    1    2    0    0  0.20912779271E+03 -0.85926793193E+02 -0.42679363440E+03  0.52237118397E+03  0.19900000000E+03 0.  0.
   -5000001    1    1    2    0    0 -0.20912779271E+03  0.85926793193E+02 -0.40902153641E+03  0.50795419549E+03  0.19900000000E+03 0.  0.
<mgrwt>
<rscale>  0 0.60248103E+03</rscale>
<asrwt>0</asrwt>
<pdfrwt beam="1">  1        2 0.13329575E+00 0.60248103E+03</pdfrwt>
<pdfrwt beam="2">  1       -2 0.13893587E-01 0.60248103E+03</pdfrwt>
<totfact> 0.12385559E+03</totfact>
</mgrwt>
</event>
<event>
 4    1  0.4915183E-005  0.7355386E+03  0.7818608E-02  0.9658315E-01
          2   -1    0    0  501    0  0.00000000000E+00  0.00000000000E+00  0.31808947333E+04  0.31808947333E+04  0.25500000000E-02 0.  1.
         -2   -1    0    0    0  501 -0.00000000000E+00 -0.00000000000E+00 -0.42520819520E+02  0.42520819596E+02  0.25500000000E-02 0. -1.
    5000001    1    1    2    0    0 -0.26941542476E+02 -0.30484235589E+03  0.13732720349E+04  0.14209615725E+04  0.19900000000E+03 0.  0.
   -5000001    1    1    2    0    0  0.26941542476E+02  0.30484235589E+03  0.17651018788E+04  0.18024539804E+04  0.19900000000E+03 0.  0.
<mgrwt>
<rscale>  0 0.73553858E+03</rscale>
<asrwt>0</asrwt>
<pdfrwt beam="1">  1        2 0.45441338E+00 0.73553858E+03</pdfrwt>
<pdfrwt beam="2">  1       -2 0.60744049E-02 0.73553858E+03</pdfrwt>
<totfact> 0.29909991E+02</totfact>
</mgrwt>
</event>
<event>
 4    1  0.4915183E-005  0.7793651E+03  0.7818608E-02  0.9590375E-01
          2   -1    0    0  501    0  0.00000000000E+00  0.00000000000E+00  0.11198766050E+04  0.11198766050E+04  0.25500000000E-02 0.  1.
         -2   -1    0    0    0  501 -0.00000000000E+00 -0.00000000000E+00 -0.13559752177E+03  0.13559752180E+03  0.25500000000E-02 0. -1.
    5000001    1    1    2    0    0  0.20524913894E+03 -0.20484928243E+03  0.76246768899E+03  0.83967161099E+03  0.19900000000E+03 0.  0.
   -5000001    1    1    2    0    0 -0.20524913894E+03  0.20484928243E+03  0.22181139426E+03  0.41580251583E+03  0.19900000000E+03 0.  0.
<mgrwt>
<rscale>  0 0.77936511E+03</rscale>
<asrwt>0</asrwt>
<pdfrwt beam="1">  1        2 0.15998237E+00 0.77936511E+03</pdfrwt>
<pdfrwt beam="2">  1       -2 0.19371074E-01 0.77936511E+03</pdfrwt>
<totfact> 0.53865435E+02</totfact>
</mgrwt>
</event>
<event>
 4    1  0.4915183E-005  0.6787437E+03  0.7818608E-02  0.9754290E-01
         -2   -1    0    0    0  501 -0.00000000000E+00  0.00000000000E+00  0.37788854259E+03  0.37788854260E+03  0.25500000000E-02 0. -1.
          2   -1    0    0  501    0  0.00000000000E+00 -0.00000000000E+00 -0.30478105025E+03  0.30478105026E+03  0.25500000000E-02 0.  1.
    5000001    1    1    2    0    0  0.20989375794E+03 -0.16129681317E+03 -0.38038651438E+02  0.33334665225E+03  0.19900000000E+03 0.  0.
   -5000001    1    1    2    0    0 -0.20989375794E+03  0.16129681317E+03  0.11114614377E+03  0.34932294061E+03  0.19900000000E+03 0.  0.
<mgrwt>
<rscale>  0 0.67874374E+03</rscale>
<asrwt>0</asrwt>
<pdfrwt beam="1">  1        2 0.43540150E-01 0.67874374E+03</pdfrwt>
<pdfrwt beam="2">  1       -2 0.53984078E-01 0.67874374E+03</pdfrwt>
<totfact> 0.38193758E+02</totfact>
</mgrwt>
</event>
<event>
 4    1  0.4915183E-005  0.6972955E+03  0.7818608E-02  0.9721869E-01
         -2   -1    0    0    0  501 -0.00000000000E+00  0.00000000000E+00  0.15181386868E+03  0.15181386870E+03  0.25500000000E-02 0. -1.
          2   -1    0    0  501    0  0.00000000000E+00 -0.00000000000E+00 -0.80068601706E+03  0.80068601706E+03  0.25500000000E-02 0.  1.
    5000001    1    1    2    0    0  0.27559610549E+03 -0.76148029496E+02 -0.34387477111E+03  0.48949217968E+03  0.19900000000E+03 0.  0.
   -5000001    1    1    2    0    0 -0.27559610549E+03  0.76148029496E+02 -0.30499737726E+03  0.46300770609E+03  0.19900000000E+03 0.  0.
<mgrwt>
<rscale>  0 0.69729547E+03</rscale>
<asrwt>0</asrwt>
<pdfrwt beam="1">  1        2 0.11438371E+00 0.69729547E+03</pdfrwt>
<pdfrwt beam="2">  1       -2 0.21687696E-01 0.69729547E+03</pdfrwt>
<totfact> 0.70460321E+02</totfact>
</mgrwt>
</event>
<event>
 4    1  0.4915183E-005  0.6230038E+03  0.7818608E-02  0.9858797E-01
          2   -1    0    0  501    0  0.00000000000E+00  0.00000000000E+00  0.10074826943E+04  0.10074826943E+04  0.25500000000E-02 0. -1.
         -2   -1    0    0    0  501 -0.00000000000E+00 -0.00000000000E+00 -0.96312744118E+02  0.96312744152E+02  0.25500000000E-02 0.  1.
    5000001    1    1    2    0    0  0.11559573977E+03 -0.43869763230E+02  0.91859695579E+02  0.25164684550E+03  0.19900000000E+03 0.  0.
   -5000001    1    1    2    0    0 -0.11559573977E+03  0.43869763230E+02  0.81931025459E+03  0.85214859294E+03  0.19900000000E+03 0.  0.
<mgrwt>
<rscale>  0 0.62300377E+03</rscale>
<asrwt>0</asrwt>
<pdfrwt beam="1">  1        2 0.14392611E+00 0.62300377E+03</pdfrwt>
<pdfrwt beam="2">  1       -2 0.13758963E-01 0.62300377E+03</pdfrwt>
<totfact> 0.11315063E+03</totfact>
</mgrwt>
</event>
<event>
 4    1  0.4915183E-005  0.5860524E+03  0.7818608E-02  0.9934773E-01
         -2   -1    0    0    0  501 -0.00000000000E+00  0.00000000000E+00  0.89247180232E+02  0.89247180268E+02  0.25500000000E-02 0. -1.
          2   -1    0    0  501    0  0.00000000000E+00 -0.00000000000E+00 -0.96209608329E+03  0.96209608329E+03  0.25500000000E-02 0.  1.
    5000001    1    1    2    0    0  0.19150822982E+03 -0.97870250075E+02 -0.43093176152E+03  0.52111147658E+03  0.19900000000E+03 0.  0.
   -5000001    1    1    2    0    0 -0.19150822982E+03  0.97870250075E+02 -0.44191714153E+03  0.53023178698E+03  0.19900000000E+03 0.  0.
<mgrwt>
<rscale>  0 0.58605243E+03</rscale>
<asrwt>0</asrwt>
<pdfrwt beam="1">  1        2 0.13744229E+00 0.58605243E+03</pdfrwt>
<pdfrwt beam="2">  1       -2 0.12749598E-01 0.58605243E+03</pdfrwt>
<totfact> 0.13705553E+03</totfact>
</mgrwt>
</event>
<event>
 4    1  0.4915183E-005  0.6698706E+03  0.7818608E-02  0.9770192E-01
         -2   -1    0    0    0  501 -0.00000000000E+00  0.00000000000E+00  0.51179815708E+02  0.51179815772E+02  0.25500000000E-02 0. -1.
          2   -1    0    0  501    0  0.00000000000E+00 -0.00000000000E+00 -0.21919120226E+04  0.21919120227E+04  0.25500000000E-02 0.  1.
    5000001    1    1    2    0    0 -0.21673454624E+03 -0.80984821209E+02 -0.15325168584E+04  0.15626072207E+04  0.19900000000E+03 0.  0.
   -5000001    1    1    2    0    0  0.21673454624E+03  0.80984821209E+02 -0.60821534853E+03  0.68048461775E+03  0.19900000000E+03 0.  0.
<mgrwt>
<rscale>  0 0.66987059E+03</rscale>
<asrwt>0</asrwt>
<pdfrwt beam="1">  1        2 0.31313023E+00 0.66987059E+03</pdfrwt>
<pdfrwt beam="2">  1       -2 0.73114036E-02 0.66987059E+03</pdfrwt>
<totfact> 0.74694569E+02</totfact>
</mgrwt>
</event>
<event>
 4    1  0.4915183E-005  0.4468071E+03  0.7818608E-02  0.1028678E+00
          2   -1    0    0  501    0  0.00000000000E+00  0.00000000000E+00  0.84320525992E+03  0.84320525992E+03  0.25500000000E-02 0.  1.
         -2   -1    0    0    0  501 -0.00000000000E+00 -0.00000000000E+00 -0.59189801822E+02  0.59189801877E+02  0.25500000000E-02 0. -1.
    5000001    1    1    2    0    0 -0.64367827669E+02  0.15694236689E+02  0.54738484818E+03  0.58619169076E+03  0.19900000000E+03 0.  0.
   -5000001    1    1    2    0    0  0.64367827669E+02 -0.15694236689E+02  0.23663060992E+03  0.31620337103E+03  0.19900000000E+03 0.  0.
<mgrwt>
<rscale>  0 0.44680713E+03</rscale>
<asrwt>0</asrwt>
<pdfrwt beam="1">  1        2 0.12045788E+00 0.44680713E+03</pdfrwt>
<pdfrwt beam="2">  1       -2 0.84556869E-02 0.44680713E+03</pdfrwt>
<totfact> 0.31789394E+03</totfact>
</mgrwt>
</event>
<event>
 4    1  0.4915183E-005  0.6947724E+03  0.7818608E-02  0.9726214E-01
         -2   -1    0    0    0  501 -0.00000000000E+00  0.00000000000E+00  0.35272091858E+03  0.35272091859E+03  0.25500000000E-02 0. -1.
          2   -1    0    0  501    0  0.00000000000E+00 -0.00000000000E+00 -0.34213217922E+03  0.34213217923E+03  0.25500000000E-02 0.  1.
    5000001    1    1    2    0    0  0.12873373650E+03  0.25168676491E+03  0.39321459957E+02  0.34794508152E+03  0.19900000000E+03 0.  0.
   -5000001    1    1    2    0    0 -0.12873373650E+03 -0.25168676491E+03 -0.28732720597E+02  0.34690801630E+03  0.19900000000E+03 0.  0.
<mgrwt>
<rscale>  0 0.69477241E+03</rscale>
<asrwt>0</asrwt>
<pdfrwt beam="1">  1        2 0.48876026E-01 0.69477241E+03</pdfrwt>
<pdfrwt beam="2">  1       -2 0.50388702E-01 0.69477241E+03</pdfrwt>
<totfact> 0.38681804E+02</totfact>
</mgrwt>
</event>
<event>
 4    1  0.4915183E-005  0.5352638E+03  0.7818608E-02  0.1004964E+00
         -2   -1    0    0    0  501 -0.00000000000E+00  0.00000000000E+00  0.17739334680E+03  0.17739334682E+03  0.25500000000E-02 0. -1.
          2   -1    0    0  501    0  0.00000000000E+00 -0.00000000000E+00 -0.40377402844E+03  0.40377402845E+03  0.25500000000E-02 0.  1.
    5000001    1    1    2    0    0  0.13884899389E+03 -0.10949290443E+03 -0.83295729445E+02  0.27893891404E+03  0.19900000000E+03 0.  0.
   -5000001    1    1    2    0    0 -0.13884899389E+03  0.10949290443E+03 -0.14308495220E+03  0.30222846122E+03  0.19900000000E+03 0.  0.
<mgrwt>
<rscale>  0 0.53526377E+03</rscale>
<asrwt>0</asrwt>
<pdfrwt beam="1">  1        2 0.57682004E-01 0.53526377E+03</pdfrwt>
<pdfrwt beam="2">  1       -2 0.25341907E-01 0.53526377E+03</pdfrwt>
<totfact> 0.11965269E+03</totfact>
</mgrwt>
</event>
<event>
 4    1  0.4915183E-005  0.4565013E+03  0.7818608E-02  0.1025801E+00
         -2   -1    0    0    0  501 -0.00000000000E+00  0.00000000000E+00  0.27192453490E+02  0.27192453610E+02  0.25500000000E-02 0.  1.
          2   -1    0    0  501    0  0.00000000000E+00 -0.00000000000E+00 -0.19159122237E+04  0.19159122237E+04  0.25500000000E-02 0. -1.
    5000001    1    1    2    0    0 -0.25228245544E+02 -0.99065960157E+02 -0.11369325276E+04  0.11587351299E+04  0.19900000000E+03 0.  0.
   -5000001    1    1    2    0    0  0.25228245544E+02  0.99065960157E+02 -0.75178724262E+03  0.78436954747E+03  0.19900000000E+03 0.  0.
<mgrwt>
<rscale>  0 0.45650128E+03</rscale>
<asrwt>0</asrwt>
<pdfrwt beam="1">  1        2 0.27370166E+00 0.45650128E+03</pdfrwt>
<pdfrwt beam="2">  1       -2 0.38846374E-02 0.45650128E+03</pdfrwt>
<totfact> 0.27749738E+03</totfact>
</mgrwt>
</event>
<event>
 4    1  0.4915183E-005  0.5374265E+03  0.7818608E-02  0.1004447E+00
         -2   -1    0    0    0  501 -0.00000000000E+00  0.00000000000E+00  0.83376816325E+03  0.83376816325E+03  0.25500000000E-02 0. -1.
          2   -1    0    0  501    0  0.00000000000E+00 -0.00000000000E+00 -0.86602985597E+02  0.86602985635E+02  0.25500000000E-02 0.  1.
    5000001    1    1    2    0    0 -0.53160898441E+02 -0.15366776067E+03  0.50805832484E+03  0.56935412814E+03  0.19900000000E+03 0.  0.
   -5000001    1    1    2    0    0  0.53160898441E+02  0.15366776067E+03  0.23910685281E+03  0.35101702074E+03  0.19900000000E+03 0.  0.
<mgrwt>
<rscale>  0 0.53742651E+03</rscale>
<asrwt>0</asrwt>
<pdfrwt beam="1">  1        2 0.12371855E-01 0.53742651E+03</pdfrwt>
<pdfrwt beam="2">  1       -2 0.11910974E+00 0.53742651E+03</pdfrwt>
<totfact> 0.27856097E+02</totfact>
</mgrwt>
</event>
<event>
 4    1  0.4915183E-005  0.4398125E+03  0.7818608E-02  0.1030804E+00
         -2   -1    0    0    0  501 -0.00000000000E+00  0.00000000000E+00  0.20286906057E+03  0.20286906059E+03  0.25500000000E-02 0. -1.
          2   -1    0    0  501    0  0.00000000000E+00 -0.00000000000E+00 -0.23837427203E+03  0.23837427205E+03  0.25500000000E-02 0.  1.
    5000001    1    1    2    0    0  0.60040949525E+02  0.52203675501E+01  0.54073576088E+02  0.21484208035E+03  0.19900000000E+03 0.  0.
   -5000001    1    1    2    0    0 -0.60040949525E+02 -0.52203675501E+01 -0.89578787549E+02  0.22640125228E+03  0.19900000000E+03 0.  0.
<mgrwt>
<rscale>  0 0.43981253E+03</rscale>
<asrwt>0</asrwt>
<pdfrwt beam="1">  1        2 0.34053467E-01 0.43981253E+03</pdfrwt>
<pdfrwt beam="2">  1       -2 0.28981294E-01 0.43981253E+03</pdfrwt>
<totfact> 0.16744589E+03</totfact>
</mgrwt>
</event>
<event>
 4    1  0.4915183E-005  0.4486392E+03  0.7818608E-02  0.1028129E+00
          2   -1    0    0  501    0  0.00000000000E+00  0.00000000000E+00  0.73595389823E+03  0.73595389824E+03  0.25500000000E-02 0.  1.
         -2   -1    0    0    0  501 -0.00000000000E+00 -0.00000000000E+00 -0.68372871117E+02  0.68372871165E+02  0.25500000000E-02 0. -1.
    5000001    1    1    2    0    0  0.72119404663E+02 -0.71720839784E+02  0.36842449699E+03  0.43090915211E+03  0.19900000000E+03 0.  0.
   -5000001    1    1    2    0    0 -0.72119404663E+02  0.71720839784E+02  0.29915653012E+03  0.37341761729E+03  0.19900000000E+03 0.  0.
<mgrwt>
<rscale>  0 0.44863919E+03</rscale>
<asrwt>0</asrwt>
<pdfrwt beam="1">  1        2 0.10513626E+00 0.44863919E+03</pdfrwt>
<pdfrwt beam="2">  1       -2 0.97675536E-02 0.44863919E+03</pdfrwt>
<totfact> 0.29958344E+03</totfact>
</mgrwt>
</event>
<event>
 4    1  0.4915183E-005  0.4827743E+03  0.7818608E-02  0.1018376E+00
          2   -1    0    0  501    0  0.00000000000E+00  0.00000000000E+00  0.20394854759E+04  0.20394854759E+04  0.25500000000E-02 0.  1.
         -2   -1    0    0    0  501 -0.00000000000E+00 -0.00000000000E+00 -0.28569825805E+02  0.28569825919E+02  0.25500000000E-02 0. -1.
    5000001    1    1    2    0    0  0.55535710819E+02 -0.12482658452E+03  0.10015002900E+04  0.10301794612E+04  0.19900000000E+03 0.  0.
   -5000001    1    1    2    0    0 -0.55535710819E+02  0.12482658452E+03  0.10094153601E+04  0.10378758406E+04  0.19900000000E+03 0.  0.
<mgrwt>
<rscale>  0 0.48277425E+03</rscale>
<asrwt>0</asrwt>
<pdfrwt beam="1">  1        2 0.29135520E+00 0.48277425E+03</pdfrwt>
<pdfrwt beam="2">  1       -2 0.40814019E-02 0.48277425E+03</pdfrwt>
<totfact> 0.22313474E+03</totfact>
</mgrwt>
</event>
<event>
 4    1  0.4915183E-005  0.6327839E+03  0.7818608E-02  0.9839631E-01
         -2   -1    0    0    0  501 -0.00000000000E+00  0.00000000000E+00  0.13279365459E+03  0.13279365461E+03  0.25500000000E-02 0. -1.
          2   -1    0    0  501    0  0.00000000000E+00 -0.00000000000E+00 -0.75383018183E+03  0.75383018184E+03  0.25500000000E-02 0.  1.
    5000001    1    1    2    0    0  0.63988048357E+02  0.21631216375E+03 -0.17310970658E+03  0.34706396101E+03  0.19900000000E+03 0.  0.
   -5000001    1    1    2    0    0 -0.63988048357E+02 -0.21631216375E+03 -0.44792682066E+03  0.53955987544E+03  0.19900000000E+03 0.  0.
<mgrwt>
<rscale>  0 0.63278390E+03</rscale>
<asrwt>0</asrwt>
<pdfrwt beam="1">  1        2 0.10769002E+00 0.63278390E+03</pdfrwt>
<pdfrwt beam="2">  1       -2 0.18970522E-01 0.63278390E+03</pdfrwt>
<totfact> 0.96271364E+02</totfact>
</mgrwt>
</event>
<event>
 4    1  0.4915183E-005  0.5129425E+03  0.7818608E-02  0.1010455E+00
         -2   -1    0    0    0  501 -0.00000000000E+00  0.00000000000E+00  0.37902108422E+03  0.37902108423E+03  0.25500000000E-02 0. -1.
          2   -1    0    0  501    0  0.00000000000E+00 -0.00000000000E+00 -0.17354573316E+03  0.17354573318E+03  0.25500000000E-02 0.  1.
    5000001    1    1    2    0    0 -0.10813063744E+03 -0.11559448207E+03  0.13882428183E+03  0.28970243400E+03  0.19900000000E+03 0.  0.
   -5000001    1    1    2    0    0  0.10813063744E+03  0.11559448207E+03  0.66651069226E+02  0.26286438341E+03  0.19900000000E+03 0.  0.
<mgrwt>
<rscale>  0 0.51294246E+03</rscale>
<asrwt>0</asrwt>
<pdfrwt beam="1">  1        2 0.24792248E-01 0.51294246E+03</pdfrwt>
<pdfrwt beam="2">  1       -2 0.54145869E-01 0.51294246E+03</pdfrwt>
<totfact> 0.71458336E+02</totfact>
</mgrwt>
</event>
<event>
 4    1  0.4915183E-005  0.9607331E+03  0.7818608E-02  0.9352692E-01
          2   -1    0    0  501    0  0.00000000000E+00  0.00000000000E+00  0.21625944507E+04  0.21625944507E+04  0.25500000000E-02 0.  1.
         -2   -1    0    0    0  501 -0.00000000000E+00 -0.00000000000E+00 -0.10670148350E+03  0.10670148353E+03  0.25500000000E-02 0. -1.
    5000001    1    1    2    0    0 -0.66955181952E+02 -0.39570219551E+03  0.14376631905E+04  0.15058352079E+04  0.19900000000E+03 0.  0.
   -5000001    1    1    2    0    0  0.66955181952E+02  0.39570219551E+03  0.61822977671E+03  0.76346072639E+03  0.19900000000E+03 0.  0.
<mgrwt>
<rscale>  0 0.96073313E+03</rscale>
<asrwt>0</asrwt>
<pdfrwt beam="1">  1        2 0.30894207E+00 0.96073313E+03</pdfrwt>
<pdfrwt beam="2">  1       -2 0.15243069E-01 0.96073313E+03</pdfrwt>
<totfact> 0.22716563E+02</totfact>
</mgrwt>
</event>
<event>
 4    1  0.4915183E-005  0.5876595E+03  0.7818608E-02  0.9931345E-01
         -2   -1    0    0    0  501 -0.00000000000E+00  0.00000000000E+00  0.40028885422E+02  0.40028885503E+02  0.25500000000E-02 0. -1.
          2   -1    0    0  501    0  0.00000000000E+00 -0.00000000000E+00 -0.21568406628E+04  0.21568406628E+04  0.25500000000E-02 0.  1.
    5000001    1    1    2    0    0 -0.20326040812E+03 -0.56185939482E+02 -0.12362531218E+04  0.12698009429E+04  0.19900000000E+03 0.  0.
   -5000001    1    1    2    0    0  0.20326040812E+03  0.56185939482E+02 -0.88055865556E+03  0.92706860543E+03  0.19900000000E+03 0.  0.
<mgrwt>
<rscale>  0 0.58765952E+03</rscale>
<asrwt>0</asrwt>
<pdfrwt beam="1">  1        2 0.30812002E+00 0.58765952E+03</pdfrwt>
<pdfrwt beam="2">  1       -2 0.57184136E-02 0.58765952E+03</pdfrwt>
<totfact> 0.11514236E+03</totfact>
</mgrwt>
</event>
<event>
 4    1  0.4915183E-005  0.5664147E+03  0.7818608E-02  0.9977644E-01
         -2   -1    0    0    0  501 -0.00000000000E+00  0.00000000000E+00  0.15645745697E+03  0.15645745699E+03  0.25500000000E-02 0. -1.
          2   -1    0    0  501    0  0.00000000000E+00 -0.00000000000E+00 -0.51264030041E+03  0.51264030042E+03  0.25500000000E-02 0.  1.
    5000001    1    1    2    0    0 -0.14695133587E+03  0.10319192008E+03 -0.28611375087E+03  0.39205273360E+03  0.19900000000E+03 0.  0.
   -5000001    1    1    2    0    0  0.14695133587E+03 -0.10319192008E+03 -0.70069092572E+02  0.27704502381E+03  0.19900000000E+03 0.  0.
<mgrwt>
<rscale>  0 0.56641468E+03</rscale>
<asrwt>0</asrwt>
<pdfrwt beam="1">  1        2 0.73234328E-01 0.56641468E+03</pdfrwt>
<pdfrwt beam="2">  1       -2 0.22351065E-01 0.56641468E+03</pdfrwt>
<totfact> 0.11445143E+03</totfact>
</mgrwt>
</event>
<event>
 4    1  0.4915183E-005  0.7004780E+03  0.7818608E-02  0.9716415E-01
          2   -1    0    0  501    0  0.00000000000E+00  0.00000000000E+00  0.24046547907E+03  0.24046547908E+03  0.25500000000E-02 0.  1.
         -2   -1    0    0    0  501 -0.00000000000E+00 -0.00000000000E+00 -0.51012454673E+03  0.51012454674E+03  0.25500000000E-02 0. -1.
    5000001    1    1    2    0    0  0.78188892258E+02  0.26620677586E+03 -0.51230244758E+02  0.34526089898E+03  0.19900000000E+03 0.  0.
   -5000001    1    1    2    0    0 -0.78188892258E+02 -0.26620677586E+03 -0.21842882291E+03  0.40532912684E+03  0.19900000000E+03 0.  0.
<mgrwt>
<rscale>  0 0.70047796E+03</rscale>
<asrwt>0</asrwt>
<pdfrwt beam="1">  1        2 0.34352211E-01 0.70047796E+03</pdfrwt>
<pdfrwt beam="2">  1       -2 0.72874935E-01 0.70047796E+03</pdfrwt>
<totfact> 0.26234317E+02</totfact>
</mgrwt>
</event>
<event>
 4    1  0.4915183E-005  0.4644925E+03  0.7818608E-02  0.1023486E+00
         -2   -1    0    0    0  501 -0.00000000000E+00  0.00000000000E+00  0.18552722349E+02  0.18552722524E+02  0.25500000000E-02 0. -1.
          2   -1    0    0  501    0  0.00000000000E+00 -0.00000000000E+00 -0.29073000745E+04  0.29073000745E+04  0.25500000000E-02 0.  1.
    5000001    1    1    2    0    0  0.90903064153E+02  0.42164451897E+02 -0.18572424994E+04  0.18705592505E+04  0.19900000000E+03 0.  0.
   -5000001    1    1    2    0    0 -0.90903064153E+02 -0.42164451897E+02 -0.10315048527E+04  0.10552935465E+04  0.19900000000E+03 0.  0.
<mgrwt>
<rscale>  0 0.46449255E+03</rscale>
<asrwt>0</asrwt>
<pdfrwt beam="1">  1        2 0.41532829E+00 0.46449255E+03</pdfrwt>
<pdfrwt beam="2">  1       -2 0.26503908E-02 0.46449255E+03</pdfrwt>
<totfact> 0.15505733E+03</totfact>
</mgrwt>
</event>
<event>
 4    1  0.4915183E-005  0.4700011E+03  0.7818608E-02  0.1021920E+00
         -2   -1    0    0    0  501 -0.00000000000E+00  0.00000000000E+00  0.64146998926E+02  0.64146998977E+02  0.25500000000E-02 0. -1.
          2   -1    0    0  501    0  0.00000000000E+00 -0.00000000000E+00 -0.86091724952E+03  0.86091724953E+03  0.25500000000E-02 0.  1.
    5000001    1    1    2    0    0  0.89697682036E+02 -0.51228671554E+02 -0.25984993771E+03  0.34320990819E+03  0.19900000000E+03 0.  0.
   -5000001    1    1    2    0    0 -0.89697682036E+02  0.51228671554E+02 -0.53692031289E+03  0.58185434031E+03  0.19900000000E+03 0.  0.
<mgrwt>
<rscale>  0 0.47000110E+03</rscale>
<asrwt>0</asrwt>
<pdfrwt beam="1">  1        2 0.12298817E+00 0.47000110E+03</pdfrwt>
<pdfrwt beam="2">  1       -2 0.91638575E-02 0.47000110E+03</pdfrwt>
<totfact> 0.27229208E+03</totfact>
</mgrwt>
</event>
<event>
 4    1  0.4915183E-005  0.1085720E+04  0.7818608E-02  0.9219223E-01
         -2   -1    0    0    0  501 -0.00000000000E+00  0.00000000000E+00  0.74160811478E+03  0.74160811479E+03  0.25500000000E-02 0. -1.
          2   -1    0    0  501    0  0.00000000000E+00 -0.00000000000E+00 -0.39737576359E+03  0.39737576360E+03  0.25500000000E-02 0.  1.
    5000001    1    1    2    0    0  0.41166253873E+03 -0.27293613922E+03  0.28281996675E+03  0.60294967906E+03  0.19900000000E+03 0.  0.
   -5000001    1    1    2    0    0 -0.41166253873E+03  0.27293613922E+03  0.61412384438E+02  0.53603419933E+03  0.19900000000E+03 0.  0.
<mgrwt>
<rscale>  0 0.10857202E+04</rscale>
<asrwt>0</asrwt>
<pdfrwt beam="1">  1        2 0.56767967E-01 0.10857202E+04</pdfrwt>
<pdfrwt beam="2">  1       -2 0.10594402E+00 0.10857202E+04</pdfrwt>
<totfact> 0.62329627E+01</totfact>
</mgrwt>
</event>
<event>
 4    1  0.4915183E-005  0.5941306E+03  0.7818608E-02  0.9917659E-01
         -2   -1    0    0    0  501 -0.00000000000E+00  0.00000000000E+00  0.66101192897E+02  0.66101192947E+02  0.25500000000E-02 0. -1.
          2   -1    0    0  501    0  0.00000000000E+00 -0.00000000000E+00 -0.13350406259E+04  0.13350406259E+04  0.25500000000E-02 0.  1.
    5000001    1    1    2    0    0 -0.75810208147E+02 -0.16668862262E+03 -0.34453714467E+03  0.43799443904E+03  0.19900000000E+03 0.  0.
   -5000001    1    1    2    0    0  0.75810208147E+02  0.16668862262E+03 -0.92440228836E+03  0.96314737984E+03  0.19900000000E+03 0.  0.
<mgrwt>
<rscale>  0 0.59413055E+03</rscale>
<asrwt>0</asrwt>
<pdfrwt beam="1">  1        2 0.19072007E+00 0.59413055E+03</pdfrwt>
<pdfrwt beam="2">  1       -2 0.94430284E-02 0.59413055E+03</pdfrwt>
<totfact> 0.13671881E+03</totfact>
</mgrwt>
</event>
<event>
 4    1  0.4915183E-005  0.9997119E+03  0.7818608E-02  0.9308861E-01
          2   -1    0    0  501    0  0.00000000000E+00  0.00000000000E+00  0.12466421474E+04  0.12466421474E+04  0.25500000000E-02 0. -1.
         -2   -1    0    0    0  501 -0.00000000000E+00 -0.00000000000E+00 -0.20042318429E+03  0.20042318431E+03  0.25500000000E-02 0.  1.
    5000001    1    1    2    0    0 -0.40474080049E+03  0.16770021553E+03  0.32720939090E+03  0.58189815549E+03  0.19900000000E+03 0.  0.
   -5000001    1    1    2    0    0  0.40474080049E+03 -0.16770021553E+03  0.71900957218E+03  0.86516717619E+03  0.19900000000E+03 0.  0.
<mgrwt>
<rscale>  0 0.99971194E+03</rscale>
<asrwt>0</asrwt>
<pdfrwt beam="1">  1        2 0.17809173E+00 0.99971194E+03</pdfrwt>
<pdfrwt beam="2">  1       -2 0.28631884E-01 0.99971194E+03</pdfrwt>
<totfact> 0.22390856E+02</totfact>
</mgrwt>
</event>
<event>
 4    1  0.4915183E-005  0.8964118E+03  0.7818608E-02  0.9430078E-01
          2   -1    0    0  501    0  0.00000000000E+00  0.00000000000E+00  0.31358966106E+03  0.31358966107E+03  0.25500000000E-02 0.  1.
         -2   -1    0    0    0  501 -0.00000000000E+00 -0.00000000000E+00 -0.64060949758E+03  0.64060949758E+03  0.25500000000E-02 0. -1.
    5000001    1    1    2    0    0  0.23746069355E+03 -0.32386922740E+03 -0.16037782288E+03  0.47602615843E+03  0.19900000000E+03 0.  0.
   -5000001    1    1    2    0    0 -0.23746069355E+03  0.32386922740E+03 -0.16664201363E+03  0.47817300023E+03  0.19900000000E+03 0.  0.
<mgrwt>
<rscale>  0 0.89641177E+03</rscale>
<asrwt>0</asrwt>
<pdfrwt beam="1">  1        2 0.44798523E-01 0.89641177E+03</pdfrwt>
<pdfrwt beam="2">  1       -2 0.91515642E-01 0.89641177E+03</pdfrwt>
<totfact> 0.11586103E+02</totfact>
</mgrwt>
</event>
<event>
 4    1  0.4915183E-005  0.5862745E+03  0.7818608E-02  0.9934298E-01
         -2   -1    0    0    0  501 -0.00000000000E+00  0.00000000000E+00  0.66739826317E+02  0.66739826365E+02  0.25500000000E-02 0. -1.
          2   -1    0    0  501    0  0.00000000000E+00 -0.00000000000E+00 -0.12875287723E+04  0.12875287723E+04  0.25500000000E-02 0.  1.
    5000001    1    1    2    0    0  0.21245177681E+03 -0.33553329322E+02 -0.62928298335E+03  0.69416111711E+03  0.19900000000E+03 0.  0.
   -5000001    1    1    2    0    0 -0.21245177681E+03  0.33553329322E+02 -0.59150596265E+03  0.66010748157E+03  0.19900000000E+03 0.  0.
<mgrwt>
<rscale>  0 0.58627450E+03</rscale>
<asrwt>0</asrwt>
<pdfrwt beam="1">  1        2 0.18393267E+00 0.58627450E+03</pdfrwt>
<pdfrwt beam="2">  1       -2 0.95342617E-02 0.58627450E+03</pdfrwt>
<totfact> 0.14286862E+03</totfact>
</mgrwt>
</event>
<event>
 4    1  0.4915183E-005  0.6444485E+03  0.7818608E-02  0.9817252E-01
         -2   -1    0    0    0  501 -0.00000000000E+00  0.00000000000E+00  0.35489380216E+02  0.35489380307E+02  0.25500000000E-02 0. -1.
          2   -1    0    0  501    0  0.00000000000E+00 -0.00000000000E+00 -0.29256203582E+04  0.29256203582E+04  0.25500000000E-02 0.  1.
    5000001    1    1    2    0    0  0.73926244958E+02  0.20706944938E+03 -0.86596417618E+03  0.91533480268E+03  0.19900000000E+03 0.  0.
   -5000001    1    1    2    0    0 -0.73926244958E+02 -0.20706944938E+03 -0.20241668018E+04  0.20457749358E+04  0.19900000000E+03 0.  0.
<mgrwt>
<rscale>  0 0.64444846E+03</rscale>
<asrwt>0</asrwt>
<pdfrwt beam="1">  1        2 0.41794561E+00 0.64444846E+03</pdfrwt>
<pdfrwt beam="2">  1       -2 0.50699133E-02 0.64444846E+03</pdfrwt>
<totfact> 0.55347862E+02</totfact>
</mgrwt>
</event>
<event>
 4    1  0.4915183E-005  0.7070861E+03  0.7818608E-02  0.9705190E-01
          2   -1    0    0  501    0  0.00000000000E+00  0.00000000000E+00  0.22510062048E+03  0.22510062049E+03  0.25500000000E-02 0.  1.
         -2   -1    0    0    0  501 -0.00000000000E+00 -0.00000000000E+00 -0.55527474067E+03  0.55527474067E+03  0.25500000000E-02 0. -1.
    5000001    1    1    2    0    0  0.48116019431E+02  0.19303941090E+03  0.71136062512E+02  0.29024249323E+03  0.19900000000E+03 0.  0.
   -5000001    1    1    2    0    0 -0.48116019431E+02 -0.19303941090E+03 -0.40131018270E+03  0.49013286793E+03  0.19900000000E+03 0.  0.
<mgrwt>
<rscale>  0 0.70708610E+03</rscale>
<asrwt>0</asrwt>
<pdfrwt beam="1">  1        2 0.32157232E-01 0.70708610E+03</pdfrwt>
<pdfrwt beam="2">  1       -2 0.79324962E-01 0.70708610E+03</pdfrwt>
<totfact> 0.23398382E+02</totfact>
</mgrwt>
</event>
<event>
 4    1  0.4915183E-005  0.5076726E+03  0.7818608E-02  0.1011795E+00
         -2   -1    0    0    0  501 -0.00000000000E+00  0.00000000000E+00  0.85450138380E+02  0.85450138418E+02  0.25500000000E-02 0. -1.
          2   -1    0    0  501    0  0.00000000000E+00 -0.00000000000E+00 -0.75404052814E+03  0.75404052815E+03  0.25500000000E-02 0.  1.
    5000001    1    1    2    0    0  0.67210241111E+02 -0.13272215878E+03 -0.42021082259E+03  0.48817058839E+03  0.19900000000E+03 0.  0.
   -5000001    1    1    2    0    0 -0.67210241111E+02  0.13272215878E+03 -0.24837956717E+03  0.35132007818E+03  0.19900000000E+03 0.  0.
<mgrwt>
<rscale>  0 0.50767260E+03</rscale>
<asrwt>0</asrwt>
<pdfrwt beam="1">  1        2 0.10772007E+00 0.50767260E+03</pdfrwt>
<pdfrwt beam="2">  1       -2 0.12207163E-01 0.50767260E+03</pdfrwt>
<totfact> 0.20253096E+03</totfact>
</mgrwt>
</event>
<event>
 4    1  0.4915183E-005  0.7297250E+03  0.7818608E-02  0.9667707E-01
         -2   -1    0    0    0  501 -0.00000000000E+00  0.00000000000E+00  0.24134075170E+03  0.24134075171E+03  0.25500000000E-02 0. -1.
          2   -1    0    0  501    0  0.00000000000E+00 -0.00000000000E+00 -0.55160452026E+03  0.55160452027E+03  0.25500000000E-02 0.  1.
    5000001    1    1    2    0    0  0.21664853952E+03 -0.21443567399E+03 -0.12841740048E+03  0.38601978796E+03  0.19900000000E+03 0.  0.
   -5000001    1    1    2    0    0 -0.21664853952E+03  0.21443567399E+03 -0.18184636809E+03  0.40692548402E+03  0.19900000000E+03 0.  0.
<mgrwt>
<rscale>  0 0.72972502E+03</rscale>
<asrwt>0</asrwt>
<pdfrwt beam="1">  1        2 0.78800646E-01 0.72972502E+03</pdfrwt>
<pdfrwt beam="2">  1       -2 0.34477250E-01 0.72972502E+03</pdfrwt>
<totfact> 0.47480313E+02</totfact>
</mgrwt>
</event>
<event>
 4    1  0.4915183E-005  0.5311648E+03  0.7818608E-02  0.1005950E+00
          2   -1    0    0  501    0  0.00000000000E+00  0.00000000000E+00  0.33781973153E+04  0.33781973153E+04  0.25500000000E-02 0.  1.
         -2   -1    0    0    0  501 -0.00000000000E+00 -0.00000000000E+00 -0.20879188968E+02  0.20879189123E+02  0.25500000000E-02 0. -1.
    5000001    1    1    2    0    0 -0.87045210276E+02 -0.10714998893E+03  0.23760061834E+04  0.23883183147E+04  0.19900000000E+03 0.  0.
   -5000001    1    1    2    0    0  0.87045210276E+02  0.10714998893E+03  0.98131194289E+03  0.10107581897E+04  0.19900000000E+03 0.  0.
<mgrwt>
<rscale>  0 0.53116483E+03</rscale>
<asrwt>0</asrwt>
<pdfrwt beam="1">  1        2 0.48259881E+00 0.53116483E+03</pdfrwt>
<pdfrwt beam="2">  1       -2 0.29827463E-02 0.53116483E+03</pdfrwt>
<totfact> 0.70693488E+02</totfact>
</mgrwt>
</event>
<event>
 4    1  0.4915183E-005  0.5880576E+03  0.7818608E-02  0.9930497E-01
          2   -1    0    0  501    0  0.00000000000E+00  0.00000000000E+00  0.23861326547E+04  0.23861326547E+04  0.25500000000E-02 0.  1.
         -2   -1    0    0    0  501 -0.00000000000E+00 -0.00000000000E+00 -0.36231400504E+02  0.36231400594E+02  0.25500000000E-02 0. -1.
    5000001    1    1    2    0    0 -0.11969320805E+02  0.15954578065E+03  0.17754850868E+04  0.17937520493E+04  0.19900000000E+03 0.  0.
   -5000001    1    1    2    0    0  0.11969320805E+02 -0.15954578065E+03  0.57441616733E+03  0.62861200597E+03  0.19900000000E+03 0.  0.
<mgrwt>
<rscale>  0 0.58805758E+03</rscale>
<asrwt>0</asrwt>
<pdfrwt beam="1">  1        2 0.34087603E+00 0.58805758E+03</pdfrwt>
<pdfrwt beam="2">  1       -2 0.51759153E-02 0.58805758E+03</pdfrwt>
<totfact> 0.10298996E+03</totfact>
</mgrwt>
</event>
<event>
 4    1  0.4915183E-005  0.5221599E+03  0.7818608E-02  0.1008151E+00
         -2   -1    0    0    0  501 -0.00000000000E+00  0.00000000000E+00  0.62254927825E+02  0.62254927877E+02  0.25500000000E-02 0. -1.
          2   -1    0    0  501    0  0.00000000000E+00 -0.00000000000E+00 -0.10948970573E+04  0.10948970573E+04  0.25500000000E-02 0.  1.
    5000001    1    1    2    0    0  0.48588722964E+01 -0.13629794657E+03 -0.73749723490E+03  0.77595354910E+03  0.19900000000E+03 0.  0.
   -5000001    1    1    2    0    0 -0.48588722964E+01  0.13629794657E+03 -0.29514489460E+03  0.38119843610E+03  0.19900000000E+03 0.  0.
<mgrwt>
<rscale>  0 0.52215989E+03</rscale>
<asrwt>0</asrwt>
<pdfrwt beam="1">  1        2 0.15641385E+00 0.52215989E+03</pdfrwt>
<pdfrwt beam="2">  1       -2 0.88935618E-02 0.52215989E+03</pdfrwt>
<totfact> 0.20517840E+03</totfact>
</mgrwt>
</event>
<event>
 4    1  0.4915183E-005  0.7700765E+03  0.7818608E-02  0.9604370E-01
         -2   -1    0    0    0  501 -0.00000000000E+00  0.00000000000E+00  0.50967933188E+02  0.50967933252E+02  0.25500000000E-02 0. -1.
          2   -1    0    0  501    0  0.00000000000E+00 -0.00000000000E+00 -0.29087788182E+04  0.29087788182E+04  0.25500000000E-02 0.  1.
    5000001    1    1    2    0    0 -0.32560697963E+03 -0.18306409154E+01 -0.12317929712E+04  0.12895496037E+04  0.19900000000E+03 0.  0.
   -5000001    1    1    2    0    0  0.32560697963E+03  0.18306409154E+01 -0.16260179138E+04  0.16701971478E+04  0.19900000000E+03 0.  0.
<mgrwt>
<rscale>  0 0.77007648E+03</rscale>
<asrwt>0</asrwt>
<pdfrwt beam="1">  1        2 0.41553973E+00 0.77007648E+03</pdfrwt>
<pdfrwt beam="2">  1       -2 0.72811351E-02 0.77007648E+03</pdfrwt>
<totfact> 0.31616724E+02</totfact>
</mgrwt>
</event>
<event>
 4    1  0.4915183E-005  0.4910872E+03  0.7818608E-02  0.1016132E+00
         -2   -1    0    0    0  501 -0.00000000000E+00  0.00000000000E+00  0.50907784436E+02  0.50907784500E+02  0.25500000000E-02 0. -1.
          2   -1    0    0  501    0  0.00000000000E+00 -0.00000000000E+00 -0.11843310326E+04  0.11843310326E+04  0.25500000000E-02 0.  1.
    5000001    1    1    2    0    0  0.97243079706E+02 -0.67402038041E+02 -0.36095617218E+03  0.42882351792E+03  0.19900000000E+03 0.  0.
   -5000001    1    1    2    0    0 -0.97243079706E+02  0.67402038041E+02 -0.77246707597E+03  0.80641529918E+03  0.19900000000E+03 0.  0.
<mgrwt>
<rscale>  0 0.49108724E+03</rscale>
<asrwt>0</asrwt>
<pdfrwt beam="1">  1        2 0.16919013E+00 0.49108724E+03</pdfrwt>
<pdfrwt beam="2">  1       -2 0.72725414E-02 0.49108724E+03</pdfrwt>
<totfact> 0.25127586E+03</totfact>
</mgrwt>
</event>
<event>
 4    1  0.4915183E-005  0.6368645E+03  0.7818608E-02  0.9831744E-01
         -2   -1    0    0    0  501 -0.00000000000E+00  0.00000000000E+00  0.29288801808E+03  0.29288801809E+03  0.25500000000E-02 0. -1.
          2   -1    0    0  501    0  0.00000000000E+00 -0.00000000000E+00 -0.34620437557E+03  0.34620437558E+03  0.25500000000E-02 0.  1.
    5000001    1    1    2    0    0  0.22865452821E+03 -0.80073324835E+02 -0.82561967892E+02  0.32420997697E+03  0.19900000000E+03 0.  0.
   -5000001    1    1    2    0    0 -0.22865452821E+03  0.80073324835E+02  0.29245610407E+02  0.31488241671E+03  0.19900000000E+03 0.  0.
<mgrwt>
<rscale>  0 0.63686455E+03</rscale>
<asrwt>0</asrwt>
<pdfrwt beam="1">  1        2 0.49457768E-01 0.63686455E+03</pdfrwt>
<pdfrwt beam="2">  1       -2 0.41841146E-01 0.63686455E+03</pdfrwt>
<totfact> 0.55402647E+02</totfact>
</mgrwt>
</event>
<event>
 4    1  0.4915183E-005  0.6199621E+03  0.7818608E-02  0.9864835E-01
         -2   -1    0    0    0  501 -0.00000000000E+00  0.00000000000E+00  0.30444110372E+02  0.30444110479E+02  0.25500000000E-02 0. -1.
          2   -1    0    0  501    0  0.00000000000E+00 -0.00000000000E+00 -0.31562177846E+04  0.31562177846E+04  0.25500000000E-02 0.  1.
    5000001    1    1    2    0    0 -0.23460554918E+03 -0.32616899095E+02 -0.14622122720E+04  0.14945799926E+04  0.19900000000E+03 0.  0.
   -5000001    1    1    2    0    0  0.23460554918E+03  0.32616899095E+02 -0.16635614022E+04  0.16920819025E+04  0.19900000000E+03 0.  0.
<mgrwt>
<rscale>  0 0.61996207E+03</rscale>
<asrwt>0</asrwt>
<pdfrwt beam="1">  1        2 0.45088805E+00 0.61996207E+03</pdfrwt>
<pdfrwt beam="2">  1       -2 0.43491606E-02 0.61996207E+03</pdfrwt>
<totfact> 0.52578808E+02</totfact>
</mgrwt>
</event>
<event>
 4    1  0.4915183E-005  0.1551577E+04  0.7818608E-02  0.8850861E-01
          2   -1    0    0  501    0  0.00000000000E+00  0.00000000000E+00  0.24392255986E+04  0.24392255986E+04  0.25500000000E-02 0.  1.
         -2   -1    0    0    0  501 -0.00000000000E+00 -0.00000000000E+00 -0.24673710316E+03  0.24673710317E+03  0.25500000000E-02 0. -1.
    5000001    1    1    2    0    0  0.47710477217E+02 -0.69967344675E+03  0.15556506996E+04  0.17179840863E+04  0.19900000000E+03 0.  0.
   -5000001    1    1    2    0    0 -0.47710477217E+02  0.69967344675E+03  0.63683779585E+03  0.96797861544E+03  0.19900000000E+03 0.  0.
<mgrwt>
<rscale>  0 0.15515766E+04</rscale>
<asrwt>0</asrwt>
<pdfrwt beam="1">  1        2 0.34846080E+00 0.15515766E+04</pdfrwt>
<pdfrwt beam="2">  1       -2 0.35248158E-01 0.15515766E+04</pdfrwt>
<totfact> 0.34612711E+01</totfact>
</mgrwt>
</event>
<event>
 4    1  0.4915183E-005  0.6004940E+03  0.7818608E-02  0.9904382E-01
          2   -1    0    0  501    0  0.00000000000E+00  0.00000000000E+00  0.11745675680E+04  0.11745675680E+04  0.25500000000E-02 0.  1.
         -2   -1    0    0    0  501 -0.00000000000E+00 -0.00000000000E+00 -0.76750165564E+02  0.76750165606E+02  0.25500000000E-02 0. -1.
    5000001    1    1    2    0    0  0.54120921907E+02  0.30523535271E+02  0.98657815713E+02  0.23064068374E+03  0.19900000000E+03 0.  0.
   -5000001    1    1    2    0    0 -0.54120921907E+02 -0.30523535271E+02  0.99915958675E+03  0.10206770499E+04  0.19900000000E+03 0.  0.
<mgrwt>
<rscale>  0 0.60049398E+03</rscale>
<asrwt>0</asrwt>
<pdfrwt beam="1">  1        2 0.16779537E+00 0.60049398E+03</pdfrwt>
<pdfrwt beam="2">  1       -2 0.10964309E-01 0.60049398E+03</pdfrwt>
<totfact> 0.13149697E+03</totfact>
</mgrwt>
</event>
<event>
 4    1  0.4915183E-005  0.5691748E+03  0.7818608E-02  0.9971506E-01
          2   -1    0    0  501    0  0.00000000000E+00  0.00000000000E+00  0.38766170497E+03  0.38766170498E+03  0.25500000000E-02 0.  1.
         -2   -1    0    0    0  501 -0.00000000000E+00 -0.00000000000E+00 -0.20891921179E+03  0.20891921181E+03  0.25500000000E-02 0. -1.
    5000001    1    1    2    0    0 -0.14113732171E+03 -0.46000986531E+02 -0.56442839419E+02  0.25460288385E+03  0.19900000000E+03 0.  0.
   -5000001    1    1    2    0    0  0.14113732171E+03  0.46000986531E+02  0.23518533260E+03  0.34197803294E+03  0.19900000000E+03 0.  0.
<mgrwt>
<rscale>  0 0.56917476E+03</rscale>
<asrwt>0</asrwt>
<pdfrwt beam="1">  1        2 0.55380243E-01 0.56917476E+03</pdfrwt>
<pdfrwt beam="2">  1       -2 0.29845602E-01 0.56917476E+03</pdfrwt>
<totfact> 0.92949871E+02</totfact>
</mgrwt>
</event>
<event>
 4    1  0.4915183E-005  0.6298643E+03  0.7818608E-02  0.9845314E-01
          2   -1    0    0  501    0  0.00000000000E+00  0.00000000000E+00  0.35106318310E+04  0.35106318310E+04  0.25500000000E-02 0. -1.
         -2   -1    0    0    0  501 -0.00000000000E+00 -0.00000000000E+00 -0.28251970461E+02  0.28251970576E+02  0.25500000000E-02 0.  1.
    5000001    1    1    2    0    0 -0.57327629776E+02 -0.16176562388E+03  0.27163929139E+04  0.27290742088E+04  0.19900000000E+03 0.  0.
   -5000001    1    1    2    0    0  0.57327629776E+02  0.16176562388E+03  0.76598694665E+03  0.80980959283E+03  0.19900000000E+03 0.  0.
<mgrwt>
<rscale>  0 0.62986433E+03</rscale>
<asrwt>0</asrwt>
<pdfrwt beam="1">  1        2 0.50151832E+00 0.62986433E+03</pdfrwt>
<pdfrwt beam="2">  1       -2 0.40359999E-02 0.62986433E+03</pdfrwt>
<totfact> 0.36827552E+02</totfact>
</mgrwt>
</event>
<event>
 4    1  0.4915183E-005  0.9023662E+03  0.7818608E-02  0.9422628E-01
          2   -1    0    0  501    0  0.00000000000E+00  0.00000000000E+00  0.17316463106E+03  0.17316463108E+03  0.25500000000E-02 0. -1.
         -2   -1    0    0    0  501 -0.00000000000E+00 -0.00000000000E+00 -0.11755644703E+04  0.11755644703E+04  0.25500000000E-02 0.  1.
    5000001    1    1    2    0    0  0.17239837464E+03  0.33539836508E+03 -0.28075973877E+03  0.51052942500E+03  0.19900000000E+03 0.  0.
   -5000001    1    1    2    0    0 -0.17239837464E+03 -0.33539836508E+03 -0.72164010052E+03  0.83819967642E+03  0.19900000000E+03 0.  0.
<mgrwt>
<rscale>  0 0.90236620E+03</rscale>
<asrwt>0</asrwt>
<pdfrwt beam="1">  1        2 0.24737805E-01 0.90236620E+03</pdfrwt>
<pdfrwt beam="2">  1       -2 0.16793778E+00 0.90236620E+03</pdfrwt>
<totfact> 0.49136185E+01</totfact>
</mgrwt>
</event>
<event>
 4    1  0.4915183E-005  0.6514576E+03  0.7818608E-02  0.9804048E-01
          2   -1    0    0  501    0  0.00000000000E+00  0.00000000000E+00  0.16158360123E+04  0.16158360123E+04  0.25500000000E-02 0.  1.
         -2   -1    0    0    0  501 -0.00000000000E+00 -0.00000000000E+00 -0.65662138506E+02  0.65662138555E+02  0.25500000000E-02 0. -1.
    5000001    1    1    2    0    0  0.14786038056E+03 -0.20190274082E+03  0.93567483366E+03  0.98879512703E+03  0.19900000000E+03 0.  0.
   -5000001    1    1    2    0    0 -0.14786038056E+03  0.20190274082E+03  0.61449904010E+03  0.69270302379E+03  0.19900000000E+03 0.  0.
<mgrwt>
<rscale>  0 0.65145759E+03</rscale>
<asrwt>0</asrwt>
<pdfrwt beam="1">  1        2 0.23083373E+00 0.65145759E+03</pdfrwt>
<pdfrwt beam="2">  1       -2 0.93803049E-02 0.65145759E+03</pdfrwt>
<totfact> 0.98209270E+02</totfact>
</mgrwt>
</event>
<event>
 4    1  0.4915183E-005  0.5004381E+03  0.7818608E-02  0.1013665E+00
          2   -1    0    0  501    0  0.00000000000E+00  0.00000000000E+00  0.17539649442E+03  0.17539649444E+03  0.25500000000E-02 0.  1.
         -2   -1    0    0    0  501 -0.00000000000E+00 -0.00000000000E+00 -0.35696028541E+03  0.35696028542E+03  0.25500000000E-02 0. -1.
    5000001    1    1    2    0    0  0.13553474745E+03 -0.13299757750E+02 -0.19722959583E+02  0.24194327116E+03  0.19900000000E+03 0.  0.
   -5000001    1    1    2    0    0 -0.13553474745E+03  0.13299757750E+02 -0.16184083141E+03  0.29041350870E+03  0.19900000000E+03 0.  0.
<mgrwt>
<rscale>  0 0.50043814E+03</rscale>
<asrwt>0</asrwt>
<pdfrwt beam="1">  1        2 0.25056642E-01 0.50043814E+03</pdfrwt>
<pdfrwt beam="2">  1       -2 0.50994326E-01 0.50043814E+03</pdfrwt>
<totfact> 0.79793212E+02</totfact>
</mgrwt>
</event>
<event>
 4    1  0.4915183E-005  0.6082197E+03  0.7818608E-02  0.9888498E-01
          2   -1    0    0  501    0  0.00000000000E+00  0.00000000000E+00  0.16302882550E+04  0.16302882550E+04  0.25500000000E-02 0.  1.
         -2   -1    0    0    0  501 -0.00000000000E+00 -0.00000000000E+00 -0.56727885793E+02  0.56727885850E+02  0.25500000000E-02 0. -1.
    5000001    1    1    2    0    0  0.13818738823E+03 -0.29567560405E+02  0.12899732344E+04  0.13128602136E+04  0.19900000000E+03 0.  0.
   -5000001    1    1    2    0    0 -0.13818738823E+03  0.29567560405E+02  0.28358713481E+03  0.37415592729E+03  0.19900000000E+03 0.  0.
<mgrwt>
<rscale>  0 0.60821972E+03</rscale>
<asrwt>0</asrwt>
<pdfrwt beam="1">  1        2 0.23289830E+00 0.60821972E+03</pdfrwt>
<pdfrwt beam="2">  1       -2 0.81039846E-02 0.60821972E+03</pdfrwt>
<totfact> 0.12232611E+03</totfact>
</mgrwt>
</event>
<event>
 4    1  0.4915183E-005  0.1223811E+04  0.7818608E-02  0.9092267E-01
         -2   -1    0    0    0  501 -0.00000000000E+00  0.00000000000E+00  0.45890058151E+03  0.45890058152E+03  0.25500000000E-02 0. -1.
          2   -1    0    0  501    0  0.00000000000E+00 -0.00000000000E+00 -0.81592444170E+03  0.81592444171E+03  0.25500000000E-02 0.  1.
    5000001    1    1    2    0    0  0.26762401230E+03 -0.50932112022E+03 -0.24269683321E+03  0.65538795252E+03  0.19900000000E+03 0.  0.
   -5000001    1    1    2    0    0 -0.26762401230E+03  0.50932112022E+03 -0.11432702699E+03  0.61943707070E+03  0.19900000000E+03 0.  0.
<mgrwt>
<rscale>  0 0.12238108E+04</rscale>
<asrwt>0</asrwt>
<pdfrwt beam="1">  1        2 0.11656063E+00 0.12238108E+04</pdfrwt>
<pdfrwt beam="2">  1       -2 0.65557226E-01 0.12238108E+04</pdfrwt>
<totfact> 0.78319538E+01</totfact>
</mgrwt>
</event>
<event>
 4    1  0.4915183E-005  0.5021975E+03  0.7818608E-02  0.1013207E+00
         -2   -1    0    0    0  501 -0.00000000000E+00  0.00000000000E+00  0.42233606631E+03  0.42233606632E+03  0.25500000000E-02 0. -1.
          2   -1    0    0  501    0  0.00000000000E+00 -0.00000000000E+00 -0.14929008001E+03  0.14929008003E+03  0.25500000000E-02 0.  1.
    5000001    1    1    2    0    0 -0.11329405308E+03  0.17031520130E+01  0.25377454277E+03  0.34182007219E+03  0.19900000000E+03 0.  0.
   -5000001    1    1    2    0    0  0.11329405308E+03 -0.17031520130E+01  0.19271443530E+02  0.22980607417E+03  0.19900000000E+03 0.  0.
<mgrwt>
<rscale>  0 0.50219751E+03</rscale>
<asrwt>0</asrwt>
<pdfrwt beam="1">  1        2 0.21327154E-01 0.50219751E+03</pdfrwt>
<pdfrwt beam="2">  1       -2 0.60333725E-01 0.50219751E+03</pdfrwt>
<totfact> 0.67860938E+02</totfact>
</mgrwt>
</event>
<event>
 4    1  0.4915183E-005  0.4490794E+03  0.7818608E-02  0.1027997E+00
          2   -1    0    0  501    0  0.00000000000E+00  0.00000000000E+00  0.41133278426E+03  0.41133278427E+03  0.25500000000E-02 0.  1.
         -2   -1    0    0    0  501 -0.00000000000E+00 -0.00000000000E+00 -0.12257247170E+03  0.12257247172E+03  0.25500000000E-02 0. -1.
    5000001    1    1    2    0    0 -0.27582954887E+02 -0.88558429085E+02  0.20031683196E+03  0.29720573334E+03  0.19900000000E+03 0.  0.
   -5000001    1    1    2    0    0  0.27582954887E+02  0.88558429085E+02  0.88443480601E+02  0.23669952265E+03  0.19900000000E+03 0.  0.
<mgrwt>
<rscale>  0 0.44907940E+03</rscale>
<asrwt>0</asrwt>
<pdfrwt beam="1">  1        2 0.58761827E-01 0.44907940E+03</pdfrwt>
<pdfrwt beam="2">  1       -2 0.17510353E-01 0.44907940E+03</pdfrwt>
<totfact> 0.22338568E+03</totfact>
</mgrwt>
</event>
<event>
 4    1  0.4915183E-005  0.6708170E+03  0.7818608E-02  0.9768483E-01
         -2   -1    0    0    0  501 -0.00000000000E+00  0.00000000000E+00  0.24541207613E+03  0.24541207615E+03  0.25500000000E-02 0. -1.
          2   -1    0    0  501    0  0.00000000000E+00 -0.00000000000E+00 -0.45840802942E+03  0.45840802943E+03  0.25500000000E-02 0.  1.
    5000001    1    1    2    0    0 -0.20785954183E+03  0.17172088313E+03 -0.91504517727E+02  0.34737260629E+03  0.19900000000E+03 0.  0.
   -5000001    1    1    2    0    0  0.20785954183E+03 -0.17172088313E+03 -0.12149143556E+03  0.35644749929E+03  0.19900000000E+03 0.  0.
<mgrwt>
<rscale>  0 0.67081701E+03</rscale>
<asrwt>0</asrwt>
<pdfrwt beam="1">  1        2 0.65486862E-01 0.67081701E+03</pdfrwt>
<pdfrwt beam="2">  1       -2 0.35058868E-01 0.67081701E+03</pdfrwt>
<totfact> 0.56935689E+02</totfact>
</mgrwt>
</event>
<event>
 4    1  0.4915183E-005  0.4380092E+03  0.7818608E-02  0.1031359E+00
          2   -1    0    0  501    0  0.00000000000E+00  0.00000000000E+00  0.22679109073E+04  0.22679109073E+04  0.25500000000E-02 0.  1.
         -2   -1    0    0    0  501 -0.00000000000E+00 -0.00000000000E+00 -0.21148549082E+02  0.21148549236E+02  0.25500000000E-02 0. -1.
    5000001    1    1    2    0    0  0.35530315571E+02 -0.57109729605E+02  0.14471477309E+04  0.14623137418E+04  0.19900000000E+03 0.  0.
   -5000001    1    1    2    0    0 -0.35530315571E+02  0.57109729605E+02  0.79961462730E+03  0.82674571468E+03  0.19900000000E+03 0.  0.
<mgrwt>
<rscale>  0 0.43800925E+03</rscale>
<asrwt>0</asrwt>
<pdfrwt beam="1">  1        2 0.32398730E+00 0.43800925E+03</pdfrwt>
<pdfrwt beam="2">  1       -2 0.30212211E-02 0.43800925E+03</pdfrwt>
<totfact> 0.27159122E+03</totfact>
</mgrwt>
</event>
<event>
 4    1  0.4915183E-005  0.4369281E+03  0.7818608E-02  0.1031694E+00
          2   -1    0    0  501    0  0.00000000000E+00  0.00000000000E+00  0.54092094962E+03  0.54092094962E+03  0.25500000000E-02 0.  1.
         -2   -1    0    0    0  501 -0.00000000000E+00 -0.00000000000E+00 -0.88232018199E+02  0.88232018236E+02  0.25500000000E-02 0. -1.
    5000001    1    1    2    0    0  0.29692545520E+02 -0.84666210445E+02  0.21382996404E+03  0.30557203401E+03  0.19900000000E+03 0.  0.
   -5000001    1    1    2    0    0 -0.29692545520E+02  0.84666210445E+02  0.23885896738E+03  0.32358093385E+03  0.19900000000E+03 0.  0.
<mgrwt>
<rscale>  0 0.43692813E+03</rscale>
<asrwt>0</asrwt>
<pdfrwt beam="1">  1        2 0.77274420E-01 0.43692813E+03</pdfrwt>
<pdfrwt beam="2">  1       -2 0.12604574E-01 0.43692813E+03</pdfrwt>
<totfact> 0.28468367E+03</totfact>
</mgrwt>
</event>
<event>
 4    1  0.4915183E-005  0.6154243E+03  0.7818608E-02  0.9873912E-01
          2   -1    0    0  501    0  0.00000000000E+00  0.00000000000E+00  0.22381687670E+04  0.22381687670E+04  0.25500000000E-02 0.  1.
         -2   -1    0    0    0  501 -0.00000000000E+00 -0.00000000000E+00 -0.42305465538E+02  0.42305465614E+02  0.25500000000E-02 0. -1.
    5000001    1    1    2    0    0 -0.17687185971E+02 -0.22840453472E+03  0.12870337425E+04  0.13223230780E+04  0.19900000000E+03 0.  0.
   -5000001    1    1    2    0    0  0.17687185971E+02  0.22840453472E+03  0.90882955896E+03  0.95815115471E+03  0.19900000000E+03 0.  0.
<mgrwt>
<rscale>  0 0.61542431E+03</rscale>
<asrwt>0</asrwt>
<pdfrwt beam="1">  1        2 0.31973847E+00 0.61542431E+03</pdfrwt>
<pdfrwt beam="2">  1       -2 0.60436365E-02 0.61542431E+03</pdfrwt>
<totfact> 0.95926673E+02</totfact>
</mgrwt>
</event>
<event>
 4    1  0.4915183E-005  0.6304846E+03  0.7818608E-02  0.9844104E-01
         -2   -1    0    0    0  501 -0.00000000000E+00  0.00000000000E+00  0.13783708826E+03  0.13783708828E+03  0.25500000000E-02 0. -1.
          2   -1    0    0  501    0  0.00000000000E+00 -0.00000000000E+00 -0.72097940072E+03  0.72097940073E+03  0.25500000000E-02 0.  1.
    5000001    1    1    2    0    0 -0.76939318090E+02 -0.22972826482E+03 -0.33637681918E+03  0.45983159831E+03  0.19900000000E+03 0.  0.
   -5000001    1    1    2    0    0  0.76939318090E+02  0.22972826482E+03 -0.24676549328E+03  0.39898489070E+03  0.19900000000E+03 0.  0.
<mgrwt>
<rscale>  0 0.63048458E+03</rscale>
<asrwt>0</asrwt>
<pdfrwt beam="1">  1        2 0.10299706E+00 0.63048458E+03</pdfrwt>
<pdfrwt beam="2">  1       -2 0.19691013E-01 0.63048458E+03</pdfrwt>
<totfact> 0.95392063E+02</totfact>
</mgrwt>
</event>
<event>
 4    1  0.4915183E-005  0.7093843E+03  0.7818608E-02  0.9701317E-01
          2   -1    0    0  501    0  0.00000000000E+00  0.00000000000E+00  0.19947108282E+04  0.19947108282E+04  0.25500000000E-02 0.  1.
         -2   -1    0    0    0  501 -0.00000000000E+00 -0.00000000000E+00 -0.63070047321E+02  0.63070047373E+02  0.25500000000E-02 0. -1.
    5000001    1    1    2    0    0 -0.11019518472E+02 -0.19692459032E+03  0.33490647823E+03  0.43665097414E+03  0.19900000000E+03 0.  0.
   -5000001    1    1    2    0    0  0.11019518472E+02  0.19692459032E+03  0.15967343026E+04  0.16211299014E+04  0.19900000000E+03 0.  0.
<mgrwt>
<rscale>  0 0.70938426E+03</rscale>
<asrwt>0</asrwt>
<pdfrwt beam="1">  1        2 0.28495871E+00 0.70938426E+03</pdfrwt>
<pdfrwt beam="2">  1       -2 0.90100062E-02 0.70938426E+03</pdfrwt>
<totfact> 0.67078608E+02</totfact>
</mgrwt>
</event>
<event>
 4    1  0.4915183E-005  0.1013114E+04  0.7818608E-02  0.9294277E-01
          2   -1    0    0  501    0  0.00000000000E+00  0.00000000000E+00  0.44475120705E+03  0.44475120706E+03  0.25500000000E-02 0.  1.
         -2   -1    0    0    0  501 -0.00000000000E+00 -0.00000000000E+00 -0.57695208129E+03  0.57695208129E+03  0.25500000000E-02 0. -1.
    5000001    1    1    2    0    0 -0.39072590139E+03  0.87403722099E+02  0.17402106517E+03  0.47978169179E+03  0.19900000000E+03 0.  0.
   -5000001    1    1    2    0    0  0.39072590139E+03 -0.87403722099E+02 -0.30622193940E+03  0.54192159656E+03  0.19900000000E+03 0.  0.
<mgrwt>
<rscale>  0 0.10131143E+04</rscale>
<asrwt>0</asrwt>
<pdfrwt beam="1">  1        2 0.63535887E-01 0.10131143E+04</pdfrwt>
<pdfrwt beam="2">  1       -2 0.82421726E-01 0.10131143E+04</pdfrwt>
<totfact> 0.99034971E+01</totfact>
</mgrwt>
</event>
<event>
 4    1  0.4915183E-005  0.1127850E+04  0.7818608E-02  0.9178464E-01
         -2   -1    0    0    0  501 -0.00000000000E+00  0.00000000000E+00  0.24971265606E+03  0.24971265608E+03  0.25500000000E-02 0. -1.
          2   -1    0    0  501    0  0.00000000000E+00 -0.00000000000E+00 -0.12735097795E+04  0.12735097795E+04  0.25500000000E-02 0.  1.
    5000001    1    1    2    0    0 -0.42357890399E+03  0.30826085576E+03 -0.59695843978E+03  0.81878215780E+03  0.19900000000E+03 0.  0.
   -5000001    1    1    2    0    0  0.42357890399E+03 -0.30826085576E+03 -0.42683868368E+03  0.70444027780E+03  0.19900000000E+03 0.  0.
<mgrwt>
<rscale>  0 0.11278502E+04</rscale>
<asrwt>0</asrwt>
<pdfrwt beam="1">  1        2 0.18192997E+00 0.11278502E+04</pdfrwt>
<pdfrwt beam="2">  1       -2 0.35673237E-01 0.11278502E+04</pdfrwt>
<totfact> 0.14198147E+02</totfact>
</mgrwt>
</event>
<event>
 4    1  0.4915183E-005  0.4377476E+03  0.7818608E-02  0.1031440E+00
         -2   -1    0    0    0  501 -0.00000000000E+00  0.00000000000E+00  0.31828102189E+02  0.31828102291E+02  0.25500000000E-02 0. -1.
          2   -1    0    0  501    0  0.00000000000E+00 -0.00000000000E+00 -0.15051399634E+04  0.15051399634E+04  0.25500000000E-02 0.  1.
    5000001    1    1    2    0    0 -0.52579639536E+02 -0.71846239754E+02 -0.66837029720E+03  0.70302656767E+03  0.19900000000E+03 0.  0.
   -5000001    1    1    2    0    0  0.52579639536E+02  0.71846239754E+02 -0.80494156396E+03  0.83394149798E+03  0.19900000000E+03 0.  0.
<mgrwt>
<rscale>  0 0.43774764E+03</rscale>
<asrwt>0</asrwt>
<pdfrwt beam="1">  1        2 0.21501995E+00 0.43774764E+03</pdfrwt>
<pdfrwt beam="2">  1       -2 0.45468727E-02 0.43774764E+03</pdfrwt>
<totfact> 0.35144208E+03</totfact>
</mgrwt>
</event>
<event>
 4    1  0.4915183E-005  0.6110751E+03  0.7818608E-02  0.9882692E-01
          2   -1    0    0  501    0  0.00000000000E+00  0.00000000000E+00  0.30797098561E+04  0.30797098561E+04  0.25500000000E-02 0.  1.
         -2   -1    0    0    0  501 -0.00000000000E+00 -0.00000000000E+00 -0.30312330434E+02  0.30312330542E+02  0.25500000000E-02 0. -1.
    5000001    1    1    2    0    0  0.14075408884E+03  0.18307648332E+03  0.16294310549E+04  0.16577018052E+04  0.19900000000E+03 0.  0.
   -5000001    1    1    2    0    0 -0.14075408884E+03 -0.18307648332E+03  0.14199664708E+04  0.14523203814E+04  0.19900000000E+03 0.  0.
<mgrwt>
<rscale>  0 0.61107506E+03</rscale>
<asrwt>0</asrwt>
<pdfrwt beam="1">  1        2 0.43995839E+00 0.61107506E+03</pdfrwt>
<pdfrwt beam="2">  1       -2 0.43303345E-02 0.61107506E+03</pdfrwt>
<totfact> 0.58414116E+02</totfact>
</mgrwt>
</event>
<event>
 4    1  0.4915183E-005  0.1062310E+04  0.7818608E-02  0.9242726E-01
          2   -1    0    0  501    0  0.00000000000E+00  0.00000000000E+00  0.15067694552E+04  0.15067694552E+04  0.25500000000E-02 0.  1.
         -2   -1    0    0    0  501 -0.00000000000E+00 -0.00000000000E+00 -0.18723882034E+03  0.18723882036E+03  0.25500000000E-02 0. -1.
    5000001    1    1    2    0    0  0.46442289541E+03  0.13051897749E+03  0.50189615911E+03  0.72403355157E+03  0.19900000000E+03 0.  0.
   -5000001    1    1    2    0    0 -0.46442289541E+03 -0.13051897749E+03  0.81763447578E+03  0.96997472402E+03  0.19900000000E+03 0.  0.
<mgrwt>
<rscale>  0 0.10623102E+04</rscale>
<asrwt>0</asrwt>
<pdfrwt beam="1">  1        2 0.21525278E+00 0.10623102E+04</pdfrwt>
<pdfrwt beam="2">  1       -2 0.26748403E-01 0.10623102E+04</pdfrwt>
<totfact> 0.18255861E+02</totfact>
</mgrwt>
</event>
<event>
 4    1  0.4915183E-005  0.5663945E+03  0.7818608E-02  0.9977689E-01
         -2   -1    0    0    0  501 -0.00000000000E+00  0.00000000000E+00  0.78147154070E+02  0.78147154112E+02  0.25500000000E-02 0. -1.
          2   -1    0    0  501    0  0.00000000000E+00 -0.00000000000E+00 -0.10262777801E+04  0.10262777801E+04  0.25500000000E-02 0.  1.
    5000001    1    1    2    0    0  0.11643395356E+03 -0.16119748719E+03 -0.41063461638E+03  0.49775825818E+03  0.19900000000E+03 0.  0.
   -5000001    1    1    2    0    0 -0.11643395356E+03  0.16119748719E+03 -0.53749600963E+03  0.60666667601E+03  0.19900000000E+03 0.  0.
<mgrwt>
<rscale>  0 0.56639452E+03</rscale>
<asrwt>0</asrwt>
<pdfrwt beam="1">  1        2 0.14661110E+00 0.56639452E+03</pdfrwt>
<pdfrwt beam="2">  1       -2 0.11163880E-01 0.56639452E+03</pdfrwt>
<totfact> 0.15583991E+03</totfact>
</mgrwt>
</event>
<event>
 4    1  0.4915183E-005  0.7552481E+03  0.7818608E-02  0.9627153E-01
          2   -1    0    0  501    0  0.00000000000E+00  0.00000000000E+00  0.16990815805E+04  0.16990815805E+04  0.25500000000E-02 0.  1.
         -2   -1    0    0    0  501 -0.00000000000E+00 -0.00000000000E+00 -0.83927650915E+02  0.83927650954E+02  0.25500000000E-02 0. -1.
    5000001    1    1    2    0    0 -0.12340305978E+03  0.22156836630E+03  0.12718744614E+04  0.13120924136E+04  0.19900000000E+03 0.  0.
   -5000001    1    1    2    0    0  0.12340305978E+03 -0.22156836630E+03  0.34327946813E+03  0.47091681786E+03  0.19900000000E+03 0.  0.
<mgrwt>
<rscale>  0 0.75524811E+03</rscale>
<asrwt>0</asrwt>
<pdfrwt beam="1">  1        2 0.24272595E+00 0.75524811E+03</pdfrwt>
<pdfrwt beam="2">  1       -2 0.11989664E-01 0.75524811E+03</pdfrwt>
<totfact> 0.59289796E+02</totfact>
</mgrwt>
</event>
<event>
 4    1  0.4915183E-005  0.7656399E+03  0.7818608E-02  0.9611128E-01
         -2   -1    0    0    0  501 -0.00000000000E+00  0.00000000000E+00  0.32208680686E+03  0.32208680687E+03  0.25500000000E-02 0. -1.
          2   -1    0    0  501    0  0.00000000000E+00 -0.00000000000E+00 -0.45500496507E+03  0.45500496508E+03  0.25500000000E-02 0.  1.
    5000001    1    1    2    0    0  0.31631474348E+03 -0.82171323982E+02 -0.54323954539E+02  0.38647022585E+03  0.19900000000E+03 0.  0.
   -5000001    1    1    2    0    0 -0.31631474348E+03  0.82171323982E+02 -0.78594203671E+02  0.39062154610E+03  0.19900000000E+03 0.  0.
<mgrwt>
<rscale>  0 0.76563985E+03</rscale>
<asrwt>0</asrwt>
<pdfrwt beam="1">  1        2 0.65000709E-01 0.76563985E+03</pdfrwt>
<pdfrwt beam="2">  1       -2 0.46012401E-01 0.76563985E+03</pdfrwt>
<totfact> 0.33712851E+02</totfact>
</mgrwt>
</event>
<event>
 4    1  0.4915183E-005  0.7592486E+03  0.7818608E-02  0.9620951E-01
         -2   -1    0    0    0  501 -0.00000000000E+00  0.00000000000E+00  0.30290661285E+02  0.30290661393E+02  0.25500000000E-02 0. -1.
          2   -1    0    0  501    0  0.00000000000E+00 -0.00000000000E+00 -0.47577243794E+04  0.47577243794E+04  0.25500000000E-02 0.  1.
    5000001    1    1    2    0    0 -0.28199574174E+03  0.14445252735E+03 -0.27687672910E+04  0.27939329703E+04  0.19900000000E+03 0.  0.
   -5000001    1    1    2    0    0  0.28199574174E+03 -0.14445252735E+03 -0.19586664272E+04  0.19940820705E+04  0.19900000000E+03 0.  0.
<mgrwt>
<rscale>  0 0.75924862E+03</rscale>
<asrwt>0</asrwt>
<pdfrwt beam="1">  1        2 0.67967443E+00 0.75924862E+03</pdfrwt>
<pdfrwt beam="2">  1       -2 0.43272404E-02 0.75924862E+03</pdfrwt>
<totfact> 0.42923147E+01</totfact>
</mgrwt>
</event>
<event>
 4    1  0.4915183E-005  0.7237139E+03  0.7818608E-02  0.9677516E-01
          2   -1    0    0  501    0  0.00000000000E+00  0.00000000000E+00  0.71291830040E+03  0.71291830041E+03  0.25500000000E-02 0.  1.
         -2   -1    0    0    0  501 -0.00000000000E+00 -0.00000000000E+00 -0.18366823692E+03  0.18366823694E+03  0.25500000000E-02 0. -1.
    5000001    1    1    2    0    0  0.24934262680E+03  0.15987601134E+03  0.19021693134E+03  0.40437057943E+03  0.19900000000E+03 0.  0.
   -5000001    1    1    2    0    0 -0.24934262680E+03 -0.15987601134E+03  0.33903313214E+03  0.49221595791E+03  0.19900000000E+03 0.  0.
<mgrwt>
<rscale>  0 0.72371389E+03</rscale>
<asrwt>0</asrwt>
<pdfrwt beam="1">  1        2 0.10184547E+00 0.72371389E+03</pdfrwt>
<pdfrwt beam="2">  1       -2 0.26238319E-01 0.72371389E+03</pdfrwt>
<totfact> 0.57962975E+02</totfact>
</mgrwt>
</event>
<event>
 4    1  0.4915183E-005  0.6239685E+03  0.7818608E-02  0.9856890E-01
         -2   -1    0    0    0  501 -0.00000000000E+00  0.00000000000E+00  0.91602034634E+02  0.91602034670E+02  0.25500000000E-02 0. -1.
          2   -1    0    0  501    0  0.00000000000E+00 -0.00000000000E+00 -0.10625766741E+04  0.10625766741E+04  0.25500000000E-02 0.  1.
    5000001    1    1    2    0    0  0.39831383536E+01  0.24022393542E+03 -0.47970240213E+03  0.57222268318E+03  0.19900000000E+03 0.  0.
   -5000001    1    1    2    0    0 -0.39831383536E+01 -0.24022393542E+03 -0.49127223734E+03  0.58195602559E+03  0.19900000000E+03 0.  0.
<mgrwt>
<rscale>  0 0.62396854E+03</rscale>
<asrwt>0</asrwt>
<pdfrwt beam="1">  1        2 0.15179666E+00 0.62396854E+03</pdfrwt>
<pdfrwt beam="2">  1       -2 0.13086006E-01 0.62396854E+03</pdfrwt>
<totfact> 0.11399288E+03</totfact>
</mgrwt>
</event>
<event>
 4    1  0.4915183E-005  0.5014082E+03  0.7818608E-02  0.1013412E+00
         -2   -1    0    0    0  501 -0.00000000000E+00  0.00000000000E+00  0.87786031715E+02  0.87786031752E+02  0.25500000000E-02 0. -1.
          2   -1    0    0  501    0  0.00000000000E+00 -0.00000000000E+00 -0.71597430120E+03  0.71597430120E+03  0.25500000000E-02 0.  1.
    5000001    1    1    2    0    0 -0.13376960547E+03  0.69950192119E+02 -0.34863160505E+03  0.42887332950E+03  0.19900000000E+03 0.  0.
   -5000001    1    1    2    0    0  0.13376960547E+03 -0.69950192119E+02 -0.27955666444E+03  0.37488700345E+03  0.19900000000E+03 0.  0.
<mgrwt>
<rscale>  0 0.50140819E+03</rscale>
<asrwt>0</asrwt>
<pdfrwt beam="1">  1        2 0.10228204E+00 0.50140819E+03</pdfrwt>
<pdfrwt beam="2">  1       -2 0.12540862E-01 0.50140819E+03</pdfrwt>
<totfact> 0.20653339E+03</totfact>
</mgrwt>
</event>
<event>
 4    1  0.4915183E-005  0.4404006E+03  0.7818608E-02  0.1030624E+00
          2   -1    0    0  501    0  0.00000000000E+00  0.00000000000E+00  0.43653936727E+03  0.43653936728E+03  0.25500000000E-02 0.  1.
         -2   -1    0    0    0  501 -0.00000000000E+00 -0.00000000000E+00 -0.11107399393E+03  0.11107399396E+03  0.25500000000E-02 0. -1.
    5000001    1    1    2    0    0  0.59728348148E+02  0.61054899781E+02  0.21234585300E+03  0.30329348434E+03  0.19900000000E+03 0.  0.
   -5000001    1    1    2    0    0 -0.59728348148E+02 -0.61054899781E+02  0.11311952035E+03  0.24431987689E+03  0.19900000000E+03 0.  0.
<mgrwt>
<rscale>  0 0.44040060E+03</rscale>
<asrwt>0</asrwt>
<pdfrwt beam="1">  1        2 0.62362766E-01 0.44040060E+03</pdfrwt>
<pdfrwt beam="2">  1       -2 0.15867714E-01 0.44040060E+03</pdfrwt>
<totfact> 0.24704904E+03</totfact>
</mgrwt>
</event>
<event>
 4    1  0.4915183E-005  0.6223495E+03  0.7818608E-02  0.9860093E-01
          2   -1    0    0  501    0  0.00000000000E+00  0.00000000000E+00  0.10231321680E+04  0.10231321680E+04  0.25500000000E-02 0.  1.
         -2   -1    0    0    0  501 -0.00000000000E+00 -0.00000000000E+00 -0.94640483570E+02  0.94640483604E+02  0.25500000000E-02 0. -1.
    5000001    1    1    2    0    0 -0.18936345223E+03  0.14513901766E+03  0.49560595881E+03  0.58493599470E+03  0.19900000000E+03 0.  0.
   -5000001    1    1    2    0    0  0.18936345223E+03 -0.14513901766E+03  0.43288572557E+03  0.53283665685E+03  0.19900000000E+03 0.  0.
<mgrwt>
<rscale>  0 0.62234949E+03</rscale>
<asrwt>0</asrwt>
<pdfrwt beam="1">  1        2 0.14616173E+00 0.62234949E+03</pdfrwt>
<pdfrwt beam="2">  1       -2 0.13520069E-01 0.62234949E+03</pdfrwt>
<totfact> 0.11399324E+03</totfact>
</mgrwt>
</event>
<event>
 4    1  0.4915183E-005  0.1737780E+04  0.7818608E-02  0.8740105E-01
         -2   -1    0    0    0  501 -0.00000000000E+00  0.00000000000E+00  0.75608734021E+03  0.75608734021E+03  0.25500000000E-02 0. -1.
          2   -1    0    0  501    0  0.00000000000E+00 -0.00000000000E+00 -0.99852231160E+03  0.99852231160E+03  0.25500000000E-02 0.  1.
    5000001    1    1    2    0    0 -0.48349804357E+03 -0.42356856541E+03 -0.67625781039E+03  0.95399492339E+03  0.19900000000E+03 0.  0.
   -5000001    1    1    2    0    0  0.48349804357E+03  0.42356856541E+03  0.43382283900E+03  0.80061472843E+03  0.19900000000E+03 0.  0.
<mgrwt>
<rscale>  0 0.17377803E+04</rscale>
<asrwt>0</asrwt>
<pdfrwt beam="1">  1        2 0.14264604E+00 0.17377803E+04</pdfrwt>
<pdfrwt beam="2">  1       -2 0.10801248E+00 0.17377803E+04</pdfrwt>
<totfact> 0.18390415E+01</totfact>
</mgrwt>
</event>
<event>
 4    1  0.4915183E-005  0.5195117E+03  0.7818608E-02  0.1008808E+00
          2   -1    0    0  501    0  0.00000000000E+00  0.00000000000E+00  0.12086833720E+04  0.12086833720E+04  0.25500000000E-02 0.  1.
         -2   -1    0    0    0  501 -0.00000000000E+00 -0.00000000000E+00 -0.55823645873E+02  0.55823645932E+02  0.25500000000E-02 0. -1.
    5000001    1    1    2    0    0  0.15307163804E+02 -0.14222917266E+03  0.78593557918E+03  0.82326130812E+03  0.19900000000E+03 0.  0.
   -5000001    1    1    2    0    0 -0.15307163804E+02  0.14222917266E+03  0.36692414692E+03  0.44124570979E+03  0.19900000000E+03 0.  0.
<mgrwt>
<rscale>  0 0.51951174E+03</rscale>
<asrwt>0</asrwt>
<pdfrwt beam="1">  1        2 0.17266904E+00 0.51951174E+03</pdfrwt>
<pdfrwt beam="2">  1       -2 0.79748073E-02 0.51951174E+03</pdfrwt>
<totfact> 0.21042536E+03</totfact>
</mgrwt>
</event>
<event>
 4    1  0.4915183E-005  0.8100749E+03  0.7818608E-02  0.9545548E-01
         -2   -1    0    0    0  501 -0.00000000000E+00  0.00000000000E+00  0.17733996410E+03  0.17733996412E+03  0.25500000000E-02 0. -1.
          2   -1    0    0  501    0  0.00000000000E+00 -0.00000000000E+00 -0.92508945119E+03  0.92508945119E+03  0.25500000000E-02 0.  1.
    5000001    1    1    2    0    0  0.31735419521E+03 -0.37509823272E+02 -0.57725348496E+03  0.68916127137E+03  0.19900000000E+03 0.  0.
   -5000001    1    1    2    0    0 -0.31735419521E+03  0.37509823272E+02 -0.17049600213E+03  0.41326814395E+03  0.19900000000E+03 0.  0.
<mgrwt>
<rscale>  0 0.81007489E+03</rscale>
<asrwt>0</asrwt>
<pdfrwt beam="1">  1        2 0.13215563E+00 0.81007489E+03</pdfrwt>
<pdfrwt beam="2">  1       -2 0.25334281E-01 0.81007489E+03</pdfrwt>
<totfact> 0.43918661E+02</totfact>
</mgrwt>
</event>
<event>
 4    1  0.4915183E-005  0.9571222E+03  0.7818608E-02  0.9356864E-01
          2   -1    0    0  501    0  0.00000000000E+00  0.00000000000E+00  0.22413440840E+03  0.22413440842E+03  0.25500000000E-02 0.  1.
         -2   -1    0    0    0  501 -0.00000000000E+00 -0.00000000000E+00 -0.10218008400E+04  0.10218008400E+04  0.25500000000E-02 0. -1.
    5000001    1    1    2    0    0 -0.80270808488E+02  0.38808173926E+03 -0.63303595532E+03  0.77290773044E+03  0.19900000000E+03 0.  0.
   -5000001    1    1    2    0    0  0.80270808488E+02 -0.38808173926E+03 -0.16463047625E+03  0.47302751796E+03  0.19900000000E+03 0.  0.
<mgrwt>
<rscale>  0 0.95712220E+03</rscale>
<asrwt>0</asrwt>
<pdfrwt beam="1">  1        2 0.32019202E-01 0.95712220E+03</pdfrwt>
<pdfrwt beam="2">  1       -2 0.14597155E+00 0.95712220E+03</pdfrwt>
<totfact> 0.53263908E+01</totfact>
</mgrwt>
</event>
<event>
 4    1  0.4915183E-005  0.1830332E+04  0.7818608E-02  0.8690334E-01
          2   -1    0    0  501    0  0.00000000000E+00  0.00000000000E+00  0.18549742611E+04  0.18549742611E+04  0.25500000000E-02 0.  1.
         -2   -1    0    0    0  501 -0.00000000000E+00 -0.00000000000E+00 -0.45150407238E+03  0.45150407239E+03  0.25500000000E-02 0. -1.
    5000001    1    1    2    0    0 -0.43285868221E+03  0.27993634892E+03 -0.21756135820E+03  0.59385599500E+03  0.19900000000E+03 0.  0.
   -5000001    1    1    2    0    0  0.43285868221E+03 -0.27993634892E+03  0.16210315469E+04  0.17126223385E+04  0.19900000000E+03 0.  0.
<mgrwt>
<rscale>  0 0.18303316E+04</rscale>
<asrwt>0</asrwt>
<pdfrwt beam="1">  1        2 0.26499633E+00 0.18303316E+04</pdfrwt>
<pdfrwt beam="2">  1       -2 0.64500580E-01 0.18303316E+04</pdfrwt>
<totfact> 0.19984935E+01</totfact>
</mgrwt>
</event>
<event>
 4    1  0.4915183E-005  0.5982482E+03  0.7818608E-02  0.9909047E-01
         -2   -1    0    0    0  501 -0.00000000000E+00  0.00000000000E+00  0.64628027726E+02  0.64628027776E+02  0.25500000000E-02 0. -1.
          2   -1    0    0  501    0  0.00000000000E+00 -0.00000000000E+00 -0.13844647977E+04  0.13844647977E+04  0.25500000000E-02 0.  1.
    5000001    1    1    2    0    0 -0.77736405146E+02 -0.18722649035E+03 -0.88685300970E+03  0.93123894258E+03  0.19900000000E+03 0.  0.
   -5000001    1    1    2    0    0  0.77736405146E+02  0.18722649035E+03 -0.43298376032E+03  0.51785388294E+03  0.19900000000E+03 0.  0.
<mgrwt>
<rscale>  0 0.59824821E+03</rscale>
<asrwt>0</asrwt>
<pdfrwt beam="1">  1        2 0.19778067E+00 0.59824821E+03</pdfrwt>
<pdfrwt beam="2">  1       -2 0.92325762E-02 0.59824821E+03</pdfrwt>
<totfact> 0.13337502E+03</totfact>
</mgrwt>
</event>
<event>
 4    1  0.4915183E-005  0.5306084E+03  0.7818608E-02  0.1006085E+00
         -2   -1    0    0    0  501 -0.00000000000E+00  0.00000000000E+00  0.22618307113E+03  0.22618307115E+03  0.25500000000E-02 0. -1.
          2   -1    0    0  501    0  0.00000000000E+00 -0.00000000000E+00 -0.31119185325E+03  0.31119185326E+03  0.25500000000E-02 0.  1.
    5000001    1    1    2    0    0  0.15381181949E+03 -0.61532540714E+02 -0.10104287385E+03  0.27794782197E+03  0.19900000000E+03 0.  0.
   -5000001    1    1    2    0    0 -0.15381181949E+03  0.61532540714E+02  0.16034091730E+02  0.25942710244E+03  0.19900000000E+03 0.  0.
<mgrwt>
<rscale>  0 0.53060844E+03</rscale>
<asrwt>0</asrwt>
<pdfrwt beam="1">  1        2 0.44455979E-01 0.53060844E+03</pdfrwt>
<pdfrwt beam="2">  1       -2 0.32311867E-01 0.53060844E+03</pdfrwt>
<totfact> 0.10224095E+03</totfact>
</mgrwt>
</event>
<event>
 4    1  0.4915183E-005  0.5018224E+03  0.7818608E-02  0.1013304E+00
         -2   -1    0    0    0  501 -0.00000000000E+00  0.00000000000E+00  0.40823128024E+03  0.40823128025E+03  0.25500000000E-02 0. -1.
          2   -1    0    0  501    0  0.00000000000E+00 -0.00000000000E+00 -0.15421758619E+03  0.15421758621E+03  0.25500000000E-02 0.  1.
    5000001    1    1    2    0    0  0.14065390132E+03  0.83930559245E+01  0.60684674782E+02  0.25127195048E+03  0.19900000000E+03 0.  0.
   -5000001    1    1    2    0    0 -0.14065390132E+03 -0.83930559245E+01  0.19332901928E+03  0.31117691598E+03  0.19900000000E+03 0.  0.
<mgrwt>
<rscale>  0 0.50182245E+03</rscale>
<asrwt>0</asrwt>
<pdfrwt beam="1">  1        2 0.22031084E-01 0.50182245E+03</pdfrwt>
<pdfrwt beam="2">  1       -2 0.58318755E-01 0.50182245E+03</pdfrwt>
<totfact> 0.70172842E+02</totfact>
</mgrwt>
</event>
<event>
 4    1  0.4915183E-005  0.5900912E+03  0.7818608E-02  0.9926180E-01
          2   -1    0    0  501    0  0.00000000000E+00  0.00000000000E+00  0.15262791203E+04  0.15262791203E+04  0.25500000000E-02 0.  1.
         -2   -1    0    0    0  501 -0.00000000000E+00 -0.00000000000E+00 -0.57035376622E+02  0.57035376679E+02  0.25500000000E-02 0. -1.
    5000001    1    1    2    0    0 -0.11448392347E+03  0.18462367987E+03  0.77775606800E+03  0.83168381805E+03  0.19900000000E+03 0.  0.
   -5000001    1    1    2    0    0  0.11448392347E+03 -0.18462367987E+03  0.69148767573E+03  0.75163067898E+03  0.19900000000E+03 0.  0.
<mgrwt>
<rscale>  0 0.59009119E+03</rscale>
<asrwt>0</asrwt>
<pdfrwt beam="1">  1        2 0.21803985E+00 0.59009119E+03</pdfrwt>
<pdfrwt beam="2">  1       -2 0.81479120E-02 0.59009119E+03</pdfrwt>
<totfact> 0.13730466E+03</totfact>
</mgrwt>
</event>
<event>
 4    1  0.4915183E-005  0.4320877E+03  0.7818608E-02  0.1033203E+00
          2   -1    0    0  501    0  0.00000000000E+00  0.00000000000E+00  0.24794623848E+04  0.24794623848E+04  0.25500000000E-02 0.  1.
         -2   -1    0    0    0  501 -0.00000000000E+00 -0.00000000000E+00 -0.18824619773E+02  0.18824619946E+02  0.25500000000E-02 0. -1.
    5000001    1    1    2    0    0  0.63820084735E+02 -0.88102156745E+01  0.15429327053E+04  0.15570462281E+04  0.19900000000E+03 0.  0.
   -5000001    1    1    2    0    0 -0.63820084735E+02  0.88102156745E+01  0.91770505964E+03  0.94124077664E+03  0.19900000000E+03 0.  0.
<mgrwt>
<rscale>  0 0.43208766E+03</rscale>
<asrwt>0</asrwt>
<pdfrwt beam="1">  1        2 0.35420886E+00 0.43208766E+03</pdfrwt>
<pdfrwt beam="2">  1       -2 0.26892318E-02 0.43208766E+03</pdfrwt>
<totfact> 0.25338909E+03</totfact>
</mgrwt>
</event>
<event>
 4    1  0.4915183E-005  0.5732425E+03  0.7818608E-02  0.9962529E-01
         -2   -1    0    0    0  501 -0.00000000000E+00  0.00000000000E+00  0.96261732434E+02  0.96261732467E+02  0.25500000000E-02 0. -1.
          2   -1    0    0  501    0  0.00000000000E+00 -0.00000000000E+00 -0.85342066569E+03  0.85342066570E+03  0.25500000000E-02 0.  1.
    5000001    1    1    2    0    0 -0.83300090502E+02  0.18669957961E+03 -0.33305486546E+03  0.43854552957E+03  0.19900000000E+03 0.  0.
   -5000001    1    1    2    0    0  0.83300090502E+02 -0.18669957961E+03 -0.42410406780E+03  0.51113686859E+03  0.19900000000E+03 0.  0.
<mgrwt>
<rscale>  0 0.57324254E+03</rscale>
<asrwt>0</asrwt>
<pdfrwt beam="1">  1        2 0.12191723E+00 0.57324254E+03</pdfrwt>
<pdfrwt beam="2">  1       -2 0.13751677E-01 0.57324254E+03</pdfrwt>
<totfact> 0.14196735E+03</totfact>
</mgrwt>
</event>
<event>
 4    1  0.4915183E-005  0.4496670E+03  0.7818608E-02  0.1027821E+00
         -2   -1    0    0    0  501 -0.00000000000E+00  0.00000000000E+00  0.21738567118E+02  0.21738567268E+02  0.25500000000E-02 0. -1.
          2   -1    0    0  501    0  0.00000000000E+00 -0.00000000000E+00 -0.23253649662E+04  0.23253649662E+04  0.25500000000E-02 0.  1.
    5000001    1    1    2    0    0  0.43361097882E+02  0.77349738753E+02 -0.14417709126E+04  0.14581383786E+04  0.19900000000E+03 0.  0.
   -5000001    1    1    2    0    0 -0.43361097882E+02 -0.77349738753E+02 -0.86185548657E+03  0.88896515490E+03  0.19900000000E+03 0.  0.
<mgrwt>
<rscale>  0 0.44966700E+03</rscale>
<asrwt>0</asrwt>
<pdfrwt beam="1">  1        2 0.33219484E+00 0.44966700E+03</pdfrwt>
<pdfrwt beam="2">  1       -2 0.31055111E-02 0.44966700E+03</pdfrwt>
<totfact> 0.24370749E+03</totfact>
</mgrwt>
</event>
<event>
 4    1  0.4915183E-005  0.2004471E+04  0.7818608E-02  0.8604533E-01
          2   -1    0    0  501    0  0.00000000000E+00  0.00000000000E+00  0.12612772482E+04  0.12612772482E+04  0.25500000000E-02 0.  1.
         -2   -1    0    0    0  501 -0.00000000000E+00 -0.00000000000E+00 -0.79639586402E+03  0.79639586403E+03  0.25500000000E-02 0. -1.
    5000001    1    1    2    0    0  0.21832125166E+02 -0.93843876949E+03 -0.64602630575E+02  0.96172681446E+03  0.19900000000E+03 0.  0.
   -5000001    1    1    2    0    0 -0.21832125166E+02  0.93843876949E+03  0.52948401480E+03  0.10959462978E+04  0.19900000000E+03 0.  0.
<mgrwt>
<rscale>  0 0.20044710E+04</rscale>
<asrwt>0</asrwt>
<pdfrwt beam="1">  1        2 0.18018246E+00 0.20044710E+04</pdfrwt>
<pdfrwt beam="2">  1       -2 0.11377084E+00 0.20044710E+04</pdfrwt>
<totfact> 0.11138712E+01</totfact>
</mgrwt>
</event>
<event>
 4    1  0.4915183E-005  0.1215542E+04  0.7818608E-02  0.9099361E-01
         -2   -1    0    0    0  501 -0.00000000000E+00  0.00000000000E+00  0.39763377958E+03  0.39763377958E+03  0.25500000000E-02 0. -1.
          2   -1    0    0  501    0  0.00000000000E+00 -0.00000000000E+00 -0.92895894527E+03  0.92895894528E+03  0.25500000000E-02 0.  1.
    5000001    1    1    2    0    0 -0.39738194628E+03 -0.27360769953E+03 -0.60558352643E+03  0.79944104971E+03  0.19900000000E+03 0.  0.
   -5000001    1    1    2    0    0  0.39738194628E+03  0.27360769953E+03  0.74258360734E+02  0.52715167515E+03  0.19900000000E+03 0.  0.
<mgrwt>
<rscale>  0 0.12155418E+04</rscale>
<asrwt>0</asrwt>
<pdfrwt beam="1">  1        2 0.13270842E+00 0.12155418E+04</pdfrwt>
<pdfrwt beam="2">  1       -2 0.56804826E-01 0.12155418E+04</pdfrwt>
<totfact> 0.89262162E+01</totfact>
</mgrwt>
</event>
<event>
 4    1  0.4915183E-005  0.5058021E+03  0.7818608E-02  0.1012275E+00
         -2   -1    0    0    0  501 -0.00000000000E+00  0.00000000000E+00  0.27988201310E+02  0.27988201426E+02  0.25500000000E-02 0. -1.
          2   -1    0    0  501    0  0.00000000000E+00 -0.00000000000E+00 -0.22852111066E+04  0.22852111066E+04  0.25500000000E-02 0.  1.
    5000001    1    1    2    0    0  0.10669857785E+03  0.11389997238E+03 -0.11267912958E+04  0.11548235425E+04  0.19900000000E+03 0.  0.
   -5000001    1    1    2    0    0 -0.10669857785E+03 -0.11389997238E+03 -0.11304316095E+04  0.11583757654E+04  0.19900000000E+03 0.  0.
<mgrwt>
<rscale>  0 0.50580213E+03</rscale>
<asrwt>0</asrwt>
<pdfrwt beam="1">  1        2 0.32645861E+00 0.50580213E+03</pdfrwt>
<pdfrwt beam="2">  1       -2 0.39983159E-02 0.50580213E+03</pdfrwt>
<totfact> 0.17333104E+03</totfact>
</mgrwt>
</event>
<event>
 4    1  0.4915183E-005  0.7169050E+03  0.7818608E-02  0.9688751E-01
          2   -1    0    0  501    0  0.00000000000E+00  0.00000000000E+00  0.26600930068E+04  0.26600930068E+04  0.25500000000E-02 0.  1.
         -2   -1    0    0    0  501 -0.00000000000E+00 -0.00000000000E+00 -0.48302147746E+02  0.48302147813E+02  0.25500000000E-02 0. -1.
    5000001    1    1    2    0    0 -0.95459857901E+02 -0.17461948036E+03  0.21445777008E+04  0.21629653401E+04  0.19900000000E+03 0.  0.
   -5000001    1    1    2    0    0  0.95459857901E+02  0.17461948036E+03  0.46721315823E+03  0.54542981456E+03  0.19900000000E+03 0.  0.
<mgrwt>
<rscale>  0 0.71690503E+03</rscale>
<asrwt>0</asrwt>
<pdfrwt beam="1">  1        2 0.38001324E+00 0.71690503E+03</pdfrwt>
<pdfrwt beam="2">  1       -2 0.69003077E-02 0.71690503E+03</pdfrwt>
<totfact> 0.46915370E+02</totfact>
</mgrwt>
</event>
<event>
 4    1  0.4915183E-005  0.7697508E+03  0.7818608E-02  0.9604864E-01
         -2   -1    0    0    0  501 -0.00000000000E+00  0.00000000000E+00  0.14003836060E+03  0.14003836062E+03  0.25500000000E-02 0. -1.
          2   -1    0    0  501    0  0.00000000000E+00 -0.00000000000E+00 -0.10577750595E+04  0.10577750595E+04  0.25500000000E-02 0.  1.
    5000001    1    1    2    0    0 -0.81043838073E+01 -0.27042701136E+03 -0.16637171018E+03  0.37480260866E+03  0.19900000000E+03 0.  0.
   -5000001    1    1    2    0    0  0.81043838073E+01  0.27042701136E+03 -0.75136498873E+03  0.82301081147E+03  0.19900000000E+03 0.  0.
<mgrwt>
<rscale>  0 0.76975083E+03</rscale>
<asrwt>0</asrwt>
<pdfrwt beam="1">  1        2 0.15111072E+00 0.76975083E+03</pdfrwt>
<pdfrwt beam="2">  1       -2 0.20005481E-01 0.76975083E+03</pdfrwt>
<totfact> 0.55418948E+02</totfact>
</mgrwt>
</event>
<event>
 4    1  0.4915183E-005  0.7769274E+03  0.7818608E-02  0.9594027E-01
          2   -1    0    0  501    0  0.00000000000E+00  0.00000000000E+00  0.21384867904E+03  0.21384867905E+03  0.25500000000E-02 0.  1.
         -2   -1    0    0    0  501 -0.00000000000E+00 -0.00000000000E+00 -0.70565815235E+03  0.70565815236E+03  0.25500000000E-02 0. -1.
    5000001    1    1    2    0    0 -0.12543696967E+03  0.24736550408E+03 -0.46534722731E+03  0.57712491537E+03  0.19900000000E+03 0.  0.
   -5000001    1    1    2    0    0  0.12543696967E+03 -0.24736550408E+03 -0.26462246002E+02  0.34238191604E+03  0.19900000000E+03 0.  0.
<mgrwt>
<rscale>  0 0.77692745E+03</rscale>
<asrwt>0</asrwt>
<pdfrwt beam="1">  1        2 0.30549812E-01 0.77692745E+03</pdfrwt>
<pdfrwt beam="2">  1       -2 0.10080831E+00 0.77692745E+03</pdfrwt>
<totfact> 0.14240713E+02</totfact>
</mgrwt>
</event>
<event>
 4    1  0.4915183E-005  0.5775154E+03  0.7818608E-02  0.9953185E-01
          2   -1    0    0  501    0  0.00000000000E+00  0.00000000000E+00  0.10644090162E+04  0.10644090162E+04  0.25500000000E-02 0.  1.
         -2   -1    0    0    0  501 -0.00000000000E+00 -0.00000000000E+00 -0.78335495731E+02  0.78335495772E+02  0.25500000000E-02 0. -1.
    5000001    1    1    2    0    0 -0.15653183120E+03  0.13868607589E+03  0.50615709113E+03  0.58269378126E+03  0.19900000000E+03 0.  0.
   -5000001    1    1    2    0    0  0.15653183120E+03 -0.13868607589E+03  0.47991642937E+03  0.56005073074E+03  0.19900000000E+03 0.  0.
<mgrwt>
<rscale>  0 0.57751540E+03</rscale>
<asrwt>0</asrwt>
<pdfrwt beam="1">  1        2 0.15205842E+00 0.57751540E+03</pdfrwt>
<pdfrwt beam="2">  1       -2 0.11190786E-01 0.57751540E+03</pdfrwt>
<totfact> 0.14729892E+03</totfact>
</mgrwt>
</event>
<event>
 4    1  0.4915183E-005  0.5668508E+03  0.7818608E-02  0.9976672E-01
          2   -1    0    0  501    0  0.00000000000E+00  0.00000000000E+00  0.13533209131E+04  0.13533209131E+04  0.25500000000E-02 0.  1.
         -2   -1    0    0    0  501 -0.00000000000E+00 -0.00000000000E+00 -0.59357653424E+02  0.59357653479E+02  0.25500000000E-02 0. -1.
    5000001    1    1    2    0    0  0.14091659348E+03 -0.12405002110E+03  0.46244351067E+03  0.53730893777E+03  0.19900000000E+03 0.  0.
   -5000001    1    1    2    0    0 -0.14091659348E+03  0.12405002110E+03  0.83151974904E+03  0.87536962884E+03  0.19900000000E+03 0.  0.
<mgrwt>
<rscale>  0 0.56685079E+03</rscale>
<asrwt>0</asrwt>
<pdfrwt beam="1">  1        2 0.19333154E+00 0.56685079E+03</pdfrwt>
<pdfrwt beam="2">  1       -2 0.84796657E-02 0.56685079E+03</pdfrwt>
<totfact> 0.15899406E+03</totfact>
</mgrwt>
</event>
<event>
 4    1  0.4915183E-005  0.8775873E+03  0.7818608E-02  0.9454040E-01
         -2   -1    0    0    0  501 -0.00000000000E+00  0.00000000000E+00  0.11405378435E+03  0.11405378437E+03  0.25500000000E-02 0. -1.
          2   -1    0    0  501    0  0.00000000000E+00 -0.00000000000E+00 -0.16881498530E+04  0.16881498530E+04  0.25500000000E-02 0.  1.
    5000001    1    1    2    0    0  0.30031354887E+03 -0.22360814216E+03 -0.10189313330E+04  0.11036353067E+04  0.19900000000E+03 0.  0.
   -5000001    1    1    2    0    0 -0.30031354887E+03  0.22360814216E+03 -0.55516473565E+03  0.69856833065E+03  0.19900000000E+03 0.  0.
<mgrwt>
<rscale>  0 0.87758733E+03</rscale>
<asrwt>0</asrwt>
<pdfrwt beam="1">  1        2 0.24116425E+00 0.87758733E+03</pdfrwt>
<pdfrwt beam="2">  1       -2 0.16293399E-01 0.87758733E+03</pdfrwt>
<totfact> 0.35618532E+02</totfact>
</mgrwt>
</event>
<event>
 4    1  0.4915183E-005  0.8354465E+03  0.7818608E-02  0.9510081E-01
          2   -1    0    0  501    0  0.00000000000E+00  0.00000000000E+00  0.10667107554E+04  0.10667107554E+04  0.25500000000E-02 0.  1.
         -2   -1    0    0    0  501 -0.00000000000E+00 -0.00000000000E+00 -0.16358014481E+03  0.16358014483E+03  0.25500000000E-02 0. -1.
    5000001    1    1    2    0    0  0.56078576670E+02 -0.29166799656E+03  0.76972058228E+03  0.84869653102E+03  0.19900000000E+03 0.  0.
   -5000001    1    1    2    0    0 -0.56078576670E+02  0.29166799656E+03  0.13341002835E+03  0.38159436925E+03  0.19900000000E+03 0.  0.
<mgrwt>
<rscale>  0 0.83544647E+03</rscale>
<asrwt>0</asrwt>
<pdfrwt beam="1">  1        2 0.15238726E+00 0.83544647E+03</pdfrwt>
<pdfrwt beam="2">  1       -2 0.23368591E-01 0.83544647E+03</pdfrwt>
<totfact> 0.41474506E+02</totfact>
</mgrwt>
</event>
<event>
 4    1  0.4915183E-005  0.6040094E+03  0.7818608E-02  0.9897123E-01
          2   -1    0    0  501    0  0.00000000000E+00  0.00000000000E+00  0.57120762495E+02  0.57120762552E+02  0.25500000000E-02 0.  1.
         -2   -1    0    0    0  501 -0.00000000000E+00 -0.00000000000E+00 -0.15967370508E+04  0.15967370508E+04  0.25500000000E-02 0. -1.
    5000001    1    1    2    0    0 -0.84544418937E+02 -0.13580297664E+03 -0.32816483710E+03  0.41579245730E+03  0.19900000000E+03 0.  0.
   -5000001    1    1    2    0    0  0.84544418937E+02  0.13580297664E+03 -0.12114514512E+04  0.12380653561E+04  0.19900000000E+03 0.  0.
<mgrwt>
<rscale>  0 0.60400940E+03</rscale>
<asrwt>0</asrwt>
<pdfrwt beam="1">  1        2 0.81601100E-02 0.60400940E+03</pdfrwt>
<pdfrwt beam="2">  1       -2 0.22810526E+00 0.60400940E+03</pdfrwt>
<totfact> 0.78349629E+01</totfact>
</mgrwt>
</event>
<event>
 4    1  0.4915183E-005  0.5073027E+03  0.7818608E-02  0.1011890E+00
         -2   -1    0    0    0  501 -0.00000000000E+00  0.00000000000E+00  0.48333567160E+02  0.48333567227E+02  0.25500000000E-02 0. -1.
          2   -1    0    0  501    0  0.00000000000E+00 -0.00000000000E+00 -0.13311455797E+04  0.13311455797E+04  0.25500000000E-02 0.  1.
    5000001    1    1    2    0    0  0.10514953093E+03 -0.11070161894E+03 -0.53869412814E+03  0.59422524011E+03  0.19900000000E+03 0.  0.
   -5000001    1    1    2    0    0 -0.10514953093E+03  0.11070161894E+03 -0.74411788443E+03  0.78525390685E+03  0.19900000000E+03 0.  0.
<mgrwt>
<rscale>  0 0.50730273E+03</rscale>
<asrwt>0</asrwt>
<pdfrwt beam="1">  1        2 0.19016363E+00 0.50730273E+03</pdfrwt>
<pdfrwt beam="2">  1       -2 0.69047962E-02 0.50730273E+03</pdfrwt>
<totfact> 0.22660322E+03</totfact>
</mgrwt>
</event>
<event>
 4    1  0.4915183E-005  0.4707747E+03  0.7818608E-02  0.1021702E+00
          2   -1    0    0  501    0  0.00000000000E+00  0.00000000000E+00  0.13196300151E+03  0.13196300154E+03  0.25500000000E-02 0.  1.
         -2   -1    0    0    0  501 -0.00000000000E+00 -0.00000000000E+00 -0.41986932001E+03  0.41986932001E+03  0.25500000000E-02 0. -1.
    5000001    1    1    2    0    0 -0.85567596050E+02  0.94331708908E+01 -0.25135584075E+03  0.33195113629E+03  0.19900000000E+03 0.  0.
   -5000001    1    1    2    0    0  0.85567596050E+02 -0.94331708908E+01 -0.36550477744E+02  0.21988118526E+03  0.19900000000E+03 0.  0.
<mgrwt>
<rscale>  0 0.47077475E+03</rscale>
<asrwt>0</asrwt>
<pdfrwt beam="1">  1        2 0.18851858E-01 0.47077475E+03</pdfrwt>
<pdfrwt beam="2">  1       -2 0.59981331E-01 0.47077475E+03</pdfrwt>
<totfact> 0.79311080E+02</totfact>
</mgrwt>
</event>
<event>
 4    1  0.4915183E-005  0.6618102E+03  0.7818608E-02  0.9784867E-01
          2   -1    0    0  501    0  0.00000000000E+00  0.00000000000E+00  0.68248756890E+03  0.68248756891E+03  0.25500000000E-02 0.  1.
         -2   -1    0    0    0  501 -0.00000000000E+00 -0.00000000000E+00 -0.16043982123E+03  0.16043982125E+03  0.25500000000E-02 0. -1.
    5000001    1    1    2    0    0 -0.15069444133E+03  0.19387097558E+03  0.38583316599E+03  0.49876146784E+03  0.19900000000E+03 0.  0.
   -5000001    1    1    2    0    0  0.15069444133E+03 -0.19387097558E+03  0.13621458169E+03  0.34416592232E+03  0.19900000000E+03 0.  0.
<mgrwt>
<rscale>  0 0.66181020E+03</rscale>
<asrwt>0</asrwt>
<pdfrwt beam="1">  1        2 0.97498226E-01 0.66181020E+03</pdfrwt>
<pdfrwt beam="2">  1       -2 0.22919974E-01 0.66181020E+03</pdfrwt>
<totfact> 0.78079990E+02</totfact>
</mgrwt>
</event>
<event>
 4    1  0.4915183E-005  0.6341322E+03  0.7818608E-02  0.9837018E-01
         -2   -1    0    0    0  501 -0.00000000000E+00  0.00000000000E+00  0.23941050687E+03  0.23941050688E+03  0.25500000000E-02 0. -1.
          2   -1    0    0  501    0  0.00000000000E+00 -0.00000000000E+00 -0.41991017665E+03  0.41991017666E+03  0.25500000000E-02 0.  1.
    5000001    1    1    2    0    0  0.58662743438E+02 -0.10565044273E+03 -0.31403536243E+03  0.39092523885E+03  0.19900000000E+03 0.  0.
   -5000001    1    1    2    0    0 -0.58662743438E+02  0.10565044273E+03  0.13353569265E+03  0.26839544469E+03  0.19900000000E+03 0.  0.
<mgrwt>
<rscale>  0 0.63413219E+03</rscale>
<asrwt>0</asrwt>
<pdfrwt beam="1">  1        2 0.59987167E-01 0.63413219E+03</pdfrwt>
<pdfrwt beam="2">  1       -2 0.34201501E-01 0.63413219E+03</pdfrwt>
<totfact> 0.65893380E+02</totfact>
</mgrwt>
</event>
<event>
 4    1  0.4915183E-005  0.7103220E+03  0.7818608E-02  0.9699741E-01
          2   -1    0    0  501    0  0.00000000000E+00  0.00000000000E+00  0.30451652614E+03  0.30451652615E+03  0.25500000000E-02 0.  1.
         -2   -1    0    0    0  501 -0.00000000000E+00 -0.00000000000E+00 -0.41422826362E+03  0.41422826363E+03  0.25500000000E-02 0. -1.
    5000001    1    1    2    0    0 -0.10404881185E+03 -0.17306013831E+03 -0.27131391900E+03  0.39241331446E+03  0.19900000000E+03 0.  0.
   -5000001    1    1    2    0    0  0.10404881185E+03  0.17306013831E+03  0.16160218152E+03  0.32633147533E+03  0.19900000000E+03 0.  0.
<mgrwt>
<rscale>  0 0.71032204E+03</rscale>
<asrwt>0</asrwt>
<pdfrwt beam="1">  1        2 0.43502361E-01 0.71032204E+03</pdfrwt>
<pdfrwt beam="2">  1       -2 0.59175466E-01 0.71032204E+03</pdfrwt>
<totfact> 0.31552405E+02</totfact>
</mgrwt>
</event>
<event>
 4    1  0.4915183E-005  0.6951639E+03  0.7818608E-02  0.9725538E-01
          2   -1    0    0  501    0  0.00000000000E+00  0.00000000000E+00  0.28468444661E+03  0.28468444662E+03  0.25500000000E-02 0.  1.
         -2   -1    0    0    0  501 -0.00000000000E+00 -0.00000000000E+00 -0.42437587426E+03  0.42437587427E+03  0.25500000000E-02 0. -1.
    5000001    1    1    2    0    0  0.11921521338E+03 -0.17020161223E+03 -0.26876041117E+03  0.39371819175E+03  0.19900000000E+03 0.  0.
   -5000001    1    1    2    0    0 -0.11921521338E+03  0.17020161223E+03  0.12906898352E+03  0.31534212914E+03  0.19900000000E+03 0.  0.
<mgrwt>
<rscale>  0 0.69516390E+03</rscale>
<asrwt>0</asrwt>
<pdfrwt beam="1">  1        2 0.40669207E-01 0.69516390E+03</pdfrwt>
<pdfrwt beam="2">  1       -2 0.60625125E-01 0.69516390E+03</pdfrwt>
<totfact> 0.32321085E+02</totfact>
</mgrwt>
</event>
<event>
 4    1  0.4915183E-005  0.1049051E+04  0.7818608E-02  0.9256325E-01
          2   -1    0    0  501    0  0.00000000000E+00  0.00000000000E+00  0.78694492627E+03  0.78694492627E+03  0.25500000000E-02 0.  1.
         -2   -1    0    0    0  501 -0.00000000000E+00 -0.00000000000E+00 -0.34961383952E+03  0.34961383953E+03  0.25500000000E-02 0. -1.
    5000001    1    1    2    0    0  0.36107722472E+03 -0.27641097997E+03  0.40235510332E+03  0.63896042228E+03  0.19900000000E+03 0.  0.
   -5000001    1    1    2    0    0 -0.36107722472E+03  0.27641097997E+03  0.34975983430E+02  0.49759834353E+03  0.19900000000E+03 0.  0.
<mgrwt>
<rscale>  0 0.10490507E+04</rscale>
<asrwt>0</asrwt>
<pdfrwt beam="1">  1        2 0.11242070E+00 0.10490507E+04</pdfrwt>
<pdfrwt beam="2">  1       -2 0.49944835E-01 0.10490507E+04</pdfrwt>
<totfact> 0.14660592E+02</totfact>
</mgrwt>
</event>
<event>
 4    1  0.4915183E-005  0.8935660E+03  0.7818608E-02  0.9433660E-01
          2   -1    0    0  501    0  0.00000000000E+00  0.00000000000E+00  0.11799502403E+04  0.11799502404E+04  0.25500000000E-02 0.  1.
         -2   -1    0    0    0  501 -0.00000000000E+00 -0.00000000000E+00 -0.16917241670E+03  0.16917241672E+03  0.25500000000E-02 0. -1.
    5000001    1    1    2    0    0  0.34049039716E+03  0.14824319786E+03  0.72986132680E+03  0.84273857905E+03  0.19900000000E+03 0.  0.
   -5000001    1    1    2    0    0 -0.34049039716E+03 -0.14824319786E+03  0.28091649685E+03  0.50638407802E+03  0.19900000000E+03 0.  0.
<mgrwt>
<rscale>  0 0.89356597E+03</rscale>
<asrwt>0</asrwt>
<pdfrwt beam="1">  1        2 0.16856431E+00 0.89356597E+03</pdfrwt>
<pdfrwt beam="2">  1       -2 0.24167489E-01 0.89356597E+03</pdfrwt>
<totfact> 0.33447112E+02</totfact>
</mgrwt>
</event>
<event>
 4    1  0.4915183E-005  0.5747816E+03  0.7818608E-02  0.9959153E-01
         -2   -1    0    0    0  501 -0.00000000000E+00  0.00000000000E+00  0.13206776557E+03  0.13206776559E+03  0.25500000000E-02 0. -1.
          2   -1    0    0  501    0  0.00000000000E+00 -0.00000000000E+00 -0.62538715528E+03  0.62538715528E+03  0.25500000000E-02 0.  1.
    5000001    1    1    2    0    0  0.16204428300E+03 -0.85459305242E+02 -0.11868351857E+03  0.29537843538E+03  0.19900000000E+03 0.  0.
   -5000001    1    1    2    0    0 -0.16204428300E+03  0.85459305242E+02 -0.37463587114E+03  0.46207648550E+03  0.19900000000E+03 0.  0.
<mgrwt>
<rscale>  0 0.57478164E+03</rscale>
<asrwt>0</asrwt>
<pdfrwt beam="1">  1        2 0.89341020E-01 0.57478164E+03</pdfrwt>
<pdfrwt beam="2">  1       -2 0.18866824E-01 0.57478164E+03</pdfrwt>
<totfact> 0.12212888E+03</totfact>
</mgrwt>
</event>
<event>
 4    1  0.4915183E-005  0.8382250E+03  0.7818608E-02  0.9506279E-01
          2   -1    0    0  501    0  0.00000000000E+00  0.00000000000E+00  0.48345759579E+04  0.48345759579E+04  0.25500000000E-02 0.  1.
         -2   -1    0    0    0  501 -0.00000000000E+00 -0.00000000000E+00 -0.36333128814E+02  0.36333128903E+02  0.25500000000E-02 0. -1.
    5000001    1    1    2    0    0  0.11867112369E+03  0.33130535488E+03  0.30411808130E+04  0.30679354314E+04  0.19900000000E+03 0.  0.
   -5000001    1    1    2    0    0 -0.11867112369E+03 -0.33130535488E+03  0.17570620160E+04  0.18029736554E+04  0.19900000000E+03 0.  0.
<mgrwt>
<rscale>  0 0.83822496E+03</rscale>
<asrwt>0</asrwt>
<pdfrwt beam="1">  1        2 0.69065296E+00 0.83822496E+03</pdfrwt>
<pdfrwt beam="2">  1       -2 0.51904526E-02 0.83822496E+03</pdfrwt>
<totfact> 0.27365028E+01</totfact>
</mgrwt>
</event>
<event>
 4    1  0.4915183E-005  0.6641586E+03  0.7818608E-02  0.9780568E-01
          2   -1    0    0  501    0  0.00000000000E+00  0.00000000000E+00  0.37829083206E+03  0.37829083207E+03  0.25500000000E-02 0.  1.
         -2   -1    0    0    0  501 -0.00000000000E+00 -0.00000000000E+00 -0.29151287579E+03  0.29151287580E+03  0.25500000000E-02 0. -1.
    5000001    1    1    2    0    0 -0.23797613250E+03 -0.92460142992E+01  0.16253509726E+03  0.35033810278E+03  0.19900000000E+03 0.  0.
   -5000001    1    1    2    0    0  0.23797613250E+03  0.92460142992E+01 -0.75757140995E+02  0.31946560509E+03  0.19900000000E+03 0.  0.
<mgrwt>
<rscale>  0 0.66415856E+03</rscale>
<asrwt>0</asrwt>
<pdfrwt beam="1">  1        2 0.54041547E-01 0.66415856E+03</pdfrwt>
<pdfrwt beam="2">  1       -2 0.41644697E-01 0.66415856E+03</pdfrwt>
<totfact> 0.50651471E+02</totfact>
</mgrwt>
</event>
<event>
 4    1  0.4915183E-005  0.5252168E+03  0.7818608E-02  0.1007399E+00
         -2   -1    0    0    0  501 -0.00000000000E+00  0.00000000000E+00  0.43487313936E+02  0.43487314011E+02  0.25500000000E-02 0. -1.
          2   -1    0    0  501    0  0.00000000000E+00 -0.00000000000E+00 -0.15858225429E+04  0.15858225429E+04  0.25500000000E-02 0.  1.
    5000001    1    1    2    0    0  0.38163253182E+02 -0.12997254776E+03 -0.10967157981E+04  0.11228249369E+04  0.19900000000E+03 0.  0.
   -5000001    1    1    2    0    0 -0.38163253182E+02  0.12997254776E+03 -0.44561943087E+03  0.50648492005E+03  0.19900000000E+03 0.  0.
<mgrwt>
<rscale>  0 0.52521677E+03</rscale>
<asrwt>0</asrwt>
<pdfrwt beam="1">  1        2 0.22654604E+00 0.52521677E+03</pdfrwt>
<pdfrwt beam="2">  1       -2 0.62124744E-02 0.52521677E+03</pdfrwt>
<totfact> 0.19675848E+03</totfact>
</mgrwt>
</event>
<event>
 4    1  0.4915183E-005  0.5141460E+03  0.7818608E-02  0.1010151E+00
          2   -1    0    0  501    0  0.00000000000E+00  0.00000000000E+00  0.85195261746E+03  0.85195261746E+03  0.25500000000E-02 0.  1.
         -2   -1    0    0    0  501 -0.00000000000E+00 -0.00000000000E+00 -0.77570658389E+02  0.77570658431E+02  0.25500000000E-02 0. -1.
    5000001    1    1    2    0    0 -0.12397455920E+03 -0.33489888026E+02  0.20645310560E+03  0.31418967001E+03  0.19900000000E+03 0.  0.
   -5000001    1    1    2    0    0  0.12397455920E+03  0.33489888026E+02  0.56792885347E+03  0.61533360588E+03  0.19900000000E+03 0.  0.
<mgrwt>
<rscale>  0 0.51414599E+03</rscale>
<asrwt>0</asrwt>
<pdfrwt beam="1">  1        2 0.12170750E+00 0.51414599E+03</pdfrwt>
<pdfrwt beam="2">  1       -2 0.11081524E-01 0.51414599E+03</pdfrwt>
<totfact> 0.20313994E+03</totfact>
</mgrwt>
</event>
<event>
 4    1  0.4915183E-005  0.5814092E+03  0.7818608E-02  0.9944745E-01
         -2   -1    0    0    0  501 -0.00000000000E+00  0.00000000000E+00  0.19331648329E+03  0.19331648330E+03  0.25500000000E-02 0. -1.
          2   -1    0    0  501    0  0.00000000000E+00 -0.00000000000E+00 -0.43715444445E+03  0.43715444445E+03  0.25500000000E-02 0.  1.
    5000001    1    1    2    0    0 -0.15743576462E+03 -0.85275961863E+02  0.10051880099E+01  0.26769389245E+03  0.19900000000E+03 0.  0.
   -5000001    1    1    2    0    0  0.15743576462E+03  0.85275961863E+02 -0.24484314917E+03  0.36277703531E+03  0.19900000000E+03 0.  0.
<mgrwt>
<rscale>  0 0.58140918E+03</rscale>
<asrwt>0</asrwt>
<pdfrwt beam="1">  1        2 0.62450635E-01 0.58140918E+03</pdfrwt>
<pdfrwt beam="2">  1       -2 0.27616641E-01 0.58140918E+03</pdfrwt>
<totfact> 0.93742133E+02</totfact>
</mgrwt>
</event>
<event>
 4    1  0.4915183E-005  0.5761899E+03  0.7818608E-02  0.9956074E-01
          2   -1    0    0  501    0  0.00000000000E+00  0.00000000000E+00  0.37377261439E+04  0.37377261439E+04  0.25500000000E-02 0.  1.
         -2   -1    0    0    0  501 -0.00000000000E+00 -0.00000000000E+00 -0.22205669708E+02  0.22205669854E+02  0.25500000000E-02 0. -1.
    5000001    1    1    2    0    0  0.14877659340E+03  0.15579369803E+02  0.28038580389E+04  0.28148886468E+04  0.19900000000E+03 0.  0.
   -5000001    1    1    2    0    0 -0.14877659340E+03 -0.15579369803E+02  0.91166243522E+03  0.94504316690E+03  0.19900000000E+03 0.  0.
<mgrwt>
<rscale>  0 0.57618994E+03</rscale>
<asrwt>0</asrwt>
<pdfrwt beam="1">  1        2 0.53396081E+00 0.57618994E+03</pdfrwt>
<pdfrwt beam="2">  1       -2 0.31722390E-02 0.57618994E+03</pdfrwt>
<totfact> 0.38957448E+02</totfact>
</mgrwt>
</event>
<event>
 4    1  0.4915183E-005  0.6735322E+03  0.7818608E-02  0.9763598E-01
         -2   -1    0    0    0  501 -0.00000000000E+00  0.00000000000E+00  0.14059120757E+03  0.14059120759E+03  0.25500000000E-02 0. -1.
          2   -1    0    0  501    0  0.00000000000E+00 -0.00000000000E+00 -0.80667486602E+03  0.80667486602E+03  0.25500000000E-02 0.  1.
    5000001    1    1    2    0    0  0.13465946769E+03 -0.23595080581E+03 -0.33600484427E+03  0.47571652312E+03  0.19900000000E+03 0.  0.
   -5000001    1    1    2    0    0 -0.13465946769E+03  0.23595080581E+03 -0.33007881418E+03  0.47154955049E+03  0.19900000000E+03 0.  0.
<mgrwt>
<rscale>  0 0.67353216E+03</rscale>
<asrwt>0</asrwt>
<pdfrwt beam="1">  1        2 0.11523926E+00 0.67353216E+03</pdfrwt>
<pdfrwt beam="2">  1       -2 0.20084459E-01 0.67353216E+03</pdfrwt>
<totfact> 0.79913930E+02</totfact>
</mgrwt>
</event>
<event>
 4    1  0.4915183E-005  0.6532880E+03  0.7818608E-02  0.9800629E-01
         -2   -1    0    0    0  501 -0.00000000000E+00  0.00000000000E+00  0.44750680992E+02  0.44750681065E+02  0.25500000000E-02 0. -1.
          2   -1    0    0  501    0  0.00000000000E+00 -0.00000000000E+00 -0.23842389074E+04  0.23842389074E+04  0.25500000000E-02 0.  1.
    5000001    1    1    2    0    0 -0.11169128028E+03 -0.23101998231E+03 -0.10382820740E+04  0.10878767575E+04  0.19900000000E+03 0.  0.
   -5000001    1    1    2    0    0  0.11169128028E+03  0.23101998231E+03 -0.13012061525E+04  0.13411128310E+04  0.19900000000E+03 0.  0.
<mgrwt>
<rscale>  0 0.65328804E+03</rscale>
<asrwt>0</asrwt>
<pdfrwt beam="1">  1        2 0.34060548E+00 0.65328804E+03</pdfrwt>
<pdfrwt beam="2">  1       -2 0.63929559E-02 0.65328804E+03</pdfrwt>
<totfact> 0.73853271E+02</totfact>
</mgrwt>
</event>
<event>
 4    1  0.4915183E-005  0.6735970E+03  0.7818608E-02  0.9763482E-01
         -2   -1    0    0    0  501 -0.00000000000E+00  0.00000000000E+00  0.47692156095E+02  0.47692156163E+02  0.25500000000E-02 0. -1.
          2   -1    0    0  501    0  0.00000000000E+00 -0.00000000000E+00 -0.23784460943E+04  0.23784460943E+04  0.25500000000E-02 0.  1.
    5000001    1    1    2    0    0  0.12100333659E+03 -0.22915092318E+03 -0.14597597498E+04  0.14958781635E+04  0.19900000000E+03 0.  0.
   -5000001    1    1    2    0    0 -0.12100333659E+03  0.22915092318E+03 -0.87099418837E+03  0.93026008688E+03  0.19900000000E+03 0.  0.
<mgrwt>
<rscale>  0 0.67359698E+03</rscale>
<asrwt>0</asrwt>
<pdfrwt beam="1">  1        2 0.33977794E+00 0.67359698E+03</pdfrwt>
<pdfrwt beam="2">  1       -2 0.68131667E-02 0.67359698E+03</pdfrwt>
<totfact> 0.67151485E+02</totfact>
</mgrwt>
</event>
<event>
 4    1  0.4915183E-005  0.6495180E+03  0.7818608E-02  0.9807684E-01
         -2   -1    0    0    0  501 -0.00000000000E+00  0.00000000000E+00  0.14854436012E+03  0.14854436014E+03  0.25500000000E-02 0. -1.
          2   -1    0    0  501    0  0.00000000000E+00 -0.00000000000E+00 -0.71001282746E+03  0.71001282746E+03  0.25500000000E-02 0.  1.
    5000001    1    1    2    0    0  0.32642553692E+02 -0.24339401134E+03 -0.18216007197E+03  0.36481429918E+03  0.19900000000E+03 0.  0.
   -5000001    1    1    2    0    0 -0.32642553692E+02  0.24339401134E+03 -0.37930839537E+03  0.49374288842E+03  0.19900000000E+03 0.  0.
<mgrwt>
<rscale>  0 0.64951798E+03</rscale>
<asrwt>0</asrwt>
<pdfrwt beam="1">  1        2 0.10143040E+00 0.64951798E+03</pdfrwt>
<pdfrwt beam="2">  1       -2 0.21220623E-01 0.64951798E+03</pdfrwt>
<totfact> 0.85258907E+02</totfact>
</mgrwt>
</event>
<event>
 4    1  0.4915183E-005  0.8734307E+03  0.7818608E-02  0.9459418E-01
         -2   -1    0    0    0  501 -0.00000000000E+00  0.00000000000E+00  0.79600286179E+02  0.79600286220E+02  0.25500000000E-02 0. -1.
          2   -1    0    0  501    0  0.00000000000E+00 -0.00000000000E+00 -0.23959748110E+04  0.23959748110E+04  0.25500000000E-02 0.  1.
    5000001    1    1    2    0    0  0.99014186185E+02 -0.29254072294E+03 -0.48905307309E+03  0.61168438916E+03  0.19900000000E+03 0.  0.
   -5000001    1    1    2    0    0 -0.99014186185E+02  0.29254072294E+03 -0.18273214517E+04  0.18638907081E+04  0.19900000000E+03 0.  0.
<mgrwt>
<rscale>  0 0.87343066E+03</rscale>
<asrwt>0</asrwt>
<pdfrwt beam="1">  1        2 0.34228207E+00 0.87343066E+03</pdfrwt>
<pdfrwt beam="2">  1       -2 0.11371471E-01 0.87343066E+03</pdfrwt>
<totfact> 0.28349961E+02</totfact>
</mgrwt>
</event>
<event>
 4    1  0.4915183E-005  0.5954587E+03  0.7818608E-02  0.9914873E-01
         -2   -1    0    0    0  501 -0.00000000000E+00  0.00000000000E+00  0.19233579734E+03  0.19233579735E+03  0.25500000000E-02 0. -1.
          2   -1    0    0  501    0  0.00000000000E+00 -0.00000000000E+00 -0.46087501903E+03  0.46087501903E+03  0.25500000000E-02 0.  1.
    5000001    1    1    2    0    0 -0.20760878803E+03  0.63798792546E+02 -0.86831149277E+02  0.30710314762E+03  0.19900000000E+03 0.  0.
   -5000001    1    1    2    0    0  0.20760878803E+03 -0.63798792546E+02 -0.18170807241E+03  0.34610766876E+03  0.19900000000E+03 0.  0.
<mgrwt>
<rscale>  0 0.59545869E+03</rscale>
<asrwt>0</asrwt>
<pdfrwt beam="1">  1        2 0.65839288E-01 0.59545869E+03</pdfrwt>
<pdfrwt beam="2">  1       -2 0.27476543E-01 0.59545869E+03</pdfrwt>
<totfact> 0.89157453E+02</totfact>
</mgrwt>
</event>
<event>
 4    1  0.4915183E-005  0.6416593E+03  0.7818608E-02  0.9822557E-01
         -2   -1    0    0    0  501 -0.00000000000E+00  0.00000000000E+00  0.95953987113E+02  0.95953987147E+02  0.25500000000E-02 0. -1.
          2   -1    0    0  501    0  0.00000000000E+00 -0.00000000000E+00 -0.10727190119E+04  0.10727190119E+04  0.25500000000E-02 0.  1.
    5000001    1    1    2    0    0 -0.23442540354E+03 -0.22428774974E+01 -0.32174961896E+03  0.44506641934E+03  0.19900000000E+03 0.  0.
   -5000001    1    1    2    0    0  0.23442540354E+03  0.22428774974E+01 -0.65501540579E+03  0.72360657968E+03  0.19900000000E+03 0.  0.
<mgrwt>
<rscale>  0 0.64165931E+03</rscale>
<asrwt>0</asrwt>
<pdfrwt beam="1">  1        2 0.15324557E+00 0.64165931E+03</pdfrwt>
<pdfrwt beam="2">  1       -2 0.13707713E-01 0.64165931E+03</pdfrwt>
<totfact> 0.10401442E+03</totfact>
</mgrwt>
</event>
<event>
 4    1  0.4915183E-005  0.1022518E+04  0.7818608E-02  0.9284187E-01
          2   -1    0    0  501    0  0.00000000000E+00  0.00000000000E+00  0.13453646218E+04  0.13453646218E+04  0.25500000000E-02 0.  1.
         -2   -1    0    0    0  501 -0.00000000000E+00 -0.00000000000E+00 -0.19428603925E+03  0.19428603927E+03  0.25500000000E-02 0. -1.
    5000001    1    1    2    0    0 -0.45306347634E+03  0.77791814618E+02  0.42149280410E+03  0.65465660000E+03  0.19900000000E+03 0.  0.
   -5000001    1    1    2    0    0  0.45306347634E+03 -0.77791814618E+02  0.72958577847E+03  0.88499406109E+03  0.19900000000E+03 0.  0.
<mgrwt>
<rscale>  0 0.10225176E+04</rscale>
<asrwt>0</asrwt>
<pdfrwt beam="1">  1        2 0.19219494E+00 0.10225176E+04</pdfrwt>
<pdfrwt beam="2">  1       -2 0.27755149E-01 0.10225176E+04</pdfrwt>
<totfact> 0.20882019E+02</totfact>
</mgrwt>
</event>
<event>
 4    1  0.4915183E-005  0.9375925E+03  0.7818608E-02  0.9379772E-01
          2   -1    0    0  501    0  0.00000000000E+00  0.00000000000E+00  0.61814171914E+03  0.61814171914E+03  0.25500000000E-02 0. -1.
         -2   -1    0    0    0  501 -0.00000000000E+00 -0.00000000000E+00 -0.35553324657E+03  0.35553324658E+03  0.25500000000E-02 0.  1.
    5000001    1    1    2    0    0 -0.16452165843E+02 -0.36447786837E+03  0.35657187167E+03  0.54759409234E+03  0.19900000000E+03 0.  0.
   -5000001    1    1    2    0    0  0.16452165843E+02  0.36447786837E+03 -0.93963399108E+02  0.42608087338E+03  0.19900000000E+03 0.  0.
<mgrwt>
<rscale>  0 0.93759252E+03</rscale>
<asrwt>0</asrwt>
<pdfrwt beam="1">  1        2 0.88305960E-01 0.93759252E+03</pdfrwt>
<pdfrwt beam="2">  1       -2 0.50790464E-01 0.93759252E+03</pdfrwt>
<totfact> 0.19214006E+02</totfact>
</mgrwt>
</event>
<event>
 4    1  0.4915183E-005  0.5754979E+03  0.7818608E-02  0.9957586E-01
         -2   -1    0    0    0  501 -0.00000000000E+00  0.00000000000E+00  0.64207974645E+02  0.64207974696E+02  0.25500000000E-02 0. -1.
          2   -1    0    0  501    0  0.00000000000E+00 -0.00000000000E+00 -0.12895512147E+04  0.12895512147E+04  0.25500000000E-02 0.  1.
    5000001    1    1    2    0    0 -0.16546714932E+03 -0.33919977241E+02 -0.89757062101E+03  0.93475342314E+03  0.19900000000E+03 0.  0.
   -5000001    1    1    2    0    0  0.16546714932E+03  0.33919977241E+02 -0.32777261902E+03  0.41900576623E+03  0.19900000000E+03 0.  0.
<mgrwt>
<rscale>  0 0.57549795E+03</rscale>
<asrwt>0</asrwt>
<pdfrwt beam="1">  1        2 0.18422159E+00 0.57549795E+03</pdfrwt>
<pdfrwt beam="2">  1       -2 0.91725686E-02 0.57549795E+03</pdfrwt>
<totfact> 0.15171244E+03</totfact>
</mgrwt>
</event>
<event>
 4    1  0.4915183E-005  0.5048103E+03  0.7818608E-02  0.1012531E+00
         -2   -1    0    0    0  501 -0.00000000000E+00  0.00000000000E+00  0.14869201485E+02  0.14869201704E+02  0.25500000000E-02 0. -1.
          2   -1    0    0  501    0  0.00000000000E+00 -0.00000000000E+00 -0.42845855702E+04  0.42845855702E+04  0.25500000000E-02 0.  1.
    5000001    1    1    2    0    0  0.87744406445E+02  0.12386795281E+03 -0.18569103979E+04  0.18737021045E+04  0.19900000000E+03 0.  0.
   -5000001    1    1    2    0    0 -0.87744406445E+02 -0.12386795281E+03 -0.24128059708E+04  0.24257526674E+04  0.19900000000E+03 0.  0.
<mgrwt>
<rscale>  0 0.50481033E+03</rscale>
<asrwt>0</asrwt>
<pdfrwt beam="1">  1        2 0.61208286E+00 0.50481033E+03</pdfrwt>
<pdfrwt beam="2">  1       -2 0.21241744E-02 0.50481033E+03</pdfrwt>
<totfact> 0.31086768E+02</totfact>
</mgrwt>
</event>
<event>
 4    1  0.4915183E-005  0.4137646E+03  0.7818608E-02  0.1039115E+00
          2   -1    0    0  501    0  0.00000000000E+00  0.00000000000E+00  0.20782223619E+03  0.20782223621E+03  0.25500000000E-02 0.  1.
         -2   -1    0    0    0  501 -0.00000000000E+00 -0.00000000000E+00 -0.20594665849E+03  0.20594665850E+03  0.25500000000E-02 0. -1.
    5000001    1    1    2    0    0  0.25944580455E+02 -0.49686379707E+02 -0.66410439278E+01  0.20685009318E+03  0.19900000000E+03 0.  0.
   -5000001    1    1    2    0    0 -0.25944580455E+02  0.49686379707E+02  0.85166216292E+01  0.20691880153E+03  0.19900000000E+03 0.  0.
<mgrwt>
<rscale>  0 0.41376464E+03</rscale>
<asrwt>0</asrwt>
<pdfrwt beam="1">  1        2 0.29688891E-01 0.41376464E+03</pdfrwt>
<pdfrwt beam="2">  1       -2 0.29420951E-01 0.41376464E+03</pdfrwt>
<totfact> 0.18953342E+03</totfact>
</mgrwt>
</event>
<event>
 4    1  0.4915183E-005  0.5745066E+03  0.7818608E-02  0.9959756E-01
          2   -1    0    0  501    0  0.00000000000E+00  0.00000000000E+00  0.31432961804E+04  0.31432961804E+04  0.25500000000E-02 0.  1.
         -2   -1    0    0    0  501 -0.00000000000E+00 -0.00000000000E+00 -0.26250929604E+02  0.26250929727E+02  0.25500000000E-02 0. -1.
    5000001    1    1    2    0    0 -0.12595828207E+03 -0.72910742245E+02  0.74522054116E+03  0.78494338657E+03  0.19900000000E+03 0.  0.
   -5000001    1    1    2    0    0  0.12595828207E+03  0.72910742245E+02  0.23718247096E+04  0.23846037235E+04  0.19900000000E+03 0.  0.
<mgrwt>
<rscale>  0 0.57450656E+03</rscale>
<asrwt>0</asrwt>
<pdfrwt beam="1">  1        2 0.44904256E+00 0.57450656E+03</pdfrwt>
<pdfrwt beam="2">  1       -2 0.37501307E-02 0.57450656E+03</pdfrwt>
<totfact> 0.67439360E+02</totfact>
</mgrwt>
</event>
<event>
 4    1  0.4915183E-005  0.7166966E+03  0.7818608E-02  0.9689097E-01
         -2   -1    0    0    0  501 -0.00000000000E+00  0.00000000000E+00  0.58600451029E+03  0.58600451029E+03  0.25500000000E-02 0. -1.
          2   -1    0    0  501    0  0.00000000000E+00 -0.00000000000E+00 -0.21913395674E+03  0.21913395676E+03  0.25500000000E-02 0.  1.
    5000001    1    1    2    0    0  0.47750625220E+02  0.25115059883E+03  0.11383229547E+02  0.32417174988E+03  0.19900000000E+03 0.  0.
   -5000001    1    1    2    0    0 -0.47750625220E+02 -0.25115059883E+03  0.35548732400E+03  0.48096671717E+03  0.19900000000E+03 0.  0.
<mgrwt>
<rscale>  0 0.71669655E+03</rscale>
<asrwt>0</asrwt>
<pdfrwt beam="1">  1        2 0.31304851E-01 0.71669655E+03</pdfrwt>
<pdfrwt beam="2">  1       -2 0.83714931E-01 0.71669655E+03</pdfrwt>
<totfact> 0.21352811E+02</totfact>
</mgrwt>
</event>
<event>
 4    1  0.4915183E-005  0.6248705E+03  0.7818608E-02  0.9855110E-01
          2   -1    0    0  501    0  0.00000000000E+00  0.00000000000E+00  0.10192332501E+04  0.10192332501E+04  0.25500000000E-02 0.  1.
         -2   -1    0    0    0  501 -0.00000000000E+00 -0.00000000000E+00 -0.95773757302E+02  0.95773757336E+02  0.25500000000E-02 0. -1.
    5000001    1    1    2    0    0 -0.21848216272E+03 -0.31431353807E+01  0.64256477639E+03  0.70727280916E+03  0.19900000000E+03 0.  0.
   -5000001    1    1    2    0    0  0.21848216272E+03  0.31431353807E+01  0.28089471638E+03  0.40773419824E+03  0.19900000000E+03 0.  0.
<mgrwt>
<rscale>  0 0.62487054E+03</rscale>
<asrwt>0</asrwt>
<pdfrwt beam="1">  1        2 0.14560475E+00 0.62487054E+03</pdfrwt>
<pdfrwt beam="2">  1       -2 0.13681965E-01 0.62487054E+03</pdfrwt>
<totfact> 0.11235265E+03</totfact>
</mgrwt>
</event>
<event>
 4    1  0.4915183E-005  0.4810233E+03  0.7818608E-02  0.1018854E+00
          2   -1    0    0  501    0  0.00000000000E+00  0.00000000000E+00  0.11662661521E+04  0.11662661521E+04  0.25500000000E-02 0.  1.
         -2   -1    0    0    0  501 -0.00000000000E+00 -0.00000000000E+00 -0.49599182279E+02  0.49599182344E+02  0.25500000000E-02 0. -1.
    5000001    1    1    2    0    0  0.12676295022E+03 -0.15624457737E+02  0.44723471097E+03  0.50589806871E+03  0.19900000000E+03 0.  0.
   -5000001    1    1    2    0    0 -0.12676295022E+03  0.15624457737E+02  0.66943225886E+03  0.70996726575E+03  0.19900000000E+03 0.  0.
<mgrwt>
<rscale>  0 0.48102327E+03</rscale>
<asrwt>0</asrwt>
<pdfrwt beam="1">  1        2 0.16660944E+00 0.48102327E+03</pdfrwt>
<pdfrwt beam="2">  1       -2 0.70855977E-02 0.48102327E+03</pdfrwt>
<totfact> 0.26798379E+03</totfact>
</mgrwt>
</event>
<event>
 4    1  0.4915183E-005  0.6187592E+03  0.7818608E-02  0.9867233E-01
         -2   -1    0    0    0  501 -0.00000000000E+00  0.00000000000E+00  0.31899816922E+03  0.31899816923E+03  0.25500000000E-02 0. -1.
          2   -1    0    0  501    0  0.00000000000E+00 -0.00000000000E+00 -0.30005105053E+03  0.30005105054E+03  0.25500000000E-02 0.  1.
    5000001    1    1    2    0    0  0.22625231199E+03  0.94527589437E+01 -0.60095156920E+02  0.30739533376E+03  0.19900000000E+03 0.  0.
   -5000001    1    1    2    0    0 -0.22625231199E+03 -0.94527589437E+01  0.79042275612E+02  0.31165388601E+03  0.19900000000E+03 0.  0.
<mgrwt>
<rscale>  0 0.61875920E+03</rscale>
<asrwt>0</asrwt>
<pdfrwt beam="1">  1        2 0.42864436E-01 0.61875920E+03</pdfrwt>
<pdfrwt beam="2">  1       -2 0.45571167E-01 0.61875920E+03</pdfrwt>
<totfact> 0.54841823E+02</totfact>
</mgrwt>
</event>
<event>
 4    1  0.4915183E-005  0.1102436E+04  0.7818608E-02  0.9202821E-01
         -2   -1    0    0    0  501 -0.00000000000E+00  0.00000000000E+00  0.37173737910E+03  0.37173737911E+03  0.25500000000E-02 0. -1.
          2   -1    0    0  501    0  0.00000000000E+00 -0.00000000000E+00 -0.81735485563E+03  0.81735485564E+03  0.25500000000E-02 0.  1.
    5000001    1    1    2    0    0  0.13964008172E+03 -0.46707460488E+03 -0.46952211966E+02  0.52864312079E+03  0.19900000000E+03 0.  0.
   -5000001    1    1    2    0    0 -0.13964008172E+03  0.46707460488E+03 -0.39866526457E+03  0.66044911395E+03  0.19900000000E+03 0.  0.
<mgrwt>
<rscale>  0 0.11024361E+04</rscale>
<asrwt>0</asrwt>
<pdfrwt beam="1">  1        2 0.11676498E+00 0.11024361E+04</pdfrwt>
<pdfrwt beam="2">  1       -2 0.53105340E-01 0.11024361E+04</pdfrwt>
<totfact> 0.12270897E+02</totfact>
</mgrwt>
</event>
<event>
 4    1  0.4915183E-005  0.5776512E+03  0.7818608E-02  0.9952889E-01
          2   -1    0    0  501    0  0.00000000000E+00  0.00000000000E+00  0.38451736247E+03  0.38451736247E+03  0.25500000000E-02 0.  1.
         -2   -1    0    0    0  501 -0.00000000000E+00 -0.00000000000E+00 -0.21694786085E+03  0.21694786086E+03  0.25500000000E-02 0. -1.
    5000001    1    1    2    0    0 -0.39762744753E+02 -0.19918171289E+03  0.31053186829E+02  0.28604148481E+03  0.19900000000E+03 0.  0.
   -5000001    1    1    2    0    0  0.39762744753E+02  0.19918171289E+03  0.13651631479E+03  0.31542373852E+03  0.19900000000E+03 0.  0.
<mgrwt>
<rscale>  0 0.57765117E+03</rscale>
<asrwt>0</asrwt>
<pdfrwt beam="1">  1        2 0.54931052E-01 0.57765117E+03</pdfrwt>
<pdfrwt beam="2">  1       -2 0.30992552E-01 0.57765117E+03</pdfrwt>
<totfact> 0.87467880E+02</totfact>
</mgrwt>
</event>
<event>
 4    1  0.4915183E-005  0.8556701E+03  0.7818608E-02  0.9482758E-01
          2   -1    0    0  501    0  0.00000000000E+00  0.00000000000E+00  0.19202608888E+04  0.19202608888E+04  0.25500000000E-02 0.  1.
         -2   -1    0    0    0  501 -0.00000000000E+00 -0.00000000000E+00 -0.95321846031E+02  0.95321846065E+02  0.25500000000E-02 0. -1.
    5000001    1    1    2    0    0  0.32260320499E+03  0.17453033159E+03  0.11347943738E+04  0.12090876458E+04  0.19900000000E+03 0.  0.
   -5000001    1    1    2    0    0 -0.32260320499E+03 -0.17453033159E+03  0.69014466897E+03  0.80649508902E+03  0.19900000000E+03 0.  0.
<mgrwt>
<rscale>  0 0.85567006E+03</rscale>
<asrwt>0</asrwt>
<pdfrwt beam="1">  1        2 0.27432299E+00 0.85567006E+03</pdfrwt>
<pdfrwt beam="2">  1       -2 0.13617406E-01 0.85567006E+03</pdfrwt>
<totfact> 0.36770758E+02</totfact>
</mgrwt>
</event>
<event>
 4    1  0.4915183E-005  0.6986911E+03  0.7818608E-02  0.9719473E-01
          2   -1    0    0  501    0  0.00000000000E+00  0.00000000000E+00  0.16484122101E+04  0.16484122101E+04  0.25500000000E-02 0. -1.
         -2   -1    0    0    0  501 -0.00000000000E+00 -0.00000000000E+00 -0.74036275565E+02  0.74036275609E+02  0.25500000000E-02 0.  1.
    5000001    1    1    2    0    0  0.41360869845E+02 -0.28295452731E+03  0.85087138524E+03  0.91943303198E+03  0.19900000000E+03 0.  0.
   -5000001    1    1    2    0    0 -0.41360869845E+02  0.28295452731E+03  0.72350454930E+03  0.80301545374E+03  0.19900000000E+03 0.  0.
<mgrwt>
<rscale>  0 0.69869106E+03</rscale>
<asrwt>0</asrwt>
<pdfrwt beam="1">  1        2 0.23548745E+00 0.69869106E+03</pdfrwt>
<pdfrwt beam="2">  1       -2 0.10576611E-01 0.69869106E+03</pdfrwt>
<totfact> 0.77580699E+02</totfact>
</mgrwt>
</event>
<event>
 4    1  0.4915183E-005  0.8639317E+03  0.7818608E-02  0.9471827E-01
         -2   -1    0    0    0  501 -0.00000000000E+00  0.00000000000E+00  0.83558261694E+02  0.83558261733E+02  0.25500000000E-02 0. -1.
          2   -1    0    0  501    0  0.00000000000E+00 -0.00000000000E+00 -0.22331062935E+04  0.22331062935E+04  0.25500000000E-02 0.  1.
    5000001    1    1    2    0    0 -0.17555060502E+03  0.23729992810E+03 -0.41867801950E+03  0.54956487771E+03  0.19900000000E+03 0.  0.
   -5000001    1    1    2    0    0  0.17555060502E+03 -0.23729992810E+03 -0.17308700123E+04  0.17670996775E+04  0.19900000000E+03 0.  0.
<mgrwt>
<rscale>  0 0.86393166E+03</rscale>
<asrwt>0</asrwt>
<pdfrwt beam="1">  1        2 0.31901515E+00 0.86393166E+03</pdfrwt>
<pdfrwt beam="2">  1       -2 0.11936896E-01 0.86393166E+03</pdfrwt>
<totfact> 0.31731518E+02</totfact>
</mgrwt>
</event>
<event>
 4    1  0.4915183E-005  0.4172293E+03  0.7818608E-02  0.1037972E+00
         -2   -1    0    0    0  501 -0.00000000000E+00  0.00000000000E+00  0.38907190136E+02  0.38907190220E+02  0.25500000000E-02 0. -1.
          2   -1    0    0  501    0  0.00000000000E+00 -0.00000000000E+00 -0.11185611534E+04  0.11185611534E+04  0.25500000000E-02 0.  1.
    5000001    1    1    2    0    0  0.21667514445E+02  0.52473217978E+02 -0.61302280182E+03  0.64700917717E+03  0.19900000000E+03 0.  0.
   -5000001    1    1    2    0    0 -0.21667514445E+02 -0.52473217978E+02 -0.46663116143E+03  0.51045916644E+03  0.19900000000E+03 0.  0.
<mgrwt>
<rscale>  0 0.41722930E+03</rscale>
<asrwt>0</asrwt>
<pdfrwt beam="1">  1        2 0.15979443E+00 0.41722930E+03</pdfrwt>
<pdfrwt beam="2">  1       -2 0.55581707E-02 0.41722930E+03</pdfrwt>
<totfact> 0.41618299E+03</totfact>
</mgrwt>
</event>
<event>
 4    1  0.4915183E-005  0.5161770E+03  0.7818608E-02  0.1009641E+00
          2   -1    0    0  501    0  0.00000000000E+00  0.00000000000E+00  0.10706051735E+04  0.10706051735E+04  0.25500000000E-02 0.  1.
         -2   -1    0    0    0  501 -0.00000000000E+00 -0.00000000000E+00 -0.62216851367E+02  0.62216851419E+02  0.25500000000E-02 0. -1.
    5000001    1    1    2    0    0 -0.10646178010E+03  0.11669717377E+03  0.40467408992E+03  0.47782262404E+03  0.19900000000E+03 0.  0.
   -5000001    1    1    2    0    0  0.10646178010E+03 -0.11669717377E+03  0.60371423224E+03  0.65499940092E+03  0.19900000000E+03 0.  0.
<mgrwt>
<rscale>  0 0.51617704E+03</rscale>
<asrwt>0</asrwt>
<pdfrwt beam="1">  1        2 0.15294359E+00 0.51617704E+03</pdfrwt>
<pdfrwt beam="2">  1       -2 0.88881221E-02 0.51617704E+03</pdfrwt>
<totfact> 0.21219771E+03</totfact>
</mgrwt>
</event>
<event>
 4    1  0.4915183E-005  0.7228033E+03  0.7818608E-02  0.9679011E-01
         -2   -1    0    0    0  501 -0.00000000000E+00  0.00000000000E+00  0.49157818566E+03  0.49157818567E+03  0.25500000000E-02 0. -1.
          2   -1    0    0  501    0  0.00000000000E+00 -0.00000000000E+00 -0.26569761706E+03  0.26569761707E+03  0.25500000000E-02 0.  1.
    5000001    1    1    2    0    0  0.25517088554E+03 -0.89738288719E+02  0.25289655653E+03  0.42038412149E+03  0.19900000000E+03 0.  0.
   -5000001    1    1    2    0    0 -0.25517088554E+03  0.89738288719E+02 -0.27015987930E+02  0.33689168125E+03  0.19900000000E+03 0.  0.
<mgrwt>
<rscale>  0 0.72280330E+03</rscale>
<asrwt>0</asrwt>
<pdfrwt beam="1">  1        2 0.37956803E-01 0.72280330E+03</pdfrwt>
<pdfrwt beam="2">  1       -2 0.70225455E-01 0.72280330E+03</pdfrwt>
<totfact> 0.25436045E+02</totfact>
</mgrwt>
</event>
<event>
 4    1  0.4915183E-005  0.4435628E+03  0.7818608E-02  0.1029659E+00
         -2   -1    0    0    0  501 -0.00000000000E+00  0.00000000000E+00  0.33927494906E+02  0.33927495002E+02  0.25500000000E-02 0. -1.
          2   -1    0    0  501    0  0.00000000000E+00 -0.00000000000E+00 -0.14497680905E+04  0.14497680905E+04  0.25500000000E-02 0.  1.
    5000001    1    1    2    0    0 -0.54717960603E+02  0.35024881037E+02 -0.95292966302E+03  0.97565195647E+03  0.19900000000E+03 0.  0.
   -5000001    1    1    2    0    0  0.54717960603E+02 -0.35024881037E+02 -0.46291093258E+03  0.50804362904E+03  0.19900000000E+03 0.  0.
<mgrwt>
<rscale>  0 0.44356285E+03</rscale>
<asrwt>0</asrwt>
<pdfrwt beam="1">  1        2 0.20710969E+00 0.44356285E+03</pdfrwt>
<pdfrwt beam="2">  1       -2 0.48467859E-02 0.44356285E+03</pdfrwt>
<totfact> 0.34031822E+03</totfact>
</mgrwt>
</event>
<event>
 4    1  0.4915183E-005  0.5006972E+03  0.7818608E-02  0.1013597E+00
          2   -1    0    0  501    0  0.00000000000E+00  0.00000000000E+00  0.13524623832E+04  0.13524623832E+04  0.25500000000E-02 0.  1.
         -2   -1    0    0    0  501 -0.00000000000E+00 -0.00000000000E+00 -0.46340973270E+02  0.46340973341E+02  0.25500000000E-02 0. -1.
    5000001    1    1    2    0    0  0.26405167249E+02  0.14914726086E+03  0.68507094411E+03  0.72929098222E+03  0.19900000000E+03 0.  0.
   -5000001    1    1    2    0    0 -0.26405167249E+02 -0.14914726086E+03  0.62105046582E+03  0.66951237433E+03  0.19900000000E+03 0.  0.
<mgrwt>
<rscale>  0 0.50069721E+03</rscale>
<asrwt>0</asrwt>
<pdfrwt beam="1">  1        2 0.19320891E+00 0.50069721E+03</pdfrwt>
<pdfrwt beam="2">  1       -2 0.66201391E-02 0.50069721E+03</pdfrwt>
<totfact> 0.23584746E+03</totfact>
</mgrwt>
</event>
<event>
 4    1  0.4915183E-005  0.7588365E+03  0.7818608E-02  0.9621588E-01
         -2   -1    0    0    0  501 -0.00000000000E+00  0.00000000000E+00  0.99250056311E+02  0.99250056344E+02  0.25500000000E-02 0. -1.
          2   -1    0    0  501    0  0.00000000000E+00 -0.00000000000E+00 -0.14504595482E+04  0.14504595482E+04  0.25500000000E-02 0.  1.
    5000001    1    1    2    0    0  0.20336162187E+03  0.10941296751E+03 -0.21427111700E+03  0.37261274574E+03  0.19900000000E+03 0.  0.
   -5000001    1    1    2    0    0 -0.20336162187E+03 -0.10941296751E+03 -0.11369383749E+04  0.11770968588E+04  0.19900000000E+03 0.  0.
<mgrwt>
<rscale>  0 0.75883646E+03</rscale>
<asrwt>0</asrwt>
<pdfrwt beam="1">  1        2 0.20720849E+00 0.75883646E+03</pdfrwt>
<pdfrwt beam="2">  1       -2 0.14178580E-01 0.75883646E+03</pdfrwt>
<totfact> 0.60374022E+02</totfact>
</mgrwt>
</event>
<event>
 4    1  0.4915183E-005  0.7598178E+03  0.7818608E-02  0.9620073E-01
         -2   -1    0    0    0  501 -0.00000000000E+00  0.00000000000E+00  0.28626017771E+03  0.28626017772E+03  0.25500000000E-02 0. -1.
          2   -1    0    0  501    0  0.00000000000E+00 -0.00000000000E+00 -0.50419431842E+03  0.50419431843E+03  0.25500000000E-02 0.  1.
    5000001    1    1    2    0    0  0.27107287734E+03 -0.30832274597E+01  0.74907287946E+02  0.34453172990E+03  0.19900000000E+03 0.  0.
   -5000001    1    1    2    0    0 -0.27107287734E+03  0.30832274597E+01 -0.29284142866E+03  0.44592276625E+03  0.19900000000E+03 0.  0.
<mgrwt>
<rscale>  0 0.75981775E+03</rscale>
<asrwt>0</asrwt>
<pdfrwt beam="1">  1        2 0.72027760E-01 0.75981775E+03</pdfrwt>
<pdfrwt beam="2">  1       -2 0.40894311E-01 0.75981775E+03</pdfrwt>
<totfact> 0.37881016E+02</totfact>
</mgrwt>
</event>
<event>
 4    1  0.4915183E-005  0.5717321E+03  0.7818608E-02  0.9965853E-01
         -2   -1    0    0    0  501 -0.00000000000E+00  0.00000000000E+00  0.67740870837E+02  0.67740870885E+02  0.25500000000E-02 0. -1.
          2   -1    0    0  501    0  0.00000000000E+00 -0.00000000000E+00 -0.12063529615E+04  0.12063529615E+04  0.25500000000E-02 0.  1.
    5000001    1    1    2    0    0 -0.20511642301E+03 -0.65802796200E+01 -0.57272450388E+03  0.64010187033E+03  0.19900000000E+03 0.  0.
   -5000001    1    1    2    0    0  0.20511642301E+03  0.65802796200E+01 -0.56588758678E+03  0.63399196205E+03  0.19900000000E+03 0.  0.
<mgrwt>
<rscale>  0 0.57173211E+03</rscale>
<asrwt>0</asrwt>
<pdfrwt beam="1">  1        2 0.17233612E+00 0.57173211E+03</pdfrwt>
<pdfrwt beam="2">  1       -2 0.96772680E-02 0.57173211E+03</pdfrwt>
<totfact> 0.15467604E+03</totfact>
</mgrwt>
</event>
<event>
 4    1  0.4915183E-005  0.7244708E+03  0.7818608E-02  0.9676275E-01
          2   -1    0    0  501    0  0.00000000000E+00  0.00000000000E+00  0.13793100063E+04  0.13793100063E+04  0.25500000000E-02 0.  1.
         -2   -1    0    0    0  501 -0.00000000000E+00 -0.00000000000E+00 -0.95130536391E+02  0.95130536425E+02  0.25500000000E-02 0. -1.
    5000001    1    1    2    0    0  0.16113921740E+01  0.29616404388E+03  0.51502820409E+03  0.62655469712E+03  0.19900000000E+03 0.  0.
   -5000001    1    1    2    0    0 -0.16113921740E+01 -0.29616404388E+03  0.76915126577E+03  0.84788584556E+03  0.19900000000E+03 0.  0.
<mgrwt>
<rscale>  0 0.72447084E+03</rscale>
<asrwt>0</asrwt>
<pdfrwt beam="1">  1        2 0.19704427E+00 0.72447084E+03</pdfrwt>
<pdfrwt beam="2">  1       -2 0.13590077E-01 0.72447084E+03</pdfrwt>
<totfact> 0.70852919E+02</totfact>
</mgrwt>
</event>
<event>
 4    1  0.4915183E-005  0.9037977E+03  0.7818608E-02  0.9420847E-01
          2   -1    0    0  501    0  0.00000000000E+00  0.00000000000E+00  0.12198537996E+04  0.12198537996E+04  0.25500000000E-02 0.  1.
         -2   -1    0    0    0  501 -0.00000000000E+00 -0.00000000000E+00 -0.16740740836E+03  0.16740740838E+03  0.25500000000E-02 0. -1.
    5000001    1    1    2    0    0  0.32661391847E+03 -0.85456109875E+02  0.87160564590E+03  0.95565516815E+03  0.19900000000E+03 0.  0.
   -5000001    1    1    2    0    0 -0.32661391847E+03  0.85456109875E+02  0.18084074538E+03  0.43160603986E+03  0.19900000000E+03 0.  0.
<mgrwt>
<rscale>  0 0.90379768E+03</rscale>
<asrwt>0</asrwt>
<pdfrwt beam="1">  1        2 0.17426483E+00 0.90379768E+03</pdfrwt>
<pdfrwt beam="2">  1       -2 0.23915344E-01 0.90379768E+03</pdfrwt>
<totfact> 0.32334458E+02</totfact>
</mgrwt>
</event>
<event>
 4    1  0.4915183E-005  0.4942774E+03  0.7818608E-02  0.1015283E+00
         -2   -1    0    0    0  501 -0.00000000000E+00  0.00000000000E+00  0.92872410718E+03  0.92872410718E+03  0.25500000000E-02 0. -1.
          2   -1    0    0  501    0  0.00000000000E+00 -0.00000000000E+00 -0.65764998313E+02  0.65764998362E+02  0.25500000000E-02 0.  1.
    5000001    1    1    2    0    0  0.13579200766E+03  0.37667158061E+02  0.35054149693E+03  0.42701127059E+03  0.19900000000E+03 0.  0.
   -5000001    1    1    2    0    0 -0.13579200766E+03 -0.37667158061E+02  0.51241761193E+03  0.56747783495E+03  0.19900000000E+03 0.  0.
<mgrwt>
<rscale>  0 0.49427741E+03</rscale>
<asrwt>0</asrwt>
<pdfrwt beam="1">  1        2 0.93950002E-02 0.49427741E+03</pdfrwt>
<pdfrwt beam="2">  1       -2 0.13267487E+00 0.49427741E+03</pdfrwt>
<totfact> 0.30103147E+02</totfact>
</mgrwt>
</event>
<event>
 4    1  0.4915183E-005  0.5150798E+03  0.7818608E-02  0.1009916E+00
         -2   -1    0    0    0  501 -0.00000000000E+00  0.00000000000E+00  0.42697542262E+02  0.42697542338E+02  0.25500000000E-02 0. -1.
          2   -1    0    0  501    0  0.00000000000E+00 -0.00000000000E+00 -0.15534099973E+04  0.15534099973E+04  0.25500000000E-02 0.  1.
    5000001    1    1    2    0    0  0.48421599783E+02 -0.15484835934E+03 -0.81757288102E+03  0.85694170251E+03  0.19900000000E+03 0.  0.
   -5000001    1    1    2    0    0 -0.48421599783E+02  0.15484835934E+03 -0.69313957406E+03  0.73916583717E+03  0.19900000000E+03 0.  0.
<mgrwt>
<rscale>  0 0.51507976E+03</rscale>
<asrwt>0</asrwt>
<pdfrwt beam="1">  1        2 0.22191568E+00 0.51507976E+03</pdfrwt>
<pdfrwt beam="2">  1       -2 0.60996499E-02 0.51507976E+03</pdfrwt>
<totfact> 0.21044066E+03</totfact>
</mgrwt>
</event>
<event>
 4    1  0.4915183E-005  0.8470185E+03  0.7818608E-02  0.9494347E-01
          2   -1    0    0  501    0  0.00000000000E+00  0.00000000000E+00  0.91459018455E+03  0.91459018456E+03  0.25500000000E-02 0.  1.
         -2   -1    0    0    0  501 -0.00000000000E+00 -0.00000000000E+00 -0.19610976337E+03  0.19610976339E+03  0.25500000000E-02 0. -1.
    5000001    1    1    2    0    0  0.25225927531E+03  0.27277935432E+03  0.41355654439E+03  0.59048567597E+03  0.19900000000E+03 0.  0.
   -5000001    1    1    2    0    0 -0.25225927531E+03 -0.27277935432E+03  0.30492387680E+03  0.52021427197E+03  0.19900000000E+03 0.  0.
<mgrwt>
<rscale>  0 0.84701845E+03</rscale>
<asrwt>0</asrwt>
<pdfrwt beam="1">  1        2 0.13065574E+00 0.84701845E+03</pdfrwt>
<pdfrwt beam="2">  1       -2 0.28015680E-01 0.84701845E+03</pdfrwt>
<totfact> 0.37079149E+02</totfact>
</mgrwt>
</event>
<event>
 4    1  0.4915183E-005  0.8649038E+03  0.7818608E-02  0.9470549E-01
          2   -1    0    0  501    0  0.00000000000E+00  0.00000000000E+00  0.15265785773E+04  0.15265785773E+04  0.25500000000E-02 0.  1.
         -2   -1    0    0    0  501 -0.00000000000E+00 -0.00000000000E+00 -0.12250573845E+03  0.12250573847E+03  0.25500000000E-02 0. -1.
    5000001    1    1    2    0    0  0.17298524880E+03 -0.33877149001E+03  0.80154215171E+03  0.90926389993E+03  0.19900000000E+03 0.  0.
   -5000001    1    1    2    0    0 -0.17298524880E+03  0.33877149001E+03  0.60253068710E+03  0.73982041580E+03  0.19900000000E+03 0.  0.
<mgrwt>
<rscale>  0 0.86490378E+03</rscale>
<asrwt>0</asrwt>
<pdfrwt beam="1">  1        2 0.21808262E+00 0.86490378E+03</pdfrwt>
<pdfrwt beam="2">  1       -2 0.17500822E-01 0.86490378E+03</pdfrwt>
<totfact> 0.38258033E+02</totfact>
</mgrwt>
</event>
<event>
 4    1  0.4915183E-005  0.8621459E+03  0.7818608E-02  0.9474179E-01
         -2   -1    0    0    0  501 -0.00000000000E+00  0.00000000000E+00  0.73323316807E+02  0.73323316852E+02  0.25500000000E-02 0. -1.
          2   -1    0    0  501    0  0.00000000000E+00 -0.00000000000E+00 -0.25343084203E+04  0.25343084203E+04  0.25500000000E-02 0.  1.
    5000001    1    1    2    0    0  0.14664448737E+03 -0.33532381160E+03 -0.89537430607E+03  0.98754382803E+03  0.19900000000E+03 0.  0.
   -5000001    1    1    2    0    0 -0.14664448737E+03  0.33532381160E+03 -0.15656107974E+04  0.16200879092E+04  0.19900000000E+03 0.  0.
<mgrwt>
<rscale>  0 0.86214593E+03</rscale>
<asrwt>0</asrwt>
<pdfrwt beam="1">  1        2 0.36204401E+00 0.86214593E+03</pdfrwt>
<pdfrwt beam="2">  1       -2 0.10474761E-01 0.86214593E+03</pdfrwt>
<totfact> 0.27540474E+02</totfact>
</mgrwt>
</event>
<event>
 4    1  0.4915183E-005  0.4486204E+03  0.7818608E-02  0.1028134E+00
         -2   -1    0    0    0  501 -0.00000000000E+00  0.00000000000E+00  0.57024089139E+03  0.57024089139E+03  0.25500000000E-02 0. -1.
          2   -1    0    0  501    0  0.00000000000E+00 -0.00000000000E+00 -0.88234740556E+02  0.88234740592E+02  0.25500000000E-02 0.  1.
    5000001    1    1    2    0    0  0.33235399370E+02 -0.97955531070E+02  0.24653005464E+03  0.33328358148E+03  0.19900000000E+03 0.  0.
   -5000001    1    1    2    0    0 -0.33235399370E+02  0.97955531070E+02  0.23547609619E+03  0.32519205051E+03  0.19900000000E+03 0.  0.
<mgrwt>
<rscale>  0 0.44862036E+03</rscale>
<asrwt>0</asrwt>
<pdfrwt beam="1">  1        2 0.12604963E-01 0.44862036E+03</pdfrwt>
<pdfrwt beam="2">  1       -2 0.81462986E-01 0.44862036E+03</pdfrwt>
<totfact> 0.66292142E+02</totfact>
</mgrwt>
</event>
<event>
 4    1  0.4915183E-005  0.1082697E+04  0.7818608E-02  0.9222223E-01
         -2   -1    0    0    0  501 -0.00000000000E+00  0.00000000000E+00  0.34927541696E+03  0.34927541697E+03  0.25500000000E-02 0. -1.
          2   -1    0    0  501    0  0.00000000000E+00 -0.00000000000E+00 -0.83904595704E+03  0.83904595705E+03  0.25500000000E-02 0.  1.
    5000001    1    1    2    0    0  0.44361467110E+03 -0.76916378191E+02 -0.49213299519E+03  0.69606464542E+03  0.19900000000E+03 0.  0.
   -5000001    1    1    2    0    0 -0.44361467110E+03  0.76916378191E+02  0.23624551089E+01  0.49225672859E+03  0.19900000000E+03 0.  0.
<mgrwt>
<rscale>  0 0.10826969E+04</rscale>
<asrwt>0</asrwt>
<pdfrwt beam="1">  1        2 0.11986371E+00 0.10826969E+04</pdfrwt>
<pdfrwt beam="2">  1       -2 0.49896488E-01 0.10826969E+04</pdfrwt>
<totfact> 0.13487622E+02</totfact>
</mgrwt>
</event>
<event>
 4    1  0.4915183E-005  0.8604587E+03  0.7818608E-02  0.9476406E-01
          2   -1    0    0  501    0  0.00000000000E+00  0.00000000000E+00  0.19173716593E+04  0.19173716593E+04  0.25500000000E-02 0.  1.
         -2   -1    0    0    0  501 -0.00000000000E+00 -0.00000000000E+00 -0.96536995831E+02  0.96536995864E+02  0.25500000000E-02 0. -1.
    5000001    1    1    2    0    0  0.59266679787E+02 -0.33312610940E+03  0.49825726982E+03  0.63430816723E+03  0.19900000000E+03 0.  0.
   -5000001    1    1    2    0    0 -0.59266679787E+02  0.33312610940E+03  0.13225773936E+04  0.13796004879E+04  0.19900000000E+03 0.  0.
<mgrwt>
<rscale>  0 0.86045871E+03</rscale>
<asrwt>0</asrwt>
<pdfrwt beam="1">  1        2 0.27391023E+00 0.86045871E+03</pdfrwt>
<pdfrwt beam="2">  1       -2 0.13791000E-01 0.86045871E+03</pdfrwt>
<totfact> 0.36107962E+02</totfact>
</mgrwt>
</event>
<event>
 4    1  0.4915183E-005  0.7473198E+03  0.7818608E-02  0.9639564E-01
          2   -1    0    0  501    0  0.00000000000E+00  0.00000000000E+00  0.41486959033E+03  0.41486959034E+03  0.25500000000E-02 0.  1.
         -2   -1    0    0    0  501 -0.00000000000E+00 -0.00000000000E+00 -0.33654367691E+03  0.33654367692E+03  0.25500000000E-02 0. -1.
    5000001    1    1    2    0    0  0.30356806413E+03  0.82320167738E+02  0.72367437047E+02  0.37916780655E+03  0.19900000000E+03 0.  0.
   -5000001    1    1    2    0    0 -0.30356806413E+03 -0.82320167738E+02  0.59584763767E+01  0.37224546071E+03  0.19900000000E+03 0.  0.
<mgrwt>
<rscale>  0 0.74731984E+03</rscale>
<asrwt>0</asrwt>
<pdfrwt beam="1">  1        2 0.59267085E-01 0.74731984E+03</pdfrwt>
<pdfrwt beam="2">  1       -2 0.48077668E-01 0.74731984E+03</pdfrwt>
<totfact> 0.34267484E+02</totfact>
</mgrwt>
</event>
<event>
 4    1  0.4915183E-005  0.4602510E+03  0.7818608E-02  0.1024708E+00
         -2   -1    0    0    0  501 -0.00000000000E+00  0.00000000000E+00  0.13325399748E+02  0.13325399992E+02  0.25500000000E-02 0. -1.
          2   -1    0    0  501    0  0.00000000000E+00 -0.00000000000E+00 -0.39741961243E+04  0.39741961243E+04  0.25500000000E-02 0.  1.
    5000001    1    1    2    0    0 -0.10859830183E+03  0.36697089244E+02 -0.18529611960E+04  0.18671385758E+04  0.19900000000E+03 0.  0.
   -5000001    1    1    2    0    0  0.10859830183E+03 -0.36697089244E+02 -0.21079095286E+04  0.21203829485E+04  0.19900000000E+03 0.  0.
<mgrwt>
<rscale>  0 0.46025103E+03</rscale>
<asrwt>0</asrwt>
<pdfrwt beam="1">  1        2 0.56774155E+00 0.46025103E+03</pdfrwt>
<pdfrwt beam="2">  1       -2 0.19036311E-02 0.46025103E+03</pdfrwt>
<totfact> 0.60295195E+02</totfact>
</mgrwt>
</event>
<event>
 4    1  0.4915183E-005  0.6647187E+03  0.7818608E-02  0.9779546E-01
         -2   -1    0    0    0  501 -0.00000000000E+00  0.00000000000E+00  0.47024430858E+02  0.47024430927E+02  0.25500000000E-02 0. -1.
          2   -1    0    0  501    0  0.00000000000E+00 -0.00000000000E+00 -0.23490496298E+04  0.23490496298E+04  0.25500000000E-02 0.  1.
    5000001    1    1    2    0    0  0.21285920247E+03  0.10982307496E+03 -0.73232154386E+03  0.79578011502E+03  0.19900000000E+03 0.  0.
   -5000001    1    1    2    0    0 -0.21285920247E+03 -0.10982307496E+03 -0.15697036551E+04  0.16002939457E+04  0.19900000000E+03 0.  0.
<mgrwt>
<rscale>  0 0.66471865E+03</rscale>
<asrwt>0</asrwt>
<pdfrwt beam="1">  1        2 0.33557844E+00 0.66471865E+03</pdfrwt>
<pdfrwt beam="2">  1       -2 0.67177773E-02 0.66471865E+03</pdfrwt>
<totfact> 0.71121177E+02</totfact>
</mgrwt>
</event>
<event>
 4    1  0.4915183E-005  0.9957099E+03  0.7818608E-02  0.9313263E-01
          2   -1    0    0  501    0  0.00000000000E+00  0.00000000000E+00  0.15767180410E+04  0.15767180410E+04  0.25500000000E-02 0.  1.
         -2   -1    0    0    0  501 -0.00000000000E+00 -0.00000000000E+00 -0.15719966368E+03  0.15719966370E+03  0.25500000000E-02 0. -1.
    5000001    1    1    2    0    0 -0.36421988396E+03 -0.13580670300E+03  0.11260893021E+04  0.12077987004E+04  0.19900000000E+03 0.  0.
   -5000001    1    1    2    0    0  0.36421988396E+03  0.13580670300E+03  0.29342907517E+03  0.52611900422E+03  0.19900000000E+03 0.  0.
<mgrwt>
<rscale>  0 0.99570989E+03</rscale>
<asrwt>0</asrwt>
<pdfrwt beam="1">  1        2 0.22524543E+00 0.99570989E+03</pdfrwt>
<pdfrwt beam="2">  1       -2 0.22457095E-01 0.99570989E+03</pdfrwt>
<totfact> 0.23087494E+02</totfact>
</mgrwt>
</event>
<event>
 4    1  0.4915183E-005  0.5729674E+03  0.7818608E-02  0.9963134E-01
         -2   -1    0    0    0  501 -0.00000000000E+00  0.00000000000E+00  0.12040208476E+03  0.12040208479E+03  0.25500000000E-02 0. -1.
          2   -1    0    0  501    0  0.00000000000E+00 -0.00000000000E+00 -0.68165689262E+03  0.68165689263E+03  0.25500000000E-02 0.  1.
    5000001    1    1    2    0    0 -0.20141308514E+02  0.13853166747E+03 -0.49234599226E+03  0.54918327660E+03  0.19900000000E+03 0.  0.
   -5000001    1    1    2    0    0  0.20141308514E+02 -0.13853166747E+03 -0.68908815600E+02  0.25287570082E+03  0.19900000000E+03 0.  0.
<mgrwt>
<rscale>  0 0.57296740E+03</rscale>
<asrwt>0</asrwt>
<pdfrwt beam="1">  1        2 0.97379554E-01 0.57296740E+03</pdfrwt>
<pdfrwt beam="2">  1       -2 0.17200298E-01 0.57296740E+03</pdfrwt>
<totfact> 0.12909756E+03</totfact>
</mgrwt>
</event>
<event>
 4    1  0.4915183E-005  0.1191126E+04  0.7818608E-02  0.9120659E-01
         -2   -1    0    0    0  501 -0.00000000000E+00  0.00000000000E+00  0.25361773138E+03  0.25361773139E+03  0.25500000000E-02 0. -1.
          2   -1    0    0  501    0  0.00000000000E+00 -0.00000000000E+00 -0.13985435612E+04  0.13985435612E+04  0.25500000000E-02 0.  1.
    5000001    1    1    2    0    0 -0.36782414112E+01 -0.34060717155E+03 -0.11913266139E+04  0.12549449693E+04  0.19900000000E+03 0.  0.
   -5000001    1    1    2    0    0  0.36782414112E+01  0.34060717155E+03  0.46400784107E+02  0.39721632335E+03  0.19900000000E+03 0.  0.
<mgrwt>
<rscale>  0 0.11911263E+04</rscale>
<asrwt>0</asrwt>
<pdfrwt beam="1">  1        2 0.19979193E+00 0.11911263E+04</pdfrwt>
<pdfrwt beam="2">  1       -2 0.36231105E-01 0.11911263E+04</pdfrwt>
<totfact> 0.11720031E+02</totfact>
</mgrwt>
</event>
<event>
 4    1  0.4915183E-005  0.6729939E+03  0.7818608E-02  0.9764564E-01
         -2   -1    0    0    0  501 -0.00000000000E+00  0.00000000000E+00  0.64905024369E+02  0.64905024420E+02  0.25500000000E-02 0. -1.
          2   -1    0    0  501    0  0.00000000000E+00 -0.00000000000E+00 -0.17445518640E+04  0.17445518640E+04  0.25500000000E-02 0.  1.
    5000001    1    1    2    0    0  0.15360296852E+03  0.20576629301E+03 -0.60396208606E+03  0.68578775191E+03  0.19900000000E+03 0.  0.
   -5000001    1    1    2    0    0 -0.15360296852E+03 -0.20576629301E+03 -0.10756847536E+04  0.11236691365E+04  0.19900000000E+03 0.  0.
<mgrwt>
<rscale>  0 0.67299385E+03</rscale>
<asrwt>0</asrwt>
<pdfrwt beam="1">  1        2 0.24922167E+00 0.67299385E+03</pdfrwt>
<pdfrwt beam="2">  1       -2 0.92721474E-02 0.67299385E+03</pdfrwt>
<totfact> 0.85903515E+02</totfact>
</mgrwt>
</event>
<event>
 4    1  0.4915183E-005  0.9200490E+03  0.7818608E-02  0.9400861E-01
          2   -1    0    0  501    0  0.00000000000E+00  0.00000000000E+00  0.56200239898E+03  0.56200239899E+03  0.25500000000E-02 0.  1.
         -2   -1    0    0    0  501 -0.00000000000E+00 -0.00000000000E+00 -0.37655093163E+03  0.37655093164E+03  0.25500000000E-02 0. -1.
    5000001    1    1    2    0    0  0.16419812341E+03  0.30535432219E+03  0.32494248007E+03  0.51516104392E+03  0.19900000000E+03 0.  0.
   -5000001    1    1    2    0    0 -0.16419812341E+03 -0.30535432219E+03 -0.13949101272E+03  0.42339228671E+03  0.19900000000E+03 0.  0.
<mgrwt>
<rscale>  0 0.92004897E+03</rscale>
<asrwt>0</asrwt>
<pdfrwt beam="1">  1        2 0.80286057E-01 0.92004897E+03</pdfrwt>
<pdfrwt beam="2">  1       -2 0.53792990E-01 0.92004897E+03</pdfrwt>
<totfact> 0.19128516E+02</totfact>
</mgrwt>
</event>
<event>
 4    1  0.4915183E-005  0.6252249E+03  0.7818608E-02  0.9854412E-01
          2   -1    0    0  501    0  0.00000000000E+00  0.00000000000E+00  0.27185725805E+04  0.27185725805E+04  0.25500000000E-02 0.  1.
         -2   -1    0    0    0  501 -0.00000000000E+00 -0.00000000000E+00 -0.35947739282E+02  0.35947739372E+02  0.25500000000E-02 0. -1.
    5000001    1    1    2    0    0  0.95516294458E+02  0.33626080927E+02  0.37737669779E+03  0.43848403376E+03  0.19900000000E+03 0.  0.
   -5000001    1    1    2    0    0 -0.95516294458E+02 -0.33626080927E+02  0.23052481434E+04  0.23160362861E+04  0.19900000000E+03 0.  0.
<mgrwt>
<rscale>  0 0.62522488E+03</rscale>
<asrwt>0</asrwt>
<pdfrwt beam="1">  1        2 0.38836747E+00 0.62522488E+03</pdfrwt>
<pdfrwt beam="2">  1       -2 0.51353919E-02 0.62522488E+03</pdfrwt>
<totfact> 0.70035658E+02</totfact>
</mgrwt>
</event>
<event>
 4    1  0.4915183E-005  0.9909825E+03  0.7818608E-02  0.9318491E-01
         -2   -1    0    0    0  501 -0.00000000000E+00  0.00000000000E+00  0.37974426172E+03  0.37974426173E+03  0.25500000000E-02 0. -1.
          2   -1    0    0  501    0  0.00000000000E+00 -0.00000000000E+00 -0.64651822885E+03  0.64651822885E+03  0.25500000000E-02 0.  1.
    5000001    1    1    2    0    0 -0.21504722551E+03  0.11503028635E+03 -0.52967633706E+03  0.61614551692E+03  0.19900000000E+03 0.  0.
   -5000001    1    1    2    0    0  0.21504722551E+03 -0.11503028635E+03  0.26290236993E+03  0.41011697367E+03  0.19900000000E+03 0.  0.
<mgrwt>
<rscale>  0 0.99098252E+03</rscale>
<asrwt>0</asrwt>
<pdfrwt beam="1">  1        2 0.92359747E-01 0.99098252E+03</pdfrwt>
<pdfrwt beam="2">  1       -2 0.54249180E-01 0.99098252E+03</pdfrwt>
<totfact> 0.15854573E+02</totfact>
</mgrwt>
</event>
<event>
 4    1  0.4915183E-005  0.1376084E+04  0.7818608E-02  0.8971315E-01
         -2   -1    0    0    0  501 -0.00000000000E+00  0.00000000000E+00  0.58797054553E+03  0.58797054554E+03  0.25500000000E-02 0. -1.
          2   -1    0    0  501    0  0.00000000000E+00 -0.00000000000E+00 -0.80514512578E+03  0.80514512579E+03  0.25500000000E-02 0.  1.
    5000001    1    1    2    0    0  0.32736941949E+03  0.53461910935E+03 -0.31310823682E+03  0.72844086710E+03  0.19900000000E+03 0.  0.
   -5000001    1    1    2    0    0 -0.32736941949E+03 -0.53461910935E+03  0.95933656564E+02  0.66467480422E+03  0.19900000000E+03 0.  0.
<mgrwt>
<rscale>  0 0.13760837E+04</rscale>
<asrwt>0</asrwt>
<pdfrwt beam="1">  1        2 0.11502073E+00 0.13760837E+04</pdfrwt>
<pdfrwt beam="2">  1       -2 0.83995792E-01 0.13760837E+04</pdfrwt>
<totfact> 0.45580020E+01</totfact>
</mgrwt>
</event>
<event>
 4    1  0.4915183E-005  0.1464219E+04  0.7818608E-02  0.8908602E-01
         -2   -1    0    0    0  501 -0.00000000000E+00  0.00000000000E+00  0.18748562329E+03  0.18748562331E+03  0.25500000000E-02 0. -1.
          2   -1    0    0  501    0  0.00000000000E+00 -0.00000000000E+00 -0.28588003636E+04  0.28588003636E+04  0.25500000000E-02 0.  1.
    5000001    1    1    2    0    0  0.48659251827E+02 -0.70286205543E+03 -0.13347838013E+04  0.15223769533E+04  0.19900000000E+03 0.  0.
   -5000001    1    1    2    0    0 -0.48659251827E+02  0.70286205543E+03 -0.13365309391E+04  0.15239090336E+04  0.19900000000E+03 0.  0.
<mgrwt>
<rscale>  0 0.14642185E+04</rscale>
<asrwt>0</asrwt>
<pdfrwt beam="1">  1        2 0.40840002E+00 0.14642185E+04</pdfrwt>
<pdfrwt beam="2">  1       -2 0.26783662E-01 0.14642185E+04</pdfrwt>
<totfact> 0.34818434E+01</totfact>
</mgrwt>
</event>
<event>
 4    1  0.4915183E-005  0.6716088E+03  0.7818608E-02  0.9767056E-01
         -2   -1    0    0    0  501 -0.00000000000E+00  0.00000000000E+00  0.13022268311E+03  0.13022268314E+03  0.25500000000E-02 0. -1.
          2   -1    0    0  501    0  0.00000000000E+00 -0.00000000000E+00 -0.86593666167E+03  0.86593666167E+03  0.25500000000E-02 0.  1.
    5000001    1    1    2    0    0  0.14517106673E+02  0.24075699464E+03 -0.54944935469E+03  0.63219480401E+03  0.19900000000E+03 0.  0.
   -5000001    1    1    2    0    0 -0.14517106673E+02 -0.24075699464E+03 -0.18626462387E+03  0.36396454080E+03  0.19900000000E+03 0.  0.
<mgrwt>
<rscale>  0 0.67160880E+03</rscale>
<asrwt>0</asrwt>
<pdfrwt beam="1">  1        2 0.12370523E+00 0.67160880E+03</pdfrwt>
<pdfrwt beam="2">  1       -2 0.18603241E-01 0.67160880E+03</pdfrwt>
<totfact> 0.83239709E+02</totfact>
</mgrwt>
</event>
<event>
 4    1  0.4915183E-005  0.5008709E+03  0.7818608E-02  0.1013552E+00
          2   -1    0    0  501    0  0.00000000000E+00  0.00000000000E+00  0.73057863313E+03  0.73057863313E+03  0.25500000000E-02 0.  1.
         -2   -1    0    0    0  501 -0.00000000000E+00 -0.00000000000E+00 -0.85846900081E+02  0.85846900119E+02  0.25500000000E-02 0. -1.
    5000001    1    1    2    0    0 -0.54768973601E+02 -0.14059668351E+03  0.29187797307E+03  0.38413645889E+03  0.19900000000E+03 0.  0.
   -5000001    1    1    2    0    0  0.54768973601E+02  0.14059668351E+03  0.35285375997E+03  0.43228907436E+03  0.19900000000E+03 0.  0.
<mgrwt>
<rscale>  0 0.50087089E+03</rscale>
<asrwt>0</asrwt>
<pdfrwt beam="1">  1        2 0.10436837E+00 0.50087089E+03</pdfrwt>
<pdfrwt beam="2">  1       -2 0.12263843E-01 0.50087089E+03</pdfrwt>
<totfact> 0.20901354E+03</totfact>
</mgrwt>
</event>
<event>
 4    1  0.4915183E-005  0.6453301E+03  0.7818608E-02  0.9815582E-01
          2   -1    0    0  501    0  0.00000000000E+00  0.00000000000E+00  0.53642474638E+03  0.53642474638E+03  0.25500000000E-02 0.  1.
         -2   -1    0    0    0  501 -0.00000000000E+00 -0.00000000000E+00 -0.19408637075E+03  0.19408637076E+03  0.25500000000E-02 0. -1.
    5000001    1    1    2    0    0 -0.10601588208E+03 -0.22277284657E+03  0.10282977159E+03  0.33322975610E+03  0.19900000000E+03 0.  0.
   -5000001    1    1    2    0    0  0.10601588208E+03  0.22277284657E+03  0.23950860404E+03  0.39728136105E+03  0.19900000000E+03 0.  0.
<mgrwt>
<rscale>  0 0.64533009E+03</rscale>
<asrwt>0</asrwt>
<pdfrwt beam="1">  1        2 0.76632107E-01 0.64533009E+03</pdfrwt>
<pdfrwt beam="2">  1       -2 0.27726624E-01 0.64533009E+03</pdfrwt>
<totfact> 0.73715214E+02</totfact>
</mgrwt>
</event>
<event>
 4    1  0.4915183E-005  0.1030399E+04  0.7818608E-02  0.9275818E-01
          2   -1    0    0  501    0  0.00000000000E+00  0.00000000000E+00  0.10881819361E+04  0.10881819361E+04  0.25500000000E-02 0.  1.
         -2   -1    0    0    0  501 -0.00000000000E+00 -0.00000000000E+00 -0.24392126725E+03  0.24392126727E+03  0.25500000000E-02 0. -1.
    5000001    1    1    2    0    0  0.29241258083E+03 -0.43000681402E+01 -0.62120722416E+02  0.35914285760E+03  0.19900000000E+03 0.  0.
   -5000001    1    1    2    0    0 -0.29241258083E+03  0.43000681402E+01  0.90638139125E+03  0.97296034575E+03  0.19900000000E+03 0.  0.
<mgrwt>
<rscale>  0 0.10303994E+04</rscale>
<asrwt>0</asrwt>
<pdfrwt beam="1">  1        2 0.15545457E+00 0.10303994E+04</pdfrwt>
<pdfrwt beam="2">  1       -2 0.34845895E-01 0.10303994E+04</pdfrwt>
<totfact> 0.19080498E+02</totfact>
</mgrwt>
</event>
<event>
 4    1  0.4915183E-005  0.7168369E+03  0.7818608E-02  0.9688864E-01
         -2   -1    0    0    0  501 -0.00000000000E+00  0.00000000000E+00  0.12235423120E+03  0.12235423122E+03  0.25500000000E-02 0.  1.
          2   -1    0    0  501    0  0.00000000000E+00 -0.00000000000E+00 -0.10499334216E+04  0.10499334216E+04  0.25500000000E-02 0. -1.
    5000001    1    1    2    0    0 -0.10487693113E+02 -0.23341081219E+03 -0.76654004401E+03  0.82569681968E+03  0.19900000000E+03 0.  0.
   -5000001    1    1    2    0    0  0.10487693113E+02  0.23341081219E+03 -0.16103914640E+03  0.34659083316E+03  0.19900000000E+03 0.  0.
<mgrwt>
<rscale>  0 0.71683693E+03</rscale>
<asrwt>0</asrwt>
<pdfrwt beam="1">  1        2 0.14999048E+00 0.71683693E+03</pdfrwt>
<pdfrwt beam="2">  1       -2 0.17479176E-01 0.71683693E+03</pdfrwt>
<totfact> 0.70932351E+02</totfact>
</mgrwt>
</event>
<event>
 4    1  0.4915183E-005  0.6939587E+03  0.7818608E-02  0.9727620E-01
          2   -1    0    0  501    0  0.00000000000E+00  0.00000000000E+00  0.40696331973E+03  0.40696331974E+03  0.25500000000E-02 0.  1.
         -2   -1    0    0    0  501 -0.00000000000E+00 -0.00000000000E+00 -0.29583667072E+03  0.29583667073E+03  0.25500000000E-02 0. -1.
    5000001    1    1    2    0    0  0.70306185938E+02  0.27215956589E+03  0.98289500863E+02  0.35815585304E+03  0.19900000000E+03 0.  0.
   -5000001    1    1    2    0    0 -0.70306185938E+02 -0.27215956589E+03  0.12837148154E+02  0.34464413743E+03  0.19900000000E+03 0.  0.
<mgrwt>
<rscale>  0 0.69395871E+03</rscale>
<asrwt>0</asrwt>
<pdfrwt beam="1">  1        2 0.58137617E-01 0.69395871E+03</pdfrwt>
<pdfrwt beam="2">  1       -2 0.42262382E-01 0.69395871E+03</pdfrwt>
<totfact> 0.45328448E+02</totfact>
</mgrwt>
</event>
<event>
 4    1  0.4915183E-005  0.8584863E+03  0.7818608E-02  0.9479017E-01
         -2   -1    0    0    0  501 -0.00000000000E+00  0.00000000000E+00  0.33630061342E+03  0.33630061343E+03  0.25500000000E-02 0. -1.
          2   -1    0    0  501    0  0.00000000000E+00 -0.00000000000E+00 -0.54787203860E+03  0.54787203861E+03  0.25500000000E-02 0.  1.
    5000001    1    1    2    0    0 -0.63101382656E+01  0.27662420495E+03 -0.37452970381E+03  0.50639339218E+03  0.19900000000E+03 0.  0.
   -5000001    1    1    2    0    0  0.63101382656E+01 -0.27662420495E+03  0.16295827863E+03  0.37777925986E+03  0.19900000000E+03 0.  0.
<mgrwt>
<rscale>  0 0.85848635E+03</rscale>
<asrwt>0</asrwt>
<pdfrwt beam="1">  1        2 0.78267434E-01 0.85848635E+03</pdfrwt>
<pdfrwt beam="2">  1       -2 0.48042945E-01 0.85848635E+03</pdfrwt>
<totfact> 0.24893286E+02</totfact>
</mgrwt>
</event>
<event>
 4    1  0.4915183E-005  0.6622778E+03  0.7818608E-02  0.9784010E-01
         -2   -1    0    0    0  501 -0.00000000000E+00  0.00000000000E+00  0.42038929349E+03  0.42038929349E+03  0.25500000000E-02 0. -1.
          2   -1    0    0  501    0  0.00000000000E+00 -0.00000000000E+00 -0.26083670268E+03  0.26083670270E+03  0.25500000000E-02 0.  1.
    5000001    1    1    2    0    0  0.23281919045E+03  0.16647597676E+02 -0.48573711381E+02  0.31055164368E+03  0.19900000000E+03 0.  0.
   -5000001    1    1    2    0    0 -0.23281919045E+03 -0.16647597676E+02  0.20812630218E+03  0.37067435251E+03  0.19900000000E+03 0.  0.
<mgrwt>
<rscale>  0 0.66227776E+03</rscale>
<asrwt>0</asrwt>
<pdfrwt beam="1">  1        2 0.37262386E-01 0.66227776E+03</pdfrwt>
<pdfrwt beam="2">  1       -2 0.60055613E-01 0.66227776E+03</pdfrwt>
<totfact> 0.36365725E+02</totfact>
</mgrwt>
</event>
<event>
 4    1  0.4915183E-005  0.6401724E+03  0.7818608E-02  0.9825397E-01
          2   -1    0    0  501    0  0.00000000000E+00  0.00000000000E+00  0.39563261181E+04  0.39563261181E+04  0.25500000000E-02 0.  1.
         -2   -1    0    0    0  501 -0.00000000000E+00 -0.00000000000E+00 -0.25896548258E+02  0.25896548384E+02  0.25500000000E-02 0. -1.
    5000001    1    1    2    0    0  0.10973646300E+03 -0.22362202053E+03  0.21417392954E+04  0.21653399523E+04  0.19900000000E+03 0.  0.
   -5000001    1    1    2    0    0 -0.10973646300E+03  0.22362202053E+03  0.17886902744E+04  0.18168827142E+04  0.19900000000E+03 0.  0.
<mgrwt>
<rscale>  0 0.64017245E+03</rscale>
<asrwt>0</asrwt>
<pdfrwt beam="1">  1        2 0.56518928E+00 0.64017245E+03</pdfrwt>
<pdfrwt beam="2">  1       -2 0.36995080E-02 0.64017245E+03</pdfrwt>
<totfact> 0.22103663E+02</totfact>
</mgrwt>
</event>
<event>
 4    1  0.4915183E-005  0.4609260E+03  0.7818608E-02  0.1024513E+00
          2   -1    0    0  501    0  0.00000000000E+00  0.00000000000E+00  0.14880232341E+04  0.14880232341E+04  0.25500000000E-02 0.  1.
         -2   -1    0    0    0  501 -0.00000000000E+00 -0.00000000000E+00 -0.35693796704E+02  0.35693796795E+02  0.25500000000E-02 0. -1.
    5000001    1    1    2    0    0  0.57536461182E+02  0.86693069817E+02  0.55483549406E+03  0.59855622810E+03  0.19900000000E+03 0.  0.
   -5000001    1    1    2    0    0 -0.57536461182E+02 -0.86693069817E+02  0.89749394332E+03  0.92516080278E+03  0.19900000000E+03 0.  0.
<mgrwt>
<rscale>  0 0.46092602E+03</rscale>
<asrwt>0</asrwt>
<pdfrwt beam="1">  1        2 0.21257474E+00 0.46092602E+03</pdfrwt>
<pdfrwt beam="2">  1       -2 0.50991140E-02 0.46092602E+03</pdfrwt>
<totfact> 0.30064064E+03</totfact>
</mgrwt>
</event>
<event>
 4    1  0.4915183E-005  0.7928151E+03  0.7818608E-02  0.9570476E-01
          2   -1    0    0  501    0  0.00000000000E+00  0.00000000000E+00  0.10409417735E+03  0.10409417738E+03  0.25500000000E-02 0.  1.
         -2   -1    0    0    0  501 -0.00000000000E+00 -0.00000000000E+00 -0.15095844306E+04  0.15095844306E+04  0.25500000000E-02 0. -1.
    5000001    1    1    2    0    0 -0.13646713197E+03  0.31294933129E+03 -0.76637755419E+03  0.86226220933E+03  0.19900000000E+03 0.  0.
   -5000001    1    1    2    0    0  0.13646713197E+03 -0.31294933129E+03 -0.63911269903E+03  0.75141639862E+03  0.19900000000E+03 0.  0.
<mgrwt>
<rscale>  0 0.79281511E+03</rscale>
<asrwt>0</asrwt>
<pdfrwt beam="1">  1        2 0.14870598E-01 0.79281511E+03</pdfrwt>
<pdfrwt beam="2">  1       -2 0.21565490E+00 0.79281511E+03</pdfrwt>
<totfact> 0.43441641E+01</totfact>
</mgrwt>
</event>
<event>
 4    1  0.4915183E-005  0.4789168E+03  0.7818608E-02  0.1019433E+00
         -2   -1    0    0    0  501 -0.00000000000E+00  0.00000000000E+00  0.23657419074E+02  0.23657419211E+02  0.25500000000E-02 0.  1.
          2   -1    0    0  501    0  0.00000000000E+00 -0.00000000000E+00 -0.24237772359E+04  0.24237772359E+04  0.25500000000E-02 0. -1.
    5000001    1    1    2    0    0  0.80588489274E+02  0.70949877650E+02 -0.16028040132E+04  0.16186754136E+04  0.19900000000E+03 0.  0.
   -5000001    1    1    2    0    0 -0.80588489274E+02 -0.70949877650E+02 -0.79731580361E+03  0.82875924153E+03  0.19900000000E+03 0.  0.
<mgrwt>
<rscale>  0 0.47891675E+03</rscale>
<asrwt>0</asrwt>
<pdfrwt beam="1">  1        2 0.34625373E+00 0.47891675E+03</pdfrwt>
<pdfrwt beam="2">  1       -2 0.33796328E-02 0.47891675E+03</pdfrwt>
<totfact> 0.19095542E+03</totfact>
</mgrwt>
</event>
<event>
 4    1  0.4915183E-005  0.5011661E+03  0.7818608E-02  0.1013475E+00
          2   -1    0    0  501    0  0.00000000000E+00  0.00000000000E+00  0.13500035812E+04  0.13500035812E+04  0.25500000000E-02 0.  1.
         -2   -1    0    0    0  501 -0.00000000000E+00 -0.00000000000E+00 -0.46512373957E+02  0.46512374027E+02  0.25500000000E-02 0. -1.
    5000001    1    1    2    0    0 -0.66088015352E+02 -0.13363768894E+03  0.73827244694E+03  0.77902109316E+03  0.19900000000E+03 0.  0.
   -5000001    1    1    2    0    0  0.66088015352E+02  0.13363768894E+03  0.56521876026E+03  0.61749486203E+03  0.19900000000E+03 0.  0.
<mgrwt>
<rscale>  0 0.50116613E+03</rscale>
<asrwt>0</asrwt>
<pdfrwt beam="1">  1        2 0.19285763E+00 0.50116613E+03</pdfrwt>
<pdfrwt beam="2">  1       -2 0.66446256E-02 0.50116613E+03</pdfrwt>
<totfact> 0.23519291E+03</totfact>
</mgrwt>
</event>
<event>
 4    1  0.4915183E-005  0.5794794E+03  0.7818608E-02  0.9948919E-01
          2   -1    0    0  501    0  0.00000000000E+00  0.00000000000E+00  0.50616123682E+02  0.50616123746E+02  0.25500000000E-02 0.  1.
         -2   -1    0    0    0  501 -0.00000000000E+00 -0.00000000000E+00 -0.16585442461E+04  0.16585442461E+04  0.25500000000E-02 0. -1.
    5000001    1    1    2    0    0  0.75790463184E+02  0.16946662794E+03 -0.10972100300E+04  0.11304574217E+04  0.19900000000E+03 0.  0.
   -5000001    1    1    2    0    0 -0.75790463184E+02 -0.16946662794E+03 -0.51071809238E+03  0.57870294813E+03  0.19900000000E+03 0.  0.
<mgrwt>
<rscale>  0 0.57947936E+03</rscale>
<asrwt>0</asrwt>
<pdfrwt beam="1">  1        2 0.72308758E-02 0.57947936E+03</pdfrwt>
<pdfrwt beam="2">  1       -2 0.23693486E+00 0.57947936E+03</pdfrwt>
<totfact> 0.81133794E+01</totfact>
</mgrwt>
</event>
<event>
 4    1  0.4915183E-005  0.4121359E+03  0.7818608E-02  0.1039657E+00
          2   -1    0    0  501    0  0.00000000000E+00  0.00000000000E+00  0.33250691852E+04  0.33250691852E+04  0.25500000000E-02 0.  1.
         -2   -1    0    0    0  501 -0.00000000000E+00 -0.00000000000E+00 -0.12770860035E+02  0.12770860289E+02  0.25500000000E-02 0. -1.
    5000001    1    1    2    0    0 -0.40715678758E+01 -0.51141261855E+02  0.17792381297E+04  0.17910670921E+04  0.19900000000E+03 0.  0.
   -5000001    1    1    2    0    0  0.40715678758E+01  0.51141261855E+02  0.15330601955E+04  0.15467729534E+04  0.19900000000E+03 0.  0.
<mgrwt>
<rscale>  0 0.41213587E+03</rscale>
<asrwt>0</asrwt>
<pdfrwt beam="1">  1        2 0.47501026E+00 0.41213587E+03</pdfrwt>
<pdfrwt beam="2">  1       -2 0.18244071E-02 0.41213587E+03</pdfrwt>
<totfact> 0.16059806E+03</totfact>
</mgrwt>
</event>
<event>
 4    1  0.4915183E-005  0.2646467E+04  0.7818608E-02  0.8352587E-01
         -2   -1    0    0    0  501 -0.00000000000E+00  0.00000000000E+00  0.12896117516E+04  0.12896117516E+04  0.25500000000E-02 0. -1.
          2   -1    0    0  501    0  0.00000000000E+00 -0.00000000000E+00 -0.13577313375E+04  0.13577313375E+04  0.25500000000E-02 0.  1.
    5000001    1    1    2    0    0 -0.46358885388E+03 -0.98818913411E+03  0.68722888750E+03  0.13051118473E+04  0.19900000000E+03 0.  0.
   -5000001    1    1    2    0    0  0.46358885388E+03  0.98818913411E+03 -0.75534847333E+03  0.13422312418E+04  0.19900000000E+03 0.  0.
<mgrwt>
<rscale>  0 0.26464665E+04</rscale>
<asrwt>0</asrwt>
<pdfrwt beam="1">  1        2 0.19396162E+00 0.26464665E+04</pdfrwt>
<pdfrwt beam="2">  1       -2 0.18423025E+00 0.26464665E+04</pdfrwt>
<totfact> 0.26240060E+00</totfact>
</mgrwt>
</event>
<event>
 4    1  0.4915183E-005  0.6071027E+03  0.7818608E-02  0.9890779E-01
         -2   -1    0    0    0  501 -0.00000000000E+00  0.00000000000E+00  0.37206544965E+02  0.37206545053E+02  0.25500000000E-02 0. -1.
          2   -1    0    0  501    0  0.00000000000E+00 -0.00000000000E+00 -0.24765379409E+04  0.24765379409E+04  0.25500000000E-02 0.  1.
    5000001    1    1    2    0    0 -0.17471299910E+03 -0.14114345340E+03 -0.10300880525E+04  0.10729065674E+04  0.19900000000E+03 0.  0.
   -5000001    1    1    2    0    0  0.17471299910E+03  0.14114345340E+03 -0.14092433434E+04  0.14408379185E+04  0.19900000000E+03 0.  0.
<mgrwt>
<rscale>  0 0.60710269E+03</rscale>
<asrwt>0</asrwt>
<pdfrwt beam="1">  1        2 0.35379103E+00 0.60710269E+03</pdfrwt>
<pdfrwt beam="2">  1       -2 0.53152223E-02 0.60710269E+03</pdfrwt>
<totfact> 0.88743862E+02</totfact>
</mgrwt>
</event>
<event>
 4    1  0.4915183E-005  0.8672807E+03  0.7818608E-02  0.9467432E-01
          2   -1    0    0  501    0  0.00000000000E+00  0.00000000000E+00  0.70697702417E+03  0.70697702418E+03  0.25500000000E-02 0.  1.
         -2   -1    0    0    0  501 -0.00000000000E+00 -0.00000000000E+00 -0.26598312562E+03  0.26598312563E+03  0.25500000000E-02 0. -1.
    5000001    1    1    2    0    0 -0.31581202131E+03 -0.16646546055E+03  0.57944671741E+02  0.41280330345E+03  0.19900000000E+03 0.  0.
   -5000001    1    1    2    0    0  0.31581202131E+03  0.16646546055E+03  0.38304922681E+03  0.56015684636E+03  0.19900000000E+03 0.  0.
<mgrwt>
<rscale>  0 0.86728071E+03</rscale>
<asrwt>0</asrwt>
<pdfrwt beam="1">  1        2 0.10099672E+00 0.86728071E+03</pdfrwt>
<pdfrwt beam="2">  1       -2 0.37997590E-01 0.86728071E+03</pdfrwt>
<totfact> 0.29131127E+02</totfact>
</mgrwt>
</event>
<event>
 4    1  0.4915183E-005  0.4901158E+03  0.7818608E-02  0.1016392E+00
          2   -1    0    0  501    0  0.00000000000E+00  0.00000000000E+00  0.61620371392E+03  0.61620371393E+03  0.25500000000E-02 0.  1.
         -2   -1    0    0    0  501 -0.00000000000E+00 -0.00000000000E+00 -0.97457029468E+02  0.97457029501E+02  0.25500000000E-02 0. -1.
    5000001    1    1    2    0    0  0.15477378023E+02 -0.14114841271E+03  0.28416822318E+03  0.37485330825E+03  0.19900000000E+03 0.  0.
   -5000001    1    1    2    0    0 -0.15477378023E+02  0.14114841271E+03  0.23457846128E+03  0.33880743518E+03  0.19900000000E+03 0.  0.
<mgrwt>
<rscale>  0 0.49011584E+03</rscale>
<asrwt>0</asrwt>
<pdfrwt beam="1">  1        2 0.88029103E-01 0.49011584E+03</pdfrwt>
<pdfrwt beam="2">  1       -2 0.13922433E-01 0.49011584E+03</pdfrwt>
<totfact> 0.20795389E+03</totfact>
</mgrwt>
</event>
<event>
 4    1  0.4915183E-005  0.1116132E+04  0.7818608E-02  0.9189610E-01
          2   -1    0    0  501    0  0.00000000000E+00  0.00000000000E+00  0.96909130872E+03  0.96909130873E+03  0.25500000000E-02 0.  1.
         -2   -1    0    0    0  501 -0.00000000000E+00 -0.00000000000E+00 -0.32137083127E+03  0.32137083128E+03  0.25500000000E-02 0. -1.
    5000001    1    1    2    0    0 -0.51820057535E+03 -0.55374182373E+02  0.30600304829E+03  0.63626802680E+03  0.19900000000E+03 0.  0.
   -5000001    1    1    2    0    0  0.51820057535E+03  0.55374182373E+02  0.34171742916E+03  0.65419411321E+03  0.19900000000E+03 0.  0.
<mgrwt>
<rscale>  0 0.11161320E+04</rscale>
<asrwt>0</asrwt>
<pdfrwt beam="1">  1        2 0.13844162E+00 0.11161320E+04</pdfrwt>
<pdfrwt beam="2">  1       -2 0.45910118E-01 0.11161320E+04</pdfrwt>
<totfact> 0.13095077E+02</totfact>
</mgrwt>
</event>
<event>
 4    1  0.4915183E-005  0.6990252E+03  0.7818608E-02  0.9718901E-01
         -2   -1    0    0    0  501 -0.00000000000E+00  0.00000000000E+00  0.19488582785E+03  0.19488582786E+03  0.25500000000E-02 0. -1.
          2   -1    0    0  501    0  0.00000000000E+00 -0.00000000000E+00 -0.62682362940E+03  0.62682362940E+03  0.25500000000E-02 0.  1.
    5000001    1    1    2    0    0 -0.12049764717E+03  0.20290611584E+02 -0.52166114346E+03  0.57154417195E+03  0.19900000000E+03 0.  0.
   -5000001    1    1    2    0    0  0.12049764717E+03 -0.20290611584E+02  0.89723341914E+02  0.25016528531E+03  0.19900000000E+03 0.  0.
<mgrwt>
<rscale>  0 0.69902516E+03</rscale>
<asrwt>0</asrwt>
<pdfrwt beam="1">  1        2 0.89546232E-01 0.69902516E+03</pdfrwt>
<pdfrwt beam="2">  1       -2 0.27840833E-01 0.69902516E+03</pdfrwt>
<totfact> 0.60875599E+02</totfact>
</mgrwt>
</event>
<event>
 4    1  0.4915183E-005  0.5354531E+03  0.7818608E-02  0.1004918E+00
         -2   -1    0    0    0  501 -0.00000000000E+00  0.00000000000E+00  0.54798465455E+02  0.54798465515E+02  0.25500000000E-02 0.  1.
          2   -1    0    0  501    0  0.00000000000E+00 -0.00000000000E+00 -0.13080205042E+04  0.13080205042E+04  0.25500000000E-02 0. -1.
    5000001    1    1    2    0    0 -0.80690245594E+02  0.22343469955E+02 -0.22365056880E+03  0.31085482674E+03  0.19900000000E+03 0.  0.
   -5000001    1    1    2    0    0  0.80690245594E+02 -0.22343469955E+02 -0.10295714699E+04  0.10519641429E+04  0.19900000000E+03 0.  0.
<mgrwt>
<rscale>  0 0.53545314E+03</rscale>
<asrwt>0</asrwt>
<pdfrwt beam="1">  1        2 0.18686005E+00 0.53545314E+03</pdfrwt>
<pdfrwt beam="2">  1       -2 0.78283531E-02 0.53545314E+03</pdfrwt>
<totfact> 0.19113956E+03</totfact>
</mgrwt>
</event>
<event>
 4    1  0.4915183E-005  0.4901475E+03  0.7818608E-02  0.1016383E+00
          2   -1    0    0  501    0  0.00000000000E+00  0.00000000000E+00  0.17321832147E+03  0.17321832149E+03  0.25500000000E-02 0.  1.
         -2   -1    0    0    0  501 -0.00000000000E+00 -0.00000000000E+00 -0.34673660288E+03  0.34673660289E+03  0.25500000000E-02 0. -1.
    5000001    1    1    2    0    0  0.11744403090E+03 -0.39843195073E+02 -0.11153945810E+02  0.23474665300E+03  0.19900000000E+03 0.  0.
   -5000001    1    1    2    0    0 -0.11744403090E+03  0.39843195073E+02 -0.16236433560E+03  0.28520827138E+03  0.19900000000E+03 0.  0.
<mgrwt>
<rscale>  0 0.49014746E+03</rscale>
<asrwt>0</asrwt>
<pdfrwt beam="1">  1        2 0.24745475E-01 0.49014746E+03</pdfrwt>
<pdfrwt beam="2">  1       -2 0.49533800E-01 0.49014746E+03</pdfrwt>
<totfact> 0.85832424E+02</totfact>
</mgrwt>
</event>
<event>
 4    1  0.4915183E-005  0.7321057E+03  0.7818608E-02  0.9663850E-01
          2   -1    0    0  501    0  0.00000000000E+00  0.00000000000E+00  0.36740895395E+03  0.36740895396E+03  0.25500000000E-02 0.  1.
         -2   -1    0    0    0  501 -0.00000000000E+00 -0.00000000000E+00 -0.36470172803E+03  0.36470172804E+03  0.25500000000E-02 0. -1.
    5000001    1    1    2    0    0 -0.15537017279E+03 -0.25739384307E+03  0.64616983824E+02  0.36628927863E+03  0.19900000000E+03 0.  0.
   -5000001    1    1    2    0    0  0.15537017279E+03  0.25739384307E+03 -0.61909757900E+02  0.36582140337E+03  0.19900000000E+03 0.  0.
<mgrwt>
<rscale>  0 0.73210568E+03</rscale>
<asrwt>0</asrwt>
<pdfrwt beam="1">  1        2 0.52486994E-01 0.73210568E+03</pdfrwt>
<pdfrwt beam="2">  1       -2 0.52100247E-01 0.73210568E+03</pdfrwt>
<totfact> 0.33346605E+02</totfact>
</mgrwt>
</event>
<event>
 4    1  0.4915183E-005  0.7108300E+03  0.7818608E-02  0.9698889E-01
          2   -1    0    0  501    0  0.00000000000E+00  0.00000000000E+00  0.12443535622E+03  0.12443535625E+03  0.25500000000E-02 0.  1.
         -2   -1    0    0    0  501 -0.00000000000E+00 -0.00000000000E+00 -0.10151440428E+04  0.10151440428E+04  0.25500000000E-02 0. -1.
    5000001    1    1    2    0    0  0.27286584134E+03 -0.17098647055E+02 -0.26995084022E+03  0.43269225465E+03  0.19900000000E+03 0.  0.
   -5000001    1    1    2    0    0 -0.27286584134E+03  0.17098647055E+02 -0.62075784634E+03  0.70688714438E+03  0.19900000000E+03 0.  0.
<mgrwt>
<rscale>  0 0.71082997E+03</rscale>
<asrwt>0</asrwt>
<pdfrwt beam="1">  1        2 0.17776480E-01 0.71082997E+03</pdfrwt>
<pdfrwt beam="2">  1       -2 0.14502057E+00 0.71082997E+03</pdfrwt>
<totfact> 0.10835622E+02</totfact>
</mgrwt>
</event>
<event>
 4    1  0.4915183E-005  0.8674124E+03  0.7818608E-02  0.9467260E-01
         -2   -1    0    0    0  501 -0.00000000000E+00  0.00000000000E+00  0.68647498421E+03  0.68647498422E+03  0.25500000000E-02 0. -1.
          2   -1    0    0  501    0  0.00000000000E+00 -0.00000000000E+00 -0.27401005805E+03  0.27401005806E+03  0.25500000000E-02 0.  1.
    5000001    1    1    2    0    0  0.30328487184E+03 -0.14043969906E+03  0.41863493527E+03  0.57145536273E+03  0.19900000000E+03 0.  0.
   -5000001    1    1    2    0    0 -0.30328487184E+03  0.14043969906E+03 -0.61700091093E+01  0.38902967955E+03  0.19900000000E+03 0.  0.
<mgrwt>
<rscale>  0 0.86741236E+03</rscale>
<asrwt>0</asrwt>
<pdfrwt beam="1">  1        2 0.39144294E-01 0.86741236E+03</pdfrwt>
<pdfrwt beam="2">  1       -2 0.98067854E-01 0.86741236E+03</pdfrwt>
<totfact> 0.11468931E+02</totfact>
</mgrwt>
</event>
<event>
 4    1  0.4915183E-005  0.6090282E+03  0.7818608E-02  0.9886850E-01
         -2   -1    0    0    0  501 -0.00000000000E+00  0.00000000000E+00  0.42942259092E+02  0.42942259167E+02  0.25500000000E-02 0. -1.
          2   -1    0    0  501    0  0.00000000000E+00 -0.00000000000E+00 -0.21593842518E+04  0.21593842518E+04  0.25500000000E-02 0.  1.
    5000001    1    1    2    0    0 -0.21566688252E+03 -0.86231314530E+01 -0.13506870884E+04  0.13822239954E+04  0.19900000000E+03 0.  0.
   -5000001    1    1    2    0    0  0.21566688252E+03  0.86231314530E+01 -0.76575490428E+03  0.82010251557E+03  0.19900000000E+03 0.  0.
<mgrwt>
<rscale>  0 0.60902820E+03</rscale>
<asrwt>0</asrwt>
<pdfrwt beam="1">  1        2 0.30848340E+00 0.60902820E+03</pdfrwt>
<pdfrwt beam="2">  1       -2 0.61346098E-02 0.60902820E+03</pdfrwt>
<totfact> 0.10272097E+03</totfact>
</mgrwt>
</event>
<event>
 4    1  0.4915183E-005  0.5365417E+03  0.7818608E-02  0.1004658E+00
          2   -1    0    0  501    0  0.00000000000E+00  0.00000000000E+00  0.87545891141E+03  0.87545891141E+03  0.25500000000E-02 0.  1.
         -2   -1    0    0    0  501 -0.00000000000E+00 -0.00000000000E+00 -0.82207460569E+02  0.82207460609E+02  0.25500000000E-02 0. -1.
    5000001    1    1    2    0    0 -0.56773212805E+02 -0.17067996402E+03  0.39009046666E+03  0.47341991930E+03  0.19900000000E+03 0.  0.
   -5000001    1    1    2    0    0  0.56773212805E+02  0.17067996402E+03  0.40316098418E+03  0.48424645272E+03  0.19900000000E+03 0.  0.
<mgrwt>
<rscale>  0 0.53654172E+03</rscale>
<asrwt>0</asrwt>
<pdfrwt beam="1">  1        2 0.12506556E+00 0.53654172E+03</pdfrwt>
<pdfrwt beam="2">  1       -2 0.11743923E-01 0.53654172E+03</pdfrwt>
<totfact> 0.17827167E+03</totfact>
</mgrwt>
</event>
<event>
 4    1  0.4915183E-005  0.7427266E+03  0.7818608E-02  0.9646831E-01
          2   -1    0    0  501    0  0.00000000000E+00  0.00000000000E+00  0.13359373090E+04  0.13359373090E+04  0.25500000000E-02 0.  1.
         -2   -1    0    0    0  501 -0.00000000000E+00 -0.00000000000E+00 -0.10323142120E+03  0.10323142123E+03  0.25500000000E-02 0. -1.
    5000001    1    1    2    0    0  0.28372401689E+03  0.11202394810E+03  0.47580714064E+03  0.59920123313E+03  0.19900000000E+03 0.  0.
   -5000001    1    1    2    0    0 -0.28372401689E+03 -0.11202394810E+03  0.75689874712E+03  0.83996749705E+03  0.19900000000E+03 0.  0.
<mgrwt>
<rscale>  0 0.74272662E+03</rscale>
<asrwt>0</asrwt>
<pdfrwt beam="1">  1        2 0.19084817E+00 0.74272662E+03</pdfrwt>
<pdfrwt beam="2">  1       -2 0.14747347E-01 0.74272662E+03</pdfrwt>
<totfact> 0.65133214E+02</totfact>
</mgrwt>
</event>
<event>
 4    1  0.4915183E-005  0.5230779E+03  0.7818608E-02  0.1007925E+00
         -2   -1    0    0    0  501 -0.00000000000E+00  0.00000000000E+00  0.11246461624E+03  0.11246461626E+03  0.25500000000E-02 0. -1.
          2   -1    0    0  501    0  0.00000000000E+00 -0.00000000000E+00 -0.60821461994E+03  0.60821461994E+03  0.25500000000E-02 0.  1.
    5000001    1    1    2    0    0  0.15431557064E+03  0.39423162396E+02 -0.16713573420E+03  0.30479966326E+03  0.19900000000E+03 0.  0.
   -5000001    1    1    2    0    0 -0.15431557064E+03 -0.39423162396E+02 -0.32861426950E+03  0.41587957295E+03  0.19900000000E+03 0.  0.
<mgrwt>
<rscale>  0 0.52307791E+03</rscale>
<asrwt>0</asrwt>
<pdfrwt beam="1">  1        2 0.86887801E-01 0.52307791E+03</pdfrwt>
<pdfrwt beam="2">  1       -2 0.16066374E-01 0.52307791E+03</pdfrwt>
<totfact> 0.16610965E+03</totfact>
</mgrwt>
</event>
<event>
 4    1  0.4915183E-005  0.6651277E+03  0.7818608E-02  0.9778800E-01
         -2   -1    0    0    0  501 -0.00000000000E+00  0.00000000000E+00  0.11438178437E+03  0.11438178440E+03  0.25500000000E-02 0. -1.
          2   -1    0    0  501    0  0.00000000000E+00 -0.00000000000E+00 -0.96692585141E+03  0.96692585141E+03  0.25500000000E-02 0.  1.
    5000001    1    1    2    0    0  0.23710961250E+03 -0.10575148128E+03 -0.32881916506E+03  0.46381826985E+03  0.19900000000E+03 0.  0.
   -5000001    1    1    2    0    0 -0.23710961250E+03  0.10575148128E+03 -0.52372490198E+03  0.61748936597E+03  0.19900000000E+03 0.  0.
<mgrwt>
<rscale>  0 0.66512767E+03</rscale>
<asrwt>0</asrwt>
<pdfrwt beam="1">  1        2 0.13813226E+00 0.66512767E+03</pdfrwt>
<pdfrwt beam="2">  1       -2 0.16340255E-01 0.66512767E+03</pdfrwt>
<totfact> 0.89583898E+02</totfact>
</mgrwt>
</event>
<event>
 4    1  0.4915183E-005  0.6481174E+03  0.7818608E-02  0.9810318E-01
         -2   -1    0    0    0  501 -0.00000000000E+00  0.00000000000E+00  0.14512672451E+03  0.14512672453E+03  0.25500000000E-02 0. -1.
          2   -1    0    0  501    0  0.00000000000E+00 -0.00000000000E+00 -0.72360231920E+03  0.72360231921E+03  0.25500000000E-02 0.  1.
    5000001    1    1    2    0    0  0.14528741702E+03 -0.19247760474E+03 -0.17505296603E+03  0.35833029845E+03  0.19900000000E+03 0.  0.
   -5000001    1    1    2    0    0 -0.14528741702E+03  0.19247760474E+03 -0.40342262867E+03  0.51039874529E+03  0.19900000000E+03 0.  0.
<mgrwt>
<rscale>  0 0.64811738E+03</rscale>
<asrwt>0</asrwt>
<pdfrwt beam="1">  1        2 0.10337176E+00 0.64811738E+03</pdfrwt>
<pdfrwt beam="2">  1       -2 0.20732390E-01 0.64811738E+03</pdfrwt>
<totfact> 0.86760292E+02</totfact>
</mgrwt>
</event>
<event>
 4    1  0.4915183E-005  0.6340383E+03  0.7818608E-02  0.9837200E-01
          2   -1    0    0  501    0  0.00000000000E+00  0.00000000000E+00  0.57575910618E+03  0.57575910618E+03  0.25500000000E-02 0.  1.
         -2   -1    0    0    0  501 -0.00000000000E+00 -0.00000000000E+00 -0.17455416813E+03  0.17455416815E+03  0.25500000000E-02 0. -1.
    5000001    1    1    2    0    0  0.16692638439E+03 -0.18167590432E+03  0.19416416312E+03  0.37171396834E+03  0.19900000000E+03 0.  0.
   -5000001    1    1    2    0    0 -0.16692638439E+03  0.18167590432E+03  0.20704077493E+03  0.37859930599E+03  0.19900000000E+03 0.  0.
<mgrwt>
<rscale>  0 0.63403833E+03</rscale>
<asrwt>0</asrwt>
<pdfrwt beam="1">  1        2 0.82251300E-01 0.63403833E+03</pdfrwt>
<pdfrwt beam="2">  1       -2 0.24936310E-01 0.63403833E+03</pdfrwt>
<totfact> 0.82301363E+02</totfact>
</mgrwt>
</event>
<event>
 4    1  0.4915183E-005  0.7686930E+03  0.7818608E-02  0.9606472E-01
          2   -1    0    0  501    0  0.00000000000E+00  0.00000000000E+00  0.89099339523E+03  0.89099339524E+03  0.25500000000E-02 0.  1.
         -2   -1    0    0    0  501 -0.00000000000E+00 -0.00000000000E+00 -0.16579498709E+03  0.16579498711E+03  0.25500000000E-02 0. -1.
    5000001    1    1    2    0    0 -0.22955617033E+03 -0.21940634347E+03  0.47994876090E+03  0.60892281283E+03  0.19900000000E+03 0.  0.
   -5000001    1    1    2    0    0  0.22955617033E+03  0.21940634347E+03  0.24524964724E+03  0.44786556952E+03  0.19900000000E+03 0.  0.
<mgrwt>
<rscale>  0 0.76869302E+03</rscale>
<asrwt>0</asrwt>
<pdfrwt beam="1">  1        2 0.12728477E+00 0.76869302E+03</pdfrwt>
<pdfrwt beam="2">  1       -2 0.23684998E-01 0.76869302E+03</pdfrwt>
<totfact> 0.52241069E+02</totfact>
</mgrwt>
</event>
<event>
 4    1  0.4915183E-005  0.4772661E+03  0.7818608E-02  0.1019889E+00
         -2   -1    0    0    0  501 -0.00000000000E+00  0.00000000000E+00  0.18891267323E+03  0.18891267325E+03  0.25500000000E-02 0. -1.
          2   -1    0    0  501    0  0.00000000000E+00 -0.00000000000E+00 -0.30143948347E+03  0.30143948348E+03  0.25500000000E-02 0.  1.
    5000001    1    1    2    0    0 -0.87948744651E-01  0.12997534442E+03 -0.78085855221E+02  0.25018392970E+03  0.19900000000E+03 0.  0.
   -5000001    1    1    2    0    0  0.87948744651E-01 -0.12997534442E+03 -0.34440955020E+02  0.24016822703E+03  0.19900000000E+03 0.  0.
<mgrwt>
<rscale>  0 0.47726613E+03</rscale>
<asrwt>0</asrwt>
<pdfrwt beam="1">  1        2 0.43062783E-01 0.47726613E+03</pdfrwt>
<pdfrwt beam="2">  1       -2 0.26987525E-01 0.47726613E+03</pdfrwt>
<totfact> 0.14733249E+03</totfact>
</mgrwt>
</event>
<event>
 4    1  0.4915183E-005  0.4256981E+03  0.7818608E-02  0.1035228E+00
         -2   -1    0    0    0  501 -0.00000000000E+00  0.00000000000E+00  0.14614313308E+04  0.14614313308E+04  0.25500000000E-02 0. -1.
          2   -1    0    0  501    0  0.00000000000E+00 -0.00000000000E+00 -0.31000242348E+02  0.31000242453E+02  0.25500000000E-02 0.  1.
    5000001    1    1    2    0    0 -0.35636509387E+02  0.16601891703E+01  0.94858497745E+03  0.96989029095E+03  0.19900000000E+03 0.  0.
   -5000001    1    1    2    0    0  0.35636509387E+02 -0.16601891703E+01  0.48184611100E+03  0.52254128231E+03  0.19900000000E+03 0.  0.
<mgrwt>
<rscale>  0 0.42569813E+03</rscale>
<asrwt>0</asrwt>
<pdfrwt beam="1">  1        2 0.44286045E-02 0.42569813E+03</pdfrwt>
<pdfrwt beam="2">  1       -2 0.20877598E+00 0.42569813E+03</pdfrwt>
<totfact> 0.23441675E+02</totfact>
</mgrwt>
</event>
<event>
 4    1  0.4915183E-005  0.5510389E+03  0.7818608E-02  0.1001254E+00
          2   -1    0    0  501    0  0.00000000000E+00  0.00000000000E+00  0.76073970832E+03  0.76073970833E+03  0.25500000000E-02 0. -1.
         -2   -1    0    0    0  501 -0.00000000000E+00 -0.00000000000E+00 -0.99785737184E+02  0.99785737217E+02  0.25500000000E-02 0.  1.
    5000001    1    1    2    0    0 -0.21004486286E+02 -0.10068616722E+03  0.58097855430E+03  0.62266842964E+03  0.19900000000E+03 0.  0.
   -5000001    1    1    2    0    0  0.21004486286E+02  0.10068616722E+03  0.79975416834E+02  0.23785701590E+03  0.19900000000E+03 0.  0.
<mgrwt>
<rscale>  0 0.55103892E+03</rscale>
<asrwt>0</asrwt>
<pdfrwt beam="1">  1        2 0.10867710E+00 0.55103892E+03</pdfrwt>
<pdfrwt beam="2">  1       -2 0.14255106E-01 0.55103892E+03</pdfrwt>
<totfact> 0.15489799E+03</totfact>
</mgrwt>
</event>
<event>
 4    1  0.4915183E-005  0.9884406E+03  0.7818608E-02  0.9321315E-01
         -2   -1    0    0    0  501 -0.00000000000E+00  0.00000000000E+00  0.55437887524E+03  0.55437887524E+03  0.25500000000E-02 0. -1.
          2   -1    0    0  501    0  0.00000000000E+00 -0.00000000000E+00 -0.44058989008E+03  0.44058989009E+03  0.25500000000E-02 0.  1.
    5000001    1    1    2    0    0  0.39388695781E+03  0.16057397237E+03  0.21193050666E+03  0.51521498017E+03  0.19900000000E+03 0.  0.
   -5000001    1    1    2    0    0 -0.39388695781E+03 -0.16057397237E+03 -0.98141521503E+02  0.47975378516E+03  0.19900000000E+03 0.  0.
<mgrwt>
<rscale>  0 0.98844065E+03</rscale>
<asrwt>0</asrwt>
<pdfrwt beam="1">  1        2 0.62941413E-01 0.98844065E+03</pdfrwt>
<pdfrwt beam="2">  1       -2 0.79196982E-01 0.98844065E+03</pdfrwt>
<totfact> 0.10966166E+02</totfact>
</mgrwt>
</event>
<event>
 4    1  0.4915183E-005  0.6388777E+03  0.7818608E-02  0.9827876E-01
          2   -1    0    0  501    0  0.00000000000E+00  0.00000000000E+00  0.73104180815E+03  0.73104180815E+03  0.25500000000E-02 0.  1.
         -2   -1    0    0    0  501 -0.00000000000E+00 -0.00000000000E+00 -0.13958322707E+03  0.13958322710E+03  0.25500000000E-02 0. -1.
    5000001    1    1    2    0    0  0.19952012604E+02 -0.24693035826E+03  0.34025341165E+03  0.46555995186E+03  0.19900000000E+03 0.  0.
   -5000001    1    1    2    0    0 -0.19952012604E+02  0.24693035826E+03  0.25120516943E+03  0.40506508339E+03  0.19900000000E+03 0.  0.
<mgrwt>
<rscale>  0 0.63887769E+03</rscale>
<asrwt>0</asrwt>
<pdfrwt beam="1">  1        2 0.10443455E+00 0.63887769E+03</pdfrwt>
<pdfrwt beam="2">  1       -2 0.19940461E-01 0.63887769E+03</pdfrwt>
<totfact> 0.91718338E+02</totfact>
</mgrwt>
</event>
<event>
 4    1  0.4915183E-005  0.8978372E+03  0.7818608E-02  0.9428289E-01
         -2   -1    0    0    0  501 -0.00000000000E+00  0.00000000000E+00  0.90783352252E+02  0.90783352288E+02  0.25500000000E-02 0. -1.
          2   -1    0    0  501    0  0.00000000000E+00 -0.00000000000E+00 -0.22198771550E+04  0.22198771550E+04  0.25500000000E-02 0.  1.
    5000001    1    1    2    0    0 -0.14941036133E+02 -0.38474119848E+03 -0.76355990712E+03  0.87799416634E+03  0.19900000000E+03 0.  0.
   -5000001    1    1    2    0    0  0.14941036133E+02  0.38474119848E+03 -0.13655338956E+04  0.14326663409E+04  0.19900000000E+03 0.  0.
<mgrwt>
<rscale>  0 0.89783716E+03</rscale>
<asrwt>0</asrwt>
<pdfrwt beam="1">  1        2 0.31712527E+00 0.89783716E+03</pdfrwt>
<pdfrwt beam="2">  1       -2 0.12969052E-01 0.89783716E+03</pdfrwt>
<totfact> 0.28008171E+02</totfact>
</mgrwt>
</event>
<event>
 4    1  0.4915183E-005  0.6117250E+03  0.7818608E-02  0.9881375E-01
         -2   -1    0    0    0  501 -0.00000000000E+00  0.00000000000E+00  0.56896410070E+02  0.56896410127E+02  0.25500000000E-02 0. -1.
          2   -1    0    0  501    0  0.00000000000E+00 -0.00000000000E+00 -0.16442489285E+04  0.16442489285E+04  0.25500000000E-02 0.  1.
    5000001    1    1    2    0    0 -0.19338137864E+03 -0.12857917626E+03 -0.80668990725E+03  0.86271580989E+03  0.19900000000E+03 0.  0.
   -5000001    1    1    2    0    0  0.19338137864E+03  0.12857917626E+03 -0.78066261121E+03  0.83842952877E+03  0.19900000000E+03 0.  0.
<mgrwt>
<rscale>  0 0.61172498E+03</rscale>
<asrwt>0</asrwt>
<pdfrwt beam="1">  1        2 0.23489268E+00 0.61172498E+03</pdfrwt>
<pdfrwt beam="2">  1       -2 0.81280596E-02 0.61172498E+03</pdfrwt>
<totfact> 0.11974326E+03</totfact>
</mgrwt>
</event>
<event>
 4    1  0.4915183E-005  0.5930321E+03  0.7818608E-02  0.9919969E-01
          2   -1    0    0  501    0  0.00000000000E+00  0.00000000000E+00  0.18042660171E+04  0.18042660171E+04  0.25500000000E-02 0.  1.
         -2   -1    0    0    0  501 -0.00000000000E+00 -0.00000000000E+00 -0.48729937952E+02  0.48729938018E+02  0.25500000000E-02 0. -1.
    5000001    1    1    2    0    0  0.20092833990E+03 -0.81029085836E+02  0.99396251058E+03  0.10365811029E+04  0.19900000000E+03 0.  0.
   -5000001    1    1    2    0    0 -0.20092833990E+03  0.81029085836E+02  0.76157356858E+03  0.81641485220E+03  0.19900000000E+03 0.  0.
<mgrwt>
<rscale>  0 0.59303211E+03</rscale>
<asrwt>0</asrwt>
<pdfrwt beam="1">  1        2 0.25775231E+00 0.59303211E+03</pdfrwt>
<pdfrwt beam="2">  1       -2 0.69614192E-02 0.59303211E+03</pdfrwt>
<totfact> 0.12710795E+03</totfact>
</mgrwt>
</event>
<event>
 4    1  0.4915183E-005  0.5523613E+03  0.7818608E-02  0.1000949E+00
          2   -1    0    0  501    0  0.00000000000E+00  0.00000000000E+00  0.21270176050E+03  0.21270176051E+03  0.25500000000E-02 0.  1.
         -2   -1    0    0    0  501 -0.00000000000E+00 -0.00000000000E+00 -0.35860418769E+03  0.35860418770E+03  0.25500000000E-02 0. -1.
    5000001    1    1    2    0    0 -0.15231665303E+03 -0.80513645093E+02  0.13534452393E+02  0.26356591441E+03  0.19900000000E+03 0.  0.
   -5000001    1    1    2    0    0  0.15231665303E+03  0.80513645093E+02 -0.15943687959E+03  0.30774003381E+03  0.19900000000E+03 0.  0.
<mgrwt>
<rscale>  0 0.55236127E+03</rscale>
<asrwt>0</asrwt>
<pdfrwt beam="1">  1        2 0.30385966E-01 0.55236127E+03</pdfrwt>
<pdfrwt beam="2">  1       -2 0.51229170E-01 0.55236127E+03</pdfrwt>
<totfact> 0.63570217E+02</totfact>
</mgrwt>
</event>
<event>
 4    1  0.4915183E-005  0.6649240E+03  0.7818608E-02  0.9779171E-01
          2   -1    0    0  501    0  0.00000000000E+00  0.00000000000E+00  0.94779365760E+03  0.94779365760E+03  0.25500000000E-02 0.  1.
         -2   -1    0    0    0  501 -0.00000000000E+00 -0.00000000000E+00 -0.11661923779E+03  0.11661923782E+03  0.25500000000E-02 0. -1.
    5000001    1    1    2    0    0  0.21792223544E+03  0.81195211990E+02  0.62336644269E+03  0.69445625133E+03  0.19900000000E+03 0.  0.
   -5000001    1    1    2    0    0 -0.21792223544E+03 -0.81195211990E+02  0.20780797712E+03  0.36995664409E+03  0.19900000000E+03 0.  0.
<mgrwt>
<rscale>  0 0.66492398E+03</rscale>
<asrwt>0</asrwt>
<pdfrwt beam="1">  1        2 0.13539908E+00 0.66492398E+03</pdfrwt>
<pdfrwt beam="2">  1       -2 0.16659892E-01 0.66492398E+03</pdfrwt>
<totfact> 0.89097663E+02</totfact>
</mgrwt>
</event>
<event>
 4    1  0.4915183E-005  0.6160295E+03  0.7818608E-02  0.9872697E-01
         -2   -1    0    0    0  501 -0.00000000000E+00  0.00000000000E+00  0.56956520110E+02  0.56956520167E+02  0.25500000000E-02 0. -1.
          2   -1    0    0  501    0  0.00000000000E+00 -0.00000000000E+00 -0.16657107559E+04  0.16657107559E+04  0.25500000000E-02 0.  1.
    5000001    1    1    2    0    0  0.19320853682E+03  0.12163252332E+03 -0.64747721098E+03  0.71480888926E+03  0.19900000000E+03 0.  0.
   -5000001    1    1    2    0    0 -0.19320853682E+03 -0.12163252332E+03 -0.96127702479E+03  0.10078583868E+04  0.19900000000E+03 0.  0.
<mgrwt>
<rscale>  0 0.61602951E+03</rscale>
<asrwt>0</asrwt>
<pdfrwt beam="1">  1        2 0.23795865E+00 0.61602951E+03</pdfrwt>
<pdfrwt beam="2">  1       -2 0.81366467E-02 0.61602951E+03</pdfrwt>
<totfact> 0.11653797E+03</totfact>
</mgrwt>
</event>
<event>
 4    1  0.4915183E-005  0.6340628E+03  0.7818608E-02  0.9837152E-01
         -2   -1    0    0    0  501 -0.00000000000E+00  0.00000000000E+00  0.31012185113E+03  0.31012185114E+03  0.25500000000E-02 0. -1.
          2   -1    0    0  501    0  0.00000000000E+00 -0.00000000000E+00 -0.32409494145E+03  0.32409494146E+03  0.25500000000E-02 0.  1.
    5000001    1    1    2    0    0  0.14139168010E+03  0.20183592494E+03 -0.20353000175E+02  0.31740288658E+03  0.19900000000E+03 0.  0.
   -5000001    1    1    2    0    0 -0.14139168010E+03 -0.20183592494E+03  0.63799098486E+01  0.31681390602E+03  0.19900000000E+03 0.  0.
<mgrwt>
<rscale>  0 0.63406285E+03</rscale>
<asrwt>0</asrwt>
<pdfrwt beam="1">  1        2 0.46299277E-01 0.63406285E+03</pdfrwt>
<pdfrwt beam="2">  1       -2 0.44303122E-01 0.63406285E+03</pdfrwt>
<totfact> 0.53251964E+02</totfact>
</mgrwt>
</event>
<event>
 4    1  0.4915183E-005  0.6233803E+03  0.7818608E-02  0.9858052E-01
          2   -1    0    0  501    0  0.00000000000E+00  0.00000000000E+00  0.35558931079E+03  0.35558931080E+03  0.25500000000E-02 0.  1.
         -2   -1    0    0    0  501 -0.00000000000E+00 -0.00000000000E+00 -0.27321055324E+03  0.27321055325E+03  0.25500000000E-02 0. -1.
    5000001    1    1    2    0    0 -0.29378207206E+02  0.19651448038E+03  0.17677798639E+03  0.33216332810E+03  0.19900000000E+03 0.  0.
   -5000001    1    1    2    0    0  0.29378207206E+02 -0.19651448038E+03 -0.94399228839E+02  0.29663653596E+03  0.19900000000E+03 0.  0.
<mgrwt>
<rscale>  0 0.62338031E+03</rscale>
<asrwt>0</asrwt>
<pdfrwt beam="1">  1        2 0.50798473E-01 0.62338031E+03</pdfrwt>
<pdfrwt beam="2">  1       -2 0.39030079E-01 0.62338031E+03</pdfrwt>
<totfact> 0.61598801E+02</totfact>
</mgrwt>
</event>
<event>
 4    1  0.4915183E-005  0.5223683E+03  0.7818608E-02  0.1008100E+00
          2   -1    0    0  501    0  0.00000000000E+00  0.00000000000E+00  0.25205680450E+04  0.25205680450E+04  0.25500000000E-02 0.  1.
         -2   -1    0    0    0  501 -0.00000000000E+00 -0.00000000000E+00 -0.27064195877E+02  0.27064195997E+02  0.25500000000E-02 0. -1.
    5000001    1    1    2    0    0  0.15377310948E+03 -0.70098463320E+02  0.12833084633E+04  0.13095959589E+04  0.19900000000E+03 0.  0.
   -5000001    1    1    2    0    0 -0.15377310948E+03  0.70098463320E+02  0.12101953858E+04  0.12380362820E+04  0.19900000000E+03 0.  0.
<mgrwt>
<rscale>  0 0.52236825E+03</rscale>
<asrwt>0</asrwt>
<pdfrwt beam="1">  1        2 0.36008113E+00 0.52236825E+03</pdfrwt>
<pdfrwt beam="2">  1       -2 0.38663139E-02 0.52236825E+03</pdfrwt>
<totfact> 0.13849684E+03</totfact>
</mgrwt>
</event>
<event>
 4    1  0.4915183E-005  0.6689522E+03  0.7818608E-02  0.9771853E-01
         -2   -1    0    0    0  501 -0.00000000000E+00  0.00000000000E+00  0.17699443883E+03  0.17699443885E+03  0.25500000000E-02 0. -1.
          2   -1    0    0  501    0  0.00000000000E+00 -0.00000000000E+00 -0.63207779451E+03  0.63207779451E+03  0.25500000000E-02 0.  1.
    5000001    1    1    2    0    0 -0.76379313944E+02 -0.25704576458E+03 -0.25070942215E+03  0.41756740658E+03  0.19900000000E+03 0.  0.
   -5000001    1    1    2    0    0  0.76379313944E+02  0.25704576458E+03 -0.20437393353E+03  0.39150482678E+03  0.19900000000E+03 0.  0.
<mgrwt>
<rscale>  0 0.66895218E+03</rscale>
<asrwt>0</asrwt>
<pdfrwt beam="1">  1        2 0.90296827E-01 0.66895218E+03</pdfrwt>
<pdfrwt beam="2">  1       -2 0.25284920E-01 0.66895218E+03</pdfrwt>
<totfact> 0.71840875E+02</totfact>
</mgrwt>
</event>
<event>
 4    1  0.4915183E-005  0.5410816E+03  0.7818608E-02  0.1003580E+00
          2   -1    0    0  501    0  0.00000000000E+00  0.00000000000E+00  0.50594779328E+03  0.50594779329E+03  0.25500000000E-02 0.  1.
         -2   -1    0    0    0  501 -0.00000000000E+00 -0.00000000000E+00 -0.14466376520E+03  0.14466376523E+03  0.25500000000E-02 0. -1.
    5000001    1    1    2    0    0  0.16215572137E+03  0.45388065221E+02  0.93627778251E+02  0.27698685041E+03  0.19900000000E+03 0.  0.
   -5000001    1    1    2    0    0 -0.16215572137E+03 -0.45388065221E+02  0.26765624983E+03  0.37362470811E+03  0.19900000000E+03 0.  0.
<mgrwt>
<rscale>  0 0.54108156E+03</rscale>
<asrwt>0</asrwt>
<pdfrwt beam="1">  1        2 0.72278256E-01 0.54108156E+03</pdfrwt>
<pdfrwt beam="2">  1       -2 0.20666252E-01 0.54108156E+03</pdfrwt>
<totfact> 0.13332316E+03</totfact>
</mgrwt>
</event>
<event>
 4    1  0.4915183E-005  0.5309122E+03  0.7818608E-02  0.1006011E+00
          2   -1    0    0  501    0  0.00000000000E+00  0.00000000000E+00  0.17263905813E+04  0.17263905813E+04  0.25500000000E-02 0.  1.
         -2   -1    0    0    0  501 -0.00000000000E+00 -0.00000000000E+00 -0.40817488825E+02  0.40817488905E+02  0.25500000000E-02 0. -1.
    5000001    1    1    2    0    0  0.12830661266E+03  0.10899721241E+03  0.10099800003E+04  0.10430741010E+04  0.19900000000E+03 0.  0.
   -5000001    1    1    2    0    0 -0.12830661266E+03 -0.10899721241E+03  0.67559309212E+03  0.72413396915E+03  0.19900000000E+03 0.  0.
<mgrwt>
<rscale>  0 0.53091215E+03</rscale>
<asrwt>0</asrwt>
<pdfrwt beam="1">  1        2 0.24662722E+00 0.53091215E+03</pdfrwt>
<pdfrwt beam="2">  1       -2 0.58310700E-02 0.53091215E+03</pdfrwt>
<totfact> 0.18422441E+03</totfact>
</mgrwt>
</event>
<event>
 4    1  0.4915183E-005  0.5637997E+03  0.7818608E-02  0.9983494E-01
         -2   -1    0    0    0  501 -0.00000000000E+00  0.00000000000E+00  0.12859262062E+03  0.12859262065E+03  0.25500000000E-02 0. -1.
          2   -1    0    0  501    0  0.00000000000E+00 -0.00000000000E+00 -0.61797899870E+03  0.61797899871E+03  0.25500000000E-02 0.  1.
    5000001    1    1    2    0    0  0.19929563914E+03 -0.40841701807E+01 -0.25985527911E+03  0.38322473603E+03  0.19900000000E+03 0.  0.
   -5000001    1    1    2    0    0 -0.19929563914E+03  0.40841701807E+01 -0.22953109897E+03  0.36334688333E+03  0.19900000000E+03 0.  0.
<mgrwt>
<rscale>  0 0.56379975E+03</rscale>
<asrwt>0</asrwt>
<pdfrwt beam="1">  1        2 0.88282713E-01 0.56379975E+03</pdfrwt>
<pdfrwt beam="2">  1       -2 0.18370375E-01 0.56379975E+03</pdfrwt>
<totfact> 0.12970066E+03</totfact>
</mgrwt>
</event>
<event>
 4    1  0.4915183E-005  0.1076845E+04  0.7818608E-02  0.9228059E-01
          2   -1    0    0  501    0  0.00000000000E+00  0.00000000000E+00  0.45109691047E+03  0.45109691047E+03  0.25500000000E-02 0.  1.
         -2   -1    0    0    0  501 -0.00000000000E+00 -0.00000000000E+00 -0.64265284959E+03  0.64265284960E+03  0.25500000000E-02 0. -1.
    5000001    1    1    2    0    0 -0.49278907692E+03  0.72526241034E+02 -0.48174474893E+02  0.53853775169E+03  0.19900000000E+03 0.  0.
   -5000001    1    1    2    0    0  0.49278907692E+03 -0.72526241034E+02 -0.14338146423E+03  0.55521200838E+03  0.19900000000E+03 0.  0.
<mgrwt>
<rscale>  0 0.10768449E+04</rscale>
<asrwt>0</asrwt>
<pdfrwt beam="1">  1        2 0.64442416E-01 0.10768449E+04</pdfrwt>
<pdfrwt beam="2">  1       -2 0.91807550E-01 0.10768449E+04</pdfrwt>
<totfact> 0.75850776E+01</totfact>
</mgrwt>
</event>
<event>
 4    1  0.4915183E-005  0.7994661E+03  0.7818608E-02  0.9560790E-01
         -2   -1    0    0    0  501 -0.00000000000E+00  0.00000000000E+00  0.82803213165E+02  0.82803213205E+02  0.25500000000E-02 0. -1.
          2   -1    0    0  501    0  0.00000000000E+00 -0.00000000000E+00 -0.19297138603E+04  0.19297138603E+04  0.25500000000E-02 0.  1.
    5000001    1    1    2    0    0 -0.63006717687E+02  0.33765266888E+03 -0.10416983229E+04  0.11147715314E+04  0.19900000000E+03 0.  0.
   -5000001    1    1    2    0    0  0.63006717687E+02 -0.33765266888E+03 -0.80521232423E+03  0.89774554210E+03  0.19900000000E+03 0.  0.
<mgrwt>
<rscale>  0 0.79946609E+03</rscale>
<asrwt>0</asrwt>
<pdfrwt beam="1">  1        2 0.27567338E+00 0.79946609E+03</pdfrwt>
<pdfrwt beam="2">  1       -2 0.11829032E-01 0.79946609E+03</pdfrwt>
<totfact> 0.46137756E+02</totfact>
</mgrwt>
</event>
<event>
 4    1  0.4915183E-005  0.5483617E+03  0.7818608E-02  0.1001874E+00
         -2   -1    0    0    0  501 -0.00000000000E+00  0.00000000000E+00  0.20121281245E+03  0.20121281247E+03  0.25500000000E-02 0. -1.
          2   -1    0    0  501    0  0.00000000000E+00 -0.00000000000E+00 -0.37361014825E+03  0.37361014826E+03  0.25500000000E-02 0.  1.
    5000001    1    1    2    0    0 -0.13401594122E+03  0.13155157488E+03 -0.10459724150E+03  0.29292946640E+03  0.19900000000E+03 0.  0.
   -5000001    1    1    2    0    0  0.13401594122E+03 -0.13155157488E+03 -0.67800094304E+02  0.28189349433E+03  0.19900000000E+03 0.  0.
<mgrwt>
<rscale>  0 0.54836174E+03</rscale>
<asrwt>0</asrwt>
<pdfrwt beam="1">  1        2 0.53372879E-01 0.54836174E+03</pdfrwt>
<pdfrwt beam="2">  1       -2 0.28744687E-01 0.54836174E+03</pdfrwt>
<totfact> 0.10376327E+03</totfact>
</mgrwt>
</event>
<event>
 4    1  0.4915183E-005  0.6159891E+03  0.7818608E-02  0.9872778E-01
          2   -1    0    0  501    0  0.00000000000E+00  0.00000000000E+00  0.41399655547E+03  0.41399655547E+03  0.25500000000E-02 0.  1.
         -2   -1    0    0    0  501 -0.00000000000E+00 -0.00000000000E+00 -0.22913392072E+03  0.22913392073E+03  0.25500000000E-02 0. -1.
    5000001    1    1    2    0    0 -0.20463478694E+02  0.14828436307E+03 -0.96807935675E+02  0.26716995097E+03  0.19900000000E+03 0.  0.
   -5000001    1    1    2    0    0  0.20463478694E+02 -0.14828436307E+03  0.28167057043E+03  0.37596052524E+03  0.19900000000E+03 0.  0.
<mgrwt>
<rscale>  0 0.61598914E+03</rscale>
<asrwt>0</asrwt>
<pdfrwt beam="1">  1        2 0.59142365E-01 0.61598914E+03</pdfrwt>
<pdfrwt beam="2">  1       -2 0.32733418E-01 0.61598914E+03</pdfrwt>
<totfact> 0.72729794E+02</totfact>
</mgrwt>
</event>
<event>
 4    1  0.4915183E-005  0.7313427E+03  0.7818608E-02  0.9665084E-01
          2   -1    0    0  501    0  0.00000000000E+00  0.00000000000E+00  0.31734677172E+04  0.31734677172E+04  0.25500000000E-02 0.  1.
         -2   -1    0    0    0  501 -0.00000000000E+00 -0.00000000000E+00 -0.42135461011E+02  0.42135461088E+02  0.25500000000E-02 0. -1.
    5000001    1    1    2    0    0 -0.10224319224E+03  0.28919543385E+03  0.15884518502E+04  0.16299901686E+04  0.19900000000E+03 0.  0.
   -5000001    1    1    2    0    0  0.10224319224E+03 -0.28919543385E+03  0.15428804060E+04  0.15856130097E+04  0.19900000000E+03 0.  0.
<mgrwt>
<rscale>  0 0.73134267E+03</rscale>
<asrwt>0</asrwt>
<pdfrwt beam="1">  1        2 0.45335274E+00 0.73134267E+03</pdfrwt>
<pdfrwt beam="2">  1       -2 0.60193487E-02 0.73134267E+03</pdfrwt>
<totfact> 0.30647552E+02</totfact>
</mgrwt>
</event>
<event>
 4    1  0.4915183E-005  0.8706939E+03  0.7818608E-02  0.9462976E-01
          2   -1    0    0  501    0  0.00000000000E+00  0.00000000000E+00  0.16260795184E+04  0.16260795184E+04  0.25500000000E-02 0.  1.
         -2   -1    0    0    0  501 -0.00000000000E+00 -0.00000000000E+00 -0.11655453766E+03  0.11655453769E+03  0.25500000000E-02 0. -1.
    5000001    1    1    2    0    0 -0.34066870946E+03 -0.13831641351E+03  0.99774769780E+03  0.10817985341E+04  0.19900000000E+03 0.  0.
   -5000001    1    1    2    0    0  0.34066870946E+03  0.13831641351E+03  0.51177728299E+03  0.66083552207E+03  0.19900000000E+03 0.  0.
<mgrwt>
<rscale>  0 0.87069385E+03</rscale>
<asrwt>0</asrwt>
<pdfrwt beam="1">  1        2 0.23229706E+00 0.87069385E+03</pdfrwt>
<pdfrwt beam="2">  1       -2 0.16650649E-01 0.87069385E+03</pdfrwt>
<totfact> 0.36967509E+02</totfact>
</mgrwt>
</event>
<event>
 4    1  0.4915183E-005  0.6056488E+03  0.7818608E-02  0.9893755E-01
          2   -1    0    0  501    0  0.00000000000E+00  0.00000000000E+00  0.38894683826E+03  0.38894683826E+03  0.25500000000E-02 0.  1.
         -2   -1    0    0    0  501 -0.00000000000E+00 -0.00000000000E+00 -0.23577162347E+03  0.23577162349E+03  0.25500000000E-02 0. -1.
    5000001    1    1    2    0    0  0.35691703751E+02 -0.12033311237E+03  0.27324114093E+03  0.36057686663E+03  0.19900000000E+03 0.  0.
   -5000001    1    1    2    0    0 -0.35691703751E+02  0.12033311237E+03 -0.12006592615E+03  0.26414159512E+03  0.19900000000E+03 0.  0.
<mgrwt>
<rscale>  0 0.60564883E+03</rscale>
<asrwt>0</asrwt>
<pdfrwt beam="1">  1        2 0.55563834E-01 0.60564883E+03</pdfrwt>
<pdfrwt beam="2">  1       -2 0.33681661E-01 0.60564883E+03</pdfrwt>
<totfact> 0.73899141E+02</totfact>
</mgrwt>
</event>
<event>
 4    1  0.4915183E-005  0.7586262E+03  0.7818608E-02  0.9621914E-01
          2   -1    0    0  501    0  0.00000000000E+00  0.00000000000E+00  0.59805901857E+03  0.59805901857E+03  0.25500000000E-02 0.  1.
         -2   -1    0    0    0  501 -0.00000000000E+00 -0.00000000000E+00 -0.24057560928E+03  0.24057560929E+03  0.25500000000E-02 0. -1.
    5000001    1    1    2    0    0  0.14845595313E+03  0.81614903650E+02  0.48264857590E+03  0.54886319820E+03  0.19900000000E+03 0.  0.
   -5000001    1    1    2    0    0 -0.14845595313E+03 -0.81614903650E+02 -0.12516516661E+03  0.28977142967E+03  0.19900000000E+03 0.  0.
<mgrwt>
<rscale>  0 0.75862616E+03</rscale>
<asrwt>0</asrwt>
<pdfrwt beam="1">  1        2 0.85437002E-01 0.75862616E+03</pdfrwt>
<pdfrwt beam="2">  1       -2 0.34367945E-01 0.75862616E+03</pdfrwt>
<totfact> 0.43404767E+02</totfact>
</mgrwt>
</event>
<event>
 4    1  0.4915183E-005  0.6318253E+03  0.7818608E-02  0.9841493E-01
         -2   -1    0    0    0  501 -0.00000000000E+00  0.00000000000E+00  0.90659070155E+02  0.90659070191E+02  0.25500000000E-02 0. -1.
          2   -1    0    0  501    0  0.00000000000E+00 -0.00000000000E+00 -0.11008363408E+04  0.11008363408E+04  0.25500000000E-02 0.  1.
    5000001    1    1    2    0    0  0.10016439759E+02  0.12215537399E+03 -0.90591532571E+03  0.93557781173E+03  0.19900000000E+03 0.  0.
   -5000001    1    1    2    0    0 -0.10016439759E+02 -0.12215537399E+03 -0.10426194498E+03  0.25591759930E+03  0.19900000000E+03 0.  0.
<mgrwt>
<rscale>  0 0.63182529E+03</rscale>
<asrwt>0</asrwt>
<pdfrwt beam="1">  1        2 0.15726233E+00 0.63182529E+03</pdfrwt>
<pdfrwt beam="2">  1       -2 0.12951296E-01 0.63182529E+03</pdfrwt>
<totfact> 0.11009832E+03</totfact>
</mgrwt>
</event>
<event>
 4    1  0.4915183E-005  0.9480560E+03  0.7818608E-02  0.9367426E-01
         -2   -1    0    0    0  501 -0.00000000000E+00  0.00000000000E+00  0.32761974179E+03  0.32761974180E+03  0.25500000000E-02 0. -1.
          2   -1    0    0  501    0  0.00000000000E+00 -0.00000000000E+00 -0.68586385238E+03  0.68586385238E+03  0.25500000000E-02 0.  1.
    5000001    1    1    2    0    0  0.42845296854E+03 -0.38745381258E+02 -0.17342637517E+03  0.50472849972E+03  0.19900000000E+03 0.  0.
   -5000001    1    1    2    0    0 -0.42845296854E+03  0.38745381258E+02 -0.18481773542E+03  0.50875509447E+03  0.19900000000E+03 0.  0.
<mgrwt>
<rscale>  0 0.94805599E+03</rscale>
<asrwt>0</asrwt>
<pdfrwt beam="1">  1        2 0.97980550E-01 0.94805599E+03</pdfrwt>
<pdfrwt beam="2">  1       -2 0.46802820E-01 0.94805599E+03</pdfrwt>
<totfact> 0.19980468E+02</totfact>
</mgrwt>
</event>
<event>
 4    1  0.4915183E-005  0.5012623E+03  0.7818608E-02  0.1013450E+00
         -2   -1    0    0    0  501 -0.00000000000E+00  0.00000000000E+00  0.96473707101E+02  0.96473707135E+02  0.25500000000E-02 0. -1.
          2   -1    0    0  501    0  0.00000000000E+00 -0.00000000000E+00 -0.65112023854E+03  0.65112023855E+03  0.25500000000E-02 0.  1.
    5000001    1    1    2    0    0 -0.11430091660E+03  0.10068684748E+03 -0.28258407874E+03  0.37770001635E+03  0.19900000000E+03 0.  0.
   -5000001    1    1    2    0    0  0.11430091660E+03 -0.10068684748E+03 -0.27206245270E+03  0.36989392934E+03  0.19900000000E+03 0.  0.
<mgrwt>
<rscale>  0 0.50126234E+03</rscale>
<asrwt>0</asrwt>
<pdfrwt beam="1">  1        2 0.93017174E-01 0.50126234E+03</pdfrwt>
<pdfrwt beam="2">  1       -2 0.13781959E-01 0.50126234E+03</pdfrwt>
<totfact> 0.19815001E+03</totfact>
</mgrwt>
</event>
<event>
 4    1  0.4915183E-005  0.4412024E+03  0.7818608E-02  0.1030379E+00
         -2   -1    0    0    0  501 -0.00000000000E+00  0.00000000000E+00  0.19401835619E+02  0.19401835786E+02  0.25500000000E-02 0. -1.
          2   -1    0    0  501    0  0.00000000000E+00 -0.00000000000E+00 -0.25082621501E+04  0.25082621501E+04  0.25500000000E-02 0.  1.
    5000001    1    1    2    0    0  0.53093685013E+02  0.71020251162E+02 -0.14429785959E+04  0.14593323966E+04  0.19900000000E+03 0.  0.
   -5000001    1    1    2    0    0 -0.53093685013E+02 -0.71020251162E+02 -0.10458817186E+04  0.10683315893E+04  0.19900000000E+03 0.  0.
<mgrwt>
<rscale>  0 0.44120240E+03</rscale>
<asrwt>0</asrwt>
<pdfrwt beam="1">  1        2 0.35832296E+00 0.44120240E+03</pdfrwt>
<pdfrwt beam="2">  1       -2 0.27716924E-02 0.44120240E+03</pdfrwt>
<totfact> 0.23400893E+03</totfact>
</mgrwt>
</event>
<event>
 4    1  0.4915183E-005  0.5185944E+03  0.7818608E-02  0.1009036E+00
         -2   -1    0    0    0  501 -0.00000000000E+00  0.00000000000E+00  0.15577386829E+03  0.15577386831E+03  0.25500000000E-02 0. -1.
          2   -1    0    0  501    0  0.00000000000E+00 -0.00000000000E+00 -0.43161944370E+03  0.43161944371E+03  0.25500000000E-02 0.  1.
    5000001    1    1    2    0    0 -0.10128969904E+03  0.12476849452E+03 -0.89771232464E+02  0.27108422037E+03  0.19900000000E+03 0.  0.
   -5000001    1    1    2    0    0  0.10128969904E+03 -0.12476849452E+03 -0.18607434295E+03  0.31630909165E+03  0.19900000000E+03 0.  0.
<mgrwt>
<rscale>  0 0.51859437E+03</rscale>
<asrwt>0</asrwt>
<pdfrwt beam="1">  1        2 0.61659920E-01 0.51859437E+03</pdfrwt>
<pdfrwt beam="2">  1       -2 0.22253410E-01 0.51859437E+03</pdfrwt>
<totfact> 0.13999184E+03</totfact>
</mgrwt>
</event>
<event>
 4    1  0.4915183E-005  0.7534583E+03  0.7818608E-02  0.9629940E-01
         -2   -1    0    0    0  501 -0.00000000000E+00  0.00000000000E+00  0.27247383077E+03  0.27247383078E+03  0.25500000000E-02 0. -1.
          2   -1    0    0  501    0  0.00000000000E+00 -0.00000000000E+00 -0.52087518013E+03  0.52087518014E+03  0.25500000000E-02 0.  1.
    5000001    1    1    2    0    0  0.18273204054E+03  0.23704608451E+03 -0.24305747752E+03  0.43388913584E+03  0.19900000000E+03 0.  0.
   -5000001    1    1    2    0    0 -0.18273204054E+03 -0.23704608451E+03 -0.53438718413E+01  0.35945987507E+03  0.19900000000E+03 0.  0.
<mgrwt>
<rscale>  0 0.75345831E+03</rscale>
<asrwt>0</asrwt>
<pdfrwt beam="1">  1        2 0.74410739E-01 0.75345831E+03</pdfrwt>
<pdfrwt beam="2">  1       -2 0.38924833E-01 0.75345831E+03</pdfrwt>
<totfact> 0.40179144E+02</totfact>
</mgrwt>
</event>
<event>
 4    1  0.4915183E-005  0.5119822E+03  0.7818608E-02  0.1010698E+00
         -2   -1    0    0    0  501 -0.00000000000E+00  0.00000000000E+00  0.32219689012E+02  0.32219689113E+02  0.25500000000E-02 0. -1.
          2   -1    0    0  501    0  0.00000000000E+00 -0.00000000000E+00 -0.20338944113E+04  0.20338944113E+04  0.25500000000E-02 0.  1.
    5000001    1    1    2    0    0  0.58578075230E+02  0.10894349050E+03 -0.14169142876E+04  0.14361570852E+04  0.19900000000E+03 0.  0.
   -5000001    1    1    2    0    0 -0.58578075230E+02 -0.10894349050E+03 -0.58476043468E+03  0.62995701519E+03  0.19900000000E+03 0.  0.
<mgrwt>
<rscale>  0 0.51198221E+03</rscale>
<asrwt>0</asrwt>
<pdfrwt beam="1">  1        2 0.29055626E+00 0.51198221E+03</pdfrwt>
<pdfrwt beam="2">  1       -2 0.46028140E-02 0.51198221E+03</pdfrwt>
<totfact> 0.18650048E+03</totfact>
</mgrwt>
</event>
<event>
 4    1  0.4915183E-005  0.7974228E+03  0.7818608E-02  0.9563755E-01
         -2   -1    0    0    0  501 -0.00000000000E+00  0.00000000000E+00  0.55233782702E+02  0.55233782761E+02  0.25500000000E-02 0. -1.
          2   -1    0    0  501    0  0.00000000000E+00 -0.00000000000E+00 -0.28781436541E+04  0.28781436541E+04  0.25500000000E-02 0.  1.
    5000001    1    1    2    0    0 -0.97135496935E+02  0.28564498929E+03 -0.20307390620E+04  0.20626513284E+04  0.19900000000E+03 0.  0.
   -5000001    1    1    2    0    0  0.97135496935E+02 -0.28564498929E+03 -0.79217080937E+03  0.87072610843E+03  0.19900000000E+03 0.  0.
<mgrwt>
<rscale>  0 0.79742275E+03</rscale>
<asrwt>0</asrwt>
<pdfrwt beam="1">  1        2 0.41116328E+00 0.79742275E+03</pdfrwt>
<pdfrwt beam="2">  1       -2 0.78905422E-02 0.79742275E+03</pdfrwt>
<totfact> 0.28816851E+02</totfact>
</mgrwt>
</event>
<event>
 4    1  0.4915183E-005  0.8847174E+03  0.7818608E-02  0.9444890E-01
         -2   -1    0    0    0  501 -0.00000000000E+00  0.00000000000E+00  0.25961974107E+03  0.25961974109E+03  0.25500000000E-02 0. -1.
          2   -1    0    0  501    0  0.00000000000E+00 -0.00000000000E+00 -0.75372234458E+03  0.75372234458E+03  0.25500000000E-02 0.  1.
    5000001    1    1    2    0    0 -0.34497845178E+03  0.77354884174E+01 -0.26701621465E+02  0.39922919052E+03  0.19900000000E+03 0.  0.
   -5000001    1    1    2    0    0  0.34497845178E+03 -0.77354884174E+01 -0.46740098204E+03  0.61411289515E+03  0.19900000000E+03 0.  0.
<mgrwt>
<rscale>  0 0.88471736E+03</rscale>
<asrwt>0</asrwt>
<pdfrwt beam="1">  1        2 0.10767462E+00 0.88471736E+03</pdfrwt>
<pdfrwt beam="2">  1       -2 0.37088535E-01 0.88471736E+03</pdfrwt>
<totfact> 0.28150824E+02</totfact>
</mgrwt>
</event>
<event>
 4    1  0.4915183E-005  0.6699048E+03  0.7818608E-02  0.9770130E-01
         -2   -1    0    0    0  501 -0.00000000000E+00  0.00000000000E+00  0.29587280085E+02  0.29587280195E+02  0.25500000000E-02 0. -1.
          2   -1    0    0  501    0  0.00000000000E+00 -0.00000000000E+00 -0.37919374198E+04  0.37919374198E+04  0.25500000000E-02 0.  1.
    5000001    1    1    2    0    0  0.24949218896E+03  0.68436771678E+02 -0.14519203790E+04  0.14881544715E+04  0.19900000000E+03 0.  0.
   -5000001    1    1    2    0    0 -0.24949218896E+03 -0.68436771678E+02 -0.23104297608E+04  0.23333702285E+04  0.19900000000E+03 0.  0.
<mgrwt>
<rscale>  0 0.66990481E+03</rscale>
<asrwt>0</asrwt>
<pdfrwt beam="1">  1        2 0.54170503E+00 0.66990481E+03</pdfrwt>
<pdfrwt beam="2">  1       -2 0.42267567E-02 0.66990481E+03</pdfrwt>
<totfact> 0.22917519E+02</totfact>
</mgrwt>
</event>
<event>
 4    1  0.4915183E-005  0.4257176E+03  0.7818608E-02  0.1035221E+00
          2   -1    0    0  501    0  0.00000000000E+00  0.00000000000E+00  0.21720033728E+04  0.21720033728E+04  0.25500000000E-02 0.  1.
         -2   -1    0    0    0  501 -0.00000000000E+00 -0.00000000000E+00 -0.20860404634E+02  0.20860404790E+02  0.25500000000E-02 0. -1.
    5000001    1    1    2    0    0 -0.23502274198E+02  0.64387217901E+02  0.12392559417E+04  0.12570021319E+04  0.19900000000E+03 0.  0.
   -5000001    1    1    2    0    0  0.23502274198E+02 -0.64387217901E+02  0.91188702654E+03  0.93586164570E+03  0.19900000000E+03 0.  0.
<mgrwt>
<rscale>  0 0.42571760E+03</rscale>
<asrwt>0</asrwt>
<pdfrwt beam="1">  1        2 0.31028632E+00 0.42571760E+03</pdfrwt>
<pdfrwt beam="2">  1       -2 0.29800566E-02 0.42571760E+03</pdfrwt>
<totfact> 0.30967481E+03</totfact>
</mgrwt>
</event>
<event>
 4    1  0.4915183E-005  0.5510381E+03  0.7818608E-02  0.1001254E+00
         -2   -1    0    0    0  501 -0.00000000000E+00  0.00000000000E+00  0.52578553253E+02  0.52578553315E+02  0.25500000000E-02 0. -1.
          2   -1    0    0  501    0  0.00000000000E+00 -0.00000000000E+00 -0.14437586850E+04  0.14437586850E+04  0.25500000000E-02 0.  1.
    5000001    1    1    2    0    0  0.74077579021E+02 -0.17010189229E+03 -0.57761152463E+03  0.63848117816E+03  0.19900000000E+03 0.  0.
   -5000001    1    1    2    0    0 -0.74077579021E+02  0.17010189229E+03 -0.81356860714E+03  0.85785606019E+03  0.19900000000E+03 0.  0.
<mgrwt>
<rscale>  0 0.55103809E+03</rscale>
<asrwt>0</asrwt>
<pdfrwt beam="1">  1        2 0.20625122E+00 0.55103809E+03</pdfrwt>
<pdfrwt beam="2">  1       -2 0.75112228E-02 0.55103809E+03</pdfrwt>
<totfact> 0.17276025E+03</totfact>
</mgrwt>
</event>
<event>
 4    1  0.4915183E-005  0.4565465E+03  0.7818608E-02  0.1025788E+00
          2   -1    0    0  501    0  0.00000000000E+00  0.00000000000E+00  0.64233222714E+02  0.64233222765E+02  0.25500000000E-02 0.  1.
         -2   -1    0    0    0  501 -0.00000000000E+00 -0.00000000000E+00 -0.81124184733E+03  0.81124184734E+03  0.25500000000E-02 0. -1.
    5000001    1    1    2    0    0  0.52862012933E+02  0.89961807918E+02 -0.45069014182E+03  0.50359718350E+03  0.19900000000E+03 0.  0.
   -5000001    1    1    2    0    0 -0.52862012933E+02 -0.89961807918E+02 -0.29631848280E+03  0.37187788660E+03  0.19900000000E+03 0.  0.
<mgrwt>
<rscale>  0 0.45654651E+03</rscale>
<asrwt>0</asrwt>
<pdfrwt beam="1">  1        2 0.91761752E-02 0.45654651E+03</pdfrwt>
<pdfrwt beam="2">  1       -2 0.11589169E+00 0.45654651E+03</pdfrwt>
<totfact> 0.43376754E+02</totfact>
</mgrwt>
</event>
<event>
 4    1  0.4915183E-005  0.5869945E+03  0.7818608E-02  0.9932762E-01
          2   -1    0    0  501    0  0.00000000000E+00  0.00000000000E+00  0.17565908827E+04  0.17565908827E+04  0.25500000000E-02 0.  1.
         -2   -1    0    0    0  501 -0.00000000000E+00 -0.00000000000E+00 -0.49038525881E+02  0.49038525948E+02  0.25500000000E-02 0. -1.
    5000001    1    1    2    0    0 -0.11481710079E+03 -0.14990765973E+03  0.53285679707E+03  0.59932682175E+03  0.19900000000E+03 0.  0.
   -5000001    1    1    2    0    0  0.11481710079E+03  0.14990765973E+03  0.11746955597E+04  0.12063025869E+04  0.19900000000E+03 0.  0.
<mgrwt>
<rscale>  0 0.58699447E+03</rscale>
<asrwt>0</asrwt>
<pdfrwt beam="1">  1        2 0.25094154E+00 0.58699447E+03</pdfrwt>
<pdfrwt beam="2">  1       -2 0.70055042E-02 0.58699447E+03</pdfrwt>
<totfact> 0.13306195E+03</totfact>
</mgrwt>
</event>
<event>
 4    1  0.4915183E-005  0.6901545E+03  0.7818608E-02  0.9734219E-01
          2   -1    0    0  501    0  0.00000000000E+00  0.00000000000E+00  0.12345383365E+04  0.12345383365E+04  0.25500000000E-02 0.  1.
         -2   -1    0    0    0  501 -0.00000000000E+00 -0.00000000000E+00 -0.96455731032E+02  0.96455731066E+02  0.25500000000E-02 0. -1.
    5000001    1    1    2    0    0  0.21126179861E+03 -0.18405908211E+03  0.50903891914E+03  0.61419126862E+03  0.19900000000E+03 0.  0.
   -5000001    1    1    2    0    0 -0.21126179861E+03  0.18405908211E+03  0.62904368633E+03  0.71680279894E+03  0.19900000000E+03 0.  0.
<mgrwt>
<rscale>  0 0.69015447E+03</rscale>
<asrwt>0</asrwt>
<pdfrwt beam="1">  1        2 0.17636261E+00 0.69015447E+03</pdfrwt>
<pdfrwt beam="2">  1       -2 0.13779391E-01 0.69015447E+03</pdfrwt>
<totfact> 0.83176922E+02</totfact>
</mgrwt>
</event>
<event>
 4    1  0.4915183E-005  0.6136441E+03  0.7818608E-02  0.9877496E-01
         -2   -1    0    0    0  501 -0.00000000000E+00  0.00000000000E+00  0.80999256789E+02  0.80999256829E+02  0.25500000000E-02 0. -1.
          2   -1    0    0  501    0  0.00000000000E+00 -0.00000000000E+00 -0.11622301881E+04  0.11622301881E+04  0.25500000000E-02 0.  1.
    5000001    1    1    2    0    0 -0.79367707437E+02  0.19661151667E+03 -0.73894886987E+03  0.79410437208E+03  0.19900000000E+03 0.  0.
   -5000001    1    1    2    0    0  0.79367707437E+02 -0.19661151667E+03 -0.34228206141E+03  0.44912507282E+03  0.19900000000E+03 0.  0.
<mgrwt>
<rscale>  0 0.61364414E+03</rscale>
<asrwt>0</asrwt>
<pdfrwt beam="1">  1        2 0.16603287E+00 0.61364414E+03</pdfrwt>
<pdfrwt beam="2">  1       -2 0.11571323E-01 0.61364414E+03</pdfrwt>
<totfact> 0.12230344E+03</totfact>
</mgrwt>
</event>
<event>
 4    1  0.4915183E-005  0.6197610E+03  0.7818608E-02  0.9865236E-01
          2   -1    0    0  501    0  0.00000000000E+00  0.00000000000E+00  0.22003722952E+04  0.22003722952E+04  0.25500000000E-02 0.  1.
         -2   -1    0    0    0  501 -0.00000000000E+00 -0.00000000000E+00 -0.43640763218E+02  0.43640763293E+02  0.25500000000E-02 0. -1.
    5000001    1    1    2    0    0 -0.18921951647E+03  0.14169608718E+03  0.99398392824E+03  0.10409067471E+04  0.19900000000E+03 0.  0.
   -5000001    1    1    2    0    0  0.18921951647E+03 -0.14169608718E+03  0.11627476037E+04  0.12031063114E+04  0.19900000000E+03 0.  0.
<mgrwt>
<rscale>  0 0.61976101E+03</rscale>
<asrwt>0</asrwt>
<pdfrwt beam="1">  1        2 0.31433899E+00 0.61976101E+03</pdfrwt>
<pdfrwt beam="2">  1       -2 0.62343930E-02 0.61976101E+03</pdfrwt>
<totfact> 0.95437746E+02</totfact>
</mgrwt>
</event>
<event>
 4    1  0.4915183E-005  0.5577898E+03  0.7818608E-02  0.9997068E-01
         -2   -1    0    0    0  501 -0.00000000000E+00  0.00000000000E+00  0.98303758966E+02  0.98303758999E+02  0.25500000000E-02 0. -1.
          2   -1    0    0  501    0  0.00000000000E+00 -0.00000000000E+00 -0.79124518370E+03  0.79124518370E+03  0.25500000000E-02 0.  1.
    5000001    1    1    2    0    0  0.13510057950E+03 -0.14111035523E+03 -0.33988043310E+03  0.43964077124E+03  0.19900000000E+03 0.  0.
   -5000001    1    1    2    0    0 -0.13510057950E+03  0.14111035523E+03 -0.35306099163E+03  0.44990817146E+03  0.19900000000E+03 0.  0.
<mgrwt>
<rscale>  0 0.55778984E+03</rscale>
<asrwt>0</asrwt>
<pdfrwt beam="1">  1        2 0.11303502E+00 0.55778984E+03</pdfrwt>
<pdfrwt beam="2">  1       -2 0.14043395E-01 0.55778984E+03</pdfrwt>
<totfact> 0.15113153E+03</totfact>
</mgrwt>
</event>
<event>
 4    1  0.4915183E-005  0.5426037E+03  0.7818608E-02  0.1003221E+00
          2   -1    0    0  501    0  0.00000000000E+00  0.00000000000E+00  0.34476943810E+03  0.34476943811E+03  0.25500000000E-02 0.  1.
         -2   -1    0    0    0  501 -0.00000000000E+00 -0.00000000000E+00 -0.21348959889E+03  0.21348959891E+03  0.25500000000E-02 0. -1.
    5000001    1    1    2    0    0 -0.11772602531E+03 -0.69104696253E+02 -0.61907943834E+02  0.24913544426E+03  0.19900000000E+03 0.  0.
   -5000001    1    1    2    0    0  0.11772602531E+03  0.69104696253E+02  0.19318778304E+03  0.30912359275E+03  0.19900000000E+03 0.  0.
<mgrwt>
<rscale>  0 0.54260368E+03</rscale>
<asrwt>0</asrwt>
<pdfrwt beam="1">  1        2 0.49252776E-01 0.54260368E+03</pdfrwt>
<pdfrwt beam="2">  1       -2 0.30498514E-01 0.54260368E+03</pdfrwt>
<totfact> 0.10167676E+03</totfact>
</mgrwt>
</event>
<event>
 4    1  0.4915183E-005  0.6410751E+03  0.7818608E-02  0.9823672E-01
          2   -1    0    0  501    0  0.00000000000E+00  0.00000000000E+00  0.28377001576E+03  0.28377001577E+03  0.25500000000E-02 0.  1.
         -2   -1    0    0    0  501 -0.00000000000E+00 -0.00000000000E+00 -0.36206892728E+03  0.36206892729E+03  0.25500000000E-02 0. -1.
    5000001    1    1    2    0    0 -0.14555732545E+03 -0.13420276047E+03 -0.19504429743E+03  0.34181953407E+03  0.19900000000E+03 0.  0.
   -5000001    1    1    2    0    0  0.14555732545E+03  0.13420276047E+03  0.11674538591E+03  0.30401940899E+03  0.19900000000E+03 0.  0.
<mgrwt>
<rscale>  0 0.64107505E+03</rscale>
<asrwt>0</asrwt>
<pdfrwt beam="1">  1        2 0.40538574E-01 0.64107505E+03</pdfrwt>
<pdfrwt beam="2">  1       -2 0.51724132E-01 0.64107505E+03</pdfrwt>
<totfact> 0.45166258E+02</totfact>
</mgrwt>
</event>
<event>
 4    1  0.4915183E-005  0.1219678E+04  0.7818608E-02  0.9095804E-01
          2   -1    0    0  501    0  0.00000000000E+00  0.00000000000E+00  0.21265771901E+04  0.21265771901E+04  0.25500000000E-02 0.  1.
         -2   -1    0    0    0  501 -0.00000000000E+00 -0.00000000000E+00 -0.17488380093E+03  0.17488380094E+03  0.25500000000E-02 0. -1.
    5000001    1    1    2    0    0  0.49199855048E+03  0.11145005928E+03  0.44946391739E+03  0.70434544254E+03  0.19900000000E+03 0.  0.
   -5000001    1    1    2    0    0 -0.49199855048E+03 -0.11145005928E+03  0.15022294718E+04  0.15971155485E+04  0.19900000000E+03 0.  0.
<mgrwt>
<rscale>  0 0.12196785E+04</rscale>
<asrwt>0</asrwt>
<pdfrwt beam="1">  1        2 0.30379672E+00 0.12196785E+04</pdfrwt>
<pdfrwt beam="2">  1       -2 0.24983402E-01 0.12196785E+04</pdfrwt>
<totfact> 0.97829181E+01</totfact>
</mgrwt>
</event>
<event>
 4    1  0.4915183E-005  0.5969478E+03  0.7818608E-02  0.9911759E-01
         -2   -1    0    0    0  501 -0.00000000000E+00  0.00000000000E+00  0.85746926487E+02  0.85746926525E+02  0.25500000000E-02 0.  1.
          2   -1    0    0  501    0  0.00000000000E+00 -0.00000000000E+00 -0.10389488592E+04  0.10389488592E+04  0.25500000000E-02 0. -1.
    5000001    1    1    2    0    0  0.11454976614E+03  0.11554192801E+03 -0.76242290873E+03  0.80458764457E+03  0.19900000000E+03 0.  0.
   -5000001    1    1    2    0    0 -0.11454976614E+03 -0.11554192801E+03 -0.19077902402E+03  0.32010814119E+03  0.19900000000E+03 0.  0.
<mgrwt>
<rscale>  0 0.59694781E+03</rscale>
<asrwt>0</asrwt>
<pdfrwt beam="1">  1        2 0.14842126E+00 0.59694781E+03</pdfrwt>
<pdfrwt beam="2">  1       -2 0.12249562E-01 0.59694781E+03</pdfrwt>
<totfact> 0.13142988E+03</totfact>
</mgrwt>
</event>
<event>
 4    1  0.4915183E-005  0.7752591E+03  0.7818608E-02  0.9596536E-01
         -2   -1    0    0    0  501 -0.00000000000E+00  0.00000000000E+00  0.47129213298E+02  0.47129213367E+02  0.25500000000E-02 0. -1.
          2   -1    0    0  501    0  0.00000000000E+00 -0.00000000000E+00 -0.31881851605E+04  0.31881851605E+04  0.25500000000E-02 0.  1.
    5000001    1    1    2    0    0 -0.27649283219E+03  0.12361690542E+03 -0.99640923814E+03  0.10602649647E+04  0.19900000000E+03 0.  0.
   -5000001    1    1    2    0    0  0.27649283219E+03 -0.12361690542E+03 -0.21446467091E+04  0.21750494092E+04  0.19900000000E+03 0.  0.
<mgrwt>
<rscale>  0 0.77525908E+03</rscale>
<asrwt>0</asrwt>
<pdfrwt beam="1">  1        2 0.45545489E+00 0.77525908E+03</pdfrwt>
<pdfrwt beam="2">  1       -2 0.67327468E-02 0.77525908E+03</pdfrwt>
<totfact> 0.25084010E+02</totfact>
</mgrwt>
</event>
<event>
 4    1  0.4915183E-005  0.7579342E+03  0.7818608E-02  0.9622984E-01
         -2   -1    0    0    0  501 -0.00000000000E+00  0.00000000000E+00  0.12600845821E+04  0.12600845821E+04  0.25500000000E-02 0. -1.
          2   -1    0    0  501    0  0.00000000000E+00 -0.00000000000E+00 -0.11397335969E+03  0.11397335972E+03  0.25500000000E-02 0.  1.
    5000001    1    1    2    0    0  0.28539033756E+03 -0.10922122073E+03  0.76004056150E+03  0.84299440980E+03  0.19900000000E+03 0.  0.
   -5000001    1    1    2    0    0 -0.28539033756E+03  0.10922122073E+03  0.38607066092E+03  0.53106353204E+03  0.19900000000E+03 0.  0.
<mgrwt>
<rscale>  0 0.75793423E+03</rscale>
<asrwt>0</asrwt>
<pdfrwt beam="1">  1        2 0.16281908E-01 0.75793423E+03</pdfrwt>
<pdfrwt beam="2">  1       -2 0.18001209E+00 0.75793423E+03</pdfrwt>
<totfact> 0.66751082E+01</totfact>
</mgrwt>
</event>
<event>
 4    1  0.4915183E-005  0.6553020E+03  0.7818608E-02  0.9796881E-01
         -2   -1    0    0    0  501 -0.00000000000E+00  0.00000000000E+00  0.92440233668E+02  0.92440233703E+02  0.25500000000E-02 0. -1.
          2   -1    0    0  501    0  0.00000000000E+00 -0.00000000000E+00 -0.11613467488E+04  0.11613467488E+04  0.25500000000E-02 0.  1.
    5000001    1    1    2    0    0 -0.18602870271E+03  0.18136093102E+03 -0.56504801898E+03  0.65297682140E+03  0.19900000000E+03 0.  0.
   -5000001    1    1    2    0    0  0.18602870271E+03 -0.18136093102E+03 -0.50385849611E+03  0.60081016107E+03  0.19900000000E+03 0.  0.
<mgrwt>
<rscale>  0 0.65530196E+03</rscale>
<asrwt>0</asrwt>
<pdfrwt beam="1">  1        2 0.16590667E+00 0.65530196E+03</pdfrwt>
<pdfrwt beam="2">  1       -2 0.13205748E-01 0.65530196E+03</pdfrwt>
<totfact> 0.98303622E+02</totfact>
</mgrwt>
</event>
<event>
 4    1  0.4915183E-005  0.5913969E+03  0.7818608E-02  0.9923417E-01
          2   -1    0    0  501    0  0.00000000000E+00  0.00000000000E+00  0.44165938035E+03  0.44165938035E+03  0.25500000000E-02 0.  1.
         -2   -1    0    0    0  501 -0.00000000000E+00 -0.00000000000E+00 -0.19797514404E+03  0.19797514406E+03  0.25500000000E-02 0. -1.
    5000001    1    1    2    0    0 -0.17779636133E+03 -0.12476077726E+03  0.14962344634E+03  0.33040123084E+03  0.19900000000E+03 0.  0.
   -5000001    1    1    2    0    0  0.17779636133E+03  0.12476077726E+03  0.94060789964E+02  0.30923329357E+03  0.19900000000E+03 0.  0.
<mgrwt>
<rscale>  0 0.59139692E+03</rscale>
<asrwt>0</asrwt>
<pdfrwt beam="1">  1        2 0.63094197E-01 0.59139692E+03</pdfrwt>
<pdfrwt beam="2">  1       -2 0.28282163E-01 0.59139692E+03</pdfrwt>
<totfact> 0.88721441E+02</totfact>
</mgrwt>
</event>
<event>
 4    1  0.4915183E-005  0.9702669E+03  0.7818608E-02  0.9341770E-01
          2   -1    0    0  501    0  0.00000000000E+00  0.00000000000E+00  0.13388191164E+04  0.13388191164E+04  0.25500000000E-02 0.  1.
         -2   -1    0    0    0  501 -0.00000000000E+00 -0.00000000000E+00 -0.17579256253E+03  0.17579256255E+03  0.25500000000E-02 0. -1.
    5000001    1    1    2    0    0 -0.35201716796E+03  0.25467660277E+03  0.45112149670E+03  0.65718175821E+03  0.19900000000E+03 0.  0.
   -5000001    1    1    2    0    0  0.35201716796E+03 -0.25467660277E+03  0.71190505713E+03  0.85742992070E+03  0.19900000000E+03 0.  0.
<mgrwt>
<rscale>  0 0.97026686E+03</rscale>
<asrwt>0</asrwt>
<pdfrwt beam="1">  1        2 0.19125988E+00 0.97026686E+03</pdfrwt>
<pdfrwt beam="2">  1       -2 0.25113223E-01 0.97026686E+03</pdfrwt>
<totfact> 0.25342709E+02</totfact>
</mgrwt>
</event>
<event>
 4    1  0.4915183E-005  0.4248594E+03  0.7818608E-02  0.1035496E+00
         -2   -1    0    0    0  501 -0.00000000000E+00  0.00000000000E+00  0.73925138586E+02  0.73925138630E+02  0.25500000000E-02 0. -1.
          2   -1    0    0  501    0  0.00000000000E+00 -0.00000000000E+00 -0.61043349409E+03  0.61043349409E+03  0.25500000000E-02 0.  1.
    5000001    1    1    2    0    0 -0.65504503583E+02  0.32955081308E+02 -0.24862479956E+03  0.32679071029E+03  0.19900000000E+03 0.  0.
   -5000001    1    1    2    0    0  0.65504503583E+02 -0.32955081308E+02 -0.28788355594E+03  0.35756792244E+03  0.19900000000E+03 0.  0.
<mgrwt>
<rscale>  0 0.42485942E+03</rscale>
<asrwt>0</asrwt>
<pdfrwt beam="1">  1        2 0.87204782E-01 0.42485942E+03</pdfrwt>
<pdfrwt beam="2">  1       -2 0.10560734E-01 0.42485942E+03</pdfrwt>
<totfact> 0.33018840E+03</totfact>
</mgrwt>
</event>
<event>
 4    1  0.4915183E-005  0.7312575E+03  0.7818608E-02  0.9665222E-01
         -2   -1    0    0    0  501 -0.00000000000E+00  0.00000000000E+00  0.51219659445E+03  0.51219659446E+03  0.25500000000E-02 0. -1.
          2   -1    0    0  501    0  0.00000000000E+00 -0.00000000000E+00 -0.26100207590E+03  0.26100207591E+03  0.25500000000E-02 0.  1.
    5000001    1    1    2    0    0 -0.85059369659E+02  0.27963873107E+03  0.27254965583E+02  0.35465017895E+03  0.19900000000E+03 0.  0.
   -5000001    1    1    2    0    0  0.85059369659E+02 -0.27963873107E+03  0.22393955297E+03  0.41854849141E+03  0.19900000000E+03 0.  0.
<mgrwt>
<rscale>  0 0.73125748E+03</rscale>
<asrwt>0</asrwt>
<pdfrwt beam="1">  1        2 0.37286011E-01 0.73125748E+03</pdfrwt>
<pdfrwt beam="2">  1       -2 0.73170942E-01 0.73125748E+03</pdfrwt>
<totfact> 0.23706250E+02</totfact>
</mgrwt>
</event>
<event>
 4    1  0.4915183E-005  0.7436760E+03  0.7818608E-02  0.9645324E-01
          2   -1    0    0  501    0  0.00000000000E+00  0.00000000000E+00  0.18233876501E+04  0.18233876501E+04  0.25500000000E-02 0.  1.
         -2   -1    0    0    0  501 -0.00000000000E+00 -0.00000000000E+00 -0.75827810297E+02  0.75827810340E+02  0.25500000000E-02 0. -1.
    5000001    1    1    2    0    0 -0.16758104082E+03  0.10982008451E+03  0.25599460721E+03  0.38115363717E+03  0.19900000000E+03 0.  0.
   -5000001    1    1    2    0    0  0.16758104082E+03 -0.10982008451E+03  0.14915652326E+04  0.15180618233E+04  0.19900000000E+03 0.  0.
<mgrwt>
<rscale>  0 0.74367599E+03</rscale>
<asrwt>0</asrwt>
<pdfrwt beam="1">  1        2 0.26048391E+00 0.74367599E+03</pdfrwt>
<pdfrwt beam="2">  1       -2 0.10832546E-01 0.74367599E+03</pdfrwt>
<totfact> 0.60586819E+02</totfact>
</mgrwt>
</event>
<event>
 4    1  0.4915183E-005  0.5232130E+03  0.7818608E-02  0.1007892E+00
         -2   -1    0    0    0  501 -0.00000000000E+00  0.00000000000E+00  0.17801060458E+03  0.17801060460E+03  0.25500000000E-02 0.  1.
          2   -1    0    0  501    0  0.00000000000E+00 -0.00000000000E+00 -0.38446002909E+03  0.38446002910E+03  0.25500000000E-02 0. -1.
    5000001    1    1    2    0    0 -0.14395495157E+03  0.36312314636E+02 -0.14605632465E+02  0.24870853780E+03  0.19900000000E+03 0.  0.
   -5000001    1    1    2    0    0  0.14395495157E+03 -0.36312314636E+02 -0.19184379204E+03  0.31376209590E+03  0.19900000000E+03 0.  0.
<mgrwt>
<rscale>  0 0.52321301E+03</rscale>
<asrwt>0</asrwt>
<pdfrwt beam="1">  1        2 0.54922861E-01 0.52321301E+03</pdfrwt>
<pdfrwt beam="2">  1       -2 0.25430087E-01 0.52321301E+03</pdfrwt>
<totfact> 0.12554004E+03</totfact>
</mgrwt>
</event>
<event>
 4    1  0.4915183E-005  0.6672772E+03  0.7818608E-02  0.9774889E-01
         -2   -1    0    0    0  501 -0.00000000000E+00  0.00000000000E+00  0.70189638646E+03  0.70189638646E+03  0.25500000000E-02 0. -1.
          2   -1    0    0  501    0  0.00000000000E+00 -0.00000000000E+00 -0.15859138191E+03  0.15859138193E+03  0.25500000000E-02 0.  1.
    5000001    1    1    2    0    0  0.21333444252E+03 -0.84059350358E+02  0.93264436030E+02  0.31761110462E+03  0.19900000000E+03 0.  0.
   -5000001    1    1    2    0    0 -0.21333444252E+03  0.84059350358E+02  0.45004056852E+03  0.54287666377E+03  0.19900000000E+03 0.  0.
<mgrwt>
<rscale>  0 0.66727721E+03</rscale>
<asrwt>0</asrwt>
<pdfrwt beam="1">  1        2 0.22655911E-01 0.66727721E+03</pdfrwt>
<pdfrwt beam="2">  1       -2 0.10027091E+00 0.66727721E+03</pdfrwt>
<totfact> 0.20372755E+02</totfact>
</mgrwt>
</event>
<event>
 4    1  0.4915183E-005  0.6741121E+03  0.7818608E-02  0.9762558E-01
         -2   -1    0    0    0  501 -0.00000000000E+00  0.00000000000E+00  0.18260042262E+03  0.18260042264E+03  0.25500000000E-02 0. -1.
          2   -1    0    0  501    0  0.00000000000E+00 -0.00000000000E+00 -0.62216049828E+03  0.62216049828E+03  0.25500000000E-02 0.  1.
    5000001    1    1    2    0    0 -0.25248980149E+03  0.27260464872E+02 -0.33620875999E+03  0.46597377941E+03  0.19900000000E+03 0.  0.
   -5000001    1    1    2    0    0  0.25248980149E+03 -0.27260464872E+02 -0.10335131567E+03  0.33878714151E+03  0.19900000000E+03 0.  0.
<mgrwt>
<rscale>  0 0.67411207E+03</rscale>
<asrwt>0</asrwt>
<pdfrwt beam="1">  1        2 0.88880070E-01 0.67411207E+03</pdfrwt>
<pdfrwt beam="2">  1       -2 0.26085775E-01 0.67411207E+03</pdfrwt>
<totfact> 0.69191349E+02</totfact>
</mgrwt>
</event>
<event>
 4    1  0.4915183E-005  0.5613841E+03  0.7818608E-02  0.9988928E-01
          2   -1    0    0  501    0  0.00000000000E+00  0.00000000000E+00  0.15835427516E+03  0.15835427518E+03  0.25500000000E-02 0.  1.
         -2   -1    0    0    0  501 -0.00000000000E+00 -0.00000000000E+00 -0.49754281022E+03  0.49754281023E+03  0.25500000000E-02 0. -1.
    5000001    1    1    2    0    0 -0.17784861621E+03 -0.50914187675E+02 -0.87271542554E+02  0.28537643023E+03  0.19900000000E+03 0.  0.
   -5000001    1    1    2    0    0  0.17784861621E+03  0.50914187675E+02 -0.25191699251E+03  0.37052065517E+03  0.19900000000E+03 0.  0.
<mgrwt>
<rscale>  0 0.56138411E+03</rscale>
<asrwt>0</asrwt>
<pdfrwt beam="1">  1        2 0.22622040E-01 0.56138411E+03</pdfrwt>
<pdfrwt beam="2">  1       -2 0.71077544E-01 0.56138411E+03</pdfrwt>
<totfact> 0.44631552E+02</totfact>
</mgrwt>
</event>
<event>
 4    1  0.4915183E-005  0.6473417E+03  0.7818608E-02  0.9811780E-01
          2   -1    0    0  501    0  0.00000000000E+00  0.00000000000E+00  0.91485920761E+03  0.91485920761E+03  0.25500000000E-02 0.  1.
         -2   -1    0    0    0  501 -0.00000000000E+00 -0.00000000000E+00 -0.11451249566E+03  0.11451249569E+03  0.25500000000E-02 0. -1.
    5000001    1    1    2    0    0  0.14080343071E+03  0.21271410672E+03  0.41516755041E+03  0.52634398658E+03  0.19900000000E+03 0.  0.
   -5000001    1    1    2    0    0 -0.14080343071E+03 -0.21271410672E+03  0.38517916154E+03  0.50302771671E+03  0.19900000000E+03 0.  0.
<mgrwt>
<rscale>  0 0.64734168E+03</rscale>
<asrwt>0</asrwt>
<pdfrwt beam="1">  1        2 0.13069417E+00 0.64734168E+03</pdfrwt>
<pdfrwt beam="2">  1       -2 0.16358928E-01 0.64734168E+03</pdfrwt>
<totfact> 0.96488837E+02</totfact>
</mgrwt>
</event>
<event>
 4    1  0.4915183E-005  0.7293449E+03  0.7818608E-02  0.9668324E-01
          2   -1    0    0  501    0  0.00000000000E+00  0.00000000000E+00  0.16837054854E+03  0.16837054856E+03  0.25500000000E-02 0.  1.
         -2   -1    0    0    0  501 -0.00000000000E+00 -0.00000000000E+00 -0.78984110208E+03  0.78984110209E+03  0.25500000000E-02 0. -1.
    5000001    1    1    2    0    0 -0.16780709171E+03 -0.12289141933E+03 -0.60487185672E+03  0.66987497641E+03  0.19900000000E+03 0.  0.
   -5000001    1    1    2    0    0  0.16780709171E+03  0.12289141933E+03 -0.16598696821E+02  0.28833667424E+03  0.19900000000E+03 0.  0.
<mgrwt>
<rscale>  0 0.72934486E+03</rscale>
<asrwt>0</asrwt>
<pdfrwt beam="1">  1        2 0.24052936E-01 0.72934486E+03</pdfrwt>
<pdfrwt beam="2">  1       -2 0.11283444E+00 0.72934486E+03</pdfrwt>
<totfact> 0.14290211E+02</totfact>
</mgrwt>
</event>
<event>
 4    1  0.4915183E-005  0.8007513E+03  0.7818608E-02  0.9558930E-01
          2   -1    0    0  501    0  0.00000000000E+00  0.00000000000E+00  0.23082906063E+03  0.23082906065E+03  0.25500000000E-02 0.  1.
         -2   -1    0    0    0  501 -0.00000000000E+00 -0.00000000000E+00 -0.69445612804E+03  0.69445612804E+03  0.25500000000E-02 0. -1.
    5000001    1    1    2    0    0  0.32474748811E+03  0.12037835925E+03 -0.26341181915E+03  0.47847535661E+03  0.19900000000E+03 0.  0.
   -5000001    1    1    2    0    0 -0.32474748811E+03 -0.12037835925E+03 -0.20021524825E+03  0.44680983208E+03  0.19900000000E+03 0.  0.
<mgrwt>
<rscale>  0 0.80075129E+03</rscale>
<asrwt>0</asrwt>
<pdfrwt beam="1">  1        2 0.32975580E-01 0.80075129E+03</pdfrwt>
<pdfrwt beam="2">  1       -2 0.99208017E-01 0.80075129E+03</pdfrwt>
<totfact> 0.13559026E+02</totfact>
</mgrwt>
</event>
<event>
 4    1  0.4915183E-005  0.7273860E+03  0.7818608E-02  0.9671512E-01
         -2   -1    0    0    0  501 -0.00000000000E+00  0.00000000000E+00  0.22212656674E+03  0.22212656676E+03  0.25500000000E-02 0. -1.
          2   -1    0    0  501    0  0.00000000000E+00 -0.00000000000E+00 -0.59548308516E+03  0.59548308516E+03  0.25500000000E-02 0.  1.
    5000001    1    1    2    0    0  0.69417899450E+02 -0.29353696181E+03 -0.14048561748E+03  0.38771123460E+03  0.19900000000E+03 0.  0.
   -5000001    1    1    2    0    0 -0.69417899450E+02  0.29353696181E+03 -0.23287090094E+03  0.42989841732E+03  0.19900000000E+03 0.  0.
<mgrwt>
<rscale>  0 0.72738604E+03</rscale>
<asrwt>0</asrwt>
<pdfrwt beam="1">  1        2 0.85069012E-01 0.72738604E+03</pdfrwt>
<pdfrwt beam="2">  1       -2 0.31732367E-01 0.72738604E+03</pdfrwt>
<totfact> 0.50749754E+02</totfact>
</mgrwt>
</event>
<event>
 4    1  0.4915183E-005  0.5300570E+03  0.7818608E-02  0.1006218E+00
          2   -1    0    0  501    0  0.00000000000E+00  0.00000000000E+00  0.23074182083E+03  0.23074182085E+03  0.25500000000E-02 0.  1.
         -2   -1    0    0    0  501 -0.00000000000E+00 -0.00000000000E+00 -0.30440999502E+03  0.30440999503E+03  0.25500000000E-02 0. -1.
    5000001    1    1    2    0    0  0.14489469098E+03  0.76249860966E+02 -0.99320847813E+02  0.27617773911E+03  0.19900000000E+03 0.  0.
   -5000001    1    1    2    0    0 -0.14489469098E+03 -0.76249860966E+02  0.25652673625E+02  0.25897407676E+03  0.19900000000E+03 0.  0.
<mgrwt>
<rscale>  0 0.53005704E+03</rscale>
<asrwt>0</asrwt>
<pdfrwt beam="1">  1        2 0.32963117E-01 0.53005704E+03</pdfrwt>
<pdfrwt beam="2">  1       -2 0.43487142E-01 0.53005704E+03</pdfrwt>
<totfact> 0.80563525E+02</totfact>
</mgrwt>
</event>
<event>
 4    1  0.4915183E-005  0.4877252E+03  0.7818608E-02  0.1017033E+00
          2   -1    0    0  501    0  0.00000000000E+00  0.00000000000E+00  0.25646159420E+04  0.25646159420E+04  0.25500000000E-02 0.  1.
         -2   -1    0    0    0  501 -0.00000000000E+00 -0.00000000000E+00 -0.23188250934E+02  0.23188251075E+02  0.25500000000E-02 0. -1.
    5000001    1    1    2    0    0  0.86706451833E+02 -0.60934039570E+02  0.77761099197E+03  0.80963622745E+03  0.19900000000E+03 0.  0.
   -5000001    1    1    2    0    0 -0.86706451833E+02  0.60934039570E+02  0.17638166991E+04  0.17781679656E+04  0.19900000000E+03 0.  0.
<mgrwt>
<rscale>  0 0.48772516E+03</rscale>
<asrwt>0</asrwt>
<pdfrwt beam="1">  1        2 0.36637363E+00 0.48772516E+03</pdfrwt>
<pdfrwt beam="2">  1       -2 0.33126080E-02 0.48772516E+03</pdfrwt>
<totfact> 0.16678828E+03</totfact>
</mgrwt>
</event>
<event>
 4    1  0.4915183E-005  0.6877870E+03  0.7818608E-02  0.9738349E-01
         -2   -1    0    0    0  501 -0.00000000000E+00  0.00000000000E+00  0.78962948489E+02  0.78962948530E+02  0.25500000000E-02 0. -1.
          2   -1    0    0  501    0  0.00000000000E+00 -0.00000000000E+00 -0.14976989561E+04  0.14976989561E+04  0.25500000000E-02 0.  1.
    5000001    1    1    2    0    0 -0.26065803168E+02  0.20909237052E+03 -0.28504624538E+03  0.40651126369E+03  0.19900000000E+03 0.  0.
   -5000001    1    1    2    0    0  0.26065803168E+02 -0.20909237052E+03 -0.11336897623E+04  0.11701506410E+04  0.19900000000E+03 0.  0.
<mgrwt>
<rscale>  0 0.68778696E+03</rscale>
<asrwt>0</asrwt>
<pdfrwt beam="1">  1        2 0.21395698E+00 0.68778696E+03</pdfrwt>
<pdfrwt beam="2">  1       -2 0.11280422E-01 0.68778696E+03</pdfrwt>
<totfact> 0.83619821E+02</totfact>
</mgrwt>
</event>
<event>
 4    1  0.4915183E-005  0.8885277E+03  0.7818608E-02  0.9440037E-01
          2   -1    0    0  501    0  0.00000000000E+00  0.00000000000E+00  0.12138527081E+04  0.12138527081E+04  0.25500000000E-02 0.  1.
         -2   -1    0    0    0  501 -0.00000000000E+00 -0.00000000000E+00 -0.16259829559E+03  0.16259829561E+03  0.25500000000E-02 0. -1.
    5000001    1    1    2    0    0 -0.19912292775E+03  0.19835069067E+03  0.96042562793E+03  0.10202996244E+04  0.19900000000E+03 0.  0.
   -5000001    1    1    2    0    0  0.19912292775E+03 -0.19835069067E+03  0.90828784574E+02  0.35615137926E+03  0.19900000000E+03 0.  0.
<mgrwt>
<rscale>  0 0.88852773E+03</rscale>
<asrwt>0</asrwt>
<pdfrwt beam="1">  1        2 0.17340753E+00 0.88852773E+03</pdfrwt>
<pdfrwt beam="2">  1       -2 0.23228328E-01 0.88852773E+03</pdfrwt>
<totfact> 0.34361238E+02</totfact>
</mgrwt>
</event>
<event>
 4    1  0.4915183E-005  0.4149315E+03  0.7818608E-02  0.1038729E+00
         -2   -1    0    0    0  501 -0.00000000000E+00  0.00000000000E+00  0.13215055214E+03  0.13215055216E+03  0.25500000000E-02 0. -1.
          2   -1    0    0  501    0  0.00000000000E+00 -0.00000000000E+00 -0.32570454729E+03  0.32570454730E+03  0.25500000000E-02 0.  1.
    5000001    1    1    2    0    0  0.22094154914E+02 -0.28544556740E+02 -0.14779986823E+03  0.25049699489E+03  0.19900000000E+03 0.  0.
   -5000001    1    1    2    0    0 -0.22094154914E+02  0.28544556740E+02 -0.45754126927E+02  0.20735810457E+03  0.19900000000E+03 0.  0.
<mgrwt>
<rscale>  0 0.41493149E+03</rscale>
<asrwt>0</asrwt>
<pdfrwt beam="1">  1        2 0.46529221E-01 0.41493149E+03</pdfrwt>
<pdfrwt beam="2">  1       -2 0.18878650E-01 0.41493149E+03</pdfrwt>
<totfact> 0.25348824E+03</totfact>
</mgrwt>
</event>
<event>
 4    1  0.4915183E-005  0.7492672E+03  0.7818608E-02  0.9636501E-01
         -2   -1    0    0    0  501 -0.00000000000E+00  0.00000000000E+00  0.10953828377E+03  0.10953828380E+03  0.25500000000E-02 0. -1.
          2   -1    0    0  501    0  0.00000000000E+00 -0.00000000000E+00 -0.12812902724E+04  0.12812902724E+04  0.25500000000E-02 0.  1.
    5000001    1    1    2    0    0  0.27578703093E+03  0.15529687815E+03 -0.63033819066E+03  0.73287300495E+03  0.19900000000E+03 0.  0.
   -5000001    1    1    2    0    0 -0.27578703093E+03 -0.15529687815E+03 -0.54141379798E+03  0.65795555126E+03  0.19900000000E+03 0.  0.
<mgrwt>
<rscale>  0 0.74926721E+03</rscale>
<asrwt>0</asrwt>
<pdfrwt beam="1">  1        2 0.18304146E+00 0.74926721E+03</pdfrwt>
<pdfrwt beam="2">  1       -2 0.15648327E-01 0.74926721E+03</pdfrwt>
<totfact> 0.63090794E+02</totfact>
</mgrwt>
</event>
<event>
 4    1  0.4915183E-005  0.4596267E+03  0.7818608E-02  0.1024890E+00
         -2   -1    0    0    0  501 -0.00000000000E+00  0.00000000000E+00  0.21780471451E+03  0.21780471452E+03  0.25500000000E-02 0. -1.
          2   -1    0    0  501    0  0.00000000000E+00 -0.00000000000E+00 -0.24248402822E+03  0.24248402824E+03  0.25500000000E-02 0.  1.
    5000001    1    1    2    0    0  0.46825860863E+02  0.85717785274E+02  0.48352632736E+02  0.22689023128E+03  0.19900000000E+03 0.  0.
   -5000001    1    1    2    0    0 -0.46825860863E+02 -0.85717785274E+02 -0.73031946454E+02  0.23339851148E+03  0.19900000000E+03 0.  0.
<mgrwt>
<rscale>  0 0.45962665E+03</rscale>
<asrwt>0</asrwt>
<pdfrwt beam="1">  1        2 0.34640575E-01 0.45962665E+03</pdfrwt>
<pdfrwt beam="2">  1       -2 0.31114959E-01 0.45962665E+03</pdfrwt>
<totfact> 0.14426646E+03</totfact>
</mgrwt>
</event>
<event>
 4    1  0.4915183E-005  0.9956407E+03  0.7818608E-02  0.9313339E-01
          2   -1    0    0  501    0  0.00000000000E+00  0.00000000000E+00  0.19135339512E+04  0.19135339512E+04  0.25500000000E-02 0. -1.
         -2   -1    0    0    0  501 -0.00000000000E+00 -0.00000000000E+00 -0.12951172668E+03  0.12951172670E+03  0.25500000000E-02 0.  1.
    5000001    1    1    2    0    0 -0.44862283650E+03  0.68643200603E+02  0.98934013339E+03  0.11065121951E+04  0.19900000000E+03 0.  0.
   -5000001    1    1    2    0    0  0.44862283650E+03 -0.68643200603E+02  0.79468209117E+03  0.93653348282E+03  0.19900000000E+03 0.  0.
<mgrwt>
<rscale>  0 0.99564067E+03</rscale>
<asrwt>0</asrwt>
<pdfrwt beam="1">  1        2 0.27336200E+00 0.99564067E+03</pdfrwt>
<pdfrwt beam="2">  1       -2 0.18501675E-01 0.99564067E+03</pdfrwt>
<totfact> 0.21765345E+02</totfact>
</mgrwt>
</event>
<event>
 4    1  0.4915183E-005  0.4929889E+03  0.7818608E-02  0.1015625E+00
         -2   -1    0    0    0  501 -0.00000000000E+00  0.00000000000E+00  0.77856454154E+02  0.77856454195E+02  0.25500000000E-02 0. -1.
          2   -1    0    0  501    0  0.00000000000E+00 -0.00000000000E+00 -0.78040432318E+03  0.78040432318E+03  0.25500000000E-02 0.  1.
    5000001    1    1    2    0    0 -0.76461045281E+02  0.95133245892E+02 -0.48903762143E+03  0.54189982570E+03  0.19900000000E+03 0.  0.
   -5000001    1    1    2    0    0  0.76461045281E+02 -0.95133245892E+02 -0.21351024760E+03  0.31636095168E+03  0.19900000000E+03 0.  0.
<mgrwt>
<rscale>  0 0.49298890E+03</rscale>
<asrwt>0</asrwt>
<pdfrwt beam="1">  1        2 0.11148633E+00 0.49298890E+03</pdfrwt>
<pdfrwt beam="2">  1       -2 0.11122351E-01 0.49298890E+03</pdfrwt>
<totfact> 0.22588629E+03</totfact>
</mgrwt>
</event>
<event>
 4    1  0.4915183E-005  0.7519542E+03  0.7818608E-02  0.9632290E-01
         -2   -1    0    0    0  501 -0.00000000000E+00  0.00000000000E+00  0.12380603583E+03  0.12380603586E+03  0.25500000000E-02 0. -1.
          2   -1    0    0  501    0  0.00000000000E+00 -0.00000000000E+00 -0.11417760680E+04  0.11417760680E+04  0.25500000000E-02 0.  1.
    5000001    1    1    2    0    0 -0.13789241013E+03 -0.51883768016E+02 -0.32791188588E+02  0.24976489786E+03  0.19900000000E+03 0.  0.
   -5000001    1    1    2    0    0  0.13789241013E+03  0.51883768016E+02 -0.98517884357E+03  0.10158172060E+04  0.19900000000E+03 0.  0.
<mgrwt>
<rscale>  0 0.75195417E+03</rscale>
<asrwt>0</asrwt>
<pdfrwt beam="1">  1        2 0.16311086E+00 0.75195417E+03</pdfrwt>
<pdfrwt beam="2">  1       -2 0.17686577E-01 0.75195417E+03</pdfrwt>
<totfact> 0.61311457E+02</totfact>
</mgrwt>
</event>
<event>
 4    1  0.4915183E-005  0.5123636E+03  0.7818608E-02  0.1010601E+00
         -2   -1    0    0    0  501 -0.00000000000E+00  0.00000000000E+00  0.22720222205E+03  0.22720222206E+03  0.25500000000E-02 0. -1.
          2   -1    0    0  501    0  0.00000000000E+00 -0.00000000000E+00 -0.28885769846E+03  0.28885769847E+03  0.25500000000E-02 0.  1.
    5000001    1    1    2    0    0  0.62423320483E+02 -0.14599739291E+03 -0.59603081188E+02  0.26146785073E+03  0.19900000000E+03 0.  0.
   -5000001    1    1    2    0    0 -0.62423320483E+02  0.14599739291E+03 -0.20523952235E+01  0.25459206980E+03  0.19900000000E+03 0.  0.
<mgrwt>
<rscale>  0 0.51236359E+03</rscale>
<asrwt>0</asrwt>
<pdfrwt beam="1">  1        2 0.41265385E-01 0.51236359E+03</pdfrwt>
<pdfrwt beam="2">  1       -2 0.32457461E-01 0.51236359E+03</pdfrwt>
<totfact> 0.11003818E+03</totfact>
</mgrwt>
</event>
<event>
 4    1  0.4915183E-005  0.4640450E+03  0.7818608E-02  0.1023615E+00
         -2   -1    0    0    0  501 -0.00000000000E+00  0.00000000000E+00  0.51539896424E+02  0.51539896487E+02  0.25500000000E-02 0. -1.
          2   -1    0    0  501    0  0.00000000000E+00 -0.00000000000E+00 -0.10445199032E+04  0.10445199032E+04  0.25500000000E-02 0.  1.
    5000001    1    1    2    0    0  0.74600057688E+02  0.93043796991E+02 -0.48860976853E+03  0.54089076778E+03  0.19900000000E+03 0.  0.
   -5000001    1    1    2    0    0 -0.74600057688E+02 -0.93043796991E+02 -0.50437023824E+03  0.55516903191E+03  0.19900000000E+03 0.  0.
<mgrwt>
<rscale>  0 0.46404503E+03</rscale>
<asrwt>0</asrwt>
<pdfrwt beam="1">  1        2 0.14921712E+00 0.46404503E+03</pdfrwt>
<pdfrwt beam="2">  1       -2 0.73628430E-02 0.46404503E+03</pdfrwt>
<totfact> 0.29642963E+03</totfact>
</mgrwt>
</event>
<event>
 4    1  0.4915183E-005  0.7779003E+03  0.7818608E-02  0.9592568E-01
         -2   -1    0    0    0  501 -0.00000000000E+00  0.00000000000E+00  0.12106928628E+03  0.12106928631E+03  0.25500000000E-02 0. -1.
          2   -1    0    0  501    0  0.00000000000E+00 -0.00000000000E+00 -0.12495508495E+04  0.12495508495E+04  0.25500000000E-02 0.  1.
    5000001    1    1    2    0    0 -0.21256213530E+03  0.24836800458E+03 -0.68646339404E+03  0.78594040386E+03  0.19900000000E+03 0.  0.
   -5000001    1    1    2    0    0  0.21256213530E+03 -0.24836800458E+03 -0.44201816916E+03  0.58467973193E+03  0.19900000000E+03 0.  0.
<mgrwt>
<rscale>  0 0.77790033E+03</rscale>
<asrwt>0</asrwt>
<pdfrwt beam="1">  1        2 0.17850726E+00 0.77790033E+03</pdfrwt>
<pdfrwt beam="2">  1       -2 0.17295613E-01 0.77790033E+03</pdfrwt>
<totfact> 0.55303038E+02</totfact>
</mgrwt>
</event>
<event>
 4    1  0.4915183E-005  0.5913211E+03  0.7818608E-02  0.9923577E-01
         -2   -1    0    0    0  501 -0.00000000000E+00  0.00000000000E+00  0.89665720491E+02  0.89665720527E+02  0.25500000000E-02 0. -1.
          2   -1    0    0  501    0  0.00000000000E+00 -0.00000000000E+00 -0.97490053419E+03  0.97490053419E+03  0.25500000000E-02 0.  1.
    5000001    1    1    2    0    0 -0.20905578426E+03 -0.51640449431E+02 -0.37422658545E+03  0.47541307745E+03  0.19900000000E+03 0.  0.
   -5000001    1    1    2    0    0  0.20905578426E+03  0.51640449431E+02 -0.51100822825E+03  0.58915317727E+03  0.19900000000E+03 0.  0.
<mgrwt>
<rscale>  0 0.59132109E+03</rscale>
<asrwt>0</asrwt>
<pdfrwt beam="1">  1        2 0.13927150E+00 0.59132109E+03</pdfrwt>
<pdfrwt beam="2">  1       -2 0.12809389E-01 0.59132109E+03</pdfrwt>
<totfact> 0.13352511E+03</totfact>
</mgrwt>
</event>
<event>
 4    1  0.4915183E-005  0.5801692E+03  0.7818608E-02  0.9947425E-01
         -2   -1    0    0    0  501 -0.00000000000E+00  0.00000000000E+00  0.67804645542E+02  0.67804645590E+02  0.25500000000E-02 0. -1.
          2   -1    0    0  501    0  0.00000000000E+00 -0.00000000000E+00 -0.12410516374E+04  0.12410516374E+04  0.25500000000E-02 0.  1.
    5000001    1    1    2    0    0  0.11168395238E+03  0.17842697086E+03 -0.55177758392E+03  0.62319257960E+03  0.19900000000E+03 0.  0.
   -5000001    1    1    2    0    0 -0.11168395238E+03 -0.17842697086E+03 -0.62146940792E+03  0.68566370338E+03  0.19900000000E+03 0.  0.
<mgrwt>
<rscale>  0 0.58016917E+03</rscale>
<asrwt>0</asrwt>
<pdfrwt beam="1">  1        2 0.17729308E+00 0.58016917E+03</pdfrwt>
<pdfrwt beam="2">  1       -2 0.96863787E-02 0.58016917E+03</pdfrwt>
<totfact> 0.14770981E+03</totfact>
</mgrwt>
</event>
<event>
 4    1  0.4915183E-005  0.5277947E+03  0.7818608E-02  0.1006768E+00
         -2   -1    0    0    0  501 -0.00000000000E+00  0.00000000000E+00  0.83574076658E+02  0.83574076697E+02  0.25500000000E-02 0. -1.
          2   -1    0    0  501    0  0.00000000000E+00 -0.00000000000E+00 -0.83329439968E+03  0.83329439968E+03  0.25500000000E-02 0.  1.
    5000001    1    1    2    0    0  0.13175533354E+03 -0.23360526098E+02 -0.56622984884E+03  0.61491659907E+03  0.19900000000E+03 0.  0.
   -5000001    1    1    2    0    0 -0.13175533354E+03  0.23360526098E+02 -0.18349047418E+03  0.30195187731E+03  0.19900000000E+03 0.  0.
<mgrwt>
<rscale>  0 0.52779470E+03</rscale>
<asrwt>0</asrwt>
<pdfrwt beam="1">  1        2 0.11904205E+00 0.52779470E+03</pdfrwt>
<pdfrwt beam="2">  1       -2 0.11939154E-01 0.52779470E+03</pdfrwt>
<totfact> 0.18506130E+03</totfact>
</mgrwt>
</event>
<event>
 4    1  0.4915183E-005  0.5394168E+03  0.7818608E-02  0.1003974E+00
         -2   -1    0    0    0  501 -0.00000000000E+00  0.00000000000E+00  0.62026056375E+02  0.62026056427E+02  0.25500000000E-02 0. -1.
          2   -1    0    0  501    0  0.00000000000E+00 -0.00000000000E+00 -0.11727753006E+04  0.11727753006E+04  0.25500000000E-02 0.  1.
    5000001    1    1    2    0    0 -0.15867039676E+03  0.69335996746E+02 -0.68401238451E+03  0.73311507788E+03  0.19900000000E+03 0.  0.
   -5000001    1    1    2    0    0  0.15867039676E+03 -0.69335996746E+02 -0.42673685976E+03  0.50168627919E+03  0.19900000000E+03 0.  0.
<mgrwt>
<rscale>  0 0.53941682E+03</rscale>
<asrwt>0</asrwt>
<pdfrwt beam="1">  1        2 0.16753931E+00 0.53941682E+03</pdfrwt>
<pdfrwt beam="2">  1       -2 0.88608659E-02 0.53941682E+03</pdfrwt>
<totfact> 0.18624754E+03</totfact>
</mgrwt>
</event>
<event>
 4    1  0.4915183E-005  0.8073608E+03  0.7818608E-02  0.9549423E-01
         -2   -1    0    0    0  501 -0.00000000000E+00  0.00000000000E+00  0.71203115103E+03  0.71203115103E+03  0.25500000000E-02 0. -1.
          2   -1    0    0  501    0  0.00000000000E+00 -0.00000000000E+00 -0.22886337494E+03  0.22886337495E+03  0.25500000000E-02 0.  1.
    5000001    1    1    2    0    0 -0.24528729128E+03  0.85054096426E+02 -0.34092599352E+02  0.32888198478E+03  0.19900000000E+03 0.  0.
   -5000001    1    1    2    0    0  0.24528729128E+03 -0.85054096426E+02  0.51726037544E+03  0.61201254120E+03  0.19900000000E+03 0.  0.
<mgrwt>
<rscale>  0 0.80736077E+03</rscale>
<asrwt>0</asrwt>
<pdfrwt beam="1">  1        2 0.32694768E-01 0.80736077E+03</pdfrwt>
<pdfrwt beam="2">  1       -2 0.10171874E+00 0.80736077E+03</pdfrwt>
<totfact> 0.12897894E+02</totfact>
</mgrwt>
</event>
<event>
 4    1  0.4915183E-005  0.6924651E+03  0.7818608E-02  0.9730205E-01
          2   -1    0    0  501    0  0.00000000000E+00  0.00000000000E+00  0.67981509823E+03  0.67981509824E+03  0.25500000000E-02 0.  1.
         -2   -1    0    0    0  501 -0.00000000000E+00 -0.00000000000E+00 -0.17633762299E+03  0.17633762300E+03  0.25500000000E-02 0. -1.
    5000001    1    1    2    0    0  0.17879840559E+03 -0.20768332433E+03  0.16279858968E+03  0.37577335436E+03  0.19900000000E+03 0.  0.
   -5000001    1    1    2    0    0 -0.17879840559E+03  0.20768332433E+03  0.34067888557E+03  0.48037936688E+03  0.19900000000E+03 0.  0.
<mgrwt>
<rscale>  0 0.69246510E+03</rscale>
<asrwt>0</asrwt>
<pdfrwt beam="1">  1        2 0.97116444E-01 0.69246510E+03</pdfrwt>
<pdfrwt beam="2">  1       -2 0.25191089E-01 0.69246510E+03</pdfrwt>
<totfact> 0.66202470E+02</totfact>
</mgrwt>
</event>
<event>
 4    1  0.4915183E-005  0.8761736E+03  0.7818608E-02  0.9455866E-01
         -2   -1    0    0    0  501 -0.00000000000E+00  0.00000000000E+00  0.10766118073E+03  0.10766118076E+03  0.25500000000E-02 0. -1.
          2   -1    0    0  501    0  0.00000000000E+00 -0.00000000000E+00 -0.17826300928E+04  0.17826300928E+04  0.25500000000E-02 0.  1.
    5000001    1    1    2    0    0  0.33589399747E+03 -0.57835568831E+02 -0.42729105042E+03  0.58167720630E+03  0.19900000000E+03 0.  0.
   -5000001    1    1    2    0    0 -0.33589399747E+03  0.57835568831E+02 -0.12476778616E+04  0.13086140672E+04  0.19900000000E+03 0.  0.
<mgrwt>
<rscale>  0 0.87617364E+03</rscale>
<asrwt>0</asrwt>
<pdfrwt beam="1">  1        2 0.25466142E+00 0.87617364E+03</pdfrwt>
<pdfrwt beam="2">  1       -2 0.15380170E-01 0.87617364E+03</pdfrwt>
<totfact> 0.35146778E+02</totfact>
</mgrwt>
</event>
<event>
 4    1  0.4915183E-005  0.4949434E+03  0.7818608E-02  0.1015107E+00
         -2   -1    0    0    0  501 -0.00000000000E+00  0.00000000000E+00  0.10836973055E+03  0.10836973058E+03  0.25500000000E-02 0. -1.
          2   -1    0    0  501    0  0.00000000000E+00 -0.00000000000E+00 -0.56512318098E+03  0.56512318098E+03  0.25500000000E-02 0.  1.
    5000001    1    1    2    0    0  0.14700599587E+03 -0.62983424718E+00 -0.23584068774E+03  0.34180841052E+03  0.19900000000E+03 0.  0.
   -5000001    1    1    2    0    0 -0.14700599587E+03  0.62983424718E+00 -0.22091276269E+03  0.33168450104E+03  0.19900000000E+03 0.  0.
<mgrwt>
<rscale>  0 0.49494342E+03</rscale>
<asrwt>0</asrwt>
<pdfrwt beam="1">  1        2 0.80731881E-01 0.49494342E+03</pdfrwt>
<pdfrwt beam="2">  1       -2 0.15481390E-01 0.49494342E+03</pdfrwt>
<totfact> 0.19260538E+03</totfact>
</mgrwt>
</event>
<event>
 4    1  0.4915183E-005  0.6255612E+03  0.7818608E-02  0.9853749E-01
         -2   -1    0    0    0  501 -0.00000000000E+00  0.00000000000E+00  0.53477048832E+02  0.53477048893E+02  0.25500000000E-02 0. -1.
          2   -1    0    0  501    0  0.00000000000E+00 -0.00000000000E+00 -0.18294147641E+04  0.18294147641E+04  0.25500000000E-02 0.  1.
    5000001    1    1    2    0    0  0.10910973279E+03  0.19311817363E+03 -0.11740089118E+04  0.12112379980E+04  0.19900000000E+03 0.  0.
   -5000001    1    1    2    0    0 -0.10910973279E+03 -0.19311817363E+03 -0.60192880346E+03  0.67165381501E+03  0.19900000000E+03 0.  0.
<mgrwt>
<rscale>  0 0.62556120E+03</rscale>
<asrwt>0</asrwt>
<pdfrwt beam="1">  1        2 0.26134493E+00 0.62556120E+03</pdfrwt>
<pdfrwt beam="2">  1       -2 0.76395796E-02 0.62556120E+03</pdfrwt>
<totfact> 0.10636870E+03</totfact>
</mgrwt>
</event>
<event>
 4    1  0.4915183E-005  0.5438938E+03  0.7818608E-02  0.1002917E+00
          2   -1    0    0  501    0  0.00000000000E+00  0.00000000000E+00  0.12338567393E+04  0.12338567393E+04  0.25500000000E-02 0.  1.
         -2   -1    0    0    0  501 -0.00000000000E+00 -0.00000000000E+00 -0.59938169579E+02  0.59938169633E+02  0.25500000000E-02 0. -1.
    5000001    1    1    2    0    0  0.14743291335E+03 -0.66483446938E+02  0.80233401485E+03  0.84231667682E+03  0.19900000000E+03 0.  0.
   -5000001    1    1    2    0    0 -0.14743291335E+03  0.66483446938E+02  0.37158455485E+03  0.45147823210E+03  0.19900000000E+03 0.  0.
<mgrwt>
<rscale>  0 0.54389379E+03</rscale>
<asrwt>0</asrwt>
<pdfrwt beam="1">  1        2 0.17626525E+00 0.54389379E+03</pdfrwt>
<pdfrwt beam="2">  1       -2 0.85625958E-02 0.54389379E+03</pdfrwt>
<totfact> 0.18187673E+03</totfact>
</mgrwt>
</event>
<event>
 4    1  0.4915183E-005  0.6936937E+03  0.7818608E-02  0.9728078E-01
         -2   -1    0    0    0  501 -0.00000000000E+00  0.00000000000E+00  0.88619348881E+02  0.88619348917E+02  0.25500000000E-02 0.  1.
          2   -1    0    0  501    0  0.00000000000E+00 -0.00000000000E+00 -0.13575222989E+04  0.13575222989E+04  0.25500000000E-02 0. -1.
    5000001    1    1    2    0    0 -0.17102148858E+03  0.14263471025E+03 -0.10021435167E+04  0.10456986364E+04  0.19900000000E+03 0.  0.
   -5000001    1    1    2    0    0  0.17102148858E+03 -0.14263471025E+03 -0.26675943333E+03  0.40044301142E+03  0.19900000000E+03 0.  0.
<mgrwt>
<rscale>  0 0.69369371E+03</rscale>
<asrwt>0</asrwt>
<pdfrwt beam="1">  1        2 0.19393174E+00 0.69369371E+03</pdfrwt>
<pdfrwt beam="2">  1       -2 0.12659908E-01 0.69369371E+03</pdfrwt>
<totfact> 0.82023761E+02</totfact>
</mgrwt>
</event>
<event>
 4    1  0.4915183E-005  0.4987538E+03  0.7818608E-02  0.1014105E+00
         -2   -1    0    0    0  501 -0.00000000000E+00  0.00000000000E+00  0.99554716047E+02  0.99554716080E+02  0.25500000000E-02 0. -1.
          2   -1    0    0  501    0  0.00000000000E+00 -0.00000000000E+00 -0.62466998023E+03  0.62466998023E+03  0.25500000000E-02 0.  1.
    5000001    1    1    2    0    0  0.30904209301E+02  0.14705349055E+03 -0.25843946662E+03  0.35912638046E+03  0.19900000000E+03 0.  0.
   -5000001    1    1    2    0    0 -0.30904209301E+02 -0.14705349055E+03 -0.26667579757E+03  0.36509831586E+03  0.19900000000E+03 0.  0.
<mgrwt>
<rscale>  0 0.49875382E+03</rscale>
<asrwt>0</asrwt>
<pdfrwt beam="1">  1        2 0.89238566E-01 0.49875382E+03</pdfrwt>
<pdfrwt beam="2">  1       -2 0.14222103E-01 0.49875382E+03</pdfrwt>
<totfact> 0.19752386E+03</totfact>
</mgrwt>
</event>
<event>
 4    1  0.4915183E-005  0.7418735E+03  0.7818608E-02  0.9648186E-01
         -2   -1    0    0    0  501 -0.00000000000E+00  0.00000000000E+00  0.93322837539E+02  0.93322837574E+02  0.25500000000E-02 0. -1.
          2   -1    0    0  501    0  0.00000000000E+00 -0.00000000000E+00 -0.14743880572E+04  0.14743880572E+04  0.25500000000E-02 0.  1.
    5000001    1    1    2    0    0 -0.28939061265E+02  0.29448083394E+03 -0.90641469007E+03  0.97403543118E+03  0.19900000000E+03 0.  0.
   -5000001    1    1    2    0    0  0.28939061265E+02 -0.29448083394E+03 -0.47465052958E+03  0.59367546358E+03  0.19900000000E+03 0.  0.
<mgrwt>
<rscale>  0 0.74187351E+03</rscale>
<asrwt>0</asrwt>
<pdfrwt beam="1">  1        2 0.21062685E+00 0.74187351E+03</pdfrwt>
<pdfrwt beam="2">  1       -2 0.13331835E-01 0.74187351E+03</pdfrwt>
<totfact> 0.65066847E+02</totfact>
</mgrwt>
</event>
<event>
 4    1  0.4915183E-005  0.5490844E+03  0.7818608E-02  0.1001706E+00
          2   -1    0    0  501    0  0.00000000000E+00  0.00000000000E+00  0.43552188865E+03  0.43552188866E+03  0.25500000000E-02 0.  1.
         -2   -1    0    0    0  501 -0.00000000000E+00 -0.00000000000E+00 -0.17306460739E+03  0.17306460741E+03  0.25500000000E-02 0. -1.
    5000001    1    1    2    0    0  0.95507722840E+02 -0.15940241066E+03  0.17028295134E+03  0.32113569898E+03  0.19900000000E+03 0.  0.
   -5000001    1    1    2    0    0 -0.95507722840E+02  0.15940241066E+03  0.92174329928E+02  0.28745079708E+03  0.19900000000E+03 0.  0.
<mgrwt>
<rscale>  0 0.54908442E+03</rscale>
<asrwt>0</asrwt>
<pdfrwt beam="1">  1        2 0.62217413E-01 0.54908442E+03</pdfrwt>
<pdfrwt beam="2">  1       -2 0.24723515E-01 0.54908442E+03</pdfrwt>
<totfact> 0.11497302E+03</totfact>
</mgrwt>
</event>
<event>
 4    1  0.4915183E-005  0.6019119E+03  0.7818608E-02  0.9901447E-01
          2   -1    0    0  501    0  0.00000000000E+00  0.00000000000E+00  0.90870890891E+03  0.90870890891E+03  0.25500000000E-02 0.  1.
         -2   -1    0    0    0  501 -0.00000000000E+00 -0.00000000000E+00 -0.99673825806E+02  0.99673825839E+02  0.25500000000E-02 0. -1.
    5000001    1    1    2    0    0  0.11429767139E+03  0.19470312022E+03  0.40371269175E+03  0.50354562871E+03  0.19900000000E+03 0.  0.
   -5000001    1    1    2    0    0 -0.11429767139E+03 -0.19470312022E+03  0.40532239135E+03  0.50483710604E+03  0.19900000000E+03 0.  0.
<mgrwt>
<rscale>  0 0.60191193E+03</rscale>
<asrwt>0</asrwt>
<pdfrwt beam="1">  1        2 0.12981556E+00 0.60191193E+03</pdfrwt>
<pdfrwt beam="2">  1       -2 0.14239118E-01 0.60191193E+03</pdfrwt>
<totfact> 0.12319778E+03</totfact>
</mgrwt>
</event>
<event>
 4    1  0.4915183E-005  0.5398120E+03  0.7818608E-02  0.1003880E+00
          2   -1    0    0  501    0  0.00000000000E+00  0.00000000000E+00  0.46221217154E+03  0.46221217155E+03  0.25500000000E-02 0.  1.
         -2   -1    0    0    0  501 -0.00000000000E+00 -0.00000000000E+00 -0.15760997942E+03  0.15760997944E+03  0.25500000000E-02 0. -1.
    5000001    1    1    2    0    0  0.16390253392E+03 -0.10200339585E+02  0.24329452281E+03  0.35462841451E+03  0.19900000000E+03 0.  0.
   -5000001    1    1    2    0    0 -0.16390253392E+03  0.10200339585E+02  0.61307669311E+02  0.26519373648E+03  0.19900000000E+03 0.  0.
<mgrwt>
<rscale>  0 0.53981201E+03</rscale>
<asrwt>0</asrwt>
<pdfrwt beam="1">  1        2 0.66030311E-01 0.53981201E+03</pdfrwt>
<pdfrwt beam="2">  1       -2 0.22515711E-01 0.53981201E+03</pdfrwt>
<totfact> 0.12702834E+03</totfact>
</mgrwt>
</event>
<event>
 4    1  0.4915183E-005  0.6451014E+03  0.7818608E-02  0.9816015E-01
          2   -1    0    0  501    0  0.00000000000E+00  0.00000000000E+00  0.11221446915E+03  0.11221446918E+03  0.25500000000E-02 0.  1.
         -2   -1    0    0    0  501 -0.00000000000E+00 -0.00000000000E+00 -0.92714374523E+03  0.92714374523E+03  0.25500000000E-02 0. -1.
    5000001    1    1    2    0    0 -0.14038065684E+03 -0.20446907542E+03 -0.32034879796E+03  0.45137421722E+03  0.19900000000E+03 0.  0.
   -5000001    1    1    2    0    0  0.14038065684E+03  0.20446907542E+03 -0.49458047811E+03  0.58798399719E+03  0.19900000000E+03 0.  0.
<mgrwt>
<rscale>  0 0.64510137E+03</rscale>
<asrwt>0</asrwt>
<pdfrwt beam="1">  1        2 0.16030639E-01 0.64510137E+03</pdfrwt>
<pdfrwt beam="2">  1       -2 0.13244910E+00 0.64510137E+03</pdfrwt>
<totfact> 0.15527921E+02</totfact>
</mgrwt>
</event>
<event>
 4    1  0.4915183E-005  0.5672258E+03  0.7818608E-02  0.9975836E-01
          2   -1    0    0  501    0  0.00000000000E+00  0.00000000000E+00  0.25426947330E+03  0.25426947331E+03  0.25500000000E-02 0. -1.
         -2   -1    0    0    0  501 -0.00000000000E+00 -0.00000000000E+00 -0.31634269157E+03  0.31634269158E+03  0.25500000000E-02 0.  1.
    5000001    1    1    2    0    0  0.19504661465E+03 -0.52215123810E+02 -0.22883377184E+02  0.28441914491E+03  0.19900000000E+03 0.  0.
   -5000001    1    1    2    0    0 -0.19504661465E+03  0.52215123810E+02 -0.39189841092E+02  0.28619301998E+03  0.19900000000E+03 0.  0.
<mgrwt>
<rscale>  0 0.56722584E+03</rscale>
<asrwt>0</asrwt>
<pdfrwt beam="1">  1        2 0.36324211E-01 0.56722584E+03</pdfrwt>
<pdfrwt beam="2">  1       -2 0.45191813E-01 0.56722584E+03</pdfrwt>
<totfact> 0.67016936E+02</totfact>
</mgrwt>
</event>
<event>
 4    1  0.4915183E-005  0.8061851E+03  0.7818608E-02  0.9551107E-01
         -2   -1    0    0    0  501 -0.00000000000E+00  0.00000000000E+00  0.70482382283E+02  0.70482382329E+02  0.25500000000E-02 0. -1.
          2   -1    0    0  501    0  0.00000000000E+00 -0.00000000000E+00 -0.23053081559E+04  0.23053081559E+04  0.25500000000E-02 0.  1.
    5000001    1    1    2    0    0 -0.37834896226E+02  0.16172942908E+03 -0.20271330034E+04  0.20436382021E+04  0.19900000000E+03 0.  0.
   -5000001    1    1    2    0    0  0.37834896226E+02 -0.16172942908E+03 -0.20769277024E+03  0.33215233616E+03  0.19900000000E+03 0.  0.
<mgrwt>
<rscale>  0 0.80618512E+03</rscale>
<asrwt>0</asrwt>
<pdfrwt beam="1">  1        2 0.32932969E+00 0.80618512E+03</pdfrwt>
<pdfrwt beam="2">  1       -2 0.10068913E-01 0.80618512E+03</pdfrwt>
<totfact> 0.38719179E+02</totfact>
</mgrwt>
</event>
<event>
 4    1  0.4915183E-005  0.5532095E+03  0.7818608E-02  0.1000754E+00
          2   -1    0    0  501    0  0.00000000000E+00  0.00000000000E+00  0.15499792502E+03  0.15499792504E+03  0.25500000000E-02 0.  1.
         -2   -1    0    0    0  501 -0.00000000000E+00 -0.00000000000E+00 -0.49362078612E+03  0.49362078612E+03  0.25500000000E-02 0. -1.
    5000001    1    1    2    0    0  0.17803392095E+03 -0.71985288675E+02 -0.16275832657E+03  0.32088819184E+03  0.19900000000E+03 0.  0.
   -5000001    1    1    2    0    0 -0.17803392095E+03  0.71985288675E+02 -0.17586453452E+03  0.32773051932E+03  0.19900000000E+03 0.  0.
<mgrwt>
<rscale>  0 0.55320954E+03</rscale>
<asrwt>0</asrwt>
<pdfrwt beam="1">  1        2 0.22142561E-01 0.55320954E+03</pdfrwt>
<pdfrwt beam="2">  1       -2 0.70517254E-01 0.55320954E+03</pdfrwt>
<totfact> 0.46549256E+02</totfact>
</mgrwt>
</event>
<event>
 4    1  0.4915183E-005  0.4633702E+03  0.7818608E-02  0.1023808E+00
          2   -1    0    0  501    0  0.00000000000E+00  0.00000000000E+00  0.74427884568E+03  0.74427884568E+03  0.25500000000E-02 0.  1.
         -2   -1    0    0    0  501 -0.00000000000E+00 -0.00000000000E+00 -0.72120790399E+02  0.72120790444E+02  0.25500000000E-02 0. -1.
    5000001    1    1    2    0    0 -0.79913297286E+02  0.87499115377E+02  0.32569317955E+03  0.39964894280E+03  0.19900000000E+03 0.  0.
   -5000001    1    1    2    0    0  0.79913297286E+02 -0.87499115377E+02  0.34646487573E+03  0.41675069333E+03  0.19900000000E+03 0.  0.
<mgrwt>
<rscale>  0 0.46337017E+03</rscale>
<asrwt>0</asrwt>
<pdfrwt beam="1">  1        2 0.10632555E+00 0.46337017E+03</pdfrwt>
<pdfrwt beam="2">  1       -2 0.10302970E-01 0.46337017E+03</pdfrwt>
<totfact> 0.27119341E+03</totfact>
</mgrwt>
</event>
<event>
 4    1  0.4915183E-005  0.9645197E+03  0.7818608E-02  0.9348338E-01
          2   -1    0    0  501    0  0.00000000000E+00  0.00000000000E+00  0.33689347702E+03  0.33689347703E+03  0.25500000000E-02 0.  1.
         -2   -1    0    0    0  501 -0.00000000000E+00 -0.00000000000E+00 -0.69035043879E+03  0.69035043880E+03  0.25500000000E-02 0. -1.
    5000001    1    1    2    0    0 -0.43536128635E+03 -0.20515516662E+02 -0.23519108547E+03  0.53373793454E+03  0.19900000000E+03 0.  0.
   -5000001    1    1    2    0    0  0.43536128635E+03  0.20515516662E+02 -0.11826587630E+03  0.49350598130E+03  0.19900000000E+03 0.  0.
<mgrwt>
<rscale>  0 0.96451969E+03</rscale>
<asrwt>0</asrwt>
<pdfrwt beam="1">  1        2 0.48127640E-01 0.96451969E+03</pdfrwt>
<pdfrwt beam="2">  1       -2 0.98621491E-01 0.96451969E+03</pdfrwt>
<totfact> 0.89518822E+01</totfact>
</mgrwt>
</event>
<event>
 4    1  0.4915183E-005  0.6660441E+03  0.7818608E-02  0.9777131E-01
         -2   -1    0    0    0  501 -0.00000000000E+00  0.00000000000E+00  0.63317030173E+02  0.63317030225E+02  0.25500000000E-02 0. -1.
          2   -1    0    0  501    0  0.00000000000E+00 -0.00000000000E+00 -0.17515619255E+04  0.17515619255E+04  0.25500000000E-02 0.  1.
    5000001    1    1    2    0    0  0.12401069595E+03  0.64082883739E+02 -0.14643950378E+04  0.14844322469E+04  0.19900000000E+03 0.  0.
   -5000001    1    1    2    0    0 -0.12401069595E+03 -0.64082883739E+02 -0.22384985749E+03  0.33044670886E+03  0.19900000000E+03 0.  0.
<mgrwt>
<rscale>  0 0.66604414E+03</rscale>
<asrwt>0</asrwt>
<pdfrwt beam="1">  1        2 0.25022310E+00 0.66604414E+03</pdfrwt>
<pdfrwt beam="2">  1       -2 0.90452911E-02 0.66604414E+03</pdfrwt>
<totfact> 0.88706842E+02</totfact>
</mgrwt>
</event>
<event>
 4    1  0.4915183E-005  0.4535706E+03  0.7818608E-02  0.1026663E+00
         -2   -1    0    0    0  501 -0.00000000000E+00  0.00000000000E+00  0.17726298003E+02  0.17726298187E+02  0.25500000000E-02 0. -1.
          2   -1    0    0  501    0  0.00000000000E+00 -0.00000000000E+00 -0.29014280286E+04  0.29014280286E+04  0.25500000000E-02 0.  1.
    5000001    1    1    2    0    0 -0.59636036308E+02 -0.51304841816E+02 -0.95842914981E+03  0.98202651636E+03  0.19900000000E+03 0.  0.
   -5000001    1    1    2    0    0  0.59636036308E+02  0.51304841816E+02 -0.19252725808E+04  0.19371278104E+04  0.19900000000E+03 0.  0.
<mgrwt>
<rscale>  0 0.45357063E+03</rscale>
<asrwt>0</asrwt>
<pdfrwt beam="1">  1        2 0.41448942E+00 0.45357063E+03</pdfrwt>
<pdfrwt beam="2">  1       -2 0.25323301E-02 0.45357063E+03</pdfrwt>
<totfact> 0.16740483E+03</totfact>
</mgrwt>
</event>
<event>
 4    1  0.4915183E-005  0.4827835E+03  0.7818608E-02  0.1018373E+00
          2   -1    0    0  501    0  0.00000000000E+00  0.00000000000E+00  0.89821929269E+03  0.89821929269E+03  0.25500000000E-02 0.  1.
         -2   -1    0    0    0  501 -0.00000000000E+00 -0.00000000000E+00 -0.64872769893E+02  0.64872769943E+02  0.25500000000E-02 0. -1.
    5000001    1    1    2    0    0  0.10854832614E+03  0.67969095304E+02  0.32170310035E+03  0.39937003117E+03  0.19900000000E+03 0.  0.
   -5000001    1    1    2    0    0 -0.10854832614E+03 -0.67969095304E+02  0.51164342245E+03  0.56372203147E+03  0.19900000000E+03 0.  0.
<mgrwt>
<rscale>  0 0.48278349E+03</rscale>
<asrwt>0</asrwt>
<pdfrwt beam="1">  1        2 0.12831704E+00 0.48278349E+03</pdfrwt>
<pdfrwt beam="2">  1       -2 0.92675388E-02 0.48278349E+03</pdfrwt>
<totfact> 0.25296306E+03</totfact>
</mgrwt>
</event>
<event>
 4    1  0.4915183E-005  0.7267438E+03  0.7818608E-02  0.9672559E-01
         -2   -1    0    0    0  501 -0.00000000000E+00  0.00000000000E+00  0.84049371631E+02  0.84049371670E+02  0.25500000000E-02 0. -1.
          2   -1    0    0  501    0  0.00000000000E+00 -0.00000000000E+00 -0.15709713567E+04  0.15709713567E+04  0.25500000000E-02 0.  1.
    5000001    1    1    2    0    0 -0.34546458018E+02 -0.27804989788E+03 -0.47465209327E+03  0.58600410675E+03  0.19900000000E+03 0.  0.
   -5000001    1    1    2    0    0  0.34546458018E+02  0.27804989788E+03 -0.10122698918E+04  0.10690166216E+04  0.19900000000E+03 0.  0.
<mgrwt>
<rscale>  0 0.72674385E+03</rscale>
<asrwt>0</asrwt>
<pdfrwt beam="1">  1        2 0.22442446E+00 0.72674385E+03</pdfrwt>
<pdfrwt beam="2">  1       -2 0.12007054E-01 0.72674385E+03</pdfrwt>
<totfact> 0.68968269E+02</totfact>
</mgrwt>
</event>
<event>
 4    1  0.4915183E-005  0.9228651E+03  0.7818608E-02  0.9397442E-01
          2   -1    0    0  501    0  0.00000000000E+00  0.00000000000E+00  0.23513914970E+04  0.23513914970E+04  0.25500000000E-02 0. -1.
         -2   -1    0    0    0  501 -0.00000000000E+00 -0.00000000000E+00 -0.90550638812E+02  0.90550638847E+02  0.25500000000E-02 0.  1.
    5000001    1    1    2    0    0 -0.40409642492E+03  0.62989593037E+01  0.86600915007E+03  0.97616927094E+03  0.19900000000E+03 0.  0.
   -5000001    1    1    2    0    0  0.40409642492E+03 -0.62989593037E+01  0.13948317081E+04  0.14657728649E+04  0.19900000000E+03 0.  0.
<mgrwt>
<rscale>  0 0.92286511E+03</rscale>
<asrwt>0</asrwt>
<pdfrwt beam="1">  1        2 0.33591300E+00 0.92286511E+03</pdfrwt>
<pdfrwt beam="2">  1       -2 0.12935808E-01 0.92286511E+03</pdfrwt>
<totfact> 0.24041730E+02</totfact>
</mgrwt>
</event>
<event>
 4    1  0.4915183E-005  0.5303599E+03  0.7818608E-02  0.1006145E+00
          2   -1    0    0  501    0  0.00000000000E+00  0.00000000000E+00  0.88001222332E+02  0.88001222369E+02  0.25500000000E-02 0.  1.
         -2   -1    0    0    0  501 -0.00000000000E+00 -0.00000000000E+00 -0.79908449041E+03  0.79908449042E+03  0.25500000000E-02 0. -1.
    5000001    1    1    2    0    0  0.12568957850E+03 -0.77892831874E+02 -0.19815395182E+03  0.31738171343E+03  0.19900000000E+03 0.  0.
   -5000001    1    1    2    0    0 -0.12568957850E+03  0.77892831874E+02 -0.51292931626E+03  0.56970399935E+03  0.19900000000E+03 0.  0.
<mgrwt>
<rscale>  0 0.53035992E+03</rscale>
<asrwt>0</asrwt>
<pdfrwt beam="1">  1        2 0.12571604E-01 0.53035992E+03</pdfrwt>
<pdfrwt beam="2">  1       -2 0.11415492E+00 0.53035992E+03</pdfrwt>
<totfact> 0.30291178E+02</totfact>
</mgrwt>
</event>
<event>
 4    1  0.4915183E-005  0.4810896E+03  0.7818608E-02  0.1018836E+00
         -2   -1    0    0    0  501 -0.00000000000E+00  0.00000000000E+00  0.30041139771E+02  0.30041139879E+02  0.25500000000E-02 0. -1.
          2   -1    0    0  501    0  0.00000000000E+00 -0.00000000000E+00 -0.19260853976E+04  0.19260853976E+04  0.25500000000E-02 0.  1.
    5000001    1    1    2    0    0  0.10930732235E+03 -0.65465710837E+02 -0.76496250193E+03  0.80062630445E+03  0.19900000000E+03 0.  0.
   -5000001    1    1    2    0    0 -0.10930732235E+03  0.65465710837E+02 -0.11310817559E+04  0.11555002330E+04  0.19900000000E+03 0.  0.
<mgrwt>
<rscale>  0 0.48108960E+03</rscale>
<asrwt>0</asrwt>
<pdfrwt beam="1">  1        2 0.27515498E+00 0.48108960E+03</pdfrwt>
<pdfrwt beam="2">  1       -2 0.42915926E-02 0.48108960E+03</pdfrwt>
<totfact> 0.23535094E+03</totfact>
</mgrwt>
</event>
<event>
 4    1  0.4915183E-005  0.1480376E+04  0.7818608E-02  0.8897608E-01
         -2   -1    0    0    0  501 -0.00000000000E+00  0.00000000000E+00  0.16772255814E+03  0.16772255816E+03  0.25500000000E-02 0. -1.
          2   -1    0    0  501    0  0.00000000000E+00 -0.00000000000E+00 -0.32665759568E+04  0.32665759568E+04  0.25500000000E-02 0.  1.
    5000001    1    1    2    0    0  0.60977674825E+03 -0.36067636922E+03 -0.17344705684E+04  0.18841189662E+04  0.19900000000E+03 0.  0.
   -5000001    1    1    2    0    0 -0.60977674825E+03  0.36067636922E+03 -0.13643828303E+04  0.15501795488E+04  0.19900000000E+03 0.  0.
<mgrwt>
<rscale>  0 0.14803763E+04</rscale>
<asrwt>0</asrwt>
<pdfrwt beam="1">  1        2 0.46665367E+00 0.14803763E+04</pdfrwt>
<pdfrwt beam="2">  1       -2 0.23960367E-01 0.14803763E+04</pdfrwt>
<totfact> 0.25104072E+01</totfact>
</mgrwt>
</event>
<event>
 4    1  0.4915183E-005  0.5662383E+03  0.7818608E-02  0.9978037E-01
         -2   -1    0    0    0  501 -0.00000000000E+00  0.00000000000E+00  0.79538663924E+02  0.79538663965E+02  0.25500000000E-02 0. -1.
          2   -1    0    0  501    0  0.00000000000E+00 -0.00000000000E+00 -0.10077671289E+04  0.10077671289E+04  0.25500000000E-02 0.  1.
    5000001    1    1    2    0    0 -0.19474808130E+03 -0.40790431792E+02 -0.52375810397E+03  0.59457062320E+03  0.19900000000E+03 0.  0.
   -5000001    1    1    2    0    0  0.19474808130E+03  0.40790431792E+02 -0.40447036100E+03  0.49273516966E+03  0.19900000000E+03 0.  0.
<mgrwt>
<rscale>  0 0.56623829E+03</rscale>
<asrwt>0</asrwt>
<pdfrwt beam="1">  1        2 0.14396673E+00 0.56623829E+03</pdfrwt>
<pdfrwt beam="2">  1       -2 0.11362667E-01 0.56623829E+03</pdfrwt>
<totfact> 0.15534898E+03</totfact>
</mgrwt>
</event>
<event>
 4    1  0.4915183E-005  0.1230433E+04  0.7818608E-02  0.9086628E-01
          2   -1    0    0  501    0  0.00000000000E+00  0.00000000000E+00  0.67132908623E+03  0.67132908624E+03  0.25500000000E-02 0.  1.
         -2   -1    0    0    0  501 -0.00000000000E+00 -0.00000000000E+00 -0.56379408250E+03  0.56379408251E+03  0.25500000000E-02 0. -1.
    5000001    1    1    2    0    0 -0.58198774533E+03  0.49508655903E+00  0.67249460442E+02  0.61873538024E+03  0.19900000000E+03 0.  0.
   -5000001    1    1    2    0    0  0.58198774533E+03 -0.49508655903E+00  0.40285543289E+02  0.61638778851E+03  0.19900000000E+03 0.  0.
<mgrwt>
<rscale>  0 0.12304330E+04</rscale>
<asrwt>0</asrwt>
<pdfrwt beam="1">  1        2 0.95904155E-01 0.12304330E+04</pdfrwt>
<pdfrwt beam="2">  1       -2 0.80542012E-01 0.12304330E+04</pdfrwt>
<totfact> 0.63622991E+01</totfact>
</mgrwt>
</event>
<event>
 4    1  0.4915183E-005  0.1197748E+04  0.7818608E-02  0.9114830E-01
         -2   -1    0    0    0  501 -0.00000000000E+00  0.00000000000E+00  0.17899252734E+03  0.17899252736E+03  0.25500000000E-02 0. -1.
          2   -1    0    0  501    0  0.00000000000E+00 -0.00000000000E+00 -0.20037136490E+04  0.20037136490E+04  0.25500000000E-02 0.  1.
    5000001    1    1    2    0    0 -0.50925835634E+03  0.54613096349E+02 -0.47834412310E+03  0.72851957001E+03  0.19900000000E+03 0.  0.
   -5000001    1    1    2    0    0  0.50925835634E+03 -0.54613096349E+02 -0.13463769985E+04  0.14541866063E+04  0.19900000000E+03 0.  0.
<mgrwt>
<rscale>  0 0.11977475E+04</rscale>
<asrwt>0</asrwt>
<pdfrwt beam="1">  1        2 0.28624479E+00 0.11977475E+04</pdfrwt>
<pdfrwt beam="2">  1       -2 0.25570362E-01 0.11977475E+04</pdfrwt>
<totfact> 0.10860234E+02</totfact>
</mgrwt>
</event>
<event>
 4    1  0.4915183E-005  0.9677097E+03  0.7818608E-02  0.9344687E-01
         -2   -1    0    0    0  501 -0.00000000000E+00  0.00000000000E+00  0.16639533270E+03  0.16639533272E+03  0.25500000000E-02 0. -1.
          2   -1    0    0  501    0  0.00000000000E+00 -0.00000000000E+00 -0.14069836848E+04  0.14069836848E+04  0.25500000000E-02 0.  1.
    5000001    1    1    2    0    0 -0.73866310698E+02 -0.43200913198E+03 -0.54020586537E+03  0.72354094490E+03  0.19900000000E+03 0.  0.
   -5000001    1    1    2    0    0  0.73866310698E+02  0.43200913198E+03 -0.70038248678E+03  0.84983807267E+03  0.19900000000E+03 0.  0.
<mgrwt>
<rscale>  0 0.96770971E+03</rscale>
<asrwt>0</asrwt>
<pdfrwt beam="1">  1        2 0.20099766E+00 0.96770971E+03</pdfrwt>
<pdfrwt beam="2">  1       -2 0.23770763E-01 0.96770971E+03</pdfrwt>
<totfact> 0.25701204E+02</totfact>
</mgrwt>
</event>
<event>
 4    1  0.4915183E-005  0.1025162E+04  0.7818608E-02  0.9281370E-01
          2   -1    0    0  501    0  0.00000000000E+00  0.00000000000E+00  0.19667326598E+03  0.19667326600E+03  0.25500000000E-02 0.  1.
         -2   -1    0    0    0  501 -0.00000000000E+00 -0.00000000000E+00 -0.13359171669E+04  0.13359171669E+04  0.25500000000E-02 0. -1.
    5000001    1    1    2    0    0 -0.33346666038E+01 -0.46235228362E+03 -0.71423655907E+03  0.87379380662E+03  0.19900000000E+03 0.  0.
   -5000001    1    1    2    0    0  0.33346666038E+01  0.46235228362E+03 -0.42500734181E+03  0.65879662625E+03  0.19900000000E+03 0.  0.
<mgrwt>
<rscale>  0 0.10251618E+04</rscale>
<asrwt>0</asrwt>
<pdfrwt beam="1">  1        2 0.28096182E-01 0.10251618E+04</pdfrwt>
<pdfrwt beam="2">  1       -2 0.19084530E+00 0.10251618E+04</pdfrwt>
<totfact> 0.29291889E+01</totfact>
</mgrwt>
</event>
<event>
 4    1  0.4915183E-005  0.9187017E+03  0.7818608E-02  0.9402501E-01
          2   -1    0    0  501    0  0.00000000000E+00  0.00000000000E+00  0.13273428715E+04  0.13273428715E+04  0.25500000000E-02 0.  1.
         -2   -1    0    0    0  501 -0.00000000000E+00 -0.00000000000E+00 -0.15896662095E+03  0.15896662097E+03  0.25500000000E-02 0. -1.
    5000001    1    1    2    0    0  0.24365336063E+03  0.22661995155E+03  0.98271046668E+03  0.10564300374E+04  0.19900000000E+03 0.  0.
   -5000001    1    1    2    0    0 -0.24365336063E+03 -0.22661995155E+03  0.18566578385E+03  0.42987945505E+03  0.19900000000E+03 0.  0.
<mgrwt>
<rscale>  0 0.91870172E+03</rscale>
<asrwt>0</asrwt>
<pdfrwt beam="1">  1        2 0.18962041E+00 0.91870172E+03</pdfrwt>
<pdfrwt beam="2">  1       -2 0.22709518E-01 0.91870172E+03</pdfrwt>
<totfact> 0.30891378E+02</totfact>
</mgrwt>
</event>
<event>
 4    1  0.4915183E-005  0.1065206E+04  0.7818608E-02  0.9239784E-01
         -2   -1    0    0    0  501 -0.00000000000E+00  0.00000000000E+00  0.15834041621E+03  0.15834041623E+03  0.25500000000E-02 0. -1.
          2   -1    0    0  501    0  0.00000000000E+00 -0.00000000000E+00 -0.17914930940E+04  0.17914930940E+04  0.25500000000E-02 0.  1.
    5000001    1    1    2    0    0 -0.14086911482E+03  0.45806001781E+03 -0.10362462494E+04  0.11589091323E+04  0.19900000000E+03 0.  0.
   -5000001    1    1    2    0    0  0.14086911482E+03 -0.45806001781E+03 -0.59690642840E+03  0.79092437798E+03  0.19900000000E+03 0.  0.
<mgrwt>
<rscale>  0 0.10652056E+04</rscale>
<asrwt>0</asrwt>
<pdfrwt beam="1">  1        2 0.25592757E+00 0.10652056E+04</pdfrwt>
<pdfrwt beam="2">  1       -2 0.22620061E-01 0.10652056E+04</pdfrwt>
<totfact> 0.17560652E+02</totfact>
</mgrwt>
</event>
<event>
 4    1  0.4915183E-005  0.6257235E+03  0.7818608E-02  0.9853430E-01
          2   -1    0    0  501    0  0.00000000000E+00  0.00000000000E+00  0.19275838686E+04  0.19275838686E+04  0.25500000000E-02 0.  1.
         -2   -1    0    0    0  501 -0.00000000000E+00 -0.00000000000E+00 -0.50779874104E+02  0.50779874168E+02  0.25500000000E-02 0. -1.
    5000001    1    1    2    0    0  0.20841095408E+03  0.90909105056E+02  0.11949085797E+04  0.12325206307E+04  0.19900000000E+03 0.  0.
   -5000001    1    1    2    0    0 -0.20841095408E+03 -0.90909105056E+02  0.68189541477E+03  0.74584311209E+03  0.19900000000E+03 0.  0.
<mgrwt>
<rscale>  0 0.62572347E+03</rscale>
<asrwt>0</asrwt>
<pdfrwt beam="1">  1        2 0.27536910E+00 0.62572347E+03</pdfrwt>
<pdfrwt beam="2">  1       -2 0.72542684E-02 0.62572347E+03</pdfrwt>
<totfact> 0.10304166E+03</totfact>
</mgrwt>
</event>
<event>
 4    1  0.4915183E-005  0.4379328E+03  0.7818608E-02  0.1031383E+00
         -2   -1    0    0    0  501 -0.00000000000E+00  0.00000000000E+00  0.17618520143E+03  0.17618520145E+03  0.25500000000E-02 0. -1.
          2   -1    0    0  501    0  0.00000000000E+00 -0.00000000000E+00 -0.27213574212E+03  0.27213574214E+03  0.25500000000E-02 0.  1.
    5000001    1    1    2    0    0 -0.61509077618E+02  0.13934371798E+02 -0.11563196395E+03  0.23864049202E+03  0.19900000000E+03 0.  0.
   -5000001    1    1    2    0    0  0.61509077618E+02 -0.13934371798E+02  0.19681423259E+02  0.20968045156E+03  0.19900000000E+03 0.  0.
<mgrwt>
<rscale>  0 0.43793283E+03</rscale>
<asrwt>0</asrwt>
<pdfrwt beam="1">  1        2 0.38876534E-01 0.43793283E+03</pdfrwt>
<pdfrwt beam="2">  1       -2 0.25169315E-01 0.43793283E+03</pdfrwt>
<totfact> 0.18667253E+03</totfact>
</mgrwt>
</event>
<event>
 4    1  0.4915183E-005  0.4491760E+03  0.7818608E-02  0.1027968E+00
          2   -1    0    0  501    0  0.00000000000E+00  0.00000000000E+00  0.22073442979E+04  0.22073442979E+04  0.25500000000E-02 0.  1.
         -2   -1    0    0    0  501 -0.00000000000E+00 -0.00000000000E+00 -0.22850885822E+02  0.22850885964E+02  0.25500000000E-02 0. -1.
    5000001    1    1    2    0    0 -0.18382485433E+02  0.82800298109E+02  0.13920063404E+04  0.14087144696E+04  0.19900000000E+03 0.  0.
   -5000001    1    1    2    0    0  0.18382485433E+02 -0.82800298109E+02  0.79248707166E+03  0.82148071425E+03  0.19900000000E+03 0.  0.
<mgrwt>
<rscale>  0 0.44917601E+03</rscale>
<asrwt>0</asrwt>
<pdfrwt beam="1">  1        2 0.31533499E+00 0.44917601E+03</pdfrwt>
<pdfrwt beam="2">  1       -2 0.32644114E-02 0.44917601E+03</pdfrwt>
<totfact> 0.25889652E+03</totfact>
</mgrwt>
</event>
<event>
 4    1  0.4915183E-005  0.7038191E+03  0.7818608E-02  0.9710723E-01
         -2   -1    0    0    0  501 -0.00000000000E+00  0.00000000000E+00  0.44373226166E+02  0.44373226240E+02  0.25500000000E-02 0. -1.
          2   -1    0    0  501    0  0.00000000000E+00 -0.00000000000E+00 -0.27908798668E+04  0.27908798668E+04  0.25500000000E-02 0.  1.
    5000001    1    1    2    0    0  0.19916353343E+03  0.17740981750E+03 -0.91220162571E+03  0.97100626277E+03  0.19900000000E+03 0.  0.
   -5000001    1    1    2    0    0 -0.19916353343E+03 -0.17740981750E+03 -0.18343050150E+04  0.18642468303E+04  0.19900000000E+03 0.  0.
<mgrwt>
<rscale>  0 0.70381913E+03</rscale>
<asrwt>0</asrwt>
<pdfrwt beam="1">  1        2 0.39869701E+00 0.70381913E+03</pdfrwt>
<pdfrwt beam="2">  1       -2 0.63390341E-02 0.70381913E+03</pdfrwt>
<totfact> 0.45818281E+02</totfact>
</mgrwt>
</event>
<event>
 4    1  0.4915183E-005  0.7124720E+03  0.7818608E-02  0.9696138E-01
         -2   -1    0    0    0  501 -0.00000000000E+00  0.00000000000E+00  0.40654832993E+03  0.40654832994E+03  0.25500000000E-02 0. -1.
          2   -1    0    0  501    0  0.00000000000E+00 -0.00000000000E+00 -0.31215008757E+03  0.31215008758E+03  0.25500000000E-02 0.  1.
    5000001    1    1    2    0    0  0.23865247629E+03 -0.84585695535E+02 -0.10642543305E+03  0.33917122096E+03  0.19900000000E+03 0.  0.
   -5000001    1    1    2    0    0 -0.23865247629E+03  0.84585695535E+02  0.20082367540E+03  0.37952719656E+03  0.19900000000E+03 0.  0.
<mgrwt>
<rscale>  0 0.71247203E+03</rscale>
<asrwt>0</asrwt>
<pdfrwt beam="1">  1        2 0.44592869E-01 0.71247203E+03</pdfrwt>
<pdfrwt beam="2">  1       -2 0.58078333E-01 0.71247203E+03</pdfrwt>
<totfact> 0.31925592E+02</totfact>
</mgrwt>
</event>
<event>
 4    1  0.4915183E-005  0.4948584E+03  0.7818608E-02  0.1015130E+00
          2   -1    0    0  501    0  0.00000000000E+00  0.00000000000E+00  0.22496189164E+04  0.22496189164E+04  0.25500000000E-02 0.  1.
         -2   -1    0    0    0  501 -0.00000000000E+00 -0.00000000000E+00 -0.27214034775E+02  0.27214034894E+02  0.25500000000E-02 0. -1.
    5000001    1    1    2    0    0  0.96386977414E+02 -0.10601083750E+03  0.12632061667E+04  0.12867865273E+04  0.19900000000E+03 0.  0.
   -5000001    1    1    2    0    0 -0.96386977414E+02  0.10601083750E+03  0.95919871488E+03  0.99004642402E+03  0.19900000000E+03 0.  0.
<mgrwt>
<rscale>  0 0.49485839E+03</rscale>
<asrwt>0</asrwt>
<pdfrwt beam="1">  1        2 0.32137411E+00 0.49485839E+03</pdfrwt>
<pdfrwt beam="2">  1       -2 0.38877195E-02 0.49485839E+03</pdfrwt>
<totfact> 0.18863503E+03</totfact>
</mgrwt>
</event>
<event>
 4    1  0.4915183E-005  0.5649372E+03  0.7818608E-02  0.9980945E-01
         -2   -1    0    0    0  501 -0.00000000000E+00  0.00000000000E+00  0.22975510541E+02  0.22975510682E+02  0.25500000000E-02 0. -1.
          2   -1    0    0  501    0  0.00000000000E+00 -0.00000000000E+00 -0.34727630174E+04  0.34727630174E+04  0.25500000000E-02 0.  1.
    5000001    1    1    2    0    0  0.54096093491E+01 -0.19799243018E+03 -0.19163407630E+04  0.19367997279E+04  0.19900000000E+03 0.  0.
   -5000001    1    1    2    0    0 -0.54096093491E+01  0.19799243018E+03 -0.15334467439E+04  0.15589388001E+04  0.19900000000E+03 0.  0.
<mgrwt>
<rscale>  0 0.56493718E+03</rscale>
<asrwt>0</asrwt>
<pdfrwt beam="1">  1        2 0.49610867E+00 0.56493718E+03</pdfrwt>
<pdfrwt beam="2">  1       -2 0.32822180E-02 0.56493718E+03</pdfrwt>
<totfact> 0.53624270E+02</totfact>
</mgrwt>
</event>
<event>
 4    1  0.4915183E-005  0.5315719E+03  0.7818608E-02  0.1005852E+00
          2   -1    0    0  501    0  0.00000000000E+00  0.00000000000E+00  0.67485526756E+02  0.67485526804E+02  0.25500000000E-02 0.  1.
         -2   -1    0    0    0  501 -0.00000000000E+00 -0.00000000000E+00 -0.10467749903E+04  0.10467749903E+04  0.25500000000E-02 0. -1.
    5000001    1    1    2    0    0 -0.15544280860E+03  0.82873069551E+02 -0.48277224940E+03  0.55109024415E+03  0.19900000000E+03 0.  0.
   -5000001    1    1    2    0    0  0.15544280860E+03 -0.82873069551E+02 -0.49651721413E+03  0.56317027295E+03  0.19900000000E+03 0.  0.
<mgrwt>
<rscale>  0 0.53157186E+03</rscale>
<asrwt>0</asrwt>
<pdfrwt beam="1">  1        2 0.96407902E-02 0.53157186E+03</pdfrwt>
<pdfrwt beam="2">  1       -2 0.14953927E+00 0.53157186E+03</pdfrwt>
<totfact> 0.21394153E+02</totfact>
</mgrwt>
</event>
<event>
 4    1  0.4915183E-005  0.8397175E+03  0.7818608E-02  0.9504243E-01
          2   -1    0    0  501    0  0.00000000000E+00  0.00000000000E+00  0.82420767387E+03  0.82420767388E+03  0.25500000000E-02 0. -1.
         -2   -1    0    0    0  501 -0.00000000000E+00 -0.00000000000E+00 -0.21387981931E+03  0.21387981933E+03  0.25500000000E-02 0.  1.
    5000001    1    1    2    0    0 -0.33614306868E+03  0.12487753342E+03  0.41638259832E+03  0.58443308356E+03  0.19900000000E+03 0.  0.
   -5000001    1    1    2    0    0  0.33614306868E+03 -0.12487753342E+03  0.19394525624E+03  0.45365440965E+03  0.19900000000E+03 0.  0.
<mgrwt>
<rscale>  0 0.83971754E+03</rscale>
<asrwt>0</asrwt>
<pdfrwt beam="1">  1        2 0.11774395E+00 0.83971754E+03</pdfrwt>
<pdfrwt beam="2">  1       -2 0.30554260E-01 0.83971754E+03</pdfrwt>
<totfact> 0.36289905E+02</totfact>
</mgrwt>
</event>
<event>
 4    1  0.4915183E-005  0.5775559E+03  0.7818608E-02  0.9953096E-01
         -2   -1    0    0    0  501 -0.00000000000E+00  0.00000000000E+00  0.14204857346E+03  0.14204857349E+03  0.25500000000E-02 0. -1.
          2   -1    0    0  501    0  0.00000000000E+00 -0.00000000000E+00 -0.58707183553E+03  0.58707183554E+03  0.25500000000E-02 0.  1.
    5000001    1    1    2    0    0 -0.14455559292E+03 -0.22360864759E+02 -0.41143448762E+03  0.47987046723E+03  0.19900000000E+03 0.  0.
   -5000001    1    1    2    0    0  0.14455559292E+03  0.22360864759E+02 -0.33588774452E+02  0.24924994180E+03  0.19900000000E+03 0.  0.
<mgrwt>
<rscale>  0 0.57755594E+03</rscale>
<asrwt>0</asrwt>
<pdfrwt beam="1">  1        2 0.83867404E-01 0.57755594E+03</pdfrwt>
<pdfrwt beam="2">  1       -2 0.20292654E-01 0.57755594E+03</pdfrwt>
<totfact> 0.11593978E+03</totfact>
</mgrwt>
</event>
<event>
 4    1  0.4915183E-005  0.5699403E+03  0.7818608E-02  0.9969811E-01
          2   -1    0    0  501    0  0.00000000000E+00  0.00000000000E+00  0.69206650691E+03  0.69206650692E+03  0.25500000000E-02 0.  1.
         -2   -1    0    0    0  501 -0.00000000000E+00 -0.00000000000E+00 -0.11734128561E+03  0.11734128563E+03  0.25500000000E-02 0. -1.
    5000001    1    1    2    0    0 -0.83690941684E+02 -0.18575396423E+03  0.27328474409E+03  0.39470781637E+03  0.19900000000E+03 0.  0.
   -5000001    1    1    2    0    0  0.83690941684E+02  0.18575396423E+03  0.30144047721E+03  0.41469997618E+03  0.19900000000E+03 0.  0.
<mgrwt>
<rscale>  0 0.56994026E+03</rscale>
<asrwt>0</asrwt>
<pdfrwt beam="1">  1        2 0.98866647E-01 0.56994026E+03</pdfrwt>
<pdfrwt beam="2">  1       -2 0.16763040E-01 0.56994026E+03</pdfrwt>
<totfact> 0.13243312E+03</totfact>
</mgrwt>
</event>
<event>
 4    1  0.4915183E-005  0.4740880E+03  0.7818608E-02  0.1020773E+00
          2   -1    0    0  501    0  0.00000000000E+00  0.00000000000E+00  0.20957598392E+03  0.20957598394E+03  0.25500000000E-02 0.  1.
         -2   -1    0    0    0  501 -0.00000000000E+00 -0.00000000000E+00 -0.26811205266E+03  0.26811205268E+03  0.25500000000E-02 0. -1.
    5000001    1    1    2    0    0  0.11360606770E+03  0.35691997990E+02 -0.78718100235E+02  0.24490364767E+03  0.19900000000E+03 0.  0.
   -5000001    1    1    2    0    0 -0.11360606770E+03 -0.35691997990E+02  0.20182031491E+02  0.23278438894E+03  0.19900000000E+03 0.  0.
<mgrwt>
<rscale>  0 0.47408795E+03</rscale>
<asrwt>0</asrwt>
<pdfrwt beam="1">  1        2 0.29939427E-01 0.47408795E+03</pdfrwt>
<pdfrwt beam="2">  1       -2 0.38301722E-01 0.47408795E+03</pdfrwt>
<totfact> 0.11475157E+03</totfact>
</mgrwt>
</event>
<event>
 4    1  0.4915183E-005  0.9127872E+03  0.7818608E-02  0.9409737E-01
         -2   -1    0    0    0  501 -0.00000000000E+00  0.00000000000E+00  0.13557123235E+03  0.13557123238E+03  0.25500000000E-02 0. -1.
          2   -1    0    0  501    0  0.00000000000E+00 -0.00000000000E+00 -0.15364254893E+04  0.15364254893E+04  0.25500000000E-02 0.  1.
    5000001    1    1    2    0    0  0.24306284126E+02  0.36717630871E+03 -0.36624034608E+03  0.55600560089E+03  0.19900000000E+03 0.  0.
   -5000001    1    1    2    0    0 -0.24306284126E+02 -0.36717630871E+03 -0.10346139109E+04  0.11159911208E+04  0.19900000000E+03 0.  0.
<mgrwt>
<rscale>  0 0.91278715E+03</rscale>
<asrwt>0</asrwt>
<pdfrwt beam="1">  1        2 0.21948935E+00 0.91278715E+03</pdfrwt>
<pdfrwt beam="2">  1       -2 0.19367320E-01 0.91278715E+03</pdfrwt>
<totfact> 0.31625703E+02</totfact>
</mgrwt>
</event>
<event>
 4    1  0.4915183E-005  0.6793014E+03  0.7818608E-02  0.9753299E-01
         -2   -1    0    0    0  501 -0.00000000000E+00  0.00000000000E+00  0.18911414043E+03  0.18911414045E+03  0.25500000000E-02 0. -1.
          2   -1    0    0  501    0  0.00000000000E+00 -0.00000000000E+00 -0.61001569785E+03  0.61001569785E+03  0.25500000000E-02 0.  1.
    5000001    1    1    2    0    0 -0.43285192529E+01  0.25256836772E+03 -0.33906131575E+03  0.46730406834E+03  0.19900000000E+03 0.  0.
   -5000001    1    1    2    0    0  0.43285192529E+01 -0.25256836772E+03 -0.81840241665E+02  0.33182576995E+03  0.19900000000E+03 0.  0.
<mgrwt>
<rscale>  0 0.67930139E+03</rscale>
<asrwt>0</asrwt>
<pdfrwt beam="1">  1        2 0.87145099E-01 0.67930139E+03</pdfrwt>
<pdfrwt beam="2">  1       -2 0.27016306E-01 0.67930139E+03</pdfrwt>
<totfact> 0.66456257E+02</totfact>
</mgrwt>
</event>
<event>
 4    1  0.4915183E-005  0.4399812E+03  0.7818608E-02  0.1030753E+00
         -2   -1    0    0    0  501 -0.00000000000E+00  0.00000000000E+00  0.31422671314E+02  0.31422671417E+02  0.25500000000E-02 0. -1.
          2   -1    0    0  501    0  0.00000000000E+00 -0.00000000000E+00 -0.15401577227E+04  0.15401577227E+04  0.25500000000E-02 0.  1.
    5000001    1    1    2    0    0 -0.27915076911E+02  0.82725216243E+02 -0.63207628286E+03  0.66838921316E+03  0.19900000000E+03 0.  0.
   -5000001    1    1    2    0    0  0.27915076911E+02 -0.82725216243E+02 -0.87665876857E+03  0.90319118099E+03  0.19900000000E+03 0.  0.
<mgrwt>
<rscale>  0 0.43998123E+03</rscale>
<asrwt>0</asrwt>
<pdfrwt beam="1">  1        2 0.22002248E+00 0.43998123E+03</pdfrwt>
<pdfrwt beam="2">  1       -2 0.44889540E-02 0.43998123E+03</pdfrwt>
<totfact> 0.34388146E+03</totfact>
</mgrwt>
</event>
<event>
 4    1  0.4915183E-005  0.6430170E+03  0.7818608E-02  0.9819971E-01
         -2   -1    0    0    0  501 -0.00000000000E+00  0.00000000000E+00  0.48268482192E+03  0.48268482193E+03  0.25500000000E-02 0. -1.
          2   -1    0    0  501    0  0.00000000000E+00 -0.00000000000E+00 -0.21415158319E+03  0.21415158320E+03  0.25500000000E-02 0.  1.
    5000001    1    1    2    0    0  0.19400234510E+03  0.33370766428E+02 -0.37136628701E+02  0.28236615794E+03  0.19900000000E+03 0.  0.
   -5000001    1    1    2    0    0 -0.19400234510E+03 -0.33370766428E+02  0.30566986743E+03  0.41447024720E+03  0.19900000000E+03 0.  0.
<mgrwt>
<rscale>  0 0.64301701E+03</rscale>
<asrwt>0</asrwt>
<pdfrwt beam="1">  1        2 0.30593083E-01 0.64301701E+03</pdfrwt>
<pdfrwt beam="2">  1       -2 0.68954976E-01 0.64301701E+03</pdfrwt>
<totfact> 0.33757712E+02</totfact>
</mgrwt>
</event>
<event>
 4    1  0.4915183E-005  0.6369689E+03  0.7818608E-02  0.9831543E-01
          2   -1    0    0  501    0  0.00000000000E+00  0.00000000000E+00  0.33683887489E+03  0.33683887490E+03  0.25500000000E-02 0.  1.
         -2   -1    0    0    0  501 -0.00000000000E+00 -0.00000000000E+00 -0.30113014352E+03  0.30113014353E+03  0.25500000000E-02 0. -1.
    5000001    1    1    2    0    0  0.43535141719E+02 -0.14008816342E+03 -0.18323771734E+03  0.30772887929E+03  0.19900000000E+03 0.  0.
   -5000001    1    1    2    0    0 -0.43535141719E+02  0.14008816342E+03  0.21894644872E+03  0.33024013914E+03  0.19900000000E+03 0.  0.
<mgrwt>
<rscale>  0 0.63696888E+03</rscale>
<asrwt>0</asrwt>
<pdfrwt beam="1">  1        2 0.48119839E-01 0.63696888E+03</pdfrwt>
<pdfrwt beam="2">  1       -2 0.43018592E-01 0.63696888E+03</pdfrwt>
<totfact> 0.54079129E+02</totfact>
</mgrwt>
</event>
<event>
 4    1  0.4915183E-005  0.4844013E+03  0.7818608E-02  0.1017933E+00
         -2   -1    0    0    0  501 -0.00000000000E+00  0.00000000000E+00  0.87148887315E+02  0.87148887352E+02  0.25500000000E-02 0. -1.
          2   -1    0    0  501    0  0.00000000000E+00 -0.00000000000E+00 -0.67311414610E+03  0.67311414610E+03  0.25500000000E-02 0.  1.
    5000001    1    1    2    0    0  0.93353108425E+02  0.22703241253E+01 -0.13338630296E+03  0.25712421714E+03  0.19900000000E+03 0.  0.
   -5000001    1    1    2    0    0 -0.93353108425E+02 -0.22703241253E+01 -0.45257895583E+03  0.50313881631E+03  0.19900000000E+03 0.  0.
<mgrwt>
<rscale>  0 0.48440128E+03</rscale>
<asrwt>0</asrwt>
<pdfrwt beam="1">  1        2 0.96159161E-01 0.48440128E+03</pdfrwt>
<pdfrwt beam="2">  1       -2 0.12449841E-01 0.48440128E+03</pdfrwt>
<totfact> 0.22523718E+03</totfact>
</mgrwt>
</event>
<event>
 4    1  0.4915183E-005  0.3319136E+04  0.7818608E-02  0.8158043E-01
         -2   -1    0    0    0  501 -0.00000000000E+00  0.00000000000E+00  0.14598215612E+04  0.14598215612E+04  0.25500000000E-02 0. -1.
          2   -1    0    0  501    0  0.00000000000E+00 -0.00000000000E+00 -0.18866451946E+04  0.18866451946E+04  0.25500000000E-02 0.  1.
    5000001    1    1    2    0    0  0.56803692027E+03  0.13637736051E+04  0.52199131053E+03  0.15794367088E+04  0.19900000000E+03 0.  0.
   -5000001    1    1    2    0    0 -0.56803692027E+03 -0.13637736051E+04 -0.94881494395E+03  0.17670300469E+04  0.19900000000E+03 0.  0.
<mgrwt>
<rscale>  0 0.33191356E+04</rscale>
<asrwt>0</asrwt>
<pdfrwt beam="1">  1        2 0.26952074E+00 0.33191356E+04</pdfrwt>
<pdfrwt beam="2">  1       -2 0.20854594E+00 0.33191356E+04</pdfrwt>
<totfact> 0.90386540E-01</totfact>
</mgrwt>
</event>
<event>
 4    1  0.4915183E-005  0.7214416E+03  0.7818608E-02  0.9681251E-01
          2   -1    0    0  501    0  0.00000000000E+00  0.00000000000E+00  0.60773396115E+03  0.60773396115E+03  0.25500000000E-02 0.  1.
         -2   -1    0    0    0  501 -0.00000000000E+00 -0.00000000000E+00 -0.21410599530E+03  0.21410599532E+03  0.25500000000E-02 0. -1.
    5000001    1    1    2    0    0 -0.23590389286E+03 -0.22865278081E+02  0.40792843148E+03  0.51203522615E+03  0.19900000000E+03 0.  0.
   -5000001    1    1    2    0    0  0.23590389286E+03  0.22865278081E+02 -0.14300465631E+02  0.30980473032E+03  0.19900000000E+03 0.  0.
<mgrwt>
<rscale>  0 0.72144157E+03</rscale>
<asrwt>0</asrwt>
<pdfrwt beam="1">  1        2 0.86819138E-01 0.72144157E+03</pdfrwt>
<pdfrwt beam="2">  1       -2 0.30586570E-01 0.72144157E+03</pdfrwt>
<totfact> 0.53066422E+02</totfact>
</mgrwt>
</event>
<event>
 4    1  0.4915183E-005  0.7141345E+03  0.7818608E-02  0.9693361E-01
         -2   -1    0    0    0  501 -0.00000000000E+00  0.00000000000E+00  0.38423626108E+03  0.38423626108E+03  0.25500000000E-02 0.  1.
          2   -1    0    0  501    0  0.00000000000E+00 -0.00000000000E+00 -0.33181936502E+03  0.33181936503E+03  0.25500000000E-02 0. -1.
    5000001    1    1    2    0    0 -0.18028581498E+03  0.22884947332E+03  0.81319708051E+02  0.36206208230E+03  0.19900000000E+03 0.  0.
   -5000001    1    1    2    0    0  0.18028581498E+03 -0.22884947332E+03 -0.28902811993E+02  0.35399354381E+03  0.19900000000E+03 0.  0.
<mgrwt>
<rscale>  0 0.71413453E+03</rscale>
<asrwt>0</asrwt>
<pdfrwt beam="1">  1        2 0.47402767E-01 0.71413453E+03</pdfrwt>
<pdfrwt beam="2">  1       -2 0.54890894E-01 0.71413453E+03</pdfrwt>
<totfact> 0.33554267E+02</totfact>
</mgrwt>
</event>
<event>
 4    1  0.4915183E-005  0.7809574E+03  0.7818608E-02  0.9587997E-01
          2   -1    0    0  501    0  0.00000000000E+00  0.00000000000E+00  0.50646679721E+03  0.50646679721E+03  0.25500000000E-02 0.  1.
         -2   -1    0    0    0  501 -0.00000000000E+00 -0.00000000000E+00 -0.30105353495E+03  0.30105353496E+03  0.25500000000E-02 0. -1.
    5000001    1    1    2    0    0  0.12901383142E+03 -0.25387775150E+03 -0.81609355579E+02  0.35687472357E+03  0.19900000000E+03 0.  0.
   -5000001    1    1    2    0    0 -0.12901383142E+03  0.25387775150E+03  0.28702261784E+03  0.45064560861E+03  0.19900000000E+03 0.  0.
<mgrwt>
<rscale>  0 0.78095741E+03</rscale>
<asrwt>0</asrwt>
<pdfrwt beam="1">  1        2 0.72352400E-01 0.78095741E+03</pdfrwt>
<pdfrwt beam="2">  1       -2 0.43007648E-01 0.78095741E+03</pdfrwt>
<totfact> 0.34108251E+02</totfact>
</mgrwt>
</event>
<event>
 4    1  0.4915183E-005  0.1216940E+04  0.7818608E-02  0.9098157E-01
          2   -1    0    0  501    0  0.00000000000E+00  0.00000000000E+00  0.33976699882E+04  0.33976699882E+04  0.25500000000E-02 0.  1.
         -2   -1    0    0    0  501 -0.00000000000E+00 -0.00000000000E+00 -0.10896747496E+03  0.10896747499E+03  0.25500000000E-02 0. -1.
    5000001    1    1    2    0    0  0.24461331527E+03 -0.47809021374E+03  0.22364922628E+04  0.23086586079E+04  0.19900000000E+03 0.  0.
   -5000001    1    1    2    0    0 -0.24461331527E+03  0.47809021374E+03  0.10522102505E+04  0.11979788553E+04  0.19900000000E+03 0.  0.
<mgrwt>
<rscale>  0 0.12169396E+04</rscale>
<asrwt>0</asrwt>
<pdfrwt beam="1">  1        2 0.48538143E+00 0.12169396E+04</pdfrwt>
<pdfrwt beam="2">  1       -2 0.15566782E-01 0.12169396E+04</pdfrwt>
<totfact> 0.45912105E+01</totfact>
</mgrwt>
</event>
<event>
 4    1  0.4915183E-005  0.6367431E+03  0.7818608E-02  0.9831978E-01
         -2   -1    0    0    0  501 -0.00000000000E+00  0.00000000000E+00  0.50319551604E+02  0.50319551669E+02  0.25500000000E-02 0. -1.
          2   -1    0    0  501    0  0.00000000000E+00 -0.00000000000E+00 -0.20143354102E+04  0.20143354102E+04  0.25500000000E-02 0.  1.
    5000001    1    1    2    0    0 -0.19451959841E+03 -0.14794938790E+03 -0.11281936016E+04  0.11713875098E+04  0.19900000000E+03 0.  0.
   -5000001    1    1    2    0    0  0.19451959841E+03  0.14794938790E+03 -0.83582225700E+03  0.89326745202E+03  0.19900000000E+03 0.  0.
<mgrwt>
<rscale>  0 0.63674313E+03</rscale>
<asrwt>0</asrwt>
<pdfrwt beam="1">  1        2 0.28776215E+00 0.63674313E+03</pdfrwt>
<pdfrwt beam="2">  1       -2 0.71885086E-02 0.63674313E+03</pdfrwt>
<totfact> 0.94485648E+02</totfact>
</mgrwt>
</event>
<event>
 4    1  0.4915183E-005  0.1077232E+04  0.7818608E-02  0.9227671E-01
          2   -1    0    0  501    0  0.00000000000E+00  0.00000000000E+00  0.37250552631E+04  0.37250552631E+04  0.25500000000E-02 0.  1.
         -2   -1    0    0    0  501 -0.00000000000E+00 -0.00000000000E+00 -0.77880025512E+02  0.77880025554E+02  0.25500000000E-02 0. -1.
    5000001    1    1    2    0    0  0.44331371433E+02  0.46930919501E+03  0.12298069259E+04  0.13320069316E+04  0.19900000000E+03 0.  0.
   -5000001    1    1    2    0    0 -0.44331371433E+02 -0.46930919501E+03  0.24173683117E+04  0.24709283570E+04  0.19900000000E+03 0.  0.
<mgrwt>
<rscale>  0 0.10772324E+04</rscale>
<asrwt>0</asrwt>
<pdfrwt beam="1">  1        2 0.53215087E+00 0.10772324E+04</pdfrwt>
<pdfrwt beam="2">  1       -2 0.11125715E-01 0.10772324E+04</pdfrwt>
<totfact> 0.51596421E+01</totfact>
</mgrwt>
</event>
<event>
 4    1  0.4915183E-005  0.6107025E+03  0.7818608E-02  0.9883447E-01
         -2   -1    0    0    0  501 -0.00000000000E+00  0.00000000000E+00  0.44920177692E+02  0.44920177764E+02  0.25500000000E-02 0. -1.
          2   -1    0    0  501    0  0.00000000000E+00 -0.00000000000E+00 -0.20756684110E+04  0.20756684110E+04  0.25500000000E-02 0.  1.
    5000001    1    1    2    0    0  0.20553573972E+03  0.90970460084E+02 -0.12092629739E+04  0.12459689021E+04  0.19900000000E+03 0.  0.
   -5000001    1    1    2    0    0 -0.20553573972E+03 -0.90970460084E+02 -0.82148525940E+03  0.87461968667E+03  0.19900000000E+03 0.  0.
<mgrwt>
<rscale>  0 0.61070253E+03</rscale>
<asrwt>0</asrwt>
<pdfrwt beam="1">  1        2 0.29652400E+00 0.61070253E+03</pdfrwt>
<pdfrwt beam="2">  1       -2 0.64171695E-02 0.61070253E+03</pdfrwt>
<totfact> 0.10543906E+03</totfact>
</mgrwt>
</event>
<event>
 4    1  0.4915183E-005  0.5753269E+03  0.7818608E-02  0.9957960E-01
         -2   -1    0    0    0  501 -0.00000000000E+00  0.00000000000E+00  0.37211925879E+02  0.37211925966E+02  0.25500000000E-02 0. -1.
          2   -1    0    0  501    0  0.00000000000E+00 -0.00000000000E+00 -0.22237568369E+04  0.22237568369E+04  0.25500000000E-02 0.  1.
    5000001    1    1    2    0    0  0.16183071855E+03 -0.90737303853E+02 -0.72615230337E+03  0.77544864915E+03  0.19900000000E+03 0.  0.
   -5000001    1    1    2    0    0 -0.16183071855E+03  0.90737303853E+02 -0.14603926076E+04  0.14855201137E+04  0.19900000000E+03 0.  0.
<mgrwt>
<rscale>  0 0.57532695E+03</rscale>
<asrwt>0</asrwt>
<pdfrwt beam="1">  1        2 0.31767947E+00 0.57532695E+03</pdfrwt>
<pdfrwt beam="2">  1       -2 0.53159908E-02 0.57532695E+03</pdfrwt>
<totfact> 0.11947127E+03</totfact>
</mgrwt>
</event>
<event>
 4    1  0.4915183E-005  0.5934364E+03  0.7818608E-02  0.9919118E-01
         -2   -1    0    0    0  501 -0.00000000000E+00  0.00000000000E+00  0.60389854699E+02  0.60389854753E+02  0.25500000000E-02 0. -1.
          2   -1    0    0  501    0  0.00000000000E+00 -0.00000000000E+00 -0.14578887690E+04  0.14578887690E+04  0.25500000000E-02 0.  1.
    5000001    1    1    2    0    0  0.16578116975E+03  0.11497591805E+03 -0.92380357845E+03  0.96629028223E+03  0.19900000000E+03 0.  0.
   -5000001    1    1    2    0    0 -0.16578116975E+03 -0.11497591805E+03 -0.47369533586E+03  0.55198834153E+03  0.19900000000E+03 0.  0.
<mgrwt>
<rscale>  0 0.59343640E+03</rscale>
<asrwt>0</asrwt>
<pdfrwt beam="1">  1        2 0.20826980E+00 0.59343640E+03</pdfrwt>
<pdfrwt beam="2">  1       -2 0.86271230E-02 0.59343640E+03</pdfrwt>
<totfact> 0.13603184E+03</totfact>
</mgrwt>
</event>
<event>
 4    1  0.4915183E-005  0.6348355E+03  0.7818608E-02  0.9835658E-01
         -2   -1    0    0    0  501 -0.00000000000E+00  0.00000000000E+00  0.10495585784E+03  0.10495585787E+03  0.25500000000E-02 0. -1.
          2   -1    0    0  501    0  0.00000000000E+00 -0.00000000000E+00 -0.95996582357E+03  0.95996582357E+03  0.25500000000E-02 0.  1.
    5000001    1    1    2    0    0 -0.16023371635E+03  0.94511493904E+02 -0.15419587060E+03  0.31302497160E+03  0.19900000000E+03 0.  0.
   -5000001    1    1    2    0    0  0.16023371635E+03 -0.94511493904E+02 -0.70081409513E+03  0.75189670984E+03  0.19900000000E+03 0.  0.
<mgrwt>
<rscale>  0 0.63483553E+03</rscale>
<asrwt>0</asrwt>
<pdfrwt beam="1">  1        2 0.13713797E+00 0.63483553E+03</pdfrwt>
<pdfrwt beam="2">  1       -2 0.14993695E-01 0.63483553E+03</pdfrwt>
<totfact> 0.10475643E+03</totfact>
</mgrwt>
</event>
<event>
 4    1  0.4915183E-005  0.4319333E+03  0.7818608E-02  0.1033251E+00
          2   -1    0    0  501    0  0.00000000000E+00  0.00000000000E+00  0.20481458946E+04  0.20481458946E+04  0.25500000000E-02 0.  1.
         -2   -1    0    0    0  501 -0.00000000000E+00 -0.00000000000E+00 -0.22772596179E+02  0.22772596321E+02  0.25500000000E-02 0. -1.
    5000001    1    1    2    0    0 -0.22886563631E+02 -0.18006814971E+02  0.63539136163E+03  0.66646171879E+03  0.19900000000E+03 0.  0.
   -5000001    1    1    2    0    0  0.22886563631E+02  0.18006814971E+02  0.13899819368E+04  0.14044567721E+04  0.19900000000E+03 0.  0.
<mgrwt>
<rscale>  0 0.43193333E+03</rscale>
<asrwt>0</asrwt>
<pdfrwt beam="1">  1        2 0.29259224E+00 0.43193333E+03</pdfrwt>
<pdfrwt beam="2">  1       -2 0.32532284E-02 0.43193333E+03</pdfrwt>
<totfact> 0.31248075E+03</totfact>
</mgrwt>
</event>
<event>
 4    1  0.4915183E-005  0.7163229E+03  0.7818608E-02  0.9689718E-01
          2   -1    0    0  501    0  0.00000000000E+00  0.00000000000E+00  0.12075750212E+04  0.12075750212E+04  0.25500000000E-02 0.  1.
         -2   -1    0    0    0  501 -0.00000000000E+00 -0.00000000000E+00 -0.10622912135E+03  0.10622912139E+03  0.25500000000E-02 0. -1.
    5000001    1    1    2    0    0  0.24036675124E+03 -0.12637322602E+03  0.77479502607E+03  0.84478085902E+03  0.19900000000E+03 0.  0.
   -5000001    1    1    2    0    0 -0.24036675124E+03  0.12637322602E+03  0.32655087377E+03  0.46902328356E+03  0.19900000000E+03 0.  0.
<mgrwt>
<rscale>  0 0.71632293E+03</rscale>
<asrwt>0</asrwt>
<pdfrwt beam="1">  1        2 0.17251071E+00 0.71632293E+03</pdfrwt>
<pdfrwt beam="2">  1       -2 0.15175589E-01 0.71632293E+03</pdfrwt>
<totfact> 0.73139460E+02</totfact>
</mgrwt>
</event>
<event>
 4    1  0.4915183E-005  0.6671387E+03  0.7818608E-02  0.9775141E-01
          2   -1    0    0  501    0  0.00000000000E+00  0.00000000000E+00  0.25899389031E+04  0.25899389031E+04  0.25500000000E-02 0.  1.
         -2   -1    0    0    0  501 -0.00000000000E+00 -0.00000000000E+00 -0.42961827921E+02  0.42961827996E+02  0.25500000000E-02 0. -1.
    5000001    1    1    2    0    0  0.66340300418E+02  0.24840778144E+03  0.97921064728E+03  0.10317761158E+04  0.19900000000E+03 0.  0.
   -5000001    1    1    2    0    0 -0.66340300418E+02 -0.24840778144E+03  0.15677664279E+04  0.16011246153E+04  0.19900000000E+03 0.  0.
<mgrwt>
<rscale>  0 0.66713869E+03</rscale>
<asrwt>0</asrwt>
<pdfrwt beam="1">  1        2 0.36999139E+00 0.66713869E+03</pdfrwt>
<pdfrwt beam="2">  1       -2 0.61374021E-02 0.66713869E+03</pdfrwt>
<totfact> 0.61658433E+02</totfact>
</mgrwt>
</event>
<event>
 4    1  0.4915183E-005  0.1337161E+04  0.7818608E-02  0.9000604E-01
          2   -1    0    0  501    0  0.00000000000E+00  0.00000000000E+00  0.18522858788E+04  0.18522858788E+04  0.25500000000E-02 0. -1.
         -2   -1    0    0    0  501 -0.00000000000E+00 -0.00000000000E+00 -0.24132349304E+03  0.24132349305E+03  0.25500000000E-02 0.  1.
    5000001    1    1    2    0    0  0.37434593748E+03  0.26935150923E+03  0.11458878892E+03  0.51518608966E+03  0.19900000000E+03 0.  0.
   -5000001    1    1    2    0    0 -0.37434593748E+03 -0.26935150923E+03  0.14963735968E+04  0.15784232821E+04  0.19900000000E+03 0.  0.
<mgrwt>
<rscale>  0 0.13371613E+04</rscale>
<asrwt>0</asrwt>
<pdfrwt beam="1">  1        2 0.26461228E+00 0.13371613E+04</pdfrwt>
<pdfrwt beam="2">  1       -2 0.34474783E-01 0.13371613E+04</pdfrwt>
<totfact> 0.73752129E+01</totfact>
</mgrwt>
</event>
<event>
 4    1  0.4915183E-005  0.1077070E+04  0.7818608E-02  0.9227834E-01
          2   -1    0    0  501    0  0.00000000000E+00  0.00000000000E+00  0.16312327638E+04  0.16312327638E+04  0.25500000000E-02 0.  1.
         -2   -1    0    0    0  501 -0.00000000000E+00 -0.00000000000E+00 -0.17779191320E+03  0.17779191322E+03  0.25500000000E-02 0. -1.
    5000001    1    1    2    0    0 -0.33933468751E+03 -0.22124527435E+03  0.12201895625E+04  0.13009846540E+04  0.19900000000E+03 0.  0.
   -5000001    1    1    2    0    0  0.33933468751E+03  0.22124527435E+03  0.23325128809E+03  0.50804002299E+03  0.19900000000E+03 0.  0.
<mgrwt>
<rscale>  0 0.10770701E+04</rscale>
<asrwt>0</asrwt>
<pdfrwt beam="1">  1        2 0.23303325E+00 0.10770701E+04</pdfrwt>
<pdfrwt beam="2">  1       -2 0.25398845E-01 0.10770701E+04</pdfrwt>
<totfact> 0.17241412E+02</totfact>
</mgrwt>
</event>
<event>
 4    1  0.4915183E-005  0.8800383E+03  0.7818608E-02  0.9450884E-01
          2   -1    0    0  501    0  0.00000000000E+00  0.00000000000E+00  0.19470980493E+04  0.19470980493E+04  0.25500000000E-02 0.  1.
         -2   -1    0    0    0  501 -0.00000000000E+00 -0.00000000000E+00 -0.99438684429E+02  0.99438684462E+02  0.25500000000E-02 0. -1.
    5000001    1    1    2    0    0  0.94406469760E+02 -0.35260037760E+03  0.58863150714E+03  0.72064391971E+03  0.19900000000E+03 0.  0.
   -5000001    1    1    2    0    0 -0.94406469760E+02  0.35260037760E+03  0.12590278578E+04  0.13258928141E+04  0.19900000000E+03 0.  0.
<mgrwt>
<rscale>  0 0.88003834E+03</rscale>
<asrwt>0</asrwt>
<pdfrwt beam="1">  1        2 0.27815684E+00 0.88003834E+03</pdfrwt>
<pdfrwt beam="2">  1       -2 0.14205527E-01 0.88003834E+03</pdfrwt>
<totfact> 0.33135389E+02</totfact>
</mgrwt>
</event>
<event>
 4    1  0.4915183E-005  0.9269260E+03  0.7818608E-02  0.9392535E-01
          2   -1    0    0  501    0  0.00000000000E+00  0.00000000000E+00  0.17251615597E+04  0.17251615597E+04  0.25500000000E-02 0.  1.
         -2   -1    0    0    0  501 -0.00000000000E+00 -0.00000000000E+00 -0.12450888592E+03  0.12450888595E+03  0.25500000000E-02 0. -1.
    5000001    1    1    2    0    0  0.37709893888E+03  0.13700617516E+03  0.56234689433E+03  0.71889452029E+03  0.19900000000E+03 0.  0.
   -5000001    1    1    2    0    0 -0.37709893888E+03 -0.13700617516E+03  0.10383057795E+04  0.11307759254E+04  0.19900000000E+03 0.  0.
<mgrwt>
<rscale>  0 0.92692598E+03</rscale>
<asrwt>0</asrwt>
<pdfrwt beam="1">  1        2 0.24645166E+00 0.92692598E+03</pdfrwt>
<pdfrwt beam="2">  1       -2 0.17786983E-01 0.92692598E+03</pdfrwt>
<totfact> 0.29231172E+02</totfact>
</mgrwt>
</event>
<event>
 4    1  0.4915183E-005  0.9030314E+03  0.7818608E-02  0.9421800E-01
          2   -1    0    0  501    0  0.00000000000E+00  0.00000000000E+00  0.20861254407E+04  0.20861254407E+04  0.25500000000E-02 0.  1.
         -2   -1    0    0    0  501 -0.00000000000E+00 -0.00000000000E+00 -0.97724906690E+02  0.97724906723E+02  0.25500000000E-02 0. -1.
    5000001    1    1    2    0    0 -0.39430301658E+03 -0.67632204501E+02  0.83716670225E+03  0.94894576838E+03  0.19900000000E+03 0.  0.
   -5000001    1    1    2    0    0  0.39430301658E+03  0.67632204501E+02  0.11512338318E+04  0.12349045791E+04  0.19900000000E+03 0.  0.
<mgrwt>
<rscale>  0 0.90303137E+03</rscale>
<asrwt>0</asrwt>
<pdfrwt beam="1">  1        2 0.29801793E+00 0.90303137E+03</pdfrwt>
<pdfrwt beam="2">  1       -2 0.13960700E-01 0.90303137E+03</pdfrwt>
<totfact> 0.28948692E+02</totfact>
</mgrwt>
</event>
<event>
 4    1  0.4915183E-005  0.4890637E+03  0.7818608E-02  0.1016674E+00
         -2   -1    0    0    0  501 -0.00000000000E+00  0.00000000000E+00  0.21472783303E+03  0.21472783304E+03  0.25500000000E-02 0. -1.
          2   -1    0    0  501    0  0.00000000000E+00 -0.00000000000E+00 -0.27847260349E+03  0.27847260350E+03  0.25500000000E-02 0.  1.
    5000001    1    1    2    0    0 -0.39995574547E+02  0.82588274098E+02 -0.14129989439E+03  0.26074341633E+03  0.19900000000E+03 0.  0.
   -5000001    1    1    2    0    0  0.39995574547E+02 -0.82588274098E+02  0.77555123929E+02  0.23245702022E+03  0.19900000000E+03 0.  0.
<mgrwt>
<rscale>  0 0.48906367E+03</rscale>
<asrwt>0</asrwt>
<pdfrwt beam="1">  1        2 0.39781800E-01 0.48906367E+03</pdfrwt>
<pdfrwt beam="2">  1       -2 0.30675405E-01 0.48906367E+03</pdfrwt>
<totfact> 0.12720142E+03</totfact>
</mgrwt>
</event>
<event>
 4    1  0.4915183E-005  0.1006051E+04  0.7818608E-02  0.9301933E-01
         -2   -1    0    0    0  501 -0.00000000000E+00  0.00000000000E+00  0.11935822673E+03  0.11935822676E+03  0.25500000000E-02 0. -1.
          2   -1    0    0  501    0  0.00000000000E+00 -0.00000000000E+00 -0.21199587645E+04  0.21199587645E+04  0.25500000000E-02 0.  1.
    5000001    1    1    2    0    0 -0.44311819127E+03 -0.12997750390E+03 -0.96997345826E+03  0.10925645943E+04  0.19900000000E+03 0.  0.
   -5000001    1    1    2    0    0  0.44311819127E+03  0.12997750390E+03 -0.10306270795E+04  0.11467523970E+04  0.19900000000E+03 0.  0.
<mgrwt>
<rscale>  0 0.10060507E+04</rscale>
<asrwt>0</asrwt>
<pdfrwt beam="1">  1        2 0.30285123E+00 0.10060507E+04</pdfrwt>
<pdfrwt beam="2">  1       -2 0.17051177E-01 0.10060507E+04</pdfrwt>
<totfact> 0.19653024E+02</totfact>
</mgrwt>
</event>
<event>
 4    1  0.4915183E-005  0.4607494E+03  0.7818608E-02  0.1024564E+00
         -2   -1    0    0    0  501 -0.00000000000E+00  0.00000000000E+00  0.13163097649E+04  0.13163097649E+04  0.25500000000E-02 0. -1.
          2   -1    0    0  501    0  0.00000000000E+00 -0.00000000000E+00 -0.40319164486E+02  0.40319164566E+02  0.25500000000E-02 0.  1.
    5000001    1    1    2    0    0  0.65078551173E+02 -0.85920268303E+02  0.76477539987E+03  0.79755872673E+03  0.19900000000E+03 0.  0.
   -5000001    1    1    2    0    0 -0.65078551173E+02  0.85920268303E+02  0.51121520053E+03  0.55907020273E+03  0.19900000000E+03 0.  0.
<mgrwt>
<rscale>  0 0.46074943E+03</rscale>
<asrwt>0</asrwt>
<pdfrwt beam="1">  1        2 0.57598789E-02 0.46074943E+03</pdfrwt>
<pdfrwt beam="2">  1       -2 0.18804431E+00 0.46074943E+03</pdfrwt>
<totfact> 0.22393483E+02</totfact>
</mgrwt>
</event>
<event>
 4    1  0.4915183E-005  0.5551643E+03  0.7818608E-02  0.1000306E+00
          2   -1    0    0  501    0  0.00000000000E+00  0.00000000000E+00  0.39235761987E+04  0.39235761987E+04  0.25500000000E-02 0.  1.
         -2   -1    0    0    0  501 -0.00000000000E+00 -0.00000000000E+00 -0.19638169270E+02  0.19638169436E+02  0.25500000000E-02 0. -1.
    5000001    1    1    2    0    0  0.10965395035E+03  0.11159322860E+02  0.82214931560E+03  0.85304104031E+03  0.19900000000E+03 0.  0.
   -5000001    1    1    2    0    0 -0.10965395035E+03 -0.11159322860E+02  0.30817887138E+04  0.30901733278E+04  0.19900000000E+03 0.  0.
<mgrwt>
<rscale>  0 0.55516431E+03</rscale>
<asrwt>0</asrwt>
<pdfrwt beam="1">  1        2 0.56051119E+00 0.55516431E+03</pdfrwt>
<pdfrwt beam="2">  1       -2 0.28054513E-02 0.55516431E+03</pdfrwt>
<totfact> 0.35831275E+02</totfact>
</mgrwt>
</event>
<event>
 4    1  0.4915183E-005  0.1004152E+04  0.7818608E-02  0.9304003E-01
         -2   -1    0    0    0  501 -0.00000000000E+00  0.00000000000E+00  0.19460777644E+03  0.19460777645E+03  0.25500000000E-02 0. -1.
          2   -1    0    0  501    0  0.00000000000E+00 -0.00000000000E+00 -0.12953248021E+04  0.12953248021E+04  0.25500000000E-02 0.  1.
    5000001    1    1    2    0    0  0.93720640581E+02 -0.36367962287E+03 -0.94692515753E+03  0.10379377055E+04  0.19900000000E+03 0.  0.
   -5000001    1    1    2    0    0 -0.93720640581E+02  0.36367962287E+03 -0.15379186816E+03  0.45199487306E+03  0.19900000000E+03 0.  0.
<mgrwt>
<rscale>  0 0.10041519E+04</rscale>
<asrwt>0</asrwt>
<pdfrwt beam="1">  1        2 0.18504640E+00 0.10041519E+04</pdfrwt>
<pdfrwt beam="2">  1       -2 0.27801111E-01 0.10041519E+04</pdfrwt>
<totfact> 0.22203188E+02</totfact>
</mgrwt>
</event>
<event>
 4    1  0.4915183E-005  0.7073971E+03  0.7818608E-02  0.9704665E-01
          2   -1    0    0  501    0  0.00000000000E+00  0.00000000000E+00  0.61244249695E+03  0.61244249696E+03  0.25500000000E-02 0.  1.
         -2   -1    0    0    0  501 -0.00000000000E+00 -0.00000000000E+00 -0.20426839896E+03  0.20426839898E+03  0.25500000000E-02 0. -1.
    5000001    1    1    2    0    0  0.22775485354E+03  0.15594160292E+03  0.31549522387E+03  0.46403479731E+03  0.19900000000E+03 0.  0.
   -5000001    1    1    2    0    0 -0.22775485354E+03 -0.15594160292E+03  0.92678874125E+02  0.35267609863E+03  0.19900000000E+03 0.  0.
<mgrwt>
<rscale>  0 0.70739705E+03</rscale>
<asrwt>0</asrwt>
<pdfrwt beam="1">  1        2 0.87491784E-01 0.70739705E+03</pdfrwt>
<pdfrwt beam="2">  1       -2 0.29181200E-01 0.70739705E+03</pdfrwt>
<totfact> 0.57389337E+02</totfact>
</mgrwt>
</event>
<event>
 4    1  0.4915183E-005  0.5713416E+03  0.7818608E-02  0.9966714E-01
         -2   -1    0    0    0  501 -0.00000000000E+00  0.00000000000E+00  0.46264709609E+02  0.46264709679E+02  0.25500000000E-02 0. -1.
          2   -1    0    0  501    0  0.00000000000E+00 -0.00000000000E+00 -0.17639318799E+04  0.17639318799E+04  0.25500000000E-02 0.  1.
    5000001    1    1    2    0    0 -0.11645254023E+03  0.12671676151E+03 -0.12114793412E+04  0.12397183252E+04  0.19900000000E+03 0.  0.
   -5000001    1    1    2    0    0  0.11645254023E+03 -0.12671676151E+03 -0.50618782914E+03  0.57047826439E+03  0.19900000000E+03 0.  0.
<mgrwt>
<rscale>  0 0.57134157E+03</rscale>
<asrwt>0</asrwt>
<pdfrwt beam="1">  1        2 0.25199023E+00 0.57134157E+03</pdfrwt>
<pdfrwt beam="2">  1       -2 0.66092453E-02 0.57134157E+03</pdfrwt>
<totfact> 0.14470995E+03</totfact>
</mgrwt>
</event>
<event>
 4    1  0.4915183E-005  0.5145656E+03  0.7818608E-02  0.1010045E+00
         -2   -1    0    0    0  501 -0.00000000000E+00  0.00000000000E+00  0.23849182553E+02  0.23849182690E+02  0.25500000000E-02 0. -1.
          2   -1    0    0  501    0  0.00000000000E+00 -0.00000000000E+00 -0.27755435749E+04  0.27755435749E+04  0.25500000000E-02 0.  1.
    5000001    1    1    2    0    0 -0.82519254653E+02  0.13901291441E+03 -0.12592382916E+04  0.12850743530E+04  0.19900000000E+03 0.  0.
   -5000001    1    1    2    0    0  0.82519254653E+02 -0.13901291441E+03 -0.14924561007E+04  0.15143184045E+04  0.19900000000E+03 0.  0.
<mgrwt>
<rscale>  0 0.51456562E+03</rscale>
<asrwt>0</asrwt>
<pdfrwt beam="1">  1        2 0.39650602E+00 0.51456562E+03</pdfrwt>
<pdfrwt beam="2">  1       -2 0.34070279E-02 0.51456562E+03</pdfrwt>
<totfact> 0.12397953E+03</totfact>
</mgrwt>
</event>
<event>
 4    1  0.4915183E-005  0.7217104E+03  0.7818608E-02  0.9680808E-01
         -2   -1    0    0    0  501 -0.00000000000E+00  0.00000000000E+00  0.88381690207E+02  0.88381690244E+02  0.25500000000E-02 0. -1.
          2   -1    0    0  501    0  0.00000000000E+00 -0.00000000000E+00 -0.14733423853E+04  0.14733423853E+04  0.25500000000E-02 0.  1.
    5000001    1    1    2    0    0 -0.27713191919E+03  0.48499802765E+02 -0.46081793130E+03  0.57542027885E+03  0.19900000000E+03 0.  0.
   -5000001    1    1    2    0    0  0.27713191919E+03 -0.48499802765E+02 -0.92414276377E+03  0.98630379667E+03  0.19900000000E+03 0.  0.
<mgrwt>
<rscale>  0 0.72171044E+03</rscale>
<asrwt>0</asrwt>
<pdfrwt beam="1">  1        2 0.21047747E+00 0.72171044E+03</pdfrwt>
<pdfrwt beam="2">  1       -2 0.12625957E-01 0.72171044E+03</pdfrwt>
<totfact> 0.71393515E+02</totfact>
</mgrwt>
</event>
<event>
 4    1  0.4915183E-005  0.9115521E+03  0.7818608E-02  0.9411255E-01
         -2   -1    0    0    0  501 -0.00000000000E+00  0.00000000000E+00  0.35661643589E+03  0.35661643590E+03  0.25500000000E-02 0. -1.
          2   -1    0    0  501    0  0.00000000000E+00 -0.00000000000E+00 -0.58250761861E+03  0.58250761862E+03  0.25500000000E-02 0.  1.
    5000001    1    1    2    0    0  0.32363501157E+03 -0.25119968773E+03 -0.13048665243E+03  0.47378124730E+03  0.19900000000E+03 0.  0.
   -5000001    1    1    2    0    0 -0.32363501157E+03  0.25119968773E+03 -0.95404530297E+02  0.46534280722E+03  0.19900000000E+03 0.  0.
<mgrwt>
<rscale>  0 0.91155206E+03</rscale>
<asrwt>0</asrwt>
<pdfrwt beam="1">  1        2 0.83215374E-01 0.91155206E+03</pdfrwt>
<pdfrwt beam="2">  1       -2 0.50945205E-01 0.91155206E+03</pdfrwt>
<totfact> 0.20516029E+02</totfact>
</mgrwt>
</event>
<event>
 4    1  0.4915183E-005  0.4613503E+03  0.7818608E-02  0.1024390E+00
         -2   -1    0    0    0  501 -0.00000000000E+00  0.00000000000E+00  0.78874088987E+02  0.78874089029E+02  0.25500000000E-02 0.  1.
          2   -1    0    0  501    0  0.00000000000E+00 -0.00000000000E+00 -0.67463256469E+03  0.67463256470E+03  0.25500000000E-02 0. -1.
    5000001    1    1    2    0    0 -0.31485906127E+02  0.10851183932E+03 -0.34532399479E+03  0.41426542571E+03  0.19900000000E+03 0.  0.
   -5000001    1    1    2    0    0  0.31485906127E+02 -0.10851183932E+03 -0.25043448091E+03  0.33924122802E+03  0.19900000000E+03 0.  0.
<mgrwt>
<rscale>  0 0.46135032E+03</rscale>
<asrwt>0</asrwt>
<pdfrwt beam="1">  1        2 0.96376077E-01 0.46135032E+03</pdfrwt>
<pdfrwt beam="2">  1       -2 0.11267727E-01 0.46135032E+03</pdfrwt>
<totfact> 0.26434541E+03</totfact>
</mgrwt>
</event>
<event>
 4    1  0.4915183E-005  0.4889174E+03  0.7818608E-02  0.1016713E+00
         -2   -1    0    0    0  501 -0.00000000000E+00  0.00000000000E+00  0.65078491572E+03  0.65078491572E+03  0.25500000000E-02 0. -1.
          2   -1    0    0  501    0  0.00000000000E+00 -0.00000000000E+00 -0.91827649146E+02  0.91827649181E+02  0.25500000000E-02 0.  1.
    5000001    1    1    2    0    0  0.12035350943E+03  0.56046976424E+02  0.20303719885E+03  0.31376955703E+03  0.19900000000E+03 0.  0.
   -5000001    1    1    2    0    0 -0.12035350943E+03 -0.56046976424E+02  0.35592006772E+03  0.42884300788E+03  0.19900000000E+03 0.  0.
<mgrwt>
<rscale>  0 0.48891737E+03</rscale>
<asrwt>0</asrwt>
<pdfrwt beam="1">  1        2 0.13118236E-01 0.48891737E+03</pdfrwt>
<pdfrwt beam="2">  1       -2 0.92969271E-01 0.48891737E+03</pdfrwt>
<totfact> 0.46766865E+02</totfact>
</mgrwt>
</event>
<event>
 4    1  0.4915183E-005  0.9266652E+03  0.7818608E-02  0.9392849E-01
          2   -1    0    0  501    0  0.00000000000E+00  0.00000000000E+00  0.18117174175E+04  0.18117174175E+04  0.25500000000E-02 0.  1.
         -2   -1    0    0    0  501 -0.00000000000E+00 -0.00000000000E+00 -0.11849370181E+03  0.11849370184E+03  0.25500000000E-02 0. -1.
    5000001    1    1    2    0    0 -0.20298677339E+03 -0.21076630371E+03  0.22363456104E+03  0.41861615096E+03  0.19900000000E+03 0.  0.
   -5000001    1    1    2    0    0  0.20298677339E+03  0.21076630371E+03  0.14695891546E+04  0.15115949683E+04  0.19900000000E+03 0.  0.
<mgrwt>
<rscale>  0 0.92666521E+03</rscale>
<asrwt>0</asrwt>
<pdfrwt beam="1">  1        2 0.25881678E+00 0.92666521E+03</pdfrwt>
<pdfrwt beam="2">  1       -2 0.16927671E-01 0.92666521E+03</pdfrwt>
<totfact> 0.28740459E+02</totfact>
</mgrwt>
</event>
<event>
 4    1  0.4915183E-005  0.6130497E+03  0.7818608E-02  0.9878696E-01
          2   -1    0    0  501    0  0.00000000000E+00  0.00000000000E+00  0.67539918258E+03  0.67539918258E+03  0.25500000000E-02 0.  1.
         -2   -1    0    0    0  501 -0.00000000000E+00 -0.00000000000E+00 -0.13911401429E+03  0.13911401431E+03  0.25500000000E-02 0. -1.
    5000001    1    1    2    0    0  0.15054519703E+03 -0.14001289096E+03  0.12206012512E+03  0.31107417142E+03  0.19900000000E+03 0.  0.
   -5000001    1    1    2    0    0 -0.15054519703E+03  0.14001289096E+03  0.41422504317E+03  0.50343902547E+03  0.19900000000E+03 0.  0.
<mgrwt>
<rscale>  0 0.61304973E+03</rscale>
<asrwt>0</asrwt>
<pdfrwt beam="1">  1        2 0.96485599E-01 0.61304973E+03</pdfrwt>
<pdfrwt beam="2">  1       -2 0.19873430E-01 0.61304973E+03</pdfrwt>
<totfact> 0.10171922E+03</totfact>
</mgrwt>
</event>
<event>
 4    1  0.4915183E-005  0.4642255E+03  0.7818608E-02  0.1023563E+00
          2   -1    0    0  501    0  0.00000000000E+00  0.00000000000E+00  0.34908066510E+03  0.34908066511E+03  0.25500000000E-02 0.  1.
         -2   -1    0    0    0  501 -0.00000000000E+00 -0.00000000000E+00 -0.15433778231E+03  0.15433778233E+03  0.25500000000E-02 0. -1.
    5000001    1    1    2    0    0  0.45174249990E+02  0.10172928574E+03  0.14446321777E+03  0.26992625239E+03  0.19900000000E+03 0.  0.
   -5000001    1    1    2    0    0 -0.45174249990E+02 -0.10172928574E+03  0.50279665023E+02  0.23349219506E+03  0.19900000000E+03 0.  0.
<mgrwt>
<rscale>  0 0.46422553E+03</rscale>
<asrwt>0</asrwt>
<pdfrwt beam="1">  1        2 0.49868665E-01 0.46422553E+03</pdfrwt>
<pdfrwt beam="2">  1       -2 0.22048255E-01 0.46422553E+03</pdfrwt>
<totfact> 0.17974962E+03</totfact>
</mgrwt>
</event>
<event>
 4    1  0.4915183E-005  0.7630156E+03  0.7818608E-02  0.9615149E-01
         -2   -1    0    0    0  501 -0.00000000000E+00  0.00000000000E+00  0.17272901364E+03  0.17272901366E+03  0.25500000000E-02 0. -1.
          2   -1    0    0  501    0  0.00000000000E+00 -0.00000000000E+00 -0.84263888466E+03  0.84263888466E+03  0.25500000000E-02 0.  1.
    5000001    1    1    2    0    0  0.16266310244E+03 -0.21740656292E+03 -0.57382856320E+03  0.66528574195E+03  0.19900000000E+03 0.  0.
   -5000001    1    1    2    0    0 -0.16266310244E+03  0.21740656292E+03 -0.96081307822E+02  0.35008215637E+03  0.19900000000E+03 0.  0.
<mgrwt>
<rscale>  0 0.76301555E+03</rscale>
<asrwt>0</asrwt>
<pdfrwt beam="1">  1        2 0.12037698E+00 0.76301555E+03</pdfrwt>
<pdfrwt beam="2">  1       -2 0.24675574E-01 0.76301555E+03</pdfrwt>
<totfact> 0.52280818E+02</totfact>
</mgrwt>
</event>
<event>
 4    1  0.4915183E-005  0.6849257E+03  0.7818608E-02  0.9743364E-01
          2   -1    0    0  501    0  0.00000000000E+00  0.00000000000E+00  0.30124911413E+04  0.30124911413E+04  0.25500000000E-02 0.  1.
         -2   -1    0    0    0  501 -0.00000000000E+00 -0.00000000000E+00 -0.38931505498E+02  0.38931505581E+02  0.25500000000E-02 0. -1.
    5000001    1    1    2    0    0 -0.12691775964E+02  0.16155075744E+03  0.47653813196E+03  0.54124792805E+03  0.19900000000E+03 0.  0.
   -5000001    1    1    2    0    0  0.12691775964E+02 -0.16155075744E+03  0.24970215039E+04  0.25101747189E+04  0.19900000000E+03 0.  0.
<mgrwt>
<rscale>  0 0.68492573E+03</rscale>
<asrwt>0</asrwt>
<pdfrwt beam="1">  1        2 0.43035603E+00 0.68492573E+03</pdfrwt>
<pdfrwt beam="2">  1       -2 0.55616417E-02 0.68492573E+03</pdfrwt>
<totfact> 0.42810011E+02</totfact>
</mgrwt>
</event>
<event>
 4    1  0.4915183E-005  0.9337431E+03  0.7818608E-02  0.9384357E-01
          2   -1    0    0  501    0  0.00000000000E+00  0.00000000000E+00  0.60160950338E+03  0.60160950339E+03  0.25500000000E-02 0.  1.
         -2   -1    0    0    0  501 -0.00000000000E+00 -0.00000000000E+00 -0.36230981958E+03  0.36230981959E+03  0.25500000000E-02 0. -1.
    5000001    1    1    2    0    0 -0.35106710477E+02 -0.41779935645E+03  0.67222265306E+02  0.46894415054E+03  0.19900000000E+03 0.  0.
   -5000001    1    1    2    0    0  0.35106710477E+02  0.41779935645E+03  0.17207741849E+03  0.49497517244E+03  0.19900000000E+03 0.  0.
<mgrwt>
<rscale>  0 0.93374307E+03</rscale>
<asrwt>0</asrwt>
<pdfrwt beam="1">  1        2 0.85944214E-01 0.93374307E+03</pdfrwt>
<pdfrwt beam="2">  1       -2 0.51758546E-01 0.93374307E+03</pdfrwt>
<totfact> 0.19096700E+02</totfact>
</mgrwt>
</event>
<event>
 4    1  0.4915183E-005  0.5779309E+03  0.7818608E-02  0.9952281E-01
          2   -1    0    0  501    0  0.00000000000E+00  0.00000000000E+00  0.12369464166E+04  0.12369464166E+04  0.25500000000E-02 0.  1.
         -2   -1    0    0    0  501 -0.00000000000E+00 -0.00000000000E+00 -0.67505789541E+02  0.67505789589E+02  0.25500000000E-02 0. -1.
    5000001    1    1    2    0    0  0.70885325121E+02  0.19381358294E+03  0.50297655090E+03  0.57894286851E+03  0.19900000000E+03 0.  0.
   -5000001    1    1    2    0    0 -0.70885325121E+02 -0.19381358294E+03  0.66646407618E+03  0.72550933770E+03  0.19900000000E+03 0.  0.
<mgrwt>
<rscale>  0 0.57793095E+03</rscale>
<asrwt>0</asrwt>
<pdfrwt beam="1">  1        2 0.17670661E+00 0.57793095E+03</pdfrwt>
<pdfrwt beam="2">  1       -2 0.96436852E-02 0.57793095E+03</pdfrwt>
<totfact> 0.14955498E+03</totfact>
</mgrwt>
</event>
<event>
 4    1  0.4915183E-005  0.5714292E+03  0.7818608E-02  0.9966521E-01
          2   -1    0    0  501    0  0.00000000000E+00  0.00000000000E+00  0.83442316776E+03  0.83442316777E+03  0.25500000000E-02 0.  1.
         -2   -1    0    0    0  501 -0.00000000000E+00 -0.00000000000E+00 -0.97831443735E+02  0.97831443768E+02  0.25500000000E-02 0. -1.
    5000001    1    1    2    0    0  0.14836070264E+03  0.13740467493E+03  0.31319071049E+03  0.42258769968E+03  0.19900000000E+03 0.  0.
   -5000001    1    1    2    0    0 -0.14836070264E+03 -0.13740467493E+03  0.42340101353E+03  0.50966691186E+03  0.19900000000E+03 0.  0.
<mgrwt>
<rscale>  0 0.57142917E+03</rscale>
<asrwt>0</asrwt>
<pdfrwt beam="1">  1        2 0.11920331E+00 0.57142917E+03</pdfrwt>
<pdfrwt beam="2">  1       -2 0.13975921E-01 0.57142917E+03</pdfrwt>
<totfact> 0.14229914E+03</totfact>
</mgrwt>
</event>
<event>
 4    1  0.4915183E-005  0.5469384E+03  0.7818608E-02  0.1002205E+00
          2   -1    0    0  501    0  0.00000000000E+00  0.00000000000E+00  0.18266552336E+04  0.18266552336E+04  0.25500000000E-02 0.  1.
         -2   -1    0    0    0  501 -0.00000000000E+00 -0.00000000000E+00 -0.40941163430E+02  0.40941163509E+02  0.25500000000E-02 0. -1.
    5000001    1    1    2    0    0 -0.24505318477E+02  0.16567229236E+03  0.60439447236E+03  0.65798290047E+03  0.19900000000E+03 0.  0.
   -5000001    1    1    2    0    0  0.24505318477E+02 -0.16567229236E+03  0.11813195978E+04  0.12096134966E+04  0.19900000000E+03 0.  0.
<mgrwt>
<rscale>  0 0.54693835E+03</rscale>
<asrwt>0</asrwt>
<pdfrwt beam="1">  1        2 0.26095073E+00 0.54693835E+03</pdfrwt>
<pdfrwt beam="2">  1       -2 0.58487381E-02 0.54693835E+03</pdfrwt>
<totfact> 0.16312206E+03</totfact>
</mgrwt>
</event>
<event>
 4    1  0.4915183E-005  0.4445266E+03  0.7818608E-02  0.1029367E+00
          2   -1    0    0  501    0  0.00000000000E+00  0.00000000000E+00  0.22218701513E+04  0.22218701513E+04  0.25500000000E-02 0.  1.
         -2   -1    0    0    0  501 -0.00000000000E+00 -0.00000000000E+00 -0.22233961541E+02  0.22233961687E+02  0.25500000000E-02 0. -1.
    5000001    1    1    2    0    0  0.74153826591E+02 -0.59180257000E+01  0.77008393118E+03  0.79885172222E+03  0.19900000000E+03 0.  0.
   -5000001    1    1    2    0    0 -0.74153826591E+02  0.59180257000E+01  0.14295522586E+04  0.14452523908E+04  0.19900000000E+03 0.  0.
<mgrwt>
<rscale>  0 0.44452661E+03</rscale>
<asrwt>0</asrwt>
<pdfrwt beam="1">  1        2 0.31741000E+00 0.44452661E+03</pdfrwt>
<pdfrwt beam="2">  1       -2 0.31762805E-02 0.44452661E+03</pdfrwt>
<totfact> 0.26542949E+03</totfact>
</mgrwt>
</event>
<event>
 4    1  0.4915183E-005  0.7928932E+03  0.7818608E-02  0.9570361E-01
         -2   -1    0    0    0  501 -0.00000000000E+00  0.00000000000E+00  0.20864276001E+03  0.20864276003E+03  0.25500000000E-02 0. -1.
          2   -1    0    0  501    0  0.00000000000E+00 -0.00000000000E+00 -0.75329664006E+03  0.75329664007E+03  0.25500000000E-02 0.  1.
    5000001    1    1    2    0    0  0.22508360274E+03  0.17034741888E+03 -0.50847478726E+03  0.61467754198E+03  0.19900000000E+03 0.  0.
   -5000001    1    1    2    0    0 -0.22508360274E+03 -0.17034741888E+03 -0.36179092792E+02  0.34726185811E+03  0.19900000000E+03 0.  0.
<mgrwt>
<rscale>  0 0.79289316E+03</rscale>
<asrwt>0</asrwt>
<pdfrwt beam="1">  1        2 0.10761380E+00 0.79289316E+03</pdfrwt>
<pdfrwt beam="2">  1       -2 0.29806109E-01 0.79289316E+03</pdfrwt>
<totfact> 0.42726372E+02</totfact>
</mgrwt>
</event>
<event>
 4    1  0.4915183E-005  0.6155325E+03  0.7818608E-02  0.9873695E-01
          2   -1    0    0  501    0  0.00000000000E+00  0.00000000000E+00  0.57042754707E+03  0.57042754707E+03  0.25500000000E-02 0.  1.
         -2   -1    0    0    0  501 -0.00000000000E+00 -0.00000000000E+00 -0.16605098359E+03  0.16605098361E+03  0.25500000000E-02 0. -1.
    5000001    1    1    2    0    0 -0.20813332844E+03  0.10437951531E+03  0.23817240480E+03  0.38799698457E+03  0.19900000000E+03 0.  0.
   -5000001    1    1    2    0    0  0.20813332844E+03 -0.10437951531E+03  0.16620415868E+03  0.34848154612E+03  0.19900000000E+03 0.  0.
<mgrwt>
<rscale>  0 0.61553247E+03</rscale>
<asrwt>0</asrwt>
<pdfrwt beam="1">  1        2 0.81489648E-01 0.61553247E+03</pdfrwt>
<pdfrwt beam="2">  1       -2 0.23721570E-01 0.61553247E+03</pdfrwt>
<totfact> 0.91007511E+02</totfact>
</mgrwt>
</event>
<event>
 4    1  0.4915183E-005  0.5080934E+03  0.7818608E-02  0.1011688E+00
         -2   -1    0    0    0  501 -0.00000000000E+00  0.00000000000E+00  0.29786895046E+03  0.29786895047E+03  0.25500000000E-02 0. -1.
          2   -1    0    0  501    0  0.00000000000E+00 -0.00000000000E+00 -0.21667152689E+03  0.21667152690E+03  0.25500000000E-02 0.  1.
    5000001    1    1    2    0    0 -0.93677113551E+02 -0.95154547235E+02 -0.44785614271E+02  0.24379610478E+03  0.19900000000E+03 0.  0.
   -5000001    1    1    2    0    0  0.93677113551E+02  0.95154547235E+02  0.12598303785E+03  0.27074437259E+03  0.19900000000E+03 0.  0.
<mgrwt>
<rscale>  0 0.50809338E+03</rscale>
<asrwt>0</asrwt>
<pdfrwt beam="1">  1        2 0.30953076E-01 0.50809338E+03</pdfrwt>
<pdfrwt beam="2">  1       -2 0.42552706E-01 0.50809338E+03</pdfrwt>
<totfact> 0.90185008E+02</totfact>
</mgrwt>
</event>
<event>
 4    1  0.4915183E-005  0.5685979E+03  0.7818608E-02  0.9972786E-01
         -2   -1    0    0    0  501 -0.00000000000E+00  0.00000000000E+00  0.61417897926E+02  0.61417897979E+02  0.25500000000E-02 0. -1.
          2   -1    0    0  501    0  0.00000000000E+00 -0.00000000000E+00 -0.13159990284E+04  0.13159990284E+04  0.25500000000E-02 0.  1.
    5000001    1    1    2    0    0  0.30112148242E+02  0.18876750080E+03 -0.46147924379E+03  0.53768392507E+03  0.19900000000E+03 0.  0.
   -5000001    1    1    2    0    0 -0.30112148242E+02 -0.18876750080E+03 -0.79310188670E+03  0.83973300133E+03  0.19900000000E+03 0.  0.
<mgrwt>
<rscale>  0 0.56859790E+03</rscale>
<asrwt>0</asrwt>
<pdfrwt beam="1">  1        2 0.18799984E+00 0.56859790E+03</pdfrwt>
<pdfrwt beam="2">  1       -2 0.87739862E-02 0.56859790E+03</pdfrwt>
<totfact> 0.15766166E+03</totfact>
</mgrwt>
</event>
<event>
 4    1  0.4915183E-005  0.1263977E+04  0.7818608E-02  0.9058630E-01
          2   -1    0    0  501    0  0.00000000000E+00  0.00000000000E+00  0.29122196357E+04  0.29122196357E+04  0.25500000000E-02 0.  1.
         -2   -1    0    0    0  501 -0.00000000000E+00 -0.00000000000E+00 -0.13714939361E+03  0.13714939363E+03  0.25500000000E-02 0. -1.
    5000001    1    1    2    0    0 -0.12088682711E+03 -0.52020130612E+03  0.72866909249E+03  0.92508522321E+03  0.19900000000E+03 0.  0.
   -5000001    1    1    2    0    0  0.12088682711E+03  0.52020130612E+03  0.20464011496E+04  0.21242838061E+04  0.19900000000E+03 0.  0.
<mgrwt>
<rscale>  0 0.12639765E+04</rscale>
<asrwt>0</asrwt>
<pdfrwt beam="1">  1        2 0.41603135E+00 0.12639765E+04</pdfrwt>
<pdfrwt beam="2">  1       -2 0.19592772E-01 0.12639765E+04</pdfrwt>
<totfact> 0.57991364E+01</totfact>
</mgrwt>
</event>
<event>
 4    1  0.4915183E-005  0.6582020E+03  0.7818608E-02  0.9791509E-01
         -2   -1    0    0    0  501 -0.00000000000E+00  0.00000000000E+00  0.20987795143E+03  0.20987795145E+03  0.25500000000E-02 0. -1.
          2   -1    0    0  501    0  0.00000000000E+00 -0.00000000000E+00 -0.51604976931E+03  0.51604976931E+03  0.25500000000E-02 0.  1.
    5000001    1    1    2    0    0 -0.58953794279E+02 -0.12902858398E+03 -0.39617994552E+03  0.46549272237E+03  0.19900000000E+03 0.  0.
   -5000001    1    1    2    0    0  0.58953794279E+02  0.12902858398E+03  0.90008127648E+02  0.26043499839E+03  0.19900000000E+03 0.  0.
<mgrwt>
<rscale>  0 0.65820200E+03</rscale>
<asrwt>0</asrwt>
<pdfrwt beam="1">  1        2 0.73721395E-01 0.65820200E+03</pdfrwt>
<pdfrwt beam="2">  1       -2 0.29982565E-01 0.65820200E+03</pdfrwt>
<totfact> 0.66731865E+02</totfact>
</mgrwt>
</event>
<event>
 4    1  0.4915183E-005  0.1032489E+04  0.7818608E-02  0.9273612E-01
         -2   -1    0    0    0  501 -0.00000000000E+00  0.00000000000E+00  0.13003467545E+03  0.13003467548E+03  0.25500000000E-02 0. -1.
          2   -1    0    0  501    0  0.00000000000E+00 -0.00000000000E+00 -0.20495179504E+04  0.20495179504E+04  0.25500000000E-02 0.  1.
    5000001    1    1    2    0    0 -0.11117342152E+03  0.13678582668E+03 -0.18939201002E+04  0.19124864020E+04  0.19900000000E+03 0.  0.
   -5000001    1    1    2    0    0  0.11117342152E+03 -0.13678582668E+03 -0.25563174787E+02  0.26706622388E+03  0.19900000000E+03 0.  0.
<mgrwt>
<rscale>  0 0.10324890E+04</rscale>
<asrwt>0</asrwt>
<pdfrwt beam="1">  1        2 0.29278826E+00 0.10324890E+04</pdfrwt>
<pdfrwt beam="2">  1       -2 0.18576383E-01 0.10324890E+04</pdfrwt>
<totfact> 0.18373693E+02</totfact>
</mgrwt>
</event>
<event>
 4    1  0.4915183E-005  0.9844185E+03  0.7818608E-02  0.9325801E-01
         -2   -1    0    0    0  501 -0.00000000000E+00  0.00000000000E+00  0.42694966050E+03  0.42694966051E+03  0.25500000000E-02 0. -1.
          2   -1    0    0  501    0  0.00000000000E+00 -0.00000000000E+00 -0.56744383428E+03  0.56744383429E+03  0.25500000000E-02 0.  1.
    5000001    1    1    2    0    0 -0.12699267226E+03 -0.28027586920E+03 -0.40219102660E+03  0.54409587716E+03  0.19900000000E+03 0.  0.
   -5000001    1    1    2    0    0  0.12699267226E+03  0.28027586920E+03  0.26169685283E+03  0.45029761763E+03  0.19900000000E+03 0.  0.
<mgrwt>
<rscale>  0 0.98441851E+03</rscale>
<asrwt>0</asrwt>
<pdfrwt beam="1">  1        2 0.81063405E-01 0.98441851E+03</pdfrwt>
<pdfrwt beam="2">  1       -2 0.60992809E-01 0.98441851E+03</pdfrwt>
<totfact> 0.14494849E+02</totfact>
</mgrwt>
</event>
<event>
 4    1  0.4915183E-005  0.4360442E+03  0.7818608E-02  0.1031967E+00
          2   -1    0    0  501    0  0.00000000000E+00  0.00000000000E+00  0.96343441997E+03  0.96343441997E+03  0.25500000000E-02 0.  1.
         -2   -1    0    0    0  501 -0.00000000000E+00 -0.00000000000E+00 -0.49337693888E+02  0.49337693954E+02  0.25500000000E-02 0. -1.
    5000001    1    1    2    0    0  0.97974263723E+00  0.31939463632E+02  0.65014235157E+03  0.68066670738E+03  0.19900000000E+03 0.  0.
   -5000001    1    1    2    0    0 -0.97974263723E+00 -0.31939463632E+02  0.26395437451E+03  0.33210540655E+03  0.19900000000E+03 0.  0.
<mgrwt>
<rscale>  0 0.43604418E+03</rscale>
<asrwt>0</asrwt>
<pdfrwt beam="1">  1        2 0.13763347E+00 0.43604418E+03</pdfrwt>
<pdfrwt beam="2">  1       -2 0.70482428E-02 0.43604418E+03</pdfrwt>
<totfact> 0.35512345E+03</totfact>
</mgrwt>
</event>
<event>
 4    1  0.4915183E-005  0.4660313E+03  0.7818608E-02  0.1023046E+00
         -2   -1    0    0    0  501 -0.00000000000E+00  0.00000000000E+00  0.19723613767E+03  0.19723613768E+03  0.25500000000E-02 0. -1.
          2   -1    0    0  501    0  0.00000000000E+00 -0.00000000000E+00 -0.27528571578E+03  0.27528571579E+03  0.25500000000E-02 0.  1.
    5000001    1    1    2    0    0  0.95892134952E+02  0.74138416531E+02 -0.40917601863E+02  0.23657357522E+03  0.19900000000E+03 0.  0.
   -5000001    1    1    2    0    0 -0.95892134952E+02 -0.74138416531E+02 -0.37131976252E+02  0.23594827826E+03  0.19900000000E+03 0.  0.
<mgrwt>
<rscale>  0 0.46603129E+03</rscale>
<asrwt>0</asrwt>
<pdfrwt beam="1">  1        2 0.39326531E-01 0.46603129E+03</pdfrwt>
<pdfrwt beam="2">  1       -2 0.28176591E-01 0.46603129E+03</pdfrwt>
<totfact> 0.15048589E+03</totfact>
</mgrwt>
</event>
<event>
 4    1  0.4915183E-005  0.7774962E+03  0.7818608E-02  0.9593174E-01
          2   -1    0    0  501    0  0.00000000000E+00  0.00000000000E+00  0.95706560324E+03  0.95706560325E+03  0.25500000000E-02 0.  1.
         -2   -1    0    0    0  501 -0.00000000000E+00 -0.00000000000E+00 -0.15790462766E+03  0.15790462768E+03  0.25500000000E-02 0. -1.
    5000001    1    1    2    0    0 -0.81834907807E+02 -0.26109191293E+03  0.12501227477E+03  0.36068685584E+03  0.19900000000E+03 0.  0.
   -5000001    1    1    2    0    0  0.81834907807E+02  0.26109191293E+03  0.67414870081E+03  0.75428337509E+03  0.19900000000E+03 0.  0.
<mgrwt>
<rscale>  0 0.77749621E+03</rscale>
<asrwt>0</asrwt>
<pdfrwt beam="1">  1        2 0.13672366E+00 0.77749621E+03</pdfrwt>
<pdfrwt beam="2">  1       -2 0.22557804E-01 0.77749621E+03</pdfrwt>
<totfact> 0.51672564E+02</totfact>
</mgrwt>
</event>
<event>
 4    1  0.4915183E-005  0.8329686E+03  0.7818608E-02  0.9513485E-01
         -2   -1    0    0    0  501 -0.00000000000E+00  0.00000000000E+00  0.12860056944E+03  0.12860056947E+03  0.25500000000E-02 0. -1.
          2   -1    0    0  501    0  0.00000000000E+00 -0.00000000000E+00 -0.13488211421E+04  0.13488211421E+04  0.25500000000E-02 0.  1.
    5000001    1    1    2    0    0  0.36292803862E+03  0.30554640456E+02 -0.67175231270E+03  0.78962175558E+03  0.19900000000E+03 0.  0.
   -5000001    1    1    2    0    0 -0.36292803862E+03 -0.30554640456E+02 -0.54846825994E+03  0.68779995596E+03  0.19900000000E+03 0.  0.
<mgrwt>
<rscale>  0 0.83296859E+03</rscale>
<asrwt>0</asrwt>
<pdfrwt beam="1">  1        2 0.19268873E+00 0.83296859E+03</pdfrwt>
<pdfrwt beam="2">  1       -2 0.18371511E-01 0.83296859E+03</pdfrwt>
<totfact> 0.43838370E+02</totfact>
</mgrwt>
</event>
<event>
 4    1  0.4915183E-005  0.4939071E+03  0.7818608E-02  0.1015382E+00
          2   -1    0    0  501    0  0.00000000000E+00  0.00000000000E+00  0.74810043509E+03  0.74810043509E+03  0.25500000000E-02 0.  1.
         -2   -1    0    0    0  501 -0.00000000000E+00 -0.00000000000E+00 -0.81521201078E+02  0.81521201118E+02  0.25500000000E-02 0. -1.
    5000001    1    1    2    0    0 -0.28482725578E+02  0.13573874492E+03  0.41115244149E+03  0.47737155620E+03  0.19900000000E+03 0.  0.
   -5000001    1    1    2    0    0  0.28482725578E+02 -0.13573874492E+03  0.25542679252E+03  0.35225008001E+03  0.19900000000E+03 0.  0.
<mgrwt>
<rscale>  0 0.49390706E+03</rscale>
<asrwt>0</asrwt>
<pdfrwt beam="1">  1        2 0.10687149E+00 0.49390706E+03</pdfrwt>
<pdfrwt beam="2">  1       -2 0.11645886E-01 0.49390706E+03</pdfrwt>
<totfact> 0.22091966E+03</totfact>
</mgrwt>
</event>
<event>
 4    1  0.4915183E-005  0.4718549E+03  0.7818608E-02  0.1021398E+00
          2   -1    0    0  501    0  0.00000000000E+00  0.00000000000E+00  0.71956462120E+02  0.71956462166E+02  0.25500000000E-02 0.  1.
         -2   -1    0    0    0  501 -0.00000000000E+00 -0.00000000000E+00 -0.77354793323E+03  0.77354793324E+03  0.25500000000E-02 0. -1.
    5000001    1    1    2    0    0  0.96124090069E+02 -0.22188126384E+02 -0.20824750501E+03  0.30446703760E+03  0.19900000000E+03 0.  0.
   -5000001    1    1    2    0    0 -0.96124090069E+02  0.22188126384E+02 -0.49334396610E+03  0.54103735780E+03  0.19900000000E+03 0.  0.
<mgrwt>
<rscale>  0 0.47185495E+03</rscale>
<asrwt>0</asrwt>
<pdfrwt beam="1">  1        2 0.10279495E-01 0.47185495E+03</pdfrwt>
<pdfrwt beam="2">  1       -2 0.11050684E+00 0.47185495E+03</pdfrwt>
<totfact> 0.42134749E+02</totfact>
</mgrwt>
</event>
<event>
 4    1  0.4915183E-005  0.5882844E+03  0.7818608E-02  0.9930015E-01
         -2   -1    0    0    0  501 -0.00000000000E+00  0.00000000000E+00  0.93070074077E+02  0.93070074112E+02  0.25500000000E-02 0. -1.
          2   -1    0    0  501    0  0.00000000000E+00 -0.00000000000E+00 -0.92961818964E+03  0.92961818964E+03  0.25500000000E-02 0.  1.
    5000001    1    1    2    0    0  0.12546574732E+03  0.14694861615E+03 -0.24809402878E+03  0.37213867934E+03  0.19900000000E+03 0.  0.
   -5000001    1    1    2    0    0 -0.12546574732E+03 -0.14694861615E+03 -0.58845408678E+03  0.65054958442E+03  0.19900000000E+03 0.  0.
<mgrwt>
<rscale>  0 0.58828440E+03</rscale>
<asrwt>0</asrwt>
<pdfrwt beam="1">  1        2 0.13280259E+00 0.58828440E+03</pdfrwt>
<pdfrwt beam="2">  1       -2 0.13295725E-01 0.58828440E+03</pdfrwt>
<totfact> 0.13398072E+03</totfact>
</mgrwt>
</event>
<event>
 4    1  0.4915183E-005  0.6067477E+03  0.7818608E-02  0.9891505E-01
          2   -1    0    0  501    0  0.00000000000E+00  0.00000000000E+00  0.18118347670E+04  0.18118347670E+04  0.25500000000E-02 0.  1.
         -2   -1    0    0    0  501 -0.00000000000E+00 -0.00000000000E+00 -0.50796960886E+02  0.50796960950E+02  0.25500000000E-02 0. -1.
    5000001    1    1    2    0    0  0.23673851820E+02  0.22771431790E+03  0.86664054102E+03  0.91819447241E+03  0.19900000000E+03 0.  0.
   -5000001    1    1    2    0    0 -0.23673851820E+02 -0.22771431790E+03  0.89439726512E+03  0.94443725556E+03  0.19900000000E+03 0.  0.
<mgrwt>
<rscale>  0 0.60674772E+03</rscale>
<asrwt>0</asrwt>
<pdfrwt beam="1">  1        2 0.25883358E+00 0.60674772E+03</pdfrwt>
<pdfrwt beam="2">  1       -2 0.72567075E-02 0.60674772E+03</pdfrwt>
<totfact> 0.11790554E+03</totfact>
</mgrwt>
</event>
<event>
 4    1  0.4915183E-005  0.4341696E+03  0.7818608E-02  0.1032551E+00
          2   -1    0    0  501    0  0.00000000000E+00  0.00000000000E+00  0.72486238125E+03  0.72486238126E+03  0.25500000000E-02 0.  1.
         -2   -1    0    0    0  501 -0.00000000000E+00 -0.00000000000E+00 -0.65013467168E+02  0.65013467218E+02  0.25500000000E-02 0. -1.
    5000001    1    1    2    0    0 -0.29709812820E+01  0.86541502905E+02  0.32054886621E+03  0.38710571435E+03  0.19900000000E+03 0.  0.
   -5000001    1    1    2    0    0  0.29709812820E+01 -0.86541502905E+02  0.33930004787E+03  0.40277013412E+03  0.19900000000E+03 0.  0.
<mgrwt>
<rscale>  0 0.43416963E+03</rscale>
<asrwt>0</asrwt>
<pdfrwt beam="1">  1        2 0.10355177E+00 0.43416963E+03</pdfrwt>
<pdfrwt beam="2">  1       -2 0.92876385E-02 0.43416963E+03</pdfrwt>
<totfact> 0.33077397E+03</totfact>
</mgrwt>
</event>
<event>
 4    1  0.4915183E-005  0.7249556E+03  0.7818608E-02  0.9675482E-01
         -2   -1    0    0    0  501 -0.00000000000E+00  0.00000000000E+00  0.91438025290E+02  0.91438025325E+02  0.25500000000E-02 0. -1.
          2   -1    0    0  501    0  0.00000000000E+00 -0.00000000000E+00 -0.14369310844E+04  0.14369310844E+04  0.25500000000E-02 0.  1.
    5000001    1    1    2    0    0  0.23219742424E+03 -0.19850416204E+02 -0.10808906246E+04  0.11234924233E+04  0.19900000000E+03 0.  0.
   -5000001    1    1    2    0    0 -0.23219742424E+03  0.19850416204E+02 -0.26460243442E+03  0.40487668635E+03  0.19900000000E+03 0.  0.
<mgrwt>
<rscale>  0 0.72495556E+03</rscale>
<asrwt>0</asrwt>
<pdfrwt beam="1">  1        2 0.20527586E+00 0.72495556E+03</pdfrwt>
<pdfrwt beam="2">  1       -2 0.13062576E-01 0.72495556E+03</pdfrwt>
<totfact> 0.70517507E+02</totfact>
</mgrwt>
</event>
<event>
 4    1  0.4915183E-005  0.6681249E+03  0.7818608E-02  0.9773351E-01
         -2   -1    0    0    0  501 -0.00000000000E+00  0.00000000000E+00  0.13459870603E+03  0.13459870605E+03  0.25500000000E-02 0. -1.
          2   -1    0    0  501    0  0.00000000000E+00 -0.00000000000E+00 -0.82911444991E+03  0.82911444992E+03  0.25500000000E-02 0.  1.
    5000001    1    1    2    0    0  0.97927468112E+02  0.24148490013E+03 -0.25498858098E+03  0.41536119515E+03  0.19900000000E+03 0.  0.
   -5000001    1    1    2    0    0 -0.97927468112E+02 -0.24148490013E+03 -0.43952716290E+03  0.54835196082E+03  0.19900000000E+03 0.  0.
<mgrwt>
<rscale>  0 0.66812493E+03</rscale>
<asrwt>0</asrwt>
<pdfrwt beam="1">  1        2 0.11844492E+00 0.66812493E+03</pdfrwt>
<pdfrwt beam="2">  1       -2 0.19228387E-01 0.66812493E+03</pdfrwt>
<totfact> 0.83219547E+02</totfact>
</mgrwt>
</event>
<event>
 4    1  0.4915183E-005  0.6524903E+03  0.7818608E-02  0.9802117E-01
         -2   -1    0    0    0  501 -0.00000000000E+00  0.00000000000E+00  0.69485742256E+03  0.69485742257E+03  0.25500000000E-02 0. -1.
          2   -1    0    0  501    0  0.00000000000E+00 -0.00000000000E+00 -0.15317661385E+03  0.15317661387E+03  0.25500000000E-02 0.  1.
    5000001    1    1    2    0    0 -0.21472134594E+03 -0.67926885524E+02  0.10584862918E+03  0.31862870316E+03  0.19900000000E+03 0.  0.
   -5000001    1    1    2    0    0  0.21472134594E+03  0.67926885524E+02  0.43583217954E+03  0.52940533327E+03  0.19900000000E+03 0.  0.
<mgrwt>
<rscale>  0 0.65249033E+03</rscale>
<asrwt>0</asrwt>
<pdfrwt beam="1">  1        2 0.21882374E-01 0.65249033E+03</pdfrwt>
<pdfrwt beam="2">  1       -2 0.99265345E-01 0.65249033E+03</pdfrwt>
<totfact> 0.21730751E+02</totfact>
</mgrwt>
</event>
<event>
 4    1  0.4915183E-005  0.5679476E+03  0.7818608E-02  0.9974231E-01
         -2   -1    0    0    0  501 -0.00000000000E+00  0.00000000000E+00  0.16088321528E+03  0.16088321530E+03  0.25500000000E-02 0. -1.
          2   -1    0    0  501    0  0.00000000000E+00 -0.00000000000E+00 -0.50124013017E+03  0.50124013017E+03  0.25500000000E-02 0.  1.
    5000001    1    1    2    0    0  0.30789289179E+02 -0.20021573332E+03 -0.16736993045E+03  0.32961798163E+03  0.19900000000E+03 0.  0.
   -5000001    1    1    2    0    0 -0.30789289179E+02  0.20021573332E+03 -0.17298698444E+03  0.33250536384E+03  0.19900000000E+03 0.  0.
<mgrwt>
<rscale>  0 0.56794762E+03</rscale>
<asrwt>0</asrwt>
<pdfrwt beam="1">  1        2 0.71605732E-01 0.56794762E+03</pdfrwt>
<pdfrwt beam="2">  1       -2 0.22983317E-01 0.56794762E+03</pdfrwt>
<totfact> 0.11176556E+03</totfact>
</mgrwt>
</event>
<event>
 4    1  0.4915183E-005  0.5023310E+03  0.7818608E-02  0.1013172E+00
          2   -1    0    0  501    0  0.00000000000E+00  0.00000000000E+00  0.98441214661E+03  0.98441214662E+03  0.25500000000E-02 0.  1.
         -2   -1    0    0    0  501 -0.00000000000E+00 -0.00000000000E+00 -0.64083029739E+02  0.64083029790E+02  0.25500000000E-02 0. -1.
    5000001    1    1    2    0    0 -0.27099187167E+02 -0.14876559376E+03  0.40829521292E+03  0.47871865299E+03  0.19900000000E+03 0.  0.
   -5000001    1    1    2    0    0  0.27099187167E+02  0.14876559376E+03  0.51203390396E+03  0.56977652341E+03  0.19900000000E+03 0.  0.
<mgrwt>
<rscale>  0 0.50233102E+03</rscale>
<asrwt>0</asrwt>
<pdfrwt beam="1">  1        2 0.14063031E+00 0.50233102E+03</pdfrwt>
<pdfrwt beam="2">  1       -2 0.91547182E-02 0.50233102E+03</pdfrwt>
<totfact> 0.22788950E+03</totfact>
</mgrwt>
</event>
<event>
 4    1  0.4915183E-005  0.1102915E+04  0.7818608E-02  0.9202355E-01
          2   -1    0    0  501    0  0.00000000000E+00  0.00000000000E+00  0.26000192139E+04  0.26000192139E+04  0.25500000000E-02 0.  1.
         -2   -1    0    0    0  501 -0.00000000000E+00 -0.00000000000E+00 -0.11696280113E+03  0.11696280116E+03  0.25500000000E-02 0. -1.
    5000001    1    1    2    0    0  0.11229347543E+03 -0.48752120040E+03  0.94778990610E+03  0.10900428668E+04  0.19900000000E+03 0.  0.
   -5000001    1    1    2    0    0 -0.11229347543E+03  0.48752120040E+03  0.15352665067E+04  0.16269391482E+04  0.19900000000E+03 0.  0.
<mgrwt>
<rscale>  0 0.11029153E+04</rscale>
<asrwt>0</asrwt>
<pdfrwt beam="1">  1        2 0.37143136E+00 0.11029153E+04</pdfrwt>
<pdfrwt beam="2">  1       -2 0.16708970E-01 0.11029153E+04</pdfrwt>
<totfact> 0.11403658E+02</totfact>
</mgrwt>
</event>
<event>
 4    1  0.4915183E-005  0.5296953E+03  0.7818608E-02  0.1006306E+00
         -2   -1    0    0    0  501 -0.00000000000E+00  0.00000000000E+00  0.28244092969E+03  0.28244092970E+03  0.25500000000E-02 0. -1.
          2   -1    0    0  501    0  0.00000000000E+00 -0.00000000000E+00 -0.24835023535E+03  0.24835023537E+03  0.25500000000E-02 0.  1.
    5000001    1    1    2    0    0 -0.12131186473E+03 -0.81221641036E+02  0.11331568692E+03  0.27157865969E+03  0.19900000000E+03 0.  0.
   -5000001    1    1    2    0    0  0.12131186473E+03  0.81221641036E+02 -0.79224992582E+02  0.25921250538E+03  0.19900000000E+03 0.  0.
<mgrwt>
<rscale>  0 0.52969528E+03</rscale>
<asrwt>0</asrwt>
<pdfrwt beam="1">  1        2 0.35478605E-01 0.52969528E+03</pdfrwt>
<pdfrwt beam="2">  1       -2 0.40348704E-01 0.52969528E+03</pdfrwt>
<totfact> 0.85944958E+02</totfact>
</mgrwt>
</event>
<event>
 4    1  0.4915183E-005  0.5432580E+03  0.7818608E-02  0.1003067E+00
         -2   -1    0    0    0  501 -0.00000000000E+00  0.00000000000E+00  0.53682320913E+02  0.53682320973E+02  0.25500000000E-02 0. -1.
          2   -1    0    0  501    0  0.00000000000E+00 -0.00000000000E+00 -0.13744247902E+04  0.13744247902E+04  0.25500000000E-02 0.  1.
    5000001    1    1    2    0    0  0.82183971194E+02  0.16509384076E+03 -0.62598224535E+03  0.68224991966E+03  0.19900000000E+03 0.  0.
   -5000001    1    1    2    0    0 -0.82183971194E+02 -0.16509384076E+03 -0.69476022395E+03  0.74585719153E+03  0.19900000000E+03 0.  0.
<mgrwt>
<rscale>  0 0.54325800E+03</rscale>
<asrwt>0</asrwt>
<pdfrwt beam="1">  1        2 0.19634638E+00 0.54325800E+03</pdfrwt>
<pdfrwt beam="2">  1       -2 0.76689038E-02 0.54325800E+03</pdfrwt>
<totfact> 0.18191034E+03</totfact>
</mgrwt>
</event>
<event>
 4    1  0.4915183E-005  0.5545615E+03  0.7818608E-02  0.1000444E+00
          2   -1    0    0  501    0  0.00000000000E+00  0.00000000000E+00  0.22563396267E+04  0.22563396267E+04  0.25500000000E-02 0.  1.
         -2   -1    0    0    0  501 -0.00000000000E+00 -0.00000000000E+00 -0.34074934711E+02  0.34074934806E+02  0.25500000000E-02 0. -1.
    5000001    1    1    2    0    0 -0.16419258647E+02 -0.18950420683E+03  0.12482496947E+04  0.12782447875E+04  0.19900000000E+03 0.  0.
   -5000001    1    1    2    0    0  0.16419258647E+02  0.18950420683E+03  0.97401499724E+03  0.10121697740E+04  0.19900000000E+03 0.  0.
<mgrwt>
<rscale>  0 0.55456154E+03</rscale>
<asrwt>0</asrwt>
<pdfrwt beam="1">  1        2 0.32233442E+00 0.55456154E+03</pdfrwt>
<pdfrwt beam="2">  1       -2 0.48678449E-02 0.55456154E+03</pdfrwt>
<totfact> 0.13204251E+03</totfact>
</mgrwt>
</event>
<event>
 4    1  0.4915183E-005  0.7845762E+03  0.7818608E-02  0.9582615E-01
          2   -1    0    0  501    0  0.00000000000E+00  0.00000000000E+00  0.16032958544E+04  0.16032958544E+04  0.25500000000E-02 0.  1.
         -2   -1    0    0    0  501 -0.00000000000E+00 -0.00000000000E+00 -0.95983492276E+02  0.95983492309E+02  0.25500000000E-02 0. -1.
    5000001    1    1    2    0    0  0.38426867367E+02 -0.29907111438E+03  0.10847474223E+04  0.11433276546E+04  0.19900000000E+03 0.  0.
   -5000001    1    1    2    0    0 -0.38426867367E+02  0.29907111438E+03  0.42256493983E+03  0.55595169212E+03  0.19900000000E+03 0.  0.
<mgrwt>
<rscale>  0 0.78457615E+03</rscale>
<asrwt>0</asrwt>
<pdfrwt beam="1">  1        2 0.22904227E+00 0.78457615E+03</pdfrwt>
<pdfrwt beam="2">  1       -2 0.13711927E-01 0.78457615E+03</pdfrwt>
<totfact> 0.53043299E+02</totfact>
</mgrwt>
</event>
<event>
 4    1  0.4915183E-005  0.5005977E+03  0.7818608E-02  0.1013623E+00
         -2   -1    0    0    0  501 -0.00000000000E+00  0.00000000000E+00  0.79172714611E+02  0.79172714652E+02  0.25500000000E-02 0. -1.
          2   -1    0    0  501    0  0.00000000000E+00 -0.00000000000E+00 -0.79130197762E+03  0.79130197763E+03  0.25500000000E-02 0.  1.
    5000001    1    1    2    0    0 -0.13149076623E+03  0.67220235242E+02 -0.29482912362E+03  0.38514100504E+03  0.19900000000E+03 0.  0.
   -5000001    1    1    2    0    0  0.13149076623E+03 -0.67220235242E+02 -0.41730013939E+03  0.48533368723E+03  0.19900000000E+03 0.  0.
<mgrwt>
<rscale>  0 0.50059775E+03</rscale>
<asrwt>0</asrwt>
<pdfrwt beam="1">  1        2 0.11304314E+00 0.50059775E+03</pdfrwt>
<pdfrwt beam="2">  1       -2 0.11310388E-01 0.50059775E+03</pdfrwt>
<totfact> 0.21599587E+03</totfact>
</mgrwt>
</event>
<event>
 4    1  0.4915183E-005  0.4684219E+03  0.7818608E-02  0.1022367E+00
         -2   -1    0    0    0  501 -0.00000000000E+00  0.00000000000E+00  0.78203155533E+02  0.78203155575E+02  0.25500000000E-02 0. -1.
          2   -1    0    0  501    0  0.00000000000E+00 -0.00000000000E+00 -0.70143947237E+03  0.70143947237E+03  0.25500000000E-02 0.  1.
    5000001    1    1    2    0    0 -0.10838730785E+03  0.33312212908E+02 -0.39309347345E+03  0.45495163578E+03  0.19900000000E+03 0.  0.
   -5000001    1    1    2    0    0  0.10838730785E+03 -0.33312212908E+02 -0.23014284339E+03  0.32469099217E+03  0.19900000000E+03 0.  0.
<mgrwt>
<rscale>  0 0.46842195E+03</rscale>
<asrwt>0</asrwt>
<pdfrwt beam="1">  1        2 0.10020564E+00 0.46842195E+03</pdfrwt>
<pdfrwt beam="2">  1       -2 0.11171880E-01 0.46842195E+03</pdfrwt>
<totfact> 0.25576450E+03</totfact>
</mgrwt>
</event>
<event>
 4    1  0.4915183E-005  0.8465487E+03  0.7818608E-02  0.9494981E-01
          2   -1    0    0  501    0  0.00000000000E+00  0.00000000000E+00  0.15061945560E+04  0.15061945560E+04  0.25500000000E-02 0.  1.
         -2   -1    0    0    0  501 -0.00000000000E+00 -0.00000000000E+00 -0.11894955230E+03  0.11894955232E+03  0.25500000000E-02 0. -1.
    5000001    1    1    2    0    0  0.20509347532E+03 -0.15818206012E+03  0.17680779773E+03  0.37141202875E+03  0.19900000000E+03 0.  0.
   -5000001    1    1    2    0    0 -0.20509347532E+03  0.15818206012E+03  0.12104372060E+04  0.12537320796E+04  0.19900000000E+03 0.  0.
<mgrwt>
<rscale>  0 0.84654868E+03</rscale>
<asrwt>0</asrwt>
<pdfrwt beam="1">  1        2 0.21517065E+00 0.84654868E+03</pdfrwt>
<pdfrwt beam="2">  1       -2 0.16992793E-01 0.84654868E+03</pdfrwt>
<totfact> 0.41294078E+02</totfact>
</mgrwt>
</event>
<event>
 4    1  0.4915183E-005  0.4768496E+03  0.7818608E-02  0.1020005E+00
          2   -1    0    0  501    0  0.00000000000E+00  0.00000000000E+00  0.58588425998E+02  0.58588426054E+02  0.25500000000E-02 0.  1.
         -2   -1    0    0    0  501 -0.00000000000E+00 -0.00000000000E+00 -0.97026666866E+03  0.97026666866E+03  0.25500000000E-02 0. -1.
    5000001    1    1    2    0    0 -0.68384573408E+02 -0.10711699926E+03 -0.52723268939E+03  0.57769006411E+03  0.19900000000E+03 0.  0.
   -5000001    1    1    2    0    0  0.68384573408E+02  0.10711699926E+03 -0.38444555327E+03  0.45116503060E+03  0.19900000000E+03 0.  0.
<mgrwt>
<rscale>  0 0.47684965E+03</rscale>
<asrwt>0</asrwt>
<pdfrwt beam="1">  1        2 0.83697758E-02 0.47684965E+03</pdfrwt>
<pdfrwt beam="2">  1       -2 0.13860951E+00 0.47684965E+03</pdfrwt>
<totfact> 0.31241233E+02</totfact>
</mgrwt>
</event>
<event>
 4    1  0.4915183E-005  0.5182204E+03  0.7818608E-02  0.1009130E+00
          2   -1    0    0  501    0  0.00000000000E+00  0.00000000000E+00  0.10742277431E+04  0.10742277432E+04  0.25500000000E-02 0.  1.
         -2   -1    0    0    0  501 -0.00000000000E+00 -0.00000000000E+00 -0.62498936010E+02  0.62498936062E+02  0.25500000000E-02 0. -1.
    5000001    1    1    2    0    0  0.60235015199E+02 -0.15237345864E+03  0.44819681098E+03  0.51703704831E+03  0.19900000000E+03 0.  0.
   -5000001    1    1    2    0    0 -0.60235015199E+02  0.15237345864E+03  0.56353199615E+03  0.61968963090E+03  0.19900000000E+03 0.  0.
<mgrwt>
<rscale>  0 0.51822038E+03</rscale>
<asrwt>0</asrwt>
<pdfrwt beam="1">  1        2 0.15346110E+00 0.51822038E+03</pdfrwt>
<pdfrwt beam="2">  1       -2 0.89284200E-02 0.51822038E+03</pdfrwt>
<totfact> 0.20963655E+03</totfact>
</mgrwt>
</event>
<event>
 4    1  0.4915183E-005  0.7317981E+03  0.7818608E-02  0.9664347E-01
         -2   -1    0    0    0  501 -0.00000000000E+00  0.00000000000E+00  0.38646994521E+03  0.38646994522E+03  0.25500000000E-02 0. -1.
          2   -1    0    0  501    0  0.00000000000E+00 -0.00000000000E+00 -0.34642310296E+03  0.34642310297E+03  0.25500000000E-02 0.  1.
    5000001    1    1    2    0    0  0.14474888646E+03  0.20702709970E+03 -0.15479048597E+03  0.35689431865E+03  0.19900000000E+03 0.  0.
   -5000001    1    1    2    0    0 -0.14474888646E+03 -0.20702709970E+03  0.19483732822E+03  0.37599872953E+03  0.19900000000E+03 0.  0.
<mgrwt>
<rscale>  0 0.73179811E+03</rscale>
<asrwt>0</asrwt>
<pdfrwt beam="1">  1        2 0.49489015E-01 0.73179811E+03</pdfrwt>
<pdfrwt beam="2">  1       -2 0.55209992E-01 0.73179811E+03</pdfrwt>
<totfact> 0.31589947E+02</totfact>
</mgrwt>
</event>
<event>
 4    1  0.4915183E-005  0.5509552E+03  0.7818608E-02  0.1001273E+00
          2   -1    0    0  501    0  0.00000000000E+00  0.00000000000E+00  0.23008607386E+04  0.23008607386E+04  0.25500000000E-02 0.  1.
         -2   -1    0    0    0  501 -0.00000000000E+00 -0.00000000000E+00 -0.32982402414E+02  0.32982402513E+02  0.25500000000E-02 0. -1.
    5000001    1    1    2    0    0  0.57879994696E+02  0.17886887330E+03  0.12640019383E+04  0.12933081874E+04  0.19900000000E+03 0.  0.
   -5000001    1    1    2    0    0 -0.57879994696E+02 -0.17886887330E+03  0.10038763978E+04  0.10405349536E+04  0.19900000000E+03 0.  0.
<mgrwt>
<rscale>  0 0.55095522E+03</rscale>
<asrwt>0</asrwt>
<pdfrwt beam="1">  1        2 0.32869441E+00 0.55095522E+03</pdfrwt>
<pdfrwt beam="2">  1       -2 0.47117715E-02 0.55095522E+03</pdfrwt>
<totfact> 0.13189855E+03</totfact>
</mgrwt>
</event>
<event>
 4    1  0.4915183E-005  0.7385311E+03  0.7818608E-02  0.9653517E-01
         -2   -1    0    0    0  501 -0.00000000000E+00  0.00000000000E+00  0.25315769027E+03  0.25315769028E+03  0.25500000000E-02 0. -1.
          2   -1    0    0  501    0  0.00000000000E+00 -0.00000000000E+00 -0.53862499870E+03  0.53862499871E+03  0.25500000000E-02 0.  1.
    5000001    1    1    2    0    0 -0.77277493790E+02  0.28779631064E+03 -0.47096549658E+02  0.36141058708E+03  0.19900000000E+03 0.  0.
   -5000001    1    1    2    0    0  0.77277493790E+02 -0.28779631064E+03 -0.23837075878E+03  0.43037210191E+03  0.19900000000E+03 0.  0.
<mgrwt>
<rscale>  0 0.73853114E+03</rscale>
<asrwt>0</asrwt>
<pdfrwt beam="1">  1        2 0.76946428E-01 0.73853114E+03</pdfrwt>
<pdfrwt beam="2">  1       -2 0.36165385E-01 0.73853114E+03</pdfrwt>
<totfact> 0.44551974E+02</totfact>
</mgrwt>
</event>
<event>
 4    1  0.4915183E-005  0.5724060E+03  0.7818608E-02  0.9964368E-01
         -2   -1    0    0    0  501 -0.00000000000E+00  0.00000000000E+00  0.10729504628E+03  0.10729504631E+03  0.25500000000E-02 0. -1.
          2   -1    0    0  501    0  0.00000000000E+00 -0.00000000000E+00 -0.76342916937E+03  0.76342916937E+03  0.25500000000E-02 0.  1.
    5000001    1    1    2    0    0 -0.28982604100E+02 -0.20135448992E+03 -0.37439512784E+03  0.47027261636E+03  0.19900000000E+03 0.  0.
   -5000001    1    1    2    0    0  0.28982604100E+02  0.20135448992E+03 -0.28173899526E+03  0.40045159932E+03  0.19900000000E+03 0.  0.
<mgrwt>
<rscale>  0 0.57240604E+03</rscale>
<asrwt>0</asrwt>
<pdfrwt beam="1">  1        2 0.10906131E+00 0.57240604E+03</pdfrwt>
<pdfrwt beam="2">  1       -2 0.15327864E-01 0.57240604E+03</pdfrwt>
<totfact> 0.13650662E+03</totfact>
</mgrwt>
</event>
<event>
 4    1  0.4915183E-005  0.8394812E+03  0.7818608E-02  0.9504565E-01
         -2   -1    0    0    0  501 -0.00000000000E+00  0.00000000000E+00  0.44324281439E+03  0.44324281440E+03  0.25500000000E-02 0. -1.
          2   -1    0    0  501    0  0.00000000000E+00 -0.00000000000E+00 -0.39748458350E+03  0.39748458351E+03  0.25500000000E-02 0.  1.
    5000001    1    1    2    0    0 -0.16922831568E+03  0.29674736274E+02  0.35056870194E+03  0.43819884480E+03  0.19900000000E+03 0.  0.
   -5000001    1    1    2    0    0  0.16922831568E+03 -0.29674736274E+02 -0.30481047105E+03  0.40252855311E+03  0.19900000000E+03 0.  0.
<mgrwt>
<rscale>  0 0.83948123E+03</rscale>
<asrwt>0</asrwt>
<pdfrwt beam="1">  1        2 0.56783512E-01 0.83948123E+03</pdfrwt>
<pdfrwt beam="2">  1       -2 0.63320402E-01 0.83948123E+03</pdfrwt>
<totfact> 0.20233228E+02</totfact>
</mgrwt>
</event>
<event>
 4    1  0.4915183E-005  0.5625513E+03  0.7818608E-02  0.9986298E-01
         -2   -1    0    0    0  501 -0.00000000000E+00  0.00000000000E+00  0.68220755169E+03  0.68220755170E+03  0.25500000000E-02 0. -1.
          2   -1    0    0  501    0  0.00000000000E+00 -0.00000000000E+00 -0.11597056959E+03  0.11597056962E+03  0.25500000000E-02 0.  1.
    5000001    1    1    2    0    0  0.36119146823E+02 -0.19037964831E+03  0.22020715862E+03  0.35445901873E+03  0.19900000000E+03 0.  0.
   -5000001    1    1    2    0    0 -0.36119146823E+02  0.19037964831E+03  0.34602982348E+03  0.44371910258E+03  0.19900000000E+03 0.  0.
<mgrwt>
<rscale>  0 0.56255133E+03</rscale>
<asrwt>0</asrwt>
<pdfrwt beam="1">  1        2 0.16567224E-01 0.56255133E+03</pdfrwt>
<pdfrwt beam="2">  1       -2 0.97458225E-01 0.56255133E+03</pdfrwt>
<totfact> 0.31564803E+02</totfact>
</mgrwt>
</event>
<event>
 4    1  0.4915183E-005  0.5600665E+03  0.7818608E-02  0.9991904E-01
          2   -1    0    0  501    0  0.00000000000E+00  0.00000000000E+00  0.27192969127E+03  0.27192969128E+03  0.25500000000E-02 0.  1.
         -2   -1    0    0    0  501 -0.00000000000E+00 -0.00000000000E+00 -0.28837832947E+03  0.28837832948E+03  0.25500000000E-02 0. -1.
    5000001    1    1    2    0    0  0.44984743038E+01  0.19629460521E+03 -0.24535391580E+02  0.28063284510E+03  0.19900000000E+03 0.  0.
   -5000001    1    1    2    0    0 -0.44984743038E+01 -0.19629460521E+03  0.80867533826E+01  0.27967517567E+03  0.19900000000E+03 0.  0.
<mgrwt>
<rscale>  0 0.56006653E+03</rscale>
<asrwt>0</asrwt>
<pdfrwt beam="1">  1        2 0.38847099E-01 0.56006653E+03</pdfrwt>
<pdfrwt beam="2">  1       -2 0.41196904E-01 0.56006653E+03</pdfrwt>
<totfact> 0.74640078E+02</totfact>
</mgrwt>
</event>
<event>
 4    1  0.4915183E-005  0.6206988E+03  0.7818608E-02  0.9863369E-01
         -2   -1    0    0    0  501 -0.00000000000E+00  0.00000000000E+00  0.59281272843E+02  0.59281272898E+02  0.25500000000E-02 0. -1.
          2   -1    0    0  501    0  0.00000000000E+00 -0.00000000000E+00 -0.16247416230E+04  0.16247416230E+04  0.25500000000E-02 0.  1.
    5000001    1    1    2    0    0  0.15495791964E+03  0.15142467682E+03 -0.51449774126E+03  0.59266374562E+03  0.19900000000E+03 0.  0.
   -5000001    1    1    2    0    0 -0.15495791964E+03 -0.15142467682E+03 -0.10509626089E+04  0.10913591503E+04  0.19900000000E+03 0.  0.
<mgrwt>
<rscale>  0 0.62069880E+03</rscale>
<asrwt>0</asrwt>
<pdfrwt beam="1">  1        2 0.23210592E+00 0.62069880E+03</pdfrwt>
<pdfrwt beam="2">  1       -2 0.84687543E-02 0.62069880E+03</pdfrwt>
<totfact> 0.11470186E+03</totfact>
</mgrwt>
</event>
<event>
 4    1  0.4915183E-005  0.5403548E+03  0.7818608E-02  0.1003751E+00
          2   -1    0    0  501    0  0.00000000000E+00  0.00000000000E+00  0.62218180796E+03  0.62218180797E+03  0.25500000000E-02 0.  1.
         -2   -1    0    0    0  501 -0.00000000000E+00 -0.00000000000E+00 -0.11732236121E+03  0.11732236124E+03  0.25500000000E-02 0. -1.
    5000001    1    1    2    0    0  0.14389676286E+03 -0.10768284254E+03  0.29767412856E+03  0.40064043699E+03  0.19900000000E+03 0.  0.
   -5000001    1    1    2    0    0 -0.14389676286E+03  0.10768284254E+03  0.20718531818E+03  0.33886373221E+03  0.19900000000E+03 0.  0.
<mgrwt>
<rscale>  0 0.54035484E+03</rscale>
<asrwt>0</asrwt>
<pdfrwt beam="1">  1        2 0.88883116E-01 0.54035484E+03</pdfrwt>
<pdfrwt beam="2">  1       -2 0.16760337E-01 0.54035484E+03</pdfrwt>
<totfact> 0.15053283E+03</totfact>
</mgrwt>
</event>
<event>
 4    1  0.4915183E-005  0.5618482E+03  0.7818608E-02  0.9987881E-01
         -2   -1    0    0    0  501 -0.00000000000E+00  0.00000000000E+00  0.26002925473E+03  0.26002925474E+03  0.25500000000E-02 0. -1.
          2   -1    0    0  501    0  0.00000000000E+00 -0.00000000000E+00 -0.30349795759E+03  0.30349795760E+03  0.25500000000E-02 0.  1.
    5000001    1    1    2    0    0 -0.15236760960E+03  0.11333485497E+03  0.35503427974E+02  0.27734846530E+03  0.19900000000E+03 0.  0.
   -5000001    1    1    2    0    0  0.15236760960E+03 -0.11333485497E+03 -0.78972130831E+02  0.28617874704E+03  0.19900000000E+03 0.  0.
<mgrwt>
<rscale>  0 0.56184819E+03</rscale>
<asrwt>0</asrwt>
<pdfrwt beam="1">  1        2 0.43356851E-01 0.56184819E+03</pdfrwt>
<pdfrwt beam="2">  1       -2 0.37147037E-01 0.56184819E+03</pdfrwt>
<totfact> 0.80749283E+02</totfact>
</mgrwt>
</event>
<event>
 4    1  0.4915183E-005  0.5753587E+03  0.7818608E-02  0.9957890E-01
         -2   -1    0    0    0  501 -0.00000000000E+00  0.00000000000E+00  0.27683542140E+02  0.27683542257E+02  0.25500000000E-02 0. -1.
          2   -1    0    0  501    0  0.00000000000E+00 -0.00000000000E+00 -0.29894803101E+04  0.29894803101E+04  0.25500000000E-02 0.  1.
    5000001    1    1    2    0    0 -0.14197584258E+03 -0.10753998956E+03 -0.20416947325E+04  0.20590872662E+04  0.19900000000E+03 0.  0.
   -5000001    1    1    2    0    0  0.14197584258E+03  0.10753998956E+03 -0.92010203547E+03  0.95807658614E+03  0.19900000000E+03 0.  0.
<mgrwt>
<rscale>  0 0.57535869E+03</rscale>
<asrwt>0</asrwt>
<pdfrwt beam="1">  1        2 0.42706841E+00 0.57535869E+03</pdfrwt>
<pdfrwt beam="2">  1       -2 0.39547936E-02 0.57535869E+03</pdfrwt>
<totfact> 0.75499156E+02</totfact>
</mgrwt>
</event>
<event>
 4    1  0.4915183E-005  0.5768592E+03  0.7818608E-02  0.9954614E-01
         -2   -1    0    0    0  501 -0.00000000000E+00  0.00000000000E+00  0.25175462803E+03  0.25175462804E+03  0.25500000000E-02 0. -1.
          2   -1    0    0  501    0  0.00000000000E+00 -0.00000000000E+00 -0.33044732106E+03  0.33044732107E+03  0.25500000000E-02 0.  1.
    5000001    1    1    2    0    0 -0.17435631975E+03 -0.84204421825E+02  0.39480365033E+02  0.28044644785E+03  0.19900000000E+03 0.  0.
   -5000001    1    1    2    0    0  0.17435631975E+03  0.84204421825E+02 -0.11817305807E+03  0.30175550126E+03  0.19900000000E+03 0.  0.
<mgrwt>
<rscale>  0 0.57685923E+03</rscale>
<asrwt>0</asrwt>
<pdfrwt beam="1">  1        2 0.47206760E-01 0.57685923E+03</pdfrwt>
<pdfrwt beam="2">  1       -2 0.35964947E-01 0.57685923E+03</pdfrwt>
<totfact> 0.78192604E+02</totfact>
</mgrwt>
</event>
<event>
 4    1  0.4915183E-005  0.5339490E+03  0.7818608E-02  0.1005279E+00
         -2   -1    0    0    0  501 -0.00000000000E+00  0.00000000000E+00  0.10479475930E+04  0.10479475930E+04  0.25500000000E-02 0. -1.
          2   -1    0    0  501    0  0.00000000000E+00 -0.00000000000E+00 -0.68014258016E+02  0.68014258064E+02  0.25500000000E-02 0.  1.
    5000001    1    1    2    0    0 -0.15780724523E+03  0.47146788502E+02  0.63092164829E+03  0.68175440783E+03  0.19900000000E+03 0.  0.
   -5000001    1    1    2    0    0  0.15780724523E+03 -0.47146788502E+02  0.34901168670E+03  0.43420744325E+03  0.19900000000E+03 0.  0.
<mgrwt>
<rscale>  0 0.53394898E+03</rscale>
<asrwt>0</asrwt>
<pdfrwt beam="1">  1        2 0.97163231E-02 0.53394898E+03</pdfrwt>
<pdfrwt beam="2">  1       -2 0.14970679E+00 0.53394898E+03</pdfrwt>
<totfact> 0.21119516E+02</totfact>
</mgrwt>
</event>
<event>
 4    1  0.4915183E-005  0.1015016E+04  0.7818608E-02  0.9292227E-01
          2   -1    0    0  501    0  0.00000000000E+00  0.00000000000E+00  0.16947331141E+04  0.16947331141E+04  0.25500000000E-02 0.  1.
         -2   -1    0    0    0  501 -0.00000000000E+00 -0.00000000000E+00 -0.15197939384E+03  0.15197939386E+03  0.25500000000E-02 0. -1.
    5000001    1    1    2    0    0 -0.42971708818E+03 -0.14893162361E+03  0.96328699028E+03  0.10836790254E+04  0.19900000000E+03 0.  0.
   -5000001    1    1    2    0    0  0.42971708818E+03  0.14893162361E+03  0.57946672998E+03  0.76303348258E+03  0.19900000000E+03 0.  0.
<mgrwt>
<rscale>  0 0.10150163E+04</rscale>
<asrwt>0</asrwt>
<pdfrwt beam="1">  1        2 0.24210473E+00 0.10150163E+04</pdfrwt>
<pdfrwt beam="2">  1       -2 0.21711342E-01 0.10150163E+04</pdfrwt>
<totfact> 0.21258884E+02</totfact>
</mgrwt>
</event>
<event>
 4    1  0.4915183E-005  0.5071390E+03  0.7818608E-02  0.1011932E+00
         -2   -1    0    0    0  501 -0.00000000000E+00  0.00000000000E+00  0.57478152979E+02  0.57478153036E+02  0.25500000000E-02 0. -1.
          2   -1    0    0  501    0  0.00000000000E+00 -0.00000000000E+00 -0.11186422268E+04  0.11186422268E+04  0.25500000000E-02 0.  1.
    5000001    1    1    2    0    0  0.85947628805E+02 -0.17781832060E+02 -0.83289978461E+03  0.86082880972E+03  0.19900000000E+03 0.  0.
   -5000001    1    1    2    0    0 -0.85947628805E+02  0.17781832060E+02 -0.22826428917E+03  0.31529157007E+03  0.19900000000E+03 0.  0.
<mgrwt>
<rscale>  0 0.50713899E+03</rscale>
<asrwt>0</asrwt>
<pdfrwt beam="1">  1        2 0.15980602E+00 0.50713899E+03</pdfrwt>
<pdfrwt beam="2">  1       -2 0.82111654E-02 0.50713899E+03</pdfrwt>
<totfact> 0.22584814E+03</totfact>
</mgrwt>
</event>
<event>
 4    1  0.4915183E-005  0.4517200E+03  0.7818608E-02  0.1027210E+00
         -2   -1    0    0    0  501 -0.00000000000E+00  0.00000000000E+00  0.99487541854E+02  0.99487541887E+02  0.25500000000E-02 0. -1.
          2   -1    0    0  501    0  0.00000000000E+00 -0.00000000000E+00 -0.51275497738E+03  0.51275497739E+03  0.25500000000E-02 0.  1.
    5000001    1    1    2    0    0  0.93766548566E+01  0.95963030465E+02 -0.14430332282E+03  0.26404786280E+03  0.19900000000E+03 0.  0.
   -5000001    1    1    2    0    0 -0.93766548566E+01 -0.95963030465E+02 -0.26896411271E+03  0.34819465648E+03  0.19900000000E+03 0.  0.
<mgrwt>
<rscale>  0 0.45171997E+03</rscale>
<asrwt>0</asrwt>
<pdfrwt beam="1">  1        2 0.73250710E-01 0.45171997E+03</pdfrwt>
<pdfrwt beam="2">  1       -2 0.14212506E-01 0.45171997E+03</pdfrwt>
<totfact> 0.24816289E+03</totfact>
</mgrwt>
</event>
<event>
 4    1  0.4915183E-005  0.7150938E+03  0.7818608E-02  0.9691762E-01
          2   -1    0    0  501    0  0.00000000000E+00  0.00000000000E+00  0.13686918819E+04  0.13686918819E+04  0.25500000000E-02 0.  1.
         -2   -1    0    0    0  501 -0.00000000000E+00 -0.00000000000E+00 -0.93402888133E+02  0.93402888168E+02  0.25500000000E-02 0. -1.
    5000001    1    1    2    0    0 -0.17531926599E+03 -0.23411047884E+03  0.74377214198E+03  0.82361554169E+03  0.19900000000E+03 0.  0.
   -5000001    1    1    2    0    0  0.17531926599E+03  0.23411047884E+03  0.53151685176E+03  0.63847922835E+03  0.19900000000E+03 0.  0.
<mgrwt>
<rscale>  0 0.71509377E+03</rscale>
<asrwt>0</asrwt>
<pdfrwt beam="1">  1        2 0.19552740E+00 0.71509377E+03</pdfrwt>
<pdfrwt beam="2">  1       -2 0.13343271E-01 0.71509377E+03</pdfrwt>
<totfact> 0.74052707E+02</totfact>
</mgrwt>
</event>
<event>
 4    1  0.4915183E-005  0.9437971E+03  0.7818608E-02  0.9372430E-01
          2   -1    0    0  501    0  0.00000000000E+00  0.00000000000E+00  0.47162919533E+03  0.47162919534E+03  0.25500000000E-02 0.  1.
         -2   -1    0    0    0  501 -0.00000000000E+00 -0.00000000000E+00 -0.47216810535E+03  0.47216810536E+03  0.25500000000E-02 0. -1.
    5000001    1    1    2    0    0  0.25705857538E+03 -0.34203011900E+03  0.45833912643E+01  0.47189587936E+03  0.19900000000E+03 0.  0.
   -5000001    1    1    2    0    0 -0.25705857538E+03  0.34203011900E+03 -0.51223012859E+01  0.47190142133E+03  0.19900000000E+03 0.  0.
<mgrwt>
<rscale>  0 0.94379715E+03</rscale>
<asrwt>0</asrwt>
<pdfrwt beam="1">  1        2 0.67375600E-01 0.94379715E+03</pdfrwt>
<pdfrwt beam="2">  1       -2 0.67452586E-01 0.94379715E+03</pdfrwt>
<totfact> 0.14494793E+02</totfact>
</mgrwt>
</event>
<event>
 4    1  0.4915183E-005  0.8206531E+03  0.7818608E-02  0.9530594E-01
         -2   -1    0    0    0  501 -0.00000000000E+00  0.00000000000E+00  0.18565934477E+03  0.18565934478E+03  0.25500000000E-02 0. -1.
          2   -1    0    0  501    0  0.00000000000E+00 -0.00000000000E+00 -0.90686463493E+03  0.90686463494E+03  0.25500000000E-02 0.  1.
    5000001    1    1    2    0    0  0.24688036882E+03  0.25527959597E+03 -0.29207949079E+03  0.50102796086E+03  0.19900000000E+03 0.  0.
   -5000001    1    1    2    0    0 -0.24688036882E+03 -0.25527959597E+03 -0.42912579938E+03  0.59149601885E+03  0.19900000000E+03 0.  0.
<mgrwt>
<rscale>  0 0.82065314E+03</rscale>
<asrwt>0</asrwt>
<pdfrwt beam="1">  1        2 0.12955209E+00 0.82065314E+03</pdfrwt>
<pdfrwt beam="2">  1       -2 0.26522764E-01 0.82065314E+03</pdfrwt>
<totfact> 0.41505349E+02</totfact>
</mgrwt>
</event>
<event>
 4    1  0.4915183E-005  0.7777202E+03  0.7818608E-02  0.9592838E-01
          2   -1    0    0  501    0  0.00000000000E+00  0.00000000000E+00  0.30222319150E+04  0.30222319150E+04  0.25500000000E-02 0. -1.
         -2   -1    0    0    0  501 -0.00000000000E+00 -0.00000000000E+00 -0.50033274630E+02  0.50033274695E+02  0.25500000000E-02 0.  1.
    5000001    1    1    2    0    0  0.66464642861E+02 -0.18218520278E+03  0.41147280407E+03  0.49650766898E+03  0.19900000000E+03 0.  0.
   -5000001    1    1    2    0    0 -0.66464642861E+02  0.18218520278E+03  0.25607258363E+04  0.25757575207E+04  0.19900000000E+03 0.  0.
<mgrwt>
<rscale>  0 0.77772015E+03</rscale>
<asrwt>0</asrwt>
<pdfrwt beam="1">  1        2 0.43174755E+00 0.77772015E+03</pdfrwt>
<pdfrwt beam="2">  1       -2 0.71476084E-02 0.77772015E+03</pdfrwt>
<totfact> 0.28217289E+02</totfact>
</mgrwt>
</event>
<event>
 4    1  0.4915183E-005  0.7284684E+03  0.7818608E-02  0.9669749E-01
          2   -1    0    0  501    0  0.00000000000E+00  0.00000000000E+00  0.17537866296E+04  0.17537866296E+04  0.25500000000E-02 0.  1.
         -2   -1    0    0    0  501 -0.00000000000E+00 -0.00000000000E+00 -0.75645783467E+02  0.75645783510E+02  0.25500000000E-02 0. -1.
    5000001    1    1    2    0    0 -0.29682437244E+03 -0.70149800696E+02  0.82321491917E+03  0.90017193122E+03  0.19900000000E+03 0.  0.
   -5000001    1    1    2    0    0  0.29682437244E+03  0.70149800696E+02  0.85492592696E+03  0.92926048189E+03  0.19900000000E+03 0.  0.
<mgrwt>
<rscale>  0 0.72846843E+03</rscale>
<asrwt>0</asrwt>
<pdfrwt beam="1">  1        2 0.25054100E+00 0.72846843E+03</pdfrwt>
<pdfrwt beam="2">  1       -2 0.10806538E-01 0.72846843E+03</pdfrwt>
<totfact> 0.66051066E+02</totfact>
</mgrwt>
</event>
<event>
 4    1  0.4915183E-005  0.4600689E+03  0.7818608E-02  0.1024761E+00
          2   -1    0    0  501    0  0.00000000000E+00  0.00000000000E+00  0.28807194613E+03  0.28807194614E+03  0.25500000000E-02 0.  1.
         -2   -1    0    0    0  501 -0.00000000000E+00 -0.00000000000E+00 -0.18368965965E+03  0.18368965967E+03  0.25500000000E-02 0. -1.
    5000001    1    1    2    0    0  0.26976109137E+02 -0.76765490067E+02  0.13608857632E+03  0.25444400472E+03  0.19900000000E+03 0.  0.
   -5000001    1    1    2    0    0 -0.26976109137E+02  0.76765490067E+02 -0.31706289851E+02  0.21731760109E+03  0.19900000000E+03 0.  0.
<mgrwt>
<rscale>  0 0.46006885E+03</rscale>
<asrwt>0</asrwt>
<pdfrwt beam="1">  1        2 0.41153135E-01 0.46006885E+03</pdfrwt>
<pdfrwt beam="2">  1       -2 0.26241380E-01 0.46006885E+03</pdfrwt>
<totfact> 0.16282677E+03</totfact>
</mgrwt>
</event>
<event>
 4    1  0.4915183E-005  0.5421865E+03  0.7818608E-02  0.1003319E+00
          2   -1    0    0  501    0  0.00000000000E+00  0.00000000000E+00  0.50293372083E+03  0.50293372083E+03  0.25500000000E-02 0.  1.
         -2   -1    0    0    0  501 -0.00000000000E+00 -0.00000000000E+00 -0.14612569977E+03  0.14612569979E+03  0.25500000000E-02 0. -1.
    5000001    1    1    2    0    0  0.64837741610E+02 -0.14754210648E+03  0.28492661478E+03  0.38308847768E+03  0.19900000000E+03 0.  0.
   -5000001    1    1    2    0    0 -0.64837741610E+02  0.14754210648E+03  0.71881406274E+02  0.26597094294E+03  0.19900000000E+03 0.  0.
<mgrwt>
<rscale>  0 0.54218647E+03</rscale>
<asrwt>0</asrwt>
<pdfrwt beam="1">  1        2 0.71847674E-01 0.54218647E+03</pdfrwt>
<pdfrwt beam="2">  1       -2 0.20875100E-01 0.54218647E+03</pdfrwt>
<totfact> 0.13189409E+03</totfact>
</mgrwt>
</event>
<event>
 4    1  0.4915183E-005  0.6507026E+03  0.7818608E-02  0.9805462E-01
          2   -1    0    0  501    0  0.00000000000E+00  0.00000000000E+00  0.11964229243E+04  0.11964229243E+04  0.25500000000E-02 0.  1.
         -2   -1    0    0    0  501 -0.00000000000E+00 -0.00000000000E+00 -0.88474960530E+02  0.88474960567E+02  0.25500000000E-02 0. -1.
    5000001    1    1    2    0    0  0.20206420988E+03 -0.15744804381E+03  0.60364056201E+03  0.68527568140E+03  0.19900000000E+03 0.  0.
   -5000001    1    1    2    0    0 -0.20206420988E+03  0.15744804381E+03  0.50430740171E+03  0.59962220342E+03  0.19900000000E+03 0.  0.
<mgrwt>
<rscale>  0 0.65070261E+03</rscale>
<asrwt>0</asrwt>
<pdfrwt beam="1">  1        2 0.17091755E+00 0.65070261E+03</pdfrwt>
<pdfrwt beam="2">  1       -2 0.12639281E-01 0.65070261E+03</pdfrwt>
<totfact> 0.10101698E+03</totfact>
</mgrwt>
</event>
<event>
 4    1  0.4915183E-005  0.6189532E+03  0.7818608E-02  0.9866846E-01
          2   -1    0    0  501    0  0.00000000000E+00  0.00000000000E+00  0.96753928417E+03  0.96753928417E+03  0.25500000000E-02 0.  1.
         -2   -1    0    0    0  501 -0.00000000000E+00 -0.00000000000E+00 -0.98989017731E+02  0.98989017764E+02  0.25500000000E-02 0. -1.
    5000001    1    1    2    0    0 -0.22923959005E+03  0.48685422830E+02  0.49528667046E+03  0.58295020884E+03  0.19900000000E+03 0.  0.
   -5000001    1    1    2    0    0  0.22923959005E+03 -0.48685422830E+02  0.37326359597E+03  0.48357809310E+03  0.19900000000E+03 0.  0.
<mgrwt>
<rscale>  0 0.61895319E+03</rscale>
<asrwt>0</asrwt>
<pdfrwt beam="1">  1        2 0.13821990E+00 0.61895319E+03</pdfrwt>
<pdfrwt beam="2">  1       -2 0.14141288E-01 0.61895319E+03</pdfrwt>
<totfact> 0.11437470E+03</totfact>
</mgrwt>
</event>
<event>
 4    1  0.4915183E-005  0.5533176E+03  0.7818608E-02  0.1000729E+00
          2   -1    0    0  501    0  0.00000000000E+00  0.00000000000E+00  0.82217459178E+03  0.82217459178E+03  0.25500000000E-02 0.  1.
         -2   -1    0    0    0  501 -0.00000000000E+00 -0.00000000000E+00 -0.93094677800E+02  0.93094677835E+02  0.25500000000E-02 0. -1.
    5000001    1    1    2    0    0  0.17391491108E+03 -0.77791752327E+02  0.40642375243E+03  0.49099818692E+03  0.19900000000E+03 0.  0.
   -5000001    1    1    2    0    0 -0.17391491108E+03  0.77791752327E+02  0.32265616155E+03  0.42427108270E+03  0.19900000000E+03 0.  0.
<mgrwt>
<rscale>  0 0.55331755E+03</rscale>
<asrwt>0</asrwt>
<pdfrwt beam="1">  1        2 0.11745351E+00 0.55331755E+03</pdfrwt>
<pdfrwt beam="2">  1       -2 0.13299240E-01 0.55331755E+03</pdfrwt>
<totfact> 0.15756279E+03</totfact>
</mgrwt>
</event>
<event>
 4    1  0.4915183E-005  0.5825674E+03  0.7818608E-02  0.9942248E-01
          2   -1    0    0  501    0  0.00000000000E+00  0.00000000000E+00  0.16255259836E+04  0.16255259836E+04  0.25500000000E-02 0.  1.
         -2   -1    0    0    0  501 -0.00000000000E+00 -0.00000000000E+00 -0.52196144801E+02  0.52196144863E+02  0.25500000000E-02 0. -1.
    5000001    1    1    2    0    0 -0.45356712652E+02  0.19816497397E+03  0.96694154016E+03  0.10079203988E+04  0.19900000000E+03 0.  0.
   -5000001    1    1    2    0    0  0.45356712652E+02 -0.19816497397E+03  0.60638829860E+03  0.66980172960E+03  0.19900000000E+03 0.  0.
<mgrwt>
<rscale>  0 0.58256739E+03</rscale>
<asrwt>0</asrwt>
<pdfrwt beam="1">  1        2 0.23221801E+00 0.58256739E+03</pdfrwt>
<pdfrwt beam="2">  1       -2 0.74565919E-02 0.58256739E+03</pdfrwt>
<totfact> 0.14057765E+03</totfact>
</mgrwt>
</event>
<event>
 4    1  0.4915183E-005  0.4692569E+03  0.7818608E-02  0.1022130E+00
         -2   -1    0    0    0  501 -0.00000000000E+00  0.00000000000E+00  0.14392181417E+02  0.14392181643E+02  0.25500000000E-02 0. -1.
          2   -1    0    0  501    0  0.00000000000E+00 -0.00000000000E+00 -0.38250291766E+04  0.38250291766E+04  0.25500000000E-02 0.  1.
    5000001    1    1    2    0    0  0.11722126022E+03 -0.40583421638E+02 -0.18410624096E+04  0.18559363227E+04  0.19900000000E+03 0.  0.
   -5000001    1    1    2    0    0 -0.11722126022E+03  0.40583421638E+02 -0.19695745856E+04  0.19834850356E+04  0.19900000000E+03 0.  0.
<mgrwt>
<rscale>  0 0.46925692E+03</rscale>
<asrwt>0</asrwt>
<pdfrwt beam="1">  1        2 0.54643209E+00 0.46925692E+03</pdfrwt>
<pdfrwt beam="2">  1       -2 0.20560284E-02 0.46925692E+03</pdfrwt>
<totfact> 0.66993255E+02</totfact>
</mgrwt>
</event>
<event>
 4    1  0.4915183E-005  0.6740153E+03  0.7818608E-02  0.9762731E-01
         -2   -1    0    0    0  501 -0.00000000000E+00  0.00000000000E+00  0.60392011086E+02  0.60392011140E+02  0.25500000000E-02 0. -1.
          2   -1    0    0  501    0  0.00000000000E+00 -0.00000000000E+00 -0.18806153694E+04  0.18806153694E+04  0.25500000000E-02 0.  1.
    5000001    1    1    2    0    0  0.34545457889E+02 -0.26943876207E+03 -0.94901617119E+03  0.10069872533E+04  0.19900000000E+03 0.  0.
   -5000001    1    1    2    0    0 -0.34545457889E+02  0.26943876207E+03 -0.87120718717E+03  0.93402012727E+03  0.19900000000E+03 0.  0.
<mgrwt>
<rscale>  0 0.67401526E+03</rscale>
<asrwt>0</asrwt>
<pdfrwt beam="1">  1        2 0.26865930E+00 0.67401526E+03</pdfrwt>
<pdfrwt beam="2">  1       -2 0.86274313E-02 0.67401526E+03</pdfrwt>
<totfact> 0.82306754E+02</totfact>
</mgrwt>
</event>
<event>
 4    1  0.4915183E-005  0.8688634E+03  0.7818608E-02  0.9465363E-01
         -2   -1    0    0    0  501 -0.00000000000E+00  0.00000000000E+00  0.58244260436E+03  0.58244260437E+03  0.25500000000E-02 0. -1.
          2   -1    0    0  501    0  0.00000000000E+00 -0.00000000000E+00 -0.32403348263E+03  0.32403348264E+03  0.25500000000E-02 0.  1.
    5000001    1    1    2    0    0 -0.19867443290E+03  0.32109928072E+03  0.21366351703E+03  0.47731475661E+03  0.19900000000E+03 0.  0.
   -5000001    1    1    2    0    0  0.19867443290E+03 -0.32109928072E+03  0.44745604705E+02  0.42916133040E+03  0.19900000000E+03 0.  0.
<mgrwt>
<rscale>  0 0.86886341E+03</rscale>
<asrwt>0</asrwt>
<pdfrwt beam="1">  1        2 0.46290497E-01 0.86886341E+03</pdfrwt>
<pdfrwt beam="2">  1       -2 0.83206087E-01 0.86886341E+03</pdfrwt>
<totfact> 0.13912384E+02</totfact>
</mgrwt>
</event>
<event>
 4    1  0.4915183E-005  0.6374243E+03  0.7818608E-02  0.9830667E-01
          2   -1    0    0  501    0  0.00000000000E+00  0.00000000000E+00  0.16152492460E+04  0.16152492460E+04  0.25500000000E-02 0.  1.
         -2   -1    0    0    0  501 -0.00000000000E+00 -0.00000000000E+00 -0.62886544953E+02  0.62886545004E+02  0.25500000000E-02 0. -1.
    5000001    1    1    2    0    0  0.79357204072E+01 -0.11857242194E+03  0.13520955819E+04  0.13718184491E+04  0.19900000000E+03 0.  0.
   -5000001    1    1    2    0    0 -0.79357204072E+01  0.11857242194E+03  0.20026711919E+03  0.30631734187E+03  0.19900000000E+03 0.  0.
<mgrwt>
<rscale>  0 0.63742433E+03</rscale>
<asrwt>0</asrwt>
<pdfrwt beam="1">  1        2 0.23074992E+00 0.63742433E+03</pdfrwt>
<pdfrwt beam="2">  1       -2 0.89837910E-02 0.63742433E+03</pdfrwt>
<totfact> 0.10543219E+03</totfact>
</mgrwt>
</event>
<event>
 4    1  0.4915183E-005  0.6304966E+03  0.7818608E-02  0.9844080E-01
         -2   -1    0    0    0  501 -0.00000000000E+00  0.00000000000E+00  0.11745024987E+03  0.11745024990E+03  0.25500000000E-02 0. -1.
          2   -1    0    0  501    0  0.00000000000E+00 -0.00000000000E+00 -0.84615816066E+03  0.84615816067E+03  0.25500000000E-02 0.  1.
    5000001    1    1    2    0    0 -0.10727708948E+03  0.19289889404E+03 -0.52509886262E+03  0.60336404664E+03  0.19900000000E+03 0.  0.
   -5000001    1    1    2    0    0  0.10727708948E+03 -0.19289889404E+03 -0.20360904817E+03  0.36024436393E+03  0.19900000000E+03 0.  0.
<mgrwt>
<rscale>  0 0.63049659E+03</rscale>
<asrwt>0</asrwt>
<pdfrwt beam="1">  1        2 0.12087973E+00 0.63049659E+03</pdfrwt>
<pdfrwt beam="2">  1       -2 0.16778608E-01 0.63049659E+03</pdfrwt>
<totfact> 0.10255102E+03</totfact>
</mgrwt>
</event>
<event>
 4    1  0.4915183E-005  0.7727189E+03  0.7818608E-02  0.9600367E-01
         -2   -1    0    0    0  501 -0.00000000000E+00  0.00000000000E+00  0.27027315001E+03  0.27027315002E+03  0.25500000000E-02 0. -1.
          2   -1    0    0  501    0  0.00000000000E+00 -0.00000000000E+00 -0.55230651630E+03  0.55230651631E+03  0.25500000000E-02 0.  1.
    5000001    1    1    2    0    0  0.16379151212E+03  0.26358089947E+03 -0.26410683593E+03  0.45349307690E+03  0.19900000000E+03 0.  0.
   -5000001    1    1    2    0    0 -0.16379151212E+03 -0.26358089947E+03 -0.17926530360E+02  0.36908658943E+03  0.19900000000E+03 0.  0.
<mgrwt>
<rscale>  0 0.77271889E+03</rscale>
<asrwt>0</asrwt>
<pdfrwt beam="1">  1        2 0.78900931E-01 0.77271889E+03</pdfrwt>
<pdfrwt beam="2">  1       -2 0.38610450E-01 0.77271889E+03</pdfrwt>
<totfact> 0.38112181E+02</totfact>
</mgrwt>
</event>
<event>
 4    1  0.4915183E-005  0.6257060E+03  0.7818608E-02  0.9853464E-01
          2   -1    0    0  501    0  0.00000000000E+00  0.00000000000E+00  0.12316821033E+04  0.12316821033E+04  0.25500000000E-02 0.  1.
         -2   -1    0    0    0  501 -0.00000000000E+00 -0.00000000000E+00 -0.79466127311E+02  0.79466127352E+02  0.25500000000E-02 0. -1.
    5000001    1    1    2    0    0  0.54552260485E+02 -0.22443523588E+03  0.42899341494E+03  0.52629219478E+03  0.19900000000E+03 0.  0.
   -5000001    1    1    2    0    0 -0.54552260485E+02  0.22443523588E+03  0.72322256104E+03  0.78485603586E+03  0.19900000000E+03 0.  0.
<mgrwt>
<rscale>  0 0.62570602E+03</rscale>
<asrwt>0</asrwt>
<pdfrwt beam="1">  1        2 0.17595458E+00 0.62570602E+03</pdfrwt>
<pdfrwt beam="2">  1       -2 0.11352304E-01 0.62570602E+03</pdfrwt>
<totfact> 0.11531498E+03</totfact>
</mgrwt>
</event>
<event>
 4    1  0.4915183E-005  0.5727772E+03  0.7818608E-02  0.9963552E-01
         -2   -1    0    0    0  501 -0.00000000000E+00  0.00000000000E+00  0.20859243472E+03  0.20859243473E+03  0.25500000000E-02 0. -1.
          2   -1    0    0  501    0  0.00000000000E+00 -0.00000000000E+00 -0.39319944577E+03  0.39319944578E+03  0.25500000000E-02 0.  1.
    5000001    1    1    2    0    0 -0.12479367974E+03  0.75873119146E+02  0.60266949960E+02  0.25409308918E+03  0.19900000000E+03 0.  0.
   -5000001    1    1    2    0    0  0.12479367974E+03 -0.75873119146E+02 -0.24487396102E+03  0.34769879134E+03  0.19900000000E+03 0.  0.
<mgrwt>
<rscale>  0 0.57277720E+03</rscale>
<asrwt>0</asrwt>
<pdfrwt beam="1">  1        2 0.56171349E-01 0.57277720E+03</pdfrwt>
<pdfrwt beam="2">  1       -2 0.29798919E-01 0.57277720E+03</pdfrwt>
<totfact> 0.91760806E+02</totfact>
</mgrwt>
</event>
<event>
 4    1  0.4915183E-005  0.1240271E+04  0.7818608E-02  0.9078320E-01
         -2   -1    0    0    0  501 -0.00000000000E+00  0.00000000000E+00  0.22533914818E+04  0.22533914818E+04  0.25500000000E-02 0. -1.
          2   -1    0    0  501    0  0.00000000000E+00 -0.00000000000E+00 -0.17066196263E+03  0.17066196265E+03  0.25500000000E-02 0.  1.
    5000001    1    1    2    0    0 -0.34015589140E+03  0.47282427464E+03  0.89382757174E+03  0.10852638173E+04  0.19900000000E+03 0.  0.
   -5000001    1    1    2    0    0  0.34015589140E+03 -0.47282427464E+03  0.11889019474E+04  0.13387896271E+04  0.19900000000E+03 0.  0.
<mgrwt>
<rscale>  0 0.12402713E+04</rscale>
<asrwt>0</asrwt>
<pdfrwt beam="1">  1        2 0.24380283E-01 0.12402713E+04</pdfrwt>
<pdfrwt beam="2">  1       -2 0.32191304E+00 0.12402713E+04</pdfrwt>
<totfact> 0.52383880E+00</totfact>
</mgrwt>
</event>
<event>
 4    1  0.4915183E-005  0.1550722E+04  0.7818608E-02  0.8851407E-01
         -2   -1    0    0    0  501 -0.00000000000E+00  0.00000000000E+00  0.31500408215E+04  0.31500408215E+04  0.25500000000E-02 0. -1.
          2   -1    0    0  501    0  0.00000000000E+00 -0.00000000000E+00 -0.19084986778E+03  0.19084986780E+03  0.25500000000E-02 0.  1.
    5000001    1    1    2    0    0  0.57932825735E+03 -0.12720272325E+03  0.24663576081E+04  0.25444690239E+04  0.19900000000E+03 0.  0.
   -5000001    1    1    2    0    0 -0.57932825735E+03  0.12720272325E+03  0.49283334562E+03  0.79642166540E+03  0.19900000000E+03 0.  0.
<mgrwt>
<rscale>  0 0.15507223E+04</rscale>
<asrwt>0</asrwt>
<pdfrwt beam="1">  1        2 0.27264268E-01 0.15507223E+04</pdfrwt>
<pdfrwt beam="2">  1       -2 0.45000581E+00 0.15507223E+04</pdfrwt>
<totfact> 0.66986294E-01</totfact>
</mgrwt>
</event>
<event>
 4    1  0.4915183E-005  0.6557148E+03  0.7818608E-02  0.9796114E-01
         -2   -1    0    0    0  501 -0.00000000000E+00  0.00000000000E+00  0.70672402259E+02  0.70672402305E+02  0.25500000000E-02 0. -1.
          2   -1    0    0  501    0  0.00000000000E+00 -0.00000000000E+00 -0.15209683669E+04  0.15209683669E+04  0.25500000000E-02 0.  1.
    5000001    1    1    2    0    0  0.25001022270E+03 -0.47454597412E+02 -0.58929434071E+03  0.67203115274E+03  0.19900000000E+03 0.  0.
   -5000001    1    1    2    0    0 -0.25001022270E+03  0.47454597412E+02 -0.86100162392E+03  0.91960961645E+03  0.19900000000E+03 0.  0.
<mgrwt>
<rscale>  0 0.65571484E+03</rscale>
<asrwt>0</asrwt>
<pdfrwt beam="1">  1        2 0.21728117E+00 0.65571484E+03</pdfrwt>
<pdfrwt beam="2">  1       -2 0.10096058E-01 0.65571484E+03</pdfrwt>
<totfact> 0.97596934E+02</totfact>
</mgrwt>
</event>
<event>
 4    1  0.4915183E-005  0.1234474E+04  0.7818608E-02  0.9083205E-01
          2   -1    0    0  501    0  0.00000000000E+00  0.00000000000E+00  0.26556237132E+04  0.26556237132E+04  0.25500000000E-02 0.  1.
         -2   -1    0    0    0  501 -0.00000000000E+00 -0.00000000000E+00 -0.14346219633E+03  0.14346219635E+03  0.25500000000E-02 0. -1.
    5000001    1    1    2    0    0 -0.29594836351E+03 -0.49894690586E+03  0.14139428983E+04  0.15412232052E+04  0.19900000000E+03 0.  0.
   -5000001    1    1    2    0    0  0.29594836351E+03  0.49894690586E+03  0.10982186187E+04  0.12578627044E+04  0.19900000000E+03 0.  0.
<mgrwt>
<rscale>  0 0.12344742E+04</rscale>
<asrwt>0</asrwt>
<pdfrwt beam="1">  1        2 0.37937475E+00 0.12344742E+04</pdfrwt>
<pdfrwt beam="2">  1       -2 0.20494603E-01 0.12344742E+04</pdfrwt>
<totfact> 0.73870579E+01</totfact>
</mgrwt>
</event>
<event>
 4    1  0.4915183E-005  0.8949517E+03  0.7818608E-02  0.9431914E-01
          2   -1    0    0  501    0  0.00000000000E+00  0.00000000000E+00  0.36509647714E+03  0.36509647715E+03  0.25500000000E-02 0.  1.
         -2   -1    0    0    0  501 -0.00000000000E+00 -0.00000000000E+00 -0.54844304200E+03  0.54844304200E+03  0.25500000000E-02 0. -1.
    5000001    1    1    2    0    0  0.33599893035E+03 -0.16207090714E+03  0.57901217042E+02  0.42675029124E+03  0.19900000000E+03 0.  0.
   -5000001    1    1    2    0    0 -0.33599893035E+03  0.16207090714E+03 -0.24124778190E+03  0.48678922791E+03  0.19900000000E+03 0.  0.
<mgrwt>
<rscale>  0 0.89495167E+03</rscale>
<asrwt>0</asrwt>
<pdfrwt beam="1">  1        2 0.52156640E-01 0.89495167E+03</pdfrwt>
<pdfrwt beam="2">  1       -2 0.78349006E-01 0.89495167E+03</pdfrwt>
<totfact> 0.13933999E+02</totfact>
</mgrwt>
</event>
<event>
 4    1  0.4915183E-005  0.7552314E+03  0.7818608E-02  0.9627179E-01
         -2   -1    0    0    0  501 -0.00000000000E+00  0.00000000000E+00  0.25945294525E+03  0.25945294526E+03  0.25500000000E-02 0. -1.
          2   -1    0    0  501    0  0.00000000000E+00 -0.00000000000E+00 -0.54959334543E+03  0.54959334544E+03  0.25500000000E-02 0.  1.
    5000001    1    1    2    0    0  0.82900807783E+02  0.31002526146E+03 -0.14731868946E+03  0.40532949922E+03  0.19900000000E+03 0.  0.
   -5000001    1    1    2    0    0 -0.82900807783E+02 -0.31002526146E+03 -0.14282171072E+03  0.40371679148E+03  0.19900000000E+03 0.  0.
<mgrwt>
<rscale>  0 0.75523139E+03</rscale>
<asrwt>0</asrwt>
<pdfrwt beam="1">  1        2 0.78513335E-01 0.75523139E+03</pdfrwt>
<pdfrwt beam="2">  1       -2 0.37064706E-01 0.75523139E+03</pdfrwt>
<totfact> 0.41497855E+02</totfact>
</mgrwt>
</event>
<event>
 4    1  0.4915183E-005  0.4794055E+03  0.7818608E-02  0.1019299E+00
         -2   -1    0    0    0  501 -0.00000000000E+00  0.00000000000E+00  0.11023156653E+03  0.11023156656E+03  0.25500000000E-02 0. -1.
          2   -1    0    0  501    0  0.00000000000E+00 -0.00000000000E+00 -0.52124272155E+03  0.52124272156E+03  0.25500000000E-02 0.  1.
    5000001    1    1    2    0    0  0.12755102841E+03  0.16840625584E+02 -0.15794871019E+03  0.28478354336E+03  0.19900000000E+03 0.  0.
   -5000001    1    1    2    0    0 -0.12755102841E+03 -0.16840625584E+02 -0.25306244482E+03  0.34669074476E+03  0.19900000000E+03 0.  0.
<mgrwt>
<rscale>  0 0.47940547E+03</rscale>
<asrwt>0</asrwt>
<pdfrwt beam="1">  1        2 0.74463245E-01 0.47940547E+03</pdfrwt>
<pdfrwt beam="2">  1       -2 0.15747367E-01 0.47940547E+03</pdfrwt>
<totfact> 0.20527951E+03</totfact>
</mgrwt>
</event>
<event>
 4    1  0.4915183E-005  0.4746006E+03  0.7818608E-02  0.1020630E+00
          2   -1    0    0  501    0  0.00000000000E+00  0.00000000000E+00  0.34029304789E+03  0.34029304790E+03  0.25500000000E-02 0.  1.
         -2   -1    0    0    0  501 -0.00000000000E+00 -0.00000000000E+00 -0.16547923952E+03  0.16547923954E+03  0.25500000000E-02 0. -1.
    5000001    1    1    2    0    0  0.37343164029E+02 -0.11176258298E+03  0.30764764874E+02  0.23330850309E+03  0.19900000000E+03 0.  0.
   -5000001    1    1    2    0    0 -0.37343164029E+02  0.11176258298E+03  0.14404904350E+03  0.27246378436E+03  0.19900000000E+03 0.  0.
<mgrwt>
<rscale>  0 0.47460061E+03</rscale>
<asrwt>0</asrwt>
<pdfrwt beam="1">  1        2 0.48613292E-01 0.47460061E+03</pdfrwt>
<pdfrwt beam="2">  1       -2 0.23639892E-01 0.47460061E+03</pdfrwt>
<totfact> 0.16349513E+03</totfact>
</mgrwt>
</event>
<event>
 4    1  0.4915183E-005  0.8996778E+03  0.7818608E-02  0.9425984E-01
          2   -1    0    0  501    0  0.00000000000E+00  0.00000000000E+00  0.10414601110E+04  0.10414601110E+04  0.25500000000E-02 0.  1.
         -2   -1    0    0    0  501 -0.00000000000E+00 -0.00000000000E+00 -0.19429934411E+03  0.19429934413E+03  0.25500000000E-02 0. -1.
    5000001    1    1    2    0    0 -0.78173920177E+02 -0.35465594586E+03  0.66488136924E+03  0.78330085975E+03  0.19900000000E+03 0.  0.
   -5000001    1    1    2    0    0  0.78173920177E+02  0.35465594586E+03  0.18227939766E+03  0.45245859539E+03  0.19900000000E+03 0.  0.
<mgrwt>
<rscale>  0 0.89967776E+03</rscale>
<asrwt>0</asrwt>
<pdfrwt beam="1">  1        2 0.14878002E+00 0.89967776E+03</pdfrwt>
<pdfrwt beam="2">  1       -2 0.27757049E-01 0.89967776E+03</pdfrwt>
<totfact> 0.31353760E+02</totfact>
</mgrwt>
</event>
<event>
 4    1  0.4915183E-005  0.6819949E+03  0.7818608E-02  0.9748529E-01
         -2   -1    0    0    0  501 -0.00000000000E+00  0.00000000000E+00  0.37927094925E+02  0.37927095011E+02  0.25500000000E-02 0. -1.
          2   -1    0    0  501    0  0.00000000000E+00 -0.00000000000E+00 -0.30658626149E+04  0.30658626149E+04  0.25500000000E-02 0.  1.
    5000001    1    1    2    0    0  0.15650390189E+03 -0.21826155209E+03 -0.12070947831E+04  0.12525216134E+04  0.19900000000E+03 0.  0.
   -5000001    1    1    2    0    0 -0.15650390189E+03  0.21826155209E+03 -0.18208407368E+04  0.18512680965E+04  0.19900000000E+03 0.  0.
<mgrwt>
<rscale>  0 0.68199490E+03</rscale>
<asrwt>0</asrwt>
<pdfrwt beam="1">  1        2 0.43798022E+00 0.68199490E+03</pdfrwt>
<pdfrwt beam="2">  1       -2 0.54181584E-02 0.68199490E+03</pdfrwt>
<totfact> 0.41695812E+02</totfact>
</mgrwt>
</event>
<event>
 4    1  0.4915183E-005  0.1127319E+04  0.7818608E-02  0.9178966E-01
          2   -1    0    0  501    0  0.00000000000E+00  0.00000000000E+00  0.44584978654E+03  0.44584978654E+03  0.25500000000E-02 0.  1.
         -2   -1    0    0    0  501 -0.00000000000E+00 -0.00000000000E+00 -0.71259943948E+03  0.71259943948E+03  0.25500000000E-02 0. -1.
    5000001    1    1    2    0    0 -0.37217011908E+03  0.26370451546E+03  0.13862400313E+03  0.51659295703E+03  0.19900000000E+03 0.  0.
   -5000001    1    1    2    0    0  0.37217011908E+03 -0.26370451546E+03 -0.40537365607E+03  0.64185626899E+03  0.19900000000E+03 0.  0.
<mgrwt>
<rscale>  0 0.11273195E+04</rscale>
<asrwt>0</asrwt>
<pdfrwt beam="1">  1        2 0.63692826E-01 0.11273195E+04</pdfrwt>
<pdfrwt beam="2">  1       -2 0.10179992E+00 0.11273195E+04</pdfrwt>
<totfact> 0.60107193E+01</totfact>
</mgrwt>
</event>
<event>
 4    1  0.4915183E-005  0.6967263E+03  0.7818608E-02  0.9722847E-01
          2   -1    0    0  501    0  0.00000000000E+00  0.00000000000E+00  0.34439362798E+03  0.34439362799E+03  0.25500000000E-02 0.  1.
         -2   -1    0    0    0  501 -0.00000000000E+00 -0.00000000000E+00 -0.35237838825E+03  0.35237838826E+03  0.25500000000E-02 0. -1.
    5000001    1    1    2    0    0 -0.10754201532E+02  0.26039837025E+03 -0.12161348498E+03  0.34973390429E+03  0.19900000000E+03 0.  0.
   -5000001    1    1    2    0    0  0.10754201532E+02 -0.26039837025E+03  0.11362872470E+03  0.34703811197E+03  0.19900000000E+03 0.  0.
<mgrwt>
<rscale>  0 0.69672626E+03</rscale>
<asrwt>0</asrwt>
<pdfrwt beam="1">  1        2 0.49199090E-01 0.69672626E+03</pdfrwt>
<pdfrwt beam="2">  1       -2 0.50339769E-01 0.69672626E+03</pdfrwt>
<totfact> 0.38474232E+02</totfact>
</mgrwt>
</event>
<event>
 4    1  0.4915183E-005  0.8892324E+03  0.7818608E-02  0.9439142E-01
         -2   -1    0    0    0  501 -0.00000000000E+00  0.00000000000E+00  0.10027127216E+03  0.10027127219E+03  0.25500000000E-02 0. -1.
          2   -1    0    0  501    0  0.00000000000E+00 -0.00000000000E+00 -0.19714874644E+04  0.19714874644E+04  0.25500000000E-02 0.  1.
    5000001    1    1    2    0    0  0.16806684605E+03 -0.33945168125E+03 -0.12172056744E+04  0.12902188041E+04  0.19900000000E+03 0.  0.
   -5000001    1    1    2    0    0 -0.16806684605E+03  0.33945168125E+03 -0.65401051783E+03  0.78153993249E+03  0.19900000000E+03 0.  0.
<mgrwt>
<rscale>  0 0.88923238E+03</rscale>
<asrwt>0</asrwt>
<pdfrwt beam="1">  1        2 0.28164104E+00 0.88923238E+03</pdfrwt>
<pdfrwt beam="2">  1       -2 0.14324469E-01 0.88923238E+03</pdfrwt>
<totfact> 0.31733599E+02</totfact>
</mgrwt>
</event>
<event>
 4    1  0.4915183E-005  0.7870977E+03  0.7818608E-02  0.9578883E-01
         -2   -1    0    0    0  501 -0.00000000000E+00  0.00000000000E+00  0.33468278867E+03  0.33468278868E+03  0.25500000000E-02 0. -1.
          2   -1    0    0  501    0  0.00000000000E+00 -0.00000000000E+00 -0.46276859521E+03  0.46276859522E+03  0.25500000000E-02 0.  1.
    5000001    1    1    2    0    0 -0.89420747033E+02  0.24283478422E+03  0.15865496045E+03  0.36295619419E+03  0.19900000000E+03 0.  0.
   -5000001    1    1    2    0    0  0.89420747033E+02 -0.24283478422E+03 -0.28674076699E+03  0.43449518971E+03  0.19900000000E+03 0.  0.
<mgrwt>
<rscale>  0 0.78709767E+03</rscale>
<asrwt>0</asrwt>
<pdfrwt beam="1">  1        2 0.66109800E-01 0.78709767E+03</pdfrwt>
<pdfrwt beam="2">  1       -2 0.47811827E-01 0.78709767E+03</pdfrwt>
<totfact> 0.30598401E+02</totfact>
</mgrwt>
</event>
<event>
 4    1  0.4915183E-005  0.5678295E+03  0.7818608E-02  0.9974493E-01
          2   -1    0    0  501    0  0.00000000000E+00  0.00000000000E+00  0.24010141984E+04  0.24010141984E+04  0.25500000000E-02 0.  1.
         -2   -1    0    0    0  501 -0.00000000000E+00 -0.00000000000E+00 -0.33572305396E+02  0.33572305493E+02  0.25500000000E-02 0. -1.
    5000001    1    1    2    0    0 -0.31685839123E+02  0.18155632278E+03  0.82397969235E+03  0.86747347173E+03  0.19900000000E+03 0.  0.
   -5000001    1    1    2    0    0  0.31685839123E+02 -0.18155632278E+03  0.15434622006E+04  0.15671130321E+04  0.19900000000E+03 0.  0.
<mgrwt>
<rscale>  0 0.56782949E+03</rscale>
<asrwt>0</asrwt>
<pdfrwt beam="1">  1        2 0.34300208E+00 0.56782949E+03</pdfrwt>
<pdfrwt beam="2">  1       -2 0.47960429E-02 0.56782949E+03</pdfrwt>
<totfact> 0.11406313E+03</totfact>
</mgrwt>
</event>
<event>
 4    1  0.4915183E-005  0.7565704E+03  0.7818608E-02  0.9625099E-01
         -2   -1    0    0    0  501 -0.00000000000E+00  0.00000000000E+00  0.18105858411E+03  0.18105858413E+03  0.25500000000E-02 0. -1.
          2   -1    0    0  501    0  0.00000000000E+00 -0.00000000000E+00 -0.79035014217E+03  0.79035014217E+03  0.25500000000E-02 0.  1.
    5000001    1    1    2    0    0 -0.31733855850E+03  0.42380728237E+02 -0.34522371553E+03  0.51115584766E+03  0.19900000000E+03 0.  0.
   -5000001    1    1    2    0    0  0.31733855850E+03 -0.42380728237E+02 -0.26406784253E+03  0.46025287864E+03  0.19900000000E+03 0.  0.
<mgrwt>
<rscale>  0 0.75657036E+03</rscale>
<asrwt>0</asrwt>
<pdfrwt beam="1">  1        2 0.11290716E+00 0.75657036E+03</pdfrwt>
<pdfrwt beam="2">  1       -2 0.25865512E-01 0.75657036E+03</pdfrwt>
<totfact> 0.52189732E+02</totfact>
</mgrwt>
</event>
<event>
 4    1  0.4915183E-005  0.7359088E+03  0.7818608E-02  0.9657720E-01
          2   -1    0    0  501    0  0.00000000000E+00  0.00000000000E+00  0.67512503523E+03  0.67512503524E+03  0.25500000000E-02 0.  1.
         -2   -1    0    0    0  501 -0.00000000000E+00 -0.00000000000E+00 -0.20054126158E+03  0.20054126159E+03  0.25500000000E-02 0. -1.
    5000001    1    1    2    0    0  0.26754112787E+03 -0.15558453453E+03  0.23985055918E+03  0.43921986889E+03  0.19900000000E+03 0.  0.
   -5000001    1    1    2    0    0 -0.26754112787E+03  0.15558453453E+03  0.23473321447E+03  0.43644642794E+03  0.19900000000E+03 0.  0.
<mgrwt>
<rscale>  0 0.73590876E+03</rscale>
<asrwt>0</asrwt>
<pdfrwt beam="1">  1        2 0.96446432E-01 0.73590876E+03</pdfrwt>
<pdfrwt beam="2">  1       -2 0.28648752E-01 0.73590876E+03</pdfrwt>
<totfact> 0.52759268E+02</totfact>
</mgrwt>
</event>
<event>
 4    1  0.4915183E-005  0.7960934E+03  0.7818608E-02  0.9565689E-01
         -2   -1    0    0    0  501 -0.00000000000E+00  0.00000000000E+00  0.23014444823E+03  0.23014444824E+03  0.25500000000E-02 0. -1.
          2   -1    0    0  501    0  0.00000000000E+00 -0.00000000000E+00 -0.68844231676E+03  0.68844231677E+03  0.25500000000E-02 0.  1.
    5000001    1    1    2    0    0  0.17432501295E+03  0.29731955761E+03 -0.22082446106E+03  0.45514016751E+03  0.19900000000E+03 0.  0.
   -5000001    1    1    2    0    0 -0.17432501295E+03 -0.29731955761E+03 -0.23747340748E+03  0.46344659750E+03  0.19900000000E+03 0.  0.
<mgrwt>
<rscale>  0 0.79609340E+03</rscale>
<asrwt>0</asrwt>
<pdfrwt beam="1">  1        2 0.98348901E-01 0.79609340E+03</pdfrwt>
<pdfrwt beam="2">  1       -2 0.32877779E-01 0.79609340E+03</pdfrwt>
<totfact> 0.39785142E+02</totfact>
</mgrwt>
</event>
<event>
 4    1  0.4915183E-005  0.5888375E+03  0.7818608E-02  0.9928839E-01
          2   -1    0    0  501    0  0.00000000000E+00  0.00000000000E+00  0.92010851271E+03  0.92010851271E+03  0.25500000000E-02 0.  1.
         -2   -1    0    0    0  501 -0.00000000000E+00 -0.00000000000E+00 -0.94208887771E+02  0.94208887806E+02  0.25500000000E-02 0. -1.
    5000001    1    1    2    0    0  0.12698444005E+03  0.18833897519E+02  0.71428561843E+03  0.75251890901E+03  0.19900000000E+03 0.  0.
   -5000001    1    1    2    0    0 -0.12698444005E+03 -0.18833897519E+02  0.11161400651E+03  0.26179849151E+03  0.19900000000E+03 0.  0.
<mgrwt>
<rscale>  0 0.58883750E+03</rscale>
<asrwt>0</asrwt>
<pdfrwt beam="1">  1        2 0.13144407E+00 0.58883750E+03</pdfrwt>
<pdfrwt beam="2">  1       -2 0.13458413E-01 0.58883750E+03</pdfrwt>
<totfact> 0.13313549E+03</totfact>
</mgrwt>
</event>
<event>
 4    1  0.4915183E-005  0.5746446E+03  0.7818608E-02  0.9959453E-01
          2   -1    0    0  501    0  0.00000000000E+00  0.00000000000E+00  0.16082028396E+04  0.16082028396E+04  0.25500000000E-02 0.  1.
         -2   -1    0    0    0  501 -0.00000000000E+00 -0.00000000000E+00 -0.51333134572E+02  0.51333134636E+02  0.25500000000E-02 0. -1.
    5000001    1    1    2    0    0  0.74363427732E+02 -0.15059877775E+03  0.42777747685E+03  0.50080383479E+03  0.19900000000E+03 0.  0.
   -5000001    1    1    2    0    0 -0.74363427732E+02  0.15059877775E+03  0.11290922281E+04  0.11587321394E+04  0.19900000000E+03 0.  0.
<mgrwt>
<rscale>  0 0.57464456E+03</rscale>
<asrwt>0</asrwt>
<pdfrwt beam="1">  1        2 0.22974320E+00 0.57464456E+03</pdfrwt>
<pdfrwt beam="2">  1       -2 0.73333070E-02 0.57464456E+03</pdfrwt>
<totfact> 0.14736397E+03</totfact>
</mgrwt>
</event>
<event>
 4    1  0.4915183E-005  0.8249322E+03  0.7818608E-02  0.9524614E-01
          2   -1    0    0  501    0  0.00000000000E+00  0.00000000000E+00  0.80945094165E+03  0.80945094165E+03  0.25500000000E-02 0.  1.
         -2   -1    0    0    0  501 -0.00000000000E+00 -0.00000000000E+00 -0.21017736254E+03  0.21017736255E+03  0.25500000000E-02 0. -1.
    5000001    1    1    2    0    0  0.14638675742E+03 -0.24325867633E+03  0.57580629304E+03  0.67212926842E+03  0.19900000000E+03 0.  0.
   -5000001    1    1    2    0    0 -0.14638675742E+03  0.24325867633E+03  0.23467286078E+02  0.34749903579E+03  0.19900000000E+03 0.  0.
<mgrwt>
<rscale>  0 0.82493215E+03</rscale>
<asrwt>0</asrwt>
<pdfrwt beam="1">  1        2 0.11563585E+00 0.82493215E+03</pdfrwt>
<pdfrwt beam="2">  1       -2 0.30025338E-01 0.82493215E+03</pdfrwt>
<totfact> 0.38401235E+02</totfact>
</mgrwt>
</event>
<event>
 4    1  0.4915183E-005  0.7328922E+03  0.7818608E-02  0.9662579E-01
          2   -1    0    0  501    0  0.00000000000E+00  0.00000000000E+00  0.32888316928E+03  0.32888316929E+03  0.25500000000E-02 0.  1.
         -2   -1    0    0    0  501 -0.00000000000E+00 -0.00000000000E+00 -0.40829925809E+03  0.40829925810E+03  0.25500000000E-02 0. -1.
    5000001    1    1    2    0    0 -0.28897559143E+03  0.83938538980E+02 -0.10434292301E+03  0.37555427883E+03  0.19900000000E+03 0.  0.
   -5000001    1    1    2    0    0  0.28897559143E+03 -0.83938538980E+02  0.24926834207E+02  0.36162814856E+03  0.19900000000E+03 0.  0.
<mgrwt>
<rscale>  0 0.73289223E+03</rscale>
<asrwt>0</asrwt>
<pdfrwt beam="1">  1        2 0.46983310E-01 0.73289223E+03</pdfrwt>
<pdfrwt beam="2">  1       -2 0.58328465E-01 0.73289223E+03</pdfrwt>
<totfact> 0.29841606E+02</totfact>
</mgrwt>
</event>
<event>
 4    1  0.4915183E-005  0.5650952E+03  0.7818608E-02  0.9980591E-01
         -2   -1    0    0    0  501 -0.00000000000E+00  0.00000000000E+00  0.93430132436E+02  0.93430132471E+02  0.25500000000E-02 0. -1.
          2   -1    0    0  501    0  0.00000000000E+00 -0.00000000000E+00 -0.85446885413E+03  0.85446885413E+03  0.25500000000E-02 0.  1.
    5000001    1    1    2    0    0  0.17611674163E+03  0.94428070292E+02 -0.35154466901E+03  0.45068661113E+03  0.19900000000E+03 0.  0.
   -5000001    1    1    2    0    0 -0.17611674163E+03 -0.94428070292E+02 -0.40949405269E+03  0.49721237548E+03  0.19900000000E+03 0.  0.
<mgrwt>
<rscale>  0 0.56509517E+03</rscale>
<asrwt>0</asrwt>
<pdfrwt beam="1">  1        2 0.12206697E+00 0.56509517E+03</pdfrwt>
<pdfrwt beam="2">  1       -2 0.13347162E-01 0.56509517E+03</pdfrwt>
<totfact> 0.14897427E+03</totfact>
</mgrwt>
</event>
<event>
 4    1  0.4915183E-005  0.1229829E+04  0.7818608E-02  0.9087140E-01
         -2   -1    0    0    0  501 -0.00000000000E+00  0.00000000000E+00  0.22579077357E+03  0.22579077359E+03  0.25500000000E-02 0. -1.
          2   -1    0    0  501    0  0.00000000000E+00 -0.00000000000E+00 -0.16746476452E+04  0.16746476452E+04  0.25500000000E-02 0.  1.
    5000001    1    1    2    0    0 -0.17123162512E+03  0.51783481598E+03 -0.41135698705E+03  0.71153969452E+03  0.19900000000E+03 0.  0.
   -5000001    1    1    2    0    0  0.17123162512E+03 -0.51783481598E+03 -0.10374998846E+04  0.11888987243E+04  0.19900000000E+03 0.  0.
<mgrwt>
<rscale>  0 0.12298292E+04</rscale>
<asrwt>0</asrwt>
<pdfrwt beam="1">  1        2 0.23923537E+00 0.12298292E+04</pdfrwt>
<pdfrwt beam="2">  1       -2 0.32255826E-01 0.12298292E+04</pdfrwt>
<totfact> 0.10415587E+02</totfact>
</mgrwt>
</event>
<event>
 4    1  0.4915183E-005  0.1168190E+04  0.7818608E-02  0.9141164E-01
         -2   -1    0    0    0  501 -0.00000000000E+00  0.00000000000E+00  0.19107110172E+03  0.19107110173E+03  0.25500000000E-02 0. -1.
          2   -1    0    0  501    0  0.00000000000E+00 -0.00000000000E+00 -0.17855507692E+04  0.17855507692E+04  0.25500000000E-02 0.  1.
    5000001    1    1    2    0    0 -0.17615916843E+03 -0.42003184647E+03 -0.13163048539E+04  0.14070246171E+04  0.19900000000E+03 0.  0.
   -5000001    1    1    2    0    0  0.17615916843E+03  0.42003184647E+03 -0.27817481355E+03  0.56959725382E+03  0.19900000000E+03 0.  0.
<mgrwt>
<rscale>  0 0.11681903E+04</rscale>
<asrwt>0</asrwt>
<pdfrwt beam="1">  1        2 0.25507867E+00 0.11681903E+04</pdfrwt>
<pdfrwt beam="2">  1       -2 0.27295873E-01 0.11681903E+04</pdfrwt>
<totfact> 0.12501123E+02</totfact>
</mgrwt>
</event>
<event>
 4    1  0.4915183E-005  0.6256494E+03  0.7818608E-02  0.9853576E-01
          2   -1    0    0  501    0  0.00000000000E+00  0.00000000000E+00  0.77989743575E+03  0.77989743575E+03  0.25500000000E-02 0. -1.
         -2   -1    0    0    0  501 -0.00000000000E+00 -0.00000000000E+00 -0.12547713405E+03  0.12547713408E+03  0.25500000000E-02 0.  1.
    5000001    1    1    2    0    0 -0.21365909817E+03  0.33175362425E+02  0.17197596336E+03  0.34048134585E+03  0.19900000000E+03 0.  0.
   -5000001    1    1    2    0    0  0.21365909817E+03 -0.33175362425E+02  0.48244433833E+03  0.56489322398E+03  0.19900000000E+03 0.  0.
<mgrwt>
<rscale>  0 0.62564941E+03</rscale>
<asrwt>0</asrwt>
<pdfrwt beam="1">  1        2 0.11141392E+00 0.62564941E+03</pdfrwt>
<pdfrwt beam="2">  1       -2 0.17925305E-01 0.62564941E+03</pdfrwt>
<totfact> 0.10171842E+03</totfact>
</mgrwt>
</event>
<event>
 4    1  0.4915183E-005  0.4185177E+03  0.7818608E-02  0.1037550E+00
         -2   -1    0    0    0  501 -0.00000000000E+00  0.00000000000E+00  0.19423848049E+03  0.19423848051E+03  0.25500000000E-02 0. -1.
          2   -1    0    0  501    0  0.00000000000E+00 -0.00000000000E+00 -0.22544073297E+03  0.22544073298E+03  0.25500000000E-02 0.  1.
    5000001    1    1    2    0    0 -0.57284978911E+02  0.23287052326E+02 -0.34743626439E+02  0.21126281072E+03  0.19900000000E+03 0.  0.
   -5000001    1    1    2    0    0  0.57284978911E+02 -0.23287052326E+02  0.35413739631E+01  0.20841640277E+03  0.19900000000E+03 0.  0.
<mgrwt>
<rscale>  0 0.41851770E+03</rscale>
<asrwt>0</asrwt>
<pdfrwt beam="1">  1        2 0.32205819E-01 0.41851770E+03</pdfrwt>
<pdfrwt beam="2">  1       -2 0.27748354E-01 0.41851770E+03</pdfrwt>
<totfact> 0.19264691E+03</totfact>
</mgrwt>
</event>
<event>
 4    1  0.4915183E-005  0.5237434E+03  0.7818608E-02  0.1007761E+00
         -2   -1    0    0    0  501 -0.00000000000E+00  0.00000000000E+00  0.25932581132E+02  0.25932581258E+02  0.25500000000E-02 0.  1.
          2   -1    0    0  501    0  0.00000000000E+00 -0.00000000000E+00 -0.26444262018E+04  0.26444262018E+04  0.25500000000E-02 0. -1.
    5000001    1    1    2    0    0 -0.13334878706E+03  0.24066573932E+02 -0.18345437211E+04  0.18502736997E+04  0.19900000000E+03 0.  0.
   -5000001    1    1    2    0    0  0.13334878706E+03 -0.24066573932E+02 -0.78394989948E+03  0.82008508332E+03  0.19900000000E+03 0.  0.
<mgrwt>
<rscale>  0 0.52374344E+03</rscale>
<asrwt>0</asrwt>
<pdfrwt beam="1">  1        2 0.37777500E+00 0.52374344E+03</pdfrwt>
<pdfrwt beam="2">  1       -2 0.37046561E-02 0.52374344E+03</pdfrwt>
<totfact> 0.12764047E+03</totfact>
</mgrwt>
</event>
<event>
 4    1  0.4915183E-005  0.7751029E+03  0.7818608E-02  0.9596771E-01
         -2   -1    0    0    0  501 -0.00000000000E+00  0.00000000000E+00  0.80870913272E+02  0.80870913312E+02  0.25500000000E-02 0. -1.
          2   -1    0    0  501    0  0.00000000000E+00 -0.00000000000E+00 -0.18572331158E+04  0.18572331158E+04  0.25500000000E-02 0.  1.
    5000001    1    1    2    0    0  0.18759458114E+03  0.27457480937E+03 -0.87948850891E+03  0.96108485063E+03  0.19900000000E+03 0.  0.
   -5000001    1    1    2    0    0 -0.18759458114E+03 -0.27457480937E+03 -0.89687369358E+03  0.97701917845E+03  0.19900000000E+03 0.  0.
<mgrwt>
<rscale>  0 0.77510293E+03</rscale>
<asrwt>0</asrwt>
<pdfrwt beam="1">  1        2 0.26531899E+00 0.77510293E+03</pdfrwt>
<pdfrwt beam="2">  1       -2 0.11552989E-01 0.77510293E+03</pdfrwt>
<totfact> 0.52290909E+02</totfact>
</mgrwt>
</event>
<event>
 4    1  0.4915183E-005  0.6308132E+03  0.7818608E-02  0.9843463E-01
         -2   -1    0    0    0  501 -0.00000000000E+00  0.00000000000E+00  0.52201118937E+03  0.52201118938E+03  0.25500000000E-02 0. -1.
          2   -1    0    0  501    0  0.00000000000E+00 -0.00000000000E+00 -0.19057314912E+03  0.19057314914E+03  0.25500000000E-02 0.  1.
    5000001    1    1    2    0    0  0.12995140987E+03  0.20557667832E+03  0.13517356002E+03  0.34208483001E+03  0.19900000000E+03 0.  0.
   -5000001    1    1    2    0    0 -0.12995140987E+03 -0.20557667832E+03  0.19626448024E+03  0.37049950850E+03  0.19900000000E+03 0.  0.
<mgrwt>
<rscale>  0 0.63081318E+03</rscale>
<asrwt>0</asrwt>
<pdfrwt beam="1">  1        2 0.27224735E-01 0.63081318E+03</pdfrwt>
<pdfrwt beam="2">  1       -2 0.74573028E-01 0.63081318E+03</pdfrwt>
<totfact> 0.32457373E+02</totfact>
</mgrwt>
</event>
<event>
 4    1  0.4915183E-005  0.9925235E+03  0.7818608E-02  0.9316783E-01
         -2   -1    0    0    0  501 -0.00000000000E+00  0.00000000000E+00  0.33293862432E+03  0.33293862433E+03  0.25500000000E-02 0.  1.
          2   -1    0    0  501    0  0.00000000000E+00 -0.00000000000E+00 -0.73970304463E+03  0.73970304463E+03  0.25500000000E-02 0. -1.
    5000001    1    1    2    0    0  0.11244555937E+03  0.40936813140E+02  0.27060376100E+03  0.35657709118E+03  0.19900000000E+03 0.  0.
   -5000001    1    1    2    0    0 -0.11244555937E+03 -0.40936813140E+02 -0.67736818131E+03  0.71606457777E+03  0.19900000000E+03 0.  0.
<mgrwt>
<rscale>  0 0.99252348E+03</rscale>
<asrwt>0</asrwt>
<pdfrwt beam="1">  1        2 0.10567186E+00 0.99252348E+03</pdfrwt>
<pdfrwt beam="2">  1       -2 0.47562661E-01 0.99252348E+03</pdfrwt>
<totfact> 0.17567486E+02</totfact>
</mgrwt>
</event>
<event>
 4    1  0.4915183E-005  0.1163591E+04  0.7818608E-02  0.9145336E-01
          2   -1    0    0  501    0  0.00000000000E+00  0.00000000000E+00  0.48814757285E+03  0.48814757286E+03  0.25500000000E-02 0.  1.
         -2   -1    0    0    0  501 -0.00000000000E+00 -0.00000000000E+00 -0.69340952111E+03  0.69340952111E+03  0.25500000000E-02 0. -1.
    5000001    1    1    2    0    0 -0.33363864105E+03 -0.79082943412E+02 -0.53501804260E+03  0.66589350548E+03  0.19900000000E+03 0.  0.
   -5000001    1    1    2    0    0  0.33363864105E+03  0.79082943412E+02  0.32975609434E+03  0.51566358849E+03  0.19900000000E+03 0.  0.
<mgrwt>
<rscale>  0 0.11635913E+04</rscale>
<asrwt>0</asrwt>
<pdfrwt beam="1">  1        2 0.69735368E-01 0.11635913E+04</pdfrwt>
<pdfrwt beam="2">  1       -2 0.99058502E-01 0.11635913E+04</pdfrwt>
<totfact> 0.57725619E+01</totfact>
</mgrwt>
</event>
<event>
 4    1  0.4915183E-005  0.7029724E+03  0.7818608E-02  0.9712162E-01
         -2   -1    0    0    0  501 -0.00000000000E+00  0.00000000000E+00  0.98516521999E+02  0.98516522032E+02  0.25500000000E-02 0. -1.
          2   -1    0    0  501    0  0.00000000000E+00 -0.00000000000E+00 -0.12540287971E+04  0.12540287971E+04  0.25500000000E-02 0.  1.
    5000001    1    1    2    0    0 -0.99228706948E+02  0.26306058299E+03 -0.71236107993E+03  0.79126892698E+03  0.19900000000E+03 0.  0.
   -5000001    1    1    2    0    0  0.99228706948E+02 -0.26306058299E+03 -0.44315119514E+03  0.56127639213E+03  0.19900000000E+03 0.  0.
<mgrwt>
<rscale>  0 0.70297242E+03</rscale>
<asrwt>0</asrwt>
<pdfrwt beam="1">  1        2 0.17914696E+00 0.70297242E+03</pdfrwt>
<pdfrwt beam="2">  1       -2 0.14073790E-01 0.70297242E+03</pdfrwt>
<totfact> 0.78267756E+02</totfact>
</mgrwt>
</event>
<event>
 4    1  0.4915183E-005  0.6363604E+03  0.7818608E-02  0.9832715E-01
         -2   -1    0    0    0  501 -0.00000000000E+00  0.00000000000E+00  0.67090116312E+02  0.67090116360E+02  0.25500000000E-02 0. -1.
          2   -1    0    0  501    0  0.00000000000E+00 -0.00000000000E+00 -0.15089946435E+04  0.15089946435E+04  0.25500000000E-02 0.  1.
    5000001    1    1    2    0    0 -0.17461085228E+03 -0.17192691454E+03 -0.62219946615E+03  0.69769691798E+03  0.19900000000E+03 0.  0.
   -5000001    1    1    2    0    0  0.17461085228E+03  0.17192691454E+03 -0.81970506103E+03  0.87838784188E+03  0.19900000000E+03 0.  0.
<mgrwt>
<rscale>  0 0.63636036E+03</rscale>
<asrwt>0</asrwt>
<pdfrwt beam="1">  1        2 0.21557064E+00 0.63636036E+03</pdfrwt>
<pdfrwt beam="2">  1       -2 0.95843033E-02 0.63636036E+03</pdfrwt>
<totfact> 0.10780866E+03</totfact>
</mgrwt>
</event>
<event>
 4    1  0.4915183E-005  0.8653498E+03  0.7818608E-02  0.9469963E-01
          2   -1    0    0  501    0  0.00000000000E+00  0.00000000000E+00  0.10817737902E+04  0.10817737902E+04  0.25500000000E-02 0.  1.
         -2   -1    0    0    0  501 -0.00000000000E+00 -0.00000000000E+00 -0.17305611509E+03  0.17305611511E+03  0.25500000000E-02 0. -1.
    5000001    1    1    2    0    0  0.22950699326E+03 -0.24314249825E+03  0.17993322622E+03  0.42868251692E+03  0.19900000000E+03 0.  0.
   -5000001    1    1    2    0    0 -0.22950699326E+03  0.24314249825E+03  0.72878444888E+03  0.82614738839E+03  0.19900000000E+03 0.  0.
<mgrwt>
<rscale>  0 0.86534980E+03</rscale>
<asrwt>0</asrwt>
<pdfrwt beam="1">  1        2 0.15453911E+00 0.86534980E+03</pdfrwt>
<pdfrwt beam="2">  1       -2 0.24722302E-01 0.86534980E+03</pdfrwt>
<totfact> 0.36670956E+02</totfact>
</mgrwt>
</event>
<event>
 4    1  0.4915183E-005  0.1950261E+04  0.7818608E-02  0.8630235E-01
         -2   -1    0    0    0  501 -0.00000000000E+00  0.00000000000E+00  0.41426152959E+03  0.41426152960E+03  0.25500000000E-02 0. -1.
          2   -1    0    0  501    0  0.00000000000E+00 -0.00000000000E+00 -0.22953607828E+04  0.22953607828E+04  0.25500000000E-02 0.  1.
    5000001    1    1    2    0    0 -0.73167387539E+03 -0.45034828318E+03 -0.15186292207E+04  0.17561309592E+04  0.19900000000E+03 0.  0.
   -5000001    1    1    2    0    0  0.73167387539E+03  0.45034828318E+03 -0.36247003256E+03  0.95349135318E+03  0.19900000000E+03 0.  0.
<mgrwt>
<rscale>  0 0.19502612E+04</rscale>
<asrwt>0</asrwt>
<pdfrwt beam="1">  1        2 0.32790867E+00 0.19502612E+04</pdfrwt>
<pdfrwt beam="2">  1       -2 0.59180220E-01 0.19502612E+04</pdfrwt>
<totfact> 0.14083614E+01</totfact>
</mgrwt>
</event>
<event>
 4    1  0.4915183E-005  0.4573347E+03  0.7818608E-02  0.1025557E+00
          2   -1    0    0  501    0  0.00000000000E+00  0.00000000000E+00  0.23131291198E+03  0.23131291200E+03  0.25500000000E-02 0.  1.
         -2   -1    0    0    0  501 -0.00000000000E+00 -0.00000000000E+00 -0.22605208551E+03  0.22605208552E+03  0.25500000000E-02 0. -1.
    5000001    1    1    2    0    0 -0.61405795838E+02  0.94195113440E+02 -0.40314842623E+01  0.22860587049E+03  0.19900000000E+03 0.  0.
   -5000001    1    1    2    0    0  0.61405795838E+02 -0.94195113440E+02  0.92923107390E+01  0.22875912703E+03  0.19900000000E+03 0.  0.
<mgrwt>
<rscale>  0 0.45733474E+03</rscale>
<asrwt>0</asrwt>
<pdfrwt beam="1">  1        2 0.33044702E-01 0.45733474E+03</pdfrwt>
<pdfrwt beam="2">  1       -2 0.32293155E-01 0.45733474E+03</pdfrwt>
<totfact> 0.14186966E+03</totfact>
</mgrwt>
</event>
<event>
 4    1  0.4915183E-005  0.5090053E+03  0.7818608E-02  0.1011455E+00
         -2   -1    0    0    0  501 -0.00000000000E+00  0.00000000000E+00  0.24698097182E+03  0.24698097183E+03  0.25500000000E-02 0.  1.
          2   -1    0    0  501    0  0.00000000000E+00 -0.00000000000E+00 -0.26225335864E+03  0.26225335866E+03  0.25500000000E-02 0. -1.
    5000001    1    1    2    0    0  0.12519638259E+02  0.96491613705E+02  0.11773267653E+03  0.25085724223E+03  0.19900000000E+03 0.  0.
   -5000001    1    1    2    0    0 -0.12519638259E+02 -0.96491613705E+02 -0.13300506335E+03  0.25837708826E+03  0.19900000000E+03 0.  0.
<mgrwt>
<rscale>  0 0.50900526E+03</rscale>
<asrwt>0</asrwt>
<pdfrwt beam="1">  1        2 0.37464765E-01 0.50900526E+03</pdfrwt>
<pdfrwt beam="2">  1       -2 0.35282996E-01 0.50900526E+03</pdfrwt>
<totfact> 0.10463321E+03</totfact>
</mgrwt>
</event>
<event>
 4    1  0.4915183E-005  0.5372944E+03  0.7818608E-02  0.1004478E+00
          2   -1    0    0  501    0  0.00000000000E+00  0.00000000000E+00  0.70160420326E+03  0.70160420326E+03  0.25500000000E-02 0.  1.
         -2   -1    0    0    0  501 -0.00000000000E+00 -0.00000000000E+00 -0.10286613280E+03  0.10286613283E+03  0.25500000000E-02 0. -1.
    5000001    1    1    2    0    0 -0.26513070646E+02 -0.16120918449E+03  0.41417071839E+03  0.48767789375E+03  0.19900000000E+03 0.  0.
   -5000001    1    1    2    0    0  0.26513070646E+02  0.16120918449E+03  0.18456735207E+03  0.31679244235E+03  0.19900000000E+03 0.  0.
<mgrwt>
<rscale>  0 0.53729437E+03</rscale>
<asrwt>0</asrwt>
<pdfrwt beam="1">  1        2 0.10022917E+00 0.53729437E+03</pdfrwt>
<pdfrwt beam="2">  1       -2 0.14695162E-01 0.53729437E+03</pdfrwt>
<totfact> 0.16270452E+03</totfact>
</mgrwt>
</event>
<event>
 4    1  0.4915183E-005  0.6238705E+03  0.7818608E-02  0.9857084E-01
          2   -1    0    0  501    0  0.00000000000E+00  0.00000000000E+00  0.13843306202E+03  0.13843306204E+03  0.25500000000E-02 0.  1.
         -2   -1    0    0    0  501 -0.00000000000E+00 -0.00000000000E+00 -0.70289279819E+03  0.70289279819E+03  0.25500000000E-02 0. -1.
    5000001    1    1    2    0    0 -0.21802548161E+03 -0.60032925010E+02 -0.39148424351E+03  0.49396353675E+03  0.19900000000E+03 0.  0.
   -5000001    1    1    2    0    0  0.21802548161E+03  0.60032925010E+02 -0.17297549266E+03  0.34736232349E+03  0.19900000000E+03 0.  0.
<mgrwt>
<rscale>  0 0.62387051E+03</rscale>
<asrwt>0</asrwt>
<pdfrwt beam="1">  1        2 0.19776152E-01 0.62387051E+03</pdfrwt>
<pdfrwt beam="2">  1       -2 0.10041325E+00 0.62387051E+03</pdfrwt>
<totfact> 0.23821624E+02</totfact>
</mgrwt>
</event>
<event>
 4    1  0.4915183E-005  0.6991001E+03  0.7818608E-02  0.9718772E-01
         -2   -1    0    0    0  501 -0.00000000000E+00  0.00000000000E+00  0.42154442938E+03  0.42154442939E+03  0.25500000000E-02 0. -1.
          2   -1    0    0  501    0  0.00000000000E+00 -0.00000000000E+00 -0.28985136263E+03  0.28985136264E+03  0.25500000000E-02 0.  1.
    5000001    1    1    2    0    0  0.28319472693E+03 -0.48333742830E+02  0.58736279196E+02  0.35438165098E+03  0.19900000000E+03 0.  0.
   -5000001    1    1    2    0    0 -0.28319472693E+03  0.48333742830E+02  0.72956787554E+02  0.35701414105E+03  0.19900000000E+03 0.  0.
<mgrwt>
<rscale>  0 0.69910007E+03</rscale>
<asrwt>0</asrwt>
<pdfrwt beam="1">  1        2 0.41407337E-01 0.69910007E+03</pdfrwt>
<pdfrwt beam="2">  1       -2 0.60220633E-01 0.69910007E+03</pdfrwt>
<totfact> 0.32130335E+02</totfact>
</mgrwt>
</event>
<event>
 4    1  0.4915183E-005  0.4581940E+03  0.7818608E-02  0.1025306E+00
          2   -1    0    0  501    0  0.00000000000E+00  0.00000000000E+00  0.92062548365E+02  0.92062548400E+02  0.25500000000E-02 0.  1.
         -2   -1    0    0    0  501 -0.00000000000E+00 -0.00000000000E+00 -0.57010619670E+03  0.57010619671E+03  0.25500000000E-02 0. -1.
    5000001    1    1    2    0    0 -0.64896116319E+02 -0.55113408386E+02 -0.13053348725E+03  0.25276270491E+03  0.19900000000E+03 0.  0.
   -5000001    1    1    2    0    0  0.64896116319E+02  0.55113408386E+02 -0.34751016108E+03  0.40940604020E+03  0.19900000000E+03 0.  0.
<mgrwt>
<rscale>  0 0.45819397E+03</rscale>
<asrwt>0</asrwt>
<pdfrwt beam="1">  1        2 0.13151793E-01 0.45819397E+03</pdfrwt>
<pdfrwt beam="2">  1       -2 0.81443740E-01 0.45819397E+03</pdfrwt>
<totfact> 0.62966077E+02</totfact>
</mgrwt>
</event>
<event>
 4    1  0.4915183E-005  0.5978275E+03  0.7818608E-02  0.9909924E-01
          2   -1    0    0  501    0  0.00000000000E+00  0.00000000000E+00  0.67594169674E+03  0.67594169674E+03  0.25500000000E-02 0.  1.
         -2   -1    0    0    0  501 -0.00000000000E+00 -0.00000000000E+00 -0.13218510859E+03  0.13218510862E+03  0.25500000000E-02 0. -1.
    5000001    1    1    2    0    0 -0.14902879556E+03 -0.81909457393E+02  0.76783811194E+02  0.27279203577E+03  0.19900000000E+03 0.  0.
   -5000001    1    1    2    0    0  0.14902879556E+03  0.81909457393E+02  0.46697277695E+03  0.53533476959E+03  0.19900000000E+03 0.  0.
<mgrwt>
<rscale>  0 0.59782749E+03</rscale>
<asrwt>0</asrwt>
<pdfrwt beam="1">  1        2 0.96563098E-01 0.59782749E+03</pdfrwt>
<pdfrwt beam="2">  1       -2 0.18883587E-01 0.59782749E+03</pdfrwt>
<totfact> 0.11106610E+03</totfact>
</mgrwt>
</event>
<event>
 4    1  0.4915183E-005  0.6021154E+03  0.7818608E-02  0.9901027E-01
         -2   -1    0    0    0  501 -0.00000000000E+00  0.00000000000E+00  0.34087077436E+02  0.34087077531E+02  0.25500000000E-02 0. -1.
          2   -1    0    0  501    0  0.00000000000E+00 -0.00000000000E+00 -0.26589473330E+04  0.26589473330E+04  0.25500000000E-02 0.  1.
    5000001    1    1    2    0    0 -0.59039781386E+02  0.20641947456E+03 -0.99806977897E+03  0.10401148874E+04  0.19900000000E+03 0.  0.
   -5000001    1    1    2    0    0  0.59039781386E+02 -0.20641947456E+03 -0.16267904766E+04  0.16529195231E+04  0.19900000000E+03 0.  0.
<mgrwt>
<rscale>  0 0.60211542E+03</rscale>
<asrwt>0</asrwt>
<pdfrwt beam="1">  1        2 0.37984949E+00 0.60211542E+03</pdfrwt>
<pdfrwt beam="2">  1       -2 0.48695842E-02 0.60211542E+03</pdfrwt>
<totfact> 0.81874391E+02</totfact>
</mgrwt>
</event>
<event>
 4    1  0.4915183E-005  0.6866369E+03  0.7818608E-02  0.9740362E-01
          2   -1    0    0  501    0  0.00000000000E+00  0.00000000000E+00  0.25382262902E+03  0.25382262903E+03  0.25500000000E-02 0. -1.
         -2   -1    0    0    0  501 -0.00000000000E+00 -0.00000000000E+00 -0.46436980637E+03  0.46436980638E+03  0.25500000000E-02 0.  1.
    5000001    1    1    2    0    0  0.15728413499E+03 -0.51107039860E+01 -0.34720891049E+03  0.43002261096E+03  0.19900000000E+03 0.  0.
   -5000001    1    1    2    0    0 -0.15728413499E+03  0.51107039860E+01  0.13666173314E+03  0.28816982445E+03  0.19900000000E+03 0.  0.
<mgrwt>
<rscale>  0 0.68663692E+03</rscale>
<asrwt>0</asrwt>
<pdfrwt beam="1">  1        2 0.36260375E-01 0.68663692E+03</pdfrwt>
<pdfrwt beam="2">  1       -2 0.66338544E-01 0.68663692E+03</pdfrwt>
<totfact> 0.30310953E+02</totfact>
</mgrwt>
</event>
<event>
 4    1  0.4915183E-005  0.1574902E+04  0.7818608E-02  0.8836117E-01
          2   -1    0    0  501    0  0.00000000000E+00  0.00000000000E+00  0.23233329610E+04  0.23233329610E+04  0.25500000000E-02 0.  1.
         -2   -1    0    0    0  501 -0.00000000000E+00 -0.00000000000E+00 -0.26689203701E+03  0.26689203702E+03  0.25500000000E-02 0. -1.
    5000001    1    1    2    0    0 -0.10525492360E+02  0.59148867625E+03  0.18178572308E+04  0.19220238166E+04  0.19900000000E+03 0.  0.
   -5000001    1    1    2    0    0  0.10525492360E+02 -0.59148867625E+03  0.23858369315E+03  0.66820118135E+03  0.19900000000E+03 0.  0.
<mgrwt>
<rscale>  0 0.15749020E+04</rscale>
<asrwt>0</asrwt>
<pdfrwt beam="1">  1        2 0.33190468E+00 0.15749020E+04</pdfrwt>
<pdfrwt beam="2">  1       -2 0.38127437E-01 0.15749020E+04</pdfrwt>
<totfact> 0.34129748E+01</totfact>
</mgrwt>
</event>
<event>
 4    1  0.4915183E-005  0.4863901E+03  0.7818608E-02  0.1017394E+00
          2   -1    0    0  501    0  0.00000000000E+00  0.00000000000E+00  0.86032320465E+03  0.86032320465E+03  0.25500000000E-02 0.  1.
         -2   -1    0    0    0  501 -0.00000000000E+00 -0.00000000000E+00 -0.68746053399E+02  0.68746053447E+02  0.25500000000E-02 0. -1.
    5000001    1    1    2    0    0  0.38231747405E+02  0.13437001824E+03  0.38607565653E+03  0.45625911594E+03  0.19900000000E+03 0.  0.
   -5000001    1    1    2    0    0 -0.38231747405E+02 -0.13437001824E+03  0.40550149472E+03  0.47281014216E+03  0.19900000000E+03 0.  0.
<mgrwt>
<rscale>  0 0.48639007E+03</rscale>
<asrwt>0</asrwt>
<pdfrwt beam="1">  1        2 0.12290331E+00 0.48639007E+03</pdfrwt>
<pdfrwt beam="2">  1       -2 0.98208653E-02 0.48639007E+03</pdfrwt>
<totfact> 0.24389421E+03</totfact>
</mgrwt>
</event>
<event>
 4    1  0.4915183E-005  0.6260541E+03  0.7818608E-02  0.9852779E-01
          2   -1    0    0  501    0  0.00000000000E+00  0.00000000000E+00  0.31601750566E+03  0.31601750567E+03  0.25500000000E-02 0.  1.
         -2   -1    0    0    0  501 -0.00000000000E+00 -0.00000000000E+00 -0.31006486702E+03  0.31006486703E+03  0.25500000000E-02 0. -1.
    5000001    1    1    2    0    0 -0.17555558306E+03 -0.11439509031E+03 -0.11735753054E+03  0.31189708143E+03  0.19900000000E+03 0.  0.
   -5000001    1    1    2    0    0  0.17555558306E+03  0.11439509031E+03  0.12331016917E+03  0.31418529127E+03  0.19900000000E+03 0.  0.
<mgrwt>
<rscale>  0 0.62605407E+03</rscale>
<asrwt>0</asrwt>
<pdfrwt beam="1">  1        2 0.45145358E-01 0.62605407E+03</pdfrwt>
<pdfrwt beam="2">  1       -2 0.44294981E-01 0.62605407E+03</pdfrwt>
<totfact> 0.54786331E+02</totfact>
</mgrwt>
</event>
<event>
 4    1  0.4915183E-005  0.1396874E+04  0.7818608E-02  0.8956084E-01
         -2   -1    0    0    0  501 -0.00000000000E+00  0.00000000000E+00  0.14733742310E+04  0.14733742310E+04  0.25500000000E-02 0. -1.
          2   -1    0    0  501    0  0.00000000000E+00 -0.00000000000E+00 -0.33108646956E+03  0.33108646957E+03  0.25500000000E-02 0.  1.
    5000001    1    1    2    0    0 -0.34987517414E+03  0.12817270322E+03 -0.14736304611E+03  0.44738992690E+03  0.19900000000E+03 0.  0.
   -5000001    1    1    2    0    0  0.34987517414E+03 -0.12817270322E+03  0.12896508076E+04  0.13570707737E+04  0.19900000000E+03 0.  0.
<mgrwt>
<rscale>  0 0.13968740E+04</rscale>
<asrwt>0</asrwt>
<pdfrwt beam="1">  1        2 0.47298067E-01 0.13968740E+04</pdfrwt>
<pdfrwt beam="2">  1       -2 0.21048203E+00 0.13968740E+04</pdfrwt>
<totfact> 0.11838723E+01</totfact>
</mgrwt>
</event>
<event>
 4    1  0.4915183E-005  0.7445687E+03  0.7818608E-02  0.9643910E-01
         -2   -1    0    0    0  501 -0.00000000000E+00  0.00000000000E+00  0.84662019439E+02  0.84662019477E+02  0.25500000000E-02 0. -1.
          2   -1    0    0  501    0  0.00000000000E+00 -0.00000000000E+00 -0.16370460972E+04  0.16370460972E+04  0.25500000000E-02 0.  1.
    5000001    1    1    2    0    0  0.29590099987E+02  0.19427482763E+03 -0.13443749629E+04  0.13731581568E+04  0.19900000000E+03 0.  0.
   -5000001    1    1    2    0    0 -0.29590099987E+02 -0.19427482763E+03 -0.20800911482E+03  0.34854995986E+03  0.19900000000E+03 0.  0.
<mgrwt>
<rscale>  0 0.74456868E+03</rscale>
<asrwt>0</asrwt>
<pdfrwt beam="1">  1        2 0.23386371E+00 0.74456868E+03</pdfrwt>
<pdfrwt beam="2">  1       -2 0.12094575E-01 0.74456868E+03</pdfrwt>
<totfact> 0.62930267E+02</totfact>
</mgrwt>
</event>
<event>
 4    1  0.4915183E-005  0.6686633E+03  0.7818608E-02  0.9772376E-01
         -2   -1    0    0    0  501 -0.00000000000E+00  0.00000000000E+00  0.76460009715E+02  0.76460009757E+02  0.25500000000E-02 0. -1.
          2   -1    0    0  501    0  0.00000000000E+00 -0.00000000000E+00 -0.14619098276E+04  0.14619098276E+04  0.25500000000E-02 0.  1.
    5000001    1    1    2    0    0  0.56981992051E+02  0.20540993144E+03 -0.10689131212E+04  0.11079785413E+04  0.19900000000E+03 0.  0.
   -5000001    1    1    2    0    0 -0.56981992051E+02 -0.20540993144E+03 -0.31653669668E+03  0.43039129603E+03  0.19900000000E+03 0.  0.
<mgrwt>
<rscale>  0 0.66866326E+03</rscale>
<asrwt>0</asrwt>
<pdfrwt beam="1">  1        2 0.20884424E+00 0.66866326E+03</pdfrwt>
<pdfrwt beam="2">  1       -2 0.10922859E-01 0.66866326E+03</pdfrwt>
<totfact> 0.92128660E+02</totfact>
</mgrwt>
</event>
<event>
 4    1  0.4915183E-005  0.5383692E+03  0.7818608E-02  0.1004222E+00
         -2   -1    0    0    0  501 -0.00000000000E+00  0.00000000000E+00  0.11332808941E+03  0.11332808944E+03  0.25500000000E-02 0. -1.
          2   -1    0    0  501    0  0.00000000000E+00 -0.00000000000E+00 -0.63938562010E+03  0.63938562011E+03  0.25500000000E-02 0.  1.
    5000001    1    1    2    0    0 -0.15572732109E+03 -0.20507784773E+02 -0.13651645826E+03  0.28793977000E+03  0.19900000000E+03 0.  0.
   -5000001    1    1    2    0    0  0.15572732109E+03  0.20507784773E+02 -0.38954107243E+03  0.46477393955E+03  0.19900000000E+03 0.  0.
<mgrwt>
<rscale>  0 0.53836921E+03</rscale>
<asrwt>0</asrwt>
<pdfrwt beam="1">  1        2 0.91340801E-01 0.53836921E+03</pdfrwt>
<pdfrwt beam="2">  1       -2 0.16189727E-01 0.53836921E+03</pdfrwt>
<totfact> 0.15456494E+03</totfact>
</mgrwt>
</event>
<event>
 4    1  0.4915183E-005  0.6184224E+03  0.7818608E-02  0.9867906E-01
          2   -1    0    0  501    0  0.00000000000E+00  0.00000000000E+00  0.26862591924E+03  0.26862591925E+03  0.25500000000E-02 0.  1.
         -2   -1    0    0    0  501 -0.00000000000E+00 -0.00000000000E+00 -0.35592827134E+03  0.35592827135E+03  0.25500000000E-02 0. -1.
    5000001    1    1    2    0    0  0.64338491157E+02  0.20921991863E+03  0.47230778651E+02  0.29957330029E+03  0.19900000000E+03 0.  0.
   -5000001    1    1    2    0    0 -0.64338491157E+02 -0.20921991863E+03 -0.13453313075E+03  0.32498089031E+03  0.19900000000E+03 0.  0.
<mgrwt>
<rscale>  0 0.61842238E+03</rscale>
<asrwt>0</asrwt>
<pdfrwt beam="1">  1        2 0.38375131E-01 0.61842238E+03</pdfrwt>
<pdfrwt beam="2">  1       -2 0.50846896E-01 0.61842238E+03</pdfrwt>
<totfact> 0.49721027E+02</totfact>
</mgrwt>
</event>
<event>
 4    1  0.4915183E-005  0.6352308E+03  0.7818608E-02  0.9834894E-01
          2   -1    0    0  501    0  0.00000000000E+00  0.00000000000E+00  0.39398485112E+03  0.39398485113E+03  0.25500000000E-02 0.  1.
         -2   -1    0    0    0  501 -0.00000000000E+00 -0.00000000000E+00 -0.25604929231E+03  0.25604929232E+03  0.25500000000E-02 0. -1.
    5000001    1    1    2    0    0  0.23847365854E+01 -0.24160856394E+03  0.13878690580E+02  0.31332731000E+03  0.19900000000E+03 0.  0.
   -5000001    1    1    2    0    0 -0.23847365854E+01  0.24160856394E+03  0.12405686823E+03  0.33670683345E+03  0.19900000000E+03 0.  0.
<mgrwt>
<rscale>  0 0.63523080E+03</rscale>
<asrwt>0</asrwt>
<pdfrwt beam="1">  1        2 0.56283549E-01 0.63523080E+03</pdfrwt>
<pdfrwt beam="2">  1       -2 0.36578471E-01 0.63523080E+03</pdfrwt>
<totfact> 0.62261430E+02</totfact>
</mgrwt>
</event>
<event>
 4    1  0.4915183E-005  0.6832569E+03  0.7818608E-02  0.9746301E-01
          2   -1    0    0  501    0  0.00000000000E+00  0.00000000000E+00  0.10043865541E+04  0.10043865541E+04  0.25500000000E-02 0.  1.
         -2   -1    0    0    0  501 -0.00000000000E+00 -0.00000000000E+00 -0.11620028412E+03  0.11620028414E+03  0.25500000000E-02 0. -1.
    5000001    1    1    2    0    0  0.15604413840E+03 -0.19361207633E+03  0.24140323948E+03  0.39963975435E+03  0.19900000000E+03 0.  0.
   -5000001    1    1    2    0    0 -0.15604413840E+03  0.19361207633E+03  0.64678303051E+03  0.72094708390E+03  0.19900000000E+03 0.  0.
<mgrwt>
<rscale>  0 0.68325691E+03</rscale>
<asrwt>0</asrwt>
<pdfrwt beam="1">  1        2 0.14348379E+00 0.68325691E+03</pdfrwt>
<pdfrwt beam="2">  1       -2 0.16600041E-01 0.68325691E+03</pdfrwt>
<totfact> 0.82646757E+02</totfact>
</mgrwt>
</event>
<event>
 4    1  0.4915183E-005  0.8826698E+03  0.7818608E-02  0.9447508E-01
          2   -1    0    0  501    0  0.00000000000E+00  0.00000000000E+00  0.16387734661E+04  0.16387734661E+04  0.25500000000E-02 0.  1.
         -2   -1    0    0    0  501 -0.00000000000E+00 -0.00000000000E+00 -0.11885503887E+03  0.11885503890E+03  0.25500000000E-02 0. -1.
    5000001    1    1    2    0    0  0.21141303086E+03  0.28470952419E+03  0.11015088793E+04  0.11741711093E+04  0.19900000000E+03 0.  0.
   -5000001    1    1    2    0    0 -0.21141303086E+03 -0.28470952419E+03  0.41840954794E+03  0.58345739569E+03  0.19900000000E+03 0.  0.
<mgrwt>
<rscale>  0 0.88266978E+03</rscale>
<asrwt>0</asrwt>
<pdfrwt beam="1">  1        2 0.23411051E+00 0.88266978E+03</pdfrwt>
<pdfrwt beam="2">  1       -2 0.16979290E-01 0.88266978E+03</pdfrwt>
<totfact> 0.35186447E+02</totfact>
</mgrwt>
</event>
<event>
 4    1  0.4915183E-005  0.7193424E+03  0.7818608E-02  0.9684714E-01
          2   -1    0    0  501    0  0.00000000000E+00  0.00000000000E+00  0.84143008686E+03  0.84143008686E+03  0.25500000000E-02 0.  1.
         -2   -1    0    0    0  501 -0.00000000000E+00 -0.00000000000E+00 -0.15374228510E+03  0.15374228512E+03  0.25500000000E-02 0. -1.
    5000001    1    1    2    0    0  0.62737940229E+02  0.26859226788E+03  0.50568080232E+03  0.60941933784E+03  0.19900000000E+03 0.  0.
   -5000001    1    1    2    0    0 -0.62737940229E+02 -0.26859226788E+03  0.18200699944E+03  0.38575303414E+03  0.19900000000E+03 0.  0.
<mgrwt>
<rscale>  0 0.71934243E+03</rscale>
<asrwt>0</asrwt>
<pdfrwt beam="1">  1        2 0.12020430E+00 0.71934243E+03</pdfrwt>
<pdfrwt beam="2">  1       -2 0.21963184E-01 0.71934243E+03</pdfrwt>
<totfact> 0.64568975E+02</totfact>
</mgrwt>
</event>
<event>
 4    1  0.4915183E-005  0.8923451E+03  0.7818608E-02  0.9435201E-01
          2   -1    0    0  501    0  0.00000000000E+00  0.00000000000E+00  0.10456794019E+04  0.10456794019E+04  0.25500000000E-02 0.  1.
         -2   -1    0    0    0  501 -0.00000000000E+00 -0.00000000000E+00 -0.19037376739E+03  0.19037376740E+03  0.25500000000E-02 0. -1.
    5000001    1    1    2    0    0  0.36990902453E+03  0.89748443628E+02  0.59491771093E+03  0.73376805077E+03  0.19900000000E+03 0.  0.
   -5000001    1    1    2    0    0 -0.36990902453E+03 -0.89748443628E+02  0.26038792361E+03  0.50228511855E+03  0.19900000000E+03 0.  0.
<mgrwt>
<rscale>  0 0.89234506E+03</rscale>
<asrwt>0</asrwt>
<pdfrwt beam="1">  1        2 0.14938277E+00 0.89234506E+03</pdfrwt>
<pdfrwt beam="2">  1       -2 0.27196253E-01 0.89234506E+03</pdfrwt>
<totfact> 0.32369932E+02</totfact>
</mgrwt>
</event>
<event>
 4    1  0.4915183E-005  0.4973700E+03  0.7818608E-02  0.1014468E+00
          2   -1    0    0  501    0  0.00000000000E+00  0.00000000000E+00  0.95216484453E+03  0.95216484453E+03  0.25500000000E-02 0.  1.
         -2   -1    0    0    0  501 -0.00000000000E+00 -0.00000000000E+00 -0.64951187585E+02  0.64951187635E+02  0.25500000000E-02 0. -1.
    5000001    1    1    2    0    0 -0.71387206376E+01  0.10352589734E+03  0.22454793643E+03  0.31747653221E+03  0.19900000000E+03 0.  0.
   -5000001    1    1    2    0    0  0.71387206376E+01 -0.10352589734E+03  0.66266572051E+03  0.69963949995E+03  0.19900000000E+03 0.  0.
<mgrwt>
<rscale>  0 0.49737003E+03</rscale>
<asrwt>0</asrwt>
<pdfrwt beam="1">  1        2 0.13602354E+00 0.49737003E+03</pdfrwt>
<pdfrwt beam="2">  1       -2 0.92787417E-02 0.49737003E+03</pdfrwt>
<totfact> 0.23345754E+03</totfact>
</mgrwt>
</event>
<event>
 4    1  0.4915183E-005  0.7234064E+03  0.7818608E-02  0.9678021E-01
         -2   -1    0    0    0  501 -0.00000000000E+00  0.00000000000E+00  0.26504137784E+04  0.26504137784E+04  0.25500000000E-02 0. -1.
          2   -1    0    0  501    0  0.00000000000E+00 -0.00000000000E+00 -0.49361797084E+02  0.49361797150E+02  0.25500000000E-02 0.  1.
    5000001    1    1    2    0    0 -0.67989543711E+02 -0.28394927372E+03  0.15890875826E+04  0.16278974517E+04  0.19900000000E+03 0.  0.
   -5000001    1    1    2    0    0  0.67989543711E+02  0.28394927372E+03  0.10119643987E+04  0.10718781238E+04  0.19900000000E+03 0.  0.
<mgrwt>
<rscale>  0 0.72340635E+03</rscale>
<asrwt>0</asrwt>
<pdfrwt beam="1">  1        2 0.70516847E-02 0.72340635E+03</pdfrwt>
<pdfrwt beam="2">  1       -2 0.37863057E+00 0.72340635E+03</pdfrwt>
<totfact> 0.11376347E+01</totfact>
</mgrwt>
</event>
<event>
 4    1  0.4915183E-005  0.1148603E+04  0.7818608E-02  0.9159073E-01
         -2   -1    0    0    0  501 -0.00000000000E+00  0.00000000000E+00  0.11854324962E+04  0.11854324962E+04  0.25500000000E-02 0. -1.
          2   -1    0    0  501    0  0.00000000000E+00 -0.00000000000E+00 -0.27822945375E+03  0.27822945376E+03  0.25500000000E-02 0.  1.
    5000001    1    1    2    0    0 -0.26952102015E+03  0.45746969830E+03  0.56970345362E+03  0.80379296478E+03  0.19900000000E+03 0.  0.
   -5000001    1    1    2    0    0  0.26952102015E+03 -0.45746969830E+03  0.33749958885E+03  0.65986898521E+03  0.19900000000E+03 0.  0.
<mgrwt>
<rscale>  0 0.11486030E+04</rscale>
<asrwt>0</asrwt>
<pdfrwt beam="1">  1        2 0.39747066E-01 0.11486030E+04</pdfrwt>
<pdfrwt beam="2">  1       -2 0.16934750E+00 0.11486030E+04</pdfrwt>
<totfact> 0.27663317E+01</totfact>
</mgrwt>
</event>
<event>
 4    1  0.4915183E-005  0.7364841E+03  0.7818608E-02  0.9656796E-01
          2   -1    0    0  501    0  0.00000000000E+00  0.00000000000E+00  0.74761566983E+03  0.74761566983E+03  0.25500000000E-02 0.  1.
         -2   -1    0    0    0  501 -0.00000000000E+00 -0.00000000000E+00 -0.18137959081E+03  0.18137959083E+03  0.25500000000E-02 0. -1.
    5000001    1    1    2    0    0 -0.29832636910E+03  0.55978042119E+02  0.20465721612E+03  0.41667462103E+03  0.19900000000E+03 0.  0.
   -5000001    1    1    2    0    0  0.29832636910E+03 -0.55978042119E+02  0.36157886289E+03  0.51232063963E+03  0.19900000000E+03 0.  0.
<mgrwt>
<rscale>  0 0.73648415E+03</rscale>
<asrwt>0</asrwt>
<pdfrwt beam="1">  1        2 0.10680224E+00 0.73648415E+03</pdfrwt>
<pdfrwt beam="2">  1       -2 0.25911370E-01 0.73648415E+03</pdfrwt>
<totfact> 0.55861309E+02</totfact>
</mgrwt>
</event>
<event>
 4    1  0.4915183E-005  0.5429329E+03  0.7818608E-02  0.1003143E+00
          2   -1    0    0  501    0  0.00000000000E+00  0.00000000000E+00  0.76909041296E+03  0.76909041296E+03  0.25500000000E-02 0.  1.
         -2   -1    0    0    0  501 -0.00000000000E+00 -0.00000000000E+00 -0.95819739998E+02  0.95819740032E+02  0.25500000000E-02 0. -1.
    5000001    1    1    2    0    0 -0.80135460960E+02 -0.13476290204E+03  0.49198924312E+03  0.55338697781E+03  0.19900000000E+03 0.  0.
   -5000001    1    1    2    0    0  0.80135460960E+02  0.13476290204E+03  0.18128142985E+03  0.31152317518E+03  0.19900000000E+03 0.  0.
<mgrwt>
<rscale>  0 0.54293294E+03</rscale>
<asrwt>0</asrwt>
<pdfrwt beam="1">  1        2 0.10987005E+00 0.54293294E+03</pdfrwt>
<pdfrwt beam="2">  1       -2 0.13688535E-01 0.54293294E+03</pdfrwt>
<totfact> 0.16349234E+03</totfact>
</mgrwt>
</event>
<event>
 4    1  0.4915183E-005  0.5358069E+03  0.7818608E-02  0.1004834E+00
          2   -1    0    0  501    0  0.00000000000E+00  0.00000000000E+00  0.25283444613E+04  0.25283444613E+04  0.25500000000E-02 0.  1.
         -2   -1    0    0    0  501 -0.00000000000E+00 -0.00000000000E+00 -0.28387054471E+02  0.28387054586E+02  0.25500000000E-02 0. -1.
    5000001    1    1    2    0    0  0.40191631378E+02 -0.16547164496E+03  0.98110393712E+03  0.10154615541E+04  0.19900000000E+03 0.  0.
   -5000001    1    1    2    0    0 -0.40191631378E+02  0.16547164496E+03  0.15188534697E+04  0.15412699618E+04  0.19900000000E+03 0.  0.
<mgrwt>
<rscale>  0 0.53580688E+03</rscale>
<asrwt>0</asrwt>
<pdfrwt beam="1">  1        2 0.36119180E+00 0.53580688E+03</pdfrwt>
<pdfrwt beam="2">  1       -2 0.40552965E-02 0.53580688E+03</pdfrwt>
<totfact> 0.12744466E+03</totfact>
</mgrwt>
</event>
<event>
 4    1  0.4915183E-005  0.5470443E+03  0.7818608E-02  0.1002180E+00
         -2   -1    0    0    0  501 -0.00000000000E+00  0.00000000000E+00  0.10676717632E+03  0.10676717635E+03  0.25500000000E-02 0. -1.
          2   -1    0    0  501    0  0.00000000000E+00 -0.00000000000E+00 -0.70072440292E+03  0.70072440292E+03  0.25500000000E-02 0.  1.
    5000001    1    1    2    0    0  0.40985360913E+02 -0.14915931280E+03 -0.45378637246E+03  0.51908705651E+03  0.19900000000E+03 0.  0.
   -5000001    1    1    2    0    0 -0.40985360913E+02  0.14915931280E+03 -0.14017085414E+03  0.28840452277E+03  0.19900000000E+03 0.  0.
<mgrwt>
<rscale>  0 0.54704430E+03</rscale>
<asrwt>0</asrwt>
<pdfrwt beam="1">  1        2 0.10010348E+00 0.54704430E+03</pdfrwt>
<pdfrwt beam="2">  1       -2 0.15252454E-01 0.54704430E+03</pdfrwt>
<totfact> 0.15307309E+03</totfact>
</mgrwt>
</event>
<event>
 4    1  0.4915183E-005  0.6430644E+03  0.7818608E-02  0.9819881E-01
          2   -1    0    0  501    0  0.00000000000E+00  0.00000000000E+00  0.13818246759E+04  0.13818246759E+04  0.25500000000E-02 0.  1.
         -2   -1    0    0    0  501 -0.00000000000E+00 -0.00000000000E+00 -0.74816258122E+02  0.74816258165E+02  0.25500000000E-02 0. -1.
    5000001    1    1    2    0    0  0.20914080694E+03 -0.83743450277E+02  0.39494773835E+03  0.49632404598E+03  0.19900000000E+03 0.  0.
   -5000001    1    1    2    0    0 -0.20914080694E+03  0.83743450277E+02  0.91206067947E+03  0.96031688813E+03  0.19900000000E+03 0.  0.
<mgrwt>
<rscale>  0 0.64306439E+03</rscale>
<asrwt>0</asrwt>
<pdfrwt beam="1">  1        2 0.19740352E+00 0.64306439E+03</pdfrwt>
<pdfrwt beam="2">  1       -2 0.10688037E-01 0.64306439E+03</pdfrwt>
<totfact> 0.10537486E+03</totfact>
</mgrwt>
</event>
<event>
 4    1  0.4915183E-005  0.7608105E+03  0.7818608E-02  0.9618541E-01
         -2   -1    0    0    0  501 -0.00000000000E+00  0.00000000000E+00  0.33322648770E+03  0.33322648771E+03  0.25500000000E-02 0. -1.
          2   -1    0    0  501    0  0.00000000000E+00 -0.00000000000E+00 -0.43426368442E+03  0.43426368443E+03  0.25500000000E-02 0.  1.
    5000001    1    1    2    0    0 -0.17383065748E+03 -0.19864867712E+03  0.13935926574E+03  0.35874837888E+03  0.19900000000E+03 0.  0.
   -5000001    1    1    2    0    0  0.17383065748E+03  0.19864867712E+03 -0.24039646246E+03  0.40874179327E+03  0.19900000000E+03 0.  0.
<mgrwt>
<rscale>  0 0.76081052E+03</rscale>
<asrwt>0</asrwt>
<pdfrwt beam="1">  1        2 0.62037669E-01 0.76081052E+03</pdfrwt>
<pdfrwt beam="2">  1       -2 0.47603784E-01 0.76081052E+03</pdfrwt>
<totfact> 0.33196074E+02</totfact>
</mgrwt>
</event>
<event>
 4    1  0.4915183E-005  0.6817112E+03  0.7818608E-02  0.9749030E-01
         -2   -1    0    0    0  501 -0.00000000000E+00  0.00000000000E+00  0.80244993890E+02  0.80244993931E+02  0.25500000000E-02 0. -1.
          2   -1    0    0  501    0  0.00000000000E+00 -0.00000000000E+00 -0.14478478266E+04  0.14478478266E+04  0.25500000000E-02 0.  1.
    5000001    1    1    2    0    0  0.74307057859E+02 -0.20922425636E+03 -0.31353615310E+03  0.43266875043E+03  0.19900000000E+03 0.  0.
   -5000001    1    1    2    0    0 -0.74307057859E+02  0.20922425636E+03 -0.10540666796E+04  0.10954240701E+04  0.19900000000E+03 0.  0.
<mgrwt>
<rscale>  0 0.68171120E+03</rscale>
<asrwt>0</asrwt>
<pdfrwt beam="1">  1        2 0.20683539E+00 0.68171120E+03</pdfrwt>
<pdfrwt beam="2">  1       -2 0.11463571E-01 0.68171120E+03</pdfrwt>
<totfact> 0.86529171E+02</totfact>
</mgrwt>
</event>
<event>
 4    1  0.4915183E-005  0.6735114E+03  0.7818608E-02  0.9763635E-01
          2   -1    0    0  501    0  0.00000000000E+00  0.00000000000E+00  0.10726662084E+04  0.10726662084E+04  0.25500000000E-02 0.  1.
         -2   -1    0    0    0  501 -0.00000000000E+00 -0.00000000000E+00 -0.10572199723E+03  0.10572199726E+03  0.25500000000E-02 0. -1.
    5000001    1    1    2    0    0  0.75783347242E+02 -0.59152486105E+02  0.38913027037E+02  0.22440444738E+03  0.19900000000E+03 0.  0.
   -5000001    1    1    2    0    0 -0.75783347242E+02  0.59152486105E+02  0.92803118413E+03  0.95398375827E+03  0.19900000000E+03 0.  0.
<mgrwt>
<rscale>  0 0.67351144E+03</rscale>
<asrwt>0</asrwt>
<pdfrwt beam="1">  1        2 0.15323803E+00 0.67351144E+03</pdfrwt>
<pdfrwt beam="2">  1       -2 0.15103143E-01 0.67351144E+03</pdfrwt>
<totfact> 0.88310318E+02</totfact>
</mgrwt>
</event>
<event>
 4    1  0.4915183E-005  0.4954222E+03  0.7818608E-02  0.1014981E+00
         -2   -1    0    0    0  501 -0.00000000000E+00  0.00000000000E+00  0.78782676208E+03  0.78782676208E+03  0.25500000000E-02 0. -1.
          2   -1    0    0  501    0  0.00000000000E+00 -0.00000000000E+00 -0.77886135341E+02  0.77886135383E+02  0.25500000000E-02 0.  1.
    5000001    1    1    2    0    0  0.11684633283E+03  0.76883731643E+02  0.27309068425E+03  0.36570985154E+03  0.19900000000E+03 0.  0.
   -5000001    1    1    2    0    0 -0.11684633283E+03 -0.76883731643E+02  0.43684994248E+03  0.50000304592E+03  0.19900000000E+03 0.  0.
<mgrwt>
<rscale>  0 0.49542217E+03</rscale>
<asrwt>0</asrwt>
<pdfrwt beam="1">  1        2 0.11126590E-01 0.49542217E+03</pdfrwt>
<pdfrwt beam="2">  1       -2 0.11254668E+00 0.49542217E+03</pdfrwt>
<totfact> 0.36501288E+02</totfact>
</mgrwt>
</event>
<event>
 4    1  0.4915183E-005  0.8157831E+03  0.7818608E-02  0.9537449E-01
         -2   -1    0    0    0  501 -0.00000000000E+00  0.00000000000E+00  0.20316594594E+03  0.20316594596E+03  0.25500000000E-02 0. -1.
          2   -1    0    0  501    0  0.00000000000E+00 -0.00000000000E+00 -0.81891431253E+03  0.81891431253E+03  0.25500000000E-02 0.  1.
    5000001    1    1    2    0    0 -0.34468931831E+03 -0.73446148692E+02 -0.24436604362E+03  0.47277989191E+03  0.19900000000E+03 0.  0.
   -5000001    1    1    2    0    0  0.34468931831E+03  0.73446148692E+02 -0.37138232296E+03  0.54930036658E+03  0.19900000000E+03 0.  0.
<mgrwt>
<rscale>  0 0.81578306E+03</rscale>
<asrwt>0</asrwt>
<pdfrwt beam="1">  1        2 0.11698776E+00 0.81578306E+03</pdfrwt>
<pdfrwt beam="2">  1       -2 0.29023707E-01 0.81578306E+03</pdfrwt>
<totfact> 0.40293408E+02</totfact>
</mgrwt>
</event>
<event>
 4    1  0.4915183E-005  0.4868888E+03  0.7818608E-02  0.1017259E+00
         -2   -1    0    0    0  501 -0.00000000000E+00  0.00000000000E+00  0.53716227148E+02  0.53716227208E+02  0.25500000000E-02 0. -1.
          2   -1    0    0  501    0  0.00000000000E+00 -0.00000000000E+00 -0.11033009394E+04  0.11033009394E+04  0.25500000000E-02 0.  1.
    5000001    1    1    2    0    0 -0.44964724208E+02 -0.12954135996E+03 -0.59453619147E+03  0.64177649796E+03  0.19900000000E+03 0.  0.
   -5000001    1    1    2    0    0  0.44964724208E+02  0.12954135996E+03 -0.45504852074E+03  0.51524066861E+03  0.19900000000E+03 0.  0.
<mgrwt>
<rscale>  0 0.48688875E+03</rscale>
<asrwt>0</asrwt>
<pdfrwt beam="1">  1        2 0.15761441E+00 0.48688875E+03</pdfrwt>
<pdfrwt beam="2">  1       -2 0.76737474E-02 0.48688875E+03</pdfrwt>
<totfact> 0.25663201E+03</totfact>
</mgrwt>
</event>
<event>
 4    1  0.4915183E-005  0.7837404E+03  0.7818608E-02  0.9583855E-01
         -2   -1    0    0    0  501 -0.00000000000E+00  0.00000000000E+00  0.18881464002E+03  0.18881464004E+03  0.25500000000E-02 0. -1.
          2   -1    0    0  501    0  0.00000000000E+00 -0.00000000000E+00 -0.81329627992E+03  0.81329627992E+03  0.25500000000E-02 0.  1.
    5000001    1    1    2    0    0 -0.10911334877E+03  0.84749731054E+02 -0.70607635653E+03  0.74648044921E+03  0.19900000000E+03 0.  0.
   -5000001    1    1    2    0    0  0.10911334877E+03 -0.84749731054E+02  0.81594716633E+02  0.25563047075E+03  0.19900000000E+03 0.  0.
<mgrwt>
<rscale>  0 0.78374038E+03</rscale>
<asrwt>0</asrwt>
<pdfrwt beam="1">  1        2 0.11618518E+00 0.78374038E+03</pdfrwt>
<pdfrwt beam="2">  1       -2 0.26973520E-01 0.78374038E+03</pdfrwt>
<totfact> 0.46562784E+02</totfact>
</mgrwt>
</event>
<event>
 4    1  0.4915183E-005  0.1389366E+04  0.7818608E-02  0.8961552E-01
          2   -1    0    0  501    0  0.00000000000E+00  0.00000000000E+00  0.14186313042E+04  0.14186313042E+04  0.25500000000E-02 0.  1.
         -2   -1    0    0    0  501 -0.00000000000E+00 -0.00000000000E+00 -0.34017623485E+03  0.34017623486E+03  0.25500000000E-02 0. -1.
    5000001    1    1    2    0    0 -0.21461660675E+03 -0.62588657755E+03  0.44803517314E+03  0.82348698363E+03  0.19900000000E+03 0.  0.
   -5000001    1    1    2    0    0  0.21461660675E+03  0.62588657755E+03  0.63041989617E+03  0.93532055539E+03  0.19900000000E+03 0.  0.
<mgrwt>
<rscale>  0 0.13893663E+04</rscale>
<asrwt>0</asrwt>
<pdfrwt beam="1">  1        2 0.20266162E+00 0.13893663E+04</pdfrwt>
<pdfrwt beam="2">  1       -2 0.48596605E-01 0.13893663E+04</pdfrwt>
<totfact> 0.63188454E+01</totfact>
</mgrwt>
</event>
<event>
 4    1  0.4915183E-005  0.4577500E+03  0.7818608E-02  0.1025436E+00
         -2   -1    0    0    0  501 -0.00000000000E+00  0.00000000000E+00  0.23990434139E+02  0.23990434275E+02  0.25500000000E-02 0. -1.
          2   -1    0    0  501    0  0.00000000000E+00 -0.00000000000E+00 -0.21835275252E+04  0.21835275252E+04  0.25500000000E-02 0.  1.
    5000001    1    1    2    0    0 -0.15925157467E+02 -0.10729970169E+03 -0.12334810536E+04  0.12541305140E+04  0.19900000000E+03 0.  0.
   -5000001    1    1    2    0    0  0.15925157467E+02  0.10729970169E+03 -0.92605603745E+03  0.95338744544E+03  0.19900000000E+03 0.  0.
<mgrwt>
<rscale>  0 0.45775003E+03</rscale>
<asrwt>0</asrwt>
<pdfrwt beam="1">  1        2 0.31193238E+00 0.45775003E+03</pdfrwt>
<pdfrwt beam="2">  1       -2 0.34272063E-02 0.45775003E+03</pdfrwt>
<totfact> 0.24706656E+03</totfact>
</mgrwt>
</event>
<event>
 4    1  0.4915183E-005  0.5634078E+03  0.7818608E-02  0.9984373E-01
         -2   -1    0    0    0  501 -0.00000000000E+00  0.00000000000E+00  0.82277874964E+02  0.82277875004E+02  0.25500000000E-02 0. -1.
          2   -1    0    0  501    0  0.00000000000E+00 -0.00000000000E+00 -0.96450077714E+03  0.96450077714E+03  0.25500000000E-02 0.  1.
    5000001    1    1    2    0    0  0.84757481685E+02 -0.16654756853E+03 -0.31193238308E+03  0.41451747237E+03  0.19900000000E+03 0.  0.
   -5000001    1    1    2    0    0 -0.84757481685E+02  0.16654756853E+03 -0.57029051909E+03  0.63226117978E+03  0.19900000000E+03 0.  0.
<mgrwt>
<rscale>  0 0.56340775E+03</rscale>
<asrwt>0</asrwt>
<pdfrwt beam="1">  1        2 0.13778582E+00 0.56340775E+03</pdfrwt>
<pdfrwt beam="2">  1       -2 0.11753983E-01 0.56340775E+03</pdfrwt>
<totfact> 0.15621991E+03</totfact>
</mgrwt>
</event>
<event>
 4    1  0.4915183E-005  0.1000743E+04  0.7818608E-02  0.9307730E-01
         -2   -1    0    0    0  501 -0.00000000000E+00  0.00000000000E+00  0.16894166998E+03  0.16894167000E+03  0.25500000000E-02 0. -1.
          2   -1    0    0  501    0  0.00000000000E+00 -0.00000000000E+00 -0.14820017646E+04  0.14820017646E+04  0.25500000000E-02 0.  1.
    5000001    1    1    2    0    0 -0.16952236317E+03  0.42629456204E+03 -0.62767330439E+03  0.80252081736E+03  0.19900000000E+03 0.  0.
   -5000001    1    1    2    0    0  0.16952236317E+03 -0.42629456204E+03 -0.68538679023E+03  0.84842261725E+03  0.19900000000E+03 0.  0.
<mgrwt>
<rscale>  0 0.10007434E+04</rscale>
<asrwt>0</asrwt>
<pdfrwt beam="1">  1        2 0.21171453E+00 0.10007434E+04</pdfrwt>
<pdfrwt beam="2">  1       -2 0.24134525E-01 0.10007434E+04</pdfrwt>
<totfact> 0.22759162E+02</totfact>
</mgrwt>
</event>
<event>
 4    1  0.4915183E-005  0.7218955E+03  0.7818608E-02  0.9680504E-01
         -2   -1    0    0    0  501 -0.00000000000E+00  0.00000000000E+00  0.81254513270E+02  0.81254513310E+02  0.25500000000E-02 0. -1.
          2   -1    0    0  501    0  0.00000000000E+00 -0.00000000000E+00 -0.16033973974E+04  0.16033973974E+04  0.25500000000E-02 0.  1.
    5000001    1    1    2    0    0 -0.27683909097E+03 -0.92747836465E+02 -0.93319667749E+03  0.99784722395E+03  0.19900000000E+03 0.  0.
   -5000001    1    1    2    0    0  0.27683909097E+03  0.92747836465E+02 -0.58894620668E+03  0.68680468681E+03  0.19900000000E+03 0.  0.
<mgrwt>
<rscale>  0 0.72189549E+03</rscale>
<asrwt>0</asrwt>
<pdfrwt beam="1">  1        2 0.22905675E+00 0.72189549E+03</pdfrwt>
<pdfrwt beam="2">  1       -2 0.11607789E-01 0.72189549E+03</pdfrwt>
<totfact> 0.70175065E+02</totfact>
</mgrwt>
</event>
<event>
 4    1  0.4915183E-005  0.6516265E+03  0.7818608E-02  0.9803732E-01
         -2   -1    0    0    0  501 -0.00000000000E+00  0.00000000000E+00  0.61471293925E+02  0.61471293978E+02  0.25500000000E-02 0. -1.
          2   -1    0    0  501    0  0.00000000000E+00 -0.00000000000E+00 -0.17268917427E+04  0.17268917427E+04  0.25500000000E-02 0.  1.
    5000001    1    1    2    0    0 -0.16354083515E+03  0.64249312838E+02 -0.13511132141E+04  0.13769464391E+04  0.19900000000E+03 0.  0.
   -5000001    1    1    2    0    0  0.16354083515E+03 -0.64249312838E+02 -0.31430723469E+03  0.41141659755E+03  0.19900000000E+03 0.  0.
<mgrwt>
<rscale>  0 0.65162649E+03</rscale>
<asrwt>0</asrwt>
<pdfrwt beam="1">  1        2 0.24669879E+00 0.65162649E+03</pdfrwt>
<pdfrwt beam="2">  1       -2 0.87816146E-02 0.65162649E+03</pdfrwt>
<totfact> 0.95829010E+02</totfact>
</mgrwt>
</event>
<event>
 4    1  0.4915183E-005  0.4989384E+03  0.7818608E-02  0.1014056E+00
         -2   -1    0    0    0  501 -0.00000000000E+00  0.00000000000E+00  0.44431498981E+03  0.44431498982E+03  0.25500000000E-02 0. -1.
          2   -1    0    0  501    0  0.00000000000E+00 -0.00000000000E+00 -0.14006930348E+03  0.14006930351E+03  0.25500000000E-02 0.  1.
    5000001    1    1    2    0    0  0.45512182048E+02 -0.64799034031E+02  0.22954465472E+01  0.21418810098E+03  0.19900000000E+03 0.  0.
   -5000001    1    1    2    0    0 -0.45512182048E+02  0.64799034031E+02  0.30195023978E+03  0.37019619235E+03  0.19900000000E+03 0.  0.
<mgrwt>
<rscale>  0 0.49893844E+03</rscale>
<asrwt>0</asrwt>
<pdfrwt beam="1">  1        2 0.20009901E-01 0.49893844E+03</pdfrwt>
<pdfrwt beam="2">  1       -2 0.63473570E-01 0.49893844E+03</pdfrwt>
<totfact> 0.65660987E+02</totfact>
</mgrwt>
</event>
<event>
 4    1  0.4915183E-005  0.6151588E+03  0.7818608E-02  0.9874446E-01
         -2   -1    0    0    0  501 -0.00000000000E+00  0.00000000000E+00  0.37814720840E+02  0.37814720926E+02  0.25500000000E-02 0. -1.
          2   -1    0    0  501    0  0.00000000000E+00 -0.00000000000E+00 -0.25018054752E+04  0.25018054752E+04  0.25500000000E-02 0.  1.
    5000001    1    1    2    0    0  0.15389062876E+03  0.16743867172E+03 -0.99533907765E+03  0.10402013814E+04  0.19900000000E+03 0.  0.
   -5000001    1    1    2    0    0 -0.15389062876E+03 -0.16743867172E+03 -0.14686516768E+04  0.14994188148E+04  0.19900000000E+03 0.  0.
<mgrwt>
<rscale>  0 0.61515876E+03</rscale>
<asrwt>0</asrwt>
<pdfrwt beam="1">  1        2 0.35740068E+00 0.61515876E+03</pdfrwt>
<pdfrwt beam="2">  1       -2 0.54021046E-02 0.61515876E+03</pdfrwt>
<totfact> 0.83937217E+02</totfact>
</mgrwt>
</event>
<event>
 4    1  0.4915183E-005  0.4885817E+03  0.7818608E-02  0.1016803E+00
          2   -1    0    0  501    0  0.00000000000E+00  0.00000000000E+00  0.17137779865E+04  0.17137779865E+04  0.25500000000E-02 0.  1.
         -2   -1    0    0    0  501 -0.00000000000E+00 -0.00000000000E+00 -0.34822495274E+02  0.34822495368E+02  0.25500000000E-02 0. -1.
    5000001    1    1    2    0    0  0.11895462762E+03  0.75989258626E+02  0.79528771542E+03  0.83187025500E+03  0.19900000000E+03 0.  0.
   -5000001    1    1    2    0    0 -0.11895462762E+03 -0.75989258626E+02  0.88366777585E+03  0.91673022691E+03  0.19900000000E+03 0.  0.
<mgrwt>
<rscale>  0 0.48858173E+03</rscale>
<asrwt>0</asrwt>
<pdfrwt beam="1">  1        2 0.24482549E+00 0.48858173E+03</pdfrwt>
<pdfrwt beam="2">  1       -2 0.49746410E-02 0.48858173E+03</pdfrwt>
<totfact> 0.23949480E+03</totfact>
</mgrwt>
</event>
<event>
 4    1  0.4915183E-005  0.5094184E+03  0.7818608E-02  0.1011349E+00
         -2   -1    0    0    0  501 -0.00000000000E+00  0.00000000000E+00  0.37033224886E+02  0.37033224974E+02  0.25500000000E-02 0. -1.
          2   -1    0    0  501    0  0.00000000000E+00 -0.00000000000E+00 -0.17518530416E+04  0.17518530416E+04  0.25500000000E-02 0.  1.
    5000001    1    1    2    0    0 -0.14026930467E+03 -0.29144878783E+02 -0.10994540190E+04  0.11264657304E+04  0.19900000000E+03 0.  0.
   -5000001    1    1    2    0    0  0.14026930467E+03  0.29144878783E+02 -0.61536579765E+03  0.66242053615E+03  0.19900000000E+03 0.  0.
<mgrwt>
<rscale>  0 0.50941837E+03</rscale>
<asrwt>0</asrwt>
<pdfrwt beam="1">  1        2 0.25026467E+00 0.50941837E+03</pdfrwt>
<pdfrwt beam="2">  1       -2 0.52904618E-02 0.50941837E+03</pdfrwt>
<totfact> 0.20820824E+03</totfact>
</mgrwt>
</event>
<event>
 4    1  0.4915183E-005  0.5093576E+03  0.7818608E-02  0.1011365E+00
          2   -1    0    0  501    0  0.00000000000E+00  0.00000000000E+00  0.15122412968E+04  0.15122412968E+04  0.25500000000E-02 0. -1.
         -2   -1    0    0    0  501 -0.00000000000E+00 -0.00000000000E+00 -0.42890826242E+02  0.42890826318E+02  0.25500000000E-02 0.  1.
    5000001    1    1    2    0    0  0.10602353367E+03  0.86337026653E+02  0.48729286194E+03  0.54382938975E+03  0.19900000000E+03 0.  0.
   -5000001    1    1    2    0    0 -0.10602353367E+03 -0.86337026653E+02  0.98205760858E+03  0.10113027333E+04  0.19900000000E+03 0.  0.
<mgrwt>
<rscale>  0 0.50935755E+03</rscale>
<asrwt>0</asrwt>
<pdfrwt beam="1">  1        2 0.21603450E+00 0.50935755E+03</pdfrwt>
<pdfrwt beam="2">  1       -2 0.61272602E-02 0.50935755E+03</pdfrwt>
<totfact> 0.21945817E+03</totfact>
</mgrwt>
</event>
<event>
 4    1  0.4915183E-005  0.4617972E+03  0.7818608E-02  0.1024261E+00
          2   -1    0    0  501    0  0.00000000000E+00  0.00000000000E+00  0.65058311559E+03  0.65058311560E+03  0.25500000000E-02 0.  1.
         -2   -1    0    0    0  501 -0.00000000000E+00 -0.00000000000E+00 -0.81948277212E+02  0.81948277252E+02  0.25500000000E-02 0. -1.
    5000001    1    1    2    0    0 -0.34783133689E+02 -0.10799796227E+03  0.33028452616E+03  0.40194812409E+03  0.19900000000E+03 0.  0.
   -5000001    1    1    2    0    0  0.34783133689E+02  0.10799796227E+03  0.23835031222E+03  0.33058326876E+03  0.19900000000E+03 0.  0.
<mgrwt>
<rscale>  0 0.46179721E+03</rscale>
<asrwt>0</asrwt>
<pdfrwt beam="1">  1        2 0.92940445E-01 0.46179721E+03</pdfrwt>
<pdfrwt beam="2">  1       -2 0.11706897E-01 0.46179721E+03</pdfrwt>
<totfact> 0.25937757E+03</totfact>
</mgrwt>
</event>
<event>
 4    1  0.4915183E-005  0.4247678E+03  0.7818608E-02  0.1035526E+00
          2   -1    0    0  501    0  0.00000000000E+00  0.00000000000E+00  0.41055498365E+03  0.41055498365E+03  0.25500000000E-02 0.  1.
         -2   -1    0    0    0  501 -0.00000000000E+00 -0.00000000000E+00 -0.10986818098E+03  0.10986818101E+03  0.25500000000E-02 0. -1.
    5000001    1    1    2    0    0 -0.49801089956E+02 -0.52244137142E+02  0.17143421864E+03  0.27239730128E+03  0.19900000000E+03 0.  0.
   -5000001    1    1    2    0    0  0.49801089956E+02  0.52244137142E+02  0.12925258403E+03  0.24802586338E+03  0.19900000000E+03 0.  0.
<mgrwt>
<rscale>  0 0.42476784E+03</rscale>
<asrwt>0</asrwt>
<pdfrwt beam="1">  1        2 0.58650711E-01 0.42476784E+03</pdfrwt>
<pdfrwt beam="2">  1       -2 0.15695455E-01 0.42476784E+03</pdfrwt>
<totfact> 0.26913896E+03</totfact>
</mgrwt>
</event>
<event>
 4    1  0.4915183E-005  0.8985552E+03  0.7818608E-02  0.9427389E-01
          2   -1    0    0  501    0  0.00000000000E+00  0.00000000000E+00  0.25103760789E+04  0.25103760789E+04  0.25500000000E-02 0.  1.
         -2   -1    0    0    0  501 -0.00000000000E+00 -0.00000000000E+00 -0.80406415970E+02  0.80406416010E+02  0.25500000000E-02 0. -1.
    5000001    1    1    2    0    0 -0.10800294157E+03  0.30196124097E+03  0.19177245235E+04  0.19545110832E+04  0.19900000000E+03 0.  0.
   -5000001    1    1    2    0    0  0.10800294157E+03 -0.30196124097E+03  0.51224513937E+03  0.63627141162E+03  0.19900000000E+03 0.  0.
<mgrwt>
<rscale>  0 0.89855516E+03</rscale>
<asrwt>0</asrwt>
<pdfrwt beam="1">  1        2 0.35862519E+00 0.89855516E+03</pdfrwt>
<pdfrwt beam="2">  1       -2 0.11486630E-01 0.89855516E+03</pdfrwt>
<totfact> 0.24282407E+02</totfact>
</mgrwt>
</event>
<event>
 4    1  0.4915183E-005  0.7159757E+03  0.7818608E-02  0.9690295E-01
          2   -1    0    0  501    0  0.00000000000E+00  0.00000000000E+00  0.55295656800E+03  0.55295656801E+03  0.25500000000E-02 0.  1.
         -2   -1    0    0    0  501 -0.00000000000E+00 -0.00000000000E+00 -0.23176380301E+03  0.23176380303E+03  0.25500000000E-02 0. -1.
    5000001    1    1    2    0    0 -0.27837612639E+03 -0.73584311488E+01  0.27558349891E+03  0.43942539655E+03  0.19900000000E+03 0.  0.
   -5000001    1    1    2    0    0  0.27837612639E+03  0.73584311488E+01  0.45609266076E+02  0.34529497449E+03  0.19900000000E+03 0.  0.
<mgrwt>
<rscale>  0 0.71597575E+03</rscale>
<asrwt>0</asrwt>
<pdfrwt beam="1">  1        2 0.78993794E-01 0.71597575E+03</pdfrwt>
<pdfrwt beam="2">  1       -2 0.33109115E-01 0.71597575E+03</pdfrwt>
<totfact> 0.51130426E+02</totfact>
</mgrwt>
</event>
<event>
 4    1  0.4915183E-005  0.6197986E+03  0.7818608E-02  0.9865161E-01
          2   -1    0    0  501    0  0.00000000000E+00  0.00000000000E+00  0.26485825489E+03  0.26485825490E+03  0.25500000000E-02 0.  1.
         -2   -1    0    0    0  501 -0.00000000000E+00 -0.00000000000E+00 -0.36259986802E+03  0.36259986803E+03  0.25500000000E-02 0. -1.
    5000001    1    1    2    0    0 -0.20172045282E+03  0.97087090427E+02 -0.12934865529E+03  0.32626541165E+03  0.19900000000E+03 0.  0.
   -5000001    1    1    2    0    0  0.20172045282E+03 -0.97087090427E+02  0.31607042161E+02  0.30119271128E+03  0.19900000000E+03 0.  0.
<mgrwt>
<rscale>  0 0.61979857E+03</rscale>
<asrwt>0</asrwt>
<pdfrwt beam="1">  1        2 0.37836894E-01 0.61979857E+03</pdfrwt>
<pdfrwt beam="2">  1       -2 0.51799981E-01 0.61979857E+03</pdfrwt>
<totfact> 0.48629328E+02</totfact>
</mgrwt>
</event>
<event>
 4    1  0.4915183E-005  0.8533026E+03  0.7818608E-02  0.9485915E-01
          2   -1    0    0  501    0  0.00000000000E+00  0.00000000000E+00  0.85832284618E+03  0.85832284619E+03  0.25500000000E-02 0.  1.
         -2   -1    0    0    0  501 -0.00000000000E+00 -0.00000000000E+00 -0.21207791125E+03  0.21207791126E+03  0.25500000000E-02 0. -1.
    5000001    1    1    2    0    0  0.90209414607E+01 -0.37068953851E+03  0.41127360422E+03  0.58842084334E+03  0.19900000000E+03 0.  0.
   -5000001    1    1    2    0    0 -0.90209414607E+01  0.37068953851E+03  0.23497133072E+03  0.48197991411E+03  0.19900000000E+03 0.  0.
<mgrwt>
<rscale>  0 0.85330256E+03</rscale>
<asrwt>0</asrwt>
<pdfrwt beam="1">  1        2 0.12261755E+00 0.85330256E+03</pdfrwt>
<pdfrwt beam="2">  1       -2 0.30296845E-01 0.85330256E+03</pdfrwt>
<totfact> 0.34931098E+02</totfact>
</mgrwt>
</event>
<event>
 4    1  0.4915183E-005  0.4704258E+03  0.7818608E-02  0.1021800E+00
          2   -1    0    0  501    0  0.00000000000E+00  0.00000000000E+00  0.24734154162E+04  0.24734154162E+04  0.25500000000E-02 0.  1.
         -2   -1    0    0    0  501 -0.00000000000E+00 -0.00000000000E+00 -0.22367895477E+02  0.22367895623E+02  0.25500000000E-02 0. -1.
    5000001    1    1    2    0    0 -0.76865399885E+02 -0.22043992690E+02  0.17379762306E+04  0.17511586466E+04  0.19900000000E+03 0.  0.
   -5000001    1    1    2    0    0  0.76865399885E+02  0.22043992690E+02  0.71307129013E+03  0.74462466526E+03  0.19900000000E+03 0.  0.
<mgrwt>
<rscale>  0 0.47042575E+03</rscale>
<asrwt>0</asrwt>
<pdfrwt beam="1">  1        2 0.35334494E+00 0.47042575E+03</pdfrwt>
<pdfrwt beam="2">  1       -2 0.31954147E-02 0.47042575E+03</pdfrwt>
<totfact> 0.19629259E+03</totfact>
</mgrwt>
</event>
<event>
 4    1  0.4915183E-005  0.5695885E+03  0.7818608E-02  0.9970590E-01
          2   -1    0    0  501    0  0.00000000000E+00  0.00000000000E+00  0.32389990669E+03  0.32389990670E+03  0.25500000000E-02 0.  1.
         -2   -1    0    0    0  501 -0.00000000000E+00 -0.00000000000E+00 -0.25040995245E+03  0.25040995246E+03  0.25500000000E-02 0. -1.
    5000001    1    1    2    0    0 -0.10765627544E+03 -0.30341136735E+01  0.21111685310E+03  0.30946793881E+03  0.19900000000E+03 0.  0.
   -5000001    1    1    2    0    0  0.10765627544E+03  0.30341136735E+01 -0.13762689886E+03  0.26484192035E+03  0.19900000000E+03 0.  0.
<mgrwt>
<rscale>  0 0.56958848E+03</rscale>
<asrwt>0</asrwt>
<pdfrwt beam="1">  1        2 0.46271415E-01 0.56958848E+03</pdfrwt>
<pdfrwt beam="2">  1       -2 0.35772850E-01 0.56958848E+03</pdfrwt>
<totfact> 0.80760276E+02</totfact>
</mgrwt>
</event>
<event>
 4    1  0.4915183E-005  0.5541255E+03  0.7818608E-02  0.1000544E+00
         -2   -1    0    0    0  501 -0.00000000000E+00  0.00000000000E+00  0.14020688477E+03  0.14020688480E+03  0.25500000000E-02 0.  1.
          2   -1    0    0  501    0  0.00000000000E+00 -0.00000000000E+00 -0.54750356432E+03  0.54750356432E+03  0.25500000000E-02 0. -1.
    5000001    1    1    2    0    0  0.11359580026E+03 -0.16561186233E+02 -0.39585247629E+03  0.45768817082E+03  0.19900000000E+03 0.  0.
   -5000001    1    1    2    0    0 -0.11359580026E+03  0.16561186233E+02 -0.11444203254E+02  0.23002227830E+03  0.19900000000E+03 0.  0.
<mgrwt>
<rscale>  0 0.55412551E+03</rscale>
<asrwt>0</asrwt>
<pdfrwt beam="1">  1        2 0.78214794E-01 0.55412551E+03</pdfrwt>
<pdfrwt beam="2">  1       -2 0.20029555E-01 0.55412551E+03</pdfrwt>
<totfact> 0.12863093E+03</totfact>
</mgrwt>
</event>
<event>
 4    1  0.4915183E-005  0.5501742E+03  0.7818608E-02  0.1001454E+00
          2   -1    0    0  501    0  0.00000000000E+00  0.00000000000E+00  0.10845682017E+04  0.10845682017E+04  0.25500000000E-02 0.  1.
         -2   -1    0    0    0  501 -0.00000000000E+00 -0.00000000000E+00 -0.69772386138E+02  0.69772386184E+02  0.25500000000E-02 0. -1.
    5000001    1    1    2    0    0 -0.82805022750E+02  0.13922516687E+03  0.71543735161E+03  0.76006047323E+03  0.19900000000E+03 0.  0.
   -5000001    1    1    2    0    0  0.82805022750E+02 -0.13922516687E+03  0.29935846398E+03  0.39428011469E+03  0.19900000000E+03 0.  0.
<mgrwt>
<rscale>  0 0.55017420E+03</rscale>
<asrwt>0</asrwt>
<pdfrwt beam="1">  1        2 0.15493831E+00 0.55017420E+03</pdfrwt>
<pdfrwt beam="2">  1       -2 0.99674841E-02 0.55017420E+03</pdfrwt>
<totfact> 0.17310628E+03</totfact>
</mgrwt>
</event>
<event>
 4    1  0.4915183E-005  0.6589685E+03  0.7818608E-02  0.9790094E-01
         -2   -1    0    0    0  501 -0.00000000000E+00  0.00000000000E+00  0.11099630136E+03  0.11099630139E+03  0.25500000000E-02 0.  1.
          2   -1    0    0  501    0  0.00000000000E+00 -0.00000000000E+00 -0.97804958111E+03  0.97804958111E+03  0.25500000000E-02 0. -1.
    5000001    1    1    2    0    0 -0.23281070043E+03  0.11994891372E+03 -0.40172341142E+03  0.51920252640E+03  0.19900000000E+03 0.  0.
   -5000001    1    1    2    0    0  0.23281070043E+03 -0.11994891372E+03 -0.46532986832E+03  0.56984335610E+03  0.19900000000E+03 0.  0.
<mgrwt>
<rscale>  0 0.65896855E+03</rscale>
<asrwt>0</asrwt>
<pdfrwt beam="1">  1        2 0.13972136E+00 0.65896855E+03</pdfrwt>
<pdfrwt beam="2">  1       -2 0.15856615E-01 0.65896855E+03</pdfrwt>
<totfact> 0.92806676E+02</totfact>
</mgrwt>
</event>
<event>
 4    1  0.4915183E-005  0.1337902E+04  0.7818608E-02  0.9000037E-01
          2   -1    0    0  501    0  0.00000000000E+00  0.00000000000E+00  0.23422170364E+04  0.23422170364E+04  0.25500000000E-02 0.  1.
         -2   -1    0    0    0  501 -0.00000000000E+00 -0.00000000000E+00 -0.19105643525E+03  0.19105643527E+03  0.25500000000E-02 0. -1.
    5000001    1    1    2    0    0 -0.23284128989E+03 -0.56856107133E+03  0.74534602759E+03  0.98621420541E+03  0.19900000000E+03 0.  0.
   -5000001    1    1    2    0    0  0.23284128989E+03  0.56856107133E+03  0.14058145736E+04  0.15470592663E+04  0.19900000000E+03 0.  0.
<mgrwt>
<rscale>  0 0.13379023E+04</rscale>
<asrwt>0</asrwt>
<pdfrwt beam="1">  1        2 0.33460242E+00 0.13379023E+04</pdfrwt>
<pdfrwt beam="2">  1       -2 0.27293777E-01 0.13379023E+04</pdfrwt>
<totfact> 0.63877769E+01</totfact>
</mgrwt>
</event>
<event>
 4    1  0.4915183E-005  0.5066987E+03  0.7818608E-02  0.1012045E+00
         -2   -1    0    0    0  501 -0.00000000000E+00  0.00000000000E+00  0.23286339445E+02  0.23286339585E+02  0.25500000000E-02 0. -1.
          2   -1    0    0  501    0  0.00000000000E+00 -0.00000000000E+00 -0.27563750963E+04  0.27563750963E+04  0.25500000000E-02 0.  1.
    5000001    1    1    2    0    0  0.13624133660E+03 -0.77609071190E+02 -0.13658375926E+04  0.13891357742E+04  0.19900000000E+03 0.  0.
   -5000001    1    1    2    0    0 -0.13624133660E+03  0.77609071190E+02 -0.13672511643E+04  0.13905256617E+04  0.19900000000E+03 0.  0.
<mgrwt>
<rscale>  0 0.50669867E+03</rscale>
<asrwt>0</asrwt>
<pdfrwt beam="1">  1        2 0.39376766E+00 0.50669867E+03</pdfrwt>
<pdfrwt beam="2">  1       -2 0.33266217E-02 0.50669867E+03</pdfrwt>
<totfact> 0.13165746E+03</totfact>
</mgrwt>
</event>
<event>
 4    1  0.4915183E-005  0.5022813E+03  0.7818608E-02  0.1013185E+00
         -2   -1    0    0    0  501 -0.00000000000E+00  0.00000000000E+00  0.46434352753E+02  0.46434352823E+02  0.25500000000E-02 0. -1.
          2   -1    0    0  501    0  0.00000000000E+00 -0.00000000000E+00 -0.13582966281E+04  0.13582966281E+04  0.25500000000E-02 0.  1.
    5000001    1    1    2    0    0  0.86378201589E+02 -0.12461339793E+03 -0.59459900458E+03  0.64508810941E+03  0.19900000000E+03 0.  0.
   -5000001    1    1    2    0    0 -0.86378201589E+02  0.12461339793E+03 -0.71726327075E+03  0.75964287150E+03  0.19900000000E+03 0.  0.
<mgrwt>
<rscale>  0 0.50228129E+03</rscale>
<asrwt>0</asrwt>
<pdfrwt beam="1">  1        2 0.19404235E+00 0.50228129E+03</pdfrwt>
<pdfrwt beam="2">  1       -2 0.66334798E-02 0.50228129E+03</pdfrwt>
<totfact> 0.23342174E+03</totfact>
</mgrwt>
</event>
<event>
 4    1  0.4915183E-005  0.6178327E+03  0.7818608E-02  0.9869084E-01
         -2   -1    0    0    0  501 -0.00000000000E+00  0.00000000000E+00  0.15345506792E+03  0.15345506794E+03  0.25500000000E-02 0. -1.
          2   -1    0    0  501    0  0.00000000000E+00 -0.00000000000E+00 -0.62187139151E+03  0.62187139152E+03  0.25500000000E-02 0.  1.
    5000001    1    1    2    0    0 -0.18457945133E+03  0.10733136212E+03 -0.10722779785E+03  0.31094757722E+03  0.19900000000E+03 0.  0.
   -5000001    1    1    2    0    0  0.18457945133E+03 -0.10733136212E+03 -0.36118852574E+03  0.46437888224E+03  0.19900000000E+03 0.  0.
<mgrwt>
<rscale>  0 0.61783272E+03</rscale>
<asrwt>0</asrwt>
<pdfrwt beam="1">  1        2 0.88838769E-01 0.61783272E+03</pdfrwt>
<pdfrwt beam="2">  1       -2 0.21922153E-01 0.61783272E+03</pdfrwt>
<totfact> 0.94562062E+02</totfact>
</mgrwt>
</event>
<event>
 4    1  0.4915183E-005  0.1356690E+04  0.7818608E-02  0.8985780E-01
         -2   -1    0    0    0  501 -0.00000000000E+00  0.00000000000E+00  0.49893951182E+03  0.49893951182E+03  0.25500000000E-02 0. -1.
          2   -1    0    0  501    0  0.00000000000E+00 -0.00000000000E+00 -0.92225934891E+03  0.92225934892E+03  0.25500000000E-02 0.  1.
    5000001    1    1    2    0    0 -0.47358890477E+03  0.39754001973E+03 -0.68483738686E+01  0.64959404110E+03  0.19900000000E+03 0.  0.
   -5000001    1    1    2    0    0  0.47358890477E+03 -0.39754001973E+03 -0.41647146323E+03  0.77160481964E+03  0.19900000000E+03 0.  0.
<mgrwt>
<rscale>  0 0.13566895E+04</rscale>
<asrwt>0</asrwt>
<pdfrwt beam="1">  1        2 0.13175134E+00 0.13566895E+04</pdfrwt>
<pdfrwt beam="2">  1       -2 0.71277073E-01 0.13566895E+04</pdfrwt>
<totfact> 0.54947011E+01</totfact>
</mgrwt>
</event>
<event>
 4    1  0.4915183E-005  0.6518185E+03  0.7818608E-02  0.9803373E-01
         -2   -1    0    0    0  501 -0.00000000000E+00  0.00000000000E+00  0.11024274570E+03  0.11024274573E+03  0.25500000000E-02 0. -1.
          2   -1    0    0  501    0  0.00000000000E+00 -0.00000000000E+00 -0.96348143713E+03  0.96348143713E+03  0.25500000000E-02 0.  1.
    5000001    1    1    2    0    0  0.17110420177E+02 -0.21617903542E+03 -0.19606149528E+03  0.35364848616E+03  0.19900000000E+03 0.  0.
   -5000001    1    1    2    0    0 -0.17110420177E+02  0.21617903542E+03 -0.65717719615E+03  0.72007569670E+03  0.19900000000E+03 0.  0.
<mgrwt>
<rscale>  0 0.65181850E+03</rscale>
<asrwt>0</asrwt>
<pdfrwt beam="1">  1        2 0.13764020E+00 0.65181850E+03</pdfrwt>
<pdfrwt beam="2">  1       -2 0.15748964E-01 0.65181850E+03</pdfrwt>
<totfact> 0.95879546E+02</totfact>
</mgrwt>
</event>
<event>
 4    1  0.4915183E-005  0.5819033E+03  0.7818608E-02  0.9943679E-01
         -2   -1    0    0    0  501 -0.00000000000E+00  0.00000000000E+00  0.19162907065E+03  0.19162907066E+03  0.25500000000E-02 0. -1.
          2   -1    0    0  501    0  0.00000000000E+00 -0.00000000000E+00 -0.44175368659E+03  0.44175368659E+03  0.25500000000E-02 0.  1.
    5000001    1    1    2    0    0  0.20208011751E+03 -0.63459971797E+02 -0.13999878298E+03  0.32258983423E+03  0.19900000000E+03 0.  0.
   -5000001    1    1    2    0    0 -0.20208011751E+03  0.63459971797E+02 -0.11012583296E+03  0.31079292302E+03  0.19900000000E+03 0.  0.
<mgrwt>
<rscale>  0 0.58190325E+03</rscale>
<asrwt>0</asrwt>
<pdfrwt beam="1">  1        2 0.63107669E-01 0.58190325E+03</pdfrwt>
<pdfrwt beam="2">  1       -2 0.27375582E-01 0.58190325E+03</pdfrwt>
<totfact> 0.94141469E+02</totfact>
</mgrwt>
</event>
<event>
 4    1  0.4915183E-005  0.4945403E+03  0.7818608E-02  0.1015214E+00
         -2   -1    0    0    0  501 -0.00000000000E+00  0.00000000000E+00  0.51522910623E+02  0.51522910686E+02  0.25500000000E-02 0. -1.
          2   -1    0    0  501    0  0.00000000000E+00 -0.00000000000E+00 -0.11867055993E+04  0.11867055993E+04  0.25500000000E-02 0.  1.
    5000001    1    1    2    0    0  0.90361944542E+02 -0.98204082873E+02 -0.72055271972E+03  0.75934612978E+03  0.19900000000E+03 0.  0.
   -5000001    1    1    2    0    0 -0.90361944542E+02  0.98204082873E+02 -0.41462996892E+03  0.47888238018E+03  0.19900000000E+03 0.  0.
<mgrwt>
<rscale>  0 0.49454030E+03</rscale>
<asrwt>0</asrwt>
<pdfrwt beam="1">  1        2 0.16952935E+00 0.49454030E+03</pdfrwt>
<pdfrwt beam="2">  1       -2 0.73604165E-02 0.49454030E+03</pdfrwt>
<totfact> 0.24580268E+03</totfact>
</mgrwt>
</event>
<event>
 4    1  0.4915183E-005  0.6801682E+03  0.7818608E-02  0.9751761E-01
         -2   -1    0    0    0  501 -0.00000000000E+00  0.00000000000E+00  0.14801955696E+03  0.14801955698E+03  0.25500000000E-02 0. -1.
          2   -1    0    0  501    0  0.00000000000E+00 -0.00000000000E+00 -0.78136421240E+03  0.78136421240E+03  0.25500000000E-02 0.  1.
    5000001    1    1    2    0    0 -0.14719401783E+03 -0.23061651999E+03 -0.26921806963E+03  0.43235335918E+03  0.19900000000E+03 0.  0.
   -5000001    1    1    2    0    0  0.14719401783E+03  0.23061651999E+03 -0.36412658580E+03  0.49703041020E+03  0.19900000000E+03 0.  0.
<mgrwt>
<rscale>  0 0.68016817E+03</rscale>
<asrwt>0</asrwt>
<pdfrwt beam="1">  1        2 0.11162346E+00 0.68016817E+03</pdfrwt>
<pdfrwt beam="2">  1       -2 0.21145651E-01 0.68016817E+03</pdfrwt>
<totfact> 0.76045263E+02</totfact>
</mgrwt>
</event>
<event>
 4    1  0.4915183E-005  0.8144657E+03  0.7818608E-02  0.9539311E-01
         -2   -1    0    0    0  501 -0.00000000000E+00  0.00000000000E+00  0.15901720163E+03  0.15901720165E+03  0.25500000000E-02 0. -1.
          2   -1    0    0  501    0  0.00000000000E+00 -0.00000000000E+00 -0.10428973156E+04  0.10428973156E+04  0.25500000000E-02 0.  1.
    5000001    1    1    2    0    0 -0.15499531750E+03 -0.15864976790E+03 -0.32329579128E+02  0.29973237894E+03  0.19900000000E+03 0.  0.
   -5000001    1    1    2    0    0  0.15499531750E+03  0.15864976790E+03 -0.85155053480E+03  0.90218213828E+03  0.19900000000E+03 0.  0.
<mgrwt>
<rscale>  0 0.81446575E+03</rscale>
<asrwt>0</asrwt>
<pdfrwt beam="1">  1        2 0.14898533E+00 0.81446575E+03</pdfrwt>
<pdfrwt beam="2">  1       -2 0.22716744E-01 0.81446575E+03</pdfrwt>
<totfact> 0.45120598E+02</totfact>
</mgrwt>
</event>
<event>
 4    1  0.4915183E-005  0.6760948E+03  0.7818608E-02  0.9759010E-01
          2   -1    0    0  501    0  0.00000000000E+00  0.00000000000E+00  0.73615022712E+03  0.73615022713E+03  0.25500000000E-02 0.  1.
         -2   -1    0    0    0  501 -0.00000000000E+00 -0.00000000000E+00 -0.15523469065E+03  0.15523469067E+03  0.25500000000E-02 0. -1.
    5000001    1    1    2    0    0  0.18460771422E+03  0.13440335781E+03  0.48835777255E+03  0.57466388850E+03  0.19900000000E+03 0.  0.
   -5000001    1    1    2    0    0 -0.18460771422E+03 -0.13440335781E+03  0.92557763915E+02  0.31672102930E+03  0.19900000000E+03 0.  0.
<mgrwt>
<rscale>  0 0.67609482E+03</rscale>
<asrwt>0</asrwt>
<pdfrwt beam="1">  1        2 0.10516432E+00 0.67609482E+03</pdfrwt>
<pdfrwt beam="2">  1       -2 0.22176384E-01 0.67609482E+03</pdfrwt>
<totfact> 0.75381448E+02</totfact>
</mgrwt>
</event>
<event>
 4    1  0.4915183E-005  0.5341085E+03  0.7818608E-02  0.1005241E+00
          2   -1    0    0  501    0  0.00000000000E+00  0.00000000000E+00  0.47281711304E+03  0.47281711305E+03  0.25500000000E-02 0. -1.
         -2   -1    0    0    0  501 -0.00000000000E+00 -0.00000000000E+00 -0.15083629986E+03  0.15083629988E+03  0.25500000000E-02 0.  1.
    5000001    1    1    2    0    0 -0.13646290411E+03 -0.86485856818E+02  0.73493875814E+02  0.26665385317E+03  0.19900000000E+03 0.  0.
   -5000001    1    1    2    0    0  0.13646290411E+03  0.86485856818E+02  0.24848693737E+03  0.35699955976E+03  0.19900000000E+03 0.  0.
<mgrwt>
<rscale>  0 0.53410854E+03</rscale>
<asrwt>0</asrwt>
<pdfrwt beam="1">  1        2 0.67545301E-01 0.53410854E+03</pdfrwt>
<pdfrwt beam="2">  1       -2 0.21548043E-01 0.53410854E+03</pdfrwt>
<totfact> 0.13378505E+03</totfact>
</mgrwt>
</event>
<event>
 4    1  0.4915183E-005  0.6212275E+03  0.7818608E-02  0.9862319E-01
          2   -1    0    0  501    0  0.00000000000E+00  0.00000000000E+00  0.45465806425E+03  0.45465806426E+03  0.25500000000E-02 0.  1.
         -2   -1    0    0    0  501 -0.00000000000E+00 -0.00000000000E+00 -0.21220538231E+03  0.21220538233E+03  0.25500000000E-02 0. -1.
    5000001    1    1    2    0    0 -0.17636173144E+03 -0.14907002578E+03  0.18522618521E+03  0.35670025594E+03  0.19900000000E+03 0.  0.
   -5000001    1    1    2    0    0  0.17636173144E+03  0.14907002578E+03  0.57226496734E+02  0.31016319064E+03  0.19900000000E+03 0.  0.
<mgrwt>
<rscale>  0 0.62122746E+03</rscale>
<asrwt>0</asrwt>
<pdfrwt beam="1">  1        2 0.64951153E-01 0.62122746E+03</pdfrwt>
<pdfrwt beam="2">  1       -2 0.30315054E-01 0.62122746E+03</pdfrwt>
<totfact> 0.75547743E+02</totfact>
</mgrwt>
</event>
<event>
 4    1  0.4915183E-005  0.5757641E+03  0.7818608E-02  0.9957004E-01
          2   -1    0    0  501    0  0.00000000000E+00  0.00000000000E+00  0.67873983637E+02  0.67873983685E+02  0.25500000000E-02 0.  1.
         -2   -1    0    0    0  501 -0.00000000000E+00 -0.00000000000E+00 -0.12210286544E+04  0.12210286544E+04  0.25500000000E-02 0. -1.
    5000001    1    1    2    0    0  0.13994146489E+03 -0.11647148652E+03 -0.80184115268E+03  0.84599022151E+03  0.19900000000E+03 0.  0.
   -5000001    1    1    2    0    0 -0.13994146489E+03  0.11647148652E+03 -0.35131351808E+03  0.44291241657E+03  0.19900000000E+03 0.  0.
<mgrwt>
<rscale>  0 0.57576411E+03</rscale>
<asrwt>0</asrwt>
<pdfrwt beam="1">  1        2 0.96962841E-02 0.57576411E+03</pdfrwt>
<pdfrwt beam="2">  1       -2 0.17443265E+00 0.57576411E+03</pdfrwt>
<totfact> 0.13994068E+02</totfact>
</mgrwt>
</event>
<event>
 4    1  0.4915183E-005  0.1517416E+04  0.7818608E-02  0.8872953E-01
          2   -1    0    0  501    0  0.00000000000E+00  0.00000000000E+00  0.26974590732E+04  0.26974590732E+04  0.25500000000E-02 0.  1.
         -2   -1    0    0    0  501 -0.00000000000E+00 -0.00000000000E+00 -0.21340002635E+03  0.21340002636E+03  0.25500000000E-02 0. -1.
    5000001    1    1    2    0    0  0.32477942010E+03 -0.60200030209E+03  0.17428153247E+04  0.18827884351E+04  0.19900000000E+03 0.  0.
   -5000001    1    1    2    0    0 -0.32477942010E+03  0.60200030209E+03  0.74124372214E+03  0.10280706644E+04  0.19900000000E+03 0.  0.
<mgrwt>
<rscale>  0 0.15174160E+04</rscale>
<asrwt>0</asrwt>
<pdfrwt beam="1">  1        2 0.38535129E+00 0.15174160E+04</pdfrwt>
<pdfrwt beam="2">  1       -2 0.30485719E-01 0.15174160E+04</pdfrwt>
<totfact> 0.33345038E+01</totfact>
</mgrwt>
</event>
<event>
 4    1  0.4915183E-005  0.9262779E+03  0.7818608E-02  0.9393316E-01
          2   -1    0    0  501    0  0.00000000000E+00  0.00000000000E+00  0.81837225586E+03  0.81837225587E+03  0.25500000000E-02 0.  1.
         -2   -1    0    0    0  501 -0.00000000000E+00 -0.00000000000E+00 -0.26210282477E+03  0.26210282478E+03  0.25500000000E-02 0. -1.
    5000001    1    1    2    0    0  0.30578922420E+03 -0.74229744162E+02  0.59945334502E+03  0.70566452186E+03  0.19900000000E+03 0.  0.
   -5000001    1    1    2    0    0 -0.30578922420E+03  0.74229744162E+02 -0.43183913920E+02  0.37481055879E+03  0.19900000000E+03 0.  0.
<mgrwt>
<rscale>  0 0.92627788E+03</rscale>
<asrwt>0</asrwt>
<pdfrwt beam="1">  1        2 0.11691032E+00 0.92627788E+03</pdfrwt>
<pdfrwt beam="2">  1       -2 0.37443261E-01 0.92627788E+03</pdfrwt>
<totfact> 0.24820699E+02</totfact>
</mgrwt>
</event>
<event>
 4    1  0.4915183E-005  0.5689447E+03  0.7818608E-02  0.9972017E-01
         -2   -1    0    0    0  501 -0.00000000000E+00  0.00000000000E+00  0.68155303083E+02  0.68155303131E+02  0.25500000000E-02 0. -1.
          2   -1    0    0  501    0  0.00000000000E+00 -0.00000000000E+00 -0.11873545018E+04  0.11873545019E+04  0.25500000000E-02 0.  1.
    5000001    1    1    2    0    0 -0.11528114865E+01  0.18634335291E+03 -0.38034629894E+03  0.46796311955E+03  0.19900000000E+03 0.  0.
   -5000001    1    1    2    0    0  0.11528114865E+01 -0.18634335291E+03 -0.73885289983E+03  0.78754668543E+03  0.19900000000E+03 0.  0.
<mgrwt>
<rscale>  0 0.56894466E+03</rscale>
<asrwt>0</asrwt>
<pdfrwt beam="1">  1        2 0.16962206E+00 0.56894466E+03</pdfrwt>
<pdfrwt beam="2">  1       -2 0.97364726E-02 0.56894466E+03</pdfrwt>
<totfact> 0.15696748E+03</totfact>
</mgrwt>
</event>
<event>
 4    1  0.4915183E-005  0.5495027E+03  0.7818608E-02  0.1001609E+00
         -2   -1    0    0    0  501 -0.00000000000E+00  0.00000000000E+00  0.11368499965E+03  0.11368499968E+03  0.25500000000E-02 0. -1.
          2   -1    0    0  501    0  0.00000000000E+00 -0.00000000000E+00 -0.66401292382E+03  0.66401292382E+03  0.25500000000E-02 0.  1.
    5000001    1    1    2    0    0  0.13405615582E+03 -0.10953600594E+03 -0.16628776056E+03  0.31180411932E+03  0.19900000000E+03 0.  0.
   -5000001    1    1    2    0    0 -0.13405615582E+03  0.10953600594E+03 -0.38404016361E+03  0.46589380418E+03  0.19900000000E+03 0.  0.
<mgrwt>
<rscale>  0 0.54950272E+03</rscale>
<asrwt>0</asrwt>
<pdfrwt beam="1">  1        2 0.94858987E-01 0.54950272E+03</pdfrwt>
<pdfrwt beam="2">  1       -2 0.16240715E-01 0.54950272E+03</pdfrwt>
<totfact> 0.14694325E+03</totfact>
</mgrwt>
</event>
<event>
 4    1  0.4915183E-005  0.9097181E+03  0.7818608E-02  0.9413514E-01
         -2   -1    0    0    0  501 -0.00000000000E+00  0.00000000000E+00  0.53693786557E+03  0.53693786558E+03  0.25500000000E-02 0. -1.
          2   -1    0    0  501    0  0.00000000000E+00 -0.00000000000E+00 -0.38532714231E+03  0.38532714232E+03  0.25500000000E-02 0.  1.
    5000001    1    1    2    0    0 -0.15658767983E+03  0.33615247792E+03  0.25074706554E+03  0.48989109072E+03  0.19900000000E+03 0.  0.
   -5000001    1    1    2    0    0  0.15658767983E+03 -0.33615247792E+03 -0.99136342281E+02  0.43237391717E+03  0.19900000000E+03 0.  0.
<mgrwt>
<rscale>  0 0.90971805E+03</rscale>
<asrwt>0</asrwt>
<pdfrwt beam="1">  1        2 0.55046734E-01 0.90971805E+03</pdfrwt>
<pdfrwt beam="2">  1       -2 0.76705410E-01 0.90971805E+03</pdfrwt>
<totfact> 0.13746125E+02</totfact>
</mgrwt>
</event>
<event>
 4    1  0.4915183E-005  0.8514956E+03  0.7818608E-02  0.9488332E-01
         -2   -1    0    0    0  501 -0.00000000000E+00  0.00000000000E+00  0.22949992493E+03  0.22949992494E+03  0.25500000000E-02 0. -1.
          2   -1    0    0  501    0  0.00000000000E+00 -0.00000000000E+00 -0.78980933093E+03  0.78980933094E+03  0.25500000000E-02 0.  1.
    5000001    1    1    2    0    0 -0.35299044405E+03 -0.16392380114E+02 -0.43526434950E+03  0.59491765620E+03  0.19900000000E+03 0.  0.
   -5000001    1    1    2    0    0  0.35299044405E+03  0.16392380114E+02 -0.12504505651E+03  0.42439159967E+03  0.19900000000E+03 0.  0.
<mgrwt>
<rscale>  0 0.85149558E+03</rscale>
<asrwt>0</asrwt>
<pdfrwt beam="1">  1        2 0.11282990E+00 0.85149558E+03</pdfrwt>
<pdfrwt beam="2">  1       -2 0.32785704E-01 0.85149558E+03</pdfrwt>
<totfact> 0.33589144E+02</totfact>
</mgrwt>
</event>
<event>
 4    1  0.4915183E-005  0.5387360E+03  0.7818608E-02  0.1004135E+00
          2   -1    0    0  501    0  0.00000000000E+00  0.00000000000E+00  0.31021840742E+04  0.31021840742E+04  0.25500000000E-02 0.  1.
         -2   -1    0    0    0  501 -0.00000000000E+00 -0.00000000000E+00 -0.23389689901E+02  0.23389690040E+02  0.25500000000E-02 0. -1.
    5000001    1    1    2    0    0  0.56862629786E+00 -0.54555577435E+02  0.53482686920E+03  0.57325161525E+03  0.19900000000E+03 0.  0.
   -5000001    1    1    2    0    0 -0.56862629786E+00  0.54555577435E+02  0.25439675151E+04  0.25523221490E+04  0.19900000000E+03 0.  0.
<mgrwt>
<rscale>  0 0.53873602E+03</rscale>
<asrwt>0</asrwt>
<pdfrwt beam="1">  1        2 0.44316913E+00 0.53873602E+03</pdfrwt>
<pdfrwt beam="2">  1       -2 0.33413844E-02 0.53873602E+03</pdfrwt>
<totfact> 0.85060931E+02</totfact>
</mgrwt>
</event>
<event>
 4    1  0.4915183E-005  0.5334932E+03  0.7818608E-02  0.1005388E+00
         -2   -1    0    0    0  501 -0.00000000000E+00  0.00000000000E+00  0.54892770576E+03  0.54892770577E+03  0.25500000000E-02 0. -1.
          2   -1    0    0  501    0  0.00000000000E+00 -0.00000000000E+00 -0.12962318502E+03  0.12962318504E+03  0.25500000000E-02 0.  1.
    5000001    1    1    2    0    0  0.35923723584E+02 -0.17157382775E+03  0.17312708016E+03  0.31670503338E+03  0.19900000000E+03 0.  0.
   -5000001    1    1    2    0    0 -0.35923723584E+02  0.17157382775E+03  0.24617744059E+03  0.36184585743E+03  0.19900000000E+03 0.  0.
<mgrwt>
<rscale>  0 0.53349323E+03</rscale>
<asrwt>0</asrwt>
<pdfrwt beam="1">  1        2 0.18517598E-01 0.53349323E+03</pdfrwt>
<pdfrwt beam="2">  1       -2 0.78418242E-01 0.53349323E+03</pdfrwt>
<totfact> 0.45414610E+02</totfact>
</mgrwt>
</event>
<event>
 4    1  0.4915183E-005  0.1056658E+04  0.7818608E-02  0.9248497E-01
         -2   -1    0    0    0  501 -0.00000000000E+00  0.00000000000E+00  0.24131895452E+03  0.24131895453E+03  0.25500000000E-02 0. -1.
          2   -1    0    0  501    0  0.00000000000E+00 -0.00000000000E+00 -0.11566911449E+04  0.11566911449E+04  0.25500000000E-02 0.  1.
    5000001    1    1    2    0    0 -0.63322263576E+02  0.33010218698E+03  0.12979753454E+02  0.39082814242E+03  0.19900000000E+03 0.  0.
   -5000001    1    1    2    0    0  0.63322263576E+02 -0.33010218698E+03 -0.92835194382E+03  0.10071819570E+04  0.19900000000E+03 0.  0.
<mgrwt>
<rscale>  0 0.10566579E+04</rscale>
<asrwt>0</asrwt>
<pdfrwt beam="1">  1        2 0.16524159E+00 0.10566579E+04</pdfrwt>
<pdfrwt beam="2">  1       -2 0.34474137E-01 0.10566579E+04</pdfrwt>
<totfact> 0.17729489E+02</totfact>
</mgrwt>
</event>
<event>
 4    1  0.4915183E-005  0.1512467E+04  0.7818608E-02  0.8876205E-01
          2   -1    0    0  501    0  0.00000000000E+00  0.00000000000E+00  0.79147021886E+03  0.79147021887E+03  0.25500000000E-02 0.  1.
         -2   -1    0    0    0  501 -0.00000000000E+00 -0.00000000000E+00 -0.72256548582E+03  0.72256548583E+03  0.25500000000E-02 0. -1.
    5000001    1    1    2    0    0  0.40084862601E+03  0.18502958882E+03 -0.54698784184E+03  0.73055613668E+03  0.19900000000E+03 0.  0.
   -5000001    1    1    2    0    0 -0.40084862601E+03 -0.18502958882E+03  0.61589257488E+03  0.78347956802E+03  0.19900000000E+03 0.  0.
<mgrwt>
<rscale>  0 0.15124669E+04</rscale>
<asrwt>0</asrwt>
<pdfrwt beam="1">  1        2 0.11306717E+00 0.15124669E+04</pdfrwt>
<pdfrwt beam="2">  1       -2 0.10322364E+00 0.15124669E+04</pdfrwt>
<totfact> 0.28552804E+01</totfact>
</mgrwt>
</event>
<event>
 4    1  0.4915183E-005  0.8229696E+03  0.7818608E-02  0.9527352E-01
          2   -1    0    0  501    0  0.00000000000E+00  0.00000000000E+00  0.97869823953E+02  0.97869823986E+02  0.25500000000E-02 0.  1.
         -2   -1    0    0    0  501 -0.00000000000E+00 -0.00000000000E+00 -0.17300504512E+04  0.17300504512E+04  0.25500000000E-02 0. -1.
    5000001    1    1    2    0    0  0.23988398744E+03  0.70704747000E+02 -0.24041435284E+03  0.39992943094E+03  0.19900000000E+03 0.  0.
   -5000001    1    1    2    0    0 -0.23988398744E+03 -0.70704747000E+02 -0.13917662744E+04  0.14279908442E+04  0.19900000000E+03 0.  0.
<mgrwt>
<rscale>  0 0.82296958E+03</rscale>
<asrwt>0</asrwt>
<pdfrwt beam="1">  1        2 0.13981405E-01 0.82296958E+03</pdfrwt>
<pdfrwt beam="2">  1       -2 0.24715004E+00 0.82296958E+03</pdfrwt>
<totfact> 0.29877300E+01</totfact>
</mgrwt>
</event>
<event>
 4    1  0.4915183E-005  0.1002036E+04  0.7818608E-02  0.9306314E-01
          2   -1    0    0  501    0  0.00000000000E+00  0.00000000000E+00  0.16295006823E+04  0.16295006823E+04  0.25500000000E-02 0.  1.
         -2   -1    0    0    0  501 -0.00000000000E+00 -0.00000000000E+00 -0.15404674661E+03  0.15404674663E+03  0.25500000000E-02 0. -1.
    5000001    1    1    2    0    0  0.26869625252E+03  0.23129161093E+02  0.74874491602E+02  0.34342367959E+03  0.19900000000E+03 0.  0.
   -5000001    1    1    2    0    0 -0.26869625252E+03 -0.23129161093E+02  0.14005794441E+04  0.14401237494E+04  0.19900000000E+03 0.  0.
<mgrwt>
<rscale>  0 0.10020365E+04</rscale>
<asrwt>0</asrwt>
<pdfrwt beam="1">  1        2 0.23278582E+00 0.10020365E+04</pdfrwt>
<pdfrwt beam="2">  1       -2 0.22006677E-01 0.10020365E+04</pdfrwt>
<totfact> 0.22455116E+02</totfact>
</mgrwt>
</event>
<event>
 4    1  0.4915183E-005  0.5537449E+03  0.7818608E-02  0.1000631E+00
         -2   -1    0    0    0  501 -0.00000000000E+00  0.00000000000E+00  0.54387716701E+02  0.54387716761E+02  0.25500000000E-02 0. -1.
          2   -1    0    0  501    0  0.00000000000E+00 -0.00000000000E+00 -0.14094793722E+04  0.14094793722E+04  0.25500000000E-02 0.  1.
    5000001    1    1    2    0    0  0.14925556998E+03  0.51782355554E+02 -0.38676771061E+03  0.46276224942E+03  0.19900000000E+03 0.  0.
   -5000001    1    1    2    0    0 -0.14925556998E+03 -0.51782355554E+02 -0.96832394493E+03  0.10011048396E+04  0.19900000000E+03 0.  0.
<mgrwt>
<rscale>  0 0.55374494E+03</rscale>
<asrwt>0</asrwt>
<pdfrwt beam="1">  1        2 0.20135417E+00 0.55374494E+03</pdfrwt>
<pdfrwt beam="2">  1       -2 0.77696747E-02 0.55374494E+03</pdfrwt>
<totfact> 0.17067114E+03</totfact>
</mgrwt>
</event>
<event>
 4    1  0.4915183E-005  0.7794874E+03  0.7818608E-02  0.9590192E-01
         -2   -1    0    0    0  501 -0.00000000000E+00  0.00000000000E+00  0.59859653938E+02  0.59859653992E+02  0.25500000000E-02 0. -1.
          2   -1    0    0  501    0  0.00000000000E+00 -0.00000000000E+00 -0.25376050073E+04  0.25376050073E+04  0.25500000000E-02 0.  1.
    5000001    1    1    2    0    0 -0.14183866193E+03 -0.30335336747E+03 -0.11970282908E+04  0.12588165873E+04  0.19900000000E+03 0.  0.
   -5000001    1    1    2    0    0  0.14183866193E+03  0.30335336747E+03 -0.12807170625E+04  0.13386480739E+04  0.19900000000E+03 0.  0.
<mgrwt>
<rscale>  0 0.77948742E+03</rscale>
<asrwt>0</asrwt>
<pdfrwt beam="1">  1        2 0.36251493E+00 0.77948742E+03</pdfrwt>
<pdfrwt beam="2">  1       -2 0.85513807E-02 0.77948742E+03</pdfrwt>
<totfact> 0.38389237E+02</totfact>
</mgrwt>
</event>
<event>
 4    1  0.4915183E-005  0.7474706E+03  0.7818608E-02  0.9639327E-01
          2   -1    0    0  501    0  0.00000000000E+00  0.00000000000E+00  0.28923401048E+03  0.28923401049E+03  0.25500000000E-02 0.  1.
         -2   -1    0    0    0  501 -0.00000000000E+00 -0.00000000000E+00 -0.48292413511E+03  0.48292413511E+03  0.25500000000E-02 0. -1.
    5000001    1    1    2    0    0 -0.26888901558E+03 -0.76574666439E+02 -0.24976149151E+03  0.42443702110E+03  0.19900000000E+03 0.  0.
   -5000001    1    1    2    0    0  0.26888901558E+03  0.76574666439E+02  0.56071366877E+02  0.34772112450E+03  0.19900000000E+03 0.  0.
<mgrwt>
<rscale>  0 0.74747063E+03</rscale>
<asrwt>0</asrwt>
<pdfrwt beam="1">  1        2 0.41319145E-01 0.74747063E+03</pdfrwt>
<pdfrwt beam="2">  1       -2 0.68989162E-01 0.74747063E+03</pdfrwt>
<totfact> 0.24039308E+02</totfact>
</mgrwt>
</event>
<event>
 4    1  0.4915183E-005  0.7825707E+03  0.7818608E-02  0.9585594E-01
          2   -1    0    0  501    0  0.00000000000E+00  0.00000000000E+00  0.12743749543E+04  0.12743749543E+04  0.25500000000E-02 0. -1.
         -2   -1    0    0    0  501 -0.00000000000E+00 -0.00000000000E+00 -0.12014062732E+03  0.12014062735E+03  0.25500000000E-02 0.  1.
    5000001    1    1    2    0    0  0.32548734621E+03  0.65551910095E+02  0.67892571772E+03  0.78152427706E+03  0.19900000000E+03 0.  0.
   -5000001    1    1    2    0    0 -0.32548734621E+03 -0.65551910095E+02  0.47530860922E+03  0.61299130455E+03  0.19900000000E+03 0.  0.
<mgrwt>
<rscale>  0 0.78257065E+03</rscale>
<asrwt>0</asrwt>
<pdfrwt beam="1">  1        2 0.18205356E+00 0.78257065E+03</pdfrwt>
<pdfrwt beam="2">  1       -2 0.17162947E-01 0.78257065E+03</pdfrwt>
<totfact> 0.54279358E+02</totfact>
</mgrwt>
</event>
<event>
 4    1  0.4915183E-005  0.7147325E+03  0.7818608E-02  0.9692364E-01
          2   -1    0    0  501    0  0.00000000000E+00  0.00000000000E+00  0.29826241033E+03  0.29826241034E+03  0.25500000000E-02 0.  1.
         -2   -1    0    0    0  501 -0.00000000000E+00 -0.00000000000E+00 -0.42818218439E+03  0.42818218440E+03  0.25500000000E-02 0. -1.
    5000001    1    1    2    0    0 -0.23406412214E+03 -0.13395302919E+03  0.61089361249E+02  0.34067922943E+03  0.19900000000E+03 0.  0.
   -5000001    1    1    2    0    0  0.23406412214E+03  0.13395302919E+03 -0.19100913531E+03  0.38576536531E+03  0.19900000000E+03 0.  0.
<mgrwt>
<rscale>  0 0.71473254E+03</rscale>
<asrwt>0</asrwt>
<pdfrwt beam="1">  1        2 0.42608916E-01 0.71473254E+03</pdfrwt>
<pdfrwt beam="2">  1       -2 0.61168884E-01 0.71473254E+03</pdfrwt>
<totfact> 0.30103704E+02</totfact>
</mgrwt>
</event>
<event>
 4    1  0.4915183E-005  0.5513705E+03  0.7818608E-02  0.1001177E+00
          2   -1    0    0  501    0  0.00000000000E+00  0.00000000000E+00  0.74242033613E+03  0.74242033613E+03  0.25500000000E-02 0. -1.
         -2   -1    0    0    0  501 -0.00000000000E+00 -0.00000000000E+00 -0.10237106046E+03  0.10237106049E+03  0.25500000000E-02 0.  1.
    5000001    1    1    2    0    0 -0.21643921653E+02  0.18741978880E+03  0.27650677923E+03  0.38942474952E+03  0.19900000000E+03 0.  0.
   -5000001    1    1    2    0    0  0.21643921653E+02 -0.18741978880E+03  0.36354249644E+03  0.45536664711E+03  0.19900000000E+03 0.  0.
<mgrwt>
<rscale>  0 0.55137050E+03</rscale>
<asrwt>0</asrwt>
<pdfrwt beam="1">  1        2 0.10606005E+00 0.55137050E+03</pdfrwt>
<pdfrwt beam="2">  1       -2 0.14624437E-01 0.55137050E+03</pdfrwt>
<totfact> 0.15298667E+03</totfact>
</mgrwt>
</event>
<event>
 4    1  0.4915183E-005  0.1056739E+04  0.7818608E-02  0.9248414E-01
         -2   -1    0    0    0  501 -0.00000000000E+00  0.00000000000E+00  0.16336539304E+03  0.16336539306E+03  0.25500000000E-02 0. -1.
          2   -1    0    0  501    0  0.00000000000E+00 -0.00000000000E+00 -0.17088964627E+04  0.17088964627E+04  0.25500000000E-02 0.  1.
    5000001    1    1    2    0    0  0.32645136370E+03 -0.11013738499E+03 -0.13887403972E+04  0.14446112374E+04  0.19900000000E+03 0.  0.
   -5000001    1    1    2    0    0 -0.32645136370E+03  0.11013738499E+03 -0.15679067251E+03  0.42765061840E+03  0.19900000000E+03 0.  0.
<mgrwt>
<rscale>  0 0.10567394E+04</rscale>
<asrwt>0</asrwt>
<pdfrwt beam="1">  1        2 0.24412805E+00 0.10567394E+04</pdfrwt>
<pdfrwt beam="2">  1       -2 0.23337914E-01 0.10567394E+04</pdfrwt>
<totfact> 0.18327185E+02</totfact>
</mgrwt>
</event>
<event>
 4    1  0.4915183E-005  0.5277668E+03  0.7818608E-02  0.1006775E+00
          2   -1    0    0  501    0  0.00000000000E+00  0.00000000000E+00  0.19305808696E+04  0.19305808696E+04  0.25500000000E-02 0.  1.
         -2   -1    0    0    0  501 -0.00000000000E+00 -0.00000000000E+00 -0.36069170473E+02  0.36069170563E+02  0.25500000000E-02 0. -1.
    5000001    1    1    2    0    0  0.14421801753E+03  0.96402917972E+01  0.59097047786E+03  0.64010848886E+03  0.19900000000E+03 0.  0.
   -5000001    1    1    2    0    0 -0.14421801753E+03 -0.96402917972E+01  0.13035412213E+04  0.13265415513E+04  0.19900000000E+03 0.  0.
<mgrwt>
<rscale>  0 0.52776681E+03</rscale>
<asrwt>0</asrwt>
<pdfrwt beam="1">  1        2 0.27579730E+00 0.52776681E+03</pdfrwt>
<pdfrwt beam="2">  1       -2 0.51527380E-02 0.52776681E+03</pdfrwt>
<totfact> 0.17632093E+03</totfact>
</mgrwt>
</event>
<event>
 4    1  0.4915183E-005  0.7091983E+03  0.7818608E-02  0.9701630E-01
         -2   -1    0    0    0  501 -0.00000000000E+00  0.00000000000E+00  0.28305072539E+03  0.28305072540E+03  0.25500000000E-02 0. -1.
          2   -1    0    0  501    0  0.00000000000E+00 -0.00000000000E+00 -0.44423333518E+03  0.44423333518E+03  0.25500000000E-02 0.  1.
    5000001    1    1    2    0    0 -0.73570448491E+02 -0.27547967485E+03 -0.15192012850E+03  0.37945011212E+03  0.19900000000E+03 0.  0.
   -5000001    1    1    2    0    0  0.73570448491E+02  0.27547967485E+03 -0.92624812834E+01  0.34783394847E+03  0.19900000000E+03 0.  0.
<mgrwt>
<rscale>  0 0.70919833E+03</rscale>
<asrwt>0</asrwt>
<pdfrwt beam="1">  1        2 0.63461905E-01 0.70919833E+03</pdfrwt>
<pdfrwt beam="2">  1       -2 0.40435818E-01 0.70919833E+03</pdfrwt>
<totfact> 0.44781835E+02</totfact>
</mgrwt>
</event>
<event>
 4    1  0.4915183E-005  0.5170921E+03  0.7818608E-02  0.1009411E+00
          2   -1    0    0  501    0  0.00000000000E+00  0.00000000000E+00  0.84168532681E+03  0.84168532681E+03  0.25500000000E-02 0.  1.
         -2   -1    0    0    0  501 -0.00000000000E+00 -0.00000000000E+00 -0.79419292142E+02  0.79419292182E+02  0.25500000000E-02 0. -1.
    5000001    1    1    2    0    0  0.13768902952E+03  0.89760836567E+02  0.35413115929E+03  0.43820674871E+03  0.19900000000E+03 0.  0.
   -5000001    1    1    2    0    0 -0.13768902952E+03 -0.89760836567E+02  0.40813487537E+03  0.48289787029E+03  0.19900000000E+03 0.  0.
<mgrwt>
<rscale>  0 0.51709207E+03</rscale>
<asrwt>0</asrwt>
<pdfrwt beam="1">  1        2 0.12024076E+00 0.51709207E+03</pdfrwt>
<pdfrwt beam="2">  1       -2 0.11345613E-01 0.51709207E+03</pdfrwt>
<totfact> 0.19858538E+03</totfact>
</mgrwt>
</event>
<event>
 4    1  0.4915183E-005  0.6195036E+03  0.7818608E-02  0.9865749E-01
          2   -1    0    0  501    0  0.00000000000E+00  0.00000000000E+00  0.34621094050E+04  0.34621094050E+04  0.25500000000E-02 0.  1.
         -2   -1    0    0    0  501 -0.00000000000E+00 -0.00000000000E+00 -0.27713212497E+02  0.27713212614E+02  0.25500000000E-02 0. -1.
    5000001    1    1    2    0    0  0.16557248742E+03  0.41819718277E+02  0.26459517215E+04  0.26589141863E+04  0.19900000000E+03 0.  0.
   -5000001    1    1    2    0    0 -0.16557248742E+03 -0.41819718277E+02  0.78844447097E+03  0.83090843132E+03  0.19900000000E+03 0.  0.
<mgrwt>
<rscale>  0 0.61950359E+03</rscale>
<asrwt>0</asrwt>
<pdfrwt beam="1">  1        2 0.49458665E+00 0.61950359E+03</pdfrwt>
<pdfrwt beam="2">  1       -2 0.39590336E-02 0.61950359E+03</pdfrwt>
<totfact> 0.40580280E+02</totfact>
</mgrwt>
</event>
<event>
 4    1  0.4915183E-005  0.8335468E+03  0.7818608E-02  0.9512690E-01
         -2   -1    0    0    0  501 -0.00000000000E+00  0.00000000000E+00  0.99226281012E+03  0.99226281012E+03  0.25500000000E-02 0.  1.
          2   -1    0    0  501    0  0.00000000000E+00 -0.00000000000E+00 -0.17505449411E+03  0.17505449413E+03  0.25500000000E-02 0. -1.
    5000001    1    1    2    0    0  0.21757837089E+03 -0.28072521190E+03  0.28372237373E+03  0.49623218097E+03  0.19900000000E+03 0.  0.
   -5000001    1    1    2    0    0 -0.21757837089E+03  0.28072521190E+03  0.53348594228E+03  0.67108512328E+03  0.19900000000E+03 0.  0.
<mgrwt>
<rscale>  0 0.83354679E+03</rscale>
<asrwt>0</asrwt>
<pdfrwt beam="1">  1        2 0.25007786E-01 0.83354679E+03</pdfrwt>
<pdfrwt beam="2">  1       -2 0.14175183E+00 0.83354679E+03</pdfrwt>
<totfact> 0.76684776E+01</totfact>
</mgrwt>
</event>
<event>
 4    1  0.4915183E-005  0.6270866E+03  0.7818608E-02  0.9850751E-01
          2   -1    0    0  501    0  0.00000000000E+00  0.00000000000E+00  0.89076509467E+03  0.89076509467E+03  0.25500000000E-02 0.  1.
         -2   -1    0    0    0  501 -0.00000000000E+00 -0.00000000000E+00 -0.11036511128E+03  0.11036511131E+03  0.25500000000E-02 0. -1.
    5000001    1    1    2    0    0  0.15463563214E+03 -0.13775551662E+03  0.18940115104E+03  0.34403859827E+03  0.19900000000E+03 0.  0.
   -5000001    1    1    2    0    0 -0.15463563214E+03  0.13775551662E+03  0.59099883235E+03  0.65709160771E+03  0.19900000000E+03 0.  0.
<mgrwt>
<rscale>  0 0.62708656E+03</rscale>
<asrwt>0</asrwt>
<pdfrwt beam="1">  1        2 0.12725215E+00 0.62708656E+03</pdfrwt>
<pdfrwt beam="2">  1       -2 0.15766445E-01 0.62708656E+03</pdfrwt>
<totfact> 0.10652394E+03</totfact>
</mgrwt>
</event>
<event>
 4    1  0.4915183E-005  0.1586069E+04  0.7818608E-02  0.8829152E-01
         -2   -1    0    0    0  501 -0.00000000000E+00  0.00000000000E+00  0.44279309993E+03  0.44279309993E+03  0.25500000000E-02 0. -1.
          2   -1    0    0  501    0  0.00000000000E+00 -0.00000000000E+00 -0.14203110608E+04  0.14203110608E+04  0.25500000000E-02 0.  1.
    5000001    1    1    2    0    0  0.60740174232E+03 -0.29377570146E+03 -0.58660740602E+02  0.70589172104E+03  0.19900000000E+03 0.  0.
   -5000001    1    1    2    0    0 -0.60740174232E+03  0.29377570146E+03 -0.91885722029E+03  0.11572124397E+04  0.19900000000E+03 0.  0.
<mgrwt>
<rscale>  0 0.15860693E+04</rscale>
<asrwt>0</asrwt>
<pdfrwt beam="1">  1        2 0.20290158E+00 0.15860693E+04</pdfrwt>
<pdfrwt beam="2">  1       -2 0.63256158E-01 0.15860693E+04</pdfrwt>
<totfact> 0.35909793E+01</totfact>
</mgrwt>
</event>
<event>
 4    1  0.4915183E-005  0.4551111E+03  0.7818608E-02  0.1026209E+00
         -2   -1    0    0    0  501 -0.00000000000E+00  0.00000000000E+00  0.60536529536E+02  0.60536529590E+02  0.25500000000E-02 0. -1.
          2   -1    0    0  501    0  0.00000000000E+00 -0.00000000000E+00 -0.85537653993E+03  0.85537653994E+03  0.25500000000E-02 0.  1.
    5000001    1    1    2    0    0 -0.67502777487E+02 -0.78885672520E+02 -0.32209336433E+03  0.39258720005E+03  0.19900000000E+03 0.  0.
   -5000001    1    1    2    0    0  0.67502777487E+02  0.78885672520E+02 -0.47274664606E+03  0.52332586947E+03  0.19900000000E+03 0.  0.
<mgrwt>
<rscale>  0 0.45511110E+03</rscale>
<asrwt>0</asrwt>
<pdfrwt beam="1">  1        2 0.12219664E+00 0.45511110E+03</pdfrwt>
<pdfrwt beam="2">  1       -2 0.86480762E-02 0.45511110E+03</pdfrwt>
<totfact> 0.30113226E+03</totfact>
</mgrwt>
</event>
<event>
 4    1  0.4915183E-005  0.5323519E+03  0.7818608E-02  0.1005663E+00
         -2   -1    0    0    0  501 -0.00000000000E+00  0.00000000000E+00  0.16886275292E+03  0.16886275294E+03  0.25500000000E-02 0. -1.
          2   -1    0    0  501    0  0.00000000000E+00 -0.00000000000E+00 -0.41956935117E+03  0.41956935118E+03  0.25500000000E-02 0.  1.
    5000001    1    1    2    0    0  0.56036319724E+02  0.11256940218E+03 -0.26268624380E+03  0.35272794349E+03  0.19900000000E+03 0.  0.
   -5000001    1    1    2    0    0 -0.56036319724E+02 -0.11256940218E+03  0.11979645552E+02  0.23570416064E+03  0.19900000000E+03 0.  0.
<mgrwt>
<rscale>  0 0.53235190E+03</rscale>
<asrwt>0</asrwt>
<pdfrwt beam="1">  1        2 0.59938478E-01 0.53235190E+03</pdfrwt>
<pdfrwt beam="2">  1       -2 0.24123251E-01 0.53235190E+03</pdfrwt>
<totfact> 0.12523131E+03</totfact>
</mgrwt>
</event>
<event>
 4    1  0.4915183E-005  0.6920537E+03  0.7818608E-02  0.9730919E-01
          2   -1    0    0  501    0  0.00000000000E+00  0.00000000000E+00  0.29977016894E+03  0.29977016895E+03  0.25500000000E-02 0.  1.
         -2   -1    0    0    0  501 -0.00000000000E+00 -0.00000000000E+00 -0.39942124334E+03  0.39942124335E+03  0.25500000000E-02 0. -1.
    5000001    1    1    2    0    0 -0.27154678063E+03  0.79445321726E+02 -0.40546015585E+02  0.34827315801E+03  0.19900000000E+03 0.  0.
   -5000001    1    1    2    0    0  0.27154678063E+03 -0.79445321726E+02 -0.59105058810E+02  0.35091825428E+03  0.19900000000E+03 0.  0.
<mgrwt>
<rscale>  0 0.69205368E+03</rscale>
<asrwt>0</asrwt>
<pdfrwt beam="1">  1        2 0.42824310E-01 0.69205368E+03</pdfrwt>
<pdfrwt beam="2">  1       -2 0.57060178E-01 0.69205368E+03</pdfrwt>
<totfact> 0.34665729E+02</totfact>
</mgrwt>
</event>
<event>
 4    1  0.4915183E-005  0.6757882E+03  0.7818608E-02  0.9759558E-01
          2   -1    0    0  501    0  0.00000000000E+00  0.00000000000E+00  0.14332180423E+04  0.14332180423E+04  0.25500000000E-02 0.  1.
         -2   -1    0    0    0  501 -0.00000000000E+00 -0.00000000000E+00 -0.79661588373E+02  0.79661588414E+02  0.25500000000E-02 0. -1.
    5000001    1    1    2    0    0  0.18455866253E+03  0.14941434114E+03  0.97866841061E+03  0.10265375800E+04  0.19900000000E+03 0.  0.
   -5000001    1    1    2    0    0 -0.18455866253E+03 -0.14941434114E+03  0.37488804329E+03  0.48634205068E+03  0.19900000000E+03 0.  0.
<mgrwt>
<rscale>  0 0.67578821E+03</rscale>
<asrwt>0</asrwt>
<pdfrwt beam="1">  1        2 0.20474543E+00 0.67578821E+03</pdfrwt>
<pdfrwt beam="2">  1       -2 0.11380227E-01 0.67578821E+03</pdfrwt>
<totfact> 0.89169755E+02</totfact>
</mgrwt>
</event>
<event>
 4    1  0.4915183E-005  0.6973060E+03  0.7818608E-02  0.9721850E-01
         -2   -1    0    0    0  501 -0.00000000000E+00  0.00000000000E+00  0.16633534889E+03  0.16633534891E+03  0.25500000000E-02 0. -1.
          2   -1    0    0  501    0  0.00000000000E+00 -0.00000000000E+00 -0.73080616972E+03  0.73080616972E+03  0.25500000000E-02 0.  1.
    5000001    1    1    2    0    0 -0.21400694626E+03 -0.14463604944E+03 -0.44106106401E+03  0.54850197997E+03  0.19900000000E+03 0.  0.
   -5000001    1    1    2    0    0  0.21400694626E+03  0.14463604944E+03 -0.12340975681E+03  0.34863953866E+03  0.19900000000E+03 0.  0.
<mgrwt>
<rscale>  0 0.69730596E+03</rscale>
<asrwt>0</asrwt>
<pdfrwt beam="1">  1        2 0.10440088E+00 0.69730596E+03</pdfrwt>
<pdfrwt beam="2">  1       -2 0.23762193E-01 0.69730596E+03</pdfrwt>
<totfact> 0.67239954E+02</totfact>
</mgrwt>
</event>
<event>
 4    1  0.4915183E-005  0.4791210E+03  0.7818608E-02  0.1019377E+00
          2   -1    0    0  501    0  0.00000000000E+00  0.00000000000E+00  0.20744633548E+04  0.20744633548E+04  0.25500000000E-02 0.  1.
         -2   -1    0    0    0  501 -0.00000000000E+00 -0.00000000000E+00 -0.27664614142E+02  0.27664614259E+02  0.25500000000E-02 0. -1.
    5000001    1    1    2    0    0  0.33757337552E+02  0.12488266583E+03  0.88102685680E+03  0.91243879820E+03  0.19900000000E+03 0.  0.
   -5000001    1    1    2    0    0 -0.33757337552E+02 -0.12488266583E+03  0.11657718839E+04  0.11896891709E+04  0.19900000000E+03 0.  0.
<mgrwt>
<rscale>  0 0.47912098E+03</rscale>
<asrwt>0</asrwt>
<pdfrwt beam="1">  1        2 0.29635206E+00 0.47912098E+03</pdfrwt>
<pdfrwt beam="2">  1       -2 0.39520857E-02 0.47912098E+03</pdfrwt>
<totfact> 0.22520347E+03</totfact>
</mgrwt>
</event>
<event>
 4    1  0.4915183E-005  0.8476974E+03  0.7818608E-02  0.9493433E-01
          2   -1    0    0  501    0  0.00000000000E+00  0.00000000000E+00  0.29586327415E+04  0.29586327415E+04  0.25500000000E-02 0.  1.
         -2   -1    0    0    0  501 -0.00000000000E+00 -0.00000000000E+00 -0.60719841655E+02  0.60719841708E+02  0.25500000000E-02 0. -1.
    5000001    1    1    2    0    0  0.13067804589E+03  0.32982609514E+02  0.20546453028E+03  0.31619816162E+03  0.19900000000E+03 0.  0.
   -5000001    1    1    2    0    0 -0.13067804589E+03 -0.32982609514E+02  0.26924483696E+04  0.27031544216E+04  0.19900000000E+03 0.  0.
<mgrwt>
<rscale>  0 0.84769738E+03</rscale>
<asrwt>0</asrwt>
<pdfrwt beam="1">  1        2 0.42266174E+00 0.84769738E+03</pdfrwt>
<pdfrwt beam="2">  1       -2 0.86742648E-02 0.84769738E+03</pdfrwt>
<totfact> 0.22275926E+02</totfact>
</mgrwt>
</event>
<event>
 4    1  0.4915183E-005  0.6817346E+03  0.7818608E-02  0.9748989E-01
          2   -1    0    0  501    0  0.00000000000E+00  0.00000000000E+00  0.85744096782E+03  0.85744096783E+03  0.25500000000E-02 0.  1.
         -2   -1    0    0    0  501 -0.00000000000E+00 -0.00000000000E+00 -0.13550845327E+03  0.13550845329E+03  0.25500000000E-02 0. -1.
    5000001    1    1    2    0    0  0.20973323390E+03  0.86382478838E+02  0.13003088319E+03  0.32857113786E+03  0.19900000000E+03 0.  0.
   -5000001    1    1    2    0    0 -0.20973323390E+03 -0.86382478838E+02  0.59190163137E+03  0.66437828326E+03  0.19900000000E+03 0.  0.
<mgrwt>
<rscale>  0 0.68173455E+03</rscale>
<asrwt>0</asrwt>
<pdfrwt beam="1">  1        2 0.12249157E+00 0.68173455E+03</pdfrwt>
<pdfrwt beam="2">  1       -2 0.19358351E-01 0.68173455E+03</pdfrwt>
<totfact> 0.78686051E+02</totfact>
</mgrwt>
</event>
<event>
 4    1  0.4915183E-005  0.6835169E+03  0.7818608E-02  0.9745843E-01
          2   -1    0    0  501    0  0.00000000000E+00  0.00000000000E+00  0.19476780965E+04  0.19476780965E+04  0.25500000000E-02 0.  1.
         -2   -1    0    0    0  501 -0.00000000000E+00 -0.00000000000E+00 -0.59968248346E+02  0.59968248400E+02  0.25500000000E-02 0. -1.
    5000001    1    1    2    0    0 -0.18346902590E+03  0.43062792381E+02  0.15435287832E+04  0.15676726036E+04  0.19900000000E+03 0.  0.
   -5000001    1    1    2    0    0  0.18346902590E+03 -0.43062792381E+02  0.34418106496E+03  0.43997374129E+03  0.19900000000E+03 0.  0.
<mgrwt>
<rscale>  0 0.68351692E+03</rscale>
<asrwt>0</asrwt>
<pdfrwt beam="1">  1        2 0.27823969E+00 0.68351692E+03</pdfrwt>
<pdfrwt beam="2">  1       -2 0.85668938E-02 0.68351692E+03</pdfrwt>
<totfact> 0.76957432E+02</totfact>
</mgrwt>
</event>
<event>
 4    1  0.4915183E-005  0.9542045E+03  0.7818608E-02  0.9360250E-01
         -2   -1    0    0    0  501 -0.00000000000E+00  0.00000000000E+00  0.20398300030E+03  0.20398300032E+03  0.25500000000E-02 0.  1.
          2   -1    0    0  501    0  0.00000000000E+00 -0.00000000000E+00 -0.11159095529E+04  0.11159095529E+04  0.25500000000E-02 0. -1.
    5000001    1    1    2    0    0  0.15663538773E+03 -0.37841557352E+03 -0.25891809745E+03  0.52380585350E+03  0.19900000000E+03 0.  0.
   -5000001    1    1    2    0    0 -0.15663538773E+03  0.37841557352E+03 -0.65300845516E+03  0.79608669973E+03  0.19900000000E+03 0.  0.
<mgrwt>
<rscale>  0 0.95420455E+03</rscale>
<asrwt>0</asrwt>
<pdfrwt beam="1">  1        2 0.15941565E+00 0.95420455E+03</pdfrwt>
<pdfrwt beam="2">  1       -2 0.29140429E-01 0.95420455E+03</pdfrwt>
<totfact> 0.25814960E+02</totfact>
</mgrwt>
</event>
<event>
 4    1  0.4915183E-005  0.5482242E+03  0.7818608E-02  0.1001906E+00
         -2   -1    0    0    0  501 -0.00000000000E+00  0.00000000000E+00  0.34817378743E+02  0.34817378836E+02  0.25500000000E-02 0. -1.
          2   -1    0    0  501    0  0.00000000000E+00 -0.00000000000E+00 -0.21580444964E+04  0.21580444964E+04  0.25500000000E-02 0.  1.
    5000001    1    1    2    0    0  0.72874381785E+02 -0.15939833484E+03 -0.13392548800E+04  0.13652557043E+04  0.19900000000E+03 0.  0.
   -5000001    1    1    2    0    0 -0.72874381785E+02  0.15939833484E+03 -0.78397223771E+03  0.82760617094E+03  0.19900000000E+03 0.  0.
<mgrwt>
<rscale>  0 0.54822423E+03</rscale>
<asrwt>0</asrwt>
<pdfrwt beam="1">  1        2 0.30829199E+00 0.54822423E+03</pdfrwt>
<pdfrwt beam="2">  1       -2 0.49739126E-02 0.54822423E+03</pdfrwt>
<totfact> 0.14314761E+03</totfact>
</mgrwt>
</event>
<event>
 4    1  0.4915183E-005  0.1157057E+04  0.7818608E-02  0.9151297E-01
          2   -1    0    0  501    0  0.00000000000E+00  0.00000000000E+00  0.15177291619E+04  0.15177291619E+04  0.25500000000E-02 0. -1.
         -2   -1    0    0    0  501 -0.00000000000E+00 -0.00000000000E+00 -0.22052385914E+03  0.22052385915E+03  0.25500000000E-02 0.  1.
    5000001    1    1    2    0    0 -0.24703509929E+03 -0.20851451354E+03  0.13044578255E+04  0.13585712573E+04  0.19900000000E+03 0.  0.
   -5000001    1    1    2    0    0  0.24703509929E+03  0.20851451354E+03 -0.72525227522E+01  0.37968176375E+03  0.19900000000E+03 0.  0.
<mgrwt>
<rscale>  0 0.11570575E+04</rscale>
<asrwt>0</asrwt>
<pdfrwt beam="1">  1        2 0.21681844E+00 0.11570575E+04</pdfrwt>
<pdfrwt beam="2">  1       -2 0.31503409E-01 0.11570575E+04</pdfrwt>
<totfact> 0.13224578E+02</totfact>
</mgrwt>
</event>
<event>
 4    1  0.4915183E-005  0.1088948E+04  0.7818608E-02  0.9216031E-01
         -2   -1    0    0    0  501 -0.00000000000E+00  0.00000000000E+00  0.58030313826E+03  0.58030313827E+03  0.25500000000E-02 0. -1.
          2   -1    0    0  501    0  0.00000000000E+00 -0.00000000000E+00 -0.51085691696E+03  0.51085691697E+03  0.25500000000E-02 0.  1.
    5000001    1    1    2    0    0 -0.42271603444E+03 -0.12136424617E+03  0.28709333938E+03  0.56164197808E+03  0.19900000000E+03 0.  0.
   -5000001    1    1    2    0    0  0.42271603444E+03  0.12136424617E+03 -0.21764711808E+03  0.52951807716E+03  0.19900000000E+03 0.  0.
<mgrwt>
<rscale>  0 0.10889479E+04</rscale>
<asrwt>0</asrwt>
<pdfrwt beam="1">  1        2 0.72979559E-01 0.10889479E+04</pdfrwt>
<pdfrwt beam="2">  1       -2 0.82900449E-01 0.10889479E+04</pdfrwt>
<totfact> 0.83094173E+01</totfact>
</mgrwt>
</event>
<event>
 4    1  0.4915183E-005  0.4926622E+03  0.7818608E-02  0.1015712E+00
          2   -1    0    0  501    0  0.00000000000E+00  0.00000000000E+00  0.76605914196E+03  0.76605914196E+03  0.25500000000E-02 0.  1.
         -2   -1    0    0    0  501 -0.00000000000E+00 -0.00000000000E+00 -0.79209303555E+02  0.79209303596E+02  0.25500000000E-02 0. -1.
    5000001    1    1    2    0    0  0.11083004615E+03  0.71761301613E+02  0.44700966965E+03  0.50680531598E+03  0.19900000000E+03 0.  0.
   -5000001    1    1    2    0    0 -0.11083004615E+03 -0.71761301613E+02  0.23984016875E+03  0.33846312958E+03  0.19900000000E+03 0.  0.
<mgrwt>
<rscale>  0 0.49266220E+03</rscale>
<asrwt>0</asrwt>
<pdfrwt beam="1">  1        2 0.10943703E+00 0.49266220E+03</pdfrwt>
<pdfrwt beam="2">  1       -2 0.11315614E-01 0.49266220E+03</pdfrwt>
<totfact> 0.22480240E+03</totfact>
</mgrwt>
</event>
<event>
 4    1  0.4915183E-005  0.5237403E+03  0.7818608E-02  0.1007762E+00
          2   -1    0    0  501    0  0.00000000000E+00  0.00000000000E+00  0.32266296592E+04  0.32266296592E+04  0.25500000000E-02 0.  1.
         -2   -1    0    0    0  501 -0.00000000000E+00 -0.00000000000E+00 -0.21253126587E+02  0.21253126740E+02  0.25500000000E-02 0. -1.
    5000001    1    1    2    0    0  0.30716674247E+02 -0.15267997606E+03  0.11766307399E+04  0.12034598404E+04  0.19900000000E+03 0.  0.
   -5000001    1    1    2    0    0 -0.30716674247E+02  0.15267997606E+03  0.20287457926E+04  0.20444229455E+04  0.19900000000E+03 0.  0.
<mgrwt>
<rscale>  0 0.52374027E+03</rscale>
<asrwt>0</asrwt>
<pdfrwt beam="1">  1        2 0.46094729E+00 0.52374027E+03</pdfrwt>
<pdfrwt beam="2">  1       -2 0.30361596E-02 0.52374027E+03</pdfrwt>
<totfact> 0.84017565E+02</totfact>
</mgrwt>
</event>
<event>
 4    1  0.4915183E-005  0.8663673E+03  0.7818608E-02  0.9468629E-01
         -2   -1    0    0    0  501 -0.00000000000E+00  0.00000000000E+00  0.73789802954E+02  0.73789802998E+02  0.25500000000E-02 0. -1.
          2   -1    0    0  501    0  0.00000000000E+00 -0.00000000000E+00 -0.25430080999E+04  0.25430080999E+04  0.25500000000E-02 0.  1.
    5000001    1    1    2    0    0 -0.16224392723E+03 -0.34603984561E+03 -0.11001951198E+04  0.11815654736E+04  0.19900000000E+03 0.  0.
   -5000001    1    1    2    0    0  0.16224392723E+03  0.34603984561E+03 -0.13690231772E+04  0.14352324294E+04  0.19900000000E+03 0.  0.
<mgrwt>
<rscale>  0 0.86636728E+03</rscale>
<asrwt>0</asrwt>
<pdfrwt beam="1">  1        2 0.36328682E+00 0.86636728E+03</pdfrwt>
<pdfrwt beam="2">  1       -2 0.10541402E-01 0.86636728E+03</pdfrwt>
<totfact> 0.26963696E+02</totfact>
</mgrwt>
</event>
<event>
 4    1  0.4915183E-005  0.6195733E+03  0.7818608E-02  0.9865610E-01
         -2   -1    0    0    0  501 -0.00000000000E+00  0.00000000000E+00  0.19985058868E+03  0.19985058869E+03  0.25500000000E-02 0. -1.
          2   -1    0    0  501    0  0.00000000000E+00 -0.00000000000E+00 -0.48019753169E+03  0.48019753170E+03  0.25500000000E-02 0.  1.
    5000001    1    1    2    0    0 -0.15797706278E+03 -0.13557606070E+03 -0.26546013007E+03  0.39167295191E+03  0.19900000000E+03 0.  0.
   -5000001    1    1    2    0    0  0.15797706278E+03  0.13557606070E+03 -0.14886812944E+02  0.28837516849E+03  0.19900000000E+03 0.  0.
<mgrwt>
<rscale>  0 0.61957327E+03</rscale>
<asrwt>0</asrwt>
<pdfrwt beam="1">  1        2 0.68599647E-01 0.61957327E+03</pdfrwt>
<pdfrwt beam="2">  1       -2 0.28550084E-01 0.61957327E+03</pdfrwt>
<totfact> 0.79331116E+02</totfact>
</mgrwt>
</event>
<event>
 4    1  0.4915183E-005  0.7003021E+03  0.7818608E-02  0.9716716E-01
         -2   -1    0    0    0  501 -0.00000000000E+00  0.00000000000E+00  0.47551683717E+02  0.47551683786E+02  0.25500000000E-02 0. -1.
          2   -1    0    0  501    0  0.00000000000E+00 -0.00000000000E+00 -0.25783687114E+04  0.25783687114E+04  0.25500000000E-02 0.  1.
    5000001    1    1    2    0    0  0.26559014467E+03 -0.58048477426E+02 -0.16230482315E+04  0.16576472219E+04  0.19900000000E+03 0.  0.
   -5000001    1    1    2    0    0 -0.26559014467E+03  0.58048477426E+02 -0.90776879616E+03  0.96827317321E+03  0.19900000000E+03 0.  0.
<mgrwt>
<rscale>  0 0.70030214E+03</rscale>
<asrwt>0</asrwt>
<pdfrwt beam="1">  1        2 0.36833830E+00 0.70030214E+03</pdfrwt>
<pdfrwt beam="2">  1       -2 0.67930993E-02 0.70030214E+03</pdfrwt>
<totfact> 0.53126530E+02</totfact>
</mgrwt>
</event>
<event>
 4    1  0.4915183E-005  0.5253315E+03  0.7818608E-02  0.1007371E+00
          2   -1    0    0  501    0  0.00000000000E+00  0.00000000000E+00  0.63901032143E+03  0.63901032144E+03  0.25500000000E-02 0.  1.
         -2   -1    0    0    0  501 -0.00000000000E+00 -0.00000000000E+00 -0.10796900060E+03  0.10796900063E+03  0.25500000000E-02 0. -1.
    5000001    1    1    2    0    0  0.56286588438E+02  0.15686265294E+03  0.32272062366E+03  0.41415416557E+03  0.19900000000E+03 0.  0.
   -5000001    1    1    2    0    0 -0.56286588438E+02 -0.15686265294E+03  0.20832069717E+03  0.33282515649E+03  0.19900000000E+03 0.  0.
<mgrwt>
<rscale>  0 0.52533154E+03</rscale>
<asrwt>0</asrwt>
<pdfrwt beam="1">  1        2 0.91287190E-01 0.52533154E+03</pdfrwt>
<pdfrwt beam="2">  1       -2 0.15424143E-01 0.52533154E+03</pdfrwt>
<totfact> 0.16785887E+03</totfact>
</mgrwt>
</event>
<event>
 4    1  0.4915183E-005  0.5256981E+03  0.7818608E-02  0.1007281E+00
          2   -1    0    0  501    0  0.00000000000E+00  0.00000000000E+00  0.11806276624E+04  0.11806276624E+04  0.25500000000E-02 0.  1.
         -2   -1    0    0    0  501 -0.00000000000E+00 -0.00000000000E+00 -0.58519405657E+02  0.58519405713E+02  0.25500000000E-02 0. -1.
    5000001    1    1    2    0    0 -0.13380440162E+03 -0.96128739957E+02  0.67518177288E+03  0.72292169629E+03  0.19900000000E+03 0.  0.
   -5000001    1    1    2    0    0  0.13380440162E+03  0.96128739957E+02  0.44692648386E+03  0.51622537182E+03  0.19900000000E+03 0.  0.
<mgrwt>
<rscale>  0 0.52569812E+03</rscale>
<asrwt>0</asrwt>
<pdfrwt beam="1">  1        2 0.16866109E+00 0.52569812E+03</pdfrwt>
<pdfrwt beam="2">  1       -2 0.83599154E-02 0.52569812E+03</pdfrwt>
<totfact> 0.20236885E+03</totfact>
</mgrwt>
</event>
<event>
 4    1  0.4915183E-005  0.4437017E+03  0.7818608E-02  0.1029617E+00
          2   -1    0    0  501    0  0.00000000000E+00  0.00000000000E+00  0.50370573470E+03  0.50370573471E+03  0.25500000000E-02 0.  1.
         -2   -1    0    0    0  501 -0.00000000000E+00 -0.00000000000E+00 -0.97711408428E+02  0.97711408461E+02  0.25500000000E-02 0. -1.
    5000001    1    1    2    0    0  0.30149623740E+02 -0.91849137407E+02  0.22533267838E+03  0.31578644651E+03  0.19900000000E+03 0.  0.
   -5000001    1    1    2    0    0 -0.30149623740E+02  0.91849137407E+02  0.18066164789E+03  0.28563069666E+03  0.19900000000E+03 0.  0.
<mgrwt>
<rscale>  0 0.44370169E+03</rscale>
<asrwt>0</asrwt>
<pdfrwt beam="1">  1        2 0.71957961E-01 0.44370169E+03</pdfrwt>
<pdfrwt beam="2">  1       -2 0.13958773E-01 0.44370169E+03</pdfrwt>
<totfact> 0.26084694E+03</totfact>
</mgrwt>
</event>
<event>
 4    1  0.4915183E-005  0.1088430E+04  0.7818608E-02  0.9216543E-01
         -2   -1    0    0    0  501 -0.00000000000E+00  0.00000000000E+00  0.99520106807E+02  0.99520106840E+02  0.25500000000E-02 0. -1.
          2   -1    0    0  501    0  0.00000000000E+00 -0.00000000000E+00 -0.29759794962E+04  0.29759794962E+04  0.25500000000E-02 0.  1.
    5000001    1    1    2    0    0 -0.46028690839E+03 -0.38685037896E+02 -0.20255817859E+04  0.20870896343E+04  0.19900000000E+03 0.  0.
   -5000001    1    1    2    0    0  0.46028690839E+03  0.38685037896E+02 -0.85087760348E+03  0.98840996874E+03  0.19900000000E+03 0.  0.
<mgrwt>
<rscale>  0 0.10884297E+04</rscale>
<asrwt>0</asrwt>
<pdfrwt beam="1">  1        2 0.42513987E+00 0.10884297E+04</pdfrwt>
<pdfrwt beam="2">  1       -2 0.14217160E-01 0.10884297E+04</pdfrwt>
<totfact> 0.94356849E+01</totfact>
</mgrwt>
</event>
<event>
 4    1  0.4915183E-005  0.5465313E+03  0.7818608E-02  0.1002300E+00
          2   -1    0    0  501    0  0.00000000000E+00  0.00000000000E+00  0.11271232350E+04  0.11271232350E+04  0.25500000000E-02 0.  1.
         -2   -1    0    0    0  501 -0.00000000000E+00 -0.00000000000E+00 -0.66251943355E+02  0.66251943404E+02  0.25500000000E-02 0. -1.
    5000001    1    1    2    0    0  0.18362732002E+03 -0.27477105994E+02  0.58388213321E+03  0.64419975900E+03  0.19900000000E+03 0.  0.
   -5000001    1    1    2    0    0 -0.18362732002E+03  0.27477105994E+02  0.47698915841E+03  0.54917541938E+03  0.19900000000E+03 0.  0.
<mgrwt>
<rscale>  0 0.54653126E+03</rscale>
<asrwt>0</asrwt>
<pdfrwt beam="1">  1        2 0.16101758E+00 0.54653126E+03</pdfrwt>
<pdfrwt beam="2">  1       -2 0.94645646E-02 0.54653126E+03</pdfrwt>
<totfact> 0.17783192E+03</totfact>
</mgrwt>
</event>
<event>
 4    1  0.4915183E-005  0.8378250E+03  0.7818608E-02  0.9506825E-01
          2   -1    0    0  501    0  0.00000000000E+00  0.00000000000E+00  0.16896873729E+04  0.16896873729E+04  0.25500000000E-02 0.  1.
         -2   -1    0    0    0  501 -0.00000000000E+00 -0.00000000000E+00 -0.10385807791E+03  0.10385807794E+03  0.25500000000E-02 0. -1.
    5000001    1    1    2    0    0 -0.24750206455E+03 -0.18392031104E+03  0.36049672841E+03  0.51443448948E+03  0.19900000000E+03 0.  0.
   -5000001    1    1    2    0    0  0.24750206455E+03  0.18392031104E+03  0.12253325666E+04  0.12791109614E+04  0.19900000000E+03 0.  0.
<mgrwt>
<rscale>  0 0.83782500E+03</rscale>
<asrwt>0</asrwt>
<pdfrwt beam="1">  1        2 0.24138390E+00 0.83782500E+03</pdfrwt>
<pdfrwt beam="2">  1       -2 0.14836869E-01 0.83782500E+03</pdfrwt>
<totfact> 0.41788741E+02</totfact>
</mgrwt>
</event>
<event>
 4    1  0.4915183E-005  0.9897649E+03  0.7818608E-02  0.9319842E-01
          2   -1    0    0  501    0  0.00000000000E+00  0.00000000000E+00  0.28444479869E+03  0.28444479870E+03  0.25500000000E-02 0.  1.
         -2   -1    0    0    0  501 -0.00000000000E+00 -0.00000000000E+00 -0.86100578920E+03  0.86100578920E+03  0.25500000000E-02 0. -1.
    5000001    1    1    2    0    0  0.38150214472E+03  0.92435789359E+02 -0.26364881023E+02  0.44089042690E+03  0.19900000000E+03 0.  0.
   -5000001    1    1    2    0    0 -0.38150214472E+03 -0.92435789359E+02 -0.55019610949E+03  0.70456016100E+03  0.19900000000E+03 0.  0.
<mgrwt>
<rscale>  0 0.98976486E+03</rscale>
<asrwt>0</asrwt>
<pdfrwt beam="1">  1        2 0.40634972E-01 0.98976486E+03</pdfrwt>
<pdfrwt beam="2">  1       -2 0.12300083E+00 0.98976486E+03</pdfrwt>
<totfact> 0.63118816E+01</totfact>
</mgrwt>
</event>
<event>
 4    1  0.4915183E-005  0.4880830E+03  0.7818608E-02  0.1016937E+00
          2   -1    0    0  501    0  0.00000000000E+00  0.00000000000E+00  0.16901007925E+03  0.16901007927E+03  0.25500000000E-02 0.  1.
         -2   -1    0    0    0  501 -0.00000000000E+00 -0.00000000000E+00 -0.35238279426E+03  0.35238279427E+03  0.25500000000E-02 0. -1.
    5000001    1    1    2    0    0  0.83058720282E+02 -0.11426369754E+03 -0.91100862073E+02  0.26049051933E+03  0.19900000000E+03 0.  0.
   -5000001    1    1    2    0    0 -0.83058720282E+02  0.11426369754E+03 -0.92271852930E+02  0.26090235421E+03  0.19900000000E+03 0.  0.
<mgrwt>
<rscale>  0 0.48808296E+03</rscale>
<asrwt>0</asrwt>
<pdfrwt beam="1">  1        2 0.24144297E-01 0.48808296E+03</pdfrwt>
<pdfrwt beam="2">  1       -2 0.50340399E-01 0.48808296E+03</pdfrwt>
<totfact> 0.85441223E+02</totfact>
</mgrwt>
</event>
<event>
 4    1  0.4915183E-005  0.5444391E+03  0.7818608E-02  0.1002789E+00
         -2   -1    0    0    0  501 -0.00000000000E+00  0.00000000000E+00  0.64406883072E+02  0.64406883122E+02  0.25500000000E-02 0. -1.
          2   -1    0    0  501    0  0.00000000000E+00 -0.00000000000E+00 -0.11505523691E+04  0.11505523691E+04  0.25500000000E-02 0.  1.
    5000001    1    1    2    0    0  0.31096142132E+01 -0.10038843491E+03 -0.19438184937E+03  0.29575802767E+03  0.19900000000E+03 0.  0.
   -5000001    1    1    2    0    0 -0.31096142132E+01  0.10038843491E+03 -0.89176363661E+03  0.91920122452E+03  0.19900000000E+03 0.  0.
<mgrwt>
<rscale>  0 0.54443913E+03</rscale>
<asrwt>0</asrwt>
<pdfrwt beam="1">  1        2 0.16436461E+00 0.54443913E+03</pdfrwt>
<pdfrwt beam="2">  1       -2 0.92009840E-02 0.54443913E+03</pdfrwt>
<totfact> 0.18046134E+03</totfact>
</mgrwt>
</event>
<event>
 4    1  0.4915183E-005  0.4508146E+03  0.7818608E-02  0.1027479E+00
          2   -1    0    0  501    0  0.00000000000E+00  0.00000000000E+00  0.20689718731E+04  0.20689718731E+04  0.25500000000E-02 0.  1.
         -2   -1    0    0    0  501 -0.00000000000E+00 -0.00000000000E+00 -0.24557341993E+02  0.24557342126E+02  0.25500000000E-02 0. -1.
    5000001    1    1    2    0    0  0.64919597367E+02  0.75063683222E+02  0.11933605339E+04  0.12139025803E+04  0.19900000000E+03 0.  0.
   -5000001    1    1    2    0    0 -0.64919597367E+02 -0.75063683222E+02  0.85105399724E+03  0.87962663493E+03  0.19900000000E+03 0.  0.
<mgrwt>
<rscale>  0 0.45081460E+03</rscale>
<asrwt>0</asrwt>
<pdfrwt beam="1">  1        2 0.29556742E+00 0.45081460E+03</pdfrwt>
<pdfrwt beam="2">  1       -2 0.35081916E-02 0.45081460E+03</pdfrwt>
<totfact> 0.27199871E+03</totfact>
</mgrwt>
</event>
<event>
 4    1  0.4915183E-005  0.4684020E+03  0.7818608E-02  0.1022372E+00
          2   -1    0    0  501    0  0.00000000000E+00  0.00000000000E+00  0.84637759454E+03  0.84637759455E+03  0.25500000000E-02 0. -1.
         -2   -1    0    0    0  501 -0.00000000000E+00 -0.00000000000E+00 -0.64805705286E+02  0.64805705336E+02  0.25500000000E-02 0.  1.
    5000001    1    1    2    0    0  0.11440767785E+03 -0.37344576542E+02  0.33696878920E+03  0.40942972418E+03  0.19900000000E+03 0.  0.
   -5000001    1    1    2    0    0 -0.11440767785E+03  0.37344576542E+02  0.44460310006E+03  0.50175357570E+03  0.19900000000E+03 0.  0.
<mgrwt>
<rscale>  0 0.46840195E+03</rscale>
<asrwt>0</asrwt>
<pdfrwt beam="1">  1        2 0.12091109E+00 0.46840195E+03</pdfrwt>
<pdfrwt beam="2">  1       -2 0.92579578E-02 0.46840195E+03</pdfrwt>
<totfact> 0.27385375E+03</totfact>
</mgrwt>
</event>
<event>
 4    1  0.4915183E-005  0.4966999E+03  0.7818608E-02  0.1014644E+00
          2   -1    0    0  501    0  0.00000000000E+00  0.00000000000E+00  0.38181362972E+04  0.38181362972E+04  0.25500000000E-02 0.  1.
         -2   -1    0    0    0  501 -0.00000000000E+00 -0.00000000000E+00 -0.16153875882E+02  0.16153876084E+02  0.25500000000E-02 0. -1.
    5000001    1    1    2    0    0 -0.26958224565E+02 -0.12295193254E+03  0.25104322233E+04  0.25214509457E+04  0.19900000000E+03 0.  0.
   -5000001    1    1    2    0    0  0.26958224565E+02  0.12295193254E+03  0.12915501979E+04  0.13128392275E+04  0.19900000000E+03 0.  0.
<mgrwt>
<rscale>  0 0.49669991E+03</rscale>
<asrwt>0</asrwt>
<pdfrwt beam="1">  1        2 0.54544797E+00 0.49669991E+03</pdfrwt>
<pdfrwt beam="2">  1       -2 0.23076969E-02 0.49669991E+03</pdfrwt>
<totfact> 0.56692777E+02</totfact>
</mgrwt>
</event>
<event>
 4    1  0.4915183E-005  0.8628935E+03  0.7818608E-02  0.9473193E-01
         -2   -1    0    0    0  501 -0.00000000000E+00  0.00000000000E+00  0.82170400675E+02  0.82170400715E+02  0.25500000000E-02 0. -1.
          2   -1    0    0  501    0  0.00000000000E+00 -0.00000000000E+00 -0.22653692066E+04  0.22653692066E+04  0.25500000000E-02 0.  1.
    5000001    1    1    2    0    0  0.25044645113E+03  0.13289763955E+02 -0.30477760554E+03  0.44202989893E+03  0.19900000000E+03 0.  0.
   -5000001    1    1    2    0    0 -0.25044645113E+03 -0.13289763955E+02 -0.18784212004E+04  0.19055097084E+04  0.19900000000E+03 0.  0.
<mgrwt>
<rscale>  0 0.86289349E+03</rscale>
<asrwt>0</asrwt>
<pdfrwt beam="1">  1        2 0.32362413E+00 0.86289349E+03</pdfrwt>
<pdfrwt beam="2">  1       -2 0.11738630E-01 0.86289349E+03</pdfrwt>
<totfact> 0.31411475E+02</totfact>
</mgrwt>
</event>
<event>
 4    1  0.4915183E-005  0.1140915E+04  0.7818608E-02  0.9166206E-01
         -2   -1    0    0    0  501 -0.00000000000E+00  0.00000000000E+00  0.15815274263E+03  0.15815274265E+03  0.25500000000E-02 0. -1.
          2   -1    0    0  501    0  0.00000000000E+00 -0.00000000000E+00 -0.20576438225E+04  0.20576438225E+04  0.25500000000E-02 0.  1.
    5000001    1    1    2    0    0 -0.37105329416E+03  0.21635337010E+03 -0.15679740932E+04  0.16378745632E+04  0.19900000000E+03 0.  0.
   -5000001    1    1    2    0    0  0.37105329416E+03 -0.21635337010E+03 -0.33151698663E+03  0.57792200190E+03  0.19900000000E+03 0.  0.
<mgrwt>
<rscale>  0 0.11409154E+04</rscale>
<asrwt>0</asrwt>
<pdfrwt beam="1">  1        2 0.29394910E+00 0.11409154E+04</pdfrwt>
<pdfrwt beam="2">  1       -2 0.22593250E-01 0.11409154E+04</pdfrwt>
<totfact> 0.12789311E+02</totfact>
</mgrwt>
</event>
<event>
 4    1  0.4915183E-005  0.1218762E+04  0.7818608E-02  0.9096591E-01
         -2   -1    0    0    0  501 -0.00000000000E+00  0.00000000000E+00  0.16509971499E+03  0.16509971501E+03  0.25500000000E-02 0. -1.
          2   -1    0    0  501    0  0.00000000000E+00 -0.00000000000E+00 -0.22492190485E+04  0.22492190485E+04  0.25500000000E-02 0.  1.
    5000001    1    1    2    0    0 -0.53410308190E+03 -0.29871571876E+02 -0.14650119474E+04  0.15722656961E+04  0.19900000000E+03 0.  0.
   -5000001    1    1    2    0    0  0.53410308190E+03  0.29871571876E+02 -0.61910738608E+03  0.84205306745E+03  0.19900000000E+03 0.  0.
<mgrwt>
<rscale>  0 0.12187624E+04</rscale>
<asrwt>0</asrwt>
<pdfrwt beam="1">  1        2 0.32131699E+00 0.12187624E+04</pdfrwt>
<pdfrwt beam="2">  1       -2 0.23585675E-01 0.12187624E+04</pdfrwt>
<totfact> 0.93881373E+01</totfact>
</mgrwt>
</event>
<event>
 4    1  0.4915183E-005  0.7467479E+03  0.7818608E-02  0.9640466E-01
          2   -1    0    0  501    0  0.00000000000E+00  0.00000000000E+00  0.19029465028E+04  0.19029465028E+04  0.25500000000E-02 0.  1.
         -2   -1    0    0    0  501 -0.00000000000E+00 -0.00000000000E+00 -0.73259068397E+02  0.73259068442E+02  0.25500000000E-02 0. -1.
    5000001    1    1    2    0    0  0.30119607890E+03  0.84683827224E+02  0.79898449120E+03  0.88083349489E+03  0.19900000000E+03 0.  0.
   -5000001    1    1    2    0    0 -0.30119607890E+03 -0.84683827224E+02  0.10307029432E+04  0.10953720764E+04  0.19900000000E+03 0.  0.
<mgrwt>
<rscale>  0 0.74674785E+03</rscale>
<asrwt>0</asrwt>
<pdfrwt beam="1">  1        2 0.27184948E+00 0.74674785E+03</pdfrwt>
<pdfrwt beam="2">  1       -2 0.10465582E-01 0.74674785E+03</pdfrwt>
<totfact> 0.58401923E+02</totfact>
</mgrwt>
</event>
<event>
 4    1  0.4915183E-005  0.6458789E+03  0.7818608E-02  0.9814543E-01
         -2   -1    0    0    0  501 -0.00000000000E+00  0.00000000000E+00  0.14689772062E+03  0.14689772064E+03  0.25500000000E-02 0. -1.
          2   -1    0    0  501    0  0.00000000000E+00 -0.00000000000E+00 -0.70994891276E+03  0.70994891276E+03  0.25500000000E-02 0.  1.
    5000001    1    1    2    0    0 -0.32885032088E+02  0.18484248412E+03 -0.50915383824E+03  0.57800242237E+03  0.19900000000E+03 0.  0.
   -5000001    1    1    2    0    0  0.32885032088E+02 -0.18484248412E+03 -0.53897353899E+02  0.27884421104E+03  0.19900000000E+03 0.  0.
<mgrwt>
<rscale>  0 0.64587886E+03</rscale>
<asrwt>0</asrwt>
<pdfrwt beam="1">  1        2 0.10142127E+00 0.64587886E+03</pdfrwt>
<pdfrwt beam="2">  1       -2 0.20985389E-01 0.64587886E+03</pdfrwt>
<totfact> 0.86961085E+02</totfact>
</mgrwt>
</event>
<event>
 4    1  0.4915183E-005  0.7746047E+03  0.7818608E-02  0.9597521E-01
         -2   -1    0    0    0  501 -0.00000000000E+00  0.00000000000E+00  0.14149834199E+03  0.14149834202E+03  0.25500000000E-02 0. -1.
          2   -1    0    0  501    0  0.00000000000E+00 -0.00000000000E+00 -0.10601050203E+04  0.10601050203E+04  0.25500000000E-02 0.  1.
    5000001    1    1    2    0    0  0.31909696390E+03  0.81916766951E+01 -0.60242325104E+03  0.71021457978E+03  0.19900000000E+03 0.  0.
   -5000001    1    1    2    0    0 -0.31909696390E+03 -0.81916766951E+01 -0.31618342730E+03  0.49138878257E+03  0.19900000000E+03 0.  0.
<mgrwt>
<rscale>  0 0.77460468E+03</rscale>
<asrwt>0</asrwt>
<pdfrwt beam="1">  1        2 0.15144357E+00 0.77460468E+03</pdfrwt>
<pdfrwt beam="2">  1       -2 0.20214049E-01 0.77460468E+03</pdfrwt>
<totfact> 0.54237114E+02</totfact>
</mgrwt>
</event>
<event>
 4    1  0.4915183E-005  0.5778992E+03  0.7818608E-02  0.9952350E-01
          2   -1    0    0  501    0  0.00000000000E+00  0.00000000000E+00  0.80002036305E+03  0.80002036305E+03  0.25500000000E-02 0.  1.
         -2   -1    0    0    0  501 -0.00000000000E+00 -0.00000000000E+00 -0.10436219038E+03  0.10436219041E+03  0.25500000000E-02 0. -1.
    5000001    1    1    2    0    0  0.18763165028E+03  0.92234735068E+02  0.36870780602E+03  0.46825135212E+03  0.19900000000E+03 0.  0.
   -5000001    1    1    2    0    0 -0.18763165028E+03 -0.92234735068E+02  0.32695036664E+03  0.43613120135E+03  0.19900000000E+03 0.  0.
<mgrwt>
<rscale>  0 0.57789922E+03</rscale>
<asrwt>0</asrwt>
<pdfrwt beam="1">  1        2 0.11428862E+00 0.57789922E+03</pdfrwt>
<pdfrwt beam="2">  1       -2 0.14908884E-01 0.57789922E+03</pdfrwt>
<totfact> 0.13479107E+03</totfact>
</mgrwt>
</event>
<event>
 4    1  0.4915183E-005  0.4583106E+03  0.7818608E-02  0.1025272E+00
         -2   -1    0    0    0  501 -0.00000000000E+00  0.00000000000E+00  0.31383671268E+02  0.31383671372E+02  0.25500000000E-02 0. -1.
          2   -1    0    0  501    0  0.00000000000E+00 -0.00000000000E+00 -0.16732315206E+04  0.16732315206E+04  0.25500000000E-02 0.  1.
    5000001    1    1    2    0    0  0.62452034018E+02 -0.93800052393E+02 -0.76671305719E+03  0.80009288114E+03  0.19900000000E+03 0.  0.
   -5000001    1    1    2    0    0 -0.62452034018E+02  0.93800052393E+02 -0.87513479211E+03  0.90452231080E+03  0.19900000000E+03 0.  0.
<mgrwt>
<rscale>  0 0.45831059E+03</rscale>
<asrwt>0</asrwt>
<pdfrwt beam="1">  1        2 0.23903302E+00 0.45831059E+03</pdfrwt>
<pdfrwt beam="2">  1       -2 0.44833827E-02 0.45831059E+03</pdfrwt>
<totfact> 0.29479995E+03</totfact>
</mgrwt>
</event>
<event>
 4    1  0.4915183E-005  0.5732519E+03  0.7818608E-02  0.9962508E-01
          2   -1    0    0  501    0  0.00000000000E+00  0.00000000000E+00  0.48894772272E+03  0.48894772272E+03  0.25500000000E-02 0.  1.
         -2   -1    0    0    0  501 -0.00000000000E+00 -0.00000000000E+00 -0.16802293916E+03  0.16802293917E+03  0.25500000000E-02 0. -1.
    5000001    1    1    2    0    0  0.12946605655E+03  0.80260393770E+02  0.31988271589E+03  0.40636085261E+03  0.19900000000E+03 0.  0.
   -5000001    1    1    2    0    0 -0.12946605655E+03 -0.80260393770E+02  0.10420676742E+01  0.25060980929E+03  0.19900000000E+03 0.  0.
<mgrwt>
<rscale>  0 0.57325189E+03</rscale>
<asrwt>0</asrwt>
<pdfrwt beam="1">  1        2 0.69849677E-01 0.57325189E+03</pdfrwt>
<pdfrwt beam="2">  1       -2 0.24003276E-01 0.57325189E+03</pdfrwt>
<totfact> 0.10641488E+03</totfact>
</mgrwt>
</event>
<event>
 4    1  0.4915183E-005  0.1051186E+04  0.7818608E-02  0.9254121E-01
          2   -1    0    0  501    0  0.00000000000E+00  0.00000000000E+00  0.63287023265E+03  0.63287023265E+03  0.25500000000E-02 0.  1.
         -2   -1    0    0    0  501 -0.00000000000E+00 -0.00000000000E+00 -0.43650013513E+03  0.43650013514E+03  0.25500000000E-02 0. -1.
    5000001    1    1    2    0    0 -0.34542666265E+03  0.33816500483E+03  0.42727859763E+02  0.52450149643E+03  0.19900000000E+03 0.  0.
   -5000001    1    1    2    0    0  0.34542666265E+03 -0.33816500483E+03  0.15364223775E+03  0.54486887136E+03  0.19900000000E+03 0.  0.
<mgrwt>
<rscale>  0 0.10511859E+04</rscale>
<asrwt>0</asrwt>
<pdfrwt beam="1">  1        2 0.90410033E-01 0.10511859E+04</pdfrwt>
<pdfrwt beam="2">  1       -2 0.62357162E-01 0.10511859E+04</pdfrwt>
<totfact> 0.12103115E+02</totfact>
</mgrwt>
</event>
<event>
 4    1  0.4915183E-005  0.5746208E+03  0.7818608E-02  0.9959505E-01
         -2   -1    0    0    0  501 -0.00000000000E+00  0.00000000000E+00  0.19985027061E+03  0.19985027062E+03  0.25500000000E-02 0. -1.
          2   -1    0    0  501    0  0.00000000000E+00 -0.00000000000E+00 -0.41304549700E+03  0.41304549701E+03  0.25500000000E-02 0.  1.
    5000001    1    1    2    0    0 -0.20259133664E+03 -0.12707609599E+02 -0.15110885493E+03  0.32193107812E+03  0.19900000000E+03 0.  0.
   -5000001    1    1    2    0    0  0.20259133664E+03  0.12707609599E+02 -0.62086371465E+02  0.29096468951E+03  0.19900000000E+03 0.  0.
<mgrwt>
<rscale>  0 0.57462076E+03</rscale>
<asrwt>0</asrwt>
<pdfrwt beam="1">  1        2 0.59006500E-01 0.57462076E+03</pdfrwt>
<pdfrwt beam="2">  1       -2 0.28550039E-01 0.57462076E+03</pdfrwt>
<totfact> 0.93985629E+02</totfact>
</mgrwt>
</event>
<event>
 4    1  0.4915183E-005  0.6686932E+03  0.7818608E-02  0.9772321E-01
         -2   -1    0    0    0  501 -0.00000000000E+00  0.00000000000E+00  0.70702180972E+02  0.70702181018E+02  0.25500000000E-02 0. -1.
          2   -1    0    0  501    0  0.00000000000E+00 -0.00000000000E+00 -0.15811061697E+04  0.15811061697E+04  0.25500000000E-02 0.  1.
    5000001    1    1    2    0    0  0.19981615392E+03  0.17949032492E+03 -0.77147208296E+03  0.84078145014E+03  0.19900000000E+03 0.  0.
   -5000001    1    1    2    0    0 -0.19981615392E+03 -0.17949032492E+03 -0.73893190578E+03  0.81102690059E+03  0.19900000000E+03 0.  0.
<mgrwt>
<rscale>  0 0.66869322E+03</rscale>
<asrwt>0</asrwt>
<pdfrwt beam="1">  1        2 0.22587229E+00 0.66869322E+03</pdfrwt>
<pdfrwt beam="2">  1       -2 0.10100313E-01 0.66869322E+03</pdfrwt>
<totfact> 0.90714009E+02</totfact>
</mgrwt>
</event>
<event>
 4    1  0.4915183E-005  0.5010445E+03  0.7818608E-02  0.1013507E+00
         -2   -1    0    0    0  501 -0.00000000000E+00  0.00000000000E+00  0.28309623755E+02  0.28309623870E+02  0.25500000000E-02 0. -1.
          2   -1    0    0  501    0  0.00000000000E+00 -0.00000000000E+00 -0.22169631361E+04  0.22169631361E+04  0.25500000000E-02 0.  1.
    5000001    1    1    2    0    0  0.53596323883E+00 -0.81263564138E+02 -0.16709272001E+04  0.16846966380E+04  0.19900000000E+03 0.  0.
   -5000001    1    1    2    0    0 -0.53596323883E+00  0.81263564138E+02 -0.51772631223E+03  0.56057612194E+03  0.19900000000E+03 0.  0.
<mgrwt>
<rscale>  0 0.50104448E+03</rscale>
<asrwt>0</asrwt>
<pdfrwt beam="1">  1        2 0.31670891E+00 0.50104448E+03</pdfrwt>
<pdfrwt beam="2">  1       -2 0.40442334E-02 0.50104448E+03</pdfrwt>
<totfact> 0.18435157E+03</totfact>
</mgrwt>
</event>
<event>
 4    1  0.4915183E-005  0.6221884E+03  0.7818608E-02  0.9860412E-01
          2   -1    0    0  501    0  0.00000000000E+00  0.00000000000E+00  0.50316928536E+03  0.50316928537E+03  0.25500000000E-02 0.  1.
         -2   -1    0    0    0  501 -0.00000000000E+00 -0.00000000000E+00 -0.19234003995E+03  0.19234003997E+03  0.25500000000E-02 0. -1.
    5000001    1    1    2    0    0 -0.23773198533E+03  0.99543466430E+01  0.18193873596E+03  0.35960852258E+03  0.19900000000E+03 0.  0.
   -5000001    1    1    2    0    0  0.23773198533E+03 -0.99543466430E+01  0.12889050944E+03  0.33590080276E+03  0.19900000000E+03 0.  0.
<mgrwt>
<rscale>  0 0.62218840E+03</rscale>
<asrwt>0</asrwt>
<pdfrwt beam="1">  1        2 0.71881327E-01 0.62218840E+03</pdfrwt>
<pdfrwt beam="2">  1       -2 0.27477149E-01 0.62218840E+03</pdfrwt>
<totfact> 0.80682440E+02</totfact>
</mgrwt>
</event>
<event>
 4    1  0.4915183E-005  0.5685370E+03  0.7818608E-02  0.9972921E-01
          2   -1    0    0  501    0  0.00000000000E+00  0.00000000000E+00  0.90688513653E+02  0.90688513689E+02  0.25500000000E-02 0.  1.
         -2   -1    0    0    0  501 -0.00000000000E+00 -0.00000000000E+00 -0.89105643643E+03  0.89105643643E+03  0.25500000000E-02 0. -1.
    5000001    1    1    2    0    0  0.22349816545E+02  0.19159221187E+03 -0.50940259452E+03  0.57991300490E+03  0.19900000000E+03 0.  0.
   -5000001    1    1    2    0    0 -0.22349816545E+02 -0.19159221187E+03 -0.29096532825E+03  0.40183194522E+03  0.19900000000E+03 0.  0.
<mgrwt>
<rscale>  0 0.56853701E+03</rscale>
<asrwt>0</asrwt>
<pdfrwt beam="1">  1        2 0.12955502E-01 0.56853701E+03</pdfrwt>
<pdfrwt beam="2">  1       -2 0.12729377E+00 0.56853701E+03</pdfrwt>
<totfact> 0.22296203E+02</totfact>
</mgrwt>
</event>
<event>
 4    1  0.4915183E-005  0.4757428E+03  0.7818608E-02  0.1020312E+00
          2   -1    0    0  501    0  0.00000000000E+00  0.00000000000E+00  0.18608503265E+04  0.18608503265E+04  0.25500000000E-02 0.  1.
         -2   -1    0    0    0  501 -0.00000000000E+00 -0.00000000000E+00 -0.30406956973E+02  0.30406957080E+02  0.25500000000E-02 0. -1.
    5000001    1    1    2    0    0  0.65041209274E+02 -0.74277506874E+02  0.12533459532E+04  0.12728804286E+04  0.19900000000E+03 0.  0.
   -5000001    1    1    2    0    0 -0.65041209274E+02  0.74277506874E+02  0.57709741630E+03  0.61837685502E+03  0.19900000000E+03 0.  0.
<mgrwt>
<rscale>  0 0.47574277E+03</rscale>
<asrwt>0</asrwt>
<pdfrwt beam="1">  1        2 0.26583585E+00 0.47574277E+03</pdfrwt>
<pdfrwt beam="2">  1       -2 0.43438495E-02 0.47574277E+03</pdfrwt>
<totfact> 0.24904823E+03</totfact>
</mgrwt>
</event>
<event>
 4    1  0.4915183E-005  0.5981802E+03  0.7818608E-02  0.9909189E-01
          2   -1    0    0  501    0  0.00000000000E+00  0.00000000000E+00  0.20982135203E+04  0.20982135203E+04  0.25500000000E-02 0.  1.
         -2   -1    0    0    0  501 -0.00000000000E+00 -0.00000000000E+00 -0.42633841126E+02  0.42633841202E+02  0.25500000000E-02 0. -1.
    5000001    1    1    2    0    0 -0.31992873118E+01  0.13652317214E+03  0.39557256836E+03  0.46338695364E+03  0.19900000000E+03 0.  0.
   -5000001    1    1    2    0    0  0.31992873118E+01 -0.13652317214E+03  0.16600071109E+04  0.16774604079E+04  0.19900000000E+03 0.  0.
<mgrwt>
<rscale>  0 0.59818025E+03</rscale>
<asrwt>0</asrwt>
<pdfrwt beam="1">  1        2 0.29974477E+00 0.59818025E+03</pdfrwt>
<pdfrwt beam="2">  1       -2 0.60905491E-02 0.59818025E+03</pdfrwt>
<totfact> 0.11158434E+03</totfact>
</mgrwt>
</event>
<event>
 4    1  0.4915183E-005  0.9441038E+03  0.7818608E-02  0.9372069E-01
          2   -1    0    0  501    0  0.00000000000E+00  0.00000000000E+00  0.38337544138E+03  0.38337544139E+03  0.25500000000E-02 0. -1.
         -2   -1    0    0    0  501 -0.00000000000E+00 -0.00000000000E+00 -0.58123956985E+03  0.58123956985E+03  0.25500000000E-02 0.  1.
    5000001    1    1    2    0    0 -0.13232160551E+03 -0.39835404698E+03 -0.18464152505E+03  0.49988843435E+03  0.19900000000E+03 0.  0.
   -5000001    1    1    2    0    0  0.13232160551E+03  0.39835404698E+03 -0.13222603415E+02  0.46472657689E+03  0.19900000000E+03 0.  0.
<mgrwt>
<rscale>  0 0.94410376E+03</rscale>
<asrwt>0</asrwt>
<pdfrwt beam="1">  1        2 0.54767920E-01 0.94410376E+03</pdfrwt>
<pdfrwt beam="2">  1       -2 0.83034224E-01 0.94410376E+03</pdfrwt>
<totfact> 0.11548350E+02</totfact>
</mgrwt>
</event>
<event>
 4    1  0.4915183E-005  0.1026828E+04  0.7818608E-02  0.9279600E-01
          2   -1    0    0  501    0  0.00000000000E+00  0.00000000000E+00  0.32643906550E+04  0.32643906550E+04  0.25500000000E-02 0.  1.
         -2   -1    0    0    0  501 -0.00000000000E+00 -0.00000000000E+00 -0.80748263610E+02  0.80748263650E+02  0.25500000000E-02 0. -1.
    5000001    1    1    2    0    0  0.33625666276E+03 -0.32035520719E+03  0.18885596169E+04  0.19549819509E+04  0.19900000000E+03 0.  0.
   -5000001    1    1    2    0    0 -0.33625666276E+03  0.32035520719E+03  0.12950827745E+04  0.13901569677E+04  0.19900000000E+03 0.  0.
<mgrwt>
<rscale>  0 0.10268279E+04</rscale>
<asrwt>0</asrwt>
<pdfrwt beam="1">  1        2 0.46634155E+00 0.10268279E+04</pdfrwt>
<pdfrwt beam="2">  1       -2 0.11535465E-01 0.10268279E+04</pdfrwt>
<totfact> 0.92608302E+01</totfact>
</mgrwt>
</event>
<event>
 4    1  0.4915183E-005  0.5494184E+03  0.7818608E-02  0.1001629E+00
         -2   -1    0    0    0  501 -0.00000000000E+00  0.00000000000E+00  0.31842004855E+02  0.31842004958E+02  0.25500000000E-02 0. -1.
          2   -1    0    0  501    0  0.00000000000E+00 -0.00000000000E+00 -0.23699876394E+04  0.23699876394E+04  0.25500000000E-02 0.  1.
    5000001    1    1    2    0    0  0.16438434152E+03  0.48475590533E+02 -0.81683957591E+03  0.85802097141E+03  0.19900000000E+03 0.  0.
   -5000001    1    1    2    0    0 -0.16438434152E+03 -0.48475590533E+02 -0.15213060586E+04  0.15438086729E+04  0.19900000000E+03 0.  0.
<mgrwt>
<rscale>  0 0.54941845E+03</rscale>
<asrwt>0</asrwt>
<pdfrwt beam="1">  1        2 0.33856955E+00 0.54941845E+03</pdfrwt>
<pdfrwt beam="2">  1       -2 0.45488593E-02 0.54941845E+03</pdfrwt>
<totfact> 0.12850178E+03</totfact>
</mgrwt>
</event>
<event>
 4    1  0.4915183E-005  0.1763520E+04  0.7818608E-02  0.8725943E-01
         -2   -1    0    0    0  501 -0.00000000000E+00  0.00000000000E+00  0.21309895387E+03  0.21309895388E+03  0.25500000000E-02 0.  1.
          2   -1    0    0  501    0  0.00000000000E+00 -0.00000000000E+00 -0.36485430187E+04  0.36485430187E+04  0.25500000000E-02 0. -1.
    5000001    1    1    2    0    0  0.26003570321E+03 -0.77431951859E+03 -0.23000039642E+04  0.24488381978E+04  0.19900000000E+03 0.  0.
   -5000001    1    1    2    0    0 -0.26003570321E+03  0.77431951859E+03 -0.11354401006E+04  0.14128037747E+04  0.19900000000E+03 0.  0.
<mgrwt>
<rscale>  0 0.17635200E+04</rscale>
<asrwt>0</asrwt>
<pdfrwt beam="1">  1        2 0.52122039E+00 0.17635200E+04</pdfrwt>
<pdfrwt beam="2">  1       -2 0.30442710E-01 0.17635200E+04</pdfrwt>
<totfact> 0.92667346E+00</totfact>
</mgrwt>
</event>
<event>
 4    1  0.4915183E-005  0.8784133E+03  0.7818608E-02  0.9452976E-01
          2   -1    0    0  501    0  0.00000000000E+00  0.00000000000E+00  0.16378101204E+04  0.16378101204E+04  0.25500000000E-02 0.  1.
         -2   -1    0    0    0  501 -0.00000000000E+00 -0.00000000000E+00 -0.11778073027E+03  0.11778073030E+03  0.25500000000E-02 0. -1.
    5000001    1    1    2    0    0 -0.13507213299E+03  0.33662045694E+03  0.10547218840E+04  0.11329594281E+04  0.19900000000E+03 0.  0.
   -5000001    1    1    2    0    0  0.13507213299E+03 -0.33662045694E+03  0.46530750612E+03  0.62263142258E+03  0.19900000000E+03 0.  0.
<mgrwt>
<rscale>  0 0.87841328E+03</rscale>
<asrwt>0</asrwt>
<pdfrwt beam="1">  1        2 0.23397288E+00 0.87841328E+03</pdfrwt>
<pdfrwt beam="2">  1       -2 0.16825818E-01 0.87841328E+03</pdfrwt>
<totfact> 0.35789199E+02</totfact>
</mgrwt>
</event>
<event>
 4    1  0.4915183E-005  0.1186385E+04  0.7818608E-02  0.9124858E-01
         -2   -1    0    0    0  501 -0.00000000000E+00  0.00000000000E+00  0.31950097534E+03  0.31950097535E+03  0.25500000000E-02 0. -1.
          2   -1    0    0  501    0  0.00000000000E+00 -0.00000000000E+00 -0.11013334055E+04  0.11013334055E+04  0.25500000000E-02 0.  1.
    5000001    1    1    2    0    0 -0.25599979952E+03  0.46864926457E+03 -0.19373423008E+03  0.60191526184E+03  0.19900000000E+03 0.  0.
   -5000001    1    1    2    0    0  0.25599979952E+03 -0.46864926457E+03 -0.58809820006E+03  0.81891911899E+03  0.19900000000E+03 0.  0.
<mgrwt>
<rscale>  0 0.11863846E+04</rscale>
<asrwt>0</asrwt>
<pdfrwt beam="1">  1        2 0.15733334E+00 0.11863846E+04</pdfrwt>
<pdfrwt beam="2">  1       -2 0.45642997E-01 0.11863846E+04</pdfrwt>
<totfact> 0.10959253E+02</totfact>
</mgrwt>
</event>
<event>
 4    1  0.4915183E-005  0.4391698E+03  0.7818608E-02  0.1031002E+00
          2   -1    0    0  501    0  0.00000000000E+00  0.00000000000E+00  0.37653434293E+03  0.37653434294E+03  0.25500000000E-02 0.  1.
         -2   -1    0    0    0  501 -0.00000000000E+00 -0.00000000000E+00 -0.12805609653E+03  0.12805609656E+03  0.25500000000E-02 0. -1.
    5000001    1    1    2    0    0 -0.91984403532E+02 -0.97056883237E+01  0.13322658845E+03  0.25672096671E+03  0.19900000000E+03 0.  0.
   -5000001    1    1    2    0    0  0.91984403532E+02  0.97056883237E+01  0.11525165795E+03  0.24786947279E+03  0.19900000000E+03 0.  0.
<mgrwt>
<rscale>  0 0.43916975E+03</rscale>
<asrwt>0</asrwt>
<pdfrwt beam="1">  1        2 0.53790619E-01 0.43916975E+03</pdfrwt>
<pdfrwt beam="2">  1       -2 0.18293728E-01 0.43916975E+03</pdfrwt>
<totfact> 0.22844131E+03</totfact>
</mgrwt>
</event>
<event>
 4    1  0.4915183E-005  0.6619177E+03  0.7818608E-02  0.9784670E-01
         -2   -1    0    0    0  501 -0.00000000000E+00  0.00000000000E+00  0.42721969048E+03  0.42721969048E+03  0.25500000000E-02 0. -1.
          2   -1    0    0  501    0  0.00000000000E+00 -0.00000000000E+00 -0.25638746461E+03  0.25638746462E+03  0.25500000000E-02 0.  1.
    5000001    1    1    2    0    0 -0.64206694062E+02 -0.23088349737E+03  0.20089727896E+03  0.37066211786E+03  0.19900000000E+03 0.  0.
   -5000001    1    1    2    0    0  0.64206694062E+02  0.23088349737E+03 -0.30065053097E+02  0.31294503725E+03  0.19900000000E+03 0.  0.
<mgrwt>
<rscale>  0 0.66191774E+03</rscale>
<asrwt>0</asrwt>
<pdfrwt beam="1">  1        2 0.36626781E-01 0.66191774E+03</pdfrwt>
<pdfrwt beam="2">  1       -2 0.61031384E-01 0.66191774E+03</pdfrwt>
<totfact> 0.35829682E+02</totfact>
</mgrwt>
</event>
<event>
 4    1  0.4915183E-005  0.6297554E+03  0.7818608E-02  0.9845526E-01
          2   -1    0    0  501    0  0.00000000000E+00  0.00000000000E+00  0.19390990385E+04  0.19390990385E+04  0.25500000000E-02 0.  1.
         -2   -1    0    0    0  501 -0.00000000000E+00 -0.00000000000E+00 -0.51130943229E+02  0.51130943292E+02  0.25500000000E-02 0. -1.
    5000001    1    1    2    0    0  0.10996736723E+03 -0.20277488255E+03  0.69241588282E+03  0.75647288757E+03  0.19900000000E+03 0.  0.
   -5000001    1    1    2    0    0 -0.10996736723E+03  0.20277488255E+03  0.11955522124E+04  0.12337570942E+04  0.19900000000E+03 0.  0.
<mgrwt>
<rscale>  0 0.62975539E+03</rscale>
<asrwt>0</asrwt>
<pdfrwt beam="1">  1        2 0.27701415E+00 0.62975539E+03</pdfrwt>
<pdfrwt beam="2">  1       -2 0.73044203E-02 0.62975539E+03</pdfrwt>
<totfact> 0.10054906E+03</totfact>
</mgrwt>
</event>
<event>
 4    1  0.4915183E-005  0.4426325E+03  0.7818608E-02  0.1029942E+00
          2   -1    0    0  501    0  0.00000000000E+00  0.00000000000E+00  0.48296361578E+03  0.48296361578E+03  0.25500000000E-02 0.  1.
         -2   -1    0    0    0  501 -0.00000000000E+00 -0.00000000000E+00 -0.10141735412E+03  0.10141735415E+03  0.25500000000E-02 0. -1.
    5000001    1    1    2    0    0  0.88392665567E+02  0.34162627140E+02  0.21716285402E+03  0.30942051255E+03  0.19900000000E+03 0.  0.
   -5000001    1    1    2    0    0 -0.88392665567E+02 -0.34162627140E+02  0.16438340764E+03  0.27496045738E+03  0.19900000000E+03 0.  0.
<mgrwt>
<rscale>  0 0.44263254E+03</rscale>
<asrwt>0</asrwt>
<pdfrwt beam="1">  1        2 0.68994801E-01 0.44263254E+03</pdfrwt>
<pdfrwt beam="2">  1       -2 0.14488194E-01 0.44263254E+03</pdfrwt>
<totfact> 0.25705515E+03</totfact>
</mgrwt>
</event>
<event>
 4    1  0.4915183E-005  0.5129686E+03  0.7818608E-02  0.1010448E+00
         -2   -1    0    0    0  501 -0.00000000000E+00  0.00000000000E+00  0.97709625261E+02  0.97709625294E+02  0.25500000000E-02 0. -1.
          2   -1    0    0  501    0  0.00000000000E+00 -0.00000000000E+00 -0.67326218976E+03  0.67326218977E+03  0.25500000000E-02 0.  1.
    5000001    1    1    2    0    0 -0.38975635638E+02  0.12490083155E+03 -0.14468777460E+03  0.27866623407E+03  0.19900000000E+03 0.  0.
   -5000001    1    1    2    0    0  0.38975635638E+02 -0.12490083155E+03 -0.43086478990E+03  0.49230558099E+03  0.19900000000E+03 0.  0.
<mgrwt>
<rscale>  0 0.51296860E+03</rscale>
<asrwt>0</asrwt>
<pdfrwt beam="1">  1        2 0.96180310E-01 0.51296860E+03</pdfrwt>
<pdfrwt beam="2">  1       -2 0.13958518E-01 0.51296860E+03</pdfrwt>
<totfact> 0.18638727E+03</totfact>
</mgrwt>
</event>
<event>
 4    1  0.4915183E-005  0.5167427E+03  0.7818608E-02  0.1009499E+00
          2   -1    0    0  501    0  0.00000000000E+00  0.00000000000E+00  0.13041700553E+03  0.13041700556E+03  0.25500000000E-02 0.  1.
         -2   -1    0    0    0  501 -0.00000000000E+00 -0.00000000000E+00 -0.51186379544E+03  0.51186379544E+03  0.25500000000E-02 0. -1.
    5000001    1    1    2    0    0 -0.81138875889E+02  0.11610132996E+03 -0.29539431271E+03  0.38330384290E+03  0.19900000000E+03 0.  0.
   -5000001    1    1    2    0    0  0.81138875889E+02 -0.11610132996E+03 -0.86052477190E+02  0.25897695810E+03  0.19900000000E+03 0.  0.
<mgrwt>
<rscale>  0 0.51674266E+03</rscale>
<asrwt>0</asrwt>
<pdfrwt beam="1">  1        2 0.18631001E-01 0.51674266E+03</pdfrwt>
<pdfrwt beam="2">  1       -2 0.73123398E-01 0.51674266E+03</pdfrwt>
<totfact> 0.52619018E+02</totfact>
</mgrwt>
</event>
<event>
 4    1  0.4915183E-005  0.1224702E+04  0.7818608E-02  0.9091506E-01
         -2   -1    0    0    0  501 -0.00000000000E+00  0.00000000000E+00  0.33999490660E+03  0.33999490661E+03  0.25500000000E-02 0. -1.
          2   -1    0    0  501    0  0.00000000000E+00 -0.00000000000E+00 -0.11028802313E+04  0.11028802313E+04  0.25500000000E-02 0.  1.
    5000001    1    1    2    0    0 -0.46668723029E+03  0.15715640367E+03 -0.22393630370E+02  0.53159907902E+03  0.19900000000E+03 0.  0.
   -5000001    1    1    2    0    0  0.46668723029E+03 -0.15715640367E+03 -0.74049169432E+03  0.91127605888E+03  0.19900000000E+03 0.  0.
<mgrwt>
<rscale>  0 0.12247019E+04</rscale>
<asrwt>0</asrwt>
<pdfrwt beam="1">  1        2 0.15755432E+00 0.12247019E+04</pdfrwt>
<pdfrwt beam="2">  1       -2 0.48570702E-01 0.12247019E+04</pdfrwt>
<totfact> 0.96251079E+01</totfact>
</mgrwt>
</event>
<event>
 4    1  0.4915183E-005  0.5135006E+03  0.7818608E-02  0.1010314E+00
         -2   -1    0    0    0  501 -0.00000000000E+00  0.00000000000E+00  0.14133355746E+03  0.14133355749E+03  0.25500000000E-02 0. -1.
          2   -1    0    0  501    0  0.00000000000E+00 -0.00000000000E+00 -0.46641950305E+03  0.46641950306E+03  0.25500000000E-02 0.  1.
    5000001    1    1    2    0    0  0.10412281018E+03  0.12428019403E+03 -0.16930075838E+03  0.30749125681E+03  0.19900000000E+03 0.  0.
   -5000001    1    1    2    0    0 -0.10412281018E+03 -0.12428019403E+03 -0.15578518721E+03  0.30026180373E+03  0.19900000000E+03 0.  0.
<mgrwt>
<rscale>  0 0.51350064E+03</rscale>
<asrwt>0</asrwt>
<pdfrwt beam="1">  1        2 0.66631357E-01 0.51350064E+03</pdfrwt>
<pdfrwt beam="2">  1       -2 0.20190508E-01 0.51350064E+03</pdfrwt>
<totfact> 0.15219182E+03</totfact>
</mgrwt>
</event>
<event>
 4    1  0.4915183E-005  0.5682189E+03  0.7818608E-02  0.9973628E-01
          2   -1    0    0  501    0  0.00000000000E+00  0.00000000000E+00  0.39376173887E+03  0.39376173888E+03  0.25500000000E-02 0.  1.
         -2   -1    0    0    0  501 -0.00000000000E+00 -0.00000000000E+00 -0.20499240416E+03  0.20499240418E+03  0.25500000000E-02 0. -1.
    5000001    1    1    2    0    0  0.19144463529E+03 -0.45819075254E+02  0.43121291197E+02  0.28321525699E+03  0.19900000000E+03 0.  0.
   -5000001    1    1    2    0    0 -0.19144463529E+03  0.45819075254E+02  0.14564804351E+03  0.31553888606E+03  0.19900000000E+03 0.  0.
<mgrwt>
<rscale>  0 0.56821885E+03</rscale>
<asrwt>0</asrwt>
<pdfrwt beam="1">  1        2 0.56251677E-01 0.56821885E+03</pdfrwt>
<pdfrwt beam="2">  1       -2 0.29284629E-01 0.56821885E+03</pdfrwt>
<totfact> 0.94602242E+02</totfact>
</mgrwt>
</event>
<event>
 4    1  0.4915183E-005  0.6945857E+03  0.7818608E-02  0.9726536E-01
         -2   -1    0    0    0  501 -0.00000000000E+00  0.00000000000E+00  0.18241874466E+03  0.18241874468E+03  0.25500000000E-02 0. -1.
          2   -1    0    0  501    0  0.00000000000E+00 -0.00000000000E+00 -0.66118388545E+03  0.66118388546E+03  0.25500000000E-02 0.  1.
    5000001    1    1    2    0    0 -0.52032916602E+02 -0.26241915273E+03 -0.12137759321E+03  0.35483060221E+03  0.19900000000E+03 0.  0.
   -5000001    1    1    2    0    0  0.52032916602E+02  0.26241915273E+03 -0.35738754758E+03  0.48877202793E+03  0.19900000000E+03 0.  0.
<mgrwt>
<rscale>  0 0.69458573E+03</rscale>
<asrwt>0</asrwt>
<pdfrwt beam="1">  1        2 0.94454840E-01 0.69458573E+03</pdfrwt>
<pdfrwt beam="2">  1       -2 0.26059821E-01 0.69458573E+03</pdfrwt>
<totfact> 0.64403204E+02</totfact>
</mgrwt>
</event>
<event>
 4    1  0.4915183E-005  0.7363457E+03  0.7818608E-02  0.9657019E-01
         -2   -1    0    0    0  501 -0.00000000000E+00  0.00000000000E+00  0.78056114057E+02  0.78056114099E+02  0.25500000000E-02 0. -1.
          2   -1    0    0  501    0  0.00000000000E+00 -0.00000000000E+00 -0.17365874080E+04  0.17365874080E+04  0.25500000000E-02 0.  1.
    5000001    1    1    2    0    0 -0.10564609208E+03  0.28924424287E+03 -0.74653638101E+03  0.83170962299E+03  0.19900000000E+03 0.  0.
   -5000001    1    1    2    0    0  0.10564609208E+03 -0.28924424287E+03 -0.91199491290E+03  0.98293389908E+03  0.19900000000E+03 0.  0.
<mgrwt>
<rscale>  0 0.73634575E+03</rscale>
<asrwt>0</asrwt>
<pdfrwt beam="1">  1        2 0.24808389E+00 0.73634575E+03</pdfrwt>
<pdfrwt beam="2">  1       -2 0.11150875E-01 0.73634575E+03</pdfrwt>
<totfact> 0.63993103E+02</totfact>
</mgrwt>
</event>
<event>
 4    1  0.4915183E-005  0.6737454E+03  0.7818608E-02  0.9763215E-01
          2   -1    0    0  501    0  0.00000000000E+00  0.00000000000E+00  0.41452492492E+04  0.41452492492E+04  0.25500000000E-02 0.  1.
         -2   -1    0    0    0  501 -0.00000000000E+00 -0.00000000000E+00 -0.27376696244E+02  0.27376696363E+02  0.25500000000E-02 0. -1.
    5000001    1    1    2    0    0 -0.18708270668E+03  0.14847450602E+03  0.28625620559E+04  0.28793935372E+04  0.19900000000E+03 0.  0.
   -5000001    1    1    2    0    0  0.18708270668E+03 -0.14847450602E+03  0.12553104971E+04  0.12932324084E+04  0.19900000000E+03 0.  0.
<mgrwt>
<rscale>  0 0.67374544E+03</rscale>
<asrwt>0</asrwt>
<pdfrwt beam="1">  1        2 0.59217850E+00 0.67374544E+03</pdfrwt>
<pdfrwt beam="2">  1       -2 0.39109564E-02 0.67374544E+03</pdfrwt>
<totfact> 0.15039375E+02</totfact>
</mgrwt>
</event>
<event>
 4    1  0.4915183E-005  0.6591892E+03  0.7818608E-02  0.9789687E-01
         -2   -1    0    0    0  501 -0.00000000000E+00  0.00000000000E+00  0.69292159896E+02  0.69292159943E+02  0.25500000000E-02 0. -1.
          2   -1    0    0  501    0  0.00000000000E+00 -0.00000000000E+00 -0.15677474685E+04  0.15677474685E+04  0.25500000000E-02 0.  1.
    5000001    1    1    2    0    0 -0.23286382062E+03 -0.43069325275E+02 -0.46660815052E+03  0.55982559058E+03  0.19900000000E+03 0.  0.
   -5000001    1    1    2    0    0  0.23286382062E+03  0.43069325275E+02 -0.10318471581E+04  0.10772140379E+04  0.19900000000E+03 0.  0.
<mgrwt>
<rscale>  0 0.65918922E+03</rscale>
<asrwt>0</asrwt>
<pdfrwt beam="1">  1        2 0.22396390E+00 0.65918922E+03</pdfrwt>
<pdfrwt beam="2">  1       -2 0.98988809E-02 0.65918922E+03</pdfrwt>
<totfact> 0.95275702E+02</totfact>
</mgrwt>
</event>
<event>
 4    1  0.4915183E-005  0.6964686E+03  0.7818608E-02  0.9723290E-01
         -2   -1    0    0    0  501 -0.00000000000E+00  0.00000000000E+00  0.17448604956E+03  0.17448604958E+03  0.25500000000E-02 0. -1.
          2   -1    0    0  501    0  0.00000000000E+00 -0.00000000000E+00 -0.69499614558E+03  0.69499614559E+03  0.25500000000E-02 0.  1.
    5000001    1    1    2    0    0  0.21955562243E+03 -0.10740148908E+03 -0.75395188058E+02  0.32407589479E+03  0.19900000000E+03 0.  0.
   -5000001    1    1    2    0    0 -0.21955562243E+03  0.10740148908E+03 -0.44511490796E+03  0.54540630038E+03  0.19900000000E+03 0.  0.
<mgrwt>
<rscale>  0 0.69646861E+03</rscale>
<asrwt>0</asrwt>
<pdfrwt beam="1">  1        2 0.99285163E-01 0.69646861E+03</pdfrwt>
<pdfrwt beam="2">  1       -2 0.24926579E-01 0.69646861E+03</pdfrwt>
<totfact> 0.65667875E+02</totfact>
</mgrwt>
</event>
<event>
 4    1  0.4915183E-005  0.8372288E+03  0.7818608E-02  0.9507640E-01
         -2   -1    0    0    0  501 -0.00000000000E+00  0.00000000000E+00  0.11103469695E+03  0.11103469698E+03  0.25500000000E-02 0. -1.
          2   -1    0    0  501    0  0.00000000000E+00 -0.00000000000E+00 -0.15782274721E+04  0.15782274721E+04  0.25500000000E-02 0.  1.
    5000001    1    1    2    0    0  0.32458196789E+03  0.65494710284E+02 -0.40829235483E+03  0.56209132530E+03  0.19900000000E+03 0.  0.
   -5000001    1    1    2    0    0 -0.32458196789E+03 -0.65494710284E+02 -0.10589004203E+04  0.11271708438E+04  0.19900000000E+03 0.  0.
<mgrwt>
<rscale>  0 0.83722878E+03</rscale>
<asrwt>0</asrwt>
<pdfrwt beam="1">  1        2 0.22546105E+00 0.83722878E+03</pdfrwt>
<pdfrwt beam="2">  1       -2 0.15862100E-01 0.83722878E+03</pdfrwt>
<totfact> 0.42610809E+02</totfact>
</mgrwt>
</event>
<event>
 4    1  0.4915183E-005  0.7223922E+03  0.7818608E-02  0.9679687E-01
         -2   -1    0    0    0  501 -0.00000000000E+00  0.00000000000E+00  0.11620210174E+03  0.11620210176E+03  0.25500000000E-02 0. -1.
          2   -1    0    0  501    0  0.00000000000E+00 -0.00000000000E+00 -0.11227216955E+04  0.11227216956E+04  0.25500000000E-02 0.  1.
    5000001    1    1    2    0    0  0.15806777230E+03 -0.22058826706E+03 -0.27822457501E+03  0.43664003292E+03  0.19900000000E+03 0.  0.
   -5000001    1    1    2    0    0 -0.15806777230E+03  0.22058826706E+03 -0.72829501880E+03  0.80228376440E+03  0.19900000000E+03 0.  0.
<mgrwt>
<rscale>  0 0.72239219E+03</rscale>
<asrwt>0</asrwt>
<pdfrwt beam="1">  1        2 0.16038881E+00 0.72239219E+03</pdfrwt>
<pdfrwt beam="2">  1       -2 0.16600301E-01 0.72239219E+03</pdfrwt>
<totfact> 0.70188982E+02</totfact>
</mgrwt>
</event>
<event>
 4    1  0.4915183E-005  0.1118625E+04  0.7818608E-02  0.9187227E-01
         -2   -1    0    0    0  501 -0.00000000000E+00  0.00000000000E+00  0.11065422336E+03  0.11065422339E+03  0.25500000000E-02 0. -1.
          2   -1    0    0  501    0  0.00000000000E+00 -0.00000000000E+00 -0.28270977845E+04  0.28270977845E+04  0.25500000000E-02 0.  1.
    5000001    1    1    2    0    0 -0.45728188389E+02  0.42237552367E+03 -0.21579779861E+04  0.22083845088E+04  0.19900000000E+03 0.  0.
   -5000001    1    1    2    0    0  0.45728188389E+02 -0.42237552367E+03 -0.55846557500E+03  0.72936749904E+03  0.19900000000E+03 0.  0.
<mgrwt>
<rscale>  0 0.11186247E+04</rscale>
<asrwt>0</asrwt>
<pdfrwt beam="1">  1        2 0.40387107E+00 0.11186247E+04</pdfrwt>
<pdfrwt beam="2">  1       -2 0.15807748E-01 0.11186247E+04</pdfrwt>
<totfact> 0.94755674E+01</totfact>
</mgrwt>
</event>
<event>
 4    1  0.4915183E-005  0.5178964E+03  0.7818608E-02  0.1009210E+00
         -2   -1    0    0    0  501 -0.00000000000E+00  0.00000000000E+00  0.58424108864E+02  0.58424108920E+02  0.25500000000E-02 0. -1.
          2   -1    0    0  501    0  0.00000000000E+00 -0.00000000000E+00 -0.11477140407E+04  0.11477140407E+04  0.25500000000E-02 0.  1.
    5000001    1    1    2    0    0  0.88076723752E+02 -0.50660717801E+02 -0.23983995626E+03  0.32779295632E+03  0.19900000000E+03 0.  0.
   -5000001    1    1    2    0    0 -0.88076723752E+02  0.50660717801E+02 -0.84944997561E+03  0.87834519333E+03  0.19900000000E+03 0.  0.
<mgrwt>
<rscale>  0 0.51789640E+03</rscale>
<asrwt>0</asrwt>
<pdfrwt beam="1">  1        2 0.16395913E+00 0.51789640E+03</pdfrwt>
<pdfrwt beam="2">  1       -2 0.83463020E-02 0.51789640E+03</pdfrwt>
<totfact> 0.21178467E+03</totfact>
</mgrwt>
</event>
<event>
 4    1  0.4915183E-005  0.6621798E+03  0.7818608E-02  0.9784189E-01
         -2   -1    0    0    0  501 -0.00000000000E+00  0.00000000000E+00  0.45982275693E+02  0.45982275763E+02  0.25500000000E-02 0. -1.
          2   -1    0    0  501    0  0.00000000000E+00 -0.00000000000E+00 -0.23839731920E+04  0.23839731920E+04  0.25500000000E-02 0.  1.
    5000001    1    1    2    0    0  0.25228335420E+03  0.17875872045E+02 -0.14544982987E+04  0.14896753803E+04  0.19900000000E+03 0.  0.
   -5000001    1    1    2    0    0 -0.25228335420E+03 -0.17875872045E+02 -0.88349261762E+03  0.94028008752E+03  0.19900000000E+03 0.  0.
<mgrwt>
<rscale>  0 0.66217977E+03</rscale>
<asrwt>0</asrwt>
<pdfrwt beam="1">  1        2 0.34056752E+00 0.66217977E+03</pdfrwt>
<pdfrwt beam="2">  1       -2 0.65688980E-02 0.66217977E+03</pdfrwt>
<totfact> 0.70736288E+02</totfact>
</mgrwt>
</event>
<event>
 4    1  0.4915183E-005  0.1357114E+04  0.7818608E-02  0.8985461E-01
         -2   -1    0    0    0  501 -0.00000000000E+00  0.00000000000E+00  0.33249115942E+03  0.33249115943E+03  0.25500000000E-02 0. -1.
          2   -1    0    0  501    0  0.00000000000E+00 -0.00000000000E+00 -0.13848166288E+04  0.13848166288E+04  0.25500000000E-02 0.  1.
    5000001    1    1    2    0    0 -0.29418828543E+03  0.56675587547E+03 -0.67088137983E+03  0.94733404640E+03  0.19900000000E+03 0.  0.
   -5000001    1    1    2    0    0  0.29418828543E+03 -0.56675587547E+03 -0.38144408957E+03  0.76997374185E+03  0.19900000000E+03 0.  0.
<mgrwt>
<rscale>  0 0.13571135E+04</rscale>
<asrwt>0</asrwt>
<pdfrwt beam="1">  1        2 0.19783094E+00 0.13571135E+04</pdfrwt>
<pdfrwt beam="2">  1       -2 0.47498738E-01 0.13571135E+04</pdfrwt>
<totfact> 0.69185561E+01</totfact>
</mgrwt>
</event>
<event>
 4    1  0.4915183E-005  0.1146924E+04  0.7818608E-02  0.9160626E-01
          2   -1    0    0  501    0  0.00000000000E+00  0.00000000000E+00  0.20820824726E+04  0.20820824726E+04  0.25500000000E-02 0.  1.
         -2   -1    0    0    0  501 -0.00000000000E+00 -0.00000000000E+00 -0.15794712688E+03  0.15794712690E+03  0.25500000000E-02 0. -1.
    5000001    1    1    2    0    0  0.22038131886E+03 -0.30868063427E+03  0.17068176889E+04  0.17597384132E+04  0.19900000000E+03 0.  0.
   -5000001    1    1    2    0    0 -0.22038131886E+03  0.30868063427E+03  0.21731765677E+03  0.48029118628E+03  0.19900000000E+03 0.  0.
<mgrwt>
<rscale>  0 0.11469245E+04</rscale>
<asrwt>0</asrwt>
<pdfrwt beam="1">  1        2 0.29744034E+00 0.11469245E+04</pdfrwt>
<pdfrwt beam="2">  1       -2 0.22563877E-01 0.11469245E+04</pdfrwt>
<totfact> 0.12449658E+02</totfact>
</mgrwt>
</event>
<event>
 4    1  0.4915183E-005  0.4559002E+03  0.7818608E-02  0.1025977E+00
         -2   -1    0    0    0  501 -0.00000000000E+00  0.00000000000E+00  0.11001721408E+03  0.11001721411E+03  0.25500000000E-02 0. -1.
          2   -1    0    0  501    0  0.00000000000E+00 -0.00000000000E+00 -0.47230102261E+03  0.47230102262E+03  0.25500000000E-02 0.  1.
    5000001    1    1    2    0    0  0.25342003013E+02 -0.10822375402E+03 -0.18417656439E+03  0.29304710359E+03  0.19900000000E+03 0.  0.
   -5000001    1    1    2    0    0 -0.25342003013E+02  0.10822375402E+03 -0.17810724415E+03  0.28927113314E+03  0.19900000000E+03 0.  0.
<mgrwt>
<rscale>  0 0.45590018E+03</rscale>
<asrwt>0</asrwt>
<pdfrwt beam="1">  1        2 0.67471573E-01 0.45590018E+03</pdfrwt>
<pdfrwt beam="2">  1       -2 0.15716745E-01 0.45590018E+03</pdfrwt>
<totfact> 0.23007186E+03</totfact>
</mgrwt>
</event>
<event>
 4    1  0.4915183E-005  0.6782539E+03  0.7818608E-02  0.9755161E-01
         -2   -1    0    0    0  501 -0.00000000000E+00  0.00000000000E+00  0.53317023377E+02  0.53317023438E+02  0.25500000000E-02 0. -1.
          2   -1    0    0  501    0  0.00000000000E+00 -0.00000000000E+00 -0.21570427374E+04  0.21570427374E+04  0.25500000000E-02 0.  1.
    5000001    1    1    2    0    0 -0.23877306008E+03  0.13526358162E+03 -0.10840067836E+04  0.11357730925E+04  0.19900000000E+03 0.  0.
   -5000001    1    1    2    0    0  0.23877306008E+03 -0.13526358162E+03 -0.10197189304E+04  0.10745866684E+04  0.19900000000E+03 0.  0.
<mgrwt>
<rscale>  0 0.67825393E+03</rscale>
<asrwt>0</asrwt>
<pdfrwt beam="1">  1        2 0.30814891E+00 0.67825393E+03</pdfrwt>
<pdfrwt beam="2">  1       -2 0.76167190E-02 0.67825393E+03</pdfrwt>
<totfact> 0.72846935E+02</totfact>
</mgrwt>
</event>
<event>
 4    1  0.4915183E-005  0.6481809E+03  0.7818608E-02  0.9810199E-01
          2   -1    0    0  501    0  0.00000000000E+00  0.00000000000E+00  0.16160848856E+04  0.16160848856E+04  0.25500000000E-02 0.  1.
         -2   -1    0    0    0  501 -0.00000000000E+00 -0.00000000000E+00 -0.64993259468E+02  0.64993259518E+02  0.25500000000E-02 0. -1.
    5000001    1    1    2    0    0  0.11125345193E+03 -0.19720884969E+03  0.46687228124E+03  0.55573319853E+03  0.19900000000E+03 0.  0.
   -5000001    1    1    2    0    0 -0.11125345193E+03  0.19720884969E+03  0.10842193449E+04  0.11253449466E+04  0.19900000000E+03 0.  0.
<mgrwt>
<rscale>  0 0.64818091E+03</rscale>
<asrwt>0</asrwt>
<pdfrwt beam="1">  1        2 0.23086923E+00 0.64818091E+03</pdfrwt>
<pdfrwt beam="2">  1       -2 0.92847528E-02 0.64818091E+03</pdfrwt>
<totfact> 0.99831908E+02</totfact>
</mgrwt>
</event>
<event>
 4    1  0.4915183E-005  0.5281205E+03  0.7818608E-02  0.1006689E+00
          2   -1    0    0  501    0  0.00000000000E+00  0.00000000000E+00  0.77479551497E+03  0.77479551497E+03  0.25500000000E-02 0.  1.
         -2   -1    0    0    0  501 -0.00000000000E+00 -0.00000000000E+00 -0.89995127991E+02  0.89995128027E+02  0.25500000000E-02 0. -1.
    5000001    1    1    2    0    0  0.12752532116E+03  0.10880322057E+03  0.26869556072E+03  0.37403095152E+03  0.19900000000E+03 0.  0.
   -5000001    1    1    2    0    0 -0.12752532116E+03 -0.10880322057E+03  0.41610482626E+03  0.49075969148E+03  0.19900000000E+03 0.  0.
<mgrwt>
<rscale>  0 0.52812052E+03</rscale>
<asrwt>0</asrwt>
<pdfrwt beam="1">  1        2 0.11068507E+00 0.52812052E+03</pdfrwt>
<pdfrwt beam="2">  1       -2 0.12856448E-01 0.52812052E+03</pdfrwt>
<totfact> 0.17974545E+03</totfact>
</mgrwt>
</event>
<event>
 4    1  0.4915183E-005  0.4186362E+03  0.7818608E-02  0.1037511E+00
         -2   -1    0    0    0  501 -0.00000000000E+00  0.00000000000E+00  0.31873729985E+03  0.31873729986E+03  0.25500000000E-02 0. -1.
          2   -1    0    0  501    0  0.00000000000E+00 -0.00000000000E+00 -0.13746138752E+03  0.13746138755E+03  0.25500000000E-02 0.  1.
    5000001    1    1    2    0    0  0.59463226706E+02 -0.18492968984E+02  0.11058935245E+03  0.23602726560E+03  0.19900000000E+03 0.  0.
   -5000001    1    1    2    0    0 -0.59463226706E+02  0.18492968984E+02  0.70686559873E+02  0.22017142180E+03  0.19900000000E+03 0.  0.
<mgrwt>
<rscale>  0 0.41863622E+03</rscale>
<asrwt>0</asrwt>
<pdfrwt beam="1">  1        2 0.19637341E-01 0.41863622E+03</pdfrwt>
<pdfrwt beam="2">  1       -2 0.45533900E-01 0.41863622E+03</pdfrwt>
<totfact> 0.13235456E+03</totfact>
</mgrwt>
</event>
<event>
 4    1  0.4915183E-005  0.7848092E+03  0.7818608E-02  0.9582269E-01
         -2   -1    0    0    0  501 -0.00000000000E+00  0.00000000000E+00  0.44724470324E+03  0.44724470325E+03  0.25500000000E-02 0. -1.
          2   -1    0    0  501    0  0.00000000000E+00 -0.00000000000E+00 -0.34428883276E+03  0.34428883277E+03  0.25500000000E-02 0.  1.
    5000001    1    1    2    0    0  0.90008927062E+02 -0.28362033190E+03  0.21359803484E+03  0.41685395537E+03  0.19900000000E+03 0.  0.
   -5000001    1    1    2    0    0 -0.90008927062E+02  0.28362033190E+03 -0.11064216437E+03  0.37467958065E+03  0.19900000000E+03 0.  0.
<mgrwt>
<rscale>  0 0.78480917E+03</rscale>
<asrwt>0</asrwt>
<pdfrwt beam="1">  1        2 0.49184119E-01 0.78480917E+03</pdfrwt>
<pdfrwt beam="2">  1       -2 0.63892100E-01 0.78480917E+03</pdfrwt>
<totfact> 0.23346476E+02</totfact>
</mgrwt>
</event>
<event>
 4    1  0.4915183E-005  0.5314812E+03  0.7818608E-02  0.1005874E+00
         -2   -1    0    0    0  501 -0.00000000000E+00  0.00000000000E+00  0.41096231702E+02  0.41096231781E+02  0.25500000000E-02 0. -1.
          2   -1    0    0  501    0  0.00000000000E+00 -0.00000000000E+00 -0.17183588776E+04  0.17183588776E+04  0.25500000000E-02 0.  1.
    5000001    1    1    2    0    0  0.74506655200E+02 -0.15957484410E+03 -0.83431231412E+03  0.87561030718E+03  0.19900000000E+03 0.  0.
   -5000001    1    1    2    0    0 -0.74506655200E+02  0.15957484410E+03 -0.84295033174E+03  0.88384480217E+03  0.19900000000E+03 0.  0.
<mgrwt>
<rscale>  0 0.53148123E+03</rscale>
<asrwt>0</asrwt>
<pdfrwt beam="1">  1        2 0.24547979E+00 0.53148123E+03</pdfrwt>
<pdfrwt beam="2">  1       -2 0.58708913E-02 0.53148123E+03</pdfrwt>
<totfact> 0.18398792E+03</totfact>
</mgrwt>
</event>
<event>
 4    1  0.4915183E-005  0.5099939E+03  0.7818608E-02  0.1011203E+00
         -2   -1    0    0    0  501 -0.00000000000E+00  0.00000000000E+00  0.63531652740E+02  0.63531652791E+02  0.25500000000E-02 0. -1.
          2   -1    0    0  501    0  0.00000000000E+00 -0.00000000000E+00 -0.10234810629E+04  0.10234810629E+04  0.25500000000E-02 0.  1.
    5000001    1    1    2    0    0  0.14739824407E+03 -0.23240675724E+02 -0.36023364269E+03  0.43776209142E+03  0.19900000000E+03 0.  0.
   -5000001    1    1    2    0    0 -0.14739824407E+03  0.23240675724E+02 -0.59971576747E+03  0.64925062427E+03  0.19900000000E+03 0.  0.
<mgrwt>
<rscale>  0 0.50999390E+03</rscale>
<asrwt>0</asrwt>
<pdfrwt beam="1">  1        2 0.14621157E+00 0.50999390E+03</pdfrwt>
<pdfrwt beam="2">  1       -2 0.90759510E-02 0.50999390E+03</pdfrwt>
<totfact> 0.21883353E+03</totfact>
</mgrwt>
</event>
<event>
 4    1  0.4915183E-005  0.1076847E+04  0.7818608E-02  0.9228057E-01
         -2   -1    0    0    0  501 -0.00000000000E+00  0.00000000000E+00  0.13636493012E+03  0.13636493014E+03  0.25500000000E-02 0. -1.
          2   -1    0    0  501    0  0.00000000000E+00 -0.00000000000E+00 -0.21259115382E+04  0.21259115382E+04  0.25500000000E-02 0.  1.
    5000001    1    1    2    0    0 -0.49958792315E+03 -0.26585123911E+02 -0.99061567031E+03  0.11274818260E+04  0.19900000000E+03 0.  0.
   -5000001    1    1    2    0    0  0.49958792315E+03  0.26585123911E+02 -0.99893093778E+03  0.11347946423E+04  0.19900000000E+03 0.  0.
<mgrwt>
<rscale>  0 0.10768468E+04</rscale>
<asrwt>0</asrwt>
<pdfrwt beam="1">  1        2 0.30370163E+00 0.10768468E+04</pdfrwt>
<pdfrwt beam="2">  1       -2 0.19480706E-01 0.10768468E+04</pdfrwt>
<totfact> 0.15408028E+02</totfact>
</mgrwt>
</event>
<event>
 4    1  0.4915183E-005  0.7738390E+03  0.7818608E-02  0.9598676E-01
          2   -1    0    0  501    0  0.00000000000E+00  0.00000000000E+00  0.11563877302E+04  0.11563877302E+04  0.25500000000E-02 0.  1.
         -2   -1    0    0    0  501 -0.00000000000E+00 -0.00000000000E+00 -0.12946062867E+03  0.12946062869E+03  0.25500000000E-02 0. -1.
    5000001    1    1    2    0    0  0.36491710624E+02 -0.32363102687E+03  0.61904031040E+03  0.72724177025E+03  0.19900000000E+03 0.  0.
   -5000001    1    1    2    0    0 -0.36491710624E+02  0.32363102687E+03  0.40788679115E+03  0.55860658866E+03  0.19900000000E+03 0.  0.
<mgrwt>
<rscale>  0 0.77383896E+03</rscale>
<asrwt>0</asrwt>
<pdfrwt beam="1">  1        2 0.16519826E+00 0.77383896E+03</pdfrwt>
<pdfrwt beam="2">  1       -2 0.18494374E-01 0.77383896E+03</pdfrwt>
<totfact> 0.55622936E+02</totfact>
</mgrwt>
</event>
<event>
 4    1  0.4915183E-005  0.4172121E+03  0.7818608E-02  0.1037978E+00
         -2   -1    0    0    0  501 -0.00000000000E+00  0.00000000000E+00  0.23910851302E+02  0.23910851438E+02  0.25500000000E-02 0. -1.
          2   -1    0    0  501    0  0.00000000000E+00 -0.00000000000E+00 -0.18199467003E+04  0.18199467003E+04  0.25500000000E-02 0.  1.
    5000001    1    1    2    0    0  0.32266991292E+02  0.34377643427E+02 -0.71620109513E+03  0.74482748993E+03  0.19900000000E+03 0.  0.
   -5000001    1    1    2    0    0 -0.32266991292E+02 -0.34377643427E+02 -0.10798347539E+04  0.10990300618E+04  0.19900000000E+03 0.  0.
<mgrwt>
<rscale>  0 0.41721206E+03</rscale>
<asrwt>0</asrwt>
<pdfrwt beam="1">  1        2 0.25999230E+00 0.41721206E+03</pdfrwt>
<pdfrwt beam="2">  1       -2 0.34158371E-02 0.41721206E+03</pdfrwt>
<totfact> 0.37688272E+03</totfact>
</mgrwt>
</event>
<event>
 4    1  0.4915183E-005  0.9316526E+03  0.7818608E-02  0.9386857E-01
          2   -1    0    0  501    0  0.00000000000E+00  0.00000000000E+00  0.29154309262E+04  0.29154309262E+04  0.25500000000E-02 0.  1.
         -2   -1    0    0    0  501 -0.00000000000E+00 -0.00000000000E+00 -0.74429530447E+02  0.74429530491E+02  0.25500000000E-02 0. -1.
    5000001    1    1    2    0    0  0.26011517842E+03  0.32964196199E+03  0.13155531644E+04  0.13952078188E+04  0.19900000000E+03 0.  0.
   -5000001    1    1    2    0    0 -0.26011517842E+03 -0.32964196199E+03  0.15254482313E+04  0.15946526379E+04  0.19900000000E+03 0.  0.
<mgrwt>
<rscale>  0 0.93165263E+03</rscale>
<asrwt>0</asrwt>
<pdfrwt beam="1">  1        2 0.41649022E+00 0.93165263E+03</pdfrwt>
<pdfrwt beam="2">  1       -2 0.10632788E-01 0.93165263E+03</pdfrwt>
<totfact> 0.16755835E+02</totfact>
</mgrwt>
</event>
<event>
 4    1  0.4915183E-005  0.5561714E+03  0.7818608E-02  0.1000076E+00
         -2   -1    0    0    0  501 -0.00000000000E+00  0.00000000000E+00  0.45156148289E+02  0.45156148361E+02  0.25500000000E-02 0. -1.
          2   -1    0    0  501    0  0.00000000000E+00 -0.00000000000E+00 -0.17125386563E+04  0.17125386563E+04  0.25500000000E-02 0.  1.
    5000001    1    1    2    0    0 -0.92346579750E+02 -0.13010124283E+03 -0.11838546946E+04  0.12110190593E+04  0.19900000000E+03 0.  0.
   -5000001    1    1    2    0    0  0.92346579750E+02  0.13010124283E+03 -0.48352781345E+03  0.54667574535E+03  0.19900000000E+03 0.  0.
<mgrwt>
<rscale>  0 0.55617137E+03</rscale>
<asrwt>0</asrwt>
<pdfrwt beam="1">  1        2 0.24464834E+00 0.55617137E+03</pdfrwt>
<pdfrwt beam="2">  1       -2 0.64508794E-02 0.55617137E+03</pdfrwt>
<totfact> 0.15970556E+03</totfact>
</mgrwt>
</event>
<event>
 4    1  0.4915183E-005  0.7014307E+03  0.7818608E-02  0.9714789E-01
          2   -1    0    0  501    0  0.00000000000E+00  0.00000000000E+00  0.35316468366E+04  0.35316468366E+04  0.25500000000E-02 0.  1.
         -2   -1    0    0    0  501 -0.00000000000E+00 -0.00000000000E+00 -0.34828302344E+02  0.34828302437E+02  0.25500000000E-02 0. -1.
    5000001    1    1    2    0    0  0.25898503258E+03  0.12776931386E+03  0.17411839798E+04  0.17761533989E+04  0.19900000000E+03 0.  0.
   -5000001    1    1    2    0    0 -0.25898503258E+03 -0.12776931386E+03  0.17556345545E+04  0.17903217402E+04  0.19900000000E+03 0.  0.
<mgrwt>
<rscale>  0 0.70143072E+03</rscale>
<asrwt>0</asrwt>
<pdfrwt beam="1">  1        2 0.50452071E+00 0.70143072E+03</pdfrwt>
<pdfrwt beam="2">  1       -2 0.49754744E-02 0.70143072E+03</pdfrwt>
<totfact> 0.25663783E+02</totfact>
</mgrwt>
</event>
<event>
 4    1  0.4915183E-005  0.6215098E+03  0.7818608E-02  0.9861758E-01
          2   -1    0    0  501    0  0.00000000000E+00  0.00000000000E+00  0.15520508453E+04  0.15520508453E+04  0.25500000000E-02 0.  1.
         -2   -1    0    0    0  501 -0.00000000000E+00 -0.00000000000E+00 -0.62220002409E+02  0.62220002461E+02  0.25500000000E-02 0. -1.
    5000001    1    1    2    0    0 -0.11535524670E+03 -0.16426641409E+03  0.10803374261E+04  0.11167006054E+04  0.19900000000E+03 0.  0.
   -5000001    1    1    2    0    0  0.11535524670E+03  0.16426641409E+03  0.40949341674E+03  0.49757024237E+03  0.19900000000E+03 0.  0.
<mgrwt>
<rscale>  0 0.62150980E+03</rscale>
<asrwt>0</asrwt>
<pdfrwt beam="1">  1        2 0.22172153E+00 0.62150980E+03</pdfrwt>
<pdfrwt beam="2">  1       -2 0.88885725E-02 0.62150980E+03</pdfrwt>
<totfact> 0.11569413E+03</totfact>
</mgrwt>
</event>
<event>
 4    1  0.4915183E-005  0.7139303E+03  0.7818608E-02  0.9693702E-01
          2   -1    0    0  501    0  0.00000000000E+00  0.00000000000E+00  0.26821635827E+03  0.26821635828E+03  0.25500000000E-02 0.  1.
         -2   -1    0    0    0  501 -0.00000000000E+00 -0.00000000000E+00 -0.47507957305E+03  0.47507957306E+03  0.25500000000E-02 0. -1.
    5000001    1    1    2    0    0 -0.87857290533E+02  0.24469052727E+03  0.44653709634E+02  0.33043503358E+03  0.19900000000E+03 0.  0.
   -5000001    1    1    2    0    0  0.87857290533E+02 -0.24469052727E+03 -0.25151692441E+03  0.41286089776E+03  0.19900000000E+03 0.  0.
<mgrwt>
<rscale>  0 0.71393029E+03</rscale>
<asrwt>0</asrwt>
<pdfrwt beam="1">  1        2 0.38316622E-01 0.71393029E+03</pdfrwt>
<pdfrwt beam="2">  1       -2 0.67868511E-01 0.71393029E+03</pdfrwt>
<totfact> 0.27115397E+02</totfact>
</mgrwt>
</event>
<event>
 4    1  0.4915183E-005  0.5146552E+03  0.7818608E-02  0.1010023E+00
         -2   -1    0    0    0  501 -0.00000000000E+00  0.00000000000E+00  0.10869153967E+03  0.10869153970E+03  0.25500000000E-02 0. -1.
          2   -1    0    0  501    0  0.00000000000E+00 -0.00000000000E+00 -0.60922389591E+03  0.60922389591E+03  0.25500000000E-02 0.  1.
    5000001    1    1    2    0    0  0.11794314276E+03 -0.10763620665E+03 -0.20357520570E+03  0.32640466033E+03  0.19900000000E+03 0.  0.
   -5000001    1    1    2    0    0 -0.11794314276E+03  0.10763620665E+03 -0.29695715054E+03  0.39151077529E+03  0.19900000000E+03 0.  0.
<mgrwt>
<rscale>  0 0.51465516E+03</rscale>
<asrwt>0</asrwt>
<pdfrwt beam="1">  1        2 0.87031983E-01 0.51465516E+03</pdfrwt>
<pdfrwt beam="2">  1       -2 0.15527363E-01 0.51465516E+03</pdfrwt>
<totfact> 0.17561082E+03</totfact>
</mgrwt>
</event>
<event>
 4    1  0.4915183E-005  0.5042828E+03  0.7818608E-02  0.1012667E+00
          2   -1    0    0  501    0  0.00000000000E+00  0.00000000000E+00  0.36798913365E+04  0.36798913365E+04  0.25500000000E-02 0.  1.
         -2   -1    0    0    0  501 -0.00000000000E+00 -0.00000000000E+00 -0.17276406143E+02  0.17276406332E+02  0.25500000000E-02 0. -1.
    5000001    1    1    2    0    0 -0.13870051953E+03  0.62428426851E+02  0.20436886617E+04  0.20589802060E+04  0.19900000000E+03 0.  0.
   -5000001    1    1    2    0    0  0.13870051953E+03 -0.62428426851E+02  0.16189262686E+04  0.16381875368E+04  0.19900000000E+03 0.  0.
<mgrwt>
<rscale>  0 0.50428285E+03</rscale>
<asrwt>0</asrwt>
<pdfrwt beam="1">  1        2 0.52569899E+00 0.50428285E+03</pdfrwt>
<pdfrwt beam="2">  1       -2 0.24680570E-02 0.50428285E+03</pdfrwt>
<totfact> 0.62438867E+02</totfact>
</mgrwt>
</event>
<event>
 4    1  0.4915183E-005  0.5280397E+03  0.7818608E-02  0.1006709E+00
          2   -1    0    0  501    0  0.00000000000E+00  0.00000000000E+00  0.16504874513E+04  0.16504874513E+04  0.25500000000E-02 0.  1.
         -2   -1    0    0    0  501 -0.00000000000E+00 -0.00000000000E+00 -0.42233881894E+02  0.42233881971E+02  0.25500000000E-02 0. -1.
    5000001    1    1    2    0    0  0.92215904467E+02 -0.13006161713E+03  0.58469180458E+03  0.63787561768E+03  0.19900000000E+03 0.  0.
   -5000001    1    1    2    0    0 -0.92215904467E+02  0.13006161713E+03  0.10235617648E+04  0.10548457156E+04  0.19900000000E+03 0.  0.
<mgrwt>
<rscale>  0 0.52803974E+03</rscale>
<asrwt>0</asrwt>
<pdfrwt beam="1">  1        2 0.23578398E+00 0.52803974E+03</pdfrwt>
<pdfrwt beam="2">  1       -2 0.60334103E-02 0.52803974E+03</pdfrwt>
<totfact> 0.19087354E+03</totfact>
</mgrwt>
</event>
<event>
 4    1  0.4915183E-005  0.7201437E+03  0.7818608E-02  0.9683391E-01
         -2   -1    0    0    0  501 -0.00000000000E+00  0.00000000000E+00  0.84913288948E+03  0.84913288948E+03  0.25500000000E-02 0. -1.
          2   -1    0    0  501    0  0.00000000000E+00 -0.00000000000E+00 -0.15268721919E+03  0.15268721921E+03  0.25500000000E-02 0.  1.
    5000001    1    1    2    0    0  0.27653924948E+03 -0.34677486078E+02  0.50297263892E+03  0.60848907964E+03  0.19900000000E+03 0.  0.
   -5000001    1    1    2    0    0 -0.27653924948E+03  0.34677486078E+02  0.19347303138E+03  0.39333102905E+03  0.19900000000E+03 0.  0.
<mgrwt>
<rscale>  0 0.72014371E+03</rscale>
<asrwt>0</asrwt>
<pdfrwt beam="1">  1        2 0.21812461E-01 0.72014371E+03</pdfrwt>
<pdfrwt beam="2">  1       -2 0.12130469E+00 0.72014371E+03</pdfrwt>
<totfact> 0.13405217E+02</totfact>
</mgrwt>
</event>
<event>
 4    1  0.4915183E-005  0.1090707E+04  0.7818608E-02  0.9214297E-01
         -2   -1    0    0    0  501 -0.00000000000E+00  0.00000000000E+00  0.68628594252E+02  0.68628594300E+02  0.25500000000E-02 0. -1.
          2   -1    0    0  501    0  0.00000000000E+00 -0.00000000000E+00 -0.43336207806E+04  0.43336207806E+04  0.25500000000E-02 0.  1.
    5000001    1    1    2    0    0 -0.41064905034E+03  0.29593310550E+03 -0.22939548058E+04  0.23575492988E+04  0.19900000000E+03 0.  0.
   -5000001    1    1    2    0    0  0.41064905034E+03 -0.29593310550E+03 -0.19710373806E+04  0.20447000761E+04  0.19900000000E+03 0.  0.
<mgrwt>
<rscale>  0 0.10907067E+04</rscale>
<asrwt>0</asrwt>
<pdfrwt beam="1">  1        2 0.61908851E+00 0.10907067E+04</pdfrwt>
<pdfrwt beam="2">  1       -2 0.98040877E-02 0.10907067E+04</pdfrwt>
<totfact> 0.24302347E+01</totfact>
</mgrwt>
</event>
<event>
 4    1  0.4915183E-005  0.1241826E+04  0.7818608E-02  0.9077014E-01
         -2   -1    0    0    0  501 -0.00000000000E+00  0.00000000000E+00  0.13400123261E+03  0.13400123263E+03  0.25500000000E-02 0. -1.
          2   -1    0    0  501    0  0.00000000000E+00 -0.00000000000E+00 -0.28770857656E+04  0.28770857656E+04  0.25500000000E-02 0.  1.
    5000001    1    1    2    0    0 -0.43168873260E+03  0.39945504592E+03 -0.13801298296E+04  0.15133667243E+04  0.19900000000E+03 0.  0.
   -5000001    1    1    2    0    0  0.43168873260E+03 -0.39945504592E+03 -0.13629547033E+04  0.14977202739E+04  0.19900000000E+03 0.  0.
<mgrwt>
<rscale>  0 0.12418261E+04</rscale>
<asrwt>0</asrwt>
<pdfrwt beam="1">  1        2 0.41101221E+00 0.12418261E+04</pdfrwt>
<pdfrwt beam="2">  1       -2 0.19143035E-01 0.12418261E+04</pdfrwt>
<totfact> 0.63254689E+01</totfact>
</mgrwt>
</event>
<event>
 4    1  0.4915183E-005  0.7632348E+03  0.7818608E-02  0.9614813E-01
         -2   -1    0    0    0  501 -0.00000000000E+00  0.00000000000E+00  0.11632720192E+03  0.11632720194E+03  0.25500000000E-02 0. -1.
          2   -1    0    0  501    0  0.00000000000E+00 -0.00000000000E+00 -0.12519157344E+04  0.12519157344E+04  0.25500000000E-02 0.  1.
    5000001    1    1    2    0    0  0.60514591341E+02 -0.16739579602E+03 -0.78986414327E+02  0.27842992285E+03  0.19900000000E+03 0.  0.
   -5000001    1    1    2    0    0 -0.60514591341E+02  0.16739579602E+03 -0.10566021182E+04  0.10898130135E+04  0.19900000000E+03 0.  0.
<mgrwt>
<rscale>  0 0.76323484E+03</rscale>
<asrwt>0</asrwt>
<pdfrwt beam="1">  1        2 0.17884510E+00 0.76323484E+03</pdfrwt>
<pdfrwt beam="2">  1       -2 0.16618172E-01 0.76323484E+03</pdfrwt>
<totfact> 0.59082192E+02</totfact>
</mgrwt>
</event>
<event>
 4    1  0.4915183E-005  0.5384296E+03  0.7818608E-02  0.1004208E+00
          2   -1    0    0  501    0  0.00000000000E+00  0.00000000000E+00  0.16491455671E+04  0.16491455671E+04  0.25500000000E-02 0.  1.
         -2   -1    0    0    0  501 -0.00000000000E+00 -0.00000000000E+00 -0.43947973752E+02  0.43947973826E+02  0.25500000000E-02 0. -1.
    5000001    1    1    2    0    0 -0.98317433337E+02  0.15229391482E+03  0.79007910438E+03  0.83467703057E+03  0.19900000000E+03 0.  0.
   -5000001    1    1    2    0    0  0.98317433337E+02 -0.15229391482E+03  0.81511848896E+03  0.85841651035E+03  0.19900000000E+03 0.  0.
<mgrwt>
<rscale>  0 0.53842959E+03</rscale>
<asrwt>0</asrwt>
<pdfrwt beam="1">  1        2 0.23559222E+00 0.53842959E+03</pdfrwt>
<pdfrwt beam="2">  1       -2 0.62782820E-02 0.53842959E+03</pdfrwt>
<totfact> 0.17958034E+03</totfact>
</mgrwt>
</event>
<event>
 4    1  0.4915183E-005  0.9239277E+03  0.7818608E-02  0.9396155E-01
         -2   -1    0    0    0  501 -0.00000000000E+00  0.00000000000E+00  0.19866139301E+03  0.19866139303E+03  0.25500000000E-02 0. -1.
          2   -1    0    0  501    0  0.00000000000E+00 -0.00000000000E+00 -0.10742428358E+04  0.10742428358E+04  0.25500000000E-02 0.  1.
    5000001    1    1    2    0    0 -0.27289757423E+03  0.20029507258E+03 -0.10252742617E+03  0.40583749856E+03  0.19900000000E+03 0.  0.
   -5000001    1    1    2    0    0  0.27289757423E+03 -0.20029507258E+03 -0.77305401661E+03  0.86706673026E+03  0.19900000000E+03 0.  0.
<mgrwt>
<rscale>  0 0.92392766E+03</rscale>
<asrwt>0</asrwt>
<pdfrwt beam="1">  1        2 0.15346326E+00 0.92392766E+03</pdfrwt>
<pdfrwt beam="2">  1       -2 0.28380200E-01 0.92392766E+03</pdfrwt>
<totfact> 0.28731918E+02</totfact>
</mgrwt>
</event>
<event>
 4    1  0.4915183E-005  0.4512743E+03  0.7818608E-02  0.1027343E+00
         -2   -1    0    0    0  501 -0.00000000000E+00  0.00000000000E+00  0.61114039059E+02  0.61114039113E+02  0.25500000000E-02 0.  1.
          2   -1    0    0  501    0  0.00000000000E+00 -0.00000000000E+00 -0.83306771823E+03  0.83306771824E+03  0.25500000000E-02 0. -1.
    5000001    1    1    2    0    0 -0.76684212799E+02  0.72433750591E+02 -0.41285585795E+03  0.47029573266E+03  0.19900000000E+03 0.  0.
   -5000001    1    1    2    0    0  0.76684212799E+02 -0.72433750591E+02 -0.35909782122E+03  0.42388602469E+03  0.19900000000E+03 0.  0.
<mgrwt>
<rscale>  0 0.45127434E+03</rscale>
<asrwt>0</asrwt>
<pdfrwt beam="1">  1        2 0.11900967E+00 0.45127434E+03</pdfrwt>
<pdfrwt beam="2">  1       -2 0.87305775E-02 0.45127434E+03</pdfrwt>
<totfact> 0.30688003E+03</totfact>
</mgrwt>
</event>
<event>
 4    1  0.4915183E-005  0.6881425E+03  0.7818608E-02  0.9737728E-01
          2   -1    0    0  501    0  0.00000000000E+00  0.00000000000E+00  0.72203592276E+03  0.72203592276E+03  0.25500000000E-02 0.  1.
         -2   -1    0    0    0  501 -0.00000000000E+00 -0.00000000000E+00 -0.16396002748E+03  0.16396002750E+03  0.25500000000E-02 0. -1.
    5000001    1    1    2    0    0  0.23596556899E+03  0.13932106533E+03  0.35729025182E+03  0.49228795744E+03  0.19900000000E+03 0.  0.
   -5000001    1    1    2    0    0 -0.23596556899E+03 -0.13932106533E+03  0.20078564345E+03  0.39370799282E+03  0.19900000000E+03 0.  0.
<mgrwt>
<rscale>  0 0.68814251E+03</rscale>
<asrwt>0</asrwt>
<pdfrwt beam="1">  1        2 0.10314799E+00 0.68814251E+03</pdfrwt>
<pdfrwt beam="2">  1       -2 0.23422860E-01 0.68814251E+03</pdfrwt>
<totfact> 0.70049223E+02</totfact>
</mgrwt>
</event>
<event>
 4    1  0.4915183E-005  0.4571979E+03  0.7818608E-02  0.1025597E+00
          2   -1    0    0  501    0  0.00000000000E+00  0.00000000000E+00  0.19927003734E+04  0.19927003734E+04  0.25500000000E-02 0.  1.
         -2   -1    0    0    0  501 -0.00000000000E+00 -0.00000000000E+00 -0.26224449536E+02  0.26224449660E+02  0.25500000000E-02 0. -1.
    5000001    1    1    2    0    0 -0.15386998537E+01 -0.86148396376E+02  0.66380999880E+03  0.69833274899E+03  0.19900000000E+03 0.  0.
   -5000001    1    1    2    0    0  0.15386998537E+01  0.86148396376E+02  0.13026659250E+04  0.13205920741E+04  0.19900000000E+03 0.  0.
<mgrwt>
<rscale>  0 0.45719786E+03</rscale>
<asrwt>0</asrwt>
<pdfrwt beam="1">  1        2 0.28467165E+00 0.45719786E+03</pdfrwt>
<pdfrwt beam="2">  1       -2 0.37463478E-02 0.45719786E+03</pdfrwt>
<totfact> 0.26855225E+03</totfact>
</mgrwt>
</event>
<event>
 4    1  0.4915183E-005  0.4684617E+03  0.7818608E-02  0.1022355E+00
         -2   -1    0    0    0  501 -0.00000000000E+00  0.00000000000E+00  0.11198390299E+03  0.11198390302E+03  0.25500000000E-02 0. -1.
          2   -1    0    0  501    0  0.00000000000E+00 -0.00000000000E+00 -0.48992827363E+03  0.48992827364E+03  0.25500000000E-02 0.  1.
    5000001    1    1    2    0    0 -0.51407908522E+02 -0.10586161617E+03 -0.23728098629E+03  0.33128948262E+03  0.19900000000E+03 0.  0.
   -5000001    1    1    2    0    0  0.51407908522E+02  0.10586161617E+03 -0.14066338434E+03  0.27062269404E+03  0.19900000000E+03 0.  0.
<mgrwt>
<rscale>  0 0.46846165E+03</rscale>
<asrwt>0</asrwt>
<pdfrwt beam="1">  1        2 0.69989752E-01 0.46846165E+03</pdfrwt>
<pdfrwt beam="2">  1       -2 0.15997701E-01 0.46846165E+03</pdfrwt>
<totfact> 0.21436775E+03</totfact>
</mgrwt>
</event>
<event>
 4    1  0.4915183E-005  0.8093054E+03  0.7818608E-02  0.9546645E-01
         -2   -1    0    0    0  501 -0.00000000000E+00  0.00000000000E+00  0.13034678830E+03  0.13034678832E+03  0.25500000000E-02 0. -1.
          2   -1    0    0  501    0  0.00000000000E+00 -0.00000000000E+00 -0.12562165556E+04  0.12562165556E+04  0.25500000000E-02 0.  1.
    5000001    1    1    2    0    0  0.78271851512E+02  0.34352421848E+03 -0.56760243206E+03  0.69707165507E+03  0.19900000000E+03 0.  0.
   -5000001    1    1    2    0    0 -0.78271851512E+02 -0.34352421848E+03 -0.55826733527E+03  0.68949168889E+03  0.19900000000E+03 0.  0.
<mgrwt>
<rscale>  0 0.80930537E+03</rscale>
<asrwt>0</asrwt>
<pdfrwt beam="1">  1        2 0.17945950E+00 0.80930537E+03</pdfrwt>
<pdfrwt beam="2">  1       -2 0.18620970E-01 0.80930537E+03</pdfrwt>
<totfact> 0.48202374E+02</totfact>
</mgrwt>
</event>
<event>
 4    1  0.4915183E-005  0.5183104E+03  0.7818608E-02  0.1009107E+00
          2   -1    0    0  501    0  0.00000000000E+00  0.00000000000E+00  0.29757879471E+03  0.29757879472E+03  0.25500000000E-02 0.  1.
         -2   -1    0    0    0  501 -0.00000000000E+00 -0.00000000000E+00 -0.22569287880E+03  0.22569287882E+03  0.25500000000E-02 0. -1.
    5000001    1    1    2    0    0  0.10721460609E+03  0.72464361643E+02 -0.69044570181E+02  0.24721288020E+03  0.19900000000E+03 0.  0.
   -5000001    1    1    2    0    0 -0.10721460609E+03 -0.72464361643E+02  0.14093048609E+03  0.27605879333E+03  0.19900000000E+03 0.  0.
<mgrwt>
<rscale>  0 0.51831039E+03</rscale>
<asrwt>0</asrwt>
<pdfrwt beam="1">  1        2 0.42511257E-01 0.51831039E+03</pdfrwt>
<pdfrwt beam="2">  1       -2 0.32241840E-01 0.51831039E+03</pdfrwt>
<totfact> 0.10783068E+03</totfact>
</mgrwt>
</event>
<event>
 4    1  0.4915183E-005  0.5312968E+03  0.7818608E-02  0.1005918E+00
         -2   -1    0    0    0  501 -0.00000000000E+00  0.00000000000E+00  0.35842881920E+03  0.35842881921E+03  0.25500000000E-02 0. -1.
          2   -1    0    0  501    0  0.00000000000E+00 -0.00000000000E+00 -0.19688448658E+03  0.19688448660E+03  0.25500000000E-02 0.  1.
    5000001    1    1    2    0    0  0.19058762303E+02 -0.17493717189E+03  0.82183586838E+02  0.27806724452E+03  0.19900000000E+03 0.  0.
   -5000001    1    1    2    0    0 -0.19058762303E+02  0.17493717189E+03  0.79360745782E+02  0.27724606129E+03  0.19900000000E+03 0.  0.
<mgrwt>
<rscale>  0 0.53129681E+03</rscale>
<asrwt>0</asrwt>
<pdfrwt beam="1">  1        2 0.28126355E-01 0.53129681E+03</pdfrwt>
<pdfrwt beam="2">  1       -2 0.51204117E-01 0.53129681E+03</pdfrwt>
<totfact> 0.69415785E+02</totfact>
</mgrwt>
</event>
<event>
 4    1  0.4915183E-005  0.9203159E+03  0.7818608E-02  0.9400536E-01
          2   -1    0    0  501    0  0.00000000000E+00  0.00000000000E+00  0.34029620895E+04  0.34029620895E+04  0.25500000000E-02 0.  1.
         -2   -1    0    0    0  501 -0.00000000000E+00 -0.00000000000E+00 -0.62223826960E+02  0.62223827013E+02  0.25500000000E-02 0. -1.
    5000001    1    1    2    0    0 -0.10514170231E+03 -0.39796143269E+03  0.18666030547E+04  0.19217793951E+04  0.19900000000E+03 0.  0.
   -5000001    1    1    2    0    0  0.10514170231E+03  0.39796143269E+03  0.14741352078E+04  0.15434065214E+04  0.19900000000E+03 0.  0.
<mgrwt>
<rscale>  0 0.92031587E+03</rscale>
<asrwt>0</asrwt>
<pdfrwt beam="1">  1        2 0.48613739E+00 0.92031587E+03</pdfrwt>
<pdfrwt beam="2">  1       -2 0.88891190E-02 0.92031587E+03</pdfrwt>
<totfact> 0.11907871E+02</totfact>
</mgrwt>
</event>
<event>
 4    1  0.4915183E-005  0.4869592E+03  0.7818608E-02  0.1017240E+00
          2   -1    0    0  501    0  0.00000000000E+00  0.00000000000E+00  0.20692570590E+03  0.20692570591E+03  0.25500000000E-02 0.  1.
         -2   -1    0    0    0  501 -0.00000000000E+00 -0.00000000000E+00 -0.28649085536E+03  0.28649085537E+03  0.25500000000E-02 0. -1.
    5000001    1    1    2    0    0  0.68357633201E+02 -0.11976528607E+03 -0.65908838979E+02  0.25092123230E+03  0.19900000000E+03 0.  0.
   -5000001    1    1    2    0    0 -0.68357633201E+02  0.11976528607E+03 -0.13656310484E+02  0.24249532899E+03  0.19900000000E+03 0.  0.
<mgrwt>
<rscale>  0 0.48695923E+03</rscale>
<asrwt>0</asrwt>
<pdfrwt beam="1">  1        2 0.29560815E-01 0.48695923E+03</pdfrwt>
<pdfrwt beam="2">  1       -2 0.40927265E-01 0.48695923E+03</pdfrwt>
<totfact> 0.10243091E+03</totfact>
</mgrwt>
</event>
<event>
 4    1  0.4915183E-005  0.5974450E+03  0.7818608E-02  0.9910721E-01
          2   -1    0    0  501    0  0.00000000000E+00  0.00000000000E+00  0.13905279241E+04  0.13905279241E+04  0.25500000000E-02 0.  1.
         -2   -1    0    0    0  501 -0.00000000000E+00 -0.00000000000E+00 -0.64173553339E+02  0.64173553390E+02  0.25500000000E-02 0. -1.
    5000001    1    1    2    0    0 -0.19546640414E+02 -0.19018393034E+03  0.38468370148E+03  0.47342850432E+03  0.19900000000E+03 0.  0.
   -5000001    1    1    2    0    0  0.19546640414E+02  0.19018393034E+03  0.94167066927E+03  0.98127297317E+03  0.19900000000E+03 0.  0.
<mgrwt>
<rscale>  0 0.59744495E+03</rscale>
<asrwt>0</asrwt>
<pdfrwt beam="1">  1        2 0.19864685E+00 0.59744495E+03</pdfrwt>
<pdfrwt beam="2">  1       -2 0.91676502E-02 0.59744495E+03</pdfrwt>
<totfact> 0.13390383E+03</totfact>
</mgrwt>
</event>
<event>
 4    1  0.4915183E-005  0.6552441E+03  0.7818608E-02  0.9796988E-01
          2   -1    0    0  501    0  0.00000000000E+00  0.00000000000E+00  0.21522200663E+04  0.21522200663E+04  0.25500000000E-02 0.  1.
         -2   -1    0    0    0  501 -0.00000000000E+00 -0.00000000000E+00 -0.49872319642E+02  0.49872319708E+02  0.25500000000E-02 0. -1.
    5000001    1    1    2    0    0  0.19059603601E+03 -0.15373971483E+03  0.13474602054E+04  0.13839121193E+04  0.19900000000E+03 0.  0.
   -5000001    1    1    2    0    0 -0.19059603601E+03  0.15373971483E+03  0.75488754125E+03  0.81818026669E+03  0.19900000000E+03 0.  0.
<mgrwt>
<rscale>  0 0.65524410E+03</rscale>
<asrwt>0</asrwt>
<pdfrwt beam="1">  1        2 0.30745997E+00 0.65524410E+03</pdfrwt>
<pdfrwt beam="2">  1       -2 0.71246181E-02 0.65524410E+03</pdfrwt>
<totfact> 0.81578755E+02</totfact>
</mgrwt>
</event>
<event>
 4    1  0.4915183E-005  0.5583952E+03  0.7818608E-02  0.9995692E-01
         -2   -1    0    0    0  501 -0.00000000000E+00  0.00000000000E+00  0.56828663887E+02  0.56828663944E+02  0.25500000000E-02 0. -1.
          2   -1    0    0  501    0  0.00000000000E+00 -0.00000000000E+00 -0.13716898460E+04  0.13716898460E+04  0.25500000000E-02 0.  1.
    5000001    1    1    2    0    0 -0.13287718339E+01 -0.19482517093E+03 -0.60679981963E+03  0.66765682350E+03  0.19900000000E+03 0.  0.
   -5000001    1    1    2    0    0  0.13287718339E+01  0.19482517093E+03 -0.70806136250E+03  0.76086168647E+03  0.19900000000E+03 0.  0.
<mgrwt>
<rscale>  0 0.55839521E+03</rscale>
<asrwt>0</asrwt>
<pdfrwt beam="1">  1        2 0.19595567E+00 0.55839521E+03</pdfrwt>
<pdfrwt beam="2">  1       -2 0.81183814E-02 0.55839521E+03</pdfrwt>
<totfact> 0.16666177E+03</totfact>
</mgrwt>
</event>
<event>
 4    1  0.4915183E-005  0.8091144E+03  0.7818608E-02  0.9546917E-01
         -2   -1    0    0    0  501 -0.00000000000E+00  0.00000000000E+00  0.44210974477E+03  0.44210974477E+03  0.25500000000E-02 0. -1.
          2   -1    0    0  501    0  0.00000000000E+00 -0.00000000000E+00 -0.37019438032E+03  0.37019438033E+03  0.25500000000E-02 0.  1.
    5000001    1    1    2    0    0  0.29510235819E+02 -0.23001823978E+03  0.30211845221E+03  0.42971595714E+03  0.19900000000E+03 0.  0.
   -5000001    1    1    2    0    0 -0.29510235819E+02  0.23001823978E+03 -0.23020308776E+03  0.38258816796E+03  0.19900000000E+03 0.  0.
<mgrwt>
<rscale>  0 0.80911444E+03</rscale>
<asrwt>0</asrwt>
<pdfrwt beam="1">  1        2 0.52884911E-01 0.80911444E+03</pdfrwt>
<pdfrwt beam="2">  1       -2 0.63158535E-01 0.80911444E+03</pdfrwt>
<totfact> 0.22053239E+02</totfact>
</mgrwt>
</event>
<event>
 4    1  0.4915183E-005  0.5094300E+03  0.7818608E-02  0.1011346E+00
         -2   -1    0    0    0  501 -0.00000000000E+00  0.00000000000E+00  0.71605764184E+02  0.71605764229E+02  0.25500000000E-02 0. -1.
          2   -1    0    0  501    0  0.00000000000E+00 -0.00000000000E+00 -0.90606872529E+03  0.90606872530E+03  0.25500000000E-02 0.  1.
    5000001    1    1    2    0    0 -0.97556091000E+01 -0.15726775062E+03 -0.37650081081E+03  0.45407287723E+03  0.19900000000E+03 0.  0.
   -5000001    1    1    2    0    0  0.97556091000E+01  0.15726775062E+03 -0.45796215030E+03  0.52360161230E+03  0.19900000000E+03 0.  0.
<mgrwt>
<rscale>  0 0.50943005E+03</rscale>
<asrwt>0</asrwt>
<pdfrwt beam="1">  1        2 0.12943838E+00 0.50943005E+03</pdfrwt>
<pdfrwt beam="2">  1       -2 0.10229395E-01 0.50943005E+03</pdfrwt>
<totfact> 0.21329873E+03</totfact>
</mgrwt>
</event>
<event>
 4    1  0.4915183E-005  0.5606030E+03  0.7818608E-02  0.9990691E-01
          2   -1    0    0  501    0  0.00000000000E+00  0.00000000000E+00  0.61911626751E+02  0.61911626804E+02  0.25500000000E-02 0.  1.
         -2   -1    0    0    0  501 -0.00000000000E+00 -0.00000000000E+00 -0.12690496920E+04  0.12690496920E+04  0.25500000000E-02 0. -1.
    5000001    1    1    2    0    0  0.75876249081E+02  0.16057495509E+03 -0.39897193741E+03  0.47991783486E+03  0.19900000000E+03 0.  0.
   -5000001    1    1    2    0    0 -0.75876249081E+02 -0.16057495509E+03 -0.80816612781E+03  0.85104348392E+03  0.19900000000E+03 0.  0.
<mgrwt>
<rscale>  0 0.56060300E+03</rscale>
<asrwt>0</asrwt>
<pdfrwt beam="1">  1        2 0.88445189E-02 0.56060300E+03</pdfrwt>
<pdfrwt beam="2">  1       -2 0.18129280E+00 0.56060300E+03</pdfrwt>
<totfact> 0.14131892E+02</totfact>
</mgrwt>
</event>
<event>
 4    1  0.4915183E-005  0.5964562E+03  0.7818608E-02  0.9912786E-01
         -2   -1    0    0    0  501 -0.00000000000E+00  0.00000000000E+00  0.10868793572E+04  0.10868793572E+04  0.25500000000E-02 0. -1.
          2   -1    0    0  501    0  0.00000000000E+00 -0.00000000000E+00 -0.81830598432E+02  0.81830598471E+02  0.25500000000E-02 0.  1.
    5000001    1    1    2    0    0 -0.20833007947E+03 -0.73109411514E+02  0.45482620289E+03  0.54333625215E+03  0.19900000000E+03 0.  0.
   -5000001    1    1    2    0    0  0.20833007947E+03  0.73109411514E+02  0.55022255586E+03  0.62537370351E+03  0.19900000000E+03 0.  0.
<mgrwt>
<rscale>  0 0.59645616E+03</rscale>
<asrwt>0</asrwt>
<pdfrwt beam="1">  1        2 0.11690086E-01 0.59645616E+03</pdfrwt>
<pdfrwt beam="2">  1       -2 0.15526848E+00 0.59645616E+03</pdfrwt>
<totfact> 0.15164763E+02</totfact>
</mgrwt>
</event>
<event>
 4    1  0.4915183E-005  0.6207741E+03  0.7818608E-02  0.9863220E-01
         -2   -1    0    0    0  501 -0.00000000000E+00  0.00000000000E+00  0.29699522815E+02  0.29699522925E+02  0.25500000000E-02 0. -1.
          2   -1    0    0  501    0  0.00000000000E+00 -0.00000000000E+00 -0.32438272263E+04  0.32438272263E+04  0.25500000000E-02 0.  1.
    5000001    1    1    2    0    0  0.14670879167E+03 -0.14497126147E+03 -0.22354273522E+04  0.22537250461E+04  0.19900000000E+03 0.  0.
   -5000001    1    1    2    0    0 -0.14670879167E+03  0.14497126147E+03 -0.97870035130E+03  0.10198017032E+04  0.19900000000E+03 0.  0.
<mgrwt>
<rscale>  0 0.62077410E+03</rscale>
<asrwt>0</asrwt>
<pdfrwt beam="1">  1        2 0.46340366E+00 0.62077410E+03</pdfrwt>
<pdfrwt beam="2">  1       -2 0.42427911E-02 0.62077410E+03</pdfrwt>
<totfact> 0.48765315E+02</totfact>
</mgrwt>
</event>
<event>
 4    1  0.4915183E-005  0.8911617E+03  0.7818608E-02  0.9436698E-01
         -2   -1    0    0    0  501 -0.00000000000E+00  0.00000000000E+00  0.11102152920E+03  0.11102152923E+03  0.25500000000E-02 0. -1.
          2   -1    0    0  501    0  0.00000000000E+00 -0.00000000000E+00 -0.17883222829E+04  0.17883222829E+04  0.25500000000E-02 0.  1.
    5000001    1    1    2    0    0 -0.34391194570E+03 -0.19585700379E+03 -0.73630560599E+03  0.85929176520E+03  0.19900000000E+03 0.  0.
   -5000001    1    1    2    0    0  0.34391194570E+03  0.19585700379E+03 -0.94099514768E+03  0.10400520469E+04  0.19900000000E+03 0.  0.
<mgrwt>
<rscale>  0 0.89116166E+03</rscale>
<asrwt>0</asrwt>
<pdfrwt beam="1">  1        2 0.25547459E+00 0.89116166E+03</pdfrwt>
<pdfrwt beam="2">  1       -2 0.15860220E-01 0.89116166E+03</pdfrwt>
<totfact> 0.33101887E+02</totfact>
</mgrwt>
</event>
<event>
 4    1  0.4915183E-005  0.5172020E+03  0.7818608E-02  0.1009384E+00
          2   -1    0    0  501    0  0.00000000000E+00  0.00000000000E+00  0.38062660058E+03  0.38062660059E+03  0.25500000000E-02 0. -1.
         -2   -1    0    0    0  501 -0.00000000000E+00 -0.00000000000E+00 -0.17569575088E+03  0.17569575090E+03  0.25500000000E-02 0.  1.
    5000001    1    1    2    0    0  0.14086323516E+03 -0.33217666463E+02  0.18802847091E+03  0.30967978665E+03  0.19900000000E+03 0.  0.
   -5000001    1    1    2    0    0 -0.14086323516E+03  0.33217666463E+02  0.16902378786E+02  0.24664256484E+03  0.19900000000E+03 0.  0.
<mgrwt>
<rscale>  0 0.51720200E+03</rscale>
<asrwt>0</asrwt>
<pdfrwt beam="1">  1        2 0.54375228E-01 0.51720200E+03</pdfrwt>
<pdfrwt beam="2">  1       -2 0.25099393E-01 0.51720200E+03</pdfrwt>
<totfact> 0.12995082E+03</totfact>
</mgrwt>
</event>
<event>
 4    1  0.4915183E-005  0.5662721E+03  0.7818608E-02  0.9977962E-01
          2   -1    0    0  501    0  0.00000000000E+00  0.00000000000E+00  0.14189438163E+03  0.14189438165E+03  0.25500000000E-02 0.  1.
         -2   -1    0    0    0  501 -0.00000000000E+00 -0.00000000000E+00 -0.56496969962E+03  0.56496969963E+03  0.25500000000E-02 0. -1.
    5000001    1    1    2    0    0 -0.84093638796E+02  0.17743236857E+03 -0.15555917055E+03  0.31992755593E+03  0.19900000000E+03 0.  0.
   -5000001    1    1    2    0    0  0.84093638796E+02 -0.17743236857E+03 -0.26751614745E+03  0.38693652535E+03  0.19900000000E+03 0.  0.
<mgrwt>
<rscale>  0 0.56627211E+03</rscale>
<asrwt>0</asrwt>
<pdfrwt beam="1">  1        2 0.20270626E-01 0.56627211E+03</pdfrwt>
<pdfrwt beam="2">  1       -2 0.80709956E-01 0.56627211E+03</pdfrwt>
<totfact> 0.38280513E+02</totfact>
</mgrwt>
</event>
<event>
 4    1  0.4915183E-005  0.4345676E+03  0.7818608E-02  0.1032427E+00
          2   -1    0    0  501    0  0.00000000000E+00  0.00000000000E+00  0.16597507146E+04  0.16597507146E+04  0.25500000000E-02 0.  1.
         -2   -1    0    0    0  501 -0.00000000000E+00 -0.00000000000E+00 -0.28445382597E+02  0.28445382712E+02  0.25500000000E-02 0. -1.
    5000001    1    1    2    0    0  0.75335362874E+02  0.38754011989E+02  0.73472680189E+03  0.76589931699E+03  0.19900000000E+03 0.  0.
   -5000001    1    1    2    0    0 -0.75335362874E+02 -0.38754011989E+02  0.89657853014E+03  0.92229678036E+03  0.19900000000E+03 0.  0.
<mgrwt>
<rscale>  0 0.43456757E+03</rscale>
<asrwt>0</asrwt>
<pdfrwt beam="1">  1        2 0.23710726E+00 0.43456757E+03</pdfrwt>
<pdfrwt beam="2">  1       -2 0.40636258E-02 0.43456757E+03</pdfrwt>
<totfact> 0.34815183E+03</totfact>
</mgrwt>
</event>
<event>
 4    1  0.4915183E-005  0.5992059E+03  0.7818608E-02  0.9907055E-01
          2   -1    0    0  501    0  0.00000000000E+00  0.00000000000E+00  0.14975353356E+04  0.14975353356E+04  0.25500000000E-02 0.  1.
         -2   -1    0    0    0  501 -0.00000000000E+00 -0.00000000000E+00 -0.59939774534E+02  0.59939774588E+02  0.25500000000E-02 0. -1.
    5000001    1    1    2    0    0 -0.49439779541E+02  0.21188118393E+03  0.85690000036E+03  0.90620998588E+03  0.19900000000E+03 0.  0.
   -5000001    1    1    2    0    0  0.49439779541E+02 -0.21188118393E+03  0.58069556069E+03  0.65126512429E+03  0.19900000000E+03 0.  0.
<mgrwt>
<rscale>  0 0.59920591E+03</rscale>
<asrwt>0</asrwt>
<pdfrwt beam="1">  1        2 0.21393364E+00 0.59920591E+03</pdfrwt>
<pdfrwt beam="2">  1       -2 0.85628242E-02 0.59920591E+03</pdfrwt>
<totfact> 0.13122502E+03</totfact>
</mgrwt>
</event>
<event>
 4    1  0.4915183E-005  0.5064296E+03  0.7818608E-02  0.1012114E+00
          2   -1    0    0  501    0  0.00000000000E+00  0.00000000000E+00  0.25044338509E+02  0.25044338639E+02  0.25500000000E-02 0.  1.
         -2   -1    0    0    0  501 -0.00000000000E+00 -0.00000000000E+00 -0.25601690068E+04  0.25601690068E+04  0.25500000000E-02 0. -1.
    5000001    1    1    2    0    0 -0.73431071052E+02 -0.12706651061E+03 -0.98895530603E+03  0.10193976739E+04  0.19900000000E+03 0.  0.
   -5000001    1    1    2    0    0  0.73431071052E+02  0.12706651061E+03 -0.15461693623E+04  0.15658156715E+04  0.19900000000E+03 0.  0.
<mgrwt>
<rscale>  0 0.50642962E+03</rscale>
<asrwt>0</asrwt>
<pdfrwt beam="1">  1        2 0.35777643E-02 0.50642962E+03</pdfrwt>
<pdfrwt beam="2">  1       -2 0.36573826E+00 0.50642962E+03</pdfrwt>
<totfact> 0.35187836E+01</totfact>
</mgrwt>
</event>
<event>
 4    1  0.4915183E-005  0.6957057E+03  0.7818608E-02  0.9724604E-01
          2   -1    0    0  501    0  0.00000000000E+00  0.00000000000E+00  0.20827818107E+04  0.20827818107E+04  0.25500000000E-02 0. -1.
         -2   -1    0    0    0  501 -0.00000000000E+00 -0.00000000000E+00 -0.58096145841E+02  0.58096145897E+02  0.25500000000E-02 0.  1.
    5000001    1    1    2    0    0  0.27776575827E+03  0.64070843117E+02  0.97571078248E+03  0.10357950668E+04  0.19900000000E+03 0.  0.
   -5000001    1    1    2    0    0 -0.27776575827E+03 -0.64070843117E+02  0.10489748823E+04  0.11050828897E+04  0.19900000000E+03 0.  0.
<mgrwt>
<rscale>  0 0.69570567E+03</rscale>
<asrwt>0</asrwt>
<pdfrwt beam="1">  1        2 0.29754026E+00 0.69570567E+03</pdfrwt>
<pdfrwt beam="2">  1       -2 0.82994493E-02 0.69570567E+03</pdfrwt>
<totfact> 0.69159948E+02</totfact>
</mgrwt>
</event>
<event>
 4    1  0.4915183E-005  0.7078030E+03  0.7818608E-02  0.9703980E-01
          2   -1    0    0  501    0  0.00000000000E+00  0.00000000000E+00  0.48125998977E+03  0.48125998978E+03  0.25500000000E-02 0.  1.
         -2   -1    0    0    0  501 -0.00000000000E+00 -0.00000000000E+00 -0.26024662161E+03  0.26024662162E+03  0.25500000000E-02 0. -1.
    5000001    1    1    2    0    0 -0.46234794039E+02 -0.27544290307E+03  0.20206888779E+03  0.39804432472E+03  0.19900000000E+03 0.  0.
   -5000001    1    1    2    0    0  0.46234794039E+02  0.27544290307E+03  0.18944480377E+02  0.34346228667E+03  0.19900000000E+03 0.  0.
<mgrwt>
<rscale>  0 0.70780304E+03</rscale>
<asrwt>0</asrwt>
<pdfrwt beam="1">  1        2 0.68751427E-01 0.70780304E+03</pdfrwt>
<pdfrwt beam="2">  1       -2 0.37178089E-01 0.70780304E+03</pdfrwt>
<totfact> 0.48125681E+02</totfact>
</mgrwt>
</event>
<event>
 4    1  0.4915183E-005  0.5976907E+03  0.7818608E-02  0.9910209E-01
         -2   -1    0    0    0  501 -0.00000000000E+00  0.00000000000E+00  0.13160937179E+03  0.13160937182E+03  0.25500000000E-02 0. -1.
          2   -1    0    0  501    0  0.00000000000E+00 -0.00000000000E+00 -0.67858798165E+03  0.67858798166E+03  0.25500000000E-02 0.  1.
    5000001    1    1    2    0    0 -0.73938379508E+02 -0.11117459694E+03 -0.51552497181E+03  0.56850125025E+03  0.19900000000E+03 0.  0.
   -5000001    1    1    2    0    0  0.73938379508E+02  0.11117459694E+03 -0.31453638047E+02  0.24169610323E+03  0.19900000000E+03 0.  0.
<mgrwt>
<rscale>  0 0.59769068E+03</rscale>
<asrwt>0</asrwt>
<pdfrwt beam="1">  1        2 0.96941138E-01 0.59769068E+03</pdfrwt>
<pdfrwt beam="2">  1       -2 0.18801339E-01 0.59769068E+03</pdfrwt>
<totfact> 0.11137869E+03</totfact>
</mgrwt>
</event>
<event>
 4    1  0.4915183E-005  0.5019663E+03  0.7818608E-02  0.1013267E+00
          2   -1    0    0  501    0  0.00000000000E+00  0.00000000000E+00  0.77297660936E+03  0.77297660937E+03  0.25500000000E-02 0.  1.
         -2   -1    0    0    0  501 -0.00000000000E+00 -0.00000000000E+00 -0.81493459300E+02  0.81493459339E+02  0.25500000000E-02 0. -1.
    5000001    1    1    2    0    0  0.13425293099E+03 -0.61664155236E+02  0.41308730258E+03  0.48173482029E+03  0.19900000000E+03 0.  0.
   -5000001    1    1    2    0    0 -0.13425293099E+03  0.61664155236E+02  0.27839584748E+03  0.37273524842E+03  0.19900000000E+03 0.  0.
<mgrwt>
<rscale>  0 0.50196629E+03</rscale>
<asrwt>0</asrwt>
<pdfrwt beam="1">  1        2 0.11042523E+00 0.50196629E+03</pdfrwt>
<pdfrwt beam="2">  1       -2 0.11641923E-01 0.50196629E+03</pdfrwt>
<totfact> 0.21221276E+03</totfact>
</mgrwt>
</event>
<event>
 4    1  0.4915183E-005  0.1385308E+04  0.7818608E-02  0.8964523E-01
         -2   -1    0    0    0  501 -0.00000000000E+00  0.00000000000E+00  0.55247483590E+03  0.55247483590E+03  0.25500000000E-02 0.  1.
          2   -1    0    0  501    0  0.00000000000E+00 -0.00000000000E+00 -0.86840067561E+03  0.86840067562E+03  0.25500000000E-02 0. -1.
    5000001    1    1    2    0    0  0.35759262582E+03  0.15260630365E+03  0.39343376550E+03  0.58783696531E+03  0.19900000000E+03 0.  0.
   -5000001    1    1    2    0    0 -0.35759262582E+03 -0.15260630365E+03 -0.70935960521E+03  0.83303854621E+03  0.19900000000E+03 0.  0.
<mgrwt>
<rscale>  0 0.13853079E+04</rscale>
<asrwt>0</asrwt>
<pdfrwt beam="1">  1        2 0.12405724E+00 0.13853079E+04</pdfrwt>
<pdfrwt beam="2">  1       -2 0.78924977E-01 0.13853079E+04</pdfrwt>
<totfact> 0.47458440E+01</totfact>
</mgrwt>
</event>
<event>
 4    1  0.4915183E-005  0.8687285E+03  0.7818608E-02  0.9465539E-01
         -2   -1    0    0    0  501 -0.00000000000E+00  0.00000000000E+00  0.22014229473E+03  0.22014229474E+03  0.25500000000E-02 0. -1.
          2   -1    0    0  501    0  0.00000000000E+00 -0.00000000000E+00 -0.85704698500E+03  0.85704698501E+03  0.25500000000E-02 0.  1.
    5000001    1    1    2    0    0  0.37197611675E+03 -0.60714419128E+00 -0.19016169309E+03  0.46274082333E+03  0.19900000000E+03 0.  0.
   -5000001    1    1    2    0    0 -0.37197611675E+03  0.60714419128E+00 -0.44674299718E+03  0.61444845641E+03  0.19900000000E+03 0.  0.
<mgrwt>
<rscale>  0 0.86872847E+03</rscale>
<asrwt>0</asrwt>
<pdfrwt beam="1">  1        2 0.12243528E+00 0.86872847E+03</pdfrwt>
<pdfrwt beam="2">  1       -2 0.31448900E-01 0.86872847E+03</pdfrwt>
<totfact> 0.32624158E+02</totfact>
</mgrwt>
</event>
<event>
 4    1  0.4915183E-005  0.5048866E+03  0.7818608E-02  0.1012511E+00
         -2   -1    0    0    0  501 -0.00000000000E+00  0.00000000000E+00  0.66174635820E+02  0.66174635869E+02  0.25500000000E-02 0. -1.
          2   -1    0    0  501    0  0.00000000000E+00 -0.00000000000E+00 -0.96302173638E+03  0.96302173639E+03  0.25500000000E-02 0.  1.
    5000001    1    1    2    0    0  0.13216808747E+03  0.81078556232E+02 -0.46715942206E+03  0.53092472277E+03  0.19900000000E+03 0.  0.
   -5000001    1    1    2    0    0 -0.13216808747E+03 -0.81078556232E+02 -0.42968767850E+03  0.49827164949E+03  0.19900000000E+03 0.  0.
<mgrwt>
<rscale>  0 0.50488657E+03</rscale>
<asrwt>0</asrwt>
<pdfrwt beam="1">  1        2 0.13757453E+00 0.50488657E+03</pdfrwt>
<pdfrwt beam="2">  1       -2 0.94535200E-02 0.50488657E+03</pdfrwt>
<totfact> 0.22308045E+03</totfact>
</mgrwt>
</event>
<event>
 4    1  0.4915183E-005  0.1022192E+04  0.7818608E-02  0.9284534E-01
          2   -1    0    0  501    0  0.00000000000E+00  0.00000000000E+00  0.89077357092E+03  0.89077357093E+03  0.25500000000E-02 0.  1.
         -2   -1    0    0    0  501 -0.00000000000E+00 -0.00000000000E+00 -0.29324986897E+03  0.29324986898E+03  0.25500000000E-02 0. -1.
    5000001    1    1    2    0    0 -0.10844078060E+03  0.40210734879E+03  0.55298162964E+03  0.72030507812E+03  0.19900000000E+03 0.  0.
   -5000001    1    1    2    0    0  0.10844078060E+03 -0.40210734879E+03  0.44542072312E+02  0.46371836178E+03  0.19900000000E+03 0.  0.
<mgrwt>
<rscale>  0 0.10221922E+04</rscale>
<asrwt>0</asrwt>
<pdfrwt beam="1">  1        2 0.12725337E+00 0.10221922E+04</pdfrwt>
<pdfrwt beam="2">  1       -2 0.41892838E-01 0.10221922E+04</pdfrwt>
<totfact> 0.17734252E+02</totfact>
</mgrwt>
</event>
<event>
 4    1  0.4915183E-005  0.5657557E+03  0.7818608E-02  0.9979115E-01
         -2   -1    0    0    0  501 -0.00000000000E+00  0.00000000000E+00  0.83542748312E+03  0.83542748312E+03  0.25500000000E-02 0. -1.
          2   -1    0    0  501    0  0.00000000000E+00 -0.00000000000E+00 -0.95783152134E+02  0.95783152168E+02  0.25500000000E-02 0.  1.
    5000001    1    1    2    0    0  0.10116712880E+03 -0.15768549020E+03  0.48986861867E+03  0.56095611711E+03  0.19900000000E+03 0.  0.
   -5000001    1    1    2    0    0 -0.10116712880E+03  0.15768549020E+03  0.24977571231E+03  0.37025451817E+03  0.19900000000E+03 0.  0.
<mgrwt>
<rscale>  0 0.56575570E+03</rscale>
<asrwt>0</asrwt>
<pdfrwt beam="1">  1        2 0.13683308E-01 0.56575570E+03</pdfrwt>
<pdfrwt beam="2">  1       -2 0.11934678E+00 0.56575570E+03</pdfrwt>
<totfact> 0.24472719E+02</totfact>
</mgrwt>
</event>
<event>
 4    1  0.4915183E-005  0.6025651E+03  0.7818608E-02  0.9900099E-01
          2   -1    0    0  501    0  0.00000000000E+00  0.00000000000E+00  0.68955447419E+03  0.68955447420E+03  0.25500000000E-02 0.  1.
         -2   -1    0    0    0  501 -0.00000000000E+00 -0.00000000000E+00 -0.13163741776E+03  0.13163741779E+03  0.25500000000E-02 0. -1.
    5000001    1    1    2    0    0 -0.20475661167E+03 -0.83553391519E+02  0.21411701939E+03  0.36654268135E+03  0.19900000000E+03 0.  0.
   -5000001    1    1    2    0    0  0.20475661167E+03  0.83553391519E+02  0.34380003704E+03  0.45464921063E+03  0.19900000000E+03 0.  0.
<mgrwt>
<rscale>  0 0.60256508E+03</rscale>
<asrwt>0</asrwt>
<pdfrwt beam="1">  1        2 0.98507783E-01 0.60256508E+03</pdfrwt>
<pdfrwt beam="2">  1       -2 0.18805345E-01 0.60256508E+03</pdfrwt>
<totfact> 0.10918052E+03</totfact>
</mgrwt>
</event>
<event>
 4    1  0.4915183E-005  0.5805355E+03  0.7818608E-02  0.9946632E-01
          2   -1    0    0  501    0  0.00000000000E+00  0.00000000000E+00  0.34345635143E+03  0.34345635143E+03  0.25500000000E-02 0.  1.
         -2   -1    0    0    0  501 -0.00000000000E+00 -0.00000000000E+00 -0.24531605953E+03  0.24531605954E+03  0.25500000000E-02 0. -1.
    5000001    1    1    2    0    0 -0.20532580883E+03 -0.41509460996E+02  0.77260858721E+02  0.29908521096E+03  0.19900000000E+03 0.  0.
   -5000001    1    1    2    0    0  0.20532580883E+03  0.41509460996E+02  0.20879433174E+02  0.28968720002E+03  0.19900000000E+03 0.  0.
<mgrwt>
<rscale>  0 0.58053547E+03</rscale>
<asrwt>0</asrwt>
<pdfrwt beam="1">  1        2 0.49065192E-01 0.58053547E+03</pdfrwt>
<pdfrwt beam="2">  1       -2 0.35045152E-01 0.58053547E+03</pdfrwt>
<totfact> 0.78707116E+02</totfact>
</mgrwt>
</event>
<event>
 4    1  0.4915183E-005  0.5540787E+03  0.7818608E-02  0.1000554E+00
         -2   -1    0    0    0  501 -0.00000000000E+00  0.00000000000E+00  0.13091554200E+03  0.13091554203E+03  0.25500000000E-02 0. -1.
          2   -1    0    0  501    0  0.00000000000E+00 -0.00000000000E+00 -0.58626205139E+03  0.58626205140E+03  0.25500000000E-02 0.  1.
    5000001    1    1    2    0    0 -0.11556830250E+03  0.15355616763E+03 -0.24662072223E+03  0.37061882007E+03  0.19900000000E+03 0.  0.
   -5000001    1    1    2    0    0  0.11556830250E+03 -0.15355616763E+03 -0.20872578716E+03  0.34655877335E+03  0.19900000000E+03 0.  0.
<mgrwt>
<rscale>  0 0.55407875E+03</rscale>
<asrwt>0</asrwt>
<pdfrwt beam="1">  1        2 0.83751720E-01 0.55407875E+03</pdfrwt>
<pdfrwt beam="2">  1       -2 0.18702221E-01 0.55407875E+03</pdfrwt>
<totfact> 0.13379998E+03</totfact>
</mgrwt>
</event>
<event>
 4    1  0.4915183E-005  0.5061249E+03  0.7818608E-02  0.1012192E+00
         -2   -1    0    0    0  501 -0.00000000000E+00  0.00000000000E+00  0.19066787741E+03  0.19066787743E+03  0.25500000000E-02 0. -1.
          2   -1    0    0  501    0  0.00000000000E+00 -0.00000000000E+00 -0.33587514697E+03  0.33587514698E+03  0.25500000000E-02 0.  1.
    5000001    1    1    2    0    0  0.65808969842E+02 -0.12811945856E+03 -0.93718415739E+01  0.24583378041E+03  0.19900000000E+03 0.  0.
   -5000001    1    1    2    0    0 -0.65808969842E+02  0.12811945856E+03 -0.13583542798E+03  0.28070924400E+03  0.19900000000E+03 0.  0.
<mgrwt>
<rscale>  0 0.50612489E+03</rscale>
<asrwt>0</asrwt>
<pdfrwt beam="1">  1        2 0.47982164E-01 0.50612489E+03</pdfrwt>
<pdfrwt beam="2">  1       -2 0.27238268E-01 0.50612489E+03</pdfrwt>
<totfact> 0.12870458E+03</totfact>
</mgrwt>
</event>
<event>
 4    1  0.4915183E-005  0.5279812E+03  0.7818608E-02  0.1006723E+00
          2   -1    0    0  501    0  0.00000000000E+00  0.00000000000E+00  0.61042193701E+03  0.61042193702E+03  0.25500000000E-02 0.  1.
         -2   -1    0    0    0  501 -0.00000000000E+00 -0.00000000000E+00 -0.11416861139E+03  0.11416861142E+03  0.25500000000E-02 0. -1.
    5000001    1    1    2    0    0  0.85659741653E+02  0.14699547420E+03  0.20169307378E+03  0.33049411006E+03  0.19900000000E+03 0.  0.
   -5000001    1    1    2    0    0 -0.85659741653E+02 -0.14699547420E+03  0.29456025184E+03  0.39409643837E+03  0.19900000000E+03 0.  0.
<mgrwt>
<rscale>  0 0.52798115E+03</rscale>
<asrwt>0</asrwt>
<pdfrwt beam="1">  1        2 0.87203134E-01 0.52798115E+03</pdfrwt>
<pdfrwt beam="2">  1       -2 0.16309802E-01 0.52798115E+03</pdfrwt>
<totfact> 0.16124758E+03</totfact>
</mgrwt>
</event>
<event>
 4    1  0.4915183E-005  0.6246514E+03  0.7818608E-02  0.9855542E-01
          2   -1    0    0  501    0  0.00000000000E+00  0.00000000000E+00  0.65503139301E+03  0.65503139301E+03  0.25500000000E-02 0.  1.
         -2   -1    0    0    0  501 -0.00000000000E+00 -0.00000000000E+00 -0.14892011436E+03  0.14892011439E+03  0.25500000000E-02 0. -1.
    5000001    1    1    2    0    0  0.10423657989E+03  0.20199935669E+03  0.15108382911E+03  0.33778147982E+03  0.19900000000E+03 0.  0.
   -5000001    1    1    2    0    0 -0.10423657989E+03 -0.20199935669E+03  0.35502744953E+03  0.46617002758E+03  0.19900000000E+03 0.  0.
<mgrwt>
<rscale>  0 0.62465142E+03</rscale>
<asrwt>0</asrwt>
<pdfrwt beam="1">  1        2 0.93575913E-01 0.62465142E+03</pdfrwt>
<pdfrwt beam="2">  1       -2 0.21274302E-01 0.62465142E+03</pdfrwt>
<totfact> 0.93677700E+02</totfact>
</mgrwt>
</event>
<event>
 4    1  0.4915183E-005  0.5636504E+03  0.7818608E-02  0.9983829E-01
         -2   -1    0    0    0  501 -0.00000000000E+00  0.00000000000E+00  0.38295578903E+02  0.38295578988E+02  0.25500000000E-02 0. -1.
          2   -1    0    0  501    0  0.00000000000E+00 -0.00000000000E+00 -0.20740106580E+04  0.20740106580E+04  0.25500000000E-02 0.  1.
    5000001    1    1    2    0    0 -0.43055345243E+02 -0.17891605326E+03 -0.13071652949E+04  0.13349707207E+04  0.19900000000E+03 0.  0.
   -5000001    1    1    2    0    0  0.43055345243E+02  0.17891605326E+03 -0.72854978414E+03  0.77733551626E+03  0.19900000000E+03 0.  0.
<mgrwt>
<rscale>  0 0.56365038E+03</rscale>
<asrwt>0</asrwt>
<pdfrwt beam="1">  1        2 0.29628717E+00 0.56365038E+03</pdfrwt>
<pdfrwt beam="2">  1       -2 0.54707983E-02 0.56365038E+03</pdfrwt>
<totfact> 0.13594617E+03</totfact>
</mgrwt>
</event>
<event>
 4    1  0.4915183E-005  0.6164374E+03  0.7818608E-02  0.9871879E-01
          2   -1    0    0  501    0  0.00000000000E+00  0.00000000000E+00  0.87145064977E+03  0.87145064978E+03  0.25500000000E-02 0.  1.
         -2   -1    0    0    0  501 -0.00000000000E+00 -0.00000000000E+00 -0.10901220651E+03  0.10901220654E+03  0.25500000000E-02 0. -1.
    5000001    1    1    2    0    0  0.12466756409E+03  0.19953910734E+03  0.37117223533E+03  0.48241857880E+03  0.19900000000E+03 0.  0.
   -5000001    1    1    2    0    0 -0.12466756409E+03 -0.19953910734E+03  0.39126620794E+03  0.49804427751E+03  0.19900000000E+03 0.  0.
<mgrwt>
<rscale>  0 0.61643737E+03</rscale>
<asrwt>0</asrwt>
<pdfrwt beam="1">  1        2 0.12449295E+00 0.61643737E+03</pdfrwt>
<pdfrwt beam="2">  1       -2 0.15573172E-01 0.61643737E+03</pdfrwt>
<totfact> 0.11200899E+03</totfact>
</mgrwt>
</event>
<event>
 4    1  0.4915183E-005  0.6694985E+03  0.7818608E-02  0.9770864E-01
          2   -1    0    0  501    0  0.00000000000E+00  0.00000000000E+00  0.62410547861E+03  0.62410547862E+03  0.25500000000E-02 0.  1.
         -2   -1    0    0    0  501 -0.00000000000E+00 -0.00000000000E+00 -0.17954827599E+03  0.17954827601E+03  0.25500000000E-02 0. -1.
    5000001    1    1    2    0    0 -0.10192643993E+03  0.24249950965E+03  0.15373006488E+03  0.36390787871E+03  0.19900000000E+03 0.  0.
   -5000001    1    1    2    0    0  0.10192643993E+03 -0.24249950965E+03  0.29082713775E+03  0.43974587592E+03  0.19900000000E+03 0.  0.
<mgrwt>
<rscale>  0 0.66949851E+03</rscale>
<asrwt>0</asrwt>
<pdfrwt beam="1">  1        2 0.89157926E-01 0.66949851E+03</pdfrwt>
<pdfrwt beam="2">  1       -2 0.25649754E-01 0.66949851E+03</pdfrwt>
<totfact> 0.71075543E+02</totfact>
</mgrwt>
</event>
<event>
 4    1  0.4915183E-005  0.5763326E+03  0.7818608E-02  0.9955763E-01
          2   -1    0    0  501    0  0.00000000000E+00  0.00000000000E+00  0.91235060401E+02  0.91235060437E+02  0.25500000000E-02 0.  1.
         -2   -1    0    0    0  501 -0.00000000000E+00 -0.00000000000E+00 -0.91017445624E+03  0.91017445625E+03  0.25500000000E-02 0. -1.
    5000001    1    1    2    0    0  0.16184752191E+03 -0.81262660788E+02 -0.23023537124E+03  0.35412930768E+03  0.19900000000E+03 0.  0.
   -5000001    1    1    2    0    0 -0.16184752191E+03  0.81262660788E+02 -0.58870402460E+03  0.64728020900E+03  0.19900000000E+03 0.  0.
<mgrwt>
<rscale>  0 0.57633262E+03</rscale>
<asrwt>0</asrwt>
<pdfrwt beam="1">  1        2 0.13033581E-01 0.57633262E+03</pdfrwt>
<pdfrwt beam="2">  1       -2 0.13002492E+00 0.57633262E+03</pdfrwt>
<totfact> 0.20979489E+02</totfact>
</mgrwt>
</event>
<event>
 4    1  0.4915183E-005  0.5903419E+03  0.7818608E-02  0.9925649E-01
         -2   -1    0    0    0  501 -0.00000000000E+00  0.00000000000E+00  0.44112486835E+02  0.44112486909E+02  0.25500000000E-02 0. -1.
          2   -1    0    0  501    0  0.00000000000E+00 -0.00000000000E+00 -0.19750844312E+04  0.19750844312E+04  0.25500000000E-02 0.  1.
    5000001    1    1    2    0    0 -0.95911617910E+02 -0.18685420521E+03 -0.76571221220E+03  0.81855343403E+03  0.19900000000E+03 0.  0.
   -5000001    1    1    2    0    0  0.95911617910E+02  0.18685420521E+03 -0.11652597322E+04  0.12006434841E+04  0.19900000000E+03 0.  0.
<mgrwt>
<rscale>  0 0.59034189E+03</rscale>
<asrwt>0</asrwt>
<pdfrwt beam="1">  1        2 0.28215486E+00 0.59034189E+03</pdfrwt>
<pdfrwt beam="2">  1       -2 0.63017851E-02 0.59034189E+03</pdfrwt>
<totfact> 0.12200605E+03</totfact>
</mgrwt>
</event>
<event>
 4    1  0.4915183E-005  0.6865908E+03  0.7818608E-02  0.9740443E-01
         -2   -1    0    0    0  501 -0.00000000000E+00  0.00000000000E+00  0.52994015372E+02  0.52994015433E+02  0.25500000000E-02 0. -1.
          2   -1    0    0  501    0  0.00000000000E+00 -0.00000000000E+00 -0.22238685814E+04  0.22238685814E+04  0.25500000000E-02 0.  1.
    5000001    1    1    2    0    0  0.13718583174E+03  0.12565001908E+03 -0.17782173544E+04  0.17989624341E+04  0.19900000000E+03 0.  0.
   -5000001    1    1    2    0    0 -0.13718583174E+03 -0.12565001908E+03 -0.39265721164E+03  0.47790016277E+03  0.19900000000E+03 0.  0.
<mgrwt>
<rscale>  0 0.68659078E+03</rscale>
<asrwt>0</asrwt>
<pdfrwt beam="1">  1        2 0.31769545E+00 0.68659078E+03</pdfrwt>
<pdfrwt beam="2">  1       -2 0.75705750E-02 0.68659078E+03</pdfrwt>
<totfact> 0.68009907E+02</totfact>
</mgrwt>
</event>
<event>
 4    1  0.4915183E-005  0.6567212E+03  0.7818608E-02  0.9794249E-01
         -2   -1    0    0    0  501 -0.00000000000E+00  0.00000000000E+00  0.27163586601E+03  0.27163586602E+03  0.25500000000E-02 0. -1.
          2   -1    0    0  501    0  0.00000000000E+00 -0.00000000000E+00 -0.39693089701E+03  0.39693089702E+03  0.25500000000E-02 0.  1.
    5000001    1    1    2    0    0  0.25387996276E+03  0.52620172094E+02 -0.94772204110E+02  0.34030381819E+03  0.19900000000E+03 0.  0.
   -5000001    1    1    2    0    0 -0.25387996276E+03 -0.52620172094E+02 -0.30522826891E+02  0.32826294485E+03  0.19900000000E+03 0.  0.
<mgrwt>
<rscale>  0 0.65672115E+03</rscale>
<asrwt>0</asrwt>
<pdfrwt beam="1">  1        2 0.56704413E-01 0.65672115E+03</pdfrwt>
<pdfrwt beam="2">  1       -2 0.38805124E-01 0.65672115E+03</pdfrwt>
<totfact> 0.55092479E+02</totfact>
</mgrwt>
</event>
<event>
 4    1  0.4915183E-005  0.6225218E+03  0.7818608E-02  0.9859752E-01
         -2   -1    0    0    0  501 -0.00000000000E+00  0.00000000000E+00  0.59148973401E+02  0.59148973456E+02  0.25500000000E-02 0. -1.
          2   -1    0    0  501    0  0.00000000000E+00 -0.00000000000E+00 -0.16379549688E+04  0.16379549688E+04  0.25500000000E-02 0.  1.
    5000001    1    1    2    0    0  0.90091673664E+02 -0.17865888433E+03 -0.11474241895E+04  0.11816170180E+04  0.19900000000E+03 0.  0.
   -5000001    1    1    2    0    0 -0.90091673664E+02  0.17865888433E+03 -0.43138180597E+03  0.51548692431E+03  0.19900000000E+03 0.  0.
<mgrwt>
<rscale>  0 0.62252182E+03</rscale>
<asrwt>0</asrwt>
<pdfrwt beam="1">  1        2 0.23399354E+00 0.62252182E+03</pdfrwt>
<pdfrwt beam="2">  1       -2 0.84498544E-02 0.62252182E+03</pdfrwt>
<totfact> 0.11332240E+03</totfact>
</mgrwt>
</event>
<event>
 4    1  0.4915183E-005  0.7844444E+03  0.7818608E-02  0.9582810E-01
          2   -1    0    0  501    0  0.00000000000E+00  0.00000000000E+00  0.83342219783E+03  0.83342219784E+03  0.25500000000E-02 0. -1.
         -2   -1    0    0    0  501 -0.00000000000E+00 -0.00000000000E+00 -0.18458622821E+03  0.18458622823E+03  0.25500000000E-02 0.  1.
    5000001    1    1    2    0    0 -0.31878179035E+03 -0.10092719171E+03  0.38837891437E+03  0.54977023292E+03  0.19900000000E+03 0.  0.
   -5000001    1    1    2    0    0  0.31878179035E+03  0.10092719171E+03  0.26045705525E+03  0.46823819314E+03  0.19900000000E+03 0.  0.
<mgrwt>
<rscale>  0 0.78444441E+03</rscale>
<asrwt>0</asrwt>
<pdfrwt beam="1">  1        2 0.11906031E+00 0.78444441E+03</pdfrwt>
<pdfrwt beam="2">  1       -2 0.26369461E-01 0.78444441E+03</pdfrwt>
<totfact> 0.47002084E+02</totfact>
</mgrwt>
</event>
<event>
 4    1  0.4915183E-005  0.4356921E+03  0.7818608E-02  0.1032077E+00
          2   -1    0    0  501    0  0.00000000000E+00  0.00000000000E+00  0.94137077934E+03  0.94137077934E+03  0.25500000000E-02 0.  1.
         -2   -1    0    0    0  501 -0.00000000000E+00 -0.00000000000E+00 -0.50412559633E+02  0.50412559698E+02  0.25500000000E-02 0. -1.
    5000001    1    1    2    0    0  0.30976511767E+02  0.48880602409E+02  0.29265797710E+03  0.35860639862E+03  0.19900000000E+03 0.  0.
   -5000001    1    1    2    0    0 -0.30976511767E+02 -0.48880602409E+02  0.59830024261E+03  0.63317694042E+03  0.19900000000E+03 0.  0.
<mgrwt>
<rscale>  0 0.43569214E+03</rscale>
<asrwt>0</asrwt>
<pdfrwt beam="1">  1        2 0.13448153E+00 0.43569214E+03</pdfrwt>
<pdfrwt beam="2">  1       -2 0.72017948E-02 0.43569214E+03</pdfrwt>
<totfact> 0.35425233E+03</totfact>
</mgrwt>
</event>
<event>
 4    1  0.4915183E-005  0.5378292E+03  0.7818608E-02  0.1004351E+00
         -2   -1    0    0    0  501 -0.00000000000E+00  0.00000000000E+00  0.45610352604E+03  0.45610352604E+03  0.25500000000E-02 0. -1.
          2   -1    0    0  501    0  0.00000000000E+00 -0.00000000000E+00 -0.15854963905E+03  0.15854963907E+03  0.25500000000E-02 0.  1.
    5000001    1    1    2    0    0  0.26416387722E+02 -0.17639004614E+03  0.11443889029E+03  0.29070351482E+03  0.19900000000E+03 0.  0.
   -5000001    1    1    2    0    0 -0.26416387722E+02  0.17639004614E+03  0.18311499669E+03  0.32394965030E+03  0.19900000000E+03 0.  0.
<mgrwt>
<rscale>  0 0.53782915E+03</rscale>
<asrwt>0</asrwt>
<pdfrwt beam="1">  1        2 0.22649948E-01 0.53782915E+03</pdfrwt>
<pdfrwt beam="2">  1       -2 0.65157648E-01 0.53782915E+03</pdfrwt>
<totfact> 0.53778591E+02</totfact>
</mgrwt>
</event>
<event>
 4    1  0.4915183E-005  0.8818741E+03  0.7818608E-02  0.9448528E-01
         -2   -1    0    0    0  501 -0.00000000000E+00  0.00000000000E+00  0.15596645936E+03  0.15596645938E+03  0.25500000000E-02 0. -1.
          2   -1    0    0  501    0  0.00000000000E+00 -0.00000000000E+00 -0.12465851685E+04  0.12465851685E+04  0.25500000000E-02 0.  1.
    5000001    1    1    2    0    0  0.26942640853E+02 -0.36682732045E+03 -0.76760618989E+03  0.87413297140E+03  0.19900000000E+03 0.  0.
   -5000001    1    1    2    0    0 -0.26942640853E+02  0.36682732045E+03 -0.32301251926E+03  0.52841865649E+03  0.19900000000E+03 0.  0.
<mgrwt>
<rscale>  0 0.88187408E+03</rscale>
<asrwt>0</asrwt>
<pdfrwt beam="1">  1        2 0.17808359E+00 0.88187408E+03</pdfrwt>
<pdfrwt beam="2">  1       -2 0.22280923E-01 0.88187408E+03</pdfrwt>
<totfact> 0.35486375E+02</totfact>
</mgrwt>
</event>
<event>
 4    1  0.4915183E-005  0.7292320E+03  0.7818608E-02  0.9668507E-01
          2   -1    0    0  501    0  0.00000000000E+00  0.00000000000E+00  0.21691152323E+03  0.21691152325E+03  0.25500000000E-02 0.  1.
         -2   -1    0    0    0  501 -0.00000000000E+00 -0.00000000000E+00 -0.61289889778E+03  0.61289889779E+03  0.25500000000E-02 0. -1.
    5000001    1    1    2    0    0 -0.29137221562E+03  0.67280302272E+01 -0.30229108095E+03  0.46467615825E+03  0.19900000000E+03 0.  0.
   -5000001    1    1    2    0    0  0.29137221562E+03 -0.67280302272E+01 -0.93696293596E+02  0.36513426278E+03  0.19900000000E+03 0.  0.
<mgrwt>
<rscale>  0 0.72923202E+03</rscale>
<asrwt>0</asrwt>
<pdfrwt beam="1">  1        2 0.30987361E-01 0.72923202E+03</pdfrwt>
<pdfrwt beam="2">  1       -2 0.87556985E-01 0.72923202E+03</pdfrwt>
<totfact> 0.19493064E+02</totfact>
</mgrwt>
</event>
<event>
 4    1  0.4915183E-005  0.8185332E+03  0.7818608E-02  0.9533572E-01
          2   -1    0    0  501    0  0.00000000000E+00  0.00000000000E+00  0.21788951836E+04  0.21788951836E+04  0.25500000000E-02 0.  1.
         -2   -1    0    0    0  501 -0.00000000000E+00 -0.00000000000E+00 -0.76873427253E+02  0.76873427295E+02  0.25500000000E-02 0. -1.
    5000001    1    1    2    0    0  0.26908595798E+03 -0.10162370299E+03  0.16366797051E+04  0.16736355897E+04  0.19900000000E+03 0.  0.
   -5000001    1    1    2    0    0 -0.26908595798E+03  0.10162370299E+03  0.46534205124E+03  0.58213302126E+03  0.19900000000E+03 0.  0.
<mgrwt>
<rscale>  0 0.81853318E+03</rscale>
<asrwt>0</asrwt>
<pdfrwt beam="1">  1        2 0.31127068E+00 0.81853318E+03</pdfrwt>
<pdfrwt beam="2">  1       -2 0.10981920E-01 0.81853318E+03</pdfrwt>
<totfact> 0.38927584E+02</totfact>
</mgrwt>
</event>
<event>
 4    1  0.4915183E-005  0.4682399E+03  0.7818608E-02  0.1022418E+00
         -2   -1    0    0    0  501 -0.00000000000E+00  0.00000000000E+00  0.10547066640E+03  0.10547066643E+03  0.25500000000E-02 0. -1.
          2   -1    0    0  501    0  0.00000000000E+00 -0.00000000000E+00 -0.51969090448E+03  0.51969090448E+03  0.25500000000E-02 0.  1.
    5000001    1    1    2    0    0 -0.11623154524E+03 -0.10679348950E+02 -0.15391682787E+03  0.27733591636E+03  0.19900000000E+03 0.  0.
   -5000001    1    1    2    0    0  0.11623154524E+03  0.10679348950E+02 -0.26030341021E+03  0.34782565456E+03  0.19900000000E+03 0.  0.
<mgrwt>
<rscale>  0 0.46823988E+03</rscale>
<asrwt>0</asrwt>
<pdfrwt beam="1">  1        2 0.74241557E-01 0.46823988E+03</pdfrwt>
<pdfrwt beam="2">  1       -2 0.15067238E-01 0.46823988E+03</pdfrwt>
<totfact> 0.22178754E+03</totfact>
</mgrwt>
</event>
<event>
 4    1  0.4915183E-005  0.7203248E+03  0.7818608E-02  0.9683092E-01
          2   -1    0    0  501    0  0.00000000000E+00  0.00000000000E+00  0.70061995787E+03  0.70061995787E+03  0.25500000000E-02 0.  1.
         -2   -1    0    0    0  501 -0.00000000000E+00 -0.00000000000E+00 -0.18514596769E+03  0.18514596770E+03  0.25500000000E-02 0. -1.
    5000001    1    1    2    0    0 -0.14020494029E+03 -0.20235350835E+03  0.46898222696E+03  0.56581772403E+03  0.19900000000E+03 0.  0.
   -5000001    1    1    2    0    0  0.14020494029E+03  0.20235350835E+03  0.46491763219E+02  0.31994820154E+03  0.19900000000E+03 0.  0.
<mgrwt>
<rscale>  0 0.72032482E+03</rscale>
<asrwt>0</asrwt>
<pdfrwt beam="1">  1        2 0.10008857E+00 0.72032482E+03</pdfrwt>
<pdfrwt beam="2">  1       -2 0.26449424E-01 0.72032482E+03</pdfrwt>
<totfact> 0.58372321E+02</totfact>
</mgrwt>
</event>
<event>
 4    1  0.4915183E-005  0.5077968E+03  0.7818608E-02  0.1011764E+00
         -2   -1    0    0    0  501 -0.00000000000E+00  0.00000000000E+00  0.87907204167E+02  0.87907204204E+02  0.25500000000E-02 0. -1.
          2   -1    0    0  501    0  0.00000000000E+00 -0.00000000000E+00 -0.73332314835E+03  0.73332314836E+03  0.25500000000E-02 0.  1.
    5000001    1    1    2    0    0  0.14670389977E+03  0.44292045522E+02 -0.38277645434E+03  0.45782380181E+03  0.19900000000E+03 0.  0.
   -5000001    1    1    2    0    0 -0.14670389977E+03 -0.44292045522E+02 -0.26263948984E+03  0.36340655075E+03  0.19900000000E+03 0.  0.
<mgrwt>
<rscale>  0 0.50779676E+03</rscale>
<asrwt>0</asrwt>
<pdfrwt beam="1">  1        2 0.10476045E+00 0.50779676E+03</pdfrwt>
<pdfrwt beam="2">  1       -2 0.12558173E-01 0.50779676E+03</pdfrwt>
<totfact> 0.20009399E+03</totfact>
</mgrwt>
</event>
<event>
 4    1  0.4915183E-005  0.6209790E+03  0.7818608E-02  0.9862812E-01
          2   -1    0    0  501    0  0.00000000000E+00  0.00000000000E+00  0.88805134451E+02  0.88805134488E+02  0.25500000000E-02 0.  1.
         -2   -1    0    0    0  501 -0.00000000000E+00 -0.00000000000E+00 -0.10855648594E+04  0.10855648594E+04  0.25500000000E-02 0. -1.
    5000001    1    1    2    0    0 -0.14237938779E+03  0.18484818650E+03 -0.59029079266E+03  0.66519543145E+03  0.19900000000E+03 0.  0.
   -5000001    1    1    2    0    0  0.14237938779E+03 -0.18484818650E+03 -0.40646893228E+03  0.50917456243E+03  0.19900000000E+03 0.  0.
<mgrwt>
<rscale>  0 0.62097901E+03</rscale>
<asrwt>0</asrwt>
<pdfrwt beam="1">  1        2 0.12686448E-01 0.62097901E+03</pdfrwt>
<pdfrwt beam="2">  1       -2 0.15508069E+00 0.62097901E+03</pdfrwt>
<totfact> 0.13730167E+02</totfact>
</mgrwt>
</event>
<event>
 4    1  0.4915183E-005  0.4926988E+03  0.7818608E-02  0.1015702E+00
          2   -1    0    0  501    0  0.00000000000E+00  0.00000000000E+00  0.87046759818E+03  0.87046759818E+03  0.25500000000E-02 0.  1.
         -2   -1    0    0    0  501 -0.00000000000E+00 -0.00000000000E+00 -0.69718883379E+02  0.69718883426E+02  0.25500000000E-02 0. -1.
    5000001    1    1    2    0    0 -0.12181661124E+03 -0.51752488777E+02  0.51438133847E+03  0.56719200297E+03  0.19900000000E+03 0.  0.
   -5000001    1    1    2    0    0  0.12181661124E+03  0.51752488777E+02  0.28636737632E+03  0.37299447863E+03  0.19900000000E+03 0.  0.
<mgrwt>
<rscale>  0 0.49269881E+03</rscale>
<asrwt>0</asrwt>
<pdfrwt beam="1">  1        2 0.12435251E+00 0.49269881E+03</pdfrwt>
<pdfrwt beam="2">  1       -2 0.99598410E-02 0.49269881E+03</pdfrwt>
<totfact> 0.23481678E+03</totfact>
</mgrwt>
</event>
<event>
 4    1  0.4915183E-005  0.5500478E+03  0.7818608E-02  0.1001483E+00
          2   -1    0    0  501    0  0.00000000000E+00  0.00000000000E+00  0.26412933903E+04  0.26412933903E+04  0.25500000000E-02 0.  1.
         -2   -1    0    0    0  501 -0.00000000000E+00 -0.00000000000E+00 -0.28636785507E+02  0.28636785620E+02  0.25500000000E-02 0. -1.
    5000001    1    1    2    0    0  0.10865586929E+03  0.97087822187E+01  0.55221041100E+03  0.59702403335E+03  0.19900000000E+03 0.  0.
   -5000001    1    1    2    0    0 -0.10865586929E+03 -0.97087822187E+01  0.20604461937E+04  0.20729061425E+04  0.19900000000E+03 0.  0.
<mgrwt>
<rscale>  0 0.55004782E+03</rscale>
<asrwt>0</asrwt>
<pdfrwt beam="1">  1        2 0.37732774E+00 0.55004782E+03</pdfrwt>
<pdfrwt beam="2">  1       -2 0.40909681E-02 0.55004782E+03</pdfrwt>
<totfact> 0.10985240E+03</totfact>
</mgrwt>
</event>
<event>
 4    1  0.4915183E-005  0.5727647E+03  0.7818608E-02  0.9963579E-01
          2   -1    0    0  501    0  0.00000000000E+00  0.00000000000E+00  0.29221856060E+03  0.29221856061E+03  0.25500000000E-02 0.  1.
         -2   -1    0    0    0  501 -0.00000000000E+00 -0.00000000000E+00 -0.28066273678E+03  0.28066273679E+03  0.25500000000E-02 0. -1.
    5000001    1    1    2    0    0 -0.15069140678E+03 -0.13346742680E+03  0.49288567790E+02  0.28731832000E+03  0.19900000000E+03 0.  0.
   -5000001    1    1    2    0    0  0.15069140678E+03  0.13346742680E+03 -0.37732743968E+02  0.28556297740E+03  0.19900000000E+03 0.  0.
<mgrwt>
<rscale>  0 0.57276474E+03</rscale>
<asrwt>0</asrwt>
<pdfrwt beam="1">  1        2 0.41745509E-01 0.57276474E+03</pdfrwt>
<pdfrwt beam="2">  1       -2 0.40094677E-01 0.57276474E+03</pdfrwt>
<totfact> 0.72667513E+02</totfact>
</mgrwt>
</event>
<event>
 4    1  0.4915183E-005  0.5640502E+03  0.7818608E-02  0.9982932E-01
          2   -1    0    0  501    0  0.00000000000E+00  0.00000000000E+00  0.44127162042E+03  0.44127162043E+03  0.25500000000E-02 0.  1.
         -2   -1    0    0    0  501 -0.00000000000E+00 -0.00000000000E+00 -0.18024761457E+03  0.18024761458E+03  0.25500000000E-02 0. -1.
    5000001    1    1    2    0    0  0.12376052127E+02  0.19163116422E+03  0.69543849668E+02  0.28515437362E+03  0.19900000000E+03 0.  0.
   -5000001    1    1    2    0    0 -0.12376052127E+02 -0.19163116422E+03  0.19148015618E+03  0.33636486139E+03  0.19900000000E+03 0.  0.
<mgrwt>
<rscale>  0 0.56405020E+03</rscale>
<asrwt>0</asrwt>
<pdfrwt beam="1">  1        2 0.63038804E-01 0.56405020E+03</pdfrwt>
<pdfrwt beam="2">  1       -2 0.25749659E-01 0.56405020E+03</pdfrwt>
<totfact> 0.10531701E+03</totfact>
</mgrwt>
</event>
<event>
 4    1  0.4915183E-005  0.5279335E+03  0.7818608E-02  0.1006735E+00
          2   -1    0    0  501    0  0.00000000000E+00  0.00000000000E+00  0.44640706158E+03  0.44640706158E+03  0.25500000000E-02 0.  1.
         -2   -1    0    0    0  501 -0.00000000000E+00 -0.00000000000E+00 -0.15608721353E+03  0.15608721355E+03  0.25500000000E-02 0. -1.
    5000001    1    1    2    0    0  0.16804191686E+03  0.41849383954E+02  0.13445558715E+03  0.29608911104E+03  0.19900000000E+03 0.  0.
   -5000001    1    1    2    0    0 -0.16804191686E+03 -0.41849383954E+02  0.15586426090E+03  0.30640516409E+03  0.19900000000E+03 0.  0.
<mgrwt>
<rscale>  0 0.52793346E+03</rscale>
<asrwt>0</asrwt>
<pdfrwt beam="1">  1        2 0.63772437E-01 0.52793346E+03</pdfrwt>
<pdfrwt beam="2">  1       -2 0.22298173E-01 0.52793346E+03</pdfrwt>
<totfact> 0.13435679E+03</totfact>
</mgrwt>
</event>
<event>
 4    1  0.4915183E-005  0.5198879E+03  0.7818608E-02  0.1008714E+00
          2   -1    0    0  501    0  0.00000000000E+00  0.00000000000E+00  0.11809570528E+04  0.11809570528E+04  0.25500000000E-02 0.  1.
         -2   -1    0    0    0  501 -0.00000000000E+00 -0.00000000000E+00 -0.57217036042E+02  0.57217036099E+02  0.25500000000E-02 0. -1.
    5000001    1    1    2    0    0  0.11233460376E+03  0.12107974649E+03  0.49928764447E+03  0.56228864486E+03  0.19900000000E+03 0.  0.
   -5000001    1    1    2    0    0 -0.11233460376E+03 -0.12107974649E+03  0.62445237225E+03  0.67588544400E+03  0.19900000000E+03 0.  0.
<mgrwt>
<rscale>  0 0.51988792E+03</rscale>
<asrwt>0</asrwt>
<pdfrwt beam="1">  1        2 0.16870816E+00 0.51988792E+03</pdfrwt>
<pdfrwt beam="2">  1       -2 0.81738617E-02 0.51988792E+03</pdfrwt>
<totfact> 0.20968043E+03</totfact>
</mgrwt>
</event>
<event>
 4    1  0.4915183E-005  0.4982620E+03  0.7818608E-02  0.1014234E+00
         -2   -1    0    0    0  501 -0.00000000000E+00  0.00000000000E+00  0.49785780070E+02  0.49785780136E+02  0.25500000000E-02 0. -1.
          2   -1    0    0  501    0  0.00000000000E+00 -0.00000000000E+00 -0.12466662792E+04  0.12466662792E+04  0.25500000000E-02 0.  1.
    5000001    1    1    2    0    0 -0.12994066330E+03  0.27015289699E+01 -0.79268889118E+03  0.82755576999E+03  0.19900000000E+03 0.  0.
   -5000001    1    1    2    0    0  0.12994066330E+03 -0.27015289699E+01 -0.40419160798E+03  0.46889628939E+03  0.19900000000E+03 0.  0.
<mgrwt>
<rscale>  0 0.49826199E+03</rscale>
<asrwt>0</asrwt>
<pdfrwt beam="1">  1        2 0.17809516E+00 0.49826199E+03</pdfrwt>
<pdfrwt beam="2">  1       -2 0.71122551E-02 0.49826199E+03</pdfrwt>
<totfact> 0.24036411E+03</totfact>
</mgrwt>
</event>
<event>
 4    1  0.4915183E-005  0.1016432E+04  0.7818608E-02  0.9290704E-01
         -2   -1    0    0    0  501 -0.00000000000E+00  0.00000000000E+00  0.11736784737E+03  0.11736784740E+03  0.25500000000E-02 0. -1.
          2   -1    0    0  501    0  0.00000000000E+00 -0.00000000000E+00 -0.22006333559E+04  0.22006333559E+04  0.25500000000E-02 0.  1.
    5000001    1    1    2    0    0  0.12632399946E+03 -0.37834331026E+03 -0.15982925041E+04  0.16592894087E+04  0.19900000000E+03 0.  0.
   -5000001    1    1    2    0    0 -0.12632399946E+03  0.37834331026E+03 -0.48497300439E+03  0.65871179453E+03  0.19900000000E+03 0.  0.
<mgrwt>
<rscale>  0 0.10164322E+04</rscale>
<asrwt>0</asrwt>
<pdfrwt beam="1">  1        2 0.31437617E+00 0.10164322E+04</pdfrwt>
<pdfrwt beam="2">  1       -2 0.16766837E-01 0.10164322E+04</pdfrwt>
<totfact> 0.18383018E+02</totfact>
</mgrwt>
</event>
<event>
 4    1  0.4915183E-005  0.5298075E+03  0.7818608E-02  0.1006279E+00
          2   -1    0    0  501    0  0.00000000000E+00  0.00000000000E+00  0.17229265751E+04  0.17229265751E+04  0.25500000000E-02 0.  1.
         -2   -1    0    0    0  501 -0.00000000000E+00 -0.00000000000E+00 -0.40729535893E+02  0.40729535972E+02  0.25500000000E-02 0. -1.
    5000001    1    1    2    0    0  0.66845568998E+02 -0.15756091571E+03  0.72203747012E+03  0.76826615213E+03  0.19900000000E+03 0.  0.
   -5000001    1    1    2    0    0 -0.66845568998E+02  0.15756091571E+03  0.96015956913E+03  0.99538995898E+03  0.19900000000E+03 0.  0.
<mgrwt>
<rscale>  0 0.52980751E+03</rscale>
<asrwt>0</asrwt>
<pdfrwt beam="1">  1        2 0.24613232E+00 0.52980751E+03</pdfrwt>
<pdfrwt beam="2">  1       -2 0.58185063E-02 0.52980751E+03</pdfrwt>
<totfact> 0.18559868E+03</totfact>
</mgrwt>
</event>
<event>
 4    1  0.4915183E-005  0.4860988E+03  0.7818608E-02  0.1017472E+00
         -2   -1    0    0    0  501 -0.00000000000E+00  0.00000000000E+00  0.84159181198E+02  0.84159181236E+02  0.25500000000E-02 0.  1.
          2   -1    0    0  501    0  0.00000000000E+00 -0.00000000000E+00 -0.70191991450E+03  0.70191991450E+03  0.25500000000E-02 0. -1.
    5000001    1    1    2    0    0  0.13924937770E+03  0.87641032893E+01 -0.30533500743E+03  0.39025333498E+03  0.19900000000E+03 0.  0.
   -5000001    1    1    2    0    0 -0.13924937770E+03 -0.87641032893E+01 -0.31242572587E+03  0.39582576076E+03  0.19900000000E+03 0.  0.
<mgrwt>
<rscale>  0 0.48609878E+03</rscale>
<asrwt>0</asrwt>
<pdfrwt beam="1">  1        2 0.10027427E+00 0.48609878E+03</pdfrwt>
<pdfrwt beam="2">  1       -2 0.12022741E-01 0.48609878E+03</pdfrwt>
<totfact> 0.22674612E+03</totfact>
</mgrwt>
</event>
<event>
 4    1  0.4915183E-005  0.1316644E+04  0.7818608E-02  0.9016469E-01
          2   -1    0    0  501    0  0.00000000000E+00  0.00000000000E+00  0.36745672571E+03  0.36745672572E+03  0.25500000000E-02 0.  1.
         -2   -1    0    0    0  501 -0.00000000000E+00 -0.00000000000E+00 -0.11794258740E+04  0.11794258740E+04  0.25500000000E-02 0. -1.
    5000001    1    1    2    0    0 -0.83160193452E+02  0.57186834324E+03 -0.69337830247E+03  0.92429621340E+03  0.19900000000E+03 0.  0.
   -5000001    1    1    2    0    0  0.83160193452E+02 -0.57186834324E+03 -0.11859084586E+03  0.62258638637E+03  0.19900000000E+03 0.  0.
<mgrwt>
<rscale>  0 0.13166442E+04</rscale>
<asrwt>0</asrwt>
<pdfrwt beam="1">  1        2 0.52493819E-01 0.13166442E+04</pdfrwt>
<pdfrwt beam="2">  1       -2 0.16848941E+00 0.13166442E+04</pdfrwt>
<totfact> 0.20351787E+01</totfact>
</mgrwt>
</event>
<event>
 4    1  0.4915183E-005  0.6736504E+03  0.7818608E-02  0.9763386E-01
          2   -1    0    0  501    0  0.00000000000E+00  0.00000000000E+00  0.29204458802E+03  0.29204458803E+03  0.25500000000E-02 0.  1.
         -2   -1    0    0    0  501 -0.00000000000E+00 -0.00000000000E+00 -0.38847223729E+03  0.38847223730E+03  0.25500000000E-02 0. -1.
    5000001    1    1    2    0    0 -0.25468429543E+03  0.90333644519E+02 -0.77246226815E+02  0.34437223644E+03  0.19900000000E+03 0.  0.
   -5000001    1    1    2    0    0  0.25468429543E+03 -0.90333644519E+02 -0.19181422458E+02  0.33614458889E+03  0.19900000000E+03 0.  0.
<mgrwt>
<rscale>  0 0.67365040E+03</rscale>
<asrwt>0</asrwt>
<pdfrwt beam="1">  1        2 0.41720656E-01 0.67365040E+03</pdfrwt>
<pdfrwt beam="2">  1       -2 0.55496034E-01 0.67365040E+03</pdfrwt>
<totfact> 0.37824030E+02</totfact>
</mgrwt>
</event>
<event>
 4    1  0.4915183E-005  0.5014994E+03  0.7818608E-02  0.1013388E+00
         -2   -1    0    0    0  501 -0.00000000000E+00  0.00000000000E+00  0.34172290698E+02  0.34172290793E+02  0.25500000000E-02 0.  1.
          2   -1    0    0  501    0  0.00000000000E+00 -0.00000000000E+00 -0.18399529060E+04  0.18399529060E+04  0.25500000000E-02 0. -1.
    5000001    1    1    2    0    0 -0.11851335114E+03 -0.81942957445E+02 -0.71550287354E+03  0.75650870763E+03  0.19900000000E+03 0.  0.
   -5000001    1    1    2    0    0  0.11851335114E+03  0.81942957445E+02 -0.10902777418E+04  0.11176164892E+04  0.19900000000E+03 0.  0.
<mgrwt>
<rscale>  0 0.50149937E+03</rscale>
<asrwt>0</asrwt>
<pdfrwt beam="1">  1        2 0.26285035E+00 0.50149937E+03</pdfrwt>
<pdfrwt beam="2">  1       -2 0.48817570E-02 0.50149937E+03</pdfrwt>
<totfact> 0.21299920E+03</totfact>
</mgrwt>
</event>
<event>
 4    1  0.4915183E-005  0.5872075E+03  0.7818608E-02  0.9932308E-01
          2   -1    0    0  501    0  0.00000000000E+00  0.00000000000E+00  0.83670222289E+03  0.83670222289E+03  0.25500000000E-02 0.  1.
         -2   -1    0    0    0  501 -0.00000000000E+00 -0.00000000000E+00 -0.10302727740E+03  0.10302727743E+03  0.25500000000E-02 0. -1.
    5000001    1    1    2    0    0  0.14165734334E+03  0.10436278853E+03  0.56699956374E+03  0.62613728513E+03  0.19900000000E+03 0.  0.
   -5000001    1    1    2    0    0 -0.14165734334E+03 -0.10436278853E+03  0.16667538175E+03  0.31359221520E+03  0.19900000000E+03 0.  0.
<mgrwt>
<rscale>  0 0.58720747E+03</rscale>
<asrwt>0</asrwt>
<pdfrwt beam="1">  1        2 0.11952889E+00 0.58720747E+03</pdfrwt>
<pdfrwt beam="2">  1       -2 0.14718183E-01 0.58720747E+03</pdfrwt>
<totfact> 0.13000158E+03</totfact>
</mgrwt>
</event>
<event>
 4    1  0.4915183E-005  0.8886665E+03  0.7818608E-02  0.9439861E-01
          2   -1    0    0  501    0  0.00000000000E+00  0.00000000000E+00  0.25113052272E+04  0.25113052272E+04  0.25500000000E-02 0.  1.
         -2   -1    0    0    0  501 -0.00000000000E+00 -0.00000000000E+00 -0.78617308660E+02  0.78617308701E+02  0.25500000000E-02 0. -1.
    5000001    1    1    2    0    0  0.35361054461E+03 -0.94689127673E+02  0.16661868313E+04  0.17174941062E+04  0.19900000000E+03 0.  0.
   -5000001    1    1    2    0    0 -0.35361054461E+03  0.94689127673E+02  0.76650108728E+03  0.87242842971E+03  0.19900000000E+03 0.  0.
<mgrwt>
<rscale>  0 0.88866655E+03</rscale>
<asrwt>0</asrwt>
<pdfrwt beam="1">  1        2 0.35875791E+00 0.88866655E+03</pdfrwt>
<pdfrwt beam="2">  1       -2 0.11231044E-01 0.88866655E+03</pdfrwt>
<totfact> 0.25192590E+02</totfact>
</mgrwt>
</event>
<event>
 4    1  0.4915183E-005  0.4854681E+03  0.7818608E-02  0.1017643E+00
         -2   -1    0    0    0  501 -0.00000000000E+00  0.00000000000E+00  0.36448101755E+02  0.36448101844E+02  0.25500000000E-02 0. -1.
          2   -1    0    0  501    0  0.00000000000E+00 -0.00000000000E+00 -0.16165403201E+04  0.16165403201E+04  0.25500000000E-02 0.  1.
    5000001    1    1    2    0    0 -0.82940593600E+02 -0.97794065965E+02 -0.97264741828E+03  0.10010428671E+04  0.19900000000E+03 0.  0.
   -5000001    1    1    2    0    0  0.82940593600E+02  0.97794065965E+02 -0.60744480001E+03  0.65194555484E+03  0.19900000000E+03 0.  0.
<mgrwt>
<rscale>  0 0.48546813E+03</rscale>
<asrwt>0</asrwt>
<pdfrwt beam="1">  1        2 0.23093429E+00 0.48546813E+03</pdfrwt>
<pdfrwt beam="2">  1       -2 0.52068727E-02 0.48546813E+03</pdfrwt>
<totfact> 0.25000854E+03</totfact>
</mgrwt>
</event>
<event>
 4    1  0.4915183E-005  0.9209622E+03  0.7818608E-02  0.9399750E-01
         -2   -1    0    0    0  501 -0.00000000000E+00  0.00000000000E+00  0.53133807226E+03  0.53133807226E+03  0.25500000000E-02 0. -1.
          2   -1    0    0  501    0  0.00000000000E+00 -0.00000000000E+00 -0.39907335105E+03  0.39907335106E+03  0.25500000000E-02 0.  1.
    5000001    1    1    2    0    0 -0.23207129338E+03 -0.34355630311E+03  0.42356957720E+02  0.46182586598E+03  0.19900000000E+03 0.  0.
   -5000001    1    1    2    0    0  0.23207129338E+03  0.34355630311E+03  0.89907763488E+02  0.46858555735E+03  0.19900000000E+03 0.  0.
<mgrwt>
<rscale>  0 0.92096225E+03</rscale>
<asrwt>0</asrwt>
<pdfrwt beam="1">  1        2 0.57010479E-01 0.92096225E+03</pdfrwt>
<pdfrwt beam="2">  1       -2 0.75905439E-01 0.92096225E+03</pdfrwt>
<totfact> 0.13521779E+02</totfact>
</mgrwt>
</event>
<event>
 4    1  0.4915183E-005  0.6154861E+03  0.7818608E-02  0.9873788E-01
         -2   -1    0    0    0  501 -0.00000000000E+00  0.00000000000E+00  0.43296428499E+03  0.43296428499E+03  0.25500000000E-02 0. -1.
          2   -1    0    0  501    0  0.00000000000E+00 -0.00000000000E+00 -0.21873807204E+03  0.21873807206E+03  0.25500000000E-02 0.  1.
    5000001    1    1    2    0    0 -0.80967217586E+02 -0.14416561845E+03  0.28354727751E+03  0.38384824403E+03  0.19900000000E+03 0.  0.
   -5000001    1    1    2    0    0  0.80967217586E+02  0.14416561845E+03 -0.69321064565E+02  0.26785411301E+03  0.19900000000E+03 0.  0.
<mgrwt>
<rscale>  0 0.61548606E+03</rscale>
<asrwt>0</asrwt>
<pdfrwt beam="1">  1        2 0.31248296E-01 0.61548606E+03</pdfrwt>
<pdfrwt beam="2">  1       -2 0.61852041E-01 0.61548606E+03</pdfrwt>
<totfact> 0.41634677E+02</totfact>
</mgrwt>
</event>
<event>
 4    1  0.4915183E-005  0.5776026E+03  0.7818608E-02  0.9952995E-01
          2   -1    0    0  501    0  0.00000000000E+00  0.00000000000E+00  0.22850755477E+03  0.22850755479E+03  0.25500000000E-02 0.  1.
         -2   -1    0    0    0  501 -0.00000000000E+00 -0.00000000000E+00 -0.36500412772E+03  0.36500412773E+03  0.25500000000E-02 0. -1.
    5000001    1    1    2    0    0 -0.30220452443E+02 -0.19601181751E+03  0.46119022746E+00  0.28095394826E+03  0.19900000000E+03 0.  0.
   -5000001    1    1    2    0    0  0.30220452443E+02  0.19601181751E+03 -0.13695776317E+03  0.31255773425E+03  0.19900000000E+03 0.  0.
<mgrwt>
<rscale>  0 0.57760263E+03</rscale>
<asrwt>0</asrwt>
<pdfrwt beam="1">  1        2 0.32643936E-01 0.57760263E+03</pdfrwt>
<pdfrwt beam="2">  1       -2 0.52143447E-01 0.57760263E+03</pdfrwt>
<totfact> 0.56580649E+02</totfact>
</mgrwt>
</event>
<event>
 4    1  0.4915183E-005  0.9412003E+03  0.7818608E-02  0.9375496E-01
         -2   -1    0    0    0  501 -0.00000000000E+00  0.00000000000E+00  0.30884541193E+03  0.30884541194E+03  0.25500000000E-02 0. -1.
          2   -1    0    0  501    0  0.00000000000E+00 -0.00000000000E+00 -0.71707230442E+03  0.71707230442E+03  0.25500000000E-02 0.  1.
    5000001    1    1    2    0    0 -0.42456545872E+03 -0.31068046133E+02 -0.17648563761E+03  0.50196536983E+03  0.19900000000E+03 0.  0.
   -5000001    1    1    2    0    0  0.42456545872E+03  0.31068046133E+02 -0.23174125487E+03  0.52395234653E+03  0.19900000000E+03 0.  0.
<mgrwt>
<rscale>  0 0.94120028E+03</rscale>
<asrwt>0</asrwt>
<pdfrwt beam="1">  1        2 0.10243890E+00 0.94120028E+03</pdfrwt>
<pdfrwt beam="2">  1       -2 0.44120773E-01 0.94120028E+03</pdfrwt>
<totfact> 0.21284276E+02</totfact>
</mgrwt>
</event>
<event>
 4    1  0.4915183E-005  0.5403798E+03  0.7818608E-02  0.1003745E+00
         -2   -1    0    0    0  501 -0.00000000000E+00  0.00000000000E+00  0.56522915051E+02  0.56522915109E+02  0.25500000000E-02 0. -1.
          2   -1    0    0  501    0  0.00000000000E+00 -0.00000000000E+00 -0.12915571151E+04  0.12915571151E+04  0.25500000000E-02 0.  1.
    5000001    1    1    2    0    0  0.10817118009E+03 -0.14587155769E+03 -0.66876811358E+03  0.72099327686E+03  0.19900000000E+03 0.  0.
   -5000001    1    1    2    0    0 -0.10817118009E+03  0.14587155769E+03 -0.56626608651E+03  0.62708675339E+03  0.19900000000E+03 0.  0.
<mgrwt>
<rscale>  0 0.54037977E+03</rscale>
<asrwt>0</asrwt>
<pdfrwt beam="1">  1        2 0.18450814E+00 0.54037977E+03</pdfrwt>
<pdfrwt beam="2">  1       -2 0.80747029E-02 0.54037977E+03</pdfrwt>
<totfact> 0.18571197E+03</totfact>
</mgrwt>
</event>
<event>
 4    1  0.4915183E-005  0.6794821E+03  0.7818608E-02  0.9752978E-01
          2   -1    0    0  501    0  0.00000000000E+00  0.00000000000E+00  0.10484922953E+04  0.10484922953E+04  0.25500000000E-02 0.  1.
         -2   -1    0    0    0  501 -0.00000000000E+00 -0.00000000000E+00 -0.11008567368E+03  0.11008567371E+03  0.25500000000E-02 0. -1.
    5000001    1    1    2    0    0  0.21984054370E+03 -0.15965970453E+03  0.54549335579E+03  0.64108118606E+03  0.19900000000E+03 0.  0.
   -5000001    1    1    2    0    0 -0.21984054370E+03  0.15965970453E+03  0.39291326585E+03  0.51749678297E+03  0.19900000000E+03 0.  0.
<mgrwt>
<rscale>  0 0.67948210E+03</rscale>
<asrwt>0</asrwt>
<pdfrwt beam="1">  1        2 0.14978462E+00 0.67948210E+03</pdfrwt>
<pdfrwt beam="2">  1       -2 0.15726524E-01 0.67948210E+03</pdfrwt>
<totfact> 0.85225827E+02</totfact>
</mgrwt>
</event>
<event>
 4    1  0.4915183E-005  0.5108167E+03  0.7818608E-02  0.1010994E+00
         -2   -1    0    0    0  501 -0.00000000000E+00  0.00000000000E+00  0.86795792079E+02  0.86795792116E+02  0.25500000000E-02 0. -1.
          2   -1    0    0  501    0  0.00000000000E+00 -0.00000000000E+00 -0.75157373540E+03  0.75157373540E+03  0.25500000000E-02 0.  1.
    5000001    1    1    2    0    0 -0.14572443875E+03 -0.52461244609E+01 -0.22390227685E+03  0.33316116738E+03  0.19900000000E+03 0.  0.
   -5000001    1    1    2    0    0  0.14572443875E+03  0.52461244609E+01 -0.44087566646E+03  0.50520836013E+03  0.19900000000E+03 0.  0.
<mgrwt>
<rscale>  0 0.51081675E+03</rscale>
<asrwt>0</asrwt>
<pdfrwt beam="1">  1        2 0.10736767E+00 0.51081675E+03</pdfrwt>
<pdfrwt beam="2">  1       -2 0.12399399E-01 0.51081675E+03</pdfrwt>
<totfact> 0.19820221E+03</totfact>
</mgrwt>
</event>
<event>
 4    1  0.4915183E-005  0.4246449E+03  0.7818608E-02  0.1035565E+00
          2   -1    0    0  501    0  0.00000000000E+00  0.00000000000E+00  0.15508088951E+03  0.15508088953E+03  0.25500000000E-02 0.  1.
         -2   -1    0    0    0  501 -0.00000000000E+00 -0.00000000000E+00 -0.29069237783E+03  0.29069237785E+03  0.25500000000E-02 0. -1.
    5000001    1    1    2    0    0 -0.36913821716E+02  0.64110152272E+02 -0.70601066697E+02  0.22373701633E+03  0.19900000000E+03 0.  0.
   -5000001    1    1    2    0    0  0.36913821716E+02 -0.64110152272E+02 -0.65010421627E+02  0.22203625104E+03  0.19900000000E+03 0.  0.
<mgrwt>
<rscale>  0 0.42464495E+03</rscale>
<asrwt>0</asrwt>
<pdfrwt beam="1">  1        2 0.22154413E-01 0.42464495E+03</pdfrwt>
<pdfrwt beam="2">  1       -2 0.41527482E-01 0.42464495E+03</pdfrwt>
<totfact> 0.13792842E+03</totfact>
</mgrwt>
</event>
<event>
 4    1  0.4915183E-005  0.4411921E+03  0.7818608E-02  0.1030382E+00
         -2   -1    0    0    0  501 -0.00000000000E+00  0.00000000000E+00  0.66260791996E+02  0.66260792045E+02  0.25500000000E-02 0. -1.
          2   -1    0    0  501    0  0.00000000000E+00 -0.00000000000E+00 -0.73441046535E+03  0.73441046535E+03  0.25500000000E-02 0.  1.
    5000001    1    1    2    0    0  0.41608923386E+02 -0.85490816561E+02 -0.34251641901E+03  0.40738001855E+03  0.19900000000E+03 0.  0.
   -5000001    1    1    2    0    0 -0.41608923386E+02  0.85490816561E+02 -0.32563325435E+03  0.39329123885E+03  0.19900000000E+03 0.  0.
<mgrwt>
<rscale>  0 0.44119211E+03</rscale>
<asrwt>0</asrwt>
<pdfrwt beam="1">  1        2 0.10491578E+00 0.44119211E+03</pdfrwt>
<pdfrwt beam="2">  1       -2 0.94658279E-02 0.44119211E+03</pdfrwt>
<totfact> 0.31581519E+03</totfact>
</mgrwt>
</event>
<event>
 4    1  0.4915183E-005  0.4264736E+03  0.7818608E-02  0.1034980E+00
          2   -1    0    0  501    0  0.00000000000E+00  0.00000000000E+00  0.25788554963E+03  0.25788554964E+03  0.25500000000E-02 0.  1.
         -2   -1    0    0    0  501 -0.00000000000E+00 -0.00000000000E+00 -0.17631828736E+03  0.17631828738E+03  0.25500000000E-02 0. -1.
    5000001    1    1    2    0    0  0.51440329081E+02 -0.12243972433E+02  0.97222309096E+02  0.22770419342E+03  0.19900000000E+03 0.  0.
   -5000001    1    1    2    0    0 -0.51440329081E+02  0.12243972433E+02 -0.15655046828E+02  0.20649964360E+03  0.19900000000E+03 0.  0.
<mgrwt>
<rscale>  0 0.42647363E+03</rscale>
<asrwt>0</asrwt>
<pdfrwt beam="1">  1        2 0.36840793E-01 0.42647363E+03</pdfrwt>
<pdfrwt beam="2">  1       -2 0.25188327E-01 0.42647363E+03</pdfrwt>
<totfact> 0.19770743E+03</totfact>
</mgrwt>
</event>
<event>
 4    1  0.4915183E-005  0.7981256E+03  0.7818608E-02  0.9562734E-01
          2   -1    0    0  501    0  0.00000000000E+00  0.00000000000E+00  0.22682433085E+04  0.22682433085E+04  0.25500000000E-02 0.  1.
         -2   -1    0    0    0  501 -0.00000000000E+00 -0.00000000000E+00 -0.70209016619E+02  0.70209016665E+02  0.25500000000E-02 0. -1.
    5000001    1    1    2    0    0  0.34231470774E+03  0.49648629400E+02  0.11060652319E+04  0.11758510292E+04  0.19900000000E+03 0.  0.
   -5000001    1    1    2    0    0 -0.34231470774E+03 -0.49648629400E+02  0.10919690599E+04  0.11626012960E+04  0.19900000000E+03 0.  0.
<mgrwt>
<rscale>  0 0.79812563E+03</rscale>
<asrwt>0</asrwt>
<pdfrwt beam="1">  1        2 0.32403471E+00 0.79812563E+03</pdfrwt>
<pdfrwt beam="2">  1       -2 0.10029861E-01 0.79812563E+03</pdfrwt>
<totfact> 0.40724117E+02</totfact>
</mgrwt>
</event>
<event>
 4    1  0.4915183E-005  0.7060639E+03  0.7818608E-02  0.9706918E-01
          2   -1    0    0  501    0  0.00000000000E+00  0.00000000000E+00  0.46662164805E+03  0.46662164805E+03  0.25500000000E-02 0.  1.
         -2   -1    0    0    0  501 -0.00000000000E+00 -0.00000000000E+00 -0.26709335630E+03  0.26709335631E+03  0.25500000000E-02 0. -1.
    5000001    1    1    2    0    0 -0.12574053297E+03  0.25060756832E+03  0.16529202732E+02  0.34422238375E+03  0.19900000000E+03 0.  0.
   -5000001    1    1    2    0    0  0.12574053297E+03 -0.25060756832E+03  0.18299908902E+03  0.38949262061E+03  0.19900000000E+03 0.  0.
<mgrwt>
<rscale>  0 0.70606386E+03</rscale>
<asrwt>0</asrwt>
<pdfrwt beam="1">  1        2 0.66660235E-01 0.70606386E+03</pdfrwt>
<pdfrwt beam="2">  1       -2 0.38156194E-01 0.70606386E+03</pdfrwt>
<totfact> 0.47414252E+02</totfact>
</mgrwt>
</event>
<event>
 4    1  0.4915183E-005  0.5352015E+03  0.7818608E-02  0.1004978E+00
          2   -1    0    0  501    0  0.00000000000E+00  0.00000000000E+00  0.28989206095E+04  0.28989206095E+04  0.25500000000E-02 0.  1.
         -2   -1    0    0    0  501 -0.00000000000E+00 -0.00000000000E+00 -0.24702352087E+02  0.24702352218E+02  0.25500000000E-02 0. -1.
    5000001    1    1    2    0    0 -0.13660284752E+03  0.90389192383E+02  0.18302161598E+04  0.18482756114E+04  0.19900000000E+03 0.  0.
   -5000001    1    1    2    0    0  0.13660284752E+03 -0.90389192383E+02  0.10440020976E+04  0.10753473504E+04  0.19900000000E+03 0.  0.
<mgrwt>
<rscale>  0 0.53520149E+03</rscale>
<asrwt>0</asrwt>
<pdfrwt beam="1">  1        2 0.41413131E+00 0.53520149E+03</pdfrwt>
<pdfrwt beam="2">  1       -2 0.35289092E-02 0.53520149E+03</pdfrwt>
<totfact> 0.10092174E+03</totfact>
</mgrwt>
</event>
<event>
 4    1  0.4915183E-005  0.9415633E+03  0.7818608E-02  0.9375067E-01
         -2   -1    0    0    0  501 -0.00000000000E+00  0.00000000000E+00  0.28329305474E+03  0.28329305475E+03  0.25500000000E-02 0. -1.
          2   -1    0    0  501    0  0.00000000000E+00 -0.00000000000E+00 -0.78235361790E+03  0.78235361790E+03  0.25500000000E-02 0.  1.
    5000001    1    1    2    0    0  0.16622277674E+03  0.33328606427E+03 -0.13953936467E+02  0.42249890472E+03  0.19900000000E+03 0.  0.
   -5000001    1    1    2    0    0 -0.16622277674E+03 -0.33328606427E+03 -0.48510662669E+03  0.64314776794E+03  0.19900000000E+03 0.  0.
<mgrwt>
<rscale>  0 0.94156327E+03</rscale>
<asrwt>0</asrwt>
<pdfrwt beam="1">  1        2 0.11176480E+00 0.94156327E+03</pdfrwt>
<pdfrwt beam="2">  1       -2 0.40470437E-01 0.94156327E+03</pdfrwt>
<totfact> 0.22603799E+02</totfact>
</mgrwt>
</event>
<event>
 4    1  0.4915183E-005  0.7902241E+03  0.7818608E-02  0.9574276E-01
          2   -1    0    0  501    0  0.00000000000E+00  0.00000000000E+00  0.58894546621E+03  0.58894546622E+03  0.25500000000E-02 0. -1.
         -2   -1    0    0    0  501 -0.00000000000E+00 -0.00000000000E+00 -0.26507297234E+03  0.26507297235E+03  0.25500000000E-02 0.  1.
    5000001    1    1    2    0    0  0.92788188708E+02 -0.32690294920E+03  0.19674411023E+03  0.44020953087E+03  0.19900000000E+03 0.  0.
   -5000001    1    1    2    0    0 -0.92788188708E+02  0.32690294920E+03  0.12712838364E+03  0.41380890769E+03  0.19900000000E+03 0.  0.
<mgrwt>
<rscale>  0 0.79022408E+03</rscale>
<asrwt>0</asrwt>
<pdfrwt beam="1">  1        2 0.84135068E-01 0.79022408E+03</pdfrwt>
<pdfrwt beam="2">  1       -2 0.37867567E-01 0.79022408E+03</pdfrwt>
<totfact> 0.36677023E+02</totfact>
</mgrwt>
</event>
<event>
 4    1  0.4915183E-005  0.4891495E+03  0.7818608E-02  0.1016651E+00
          2   -1    0    0  501    0  0.00000000000E+00  0.00000000000E+00  0.10094730906E+04  0.10094730906E+04  0.25500000000E-02 0.  1.
         -2   -1    0    0    0  501 -0.00000000000E+00 -0.00000000000E+00 -0.59255466495E+02  0.59255466550E+02  0.25500000000E-02 0. -1.
    5000001    1    1    2    0    0 -0.14002518571E+03  0.35227431437E+01  0.42175425005E+03  0.48692618515E+03  0.19900000000E+03 0.  0.
   -5000001    1    1    2    0    0  0.14002518571E+03 -0.35227431437E+01  0.52846337407E+03  0.58180237202E+03  0.19900000000E+03 0.  0.
<mgrwt>
<rscale>  0 0.48914946E+03</rscale>
<asrwt>0</asrwt>
<pdfrwt beam="1">  1        2 0.14421043E+00 0.48914946E+03</pdfrwt>
<pdfrwt beam="2">  1       -2 0.84650672E-02 0.48914946E+03</pdfrwt>
<totfact> 0.24939662E+03</totfact>
</mgrwt>
</event>
<event>
 4    1  0.4915183E-005  0.4870305E+03  0.7818608E-02  0.1017221E+00
         -2   -1    0    0    0  501 -0.00000000000E+00  0.00000000000E+00  0.44110579140E+02  0.44110579214E+02  0.25500000000E-02 0. -1.
          2   -1    0    0  501    0  0.00000000000E+00 -0.00000000000E+00 -0.13443413896E+04  0.13443413896E+04  0.25500000000E-02 0.  1.
    5000001    1    1    2    0    0 -0.12381388400E+03  0.61074687300E+01 -0.83774173020E+03  0.86993067860E+03  0.19900000000E+03 0.  0.
   -5000001    1    1    2    0    0  0.12381388400E+03 -0.61074687300E+01 -0.46248908023E+03  0.51852129018E+03  0.19900000000E+03 0.  0.
<mgrwt>
<rscale>  0 0.48703050E+03</rscale>
<asrwt>0</asrwt>
<pdfrwt beam="1">  1        2 0.19204874E+00 0.48703050E+03</pdfrwt>
<pdfrwt beam="2">  1       -2 0.63015122E-02 0.48703050E+03</pdfrwt>
<totfact> 0.25738172E+03</totfact>
</mgrwt>
</event>
<event>
 4    1  0.4915183E-005  0.5764410E+03  0.7818608E-02  0.9955526E-01
          2   -1    0    0  501    0  0.00000000000E+00  0.00000000000E+00  0.56083393783E+03  0.56083393784E+03  0.25500000000E-02 0.  1.
         -2   -1    0    0    0  501 -0.00000000000E+00 -0.00000000000E+00 -0.14812061169E+03  0.14812061171E+03  0.25500000000E-02 0. -1.
    5000001    1    1    2    0    0 -0.13943221536E+02 -0.19607287604E+03  0.12087251028E+03  0.30471322565E+03  0.19900000000E+03 0.  0.
   -5000001    1    1    2    0    0  0.13943221536E+02  0.19607287604E+03  0.29184081586E+03  0.40424132390E+03  0.19900000000E+03 0.  0.
<mgrwt>
<rscale>  0 0.57644103E+03</rscale>
<asrwt>0</asrwt>
<pdfrwt beam="1">  1        2 0.80119135E-01 0.57644103E+03</pdfrwt>
<pdfrwt beam="2">  1       -2 0.21160087E-01 0.57644103E+03</pdfrwt>
<totfact> 0.11365114E+03</totfact>
</mgrwt>
</event>
<event>
 4    1  0.4915183E-005  0.6741510E+03  0.7818608E-02  0.9762488E-01
         -2   -1    0    0    0  501 -0.00000000000E+00  0.00000000000E+00  0.16196976069E+04  0.16196976069E+04  0.25500000000E-02 0. -1.
          2   -1    0    0  501    0  0.00000000000E+00 -0.00000000000E+00 -0.70148829941E+02  0.70148829988E+02  0.25500000000E-02 0.  1.
    5000001    1    1    2    0    0 -0.17294841594E+03  0.93660151353E+02  0.12459640598E+04  0.12769928805E+04  0.19900000000E+03 0.  0.
   -5000001    1    1    2    0    0  0.17294841594E+03 -0.93660151353E+02  0.30358471712E+03  0.41285355636E+03  0.19900000000E+03 0.  0.
<mgrwt>
<rscale>  0 0.67415100E+03</rscale>
<asrwt>0</asrwt>
<pdfrwt beam="1">  1        2 0.10021260E-01 0.67415100E+03</pdfrwt>
<pdfrwt beam="2">  1       -2 0.23138540E+00 0.67415100E+03</pdfrwt>
<totfact> 0.57175678E+01</totfact>
</mgrwt>
</event>
<event>
 4    1  0.4915183E-005  0.1067368E+04  0.7818608E-02  0.9237594E-01
          2   -1    0    0  501    0  0.00000000000E+00  0.00000000000E+00  0.99818688728E+03  0.99818688728E+03  0.25500000000E-02 0.  1.
         -2   -1    0    0    0  501 -0.00000000000E+00 -0.00000000000E+00 -0.28533606823E+03  0.28533606824E+03  0.25500000000E-02 0. -1.
    5000001    1    1    2    0    0  0.48686840307E+02 -0.39573595369E+03  0.70956359363E+03  0.83788951949E+03  0.19900000000E+03 0.  0.
   -5000001    1    1    2    0    0 -0.48686840307E+02  0.39573595369E+03  0.32872254212E+01  0.44563343603E+03  0.19900000000E+03 0.  0.
<mgrwt>
<rscale>  0 0.10673682E+04</rscale>
<asrwt>0</asrwt>
<pdfrwt beam="1">  1        2 0.14259813E+00 0.10673682E+04</pdfrwt>
<pdfrwt beam="2">  1       -2 0.40762295E-01 0.10673682E+04</pdfrwt>
<totfact> 0.15942849E+02</totfact>
</mgrwt>
</event>
<event>
 4    1  0.4915183E-005  0.8098408E+03  0.7818608E-02  0.9545881E-01
         -2   -1    0    0    0  501 -0.00000000000E+00  0.00000000000E+00  0.12888388589E+03  0.12888388592E+03  0.25500000000E-02 0. -1.
          2   -1    0    0  501    0  0.00000000000E+00 -0.00000000000E+00 -0.12721570859E+04  0.12721570859E+04  0.25500000000E-02 0.  1.
    5000001    1    1    2    0    0 -0.14043616195E+03  0.32231579082E+03 -0.61900770190E+03  0.73917610866E+03  0.19900000000E+03 0.  0.
   -5000001    1    1    2    0    0  0.14043616195E+03 -0.32231579082E+03 -0.52426549815E+03  0.66186486321E+03  0.19900000000E+03 0.  0.
<mgrwt>
<rscale>  0 0.80984085E+03</rscale>
<asrwt>0</asrwt>
<pdfrwt beam="1">  1        2 0.18173672E+00 0.80984085E+03</pdfrwt>
<pdfrwt beam="2">  1       -2 0.18411984E-01 0.80984085E+03</pdfrwt>
<totfact> 0.48162452E+02</totfact>
</mgrwt>
</event>
<event>
 4    1  0.4915183E-005  0.5484459E+03  0.7818608E-02  0.1001854E+00
          2   -1    0    0  501    0  0.00000000000E+00  0.00000000000E+00  0.22560239120E+04  0.22560239120E+04  0.25500000000E-02 0.  1.
         -2   -1    0    0    0  501 -0.00000000000E+00 -0.00000000000E+00 -0.33332195639E+02  0.33332195737E+02  0.25500000000E-02 0. -1.
    5000001    1    1    2    0    0  0.11065836770E+03 -0.15256259463E+03  0.10748095380E+04  0.11092056448E+04  0.19900000000E+03 0.  0.
   -5000001    1    1    2    0    0 -0.11065836770E+03  0.15256259463E+03  0.11478821784E+04  0.11801504629E+04  0.19900000000E+03 0.  0.
<mgrwt>
<rscale>  0 0.54844592E+03</rscale>
<asrwt>0</asrwt>
<pdfrwt beam="1">  1        2 0.32228926E+00 0.54844592E+03</pdfrwt>
<pdfrwt beam="2">  1       -2 0.47617404E-02 0.54844592E+03</pdfrwt>
<totfact> 0.13671860E+03</totfact>
</mgrwt>
</event>
<event>
 4    1  0.4915183E-005  0.1003721E+04  0.7818608E-02  0.9304473E-01
          2   -1    0    0  501    0  0.00000000000E+00  0.00000000000E+00  0.16561398168E+04  0.16561398168E+04  0.25500000000E-02 0.  1.
         -2   -1    0    0    0  501 -0.00000000000E+00 -0.00000000000E+00 -0.15207895654E+03  0.15207895656E+03  0.25500000000E-02 0. -1.
    5000001    1    1    2    0    0  0.33951729872E+03 -0.11372536944E+03  0.22972287836E+03  0.46965844678E+03  0.19900000000E+03 0.  0.
   -5000001    1    1    2    0    0 -0.33951729872E+03  0.11372536944E+03  0.12743379819E+04  0.13385603266E+04  0.19900000000E+03 0.  0.
<mgrwt>
<rscale>  0 0.10037211E+04</rscale>
<asrwt>0</asrwt>
<pdfrwt beam="1">  1        2 0.23659139E+00 0.10037211E+04</pdfrwt>
<pdfrwt beam="2">  1       -2 0.21725566E-01 0.10037211E+04</pdfrwt>
<totfact> 0.22250564E+02</totfact>
</mgrwt>
</event>
<event>
 4    1  0.4915183E-005  0.4519538E+03  0.7818608E-02  0.1027141E+00
          2   -1    0    0  501    0  0.00000000000E+00  0.00000000000E+00  0.38316155170E+02  0.38316155255E+02  0.25500000000E-02 0.  1.
         -2   -1    0    0    0  501 -0.00000000000E+00 -0.00000000000E+00 -0.13327422619E+04  0.13327422619E+04  0.25500000000E-02 0. -1.
    5000001    1    1    2    0    0 -0.24325171476E+02  0.41723245173E+02 -0.93711107652E+03  0.95922401601E+03  0.19900000000E+03 0.  0.
   -5000001    1    1    2    0    0  0.24325171476E+02 -0.41723245173E+02 -0.35731503022E+03  0.41183440115E+03  0.19900000000E+03 0.  0.
<mgrwt>
<rscale>  0 0.45195380E+03</rscale>
<asrwt>0</asrwt>
<pdfrwt beam="1">  1        2 0.54737373E-02 0.45195380E+03</pdfrwt>
<pdfrwt beam="2">  1       -2 0.19039172E+00 0.45195380E+03</pdfrwt>
<totfact> 0.23132176E+02</totfact>
</mgrwt>
</event>
<event>
 4    1  0.4915183E-005  0.5327011E+03  0.7818608E-02  0.1005579E+00
         -2   -1    0    0    0  501 -0.00000000000E+00  0.00000000000E+00  0.10711034154E+03  0.10711034157E+03  0.25500000000E-02 0. -1.
          2   -1    0    0  501    0  0.00000000000E+00 -0.00000000000E+00 -0.66233204835E+03  0.66233204836E+03  0.25500000000E-02 0.  1.
    5000001    1    1    2    0    0  0.31601530895E+02 -0.80436517101E+02 -0.54435971070E+02  0.22368049755E+03  0.19900000000E+03 0.  0.
   -5000001    1    1    2    0    0 -0.31601530895E+02  0.80436517101E+02 -0.50078573575E+03  0.54576189237E+03  0.19900000000E+03 0.  0.
<mgrwt>
<rscale>  0 0.53270109E+03</rscale>
<asrwt>0</asrwt>
<pdfrwt beam="1">  1        2 0.94618862E-01 0.53270109E+03</pdfrwt>
<pdfrwt beam="2">  1       -2 0.15301478E-01 0.53270109E+03</pdfrwt>
<totfact> 0.16299909E+03</totfact>
</mgrwt>
</event>
<event>
 4    1  0.4915183E-005  0.5326676E+03  0.7818608E-02  0.1005587E+00
         -2   -1    0    0    0  501 -0.00000000000E+00  0.00000000000E+00  0.16061718178E+03  0.16061718181E+03  0.25500000000E-02 0. -1.
          2   -1    0    0  501    0  0.00000000000E+00 -0.00000000000E+00 -0.44163200371E+03  0.44163200371E+03  0.25500000000E-02 0.  1.
    5000001    1    1    2    0    0  0.14838648286E+03  0.15253644718E+02 -0.24825261136E+03  0.35139946075E+03  0.19900000000E+03 0.  0.
   -5000001    1    1    2    0    0 -0.14838648286E+03 -0.15253644718E+02 -0.32762210566E+02  0.25084972477E+03  0.19900000000E+03 0.  0.
<mgrwt>
<rscale>  0 0.53266758E+03</rscale>
<asrwt>0</asrwt>
<pdfrwt beam="1">  1        2 0.63090286E-01 0.53266758E+03</pdfrwt>
<pdfrwt beam="2">  1       -2 0.22945312E-01 0.53266758E+03</pdfrwt>
<totfact> 0.12928135E+03</totfact>
</mgrwt>
</event>
<event>
 4    1  0.4915183E-005  0.4552260E+03  0.7818608E-02  0.1026175E+00
         -2   -1    0    0    0  501 -0.00000000000E+00  0.00000000000E+00  0.16891357346E+02  0.16891357539E+02  0.25500000000E-02 0. -1.
          2   -1    0    0  501    0  0.00000000000E+00 -0.00000000000E+00 -0.30671120039E+04  0.30671120039E+04  0.25500000000E-02 0.  1.
    5000001    1    1    2    0    0 -0.42731742879E+02 -0.58837510168E+02 -0.20886235390E+04  0.20993420736E+04  0.19900000000E+03 0.  0.
   -5000001    1    1    2    0    0  0.42731742879E+02  0.58837510168E+02 -0.96159710754E+03  0.98466128780E+03  0.19900000000E+03 0.  0.
<mgrwt>
<rscale>  0 0.45522603E+03</rscale>
<asrwt>0</asrwt>
<pdfrwt beam="1">  1        2 0.43815850E+00 0.45522603E+03</pdfrwt>
<pdfrwt beam="2">  1       -2 0.24130530E-02 0.45522603E+03</pdfrwt>
<totfact> 0.14655550E+03</totfact>
</mgrwt>
</event>
<event>
 4    1  0.4915183E-005  0.5554975E+03  0.7818608E-02  0.1000229E+00
         -2   -1    0    0    0  501 -0.00000000000E+00  0.00000000000E+00  0.19285596585E+03  0.19285596586E+03  0.25500000000E-02 0. -1.
          2   -1    0    0  501    0  0.00000000000E+00 -0.00000000000E+00 -0.40001022413E+03  0.40001022414E+03  0.25500000000E-02 0.  1.
    5000001    1    1    2    0    0  0.16917934621E+03  0.78452149528E+02 -0.47436586303E+02  0.27681694433E+03  0.19900000000E+03 0.  0.
   -5000001    1    1    2    0    0 -0.16917934621E+03 -0.78452149528E+02 -0.15971767198E+03  0.31604924567E+03  0.19900000000E+03 0.  0.
<mgrwt>
<rscale>  0 0.55549746E+03</rscale>
<asrwt>0</asrwt>
<pdfrwt beam="1">  1        2 0.57144318E-01 0.55549746E+03</pdfrwt>
<pdfrwt beam="2">  1       -2 0.27550852E-01 0.55549746E+03</pdfrwt>
<totfact> 0.10394913E+03</totfact>
</mgrwt>
</event>
<event>
 4    1  0.4915183E-005  0.5890786E+03  0.7818608E-02  0.9928327E-01
         -2   -1    0    0    0  501 -0.00000000000E+00  0.00000000000E+00  0.32252386188E+02  0.32252386289E+02  0.25500000000E-02 0. -1.
          2   -1    0    0  501    0  0.00000000000E+00 -0.00000000000E+00 -0.26898284383E+04  0.26898284383E+04  0.25500000000E-02 0.  1.
    5000001    1    1    2    0    0 -0.43642799276E+01  0.11294981057E+03 -0.47203933986E+03  0.52459398111E+03  0.19900000000E+03 0.  0.
   -5000001    1    1    2    0    0  0.43642799276E+01 -0.11294981057E+03 -0.21855367123E+04  0.21974868435E+04  0.19900000000E+03 0.  0.
<mgrwt>
<rscale>  0 0.58907855E+03</rscale>
<asrwt>0</asrwt>
<pdfrwt beam="1">  1        2 0.38426106E+00 0.58907855E+03</pdfrwt>
<pdfrwt beam="2">  1       -2 0.46074855E-02 0.58907855E+03</pdfrwt>
<totfact> 0.86035214E+02</totfact>
</mgrwt>
</event>
<event>
 4    1  0.4915183E-005  0.9416335E+03  0.7818608E-02  0.9374984E-01
          2   -1    0    0  501    0  0.00000000000E+00  0.00000000000E+00  0.98098268004E+03  0.98098268005E+03  0.25500000000E-02 0.  1.
         -2   -1    0    0    0  501 -0.00000000000E+00 -0.00000000000E+00 -0.22596566709E+03  0.22596566711E+03  0.25500000000E-02 0. -1.
    5000001    1    1    2    0    0 -0.12111069161E+03 -0.36259747209E+03  0.13457291255E+03  0.45150370450E+03  0.19900000000E+03 0.  0.
   -5000001    1    1    2    0    0  0.12111069161E+03  0.36259747209E+03  0.62044410040E+03  0.75544464265E+03  0.19900000000E+03 0.  0.
<mgrwt>
<rscale>  0 0.94163349E+03</rscale>
<asrwt>0</asrwt>
<pdfrwt beam="1">  1        2 0.14014038E+00 0.94163349E+03</pdfrwt>
<pdfrwt beam="2">  1       -2 0.32280810E-01 0.94163349E+03</pdfrwt>
<totfact> 0.25744191E+02</totfact>
</mgrwt>
</event>
<event>
 4    1  0.4915183E-005  0.7712101E+03  0.7818608E-02  0.9602650E-01
         -2   -1    0    0    0  501 -0.00000000000E+00  0.00000000000E+00  0.25251260094E+03  0.25251260095E+03  0.25500000000E-02 0. -1.
          2   -1    0    0  501    0  0.00000000000E+00 -0.00000000000E+00 -0.58884689944E+03  0.58884689945E+03  0.25500000000E-02 0.  1.
    5000001    1    1    2    0    0  0.25452791437E+03  0.18121042285E+03 -0.28499968790E+03  0.46738367392E+03  0.19900000000E+03 0.  0.
   -5000001    1    1    2    0    0 -0.25452791437E+03 -0.18121042285E+03 -0.51334610603E+02  0.37397582648E+03  0.19900000000E+03 0.  0.
<mgrwt>
<rscale>  0 0.77121012E+03</rscale>
<asrwt>0</asrwt>
<pdfrwt beam="1">  1        2 0.84120985E-01 0.77121012E+03</pdfrwt>
<pdfrwt beam="2">  1       -2 0.36073229E-01 0.77121012E+03</pdfrwt>
<totfact> 0.40296554E+02</totfact>
</mgrwt>
</event>
<event>
 4    1  0.4915183E-005  0.4669195E+03  0.7818608E-02  0.1022793E+00
         -2   -1    0    0    0  501 -0.00000000000E+00  0.00000000000E+00  0.94273181692E+02  0.94273181726E+02  0.25500000000E-02 0. -1.
          2   -1    0    0  501    0  0.00000000000E+00 -0.00000000000E+00 -0.57814374779E+03  0.57814374780E+03  0.25500000000E-02 0.  1.
    5000001    1    1    2    0    0  0.95945035007E+02 -0.71516802207E+02 -0.27668792962E+03  0.36121643531E+03  0.19900000000E+03 0.  0.
   -5000001    1    1    2    0    0 -0.95945035007E+02  0.71516802207E+02 -0.20718263648E+03  0.31120049421E+03  0.19900000000E+03 0.  0.
<mgrwt>
<rscale>  0 0.46691948E+03</rscale>
<asrwt>0</asrwt>
<pdfrwt beam="1">  1        2 0.82591962E-01 0.46691948E+03</pdfrwt>
<pdfrwt beam="2">  1       -2 0.13467598E-01 0.46691948E+03</pdfrwt>
<totfact> 0.23661396E+03</totfact>
</mgrwt>
</event>
<event>
 4    1  0.4915183E-005  0.4598341E+03  0.7818608E-02  0.1024829E+00
         -2   -1    0    0    0  501 -0.00000000000E+00  0.00000000000E+00  0.17301025042E+03  0.17301025044E+03  0.25500000000E-02 0. -1.
          2   -1    0    0  501    0  0.00000000000E+00 -0.00000000000E+00 -0.30554177460E+03  0.30554177461E+03  0.25500000000E-02 0.  1.
    5000001    1    1    2    0    0  0.46200731343E+02  0.81108742164E+02  0.39161124422E+01  0.21983964967E+03  0.19900000000E+03 0.  0.
   -5000001    1    1    2    0    0 -0.46200731343E+02 -0.81108742164E+02 -0.13644763662E+03  0.25871237537E+03  0.19900000000E+03 0.  0.
<mgrwt>
<rscale>  0 0.45983414E+03</rscale>
<asrwt>0</asrwt>
<pdfrwt beam="1">  1        2 0.43648825E-01 0.45983414E+03</pdfrwt>
<pdfrwt beam="2">  1       -2 0.24715750E-01 0.45983414E+03</pdfrwt>
<totfact> 0.16993896E+03</totfact>
</mgrwt>
</event>
<event>
 4    1  0.4915183E-005  0.5590798E+03  0.7818608E-02  0.9994139E-01
          2   -1    0    0  501    0  0.00000000000E+00  0.00000000000E+00  0.45775768288E+03  0.45775768288E+03  0.25500000000E-02 0.  1.
         -2   -1    0    0    0  501 -0.00000000000E+00 -0.00000000000E+00 -0.17070726029E+03  0.17070726031E+03  0.25500000000E-02 0. -1.
    5000001    1    1    2    0    0 -0.17340185378E+03 -0.34778364475E+02  0.47719841246E+02  0.27047351215E+03  0.19900000000E+03 0.  0.
   -5000001    1    1    2    0    0  0.17340185378E+03  0.34778364475E+02  0.23933058134E+03  0.35799143104E+03  0.19900000000E+03 0.  0.
<mgrwt>
<rscale>  0 0.55907982E+03</rscale>
<asrwt>0</asrwt>
<pdfrwt beam="1">  1        2 0.65393954E-01 0.55907982E+03</pdfrwt>
<pdfrwt beam="2">  1       -2 0.24386752E-01 0.55907982E+03</pdfrwt>
<totfact> 0.11143667E+03</totfact>
</mgrwt>
</event>
<event>
 4    1  0.4915183E-005  0.9321329E+03  0.7818608E-02  0.9386282E-01
         -2   -1    0    0    0  501 -0.00000000000E+00  0.00000000000E+00  0.14547648173E+03  0.14547648175E+03  0.25500000000E-02 0. -1.
          2   -1    0    0  501    0  0.00000000000E+00 -0.00000000000E+00 -0.14931482212E+04  0.14931482212E+04  0.25500000000E-02 0.  1.
    5000001    1    1    2    0    0  0.25300972180E+03  0.23797493868E+03 -0.10934290419E+04  0.11644028772E+04  0.19900000000E+03 0.  0.
   -5000001    1    1    2    0    0 -0.25300972180E+03 -0.23797493868E+03 -0.25424269760E+03  0.47422182578E+03  0.19900000000E+03 0.  0.
<mgrwt>
<rscale>  0 0.93213293E+03</rscale>
<asrwt>0</asrwt>
<pdfrwt beam="1">  1        2 0.21330688E+00 0.93213293E+03</pdfrwt>
<pdfrwt beam="2">  1       -2 0.20782355E-01 0.93213293E+03</pdfrwt>
<totfact> 0.29420215E+02</totfact>
</mgrwt>
</event>
<event>
 4    1  0.4915183E-005  0.7942607E+03  0.7818608E-02  0.9568362E-01
         -2   -1    0    0    0  501 -0.00000000000E+00  0.00000000000E+00  0.11867950053E+04  0.11867950053E+04  0.25500000000E-02 0. -1.
          2   -1    0    0  501    0  0.00000000000E+00 -0.00000000000E+00 -0.13288944617E+03  0.13288944619E+03  0.25500000000E-02 0.  1.
    5000001    1    1    2    0    0 -0.21518481090E+03 -0.23699168230E+03  0.31914933746E+03  0.49388952198E+03  0.19900000000E+03 0.  0.
   -5000001    1    1    2    0    0  0.21518481090E+03  0.23699168230E+03  0.73475622166E+03  0.82579492950E+03  0.19900000000E+03 0.  0.
<mgrwt>
<rscale>  0 0.79426074E+03</rscale>
<asrwt>0</asrwt>
<pdfrwt beam="1">  1        2 0.18984207E-01 0.79426074E+03</pdfrwt>
<pdfrwt beam="2">  1       -2 0.16954214E+00 0.79426074E+03</pdfrwt>
<totfact> 0.65596119E+01</totfact>
</mgrwt>
</event>
<event>
 4    1  0.4915183E-005  0.1168976E+04  0.7818608E-02  0.9140454E-01
          2   -1    0    0  501    0  0.00000000000E+00  0.00000000000E+00  0.88643714220E+03  0.88643714221E+03  0.25500000000E-02 0.  1.
         -2   -1    0    0    0  501 -0.00000000000E+00 -0.00000000000E+00 -0.38539229307E+03  0.38539229308E+03  0.25500000000E-02 0. -1.
    5000001    1    1    2    0    0  0.44678509310E+03  0.18443307670E+03  0.53505227332E+03  0.74800696145E+03  0.19900000000E+03 0.  0.
   -5000001    1    1    2    0    0 -0.44678509310E+03 -0.18443307670E+03 -0.34007424185E+02  0.52382247384E+03  0.19900000000E+03 0.  0.
<mgrwt>
<rscale>  0 0.11689757E+04</rscale>
<asrwt>0</asrwt>
<pdfrwt beam="1">  1        2 0.12663387E+00 0.11689757E+04</pdfrwt>
<pdfrwt beam="2">  1       -2 0.55056043E-01 0.11689757E+04</pdfrwt>
<totfact> 0.10185212E+02</totfact>
</mgrwt>
</event>
<event>
 4    1  0.4915183E-005  0.5545468E+03  0.7818608E-02  0.1000447E+00
         -2   -1    0    0    0  501 -0.00000000000E+00  0.00000000000E+00  0.29580640071E+02  0.29580640180E+02  0.25500000000E-02 0. -1.
          2   -1    0    0  501    0  0.00000000000E+00 -0.00000000000E+00 -0.25990151891E+04  0.25990151891E+04  0.25500000000E-02 0.  1.
    5000001    1    1    2    0    0 -0.15455734389E+03 -0.13915863586E+02 -0.18292678156E+04  0.18465923656E+04  0.19900000000E+03 0.  0.
   -5000001    1    1    2    0    0  0.15455734389E+03  0.13915863586E+02 -0.74016673351E+03  0.78200346368E+03  0.19900000000E+03 0.  0.
<mgrwt>
<rscale>  0 0.55454678E+03</rscale>
<asrwt>0</asrwt>
<pdfrwt beam="1">  1        2 0.37128774E+00 0.55454678E+03</pdfrwt>
<pdfrwt beam="2">  1       -2 0.42258074E-02 0.55454678E+03</pdfrwt>
<totfact> 0.10987876E+03</totfact>
</mgrwt>
</event>
<event>
 4    1  0.4915183E-005  0.4955423E+03  0.7818608E-02  0.1014949E+00
         -2   -1    0    0    0  501 -0.00000000000E+00  0.00000000000E+00  0.31152086811E+02  0.31152086915E+02  0.25500000000E-02 0. -1.
          2   -1    0    0  501    0  0.00000000000E+00 -0.00000000000E+00 -0.19706720717E+04  0.19706720717E+04  0.25500000000E-02 0.  1.
    5000001    1    1    2    0    0 -0.82416762830E+01  0.12796206860E+03 -0.12651621917E+04  0.12871202693E+04  0.19900000000E+03 0.  0.
   -5000001    1    1    2    0    0  0.82416762830E+01 -0.12796206860E+03 -0.67435779316E+03  0.71470388933E+03  0.19900000000E+03 0.  0.
<mgrwt>
<rscale>  0 0.49554232E+03</rscale>
<asrwt>0</asrwt>
<pdfrwt beam="1">  1        2 0.28152450E+00 0.49554232E+03</pdfrwt>
<pdfrwt beam="2">  1       -2 0.44502994E-02 0.49554232E+03</pdfrwt>
<totfact> 0.21136822E+03</totfact>
</mgrwt>
</event>
<event>
 4    1  0.4915183E-005  0.6397478E+03  0.7818608E-02  0.9826209E-01
          2   -1    0    0  501    0  0.00000000000E+00  0.00000000000E+00  0.39730554751E+03  0.39730554752E+03  0.25500000000E-02 0.  1.
         -2   -1    0    0    0  501 -0.00000000000E+00 -0.00000000000E+00 -0.25753309047E+03  0.25753309048E+03  0.25500000000E-02 0. -1.
    5000001    1    1    2    0    0  0.66333436424E+01  0.14039456233E+03 -0.14228000150E+03  0.28213336067E+03  0.19900000000E+03 0.  0.
   -5000001    1    1    2    0    0 -0.66333436424E+01 -0.14039456233E+03  0.28205245854E+03  0.37270527733E+03  0.19900000000E+03 0.  0.
<mgrwt>
<rscale>  0 0.63974784E+03</rscale>
<asrwt>0</asrwt>
<pdfrwt beam="1">  1        2 0.56757935E-01 0.63974784E+03</pdfrwt>
<pdfrwt beam="2">  1       -2 0.36790442E-01 0.63974784E+03</pdfrwt>
<totfact> 0.60998889E+02</totfact>
</mgrwt>
</event>
<event>
 4    1  0.4915183E-005  0.6307582E+03  0.7818608E-02  0.9843570E-01
         -2   -1    0    0    0  501 -0.00000000000E+00  0.00000000000E+00  0.17909449617E+03  0.17909449618E+03  0.25500000000E-02 0. -1.
          2   -1    0    0  501    0  0.00000000000E+00 -0.00000000000E+00 -0.55537153962E+03  0.55537153963E+03  0.25500000000E-02 0.  1.
    5000001    1    1    2    0    0  0.17073790283E+03  0.15671757888E+03 -0.96814058066E+02  0.32044624016E+03  0.19900000000E+03 0.  0.
   -5000001    1    1    2    0    0 -0.17073790283E+03 -0.15671757888E+03 -0.27946298539E+03  0.41401979566E+03  0.19900000000E+03 0.  0.
<mgrwt>
<rscale>  0 0.63075823E+03</rscale>
<asrwt>0</asrwt>
<pdfrwt beam="1">  1        2 0.79338791E-01 0.63075823E+03</pdfrwt>
<pdfrwt beam="2">  1       -2 0.25584928E-01 0.63075823E+03</pdfrwt>
<totfact> 0.81957892E+02</totfact>
</mgrwt>
</event>
<event>
 4    1  0.4915183E-005  0.4685143E+03  0.7818608E-02  0.1022340E+00
          2   -1    0    0  501    0  0.00000000000E+00  0.00000000000E+00  0.49837402311E+03  0.49837402312E+03  0.25500000000E-02 0.  1.
         -2   -1    0    0    0  501 -0.00000000000E+00 -0.00000000000E+00 -0.11011090879E+03  0.11011090882E+03  0.25500000000E-02 0. -1.
    5000001    1    1    2    0    0 -0.10710754172E+03  0.56165050739E+02  0.16104827793E+03  0.28313263013E+03  0.19900000000E+03 0.  0.
   -5000001    1    1    2    0    0  0.10710754172E+03 -0.56165050739E+02  0.22721483639E+03  0.32535230181E+03  0.19900000000E+03 0.  0.
<mgrwt>
<rscale>  0 0.46851432E+03</rscale>
<asrwt>0</asrwt>
<pdfrwt beam="1">  1        2 0.71196290E-01 0.46851432E+03</pdfrwt>
<pdfrwt beam="2">  1       -2 0.15730130E-01 0.46851432E+03</pdfrwt>
<totfact> 0.21633848E+03</totfact>
</mgrwt>
</event>
<event>
 4    1  0.4915183E-005  0.7026850E+03  0.7818608E-02  0.9712651E-01
         -2   -1    0    0    0  501 -0.00000000000E+00  0.00000000000E+00  0.27401933958E+03  0.27401933959E+03  0.25500000000E-02 0. -1.
          2   -1    0    0  501    0  0.00000000000E+00 -0.00000000000E+00 -0.45048480444E+03  0.45048480444E+03  0.25500000000E-02 0.  1.
    5000001    1    1    2    0    0 -0.26790380533E+03  0.84514969492E+02 -0.16059254068E+03  0.37987654982E+03  0.19900000000E+03 0.  0.
   -5000001    1    1    2    0    0  0.26790380533E+03 -0.84514969492E+02 -0.15872924173E+02  0.34462759422E+03  0.19900000000E+03 0.  0.
<mgrwt>
<rscale>  0 0.70268499E+03</rscale>
<asrwt>0</asrwt>
<pdfrwt beam="1">  1        2 0.64354972E-01 0.70268499E+03</pdfrwt>
<pdfrwt beam="2">  1       -2 0.39145620E-01 0.70268499E+03</pdfrwt>
<totfact> 0.46958954E+02</totfact>
</mgrwt>
</event>
<event>
 4    1  0.4915183E-005  0.5214648E+03  0.7818608E-02  0.1008323E+00
          2   -1    0    0  501    0  0.00000000000E+00  0.00000000000E+00  0.34558015287E+03  0.34558015288E+03  0.25500000000E-02 0.  1.
         -2   -1    0    0    0  501 -0.00000000000E+00 -0.00000000000E+00 -0.19671666339E+03  0.19671666341E+03  0.25500000000E-02 0. -1.
    5000001    1    1    2    0    0 -0.15625334342E+03 -0.31084640351E+02  0.13138272718E+03  0.28678176929E+03  0.19900000000E+03 0.  0.
   -5000001    1    1    2    0    0  0.15625334342E+03  0.31084640351E+02  0.17480762297E+02  0.25551504700E+03  0.19900000000E+03 0.  0.
<mgrwt>
<rscale>  0 0.52146476E+03</rscale>
<asrwt>0</asrwt>
<pdfrwt beam="1">  1        2 0.49368593E-01 0.52146476E+03</pdfrwt>
<pdfrwt beam="2">  1       -2 0.28102381E-01 0.52146476E+03</pdfrwt>
<totfact> 0.11785419E+03</totfact>
</mgrwt>
</event>
<event>
 4    1  0.4915183E-005  0.5520276E+03  0.7818608E-02  0.1001026E+00
         -2   -1    0    0    0  501 -0.00000000000E+00  0.00000000000E+00  0.74652130669E+03  0.74652130669E+03  0.25500000000E-02 0. -1.
          2   -1    0    0  501    0  0.00000000000E+00 -0.00000000000E+00 -0.10205151001E+03  0.10205151005E+03  0.25500000000E-02 0.  1.
    5000001    1    1    2    0    0  0.17538255563E+03  0.37505302960E+02  0.42439679623E+03  0.50187581056E+03  0.19900000000E+03 0.  0.
   -5000001    1    1    2    0    0 -0.17538255563E+03 -0.37505302960E+02  0.22007300045E+03  0.34669700618E+03  0.19900000000E+03 0.  0.
<mgrwt>
<rscale>  0 0.55202763E+03</rscale>
<asrwt>0</asrwt>
<pdfrwt beam="1">  1        2 0.14578787E-01 0.55202763E+03</pdfrwt>
<pdfrwt beam="2">  1       -2 0.10664590E+00 0.55202763E+03</pdfrwt>
<totfact> 0.29753160E+02</totfact>
</mgrwt>
</event>
<event>
 4    1  0.4915183E-005  0.4395203E+03  0.7818608E-02  0.1030894E+00
          2   -1    0    0  501    0  0.00000000000E+00  0.00000000000E+00  0.64076270780E+03  0.64076270781E+03  0.25500000000E-02 0.  1.
         -2   -1    0    0    0  501 -0.00000000000E+00 -0.00000000000E+00 -0.75370356328E+02  0.75370356371E+02  0.25500000000E-02 0. -1.
    5000001    1    1    2    0    0  0.75136500476E+02 -0.51761080835E+02  0.31398695874E+03  0.38277083673E+03  0.19900000000E+03 0.  0.
   -5000001    1    1    2    0    0 -0.75136500476E+02  0.51761080835E+02  0.25140539274E+03  0.33336222745E+03  0.19900000000E+03 0.  0.
<mgrwt>
<rscale>  0 0.43952025E+03</rscale>
<asrwt>0</asrwt>
<pdfrwt beam="1">  1        2 0.91537524E-01 0.43952025E+03</pdfrwt>
<pdfrwt beam="2">  1       -2 0.10767194E-01 0.43952025E+03</pdfrwt>
<totfact> 0.30242997E+03</totfact>
</mgrwt>
</event>
<event>
 4    1  0.4915183E-005  0.7133330E+03  0.7818608E-02  0.9694699E-01
         -2   -1    0    0    0  501 -0.00000000000E+00  0.00000000000E+00  0.80499172522E+02  0.80499172562E+02  0.25500000000E-02 0. -1.
          2   -1    0    0  501    0  0.00000000000E+00 -0.00000000000E+00 -0.15802770549E+04  0.15802770549E+04  0.25500000000E-02 0.  1.
    5000001    1    1    2    0    0  0.27681602862E+03  0.26103768723E+02 -0.51358633997E+03  0.61699307050E+03  0.19900000000E+03 0.  0.
   -5000001    1    1    2    0    0 -0.27681602862E+03 -0.26103768723E+02 -0.98619154238E+03  0.10437831569E+04  0.19900000000E+03 0.  0.
<mgrwt>
<rscale>  0 0.71333301E+03</rscale>
<asrwt>0</asrwt>
<pdfrwt beam="1">  1        2 0.22575385E+00 0.71333301E+03</pdfrwt>
<pdfrwt beam="2">  1       -2 0.11499883E-01 0.71333301E+03</pdfrwt>
<totfact> 0.73284683E+02</totfact>
</mgrwt>
</event>
<event>
 4    1  0.4915183E-005  0.5492210E+03  0.7818608E-02  0.1001674E+00
          2   -1    0    0  501    0  0.00000000000E+00  0.00000000000E+00  0.16236780378E+04  0.16236780378E+04  0.25500000000E-02 0.  1.
         -2   -1    0    0    0  501 -0.00000000000E+00 -0.00000000000E+00 -0.46444508448E+02  0.46444508518E+02  0.25500000000E-02 0. -1.
    5000001    1    1    2    0    0  0.63281661592E+02 -0.15487657832E+03  0.10575013103E+04  0.10889909753E+04  0.19900000000E+03 0.  0.
   -5000001    1    1    2    0    0 -0.63281661592E+02  0.15487657832E+03  0.51973221909E+03  0.58113157096E+03  0.19900000000E+03 0.  0.
<mgrwt>
<rscale>  0 0.54922101E+03</rscale>
<asrwt>0</asrwt>
<pdfrwt beam="1">  1        2 0.23195395E+00 0.54922101E+03</pdfrwt>
<pdfrwt beam="2">  1       -2 0.66349313E-02 0.54922101E+03</pdfrwt>
<totfact> 0.16960323E+03</totfact>
</mgrwt>
</event>
<event>
 4    1  0.4915183E-005  0.7389405E+03  0.7818608E-02  0.9652863E-01
         -2   -1    0    0    0  501 -0.00000000000E+00  0.00000000000E+00  0.11765013302E+03  0.11765013305E+03  0.25500000000E-02 0. -1.
          2   -1    0    0  501    0  0.00000000000E+00 -0.00000000000E+00 -0.11602898742E+04  0.11602898742E+04  0.25500000000E-02 0.  1.
    5000001    1    1    2    0    0 -0.17503898628E+03  0.25686526989E+03 -0.49192760688E+03  0.61498958041E+03  0.19900000000E+03 0.  0.
   -5000001    1    1    2    0    0  0.17503898628E+03 -0.25686526989E+03 -0.55071213435E+03  0.66295042689E+03  0.19900000000E+03 0.  0.
<mgrwt>
<rscale>  0 0.73894048E+03</rscale>
<asrwt>0</asrwt>
<pdfrwt beam="1">  1        2 0.16575569E+00 0.73894048E+03</pdfrwt>
<pdfrwt beam="2">  1       -2 0.16807163E-01 0.73894048E+03</pdfrwt>
<totfact> 0.65335639E+02</totfact>
</mgrwt>
</event>
<event>
 4    1  0.4915183E-005  0.7750060E+03  0.7818608E-02  0.9596917E-01
          2   -1    0    0  501    0  0.00000000000E+00  0.00000000000E+00  0.12456476791E+04  0.12456476791E+04  0.25500000000E-02 0. -1.
         -2   -1    0    0    0  501 -0.00000000000E+00 -0.00000000000E+00 -0.12054658006E+03  0.12054658008E+03  0.25500000000E-02 0.  1.
    5000001    1    1    2    0    0 -0.93202677718E+02 -0.29437597427E+03  0.34511847818E+03  0.50403543263E+03  0.19900000000E+03 0.  0.
   -5000001    1    1    2    0    0  0.93202677718E+02  0.29437597427E+03  0.77998262082E+03  0.86215882652E+03  0.19900000000E+03 0.  0.
<mgrwt>
<rscale>  0 0.77500598E+03</rscale>
<asrwt>0</asrwt>
<pdfrwt beam="1">  1        2 0.17794966E+00 0.77500598E+03</pdfrwt>
<pdfrwt beam="2">  1       -2 0.17220941E-01 0.77500598E+03</pdfrwt>
<totfact> 0.56002293E+02</totfact>
</mgrwt>
</event>
<event>
 4    1  0.4915183E-005  0.6264378E+03  0.7818608E-02  0.9852025E-01
         -2   -1    0    0    0  501 -0.00000000000E+00  0.00000000000E+00  0.51253061461E+02  0.51253061525E+02  0.25500000000E-02 0. -1.
          2   -1    0    0  501    0  0.00000000000E+00 -0.00000000000E+00 -0.19141505419E+04  0.19141505419E+04  0.25500000000E-02 0.  1.
    5000001    1    1    2    0    0 -0.86864709710E+02  0.22573870066E+03 -0.93546252243E+03  0.98650624409E+03  0.19900000000E+03 0.  0.
   -5000001    1    1    2    0    0  0.86864709710E+02 -0.22573870066E+03 -0.92743495804E+03  0.97889735936E+03  0.19900000000E+03 0.  0.
<mgrwt>
<rscale>  0 0.62643779E+03</rscale>
<asrwt>0</asrwt>
<pdfrwt beam="1">  1        2 0.27345003E+00 0.62643779E+03</pdfrwt>
<pdfrwt beam="2">  1       -2 0.73218671E-02 0.62643779E+03</pdfrwt>
<totfact> 0.10312680E+03</totfact>
</mgrwt>
</event>
<event>
 4    1  0.4915183E-005  0.5350505E+03  0.7818608E-02  0.1005015E+00
         -2   -1    0    0    0  501 -0.00000000000E+00  0.00000000000E+00  0.28687242532E+02  0.28687242646E+02  0.25500000000E-02 0. -1.
          2   -1    0    0  501    0  0.00000000000E+00 -0.00000000000E+00 -0.24948288343E+04  0.24948288343E+04  0.25500000000E-02 0.  1.
    5000001    1    1    2    0    0  0.17463704511E+03  0.30043269351E+02 -0.11206594625E+04  0.11519024814E+04  0.19900000000E+03 0.  0.
   -5000001    1    1    2    0    0 -0.17463704511E+03 -0.30043269351E+02 -0.13454821293E+04  0.13716135956E+04  0.19900000000E+03 0.  0.
<mgrwt>
<rscale>  0 0.53505050E+03</rscale>
<asrwt>0</asrwt>
<pdfrwt beam="1">  1        2 0.35640398E+00 0.53505050E+03</pdfrwt>
<pdfrwt beam="2">  1       -2 0.40981791E-02 0.53505050E+03</pdfrwt>
<totfact> 0.13046388E+03</totfact>
</mgrwt>
</event>
<event>
 4    1  0.4915183E-005  0.4981310E+03  0.7818608E-02  0.1014268E+00
         -2   -1    0    0    0  501 -0.00000000000E+00  0.00000000000E+00  0.58567421116E+02  0.58567421171E+02  0.25500000000E-02 0. -1.
          2   -1    0    0  501    0  0.00000000000E+00 -0.00000000000E+00 -0.10591829395E+04  0.10591829395E+04  0.25500000000E-02 0.  1.
    5000001    1    1    2    0    0  0.93828548297E+02 -0.27136640729E+02 -0.75508961620E+03  0.78695712859E+03  0.19900000000E+03 0.  0.
   -5000001    1    1    2    0    0 -0.93828548297E+02  0.27136640729E+02 -0.24552590216E+03  0.33079323206E+03  0.19900000000E+03 0.  0.
<mgrwt>
<rscale>  0 0.49813096E+03</rscale>
<asrwt>0</asrwt>
<pdfrwt beam="1">  1        2 0.15131184E+00 0.49813096E+03</pdfrwt>
<pdfrwt beam="2">  1       -2 0.83667751E-02 0.49813096E+03</pdfrwt>
<totfact> 0.23735320E+03</totfact>
</mgrwt>
</event>
<event>
 4    1  0.4915183E-005  0.6575340E+03  0.7818608E-02  0.9792744E-01
         -2   -1    0    0    0  501 -0.00000000000E+00  0.00000000000E+00  0.21945489662E+03  0.21945489663E+03  0.25500000000E-02 0. -1.
          2   -1    0    0  501    0  0.00000000000E+00 -0.00000000000E+00 -0.49252832973E+03  0.49252832974E+03  0.25500000000E-02 0.  1.
    5000001    1    1    2    0    0 -0.57503170181E+02 -0.22881881812E+03 -0.13925305518E+02  0.30896533825E+03  0.19900000000E+03 0.  0.
   -5000001    1    1    2    0    0  0.57503170181E+02  0.22881881812E+03 -0.25914812760E+03  0.40301788812E+03  0.19900000000E+03 0.  0.
<mgrwt>
<rscale>  0 0.65753404E+03</rscale>
<asrwt>0</asrwt>
<pdfrwt beam="1">  1        2 0.70361190E-01 0.65753404E+03</pdfrwt>
<pdfrwt beam="2">  1       -2 0.31350700E-01 0.65753404E+03</pdfrwt>
<totfact> 0.64789947E+02</totfact>
</mgrwt>
</event>
<event>
 4    1  0.4915183E-005  0.4158346E+03  0.7818608E-02  0.1038431E+00
          2   -1    0    0  501    0  0.00000000000E+00  0.00000000000E+00  0.17268476776E+04  0.17268476776E+04  0.25500000000E-02 0.  1.
         -2   -1    0    0    0  501 -0.00000000000E+00 -0.00000000000E+00 -0.25033828261E+02  0.25033828391E+02  0.25500000000E-02 0. -1.
    5000001    1    1    2    0    0 -0.17514872774E+01 -0.46601538272E+02  0.10115425896E+04  0.10319855530E+04  0.19900000000E+03 0.  0.
   -5000001    1    1    2    0    0  0.17514872774E+01  0.46601538272E+02  0.69027125972E+03  0.71989595295E+03  0.19900000000E+03 0.  0.
<mgrwt>
<rscale>  0 0.41583462E+03</rscale>
<asrwt>0</asrwt>
<pdfrwt beam="1">  1        2 0.24669253E+00 0.41583462E+03</pdfrwt>
<pdfrwt beam="2">  1       -2 0.35762611E-02 0.41583462E+03</pdfrwt>
<totfact> 0.39127683E+03</totfact>
</mgrwt>
</event>
<event>
 4    1  0.4915183E-005  0.7625768E+03  0.7818608E-02  0.9615823E-01
          2   -1    0    0  501    0  0.00000000000E+00  0.00000000000E+00  0.21058749264E+04  0.21058749264E+04  0.25500000000E-02 0.  1.
         -2   -1    0    0    0  501 -0.00000000000E+00 -0.00000000000E+00 -0.69035845864E+02  0.69035845911E+02  0.25500000000E-02 0. -1.
    5000001    1    1    2    0    0  0.15986226911E+03  0.24325311286E+03  0.14322312864E+04  0.14749967727E+04  0.19900000000E+03 0.  0.
   -5000001    1    1    2    0    0 -0.15986226911E+03 -0.24325311286E+03  0.60460779418E+03  0.69991399956E+03  0.19900000000E+03 0.  0.
<mgrwt>
<rscale>  0 0.76257683E+03</rscale>
<asrwt>0</asrwt>
<pdfrwt beam="1">  1        2 0.30083929E+00 0.76257683E+03</pdfrwt>
<pdfrwt beam="2">  1       -2 0.98622632E-02 0.76257683E+03</pdfrwt>
<totfact> 0.50736120E+02</totfact>
</mgrwt>
</event>
<event>
 4    1  0.4915183E-005  0.6668194E+03  0.7818608E-02  0.9775721E-01
         -2   -1    0    0    0  501 -0.00000000000E+00  0.00000000000E+00  0.50073127039E+02  0.50073127104E+02  0.25500000000E-02 0. -1.
          2   -1    0    0  501    0  0.00000000000E+00 -0.00000000000E+00 -0.22199936559E+04  0.22199936559E+04  0.25500000000E-02 0.  1.
    5000001    1    1    2    0    0 -0.50649045730E+02  0.15113815103E+03 -0.18163185476E+04  0.18341270765E+04  0.19900000000E+03 0.  0.
   -5000001    1    1    2    0    0  0.50649045730E+02 -0.15113815103E+03 -0.35360198130E+03  0.43593970651E+03  0.19900000000E+03 0.  0.
<mgrwt>
<rscale>  0 0.66681939E+03</rscale>
<asrwt>0</asrwt>
<pdfrwt beam="1">  1        2 0.31714189E+00 0.66681939E+03</pdfrwt>
<pdfrwt beam="2">  1       -2 0.71533053E-02 0.66681939E+03</pdfrwt>
<totfact> 0.74858860E+02</totfact>
</mgrwt>
</event>
<event>
 4    1  0.4915183E-005  0.7631886E+03  0.7818608E-02  0.9614884E-01
          2   -1    0    0  501    0  0.00000000000E+00  0.00000000000E+00  0.12819676464E+04  0.12819676464E+04  0.25500000000E-02 0.  1.
         -2   -1    0    0    0  501 -0.00000000000E+00 -0.00000000000E+00 -0.11358650739E+03  0.11358650742E+03  0.25500000000E-02 0. -1.
    5000001    1    1    2    0    0  0.90379138335E+02  0.27305819286E+03  0.86321624516E+03  0.93138201144E+03  0.19900000000E+03 0.  0.
   -5000001    1    1    2    0    0 -0.90379138335E+02 -0.27305819286E+03  0.30516489390E+03  0.46417214242E+03  0.19900000000E+03 0.  0.
<mgrwt>
<rscale>  0 0.76318865E+03</rscale>
<asrwt>0</asrwt>
<pdfrwt beam="1">  1        2 0.18313822E+00 0.76318865E+03</pdfrwt>
<pdfrwt beam="2">  1       -2 0.16226646E-01 0.76318865E+03</pdfrwt>
<totfact> 0.59225403E+02</totfact>
</mgrwt>
</event>
<event>
 4    1  0.4915183E-005  0.8988496E+03  0.7818608E-02  0.9427021E-01
         -2   -1    0    0    0  501 -0.00000000000E+00  0.00000000000E+00  0.75931431441E+03  0.75931431442E+03  0.25500000000E-02 0. -1.
          2   -1    0    0  501    0  0.00000000000E+00 -0.00000000000E+00 -0.26600665035E+03  0.26600665037E+03  0.25500000000E-02 0.  1.
    5000001    1    1    2    0    0  0.42925431407E+02 -0.38260803046E+03  0.38234559091E+03  0.57794519508E+03  0.19900000000E+03 0.  0.
   -5000001    1    1    2    0    0 -0.42925431407E+02  0.38260803046E+03  0.11096207315E+03  0.44737576970E+03  0.19900000000E+03 0.  0.
<mgrwt>
<rscale>  0 0.89884961E+03</rscale>
<asrwt>0</asrwt>
<pdfrwt beam="1">  1        2 0.38000950E-01 0.89884961E+03</pdfrwt>
<pdfrwt beam="2">  1       -2 0.10847347E+00 0.89884961E+03</pdfrwt>
<totfact> 0.93018278E+01</totfact>
</mgrwt>
</event>
<event>
 4    1  0.4915183E-005  0.9292013E+03  0.7818608E-02  0.9389797E-01
         -2   -1    0    0    0  501 -0.00000000000E+00  0.00000000000E+00  0.35113192638E+03  0.35113192639E+03  0.25500000000E-02 0. -1.
          2   -1    0    0  501    0  0.00000000000E+00 -0.00000000000E+00 -0.61473693023E+03  0.61473693024E+03  0.25500000000E-02 0.  1.
    5000001    1    1    2    0    0 -0.23879263485E+03  0.32868257249E+03 -0.21803093313E+02  0.45291338112E+03  0.19900000000E+03 0.  0.
   -5000001    1    1    2    0    0  0.23879263485E+03 -0.32868257249E+03 -0.24180191054E+03  0.51295547551E+03  0.19900000000E+03 0.  0.
<mgrwt>
<rscale>  0 0.92920130E+03</rscale>
<asrwt>0</asrwt>
<pdfrwt beam="1">  1        2 0.87819561E-01 0.92920130E+03</pdfrwt>
<pdfrwt beam="2">  1       -2 0.50161704E-01 0.92920130E+03</pdfrwt>
<totfact> 0.19847156E+02</totfact>
</mgrwt>
</event>
<event>
 4    1  0.4915183E-005  0.5636451E+03  0.7818608E-02  0.9983841E-01
         -2   -1    0    0    0  501 -0.00000000000E+00  0.00000000000E+00  0.10113694622E+03  0.10113694625E+03  0.25500000000E-02 0. -1.
          2   -1    0    0  501    0  0.00000000000E+00 -0.00000000000E+00 -0.78531090323E+03  0.78531090323E+03  0.25500000000E-02 0.  1.
    5000001    1    1    2    0    0  0.18582741427E+03 -0.19482099829E+02 -0.45230623507E+03  0.52829282637E+03  0.19900000000E+03 0.  0.
   -5000001    1    1    2    0    0 -0.18582741427E+03  0.19482099829E+02 -0.23186772194E+03  0.35815502311E+03  0.19900000000E+03 0.  0.
<mgrwt>
<rscale>  0 0.56364509E+03</rscale>
<asrwt>0</asrwt>
<pdfrwt beam="1">  1        2 0.11218727E+00 0.56364509E+03</pdfrwt>
<pdfrwt beam="2">  1       -2 0.14448136E-01 0.56364509E+03</pdfrwt>
<totfact> 0.14549423E+03</totfact>
</mgrwt>
</event>
<event>
 4    1  0.4915183E-005  0.1058641E+04  0.7818608E-02  0.9246468E-01
         -2   -1    0    0    0  501 -0.00000000000E+00  0.00000000000E+00  0.88829413289E+03  0.88829413289E+03  0.25500000000E-02 0. -1.
          2   -1    0    0  501    0  0.00000000000E+00 -0.00000000000E+00 -0.31541393286E+03  0.31541393287E+03  0.25500000000E-02 0.  1.
    5000001    1    1    2    0    0  0.46510227518E+03  0.12823498262E+03  0.38695653536E+03  0.64969277155E+03  0.19900000000E+03 0.  0.
   -5000001    1    1    2    0    0 -0.46510227518E+03 -0.12823498262E+03  0.18592366467E+03  0.55401529422E+03  0.19900000000E+03 0.  0.
<mgrwt>
<rscale>  0 0.10586413E+04</rscale>
<asrwt>0</asrwt>
<pdfrwt beam="1">  1        2 0.45059132E-01 0.10586413E+04</pdfrwt>
<pdfrwt beam="2">  1       -2 0.12689917E+00 0.10586413E+04</pdfrwt>
<totfact> 0.51820702E+01</totfact>
</mgrwt>
</event>
<event>
 4    1  0.4915183E-005  0.1360829E+04  0.7818608E-02  0.8982671E-01
          2   -1    0    0  501    0  0.00000000000E+00  0.00000000000E+00  0.21443641009E+04  0.21443641009E+04  0.25500000000E-02 0.  1.
         -2   -1    0    0    0  501 -0.00000000000E+00 -0.00000000000E+00 -0.21589814181E+03  0.21589814183E+03  0.25500000000E-02 0. -1.
    5000001    1    1    2    0    0  0.30667890786E+03 -0.46137812877E+03  0.15560813178E+04  0.16637042399E+04  0.19900000000E+03 0.  0.
   -5000001    1    1    2    0    0 -0.30667890786E+03  0.46137812877E+03  0.37238464127E+03  0.69655800281E+03  0.19900000000E+03 0.  0.
<mgrwt>
<rscale>  0 0.13608295E+04</rscale>
<asrwt>0</asrwt>
<pdfrwt beam="1">  1        2 0.30633772E+00 0.13608295E+04</pdfrwt>
<pdfrwt beam="2">  1       -2 0.30842592E-01 0.13608295E+04</pdfrwt>
<totfact> 0.64308442E+01</totfact>
</mgrwt>
</event>
<event>
 4    1  0.4915183E-005  0.6970623E+03  0.7818608E-02  0.9722269E-01
         -2   -1    0    0    0  501 -0.00000000000E+00  0.00000000000E+00  0.11873382188E+03  0.11873382191E+03  0.25500000000E-02 0. -1.
          2   -1    0    0  501    0  0.00000000000E+00 -0.00000000000E+00 -0.10230780800E+04  0.10230780800E+04  0.25500000000E-02 0.  1.
    5000001    1    1    2    0    0  0.12514311121E+03  0.24742495113E+03 -0.33642596645E+03  0.47923202692E+03  0.19900000000E+03 0.  0.
   -5000001    1    1    2    0    0 -0.12514311121E+03 -0.24742495113E+03 -0.56791829167E+03  0.66257987499E+03  0.19900000000E+03 0.  0.
<mgrwt>
<rscale>  0 0.69706232E+03</rscale>
<asrwt>0</asrwt>
<pdfrwt beam="1">  1        2 0.14615401E+00 0.69706232E+03</pdfrwt>
<pdfrwt beam="2">  1       -2 0.16961975E-01 0.69706232E+03</pdfrwt>
<totfact> 0.77564481E+02</totfact>
</mgrwt>
</event>
<event>
 4    1  0.4915183E-005  0.1363658E+04  0.7818608E-02  0.8980553E-01
         -2   -1    0    0    0  501 -0.00000000000E+00  0.00000000000E+00  0.25368110695E+04  0.25368110695E+04  0.25500000000E-02 0. -1.
          2   -1    0    0  501    0  0.00000000000E+00 -0.00000000000E+00 -0.18325799232E+03  0.18325799234E+03  0.25500000000E-02 0.  1.
    5000001    1    1    2    0    0  0.41847908899E+03 -0.43849106929E+03  0.16567077043E+04  0.17752973225E+04  0.19900000000E+03 0.  0.
   -5000001    1    1    2    0    0 -0.41847908899E+03  0.43849106929E+03  0.69684537287E+03  0.94477173934E+03  0.19900000000E+03 0.  0.
<mgrwt>
<rscale>  0 0.13636582E+04</rscale>
<asrwt>0</asrwt>
<pdfrwt beam="1">  1        2 0.26179715E-01 0.13636582E+04</pdfrwt>
<pdfrwt beam="2">  1       -2 0.36240155E+00 0.13636582E+04</pdfrwt>
<totfact> 0.26689382E+00</totfact>
</mgrwt>
</event>
<event>
 4    1  0.4915183E-005  0.5739172E+03  0.7818608E-02  0.9961048E-01
         -2   -1    0    0    0  501 -0.00000000000E+00  0.00000000000E+00  0.77437960301E+02  0.77437960343E+02  0.25500000000E-02 0. -1.
          2   -1    0    0  501    0  0.00000000000E+00 -0.00000000000E+00 -0.10633703086E+04  0.10633703086E+04  0.25500000000E-02 0.  1.
    5000001    1    1    2    0    0  0.12840462109E+03  0.16203787302E+03 -0.49205796512E+03  0.56961922374E+03  0.19900000000E+03 0.  0.
   -5000001    1    1    2    0    0 -0.12840462109E+03 -0.16203787302E+03 -0.49387438321E+03  0.57118904524E+03  0.19900000000E+03 0.  0.
<mgrwt>
<rscale>  0 0.57391716E+03</rscale>
<asrwt>0</asrwt>
<pdfrwt beam="1">  1        2 0.15191004E+00 0.57391716E+03</pdfrwt>
<pdfrwt beam="2">  1       -2 0.11062566E-01 0.57391716E+03</pdfrwt>
<totfact> 0.15032031E+03</totfact>
</mgrwt>
</event>
<event>
 4    1  0.4915183E-005  0.6455052E+03  0.7818608E-02  0.9815250E-01
          2   -1    0    0  501    0  0.00000000000E+00  0.00000000000E+00  0.50646515424E+03  0.50646515424E+03  0.25500000000E-02 0.  1.
         -2   -1    0    0    0  501 -0.00000000000E+00 -0.00000000000E+00 -0.20567899329E+03  0.20567899331E+03  0.25500000000E-02 0. -1.
    5000001    1    1    2    0    0  0.11596940855E+02 -0.24700058978E+03  0.85832953140E+02  0.32880400885E+03  0.19900000000E+03 0.  0.
   -5000001    1    1    2    0    0 -0.11596940855E+02  0.24700058978E+03  0.21495320781E+03  0.38334013870E+03  0.19900000000E+03 0.  0.
<mgrwt>
<rscale>  0 0.64550521E+03</rscale>
<asrwt>0</asrwt>
<pdfrwt beam="1">  1        2 0.72352164E-01 0.64550521E+03</pdfrwt>
<pdfrwt beam="2">  1       -2 0.29382714E-01 0.64550521E+03</pdfrwt>
<totfact> 0.70790431E+02</totfact>
</mgrwt>
</event>
<event>
 4    1  0.4915183E-005  0.9412415E+03  0.7818608E-02  0.9375447E-01
         -2   -1    0    0    0  501 -0.00000000000E+00  0.00000000000E+00  0.34167461346E+03  0.34167461347E+03  0.25500000000E-02 0. -1.
          2   -1    0    0  501    0  0.00000000000E+00 -0.00000000000E+00 -0.64823049407E+03  0.64823049408E+03  0.25500000000E-02 0.  1.
    5000001    1    1    2    0    0  0.37153702198E+03 -0.16907841568E+03 -0.23378398992E+02  0.45472499259E+03  0.19900000000E+03 0.  0.
   -5000001    1    1    2    0    0 -0.37153702198E+03  0.16907841568E+03 -0.28317748162E+03  0.53518011496E+03  0.19900000000E+03 0.  0.
<mgrwt>
<rscale>  0 0.94124153E+03</rscale>
<asrwt>0</asrwt>
<pdfrwt beam="1">  1        2 0.92604356E-01 0.94124153E+03</pdfrwt>
<pdfrwt beam="2">  1       -2 0.48810659E-01 0.94124153E+03</pdfrwt>
<totfact> 0.19671264E+02</totfact>
</mgrwt>
</event>
<event>
 4    1  0.4915183E-005  0.5229413E+03  0.7818608E-02  0.1007958E+00
          2   -1    0    0  501    0  0.00000000000E+00  0.00000000000E+00  0.16478659764E+04  0.16478659764E+04  0.25500000000E-02 0.  1.
         -2   -1    0    0    0  501 -0.00000000000E+00 -0.00000000000E+00 -0.41488147833E+02  0.41488147912E+02  0.25500000000E-02 0. -1.
    5000001    1    1    2    0    0  0.14214594103E+03  0.78223740370E+02  0.96281166159E+03  0.99645959166E+03  0.19900000000E+03 0.  0.
   -5000001    1    1    2    0    0 -0.14214594103E+03 -0.78223740370E+02  0.64356616697E+03  0.69289453265E+03  0.19900000000E+03 0.  0.
<mgrwt>
<rscale>  0 0.52294132E+03</rscale>
<asrwt>0</asrwt>
<pdfrwt beam="1">  1        2 0.23540938E+00 0.52294132E+03</pdfrwt>
<pdfrwt beam="2">  1       -2 0.59268793E-02 0.52294132E+03</pdfrwt>
<totfact> 0.19688993E+03</totfact>
</mgrwt>
</event>
<event>
 4    1  0.4915183E-005  0.4772436E+03  0.7818608E-02  0.1019895E+00
          2   -1    0    0  501    0  0.00000000000E+00  0.00000000000E+00  0.32294049097E+02  0.32294049197E+02  0.25500000000E-02 0.  1.
         -2   -1    0    0    0  501 -0.00000000000E+00 -0.00000000000E+00 -0.17631843762E+04  0.17631843762E+04  0.25500000000E-02 0. -1.
    5000001    1    1    2    0    0 -0.17613855641E+02  0.13049488045E+03 -0.86713257020E+03  0.89936591888E+03  0.19900000000E+03 0.  0.
   -5000001    1    1    2    0    0  0.17613855641E+02 -0.13049488045E+03 -0.86375775688E+03  0.89611250650E+03  0.19900000000E+03 0.  0.
<mgrwt>
<rscale>  0 0.47724360E+03</rscale>
<asrwt>0</asrwt>
<pdfrwt beam="1">  1        2 0.46134367E-02 0.47724360E+03</pdfrwt>
<pdfrwt beam="2">  1       -2 0.25188342E+00 0.47724360E+03</pdfrwt>
<totfact> 0.12079998E+02</totfact>
</mgrwt>
</event>
<event>
 4    1  0.4915183E-005  0.8467758E+03  0.7818608E-02  0.9494675E-01
         -2   -1    0    0    0  501 -0.00000000000E+00  0.00000000000E+00  0.22392991911E+03  0.22392991912E+03  0.25500000000E-02 0. -1.
          2   -1    0    0  501    0  0.00000000000E+00 -0.00000000000E+00 -0.80050632164E+03  0.80050632164E+03  0.25500000000E-02 0.  1.
    5000001    1    1    2    0    0 -0.32675851148E+02 -0.35749023820E+03 -0.16262335151E+03  0.44149103741E+03  0.19900000000E+03 0.  0.
   -5000001    1    1    2    0    0  0.32675851148E+02  0.35749023820E+03 -0.41395305103E+03  0.58294520335E+03  0.19900000000E+03 0.  0.
<mgrwt>
<rscale>  0 0.84677580E+03</rscale>
<asrwt>0</asrwt>
<pdfrwt beam="1">  1        2 0.11435804E+00 0.84677580E+03</pdfrwt>
<pdfrwt beam="2">  1       -2 0.31989989E-01 0.84677580E+03</pdfrwt>
<totfact> 0.34579872E+02</totfact>
</mgrwt>
</event>
<event>
 4    1  0.4915183E-005  0.6570706E+03  0.7818608E-02  0.9793601E-01
          2   -1    0    0  501    0  0.00000000000E+00  0.00000000000E+00  0.52789837257E+03  0.52789837258E+03  0.25500000000E-02 0.  1.
         -2   -1    0    0    0  501 -0.00000000000E+00 -0.00000000000E+00 -0.20446254563E+03  0.20446254565E+03  0.25500000000E-02 0. -1.
    5000001    1    1    2    0    0 -0.11974474513E+03  0.23095370723E+03  0.13317004259E+03  0.35357273525E+03  0.19900000000E+03 0.  0.
   -5000001    1    1    2    0    0  0.11974474513E+03 -0.23095370723E+03  0.19026578436E+03  0.37878818298E+03  0.19900000000E+03 0.  0.
<mgrwt>
<rscale>  0 0.65707061E+03</rscale>
<asrwt>0</asrwt>
<pdfrwt beam="1">  1        2 0.75414053E-01 0.65707061E+03</pdfrwt>
<pdfrwt beam="2">  1       -2 0.29208935E-01 0.65707061E+03</pdfrwt>
<totfact> 0.68230291E+02</totfact>
</mgrwt>
</event>
<event>
 4    1  0.4915183E-005  0.6474656E+03  0.7818608E-02  0.9811546E-01
         -2   -1    0    0    0  501 -0.00000000000E+00  0.00000000000E+00  0.12677383786E+03  0.12677383789E+03  0.25500000000E-02 0. -1.
          2   -1    0    0  501    0  0.00000000000E+00 -0.00000000000E+00 -0.82669217659E+03  0.82669217659E+03  0.25500000000E-02 0.  1.
    5000001    1    1    2    0    0  0.11462857598E+03 -0.18989589496E+03 -0.53624190962E+03  0.61347905179E+03  0.19900000000E+03 0.  0.
   -5000001    1    1    2    0    0 -0.11462857598E+03  0.18989589496E+03 -0.16367642910E+03  0.33998696269E+03  0.19900000000E+03 0.  0.
<mgrwt>
<rscale>  0 0.64746564E+03</rscale>
<asrwt>0</asrwt>
<pdfrwt beam="1">  1        2 0.11809888E+00 0.64746564E+03</pdfrwt>
<pdfrwt beam="2">  1       -2 0.18110549E-01 0.64746564E+03</pdfrwt>
<totfact> 0.92698512E+02</totfact>
</mgrwt>
</event>
<event>
 4    1  0.4915183E-005  0.5597504E+03  0.7818608E-02  0.9992620E-01
         -2   -1    0    0    0  501 -0.00000000000E+00  0.00000000000E+00  0.33565685272E+02  0.33565685369E+02  0.25500000000E-02 0. -1.
          2   -1    0    0  501    0  0.00000000000E+00 -0.00000000000E+00 -0.23336373134E+04  0.23336373134E+04  0.25500000000E-02 0.  1.
    5000001    1    1    2    0    0 -0.14165795277E+03 -0.13495196580E+03 -0.12397598143E+04  0.12707810220E+04  0.19900000000E+03 0.  0.
   -5000001    1    1    2    0    0  0.14165795277E+03  0.13495196580E+03 -0.10603118138E+04  0.10964219768E+04  0.19900000000E+03 0.  0.
<mgrwt>
<rscale>  0 0.55975043E+03</rscale>
<asrwt>0</asrwt>
<pdfrwt beam="1">  1        2 0.33337666E+00 0.55975043E+03</pdfrwt>
<pdfrwt beam="2">  1       -2 0.47950994E-02 0.55975043E+03</pdfrwt>
<totfact> 0.12350225E+03</totfact>
</mgrwt>
</event>
<event>
 4    1  0.4915183E-005  0.1049139E+04  0.7818608E-02  0.9256233E-01
         -2   -1    0    0    0  501 -0.00000000000E+00  0.00000000000E+00  0.26495343836E+03  0.26495343838E+03  0.25500000000E-02 0. -1.
          2   -1    0    0  501    0  0.00000000000E+00 -0.00000000000E+00 -0.10385725799E+04  0.10385725799E+04  0.25500000000E-02 0.  1.
    5000001    1    1    2    0    0  0.12110614737E+03 -0.15777191875E+03 -0.93689445893E+03  0.97822845207E+03  0.19900000000E+03 0.  0.
   -5000001    1    1    2    0    0 -0.12110614737E+03  0.15777191875E+03  0.16327531743E+03  0.32529756617E+03  0.19900000000E+03 0.  0.
<mgrwt>
<rscale>  0 0.10491394E+04</rscale>
<asrwt>0</asrwt>
<pdfrwt beam="1">  1        2 0.14836751E+00 0.10491394E+04</pdfrwt>
<pdfrwt beam="2">  1       -2 0.37850492E-01 0.10491394E+04</pdfrwt>
<totfact> 0.17415343E+02</totfact>
</mgrwt>
</event>
<event>
 4    1  0.4915183E-005  0.9805709E+03  0.7818608E-02  0.9330115E-01
          2   -1    0    0  501    0  0.00000000000E+00  0.00000000000E+00  0.14283637267E+04  0.14283637267E+04  0.25500000000E-02 0.  1.
         -2   -1    0    0    0  501 -0.00000000000E+00 -0.00000000000E+00 -0.16829033559E+03  0.16829033561E+03  0.25500000000E-02 0. -1.
    5000001    1    1    2    0    0  0.15309123387E+03  0.15470952618E+03  0.12677921956E+04  0.13016412773E+04  0.19900000000E+03 0.  0.
   -5000001    1    1    2    0    0 -0.15309123387E+03 -0.15470952618E+03 -0.77188045559E+01  0.29501278502E+03  0.19900000000E+03 0.  0.
<mgrwt>
<rscale>  0 0.98057088E+03</rscale>
<asrwt>0</asrwt>
<pdfrwt beam="1">  1        2 0.20405197E+00 0.98057088E+03</pdfrwt>
<pdfrwt beam="2">  1       -2 0.24041475E-01 0.98057088E+03</pdfrwt>
<totfact> 0.24508132E+02</totfact>
</mgrwt>
</event>
<event>
 4    1  0.4915183E-005  0.8374116E+03  0.7818608E-02  0.9507390E-01
          2   -1    0    0  501    0  0.00000000000E+00  0.00000000000E+00  0.23880350110E+04  0.23880350110E+04  0.25500000000E-02 0.  1.
         -2   -1    0    0    0  501 -0.00000000000E+00 -0.00000000000E+00 -0.73413720767E+02  0.73413720811E+02  0.25500000000E-02 0. -1.
    5000001    1    1    2    0    0  0.31699628816E+03 -0.16529275171E+02  0.60777199989E+03  0.71396615291E+03  0.19900000000E+03 0.  0.
   -5000001    1    1    2    0    0 -0.31699628816E+03  0.16529275171E+02  0.17068492903E+04  0.17474825789E+04  0.19900000000E+03 0.  0.
<mgrwt>
<rscale>  0 0.83741157E+03</rscale>
<asrwt>0</asrwt>
<pdfrwt beam="1">  1        2 0.34114783E+00 0.83741157E+03</pdfrwt>
<pdfrwt beam="2">  1       -2 0.10487675E-01 0.83741157E+03</pdfrwt>
<totfact> 0.32778458E+02</totfact>
</mgrwt>
</event>
<event>
 4    1  0.4915183E-005  0.7579147E+03  0.7818608E-02  0.9623015E-01
          2   -1    0    0  501    0  0.00000000000E+00  0.00000000000E+00  0.21124037209E+04  0.21124037209E+04  0.25500000000E-02 0.  1.
         -2   -1    0    0    0  501 -0.00000000000E+00 -0.00000000000E+00 -0.67983539796E+02  0.67983539843E+02  0.25500000000E-02 0. -1.
    5000001    1    1    2    0    0 -0.20715705952E+03 -0.19062339576E+03  0.56956621104E+03  0.66577623499E+03  0.19900000000E+03 0.  0.
   -5000001    1    1    2    0    0  0.20715705952E+03  0.19062339576E+03  0.14748539701E+04  0.15146110258E+04  0.19900000000E+03 0.  0.
<mgrwt>
<rscale>  0 0.75791472E+03</rscale>
<asrwt>0</asrwt>
<pdfrwt beam="1">  1        2 0.30177194E+00 0.75791472E+03</pdfrwt>
<pdfrwt beam="2">  1       -2 0.97119349E-02 0.75791472E+03</pdfrwt>
<totfact> 0.51640353E+02</totfact>
</mgrwt>
</event>
<event>
 4    1  0.4915183E-005  0.8682314E+03  0.7818608E-02  0.9466189E-01
         -2   -1    0    0    0  501 -0.00000000000E+00  0.00000000000E+00  0.53103899404E+03  0.53103899404E+03  0.25500000000E-02 0. -1.
          2   -1    0    0  501    0  0.00000000000E+00 -0.00000000000E+00 -0.35488249696E+03  0.35488249697E+03  0.25500000000E-02 0.  1.
    5000001    1    1    2    0    0 -0.23396517695E+03 -0.11008056214E+03 -0.20410909601E+03  0.38486225752E+03  0.19900000000E+03 0.  0.
   -5000001    1    1    2    0    0  0.23396517695E+03  0.11008056214E+03  0.38026559309E+03  0.50105923350E+03  0.19900000000E+03 0.  0.
<mgrwt>
<rscale>  0 0.86823141E+03</rscale>
<asrwt>0</asrwt>
<pdfrwt beam="1">  1        2 0.50697500E-01 0.86823141E+03</pdfrwt>
<pdfrwt beam="2">  1       -2 0.75862713E-01 0.86823141E+03</pdfrwt>
<totfact> 0.15472805E+02</totfact>
</mgrwt>
</event>
<event>
 4    1  0.4915183E-005  0.5955572E+03  0.7818608E-02  0.9914667E-01
         -2   -1    0    0    0  501 -0.00000000000E+00  0.00000000000E+00  0.31999348474E+03  0.31999348475E+03  0.25500000000E-02 0. -1.
          2   -1    0    0  501    0  0.00000000000E+00 -0.00000000000E+00 -0.27710595521E+03  0.27710595522E+03  0.25500000000E-02 0.  1.
    5000001    1    1    2    0    0  0.69835608678E+02 -0.20210438106E+03  0.79454700985E+02  0.30271643925E+03  0.19900000000E+03 0.  0.
   -5000001    1    1    2    0    0 -0.69835608678E+02  0.20210438106E+03 -0.36567171454E+02  0.29438300072E+03  0.19900000000E+03 0.  0.
<mgrwt>
<rscale>  0 0.59555722E+03</rscale>
<asrwt>0</asrwt>
<pdfrwt beam="1">  1        2 0.39586565E-01 0.59555722E+03</pdfrwt>
<pdfrwt beam="2">  1       -2 0.45713355E-01 0.59555722E+03</pdfrwt>
<totfact> 0.59533242E+02</totfact>
</mgrwt>
</event>
<event>
 4    1  0.4915183E-005  0.7194701E+03  0.7818608E-02  0.9684503E-01
          2   -1    0    0  501    0  0.00000000000E+00  0.00000000000E+00  0.12503476269E+04  0.12503476269E+04  0.25500000000E-02 0.  1.
         -2   -1    0    0    0  501 -0.00000000000E+00 -0.00000000000E+00 -0.10349865906E+03  0.10349865909E+03  0.25500000000E-02 0. -1.
    5000001    1    1    2    0    0  0.20864797792E+03  0.16544363045E+03  0.83213785219E+03  0.89608034160E+03  0.19900000000E+03 0.  0.
   -5000001    1    1    2    0    0 -0.20864797792E+03 -0.16544363045E+03  0.31471111569E+03  0.45776594444E+03  0.19900000000E+03 0.  0.
<mgrwt>
<rscale>  0 0.71947009E+03</rscale>
<asrwt>0</asrwt>
<pdfrwt beam="1">  1        2 0.17862109E+00 0.71947009E+03</pdfrwt>
<pdfrwt beam="2">  1       -2 0.14785522E-01 0.71947009E+03</pdfrwt>
<totfact> 0.72327232E+02</totfact>
</mgrwt>
</event>
<event>
 4    1  0.4915183E-005  0.5023658E+03  0.7818608E-02  0.1013163E+00
         -2   -1    0    0    0  501 -0.00000000000E+00  0.00000000000E+00  0.11314265914E+03  0.11314265917E+03  0.25500000000E-02 0. -1.
          2   -1    0    0  501    0  0.00000000000E+00 -0.00000000000E+00 -0.55763987241E+03  0.55763987241E+03  0.25500000000E-02 0.  1.
    5000001    1    1    2    0    0  0.16852206279E+02 -0.15046077560E+03 -0.19038634906E+03  0.31427759029E+03  0.19900000000E+03 0.  0.
   -5000001    1    1    2    0    0 -0.16852206279E+02  0.15046077560E+03 -0.25411086421E+03  0.35650494129E+03  0.19900000000E+03 0.  0.
<mgrwt>
<rscale>  0 0.50236583E+03</rscale>
<asrwt>0</asrwt>
<pdfrwt beam="1">  1        2 0.79662837E-01 0.50236583E+03</pdfrwt>
<pdfrwt beam="2">  1       -2 0.16163237E-01 0.50236583E+03</pdfrwt>
<totfact> 0.18188811E+03</totfact>
</mgrwt>
</event>
<event>
 4    1  0.4915183E-005  0.7041367E+03  0.7818608E-02  0.9710184E-01
         -2   -1    0    0    0  501 -0.00000000000E+00  0.00000000000E+00  0.41208940240E+02  0.41208940319E+02  0.25500000000E-02 0. -1.
          2   -1    0    0  501    0  0.00000000000E+00 -0.00000000000E+00 -0.30078940956E+04  0.30078940956E+04  0.25500000000E-02 0.  1.
    5000001    1    1    2    0    0  0.20254135684E+03 -0.29660607460E+02 -0.59117662171E+03  0.65650099080E+03  0.19900000000E+03 0.  0.
   -5000001    1    1    2    0    0 -0.20254135684E+03  0.29660607460E+02 -0.23755085336E+04  0.23926020451E+04  0.19900000000E+03 0.  0.
<mgrwt>
<rscale>  0 0.70413671E+03</rscale>
<asrwt>0</asrwt>
<pdfrwt beam="1">  1        2 0.42969902E+00 0.70413671E+03</pdfrwt>
<pdfrwt beam="2">  1       -2 0.58869934E-02 0.70413671E+03</pdfrwt>
<totfact> 0.39315758E+02</totfact>
</mgrwt>
</event>
<event>
 4    1  0.4915183E-005  0.7170828E+03  0.7818608E-02  0.9688456E-01
          2   -1    0    0  501    0  0.00000000000E+00  0.00000000000E+00  0.71153774059E+03  0.71153774059E+03  0.25500000000E-02 0.  1.
         -2   -1    0    0    0  501 -0.00000000000E+00 -0.00000000000E+00 -0.18066777136E+03  0.18066777138E+03  0.25500000000E-02 0. -1.
    5000001    1    1    2    0    0  0.16038147974E+03  0.25069777861E+03  0.24120174932E+03  0.43168377213E+03  0.19900000000E+03 0.  0.
   -5000001    1    1    2    0    0 -0.16038147974E+03 -0.25069777861E+03  0.28966821991E+03  0.46052173984E+03  0.19900000000E+03 0.  0.
<mgrwt>
<rscale>  0 0.71708281E+03</rscale>
<asrwt>0</asrwt>
<pdfrwt beam="1">  1        2 0.10164825E+00 0.71708281E+03</pdfrwt>
<pdfrwt beam="2">  1       -2 0.25809682E-01 0.71708281E+03</pdfrwt>
<totfact> 0.59874054E+02</totfact>
</mgrwt>
</event>
<event>
 4    1  0.4915183E-005  0.5964962E+03  0.7818608E-02  0.9912702E-01
         -2   -1    0    0    0  501 -0.00000000000E+00  0.00000000000E+00  0.44055719546E+02  0.44055719620E+02  0.25500000000E-02 0. -1.
          2   -1    0    0  501    0  0.00000000000E+00 -0.00000000000E+00 -0.20190779328E+04  0.20190779328E+04  0.25500000000E-02 0.  1.
    5000001    1    1    2    0    0 -0.16129751439E+03 -0.15269495014E+03 -0.10023052291E+04  0.10457291276E+04  0.19900000000E+03 0.  0.
   -5000001    1    1    2    0    0  0.16129751439E+03  0.15269495014E+03 -0.97271698411E+03  0.10174045248E+04  0.19900000000E+03 0.  0.
<mgrwt>
<rscale>  0 0.59649621E+03</rscale>
<asrwt>0</asrwt>
<pdfrwt beam="1">  1        2 0.28843965E+00 0.59649621E+03</pdfrwt>
<pdfrwt beam="2">  1       -2 0.62936755E-02 0.59649621E+03</pdfrwt>
<totfact> 0.11615330E+03</totfact>
</mgrwt>
</event>
<event>
 4    1  0.4915183E-005  0.7577621E+03  0.7818608E-02  0.9623251E-01
         -2   -1    0    0    0  501 -0.00000000000E+00  0.00000000000E+00  0.17442978339E+03  0.17442978341E+03  0.25500000000E-02 0. -1.
          2   -1    0    0  501    0  0.00000000000E+00 -0.00000000000E+00 -0.82297222656E+03  0.82297222656E+03  0.25500000000E-02 0.  1.
    5000001    1    1    2    0    0 -0.31403887929E+03 -0.58467159611E+02 -0.26673089681E+03  0.46128645956E+03  0.19900000000E+03 0.  0.
   -5000001    1    1    2    0    0  0.31403887929E+03  0.58467159611E+02 -0.38181154636E+03  0.53611555041E+03  0.19900000000E+03 0.  0.
<mgrwt>
<rscale>  0 0.75776215E+03</rscale>
<asrwt>0</asrwt>
<pdfrwt beam="1">  1        2 0.11756746E+00 0.75776215E+03</pdfrwt>
<pdfrwt beam="2">  1       -2 0.24918541E-01 0.75776215E+03</pdfrwt>
<totfact> 0.52985947E+02</totfact>
</mgrwt>
</event>
<event>
 4    1  0.4915183E-005  0.4662517E+03  0.7818608E-02  0.1022983E+00
         -2   -1    0    0    0  501 -0.00000000000E+00  0.00000000000E+00  0.56636560704E+02  0.56636560762E+02  0.25500000000E-02 0. -1.
          2   -1    0    0  501    0  0.00000000000E+00 -0.00000000000E+00 -0.95958627244E+03  0.95958627244E+03  0.25500000000E-02 0.  1.
    5000001    1    1    2    0    0  0.87229555649E+02  0.74557073610E+02 -0.53808079705E+03  0.58506383990E+03  0.19900000000E+03 0.  0.
   -5000001    1    1    2    0    0 -0.87229555649E+02 -0.74557073610E+02 -0.36486891468E+03  0.43115899330E+03  0.19900000000E+03 0.  0.
<mgrwt>
<rscale>  0 0.46625172E+03</rscale>
<asrwt>0</asrwt>
<pdfrwt beam="1">  1        2 0.13708374E+00 0.46625172E+03</pdfrwt>
<pdfrwt beam="2">  1       -2 0.80909378E-02 0.46625172E+03</pdfrwt>
<totfact> 0.28735945E+03</totfact>
</mgrwt>
</event>
<event>
 4    1  0.4915183E-005  0.8984368E+03  0.7818608E-02  0.9427538E-01
          2   -1    0    0  501    0  0.00000000000E+00  0.00000000000E+00  0.15712657087E+03  0.15712657089E+03  0.25500000000E-02 0.  1.
         -2   -1    0    0    0  501 -0.00000000000E+00 -0.00000000000E+00 -0.12842970350E+04  0.12842970350E+04  0.25500000000E-02 0. -1.
    5000001    1    1    2    0    0 -0.19407803363E+03  0.13812811189E+03 -0.10845741231E+04  0.11281168765E+04  0.19900000000E+03 0.  0.
   -5000001    1    1    2    0    0  0.19407803363E+03 -0.13812811189E+03 -0.42596341004E+02  0.31330672942E+03  0.19900000000E+03 0.  0.
<mgrwt>
<rscale>  0 0.89843684E+03</rscale>
<asrwt>0</asrwt>
<pdfrwt beam="1">  1        2 0.22446654E-01 0.89843684E+03</pdfrwt>
<pdfrwt beam="2">  1       -2 0.18347100E+00 0.89843684E+03</pdfrwt>
<totfact> 0.42868425E+01</totfact>
</mgrwt>
</event>
<event>
 4    1  0.4915183E-005  0.9154262E+03  0.7818608E-02  0.9406501E-01
         -2   -1    0    0    0  501 -0.00000000000E+00  0.00000000000E+00  0.15555415145E+03  0.15555415147E+03  0.25500000000E-02 0. -1.
          2   -1    0    0  501    0  0.00000000000E+00 -0.00000000000E+00 -0.13468060097E+04  0.13468060097E+04  0.25500000000E-02 0.  1.
    5000001    1    1    2    0    0  0.18965568862E+03 -0.16373098818E+03 -0.11327719998E+04  0.11770941000E+04  0.19900000000E+03 0.  0.
   -5000001    1    1    2    0    0 -0.18965568862E+03  0.16373098818E+03 -0.58479858467E+02  0.32526606119E+03  0.19900000000E+03 0.  0.
<mgrwt>
<rscale>  0 0.91542617E+03</rscale>
<asrwt>0</asrwt>
<pdfrwt beam="1">  1        2 0.19240085E+00 0.91542617E+03</pdfrwt>
<pdfrwt beam="2">  1       -2 0.22222022E-01 0.91542617E+03</pdfrwt>
<totfact> 0.31337553E+02</totfact>
</mgrwt>
</event>
<event>
 4    1  0.4915183E-005  0.5643798E+03  0.7818608E-02  0.9982193E-01
         -2   -1    0    0    0  501 -0.00000000000E+00  0.00000000000E+00  0.60529476471E+02  0.60529476525E+02  0.25500000000E-02 0. -1.
          2   -1    0    0  501    0  0.00000000000E+00 -0.00000000000E+00 -0.13155760379E+04  0.13155760379E+04  0.25500000000E-02 0.  1.
    5000001    1    1    2    0    0  0.12205219315E+03  0.10321412956E+03 -0.92092867935E+03  0.95564665376E+03  0.19900000000E+03 0.  0.
   -5000001    1    1    2    0    0 -0.12205219315E+03 -0.10321412956E+03 -0.33411788210E+03  0.42045886069E+03  0.19900000000E+03 0.  0.
<mgrwt>
<rscale>  0 0.56437976E+03</rscale>
<asrwt>0</asrwt>
<pdfrwt beam="1">  1        2 0.18793942E+00 0.56437976E+03</pdfrwt>
<pdfrwt beam="2">  1       -2 0.86470689E-02 0.56437976E+03</pdfrwt>
<totfact> 0.16148565E+03</totfact>
</mgrwt>
</event>
<event>
 4    1  0.4915183E-005  0.6267499E+03  0.7818608E-02  0.9851412E-01
         -2   -1    0    0    0  501 -0.00000000000E+00  0.00000000000E+00  0.65556191579E+03  0.65556191579E+03  0.25500000000E-02 0. -1.
          2   -1    0    0  501    0  0.00000000000E+00 -0.00000000000E+00 -0.14980102836E+03  0.14980102838E+03  0.25500000000E-02 0.  1.
    5000001    1    1    2    0    0  0.18570768066E+03  0.13428075236E+02  0.45168020650E+03  0.52752598495E+03  0.19900000000E+03 0.  0.
   -5000001    1    1    2    0    0 -0.18570768066E+03 -0.13428075236E+02  0.54080680935E+02  0.27783695922E+03  0.19900000000E+03 0.  0.
<mgrwt>
<rscale>  0 0.62674987E+03</rscale>
<asrwt>0</asrwt>
<pdfrwt beam="1">  1        2 0.21400147E-01 0.62674987E+03</pdfrwt>
<pdfrwt beam="2">  1       -2 0.93651703E-01 0.62674987E+03</pdfrwt>
<totfact> 0.25570230E+02</totfact>
</mgrwt>
</event>
<event>
 4    1  0.4915183E-005  0.9160136E+03  0.7818608E-02  0.9405782E-01
         -2   -1    0    0    0  501 -0.00000000000E+00  0.00000000000E+00  0.99807790007E+02  0.99807790040E+02  0.25500000000E-02 0. -1.
          2   -1    0    0  501    0  0.00000000000E+00 -0.00000000000E+00 -0.21017419154E+04  0.21017419154E+04  0.25500000000E-02 0.  1.
    5000001    1    1    2    0    0  0.34497650618E+03 -0.22549324223E+03 -0.95843133385E+03  0.10620958591E+04  0.19900000000E+03 0.  0.
   -5000001    1    1    2    0    0 -0.34497650618E+03  0.22549324223E+03 -0.10435027916E+04  0.11394538464E+04  0.19900000000E+03 0.  0.
<mgrwt>
<rscale>  0 0.91601357E+03</rscale>
<asrwt>0</asrwt>
<pdfrwt beam="1">  1        2 0.30024882E+00 0.91601357E+03</pdfrwt>
<pdfrwt beam="2">  1       -2 0.14258257E-01 0.91601357E+03</pdfrwt>
<totfact> 0.27406679E+02</totfact>
</mgrwt>
</event>
<event>
 4    1  0.4915183E-005  0.8515199E+03  0.7818608E-02  0.9488299E-01
         -2   -1    0    0    0  501 -0.00000000000E+00  0.00000000000E+00  0.10791470133E+03  0.10791470136E+03  0.25500000000E-02 0. -1.
          2   -1    0    0  501    0  0.00000000000E+00 -0.00000000000E+00 -0.16797667476E+04  0.16797667476E+04  0.25500000000E-02 0.  1.
    5000001    1    1    2    0    0  0.14543191287E+03  0.31455411349E+03 -0.47755131752E+03  0.62269654926E+03  0.19900000000E+03 0.  0.
   -5000001    1    1    2    0    0 -0.14543191287E+03 -0.31455411349E+03 -0.10943007288E+04  0.11649848997E+04  0.19900000000E+03 0.  0.
<mgrwt>
<rscale>  0 0.85151988E+03</rscale>
<asrwt>0</asrwt>
<pdfrwt beam="1">  1        2 0.23996666E+00 0.85151988E+03</pdfrwt>
<pdfrwt beam="2">  1       -2 0.15416387E-01 0.85151988E+03</pdfrwt>
<totfact> 0.39592703E+02</totfact>
</mgrwt>
</event>
<event>
 4    1  0.4915183E-005  0.6405089E+03  0.7818608E-02  0.9824753E-01
         -2   -1    0    0    0  501 -0.00000000000E+00  0.00000000000E+00  0.56073847413E+02  0.56073847471E+02  0.25500000000E-02 0. -1.
          2   -1    0    0  501    0  0.00000000000E+00 -0.00000000000E+00 -0.18290683697E+04  0.18290683697E+04  0.25500000000E-02 0.  1.
    5000001    1    1    2    0    0  0.39401082898E+02 -0.22629019581E+03 -0.11837774372E+04  0.12221659948E+04  0.19900000000E+03 0.  0.
   -5000001    1    1    2    0    0 -0.39401082898E+02  0.22629019581E+03 -0.58921708506E+03  0.66297622233E+03  0.19900000000E+03 0.  0.
<mgrwt>
<rscale>  0 0.64050886E+03</rscale>
<asrwt>0</asrwt>
<pdfrwt beam="1">  1        2 0.26129545E+00 0.64050886E+03</pdfrwt>
<pdfrwt beam="2">  1       -2 0.80105507E-02 0.64050886E+03</pdfrwt>
<totfact> 0.98593702E+02</totfact>
</mgrwt>
</event>
<event>
 4    1  0.4915183E-005  0.5713195E+03  0.7818608E-02  0.9966763E-01
          2   -1    0    0  501    0  0.00000000000E+00  0.00000000000E+00  0.39468057100E+04  0.39468057100E+04  0.25500000000E-02 0.  1.
         -2   -1    0    0    0  501 -0.00000000000E+00 -0.00000000000E+00 -0.20675328871E+02  0.20675329028E+02  0.25500000000E-02 0. -1.
    5000001    1    1    2    0    0  0.15537500734E+03 -0.25719090249E+02  0.28737544747E+04  0.28849382395E+04  0.19900000000E+03 0.  0.
   -5000001    1    1    2    0    0 -0.15537500734E+03  0.25719090249E+02  0.10523759064E+04  0.10825427995E+04  0.19900000000E+03 0.  0.
<mgrwt>
<rscale>  0 0.57131955E+03</rscale>
<asrwt>0</asrwt>
<pdfrwt beam="1">  1        2 0.56382950E+00 0.57131955E+03</pdfrwt>
<pdfrwt beam="2">  1       -2 0.29536178E-02 0.57131955E+03</pdfrwt>
<totfact> 0.31926329E+02</totfact>
</mgrwt>
</event>
<event>
 4    1  0.4915183E-005  0.1053897E+04  0.7818608E-02  0.9251330E-01
          2   -1    0    0  501    0  0.00000000000E+00  0.00000000000E+00  0.78951167132E+03  0.78951167132E+03  0.25500000000E-02 0.  1.
         -2   -1    0    0    0  501 -0.00000000000E+00 -0.00000000000E+00 -0.35170446901E+03  0.35170446901E+03  0.25500000000E-02 0. -1.
    5000001    1    1    2    0    0 -0.27844488539E+02 -0.43739848688E+03 -0.13294702527E+02  0.48152933554E+03  0.19900000000E+03 0.  0.
   -5000001    1    1    2    0    0  0.27844488539E+02  0.43739848688E+03  0.45110190484E+03  0.65968680479E+03  0.19900000000E+03 0.  0.
<mgrwt>
<rscale>  0 0.10538971E+04</rscale>
<asrwt>0</asrwt>
<pdfrwt beam="1">  1        2 0.11278738E+00 0.10538971E+04</pdfrwt>
<pdfrwt beam="2">  1       -2 0.50243496E-01 0.10538971E+04</pdfrwt>
<totfact> 0.14419031E+02</totfact>
</mgrwt>
</event>
<event>
 4    1  0.4915183E-005  0.5495004E+03  0.7818608E-02  0.1001610E+00
          2   -1    0    0  501    0  0.00000000000E+00  0.00000000000E+00  0.15660425197E+04  0.15660425197E+04  0.25500000000E-02 0.  1.
         -2   -1    0    0    0  501 -0.00000000000E+00 -0.00000000000E+00 -0.48202816367E+02  0.48202816434E+02  0.25500000000E-02 0. -1.
    5000001    1    1    2    0    0 -0.92769144147E+02 -0.15781193602E+03  0.61572770895E+03  0.67248221748E+03  0.19900000000E+03 0.  0.
   -5000001    1    1    2    0    0  0.92769144147E+02  0.15781193602E+03  0.90211199438E+03  0.94176311866E+03  0.19900000000E+03 0.  0.
<mgrwt>
<rscale>  0 0.54950036E+03</rscale>
<asrwt>0</asrwt>
<pdfrwt beam="1">  1        2 0.22372037E+00 0.54950036E+03</pdfrwt>
<pdfrwt beam="2">  1       -2 0.68861164E-02 0.54950036E+03</pdfrwt>
<totfact> 0.17122856E+03</totfact>
</mgrwt>
</event>
<event>
 4    1  0.4915183E-005  0.6728227E+03  0.7818608E-02  0.9764872E-01
         -2   -1    0    0    0  501 -0.00000000000E+00  0.00000000000E+00  0.85761628219E+03  0.85761628219E+03  0.25500000000E-02 0. -1.
          2   -1    0    0  501    0  0.00000000000E+00 -0.00000000000E+00 -0.13196182682E+03  0.13196182684E+03  0.25500000000E-02 0.  1.
    5000001    1    1    2    0    0  0.66885694169E+02 -0.13551449531E+03  0.69410922901E+03  0.73771708420E+03  0.19900000000E+03 0.  0.
   -5000001    1    1    2    0    0 -0.66885694169E+02  0.13551449531E+03  0.31545226361E+02  0.25186102483E+03  0.19900000000E+03 0.  0.
<mgrwt>
<rscale>  0 0.67282274E+03</rscale>
<asrwt>0</asrwt>
<pdfrwt beam="1">  1        2 0.18851690E-01 0.67282274E+03</pdfrwt>
<pdfrwt beam="2">  1       -2 0.12251661E+00 0.67282274E+03</pdfrwt>
<totfact> 0.15546061E+02</totfact>
</mgrwt>
</event>
<event>
 4    1  0.4915183E-005  0.6504518E+03  0.7818608E-02  0.9805932E-01
         -2   -1    0    0    0  501 -0.00000000000E+00  0.00000000000E+00  0.12448507695E+03  0.12448507698E+03  0.25500000000E-02 0. -1.
          2   -1    0    0  501    0  0.00000000000E+00 -0.00000000000E+00 -0.84967525209E+03  0.84967525209E+03  0.25500000000E-02 0.  1.
    5000001    1    1    2    0    0 -0.11856413199E+03  0.14341115947E+03 -0.96588672697E+02  0.28905810099E+03  0.19900000000E+03 0.  0.
   -5000001    1    1    2    0    0  0.11856413199E+03 -0.14341115947E+03 -0.62860150244E+03  0.68510222808E+03  0.19900000000E+03 0.  0.
<mgrwt>
<rscale>  0 0.65045181E+03</rscale>
<asrwt>0</asrwt>
<pdfrwt beam="1">  1        2 0.12138218E+00 0.65045181E+03</pdfrwt>
<pdfrwt beam="2">  1       -2 0.17783583E-01 0.65045181E+03</pdfrwt>
<totfact> 0.92284627E+02</totfact>
</mgrwt>
</event>
<event>
 4    1  0.4915183E-005  0.5297604E+03  0.7818608E-02  0.1006290E+00
         -2   -1    0    0    0  501 -0.00000000000E+00  0.00000000000E+00  0.55252979036E+02  0.55252979095E+02  0.25500000000E-02 0. -1.
          2   -1    0    0  501    0  0.00000000000E+00 -0.00000000000E+00 -0.12698233123E+04  0.12698233123E+04  0.25500000000E-02 0.  1.
    5000001    1    1    2    0    0 -0.25553812383E+02 -0.13002343728E+03 -0.32208029448E+03  0.40111819662E+03  0.19900000000E+03 0.  0.
   -5000001    1    1    2    0    0  0.25553812383E+02  0.13002343728E+03 -0.89249003874E+03  0.92395809473E+03  0.19900000000E+03 0.  0.
<mgrwt>
<rscale>  0 0.52976040E+03</rscale>
<asrwt>0</asrwt>
<pdfrwt beam="1">  1        2 0.18140331E+00 0.52976040E+03</pdfrwt>
<pdfrwt beam="2">  1       -2 0.78932836E-02 0.52976040E+03</pdfrwt>
<totfact> 0.19790020E+03</totfact>
</mgrwt>
</event>
<event>
 4    1  0.4915183E-005  0.1111665E+04  0.7818608E-02  0.9193897E-01
          2   -1    0    0  501    0  0.00000000000E+00  0.00000000000E+00  0.13440786445E+04  0.13440786445E+04  0.25500000000E-02 0. -1.
         -2   -1    0    0    0  501 -0.00000000000E+00 -0.00000000000E+00 -0.22985972349E+03  0.22985972351E+03  0.25500000000E-02 0.  1.
    5000001    1    1    2    0    0 -0.27857288750E+03  0.43413797441E+03  0.47614733138E+03  0.72965465506E+03  0.19900000000E+03 0.  0.
   -5000001    1    1    2    0    0  0.27857288750E+03 -0.43413797441E+03  0.63807158966E+03  0.84428371298E+03  0.19900000000E+03 0.  0.
<mgrwt>
<rscale>  0 0.11116646E+04</rscale>
<asrwt>0</asrwt>
<pdfrwt beam="1">  1        2 0.19201124E+00 0.11116646E+04</pdfrwt>
<pdfrwt beam="2">  1       -2 0.32837102E-01 0.11116646E+04</pdfrwt>
<totfact> 0.15209510E+02</totfact>
</mgrwt>
</event>
<event>
 4    1  0.4915183E-005  0.8471658E+03  0.7818608E-02  0.9494149E-01
          2   -1    0    0  501    0  0.00000000000E+00  0.00000000000E+00  0.12467750899E+04  0.12467750899E+04  0.25500000000E-02 0. -1.
         -2   -1    0    0    0  501 -0.00000000000E+00 -0.00000000000E+00 -0.14390923826E+03  0.14390923829E+03  0.25500000000E-02 0.  1.
    5000001    1    1    2    0    0  0.19090757731E+03 -0.30810708708E+03  0.40057091935E+03  0.57570282404E+03  0.19900000000E+03 0.  0.
   -5000001    1    1    2    0    0 -0.19090757731E+03  0.30810708708E+03  0.70229493231E+03  0.81498150417E+03  0.19900000000E+03 0.  0.
<mgrwt>
<rscale>  0 0.84716575E+03</rscale>
<asrwt>0</asrwt>
<pdfrwt beam="1">  1        2 0.17811072E+00 0.84716575E+03</pdfrwt>
<pdfrwt beam="2">  1       -2 0.20558464E-01 0.84716575E+03</pdfrwt>
<totfact> 0.40970476E+02</totfact>
</mgrwt>
</event>
<event>
 4    1  0.4915183E-005  0.4968052E+03  0.7818608E-02  0.1014616E+00
         -2   -1    0    0    0  501 -0.00000000000E+00  0.00000000000E+00  0.22097344086E+02  0.22097344233E+02  0.25500000000E-02 0. -1.
          2   -1    0    0  501    0  0.00000000000E+00 -0.00000000000E+00 -0.27923647037E+04  0.27923647037E+04  0.25500000000E-02 0.  1.
    5000001    1    1    2    0    0 -0.87245264799E+02 -0.67963580819E+02 -0.82225711189E+03  0.85319314496E+03  0.19900000000E+03 0.  0.
   -5000001    1    1    2    0    0  0.87245264799E+02  0.67963580819E+02 -0.19480102478E+04  0.19612689030E+04  0.19900000000E+03 0.  0.
<mgrwt>
<rscale>  0 0.49680517E+03</rscale>
<asrwt>0</asrwt>
<pdfrwt beam="1">  1        2 0.39890902E+00 0.49680517E+03</pdfrwt>
<pdfrwt beam="2">  1       -2 0.31567652E-02 0.49680517E+03</pdfrwt>
<totfact> 0.13659679E+03</totfact>
</mgrwt>
</event>
<event>
 4    1  0.4915183E-005  0.5873322E+03  0.7818608E-02  0.9932042E-01
          2   -1    0    0  501    0  0.00000000000E+00  0.00000000000E+00  0.13512766443E+03  0.13512766446E+03  0.25500000000E-02 0.  1.
         -2   -1    0    0    0  501 -0.00000000000E+00 -0.00000000000E+00 -0.63820972947E+03  0.63820972948E+03  0.25500000000E-02 0. -1.
    5000001    1    1    2    0    0 -0.15882290919E+03 -0.28211155431E+02 -0.44060579335E+03  0.50966170241E+03  0.19900000000E+03 0.  0.
   -5000001    1    1    2    0    0  0.15882290919E+03  0.28211155431E+02 -0.62476271691E+02  0.26367569152E+03  0.19900000000E+03 0.  0.
<mgrwt>
<rscale>  0 0.58733224E+03</rscale>
<asrwt>0</asrwt>
<pdfrwt beam="1">  1        2 0.19303952E-01 0.58733224E+03</pdfrwt>
<pdfrwt beam="2">  1       -2 0.91172817E-01 0.58733224E+03</pdfrwt>
<totfact> 0.30721445E+02</totfact>
</mgrwt>
</event>
<event>
 4    1  0.4915183E-005  0.4421952E+03  0.7818608E-02  0.1030075E+00
          2   -1    0    0  501    0  0.00000000000E+00  0.00000000000E+00  0.19877150505E+03  0.19877150506E+03  0.25500000000E-02 0.  1.
         -2   -1    0    0    0  501 -0.00000000000E+00 -0.00000000000E+00 -0.24593139233E+03  0.24593139234E+03  0.25500000000E-02 0. -1.
    5000001    1    1    2    0    0  0.74446262335E+02 -0.51751117266E+02  0.92044502019E+01  0.21887472677E+03  0.19900000000E+03 0.  0.
   -5000001    1    1    2    0    0 -0.74446262335E+02  0.51751117266E+02 -0.56364337482E+02  0.22582817064E+03  0.19900000000E+03 0.  0.
<mgrwt>
<rscale>  0 0.44219522E+03</rscale>
<asrwt>0</asrwt>
<pdfrwt beam="1">  1        2 0.28395929E-01 0.44219522E+03</pdfrwt>
<pdfrwt beam="2">  1       -2 0.35133056E-01 0.44219522E+03</pdfrwt>
<totfact> 0.14340276E+03</totfact>
</mgrwt>
</event>
<event>
 4    1  0.4915183E-005  0.1229107E+04  0.7818608E-02  0.9087754E-01
          2   -1    0    0  501    0  0.00000000000E+00  0.00000000000E+00  0.36813056661E+04  0.36813056661E+04  0.25500000000E-02 0.  1.
         -2   -1    0    0    0  501 -0.00000000000E+00 -0.00000000000E+00 -0.10259296292E+03  0.10259296295E+03  0.25500000000E-02 0. -1.
    5000001    1    1    2    0    0  0.51356081675E+03  0.15585689181E+03  0.24780149324E+04  0.25432646517E+04  0.19900000000E+03 0.  0.
   -5000001    1    1    2    0    0 -0.51356081675E+03 -0.15585689181E+03  0.11006977708E+04  0.12406339774E+04  0.19900000000E+03 0.  0.
<mgrwt>
<rscale>  0 0.12291071E+04</rscale>
<asrwt>0</asrwt>
<pdfrwt beam="1">  1        2 0.52590074E+00 0.12291071E+04</pdfrwt>
<pdfrwt beam="2">  1       -2 0.14656140E-01 0.12291071E+04</pdfrwt>
<totfact> 0.34114322E+01</totfact>
</mgrwt>
</event>
<event>
 4    1  0.4915183E-005  0.5653499E+03  0.7818608E-02  0.9980022E-01
          2   -1    0    0  501    0  0.00000000000E+00  0.00000000000E+00  0.12959376534E+04  0.12959376535E+04  0.25500000000E-02 0.  1.
         -2   -1    0    0    0  501 -0.00000000000E+00 -0.00000000000E+00 -0.61658162728E+02  0.61658162781E+02  0.25500000000E-02 0. -1.
    5000001    1    1    2    0    0 -0.19534249757E+03  0.13286095217E+02  0.72369319772E+03  0.77567264752E+03  0.19900000000E+03 0.  0.
   -5000001    1    1    2    0    0  0.19534249757E+03 -0.13286095217E+02  0.51058629300E+03  0.58192316871E+03  0.19900000000E+03 0.  0.
<mgrwt>
<rscale>  0 0.56534993E+03</rscale>
<asrwt>0</asrwt>
<pdfrwt beam="1">  1        2 0.18513393E+00 0.56534993E+03</pdfrwt>
<pdfrwt beam="2">  1       -2 0.88083100E-02 0.56534993E+03</pdfrwt>
<totfact> 0.16066270E+03</totfact>
</mgrwt>
</event>
<event>
 4    1  0.4915183E-005  0.8615177E+03  0.7818608E-02  0.9475007E-01
         -2   -1    0    0    0  501 -0.00000000000E+00  0.00000000000E+00  0.68575517011E+02  0.68575517058E+02  0.25500000000E-02 0. -1.
          2   -1    0    0  501    0  0.00000000000E+00 -0.00000000000E+00 -0.27058224133E+04  0.27058224133E+04  0.25500000000E-02 0.  1.
    5000001    1    1    2    0    0  0.95512119067E+02 -0.34318637092E+03 -0.87411187877E+03  0.96466161253E+03  0.19900000000E+03 0.  0.
   -5000001    1    1    2    0    0 -0.95512119067E+02  0.34318637092E+03 -0.17631350175E+04  0.18097363178E+04  0.19900000000E+03 0.  0.
<mgrwt>
<rscale>  0 0.86151766E+03</rscale>
<asrwt>0</asrwt>
<pdfrwt beam="1">  1        2 0.38654599E+00 0.86151766E+03</pdfrwt>
<pdfrwt beam="2">  1       -2 0.97965041E-02 0.86151766E+03</pdfrwt>
<totfact> 0.24974133E+02</totfact>
</mgrwt>
</event>
<event>
 4    1  0.4915183E-005  0.5854113E+03  0.7818608E-02  0.9936144E-01
          2   -1    0    0  501    0  0.00000000000E+00  0.00000000000E+00  0.48894613506E+03  0.48894613507E+03  0.25500000000E-02 0.  1.
         -2   -1    0    0    0  501 -0.00000000000E+00 -0.00000000000E+00 -0.17522706800E+03  0.17522706802E+03  0.25500000000E-02 0. -1.
    5000001    1    1    2    0    0 -0.16774873658E+03 -0.50991090314E+02  0.16360147865E+02  0.26572238211E+03  0.19900000000E+03 0.  0.
   -5000001    1    1    2    0    0  0.16774873658E+03  0.50991090314E+02  0.29735891919E+03  0.39845082098E+03  0.19900000000E+03 0.  0.
<mgrwt>
<rscale>  0 0.58541130E+03</rscale>
<asrwt>0</asrwt>
<pdfrwt beam="1">  1        2 0.69849449E-01 0.58541130E+03</pdfrwt>
<pdfrwt beam="2">  1       -2 0.25032438E-01 0.58541130E+03</pdfrwt>
<totfact> 0.98705245E+02</totfact>
</mgrwt>
</event>
<event>
 4    1  0.4915183E-005  0.5264185E+03  0.7818608E-02  0.1007104E+00
          2   -1    0    0  501    0  0.00000000000E+00  0.00000000000E+00  0.28248478450E+04  0.28248478450E+04  0.25500000000E-02 0.  1.
         -2   -1    0    0    0  501 -0.00000000000E+00 -0.00000000000E+00 -0.24524903263E+02  0.24524903395E+02  0.25500000000E-02 0. -1.
    5000001    1    1    2    0    0  0.40560366890E+02  0.32009613926E+02  0.51061793523E+03  0.55045566081E+03  0.19900000000E+03 0.  0.
   -5000001    1    1    2    0    0 -0.40560366890E+02 -0.32009613926E+02  0.22897050065E+04  0.22989170876E+04  0.19900000000E+03 0.  0.
<mgrwt>
<rscale>  0 0.52641854E+03</rscale>
<asrwt>0</asrwt>
<pdfrwt beam="1">  1        2 0.40354955E+00 0.52641854E+03</pdfrwt>
<pdfrwt beam="2">  1       -2 0.35035588E-02 0.52641854E+03</pdfrwt>
<totfact> 0.11180607E+03</totfact>
</mgrwt>
</event>
<event>
 4    1  0.4915183E-005  0.5623965E+03  0.7818608E-02  0.9986647E-01
          2   -1    0    0  501    0  0.00000000000E+00  0.00000000000E+00  0.19893416731E+04  0.19893416731E+04  0.25500000000E-02 0.  1.
         -2   -1    0    0    0  501 -0.00000000000E+00 -0.00000000000E+00 -0.39748051377E+02  0.39748051459E+02  0.25500000000E-02 0. -1.
    5000001    1    1    2    0    0 -0.15044559564E+02 -0.15823458960E+03  0.14048367381E+04  0.14277365950E+04  0.19900000000E+03 0.  0.
   -5000001    1    1    2    0    0  0.15044559564E+02  0.15823458960E+03  0.54475688360E+03  0.60135312949E+03  0.19900000000E+03 0.  0.
<mgrwt>
<rscale>  0 0.56239650E+03</rscale>
<asrwt>0</asrwt>
<pdfrwt beam="1">  1        2 0.28419166E+00 0.56239650E+03</pdfrwt>
<pdfrwt beam="2">  1       -2 0.56782932E-02 0.56239650E+03</pdfrwt>
<totfact> 0.14146090E+03</totfact>
</mgrwt>
</event>
<event>
 4    1  0.4915183E-005  0.4190037E+03  0.7818608E-02  0.1037391E+00
          2   -1    0    0  501    0  0.00000000000E+00  0.00000000000E+00  0.46489169302E+03  0.46489169303E+03  0.25500000000E-02 0.  1.
         -2   -1    0    0    0  501 -0.00000000000E+00 -0.00000000000E+00 -0.94411305589E+02  0.94411305624E+02  0.25500000000E-02 0. -1.
    5000001    1    1    2    0    0  0.61569044243E+02  0.18830033859E+02  0.16918243174E+03  0.26901489289E+03  0.19900000000E+03 0.  0.
   -5000001    1    1    2    0    0 -0.61569044243E+02 -0.18830033859E+02  0.20129795569E+03  0.29028810577E+03  0.19900000000E+03 0.  0.
<mgrwt>
<rscale>  0 0.41900373E+03</rscale>
<asrwt>0</asrwt>
<pdfrwt beam="1">  1        2 0.66413098E-01 0.41900373E+03</pdfrwt>
<pdfrwt beam="2">  1       -2 0.13487330E-01 0.41900373E+03</pdfrwt>
<totfact> 0.30184516E+03</totfact>
</mgrwt>
</event>
<event>
 4    1  0.4915183E-005  0.1287197E+04  0.7818608E-02  0.9039780E-01
         -2   -1    0    0    0  501 -0.00000000000E+00  0.00000000000E+00  0.12872253905E+03  0.12872253908E+03  0.25500000000E-02 0. -1.
          2   -1    0    0  501    0  0.00000000000E+00 -0.00000000000E+00 -0.32179191243E+04  0.32179191243E+04  0.25500000000E-02 0.  1.
    5000001    1    1    2    0    0 -0.46615918558E+03  0.37114423044E+03 -0.19082683514E+04  0.20090150640E+04  0.19900000000E+03 0.  0.
   -5000001    1    1    2    0    0  0.46615918558E+03 -0.37114423044E+03 -0.11809282338E+04  0.13376265994E+04  0.19900000000E+03 0.  0.
<mgrwt>
<rscale>  0 0.12871965E+04</rscale>
<asrwt>0</asrwt>
<pdfrwt beam="1">  1        2 0.45970268E+00 0.12871965E+04</pdfrwt>
<pdfrwt beam="2">  1       -2 0.18388936E-01 0.12871965E+04</pdfrwt>
<totfact> 0.43567678E+01</totfact>
</mgrwt>
</event>
<event>
 4    1  0.4915183E-005  0.4652969E+03  0.7818608E-02  0.1023256E+00
          2   -1    0    0  501    0  0.00000000000E+00  0.00000000000E+00  0.38390672690E+04  0.38390672690E+04  0.25500000000E-02 0.  1.
         -2   -1    0    0    0  501 -0.00000000000E+00 -0.00000000000E+00 -0.14098556076E+02  0.14098556307E+02  0.25500000000E-02 0. -1.
    5000001    1    1    2    0    0  0.10824634732E+03 -0.52589908867E+02  0.18592430664E+04  0.18737312374E+04  0.19900000000E+03 0.  0.
   -5000001    1    1    2    0    0 -0.10824634732E+03  0.52589908867E+02  0.19657256466E+04  0.19794345879E+04  0.19900000000E+03 0.  0.
<mgrwt>
<rscale>  0 0.46529692E+03</rscale>
<asrwt>0</asrwt>
<pdfrwt beam="1">  1        2 0.54843784E+00 0.46529692E+03</pdfrwt>
<pdfrwt beam="2">  1       -2 0.20140807E-02 0.46529692E+03</pdfrwt>
<totfact> 0.67724943E+02</totfact>
</mgrwt>
</event>
<event>
 4    1  0.4915183E-005  0.4216657E+03  0.7818608E-02  0.1036526E+00
         -2   -1    0    0    0  501 -0.00000000000E+00  0.00000000000E+00  0.24381082396E+02  0.24381082529E+02  0.25500000000E-02 0. -1.
          2   -1    0    0  501    0  0.00000000000E+00 -0.00000000000E+00 -0.18231549098E+04  0.18231549098E+04  0.25500000000E-02 0.  1.
    5000001    1    1    2    0    0  0.58581043822E+02 -0.28575169026E+02 -0.79195379736E+03  0.81917037064E+03  0.19900000000E+03 0.  0.
   -5000001    1    1    2    0    0 -0.58581043822E+02  0.28575169026E+02 -0.10068200301E+04  0.10283656217E+04  0.19900000000E+03 0.  0.
<mgrwt>
<rscale>  0 0.42166570E+03</rscale>
<asrwt>0</asrwt>
<pdfrwt beam="1">  1        2 0.26045062E+00 0.42166570E+03</pdfrwt>
<pdfrwt beam="2">  1       -2 0.34830129E-02 0.42166570E+03</pdfrwt>
<totfact> 0.36456652E+03</totfact>
</mgrwt>
</event>
<event>
 4    1  0.4915183E-005  0.8557531E+03  0.7818608E-02  0.9482648E-01
         -2   -1    0    0    0  501 -0.00000000000E+00  0.00000000000E+00  0.80561978007E+02  0.80561978047E+02  0.25500000000E-02 0. -1.
          2   -1    0    0  501    0  0.00000000000E+00 -0.00000000000E+00 -0.22725156945E+04  0.22725156945E+04  0.25500000000E-02 0.  1.
    5000001    1    1    2    0    0  0.27255271201E+03  0.23619630024E+03 -0.14143232195E+04  0.14730868414E+04  0.19900000000E+03 0.  0.
   -5000001    1    1    2    0    0 -0.27255271201E+03 -0.23619630024E+03 -0.77763049704E+03  0.87999083120E+03  0.19900000000E+03 0.  0.
<mgrwt>
<rscale>  0 0.85575314E+03</rscale>
<asrwt>0</asrwt>
<pdfrwt beam="1">  1        2 0.32464506E+00 0.85575314E+03</pdfrwt>
<pdfrwt beam="2">  1       -2 0.11508855E-01 0.85575314E+03</pdfrwt>
<totfact> 0.32199665E+02</totfact>
</mgrwt>
</event>
<event>
 4    1  0.4915183E-005  0.4866555E+03  0.7818608E-02  0.1017322E+00
         -2   -1    0    0    0  501 -0.00000000000E+00  0.00000000000E+00  0.16749439980E+03  0.16749439982E+03  0.25500000000E-02 0. -1.
          2   -1    0    0  501    0  0.00000000000E+00 -0.00000000000E+00 -0.35349482671E+03  0.35349482672E+03  0.25500000000E-02 0.  1.
    5000001    1    1    2    0    0 -0.41469659361E+02 -0.98894882046E+02  0.33937503475E+01  0.22608062253E+03  0.19900000000E+03 0.  0.
   -5000001    1    1    2    0    0  0.41469659361E+02  0.98894882046E+02 -0.18939417725E+03  0.29490860401E+03  0.19900000000E+03 0.  0.
<mgrwt>
<rscale>  0 0.48665554E+03</rscale>
<asrwt>0</asrwt>
<pdfrwt beam="1">  1        2 0.50499260E-01 0.48665554E+03</pdfrwt>
<pdfrwt beam="2">  1       -2 0.23927772E-01 0.48665554E+03</pdfrwt>
<totfact> 0.15349812E+03</totfact>
</mgrwt>
</event>
<event>
 4    1  0.4915183E-005  0.7292173E+03  0.7818608E-02  0.9668531E-01
          2   -1    0    0  501    0  0.00000000000E+00  0.00000000000E+00  0.79849194294E+03  0.79849194295E+03  0.25500000000E-02 0.  1.
         -2   -1    0    0    0  501 -0.00000000000E+00 -0.00000000000E+00 -0.16648818692E+03  0.16648818694E+03  0.25500000000E-02 0. -1.
    5000001    1    1    2    0    0  0.23051427722E+03  0.16176943138E+03  0.15924531016E+03  0.37982397204E+03  0.19900000000E+03 0.  0.
   -5000001    1    1    2    0    0 -0.23051427722E+03 -0.16176943138E+03  0.47275844586E+03  0.58515615785E+03  0.19900000000E+03 0.  0.
<mgrwt>
<rscale>  0 0.72921732E+03</rscale>
<asrwt>0</asrwt>
<pdfrwt beam="1">  1        2 0.11407028E+00 0.72921732E+03</pdfrwt>
<pdfrwt beam="2">  1       -2 0.23784027E-01 0.72921732E+03</pdfrwt>
<totfact> 0.59959437E+02</totfact>
</mgrwt>
</event>
<event>
 4    1  0.4915183E-005  0.4844531E+03  0.7818608E-02  0.1017918E+00
          2   -1    0    0  501    0  0.00000000000E+00  0.00000000000E+00  0.13052465743E+04  0.13052465743E+04  0.25500000000E-02 0. -1.
         -2   -1    0    0    0  501 -0.00000000000E+00 -0.00000000000E+00 -0.44952198604E+02  0.44952198676E+02  0.25500000000E-02 0.  1.
    5000001    1    1    2    0    0  0.11284526403E+03  0.75916411903E+02  0.56329566640E+03  0.61269924351E+03  0.19900000000E+03 0.  0.
   -5000001    1    1    2    0    0 -0.11284526403E+03 -0.75916411903E+02  0.69699870934E+03  0.73749952951E+03  0.19900000000E+03 0.  0.
<mgrwt>
<rscale>  0 0.48445311E+03</rscale>
<asrwt>0</asrwt>
<pdfrwt beam="1">  1        2 0.18646382E+00 0.48445311E+03</pdfrwt>
<pdfrwt beam="2">  1       -2 0.64217419E-02 0.48445311E+03</pdfrwt>
<totfact> 0.26224829E+03</totfact>
</mgrwt>
</event>
<event>
 4    1  0.4915183E-005  0.7881208E+03  0.7818608E-02  0.9577373E-01
          2   -1    0    0  501    0  0.00000000000E+00  0.00000000000E+00  0.10031591557E+04  0.10031591557E+04  0.25500000000E-02 0.  1.
         -2   -1    0    0    0  501 -0.00000000000E+00 -0.00000000000E+00 -0.15479458300E+03  0.15479458302E+03  0.25500000000E-02 0. -1.
    5000001    1    1    2    0    0  0.30403159442E+03  0.11675671031E+03  0.56825409439E+03  0.68452980622E+03  0.19900000000E+03 0.  0.
   -5000001    1    1    2    0    0 -0.30403159442E+03 -0.11675671031E+03  0.28011047833E+03  0.47342393252E+03  0.19900000000E+03 0.  0.
<mgrwt>
<rscale>  0 0.78812081E+03</rscale>
<asrwt>0</asrwt>
<pdfrwt beam="1">  1        2 0.14330845E+00 0.78812081E+03</pdfrwt>
<pdfrwt beam="2">  1       -2 0.22113511E-01 0.78812081E+03</pdfrwt>
<totfact> 0.50093402E+02</totfact>
</mgrwt>
</event>
<event>
 4    1  0.4915183E-005  0.5379456E+03  0.7818608E-02  0.1004323E+00
          2   -1    0    0  501    0  0.00000000000E+00  0.00000000000E+00  0.17275044367E+04  0.17275044368E+04  0.25500000000E-02 0.  1.
         -2   -1    0    0    0  501 -0.00000000000E+00 -0.00000000000E+00 -0.41879127528E+02  0.41879127605E+02  0.25500000000E-02 0. -1.
    5000001    1    1    2    0    0  0.95381880169E+02  0.10991826545E+03  0.48908531528E+03  0.54770902290E+03  0.19900000000E+03 0.  0.
   -5000001    1    1    2    0    0 -0.95381880169E+02 -0.10991826545E+03  0.11965399939E+04  0.12216745415E+04  0.19900000000E+03 0.  0.
<mgrwt>
<rscale>  0 0.53794564E+03</rscale>
<asrwt>0</asrwt>
<pdfrwt beam="1">  1        2 0.24678626E+00 0.53794564E+03</pdfrwt>
<pdfrwt beam="2">  1       -2 0.59827345E-02 0.53794564E+03</pdfrwt>
<totfact> 0.17671577E+03</totfact>
</mgrwt>
</event>
<event>
 4    1  0.4915183E-005  0.5084202E+03  0.7818608E-02  0.1011604E+00
         -2   -1    0    0    0  501 -0.00000000000E+00  0.00000000000E+00  0.11875953293E+04  0.11875953293E+04  0.25500000000E-02 0. -1.
          2   -1    0    0  501    0  0.00000000000E+00 -0.00000000000E+00 -0.54414801096E+02  0.54414801156E+02  0.25500000000E-02 0.  1.
    5000001    1    1    2    0    0  0.54937351524E+02 -0.14550040344E+03  0.49607245427E+03  0.55666629131E+03  0.19900000000E+03 0.  0.
   -5000001    1    1    2    0    0 -0.54937351524E+02  0.14550040344E+03  0.63710807395E+03  0.68534383917E+03  0.19900000000E+03 0.  0.
<mgrwt>
<rscale>  0 0.50842016E+03</rscale>
<asrwt>0</asrwt>
<pdfrwt beam="1">  1        2 0.77735434E-02 0.50842016E+03</pdfrwt>
<pdfrwt beam="2">  1       -2 0.16965647E+00 0.50842016E+03</pdfrwt>
<totfact> 0.20124444E+02</totfact>
</mgrwt>
</event>
<event>
 4    1  0.4915183E-005  0.6320172E+03  0.7818608E-02  0.9841120E-01
          2   -1    0    0  501    0  0.00000000000E+00  0.00000000000E+00  0.16677400874E+04  0.16677400874E+04  0.25500000000E-02 0.  1.
         -2   -1    0    0    0  501 -0.00000000000E+00 -0.00000000000E+00 -0.59878295799E+02  0.59878295853E+02  0.25500000000E-02 0. -1.
    5000001    1    1    2    0    0 -0.78446299544E+02 -0.19249577470E+03  0.44698166969E+03  0.53160329027E+03  0.19900000000E+03 0.  0.
   -5000001    1    1    2    0    0  0.78446299544E+02  0.19249577470E+03  0.11608801219E+04  0.11960150930E+04  0.19900000000E+03 0.  0.
<mgrwt>
<rscale>  0 0.63201720E+03</rscale>
<asrwt>0</asrwt>
<pdfrwt beam="1">  1        2 0.23824855E+00 0.63201720E+03</pdfrwt>
<pdfrwt beam="2">  1       -2 0.85540436E-02 0.63201720E+03</pdfrwt>
<totfact> 0.10724226E+03</totfact>
</mgrwt>
</event>
<event>
 4    1  0.4915183E-005  0.1013731E+04  0.7818608E-02  0.9293612E-01
         -2   -1    0    0    0  501 -0.00000000000E+00  0.00000000000E+00  0.10612298446E+03  0.10612298449E+03  0.25500000000E-02 0.  1.
          2   -1    0    0  501    0  0.00000000000E+00 -0.00000000000E+00 -0.24208936843E+04  0.24208936843E+04  0.25500000000E-02 0. -1.
    5000001    1    1    2    0    0  0.38645269807E+03  0.16860378927E+03 -0.16530589903E+04  0.17175499850E+04  0.19900000000E+03 0.  0.
   -5000001    1    1    2    0    0 -0.38645269807E+03 -0.16860378927E+03 -0.66171170950E+03  0.80946668374E+03  0.19900000000E+03 0.  0.
<mgrwt>
<rscale>  0 0.10137307E+04</rscale>
<asrwt>0</asrwt>
<pdfrwt beam="1">  1        2 0.34584192E+00 0.10137307E+04</pdfrwt>
<pdfrwt beam="2">  1       -2 0.15160428E-01 0.10137307E+04</pdfrwt>
<totfact> 0.16823075E+02</totfact>
</mgrwt>
</event>
<event>
 4    1  0.4915183E-005  0.4587333E+03  0.7818608E-02  0.1025149E+00
          2   -1    0    0  501    0  0.00000000000E+00  0.00000000000E+00  0.13270512666E+03  0.13270512668E+03  0.25500000000E-02 0.  1.
         -2   -1    0    0    0  501 -0.00000000000E+00 -0.00000000000E+00 -0.39643577450E+03  0.39643577451E+03  0.25500000000E-02 0. -1.
    5000001    1    1    2    0    0  0.70635874552E+02 -0.68931530538E+02 -0.65934158521E+02  0.23170950765E+03  0.19900000000E+03 0.  0.
   -5000001    1    1    2    0    0 -0.70635874552E+02  0.68931530538E+02 -0.19779648933E+03  0.29743139354E+03  0.19900000000E+03 0.  0.
<mgrwt>
<rscale>  0 0.45873330E+03</rscale>
<asrwt>0</asrwt>
<pdfrwt beam="1">  1        2 0.18957875E-01 0.45873330E+03</pdfrwt>
<pdfrwt beam="2">  1       -2 0.56633681E-01 0.45873330E+03</pdfrwt>
<totfact> 0.88784097E+02</totfact>
</mgrwt>
</event>
<event>
 4    1  0.4915183E-005  0.1068006E+04  0.7818608E-02  0.9236949E-01
          2   -1    0    0  501    0  0.00000000000E+00  0.00000000000E+00  0.24049032151E+04  0.24049032151E+04  0.25500000000E-02 0.  1.
         -2   -1    0    0    0  501 -0.00000000000E+00 -0.00000000000E+00 -0.11857408394E+03  0.11857408397E+03  0.25500000000E-02 0. -1.
    5000001    1    1    2    0    0  0.12573905446E+03 -0.19069491804E+03  0.21822116734E+04  0.22031394983E+04  0.19900000000E+03 0.  0.
   -5000001    1    1    2    0    0 -0.12573905446E+03  0.19069491804E+03  0.10411745778E+03  0.32033780076E+03  0.19900000000E+03 0.  0.
<mgrwt>
<rscale>  0 0.10680060E+04</rscale>
<asrwt>0</asrwt>
<pdfrwt beam="1">  1        2 0.34355760E+00 0.10680060E+04</pdfrwt>
<pdfrwt beam="2">  1       -2 0.16939155E-01 0.10680060E+04</pdfrwt>
<totfact> 0.14123273E+02</totfact>
</mgrwt>
</event>
<event>
 4    1  0.4915183E-005  0.4724713E+03  0.7818608E-02  0.1021225E+00
          2   -1    0    0  501    0  0.00000000000E+00  0.00000000000E+00  0.26191742846E+04  0.26191742846E+04  0.25500000000E-02 0.  1.
         -2   -1    0    0    0  501 -0.00000000000E+00 -0.00000000000E+00 -0.21307208247E+02  0.21307208399E+02  0.25500000000E-02 0. -1.
    5000001    1    1    2    0    0  0.24663051074E+02 -0.11952982956E+03  0.15012589067E+04  0.15193008099E+04  0.19900000000E+03 0.  0.
   -5000001    1    1    2    0    0 -0.24663051074E+02  0.11952982956E+03  0.10966081697E+04  0.11211806831E+04  0.19900000000E+03 0.  0.
<mgrwt>
<rscale>  0 0.47247134E+03</rscale>
<asrwt>0</asrwt>
<pdfrwt beam="1">  1        2 0.37416771E+00 0.47247134E+03</pdfrwt>
<pdfrwt beam="2">  1       -2 0.30438873E-02 0.47247134E+03</pdfrwt>
<totfact> 0.17793879E+03</totfact>
</mgrwt>
</event>
<event>
 4    1  0.4915183E-005  0.4294128E+03  0.7818608E-02  0.1034046E+00
          2   -1    0    0  501    0  0.00000000000E+00  0.00000000000E+00  0.65811323343E+03  0.65811323344E+03  0.25500000000E-02 0.  1.
         -2   -1    0    0    0  501 -0.00000000000E+00 -0.00000000000E+00 -0.70046961353E+02  0.70046961399E+02  0.25500000000E-02 0. -1.
    5000001    1    1    2    0    0  0.66330939031E+02 -0.45799440265E+02  0.29289556076E+03  0.36316138522E+03  0.19900000000E+03 0.  0.
   -5000001    1    1    2    0    0 -0.66330939031E+02  0.45799440265E+02  0.29517071132E+03  0.36499880962E+03  0.19900000000E+03 0.  0.
<mgrwt>
<rscale>  0 0.42941277E+03</rscale>
<asrwt>0</asrwt>
<pdfrwt beam="1">  1        2 0.94016170E-01 0.42941277E+03</pdfrwt>
<pdfrwt beam="2">  1       -2 0.10006709E-01 0.42941277E+03</pdfrwt>
<totfact> 0.32967276E+03</totfact>
</mgrwt>
</event>
<event>
 4    1  0.4915183E-005  0.5014119E+03  0.7818608E-02  0.1013411E+00
         -2   -1    0    0    0  501 -0.00000000000E+00  0.00000000000E+00  0.21111842741E+03  0.21111842742E+03  0.25500000000E-02 0. -1.
          2   -1    0    0  501    0  0.00000000000E+00 -0.00000000000E+00 -0.29771664503E+03  0.29771664504E+03  0.25500000000E-02 0.  1.
    5000001    1    1    2    0    0  0.10688336062E+03 -0.64240415496E+02  0.45758801911E+02  0.23926084450E+03  0.19900000000E+03 0.  0.
   -5000001    1    1    2    0    0 -0.10688336062E+03  0.64240415496E+02 -0.13235701953E+03  0.26957422796E+03  0.19900000000E+03 0.  0.
<mgrwt>
<rscale>  0 0.50141189E+03</rscale>
<asrwt>0</asrwt>
<pdfrwt beam="1">  1        2 0.42530950E-01 0.50141189E+03</pdfrwt>
<pdfrwt beam="2">  1       -2 0.30159775E-01 0.50141189E+03</pdfrwt>
<totfact> 0.12196309E+03</totfact>
</mgrwt>
</event>
