<event>
 4    1  0.5980424E-004  0.2451623E+03  0.7818608E-02  0.1116401E+00
          2   -1    0    0  501    0  0.00000000000E+00  0.00000000000E+00  0.27959721595E+04  0.27959721595E+04  0.25500000000E-02 0.  1.
         -2   -1    0    0    0  501 -0.00000000000E+00 -0.00000000000E+00 -0.53742078688E+01  0.53742084737E+01  0.25500000000E-02 0. -1.
    5000001    1    1    2    0    0 -0.95295649304E+02 -0.13736279710E+01  0.14380359106E+04  0.14432461425E+04  0.77000000000E+02 0.  0.
   -5000001    1    1    2    0    0  0.95295649304E+02  0.13736279710E+01  0.13525620410E+04  0.13581002254E+04  0.77000000000E+02 0.  0.
<mgrwt>
<rscale>  0 0.24516228E+03</rscale>
<asrwt>0</asrwt>
<pdfrwt beam="1">  1        2 0.43015019E+00 0.24516228E+03</pdfrwt>
<pdfrwt beam="2">  1       -2 0.82680005E-03 0.24516228E+03</pdfrwt>
<totfact> 0.76988956E+03</totfact>
</mgrwt>
</event>
<event>
 4    1  0.5980424E-004  0.2791996E+03  0.7818608E-02  0.1096127E+00
         -2   -1    0    0    0  501 -0.00000000000E+00  0.00000000000E+00  0.48437165105E+02  0.48437165172E+02  0.25500000000E-02 0. -1.
          2   -1    0    0  501    0  0.00000000000E+00 -0.00000000000E+00 -0.40233786506E+03  0.40233786507E+03  0.25500000000E-02 0.  1.
    5000001    1    1    2    0    0  0.99187769362E+02 -0.15610421521E+02 -0.81745230785E+02  0.15064256240E+03  0.77000000000E+02 0.  0.
   -5000001    1    1    2    0    0 -0.99187769362E+02  0.15610421521E+02 -0.27215546917E+03  0.30013246784E+03  0.77000000000E+02 0.  0.
<mgrwt>
<rscale>  0 0.27919961E+03</rscale>
<asrwt>0</asrwt>
<pdfrwt beam="1">  1        2 0.61898131E-01 0.27919961E+03</pdfrwt>
<pdfrwt beam="2">  1       -2 0.74518718E-02 0.27919961E+03</pdfrwt>
<totfact> 0.83349294E+03</totfact>
</mgrwt>
</event>
<event>
 4    1  0.5980424E-004  0.1903497E+03  0.7818608E-02  0.1158146E+00
          2   -1    0    0  501    0  0.00000000000E+00  0.00000000000E+00  0.52305521045E+03  0.52305521045E+03  0.25500000000E-02 0.  1.
         -2   -1    0    0    0  501 -0.00000000000E+00 -0.00000000000E+00 -0.17317969168E+02  0.17317969356E+02  0.25500000000E-02 0. -1.
    5000001    1    1    2    0    0 -0.16839426429E+02 -0.36329666623E+02  0.14197757453E+03  0.16640325306E+03  0.77000000000E+02 0.  0.
   -5000001    1    1    2    0    0  0.16839426429E+02  0.36329666623E+02  0.36375966675E+03  0.37396992675E+03  0.77000000000E+02 0.  0.
<mgrwt>
<rscale>  0 0.19034972E+03</rscale>
<asrwt>0</asrwt>
<pdfrwt beam="1">  1        2 0.80470028E-01 0.19034972E+03</pdfrwt>
<pdfrwt beam="2">  1       -2 0.26643031E-02 0.19034972E+03</pdfrwt>
<totfact> 0.28850183E+04</totfact>
</mgrwt>
</event>
<event>
 4    1  0.5980424E-004  0.4855656E+03  0.7818608E-02  0.1017617E+00
          2   -1    0    0  501    0  0.00000000000E+00  0.00000000000E+00  0.28471437857E+03  0.28471437858E+03  0.25500000000E-02 0.  1.
         -2   -1    0    0    0  501 -0.00000000000E+00 -0.00000000000E+00 -0.20702671853E+03  0.20702671854E+03  0.25500000000E-02 0. -1.
    5000001    1    1    2    0    0  0.20684302126E+03 -0.73723315335E+02  0.10897279773E+03  0.25694986537E+03  0.77000000000E+02 0.  0.
   -5000001    1    1    2    0    0 -0.20684302126E+03  0.73723315335E+02 -0.31285137685E+02  0.23479123175E+03  0.77000000000E+02 0.  0.
<mgrwt>
<rscale>  0 0.48556558E+03</rscale>
<asrwt>0</asrwt>
<pdfrwt beam="1">  1        2 0.43802212E-01 0.48556558E+03</pdfrwt>
<pdfrwt beam="2">  1       -2 0.31850264E-01 0.48556558E+03</pdfrwt>
<totfact> 0.10669686E+03</totfact>
</mgrwt>
</event>
<event>
 4    1  0.5980424E-004  0.2146714E+03  0.7818608E-02  0.1137919E+00
          2   -1    0    0  501    0  0.00000000000E+00  0.00000000000E+00  0.61984482573E+03  0.61984482574E+03  0.25500000000E-02 0.  1.
         -2   -1    0    0    0  501 -0.00000000000E+00 -0.00000000000E+00 -0.18586826811E+02  0.18586826986E+02  0.25500000000E-02 0. -1.
    5000001    1    1    2    0    0 -0.52705139559E+01 -0.65068628248E+02  0.19215992942E+03  0.21706253287E+03  0.77000000000E+02 0.  0.
   -5000001    1    1    2    0    0  0.52705139559E+01  0.65068628248E+02  0.40909806950E+03  0.42136911986E+03  0.77000000000E+02 0.  0.
<mgrwt>
<rscale>  0 0.21467136E+03</rscale>
<asrwt>0</asrwt>
<pdfrwt beam="1">  1        2 0.95360734E-01 0.21467136E+03</pdfrwt>
<pdfrwt beam="2">  1       -2 0.28595121E-02 0.21467136E+03</pdfrwt>
<totfact> 0.21605957E+04</totfact>
</mgrwt>
</event>
<event>
 4    1  0.5980424E-004  0.4212454E+03  0.7818608E-02  0.1036662E+00
          2   -1    0    0  501    0  0.00000000000E+00  0.00000000000E+00  0.72807087605E+03  0.72807087606E+03  0.25500000000E-02 0.  1.
         -2   -1    0    0    0  501 -0.00000000000E+00 -0.00000000000E+00 -0.60930771768E+02  0.60930771821E+02  0.25500000000E-02 0. -1.
    5000001    1    1    2    0    0 -0.14896923250E+03  0.12730354805E+03  0.32250576963E+03  0.38514542322E+03  0.77000000000E+02 0.  0.
   -5000001    1    1    2    0    0  0.14896923250E+03 -0.12730354805E+03  0.34463433465E+03  0.40385622466E+03  0.77000000000E+02 0.  0.
<mgrwt>
<rscale>  0 0.42124539E+03</rscale>
<asrwt>0</asrwt>
<pdfrwt beam="1">  1        2 0.11201090E+00 0.42124539E+03</pdfrwt>
<pdfrwt beam="2">  1       -2 0.93739653E-02 0.42124539E+03</pdfrwt>
<totfact> 0.29552897E+03</totfact>
</mgrwt>
</event>
<event>
 4    1  0.5980424E-004  0.2750124E+03  0.7818608E-02  0.1098445E+00
         -2   -1    0    0    0  501 -0.00000000000E+00  0.00000000000E+00  0.83617208845E+02  0.83617208883E+02  0.25500000000E-02 0. -1.
          2   -1    0    0  501    0  0.00000000000E+00 -0.00000000000E+00 -0.22612518159E+03  0.22612518160E+03  0.25500000000E-02 0.  1.
    5000001    1    1    2    0    0  0.78513558866E+02  0.51313787265E+02  0.15764635966E+01  0.12136296357E+03  0.77000000000E+02 0.  0.
   -5000001    1    1    2    0    0 -0.78513558866E+02 -0.51313787265E+02 -0.14408443634E+03  0.18837942692E+03  0.77000000000E+02 0.  0.
<mgrwt>
<rscale>  0 0.27501241E+03</rscale>
<asrwt>0</asrwt>
<pdfrwt beam="1">  1        2 0.34788489E-01 0.27501241E+03</pdfrwt>
<pdfrwt beam="2">  1       -2 0.12864186E-01 0.27501241E+03</pdfrwt>
<totfact> 0.65206218E+03</totfact>
</mgrwt>
</event>
<event>
 4    1  0.5980424E-004  0.4006886E+03  0.7818608E-02  0.1043541E+00
         -2   -1    0    0    0  501 -0.00000000000E+00  0.00000000000E+00  0.24529430100E+02  0.24529430232E+02  0.25500000000E-02 0. -1.
          2   -1    0    0  501    0  0.00000000000E+00 -0.00000000000E+00 -0.16363137866E+04  0.16363137866E+04  0.25500000000E-02 0.  1.
    5000001    1    1    2    0    0 -0.43158617865E+02  0.16687732208E+03 -0.10838878261E+04  0.11002056746E+04  0.77000000000E+02 0.  0.
   -5000001    1    1    2    0    0  0.43158617865E+02 -0.16687732208E+03 -0.52789653042E+03  0.56063754223E+03  0.77000000000E+02 0.  0.
<mgrwt>
<rscale>  0 0.40068863E+03</rscale>
<asrwt>0</asrwt>
<pdfrwt beam="1">  1        2 0.25174050E+00 0.40068863E+03</pdfrwt>
<pdfrwt beam="2">  1       -2 0.37737598E-02 0.40068863E+03</pdfrwt>
<totfact> 0.34624402E+03</totfact>
</mgrwt>
</event>
<event>
 4    1  0.5980424E-004  0.2534240E+03  0.7818608E-02  0.1111160E+00
          2   -1    0    0  501    0  0.00000000000E+00  0.00000000000E+00  0.93300490516E+03  0.93300490516E+03  0.25500000000E-02 0.  1.
         -2   -1    0    0    0  501 -0.00000000000E+00 -0.00000000000E+00 -0.17208843206E+02  0.17208843395E+02  0.25500000000E-02 0. -1.
    5000001    1    1    2    0    0  0.30004810699E+02  0.94560708739E+02  0.39460816883E+03  0.41410943386E+03  0.77000000000E+02 0.  0.
   -5000001    1    1    2    0    0 -0.30004810699E+02 -0.94560708739E+02  0.52118789312E+03  0.53610431470E+03  0.77000000000E+02 0.  0.
<mgrwt>
<rscale>  0 0.25342403E+03</rscale>
<asrwt>0</asrwt>
<pdfrwt beam="1">  1        2 0.14353918E+00 0.25342403E+03</pdfrwt>
<pdfrwt beam="2">  1       -2 0.26475149E-02 0.25342403E+03</pdfrwt>
<totfact> 0.14659552E+04</totfact>
</mgrwt>
</event>
<event>
 4    1  0.5980424E-004  0.1915417E+03  0.7818608E-02  0.1157078E+00
          2   -1    0    0  501    0  0.00000000000E+00  0.00000000000E+00  0.21109752504E+03  0.21109752505E+03  0.25500000000E-02 0.  1.
         -2   -1    0    0    0  501 -0.00000000000E+00 -0.00000000000E+00 -0.43449357406E+02  0.43449357481E+02  0.25500000000E-02 0. -1.
    5000001    1    1    2    0    0 -0.27994735038E+02 -0.49468242587E+02  0.79174775715E+02  0.12421134137E+03  0.77000000000E+02 0.  0.
   -5000001    1    1    2    0    0  0.27994735038E+02  0.49468242587E+02  0.88473391918E+02  0.13033554117E+03  0.77000000000E+02 0.  0.
<mgrwt>
<rscale>  0 0.19154166E+03</rscale>
<asrwt>0</asrwt>
<pdfrwt beam="1">  1        2 0.32476542E-01 0.19154166E+03</pdfrwt>
<pdfrwt beam="2">  1       -2 0.66845166E-02 0.19154166E+03</pdfrwt>
<totfact> 0.19331310E+04</totfact>
</mgrwt>
</event>
<event>
 4    1  0.5980424E-004  0.4832637E+03  0.7818608E-02  0.1018242E+00
         -2   -1    0    0    0  501 -0.00000000000E+00  0.00000000000E+00  0.57381504633E+02  0.57381504689E+02  0.25500000000E-02 0. -1.
          2   -1    0    0  501    0  0.00000000000E+00 -0.00000000000E+00 -0.10175047589E+04  0.10175047589E+04  0.25500000000E-02 0.  1.
    5000001    1    1    2    0    0 -0.18138406878E+03 -0.13183838213E+03 -0.58380236960E+03  0.63010772583E+03  0.77000000000E+02 0.  0.
   -5000001    1    1    2    0    0  0.18138406878E+03  0.13183838213E+03 -0.37632088464E+03  0.44477853773E+03  0.77000000000E+02 0.  0.
<mgrwt>
<rscale>  0 0.48326371E+03</rscale>
<asrwt>0</asrwt>
<pdfrwt beam="1">  1        2 0.15653918E+00 0.48326371E+03</pdfrwt>
<pdfrwt beam="2">  1       -2 0.88279245E-02 0.48326371E+03</pdfrwt>
<totfact> 0.20740520E+03</totfact>
</mgrwt>
</event>
<event>
 4    1  0.5980424E-004  0.3796664E+03  0.7818608E-02  0.1051057E+00
         -2   -1    0    0    0  501 -0.00000000000E+00  0.00000000000E+00  0.15505894792E+02  0.15505895002E+02  0.25500000000E-02 0. -1.
          2   -1    0    0  501    0  0.00000000000E+00 -0.00000000000E+00 -0.23240613546E+04  0.23240613546E+04  0.25500000000E-02 0.  1.
    5000001    1    1    2    0    0  0.13361372113E+03 -0.35443672682E+02 -0.18005349364E+04  0.18074744639E+04  0.77000000000E+02 0.  0.
   -5000001    1    1    2    0    0 -0.13361372113E+03  0.35443672682E+02 -0.50802052340E+03  0.53209278571E+03  0.77000000000E+02 0.  0.
<mgrwt>
<rscale>  0 0.37966644E+03</rscale>
<asrwt>0</asrwt>
<pdfrwt beam="1">  1        2 0.35754762E+00 0.37966644E+03</pdfrwt>
<pdfrwt beam="2">  1       -2 0.23855241E-02 0.37966644E+03</pdfrwt>
<totfact> 0.29586365E+03</totfact>
</mgrwt>
</event>
<event>
 4    1  0.5980424E-004  0.4980358E+03  0.7818608E-02  0.1014293E+00
          2   -1    0    0  501    0  0.00000000000E+00  0.00000000000E+00  0.31615900076E+03  0.31615900077E+03  0.25500000000E-02 0.  1.
         -2   -1    0    0    0  501 -0.00000000000E+00 -0.00000000000E+00 -0.19613521213E+03  0.19613521214E+03  0.25500000000E-02 0. -1.
    5000001    1    1    2    0    0 -0.62618045265E+02 -0.20428333440E+03  0.16505409891E+03  0.28075711189E+03  0.77000000000E+02 0.  0.
   -5000001    1    1    2    0    0  0.62618045265E+02  0.20428333440E+03 -0.45030310275E+02  0.23153710103E+03  0.77000000000E+02 0.  0.
<mgrwt>
<rscale>  0 0.49803579E+03</rscale>
<asrwt>0</asrwt>
<pdfrwt beam="1">  1        2 0.48639846E-01 0.49803579E+03</pdfrwt>
<pdfrwt beam="2">  1       -2 0.30174648E-01 0.49803579E+03</pdfrwt>
<totfact> 0.10511011E+03</totfact>
</mgrwt>
</event>
<event>
 4    1  0.5980424E-004  0.5338265E+03  0.7818608E-02  0.1005308E+00
         -2   -1    0    0    0  501 -0.00000000000E+00  0.00000000000E+00  0.70668992527E+03  0.70668992527E+03  0.25500000000E-02 0.  1.
          2   -1    0    0  501    0  0.00000000000E+00 -0.00000000000E+00 -0.10081181670E+03  0.10081181673E+03  0.25500000000E-02 0. -1.
    5000001    1    1    2    0    0 -0.10602227926E+03 -0.68391507047E+02  0.63913100938E+03  0.65599967156E+03  0.77000000000E+02 0.  0.
   -5000001    1    1    2    0    0  0.10602227926E+03  0.68391507047E+02 -0.33252900810E+02  0.15150207044E+03  0.77000000000E+02 0.  0.
<mgrwt>
<rscale>  0 0.53382655E+03</rscale>
<asrwt>0</asrwt>
<pdfrwt beam="1">  1        2 0.15509511E-01 0.53382655E+03</pdfrwt>
<pdfrwt beam="2">  1       -2 0.10872152E+00 0.53382655E+03</pdfrwt>
<totfact> 0.26360888E+02</totfact>
</mgrwt>
</event>
<event>
 4    1  0.5980424E-004  0.1806742E+03  0.7818608E-02  0.1167152E+00
          2   -1    0    0  501    0  0.00000000000E+00  0.00000000000E+00  0.74565930141E+03  0.74565930141E+03  0.25500000000E-02 0.  1.
         -2   -1    0    0    0  501 -0.00000000000E+00 -0.00000000000E+00 -0.10944400887E+02  0.10944401184E+02  0.25500000000E-02 0. -1.
    5000001    1    1    2    0    0  0.26465571627E+02 -0.24788903178E+02  0.49416002683E+03  0.50143598626E+03  0.77000000000E+02 0.  0.
   -5000001    1    1    2    0    0 -0.26465571627E+02  0.24788903178E+02  0.24055487370E+03  0.25516771634E+03  0.77000000000E+02 0.  0.
<mgrwt>
<rscale>  0 0.18067423E+03</rscale>
<asrwt>0</asrwt>
<pdfrwt beam="1">  1        2 0.11471680E+00 0.18067423E+03</pdfrwt>
<pdfrwt beam="2">  1       -2 0.16837542E-02 0.18067423E+03</pdfrwt>
<totfact> 0.37204734E+04</totfact>
</mgrwt>
</event>
<event>
 4    1  0.5980424E-004  0.1963319E+03  0.7818608E-02  0.1152871E+00
         -2   -1    0    0    0  501 -0.00000000000E+00  0.00000000000E+00  0.55416429709E+01  0.55416435576E+01  0.25500000000E-02 0.  1.
          2   -1    0    0  501    0  0.00000000000E+00 -0.00000000000E+00 -0.17389350373E+04  0.17389350373E+04  0.25500000000E-02 0. -1.
    5000001    1    1    2    0    0  0.60241101627E+02 -0.39959660063E+01 -0.93699743561E+03  0.94209243305E+03  0.77000000000E+02 0.  0.
   -5000001    1    1    2    0    0 -0.60241101627E+02  0.39959660063E+01 -0.79639595873E+03  0.80238424783E+03  0.77000000000E+02 0.  0.
<mgrwt>
<rscale>  0 0.19633194E+03</rscale>
<asrwt>0</asrwt>
<pdfrwt beam="1">  1        2 0.26752803E+00 0.19633194E+03</pdfrwt>
<pdfrwt beam="2">  1       -2 0.85256189E-03 0.19633194E+03</pdfrwt>
<totfact> 0.26954363E+04</totfact>
</mgrwt>
</event>
<event>
 4    1  0.5980424E-004  0.3162828E+03  0.7818608E-02  0.1077373E+00
         -2   -1    0    0    0  501 -0.00000000000E+00  0.00000000000E+00  0.10878624368E+02  0.10878624667E+02  0.25500000000E-02 0. -1.
          2   -1    0    0  501    0  0.00000000000E+00 -0.00000000000E+00 -0.22988849268E+04  0.22988849268E+04  0.25500000000E-02 0.  1.
    5000001    1    1    2    0    0 -0.12371368492E+03 -0.31092848720E+02 -0.75703072667E+03  0.77155451019E+03  0.77000000000E+02 0.  0.
   -5000001    1    1    2    0    0  0.12371368492E+03  0.31092848720E+02 -0.15309755757E+04  0.15382090412E+04  0.77000000000E+02 0.  0.
<mgrwt>
<rscale>  0 0.31628282E+03</rscale>
<asrwt>0</asrwt>
<pdfrwt beam="1">  1        2 0.35367422E+00 0.31628282E+03</pdfrwt>
<pdfrwt beam="2">  1       -2 0.16736364E-02 0.31628282E+03</pdfrwt>
<totfact> 0.51762442E+03</totfact>
</mgrwt>
</event>
<event>
 4    1  0.5980424E-004  0.2137093E+03  0.7818608E-02  0.1138662E+00
          2   -1    0    0  501    0  0.00000000000E+00  0.00000000000E+00  0.13382526306E+02  0.13382526549E+02  0.25500000000E-02 0.  1.
         -2   -1    0    0    0  501 -0.00000000000E+00 -0.00000000000E+00 -0.85319621468E+03  0.85319621469E+03  0.25500000000E-02 0. -1.
    5000001    1    1    2    0    0  0.63819114691E+02  0.37472282821E+02 -0.43387699186E+03  0.44682803789E+03  0.77000000000E+02 0.  0.
   -5000001    1    1    2    0    0 -0.63819114691E+02 -0.37472282821E+02 -0.40593669651E+03  0.41975070334E+03  0.77000000000E+02 0.  0.
<mgrwt>
<rscale>  0 0.21370934E+03</rscale>
<asrwt>0</asrwt>
<pdfrwt beam="1">  1        2 0.20588509E-02 0.21370934E+03</pdfrwt>
<pdfrwt beam="2">  1       -2 0.13126091E+00 0.21370934E+03</pdfrwt>
<totfact> 0.23096909E+03</totfact>
</mgrwt>
</event>
<event>
 4    1  0.5980424E-004  0.3116416E+03  0.7818608E-02  0.1079562E+00
          2   -1    0    0  501    0  0.00000000000E+00  0.00000000000E+00  0.17121024597E+04  0.17121024597E+04  0.25500000000E-02 0.  1.
         -2   -1    0    0    0  501 -0.00000000000E+00 -0.00000000000E+00 -0.14181462391E+02  0.14181462620E+02  0.25500000000E-02 0. -1.
    5000001    1    1    2    0    0  0.56040283041E+02  0.12051393489E+03  0.70377152457E+03  0.72033844866E+03  0.77000000000E+02 0.  0.
   -5000001    1    1    2    0    0 -0.56040283041E+02 -0.12051393489E+03  0.99414947272E+03  0.10059454736E+04  0.77000000000E+02 0.  0.
<mgrwt>
<rscale>  0 0.31164157E+03</rscale>
<asrwt>0</asrwt>
<pdfrwt beam="1">  1        2 0.26340056E+00 0.31164157E+03</pdfrwt>
<pdfrwt beam="2">  1       -2 0.21817620E-02 0.31164157E+03</pdfrwt>
<totfact> 0.71685802E+03</totfact>
</mgrwt>
</event>
<event>
 4    1  0.5980424E-004  0.1939319E+03  0.7818608E-02  0.1154962E+00
          2   -1    0    0  501    0  0.00000000000E+00  0.00000000000E+00  0.28140449482E+04  0.28140449482E+04  0.25500000000E-02 0.  1.
         -2   -1    0    0    0  501 -0.00000000000E+00 -0.00000000000E+00 -0.33412372616E+01  0.33412382346E+01  0.25500000000E-02 0. -1.
    5000001    1    1    2    0    0  0.51171182208E+02  0.22480644628E+02  0.11337481800E+04  0.11377336265E+04  0.77000000000E+02 0.  0.
   -5000001    1    1    2    0    0 -0.51171182208E+02 -0.22480644628E+02  0.16769555309E+04  0.16796525599E+04  0.77000000000E+02 0.  0.
<mgrwt>
<rscale>  0 0.19393188E+03</rscale>
<asrwt>0</asrwt>
<pdfrwt beam="1">  1        2 0.43293017E+00 0.19393188E+03</pdfrwt>
<pdfrwt beam="2">  1       -2 0.51403637E-03 0.19393188E+03</pdfrwt>
<totfact> 0.14855347E+04</totfact>
</mgrwt>
</event>
<event>
 4    1  0.5980424E-004  0.1987693E+03  0.7818608E-02  0.1150782E+00
          2   -1    0    0  501    0  0.00000000000E+00  0.00000000000E+00  0.19427801325E+04  0.19427801325E+04  0.25500000000E-02 0.  1.
         -2   -1    0    0    0  501 -0.00000000000E+00 -0.00000000000E+00 -0.50841077344E+01  0.50841083739E+01  0.25500000000E-02 0. -1.
    5000001    1    1    2    0    0 -0.50254134311E+02  0.19569975521E+02  0.65284356987E+03  0.65957728030E+03  0.77000000000E+02 0.  0.
   -5000001    1    1    2    0    0  0.50254134311E+02 -0.19569975521E+02  0.12848524549E+04  0.12882869605E+04  0.77000000000E+02 0.  0.
<mgrwt>
<rscale>  0 0.19876925E+03</rscale>
<asrwt>0</asrwt>
<pdfrwt beam="1">  1        2 0.29888966E+00 0.19876925E+03</pdfrwt>
<pdfrwt beam="2">  1       -2 0.78216941E-03 0.19876925E+03</pdfrwt>
<totfact> 0.23929623E+04</totfact>
</mgrwt>
</event>
<event>
 4    1  0.5980424E-004  0.5166536E+03  0.7818608E-02  0.1009521E+00
         -2   -1    0    0    0  501 -0.00000000000E+00  0.00000000000E+00  0.52058982891E+02  0.52058982953E+02  0.25500000000E-02 0. -1.
          2   -1    0    0  501    0  0.00000000000E+00 -0.00000000000E+00 -0.12818679233E+04  0.12818679233E+04  0.25500000000E-02 0.  1.
    5000001    1    1    2    0    0  0.15248624866E+03 -0.19335772729E+03 -0.64801610741E+03  0.69749060366E+03  0.77000000000E+02 0.  0.
   -5000001    1    1    2    0    0 -0.15248624866E+03  0.19335772729E+03 -0.58179283302E+03  0.63643630261E+03  0.77000000000E+02 0.  0.
<mgrwt>
<rscale>  0 0.51665362E+03</rscale>
<asrwt>0</asrwt>
<pdfrwt beam="1">  1        2 0.19721043E+00 0.51665362E+03</pdfrwt>
<pdfrwt beam="2">  1       -2 0.80090753E-02 0.51665362E+03</pdfrwt>
<totfact> 0.16863060E+03</totfact>
</mgrwt>
</event>
<event>
 4    1  0.5980424E-004  0.3063054E+03  0.7818608E-02  0.1082130E+00
          2   -1    0    0  501    0  0.00000000000E+00  0.00000000000E+00  0.30491695326E+04  0.30491695326E+04  0.25500000000E-02 0.  1.
         -2   -1    0    0    0  501 -0.00000000000E+00 -0.00000000000E+00 -0.76925037056E+01  0.76925041283E+01  0.25500000000E-02 0. -1.
    5000001    1    1    2    0    0 -0.12190939344E+03 -0.51614668657E+02  0.15295204260E+04  0.15371687310E+04  0.77000000000E+02 0.  0.
   -5000001    1    1    2    0    0  0.12190939344E+03  0.51614668657E+02  0.15119566029E+04  0.15196933057E+04  0.77000000000E+02 0.  0.
<mgrwt>
<rscale>  0 0.30630539E+03</rscale>
<asrwt>0</asrwt>
<pdfrwt beam="1">  1        2 0.46910336E+00 0.30630539E+03</pdfrwt>
<pdfrwt beam="2">  1       -2 0.11834612E-02 0.30630539E+03</pdfrwt>
<totfact> 0.32401946E+03</totfact>
</mgrwt>
</event>
<event>
 4    1  0.5980424E-004  0.2299663E+03  0.7818608E-02  0.1126663E+00
          2   -1    0    0  501    0  0.00000000000E+00  0.00000000000E+00  0.19856065003E+04  0.19856065003E+04  0.25500000000E-02 0.  1.
         -2   -1    0    0    0  501 -0.00000000000E+00 -0.00000000000E+00 -0.66584809232E+01  0.66584814115E+01  0.25500000000E-02 0. -1.
    5000001    1    1    2    0    0  0.52064694380E+02  0.67089430513E+02  0.91179398791E+03  0.91897170820E+03  0.77000000000E+02 0.  0.
   -5000001    1    1    2    0    0 -0.52064694380E+02 -0.67089430513E+02  0.10671540314E+04  0.10732932735E+04  0.77000000000E+02 0.  0.
<mgrwt>
<rscale>  0 0.22996629E+03</rscale>
<asrwt>0</asrwt>
<pdfrwt beam="1">  1        2 0.30547791E+00 0.22996629E+03</pdfrwt>
<pdfrwt beam="2">  1       -2 0.10243818E-02 0.22996629E+03</pdfrwt>
<totfact> 0.15484813E+04</totfact>
</mgrwt>
</event>
<event>
 4    1  0.5980424E-004  0.1771430E+03  0.7818608E-02  0.1170597E+00
         -2   -1    0    0    0  501 -0.00000000000E+00  0.00000000000E+00  0.10266530707E+02  0.10266531024E+02  0.25500000000E-02 0. -1.
          2   -1    0    0  501    0  0.00000000000E+00 -0.00000000000E+00 -0.76412495652E+03  0.76412495652E+03  0.25500000000E-02 0.  1.
    5000001    1    1    2    0    0  0.41120234884E+02  0.93006066125E+00 -0.31147631529E+03  0.32347833577E+03  0.77000000000E+02 0.  0.
   -5000001    1    1    2    0    0 -0.41120234884E+02 -0.93006066125E+00 -0.44238211052E+03  0.45091315177E+03  0.77000000000E+02 0.  0.
<mgrwt>
<rscale>  0 0.17714302E+03</rscale>
<asrwt>0</asrwt>
<pdfrwt beam="1">  1        2 0.11755764E+00 0.17714302E+03</pdfrwt>
<pdfrwt beam="2">  1       -2 0.15794669E-02 0.17714302E+03</pdfrwt>
<totfact> 0.39550690E+04</totfact>
</mgrwt>
</event>
<event>
 4    1  0.5980424E-004  0.2977020E+03  0.7818608E-02  0.1086395E+00
          2   -1    0    0  501    0  0.00000000000E+00  0.00000000000E+00  0.26125280185E+04  0.26125280185E+04  0.25500000000E-02 0.  1.
         -2   -1    0    0    0  501 -0.00000000000E+00 -0.00000000000E+00 -0.84809101638E+01  0.84809105472E+01  0.25500000000E-02 0. -1.
    5000001    1    1    2    0    0  0.70375418954E+02 -0.87956812662E+02  0.18257413576E+04  0.18308330359E+04  0.77000000000E+02 0.  0.
   -5000001    1    1    2    0    0 -0.70375418954E+02  0.87956812662E+02  0.77830575076E+03  0.79017589318E+03  0.77000000000E+02 0.  0.
<mgrwt>
<rscale>  0 0.29770197E+03</rscale>
<asrwt>0</asrwt>
<pdfrwt beam="1">  1        2 0.40192768E+00 0.29770197E+03</pdfrwt>
<pdfrwt beam="2">  1       -2 0.13047545E-02 0.29770197E+03</pdfrwt>
<totfact> 0.50252342E+03</totfact>
</mgrwt>
</event>
<event>
 4    1  0.5980424E-004  0.2240963E+03  0.7818608E-02  0.1130865E+00
          2   -1    0    0  501    0  0.00000000000E+00  0.00000000000E+00  0.26065011390E+03  0.26065011391E+03  0.25500000000E-02 0.  1.
         -2   -1    0    0    0  501 -0.00000000000E+00 -0.00000000000E+00 -0.48167209982E+02  0.48167210050E+02  0.25500000000E-02 0. -1.
    5000001    1    1    2    0    0 -0.73929049651E+02  0.15271653093E+02  0.64282840046E+02  0.12553888360E+03  0.77000000000E+02 0.  0.
   -5000001    1    1    2    0    0  0.73929049651E+02 -0.15271653093E+02  0.14820006387E+03  0.18327844036E+03  0.77000000000E+02 0.  0.
<mgrwt>
<rscale>  0 0.22409631E+03</rscale>
<asrwt>0</asrwt>
<pdfrwt beam="1">  1        2 0.40100016E-01 0.22409631E+03</pdfrwt>
<pdfrwt beam="2">  1       -2 0.74103402E-02 0.22409631E+03</pdfrwt>
<totfact> 0.13275462E+04</totfact>
</mgrwt>
</event>
<event>
 4    1  0.5980424E-004  0.2986592E+03  0.7818608E-02  0.1085913E+00
          2   -1    0    0  501    0  0.00000000000E+00  0.00000000000E+00  0.76485544494E+02  0.76485544537E+02  0.25500000000E-02 0.  1.
         -2   -1    0    0    0  501 -0.00000000000E+00 -0.00000000000E+00 -0.29154954285E+03  0.29154954286E+03  0.25500000000E-02 0. -1.
    5000001    1    1    2    0    0  0.46216734025E+02 -0.11929127198E+03 -0.10997537759E+03  0.18544534977E+03  0.77000000000E+02 0.  0.
   -5000001    1    1    2    0    0 -0.46216734025E+02  0.11929127198E+03 -0.10508862077E+03  0.18258973763E+03  0.77000000000E+02 0.  0.
<mgrwt>
<rscale>  0 0.29865917E+03</rscale>
<asrwt>0</asrwt>
<pdfrwt beam="1">  1        2 0.11767007E-01 0.29865917E+03</pdfrwt>
<pdfrwt beam="2">  1       -2 0.44853775E-01 0.29865917E+03</pdfrwt>
<totfact> 0.24949927E+03</totfact>
</mgrwt>
</event>
<event>
 4    1  0.5980424E-004  0.2552631E+03  0.7818608E-02  0.1110023E+00
         -2   -1    0    0    0  501 -0.00000000000E+00  0.00000000000E+00  0.44228492604E+02  0.44228492678E+02  0.25500000000E-02 0. -1.
          2   -1    0    0  501    0  0.00000000000E+00 -0.00000000000E+00 -0.36831041799E+03  0.36831041799E+03  0.25500000000E-02 0.  1.
    5000001    1    1    2    0    0 -0.84975124454E+02 -0.32332739925E+02 -0.23600680583E+03  0.26437547210E+03  0.77000000000E+02 0.  0.
   -5000001    1    1    2    0    0  0.84975124454E+02  0.32332739925E+02 -0.88075119548E+02  0.14816343857E+03  0.77000000000E+02 0.  0.
<mgrwt>
<rscale>  0 0.25526312E+03</rscale>
<asrwt>0</asrwt>
<pdfrwt beam="1">  1        2 0.56663139E-01 0.25526312E+03</pdfrwt>
<pdfrwt beam="2">  1       -2 0.68043837E-02 0.25526312E+03</pdfrwt>
<totfact> 0.10520386E+04</totfact>
</mgrwt>
</event>
<event>
 4    1  0.5980424E-004  0.1964732E+03  0.7818608E-02  0.1152749E+00
         -2   -1    0    0    0  501 -0.00000000000E+00  0.00000000000E+00  0.53959244931E+01  0.53959250956E+01  0.25500000000E-02 0. -1.
          2   -1    0    0  501    0  0.00000000000E+00 -0.00000000000E+00 -0.17884661925E+04  0.17884661925E+04  0.25500000000E-02 0.  1.
    5000001    1    1    2    0    0 -0.44362883089E+02  0.41658031318E+02 -0.93024175267E+03  0.93540481899E+03  0.77000000000E+02 0.  0.
   -5000001    1    1    2    0    0  0.44362883089E+02 -0.41658031318E+02 -0.85282851530E+03  0.85845729858E+03  0.77000000000E+02 0.  0.
<mgrwt>
<rscale>  0 0.19647319E+03</rscale>
<asrwt>0</asrwt>
<pdfrwt beam="1">  1        2 0.27514817E+00 0.19647319E+03</pdfrwt>
<pdfrwt beam="2">  1       -2 0.83014370E-03 0.19647319E+03</pdfrwt>
<totfact> 0.26398481E+04</totfact>
</mgrwt>
</event>
<event>
 4    1  0.5980424E-004  0.2311683E+03  0.7818608E-02  0.1125820E+00
         -2   -1    0    0    0  501 -0.00000000000E+00  0.00000000000E+00  0.37653956164E+01  0.37653964798E+01  0.25500000000E-02 0. -1.
          2   -1    0    0  501    0  0.00000000000E+00 -0.00000000000E+00 -0.35480188895E+04  0.35480188895E+04  0.25500000000E-02 0.  1.
    5000001    1    1    2    0    0 -0.82676583771E+02 -0.23703660411E+02 -0.16833108116E+04  0.16872645227E+04  0.77000000000E+02 0.  0.
   -5000001    1    1    2    0    0  0.82676583771E+02  0.23703660411E+02 -0.18609426823E+04  0.18645197633E+04  0.77000000000E+02 0.  0.
<mgrwt>
<rscale>  0 0.23116830E+03</rscale>
<asrwt>0</asrwt>
<pdfrwt beam="1">  1        2 0.54584639E+00 0.23116830E+03</pdfrwt>
<pdfrwt beam="2">  1       -2 0.57929454E-03 0.23116830E+03</pdfrwt>
<totfact> 0.44465749E+03</totfact>
</mgrwt>
</event>
<event>
 4    1  0.5980424E-004  0.6761634E+03  0.7818608E-02  0.9758887E-01
         -2   -1    0    0    0  501 -0.00000000000E+00  0.00000000000E+00  0.70607643867E+02  0.70607643913E+02  0.25500000000E-02 0. -1.
          2   -1    0    0  501    0  0.00000000000E+00 -0.00000000000E+00 -0.16187940759E+04  0.16187940759E+04  0.25500000000E-02 0.  1.
    5000001    1    1    2    0    0  0.16560278213E+03  0.25838934806E+03 -0.10716248554E+04  0.11173621469E+04  0.77000000000E+02 0.  0.
   -5000001    1    1    2    0    0 -0.16560278213E+03 -0.25838934806E+03 -0.47656157659E+03  0.57203957286E+03  0.77000000000E+02 0.  0.
<mgrwt>
<rscale>  0 0.67616340E+03</rscale>
<asrwt>0</asrwt>
<pdfrwt beam="1">  1        2 0.24904521E+00 0.67616340E+03</pdfrwt>
<pdfrwt beam="2">  1       -2 0.10862716E-01 0.67616340E+03</pdfrwt>
<totfact> 0.66490872E+02</totfact>
</mgrwt>
</event>
<event>
 4    1  0.5980424E-004  0.2683045E+03  0.7818608E-02  0.1102254E+00
         -2   -1    0    0    0  501 -0.00000000000E+00  0.00000000000E+00  0.53772543634E+02  0.53772543694E+02  0.25500000000E-02 0. -1.
          2   -1    0    0  501    0  0.00000000000E+00 -0.00000000000E+00 -0.33468430848E+03  0.33468430849E+03  0.25500000000E-02 0.  1.
    5000001    1    1    2    0    0  0.20013611075E+02 -0.73228017600E+02 -0.25541813992E+03  0.27736314353E+03  0.77000000000E+02 0.  0.
   -5000001    1    1    2    0    0 -0.20013611075E+02  0.73228017600E+02 -0.25493624925E+02  0.11109370865E+03  0.77000000000E+02 0.  0.
<mgrwt>
<rscale>  0 0.26830450E+03</rscale>
<asrwt>0</asrwt>
<pdfrwt beam="1">  1        2 0.51489892E-01 0.26830450E+03</pdfrwt>
<pdfrwt beam="2">  1       -2 0.82726993E-02 0.26830450E+03</pdfrwt>
<totfact> 0.86278669E+03</totfact>
</mgrwt>
</event>
<event>
 4    1  0.5980424E-004  0.2411862E+03  0.7818608E-02  0.1119005E+00
          2   -1    0    0  501    0  0.00000000000E+00  0.00000000000E+00  0.11039214932E+04  0.11039214932E+04  0.25500000000E-02 0.  1.
         -2   -1    0    0    0  501 -0.00000000000E+00 -0.00000000000E+00 -0.13173671918E+02  0.13173672165E+02  0.25500000000E-02 0. -1.
    5000001    1    1    2    0    0 -0.87073436552E+02 -0.31751278623E+02  0.56795664929E+03  0.58059769421E+03  0.77000000000E+02 0.  0.
   -5000001    1    1    2    0    0  0.87073436552E+02  0.31751278623E+02  0.52279117197E+03  0.53649747114E+03  0.77000000000E+02 0.  0.
<mgrwt>
<rscale>  0 0.24118623E+03</rscale>
<asrwt>0</asrwt>
<pdfrwt beam="1">  1        2 0.16983410E+00 0.24118623E+03</pdfrwt>
<pdfrwt beam="2">  1       -2 0.20267185E-02 0.24118623E+03</pdfrwt>
<totfact> 0.17086437E+04</totfact>
</mgrwt>
</event>
<event>
 4    1  0.5980424E-004  0.3862272E+03  0.7818608E-02  0.1048656E+00
         -2   -1    0    0    0  501 -0.00000000000E+00  0.00000000000E+00  0.16112742813E+02  0.16112743015E+02  0.25500000000E-02 0. -1.
          2   -1    0    0  501    0  0.00000000000E+00 -0.00000000000E+00 -0.23144950398E+04  0.23144950398E+04  0.25500000000E-02 0.  1.
    5000001    1    1    2    0    0 -0.12772108105E+03 -0.10839524700E+03 -0.80246031156E+03  0.82336732735E+03  0.77000000000E+02 0.  0.
   -5000001    1    1    2    0    0  0.12772108105E+03  0.10839524700E+03 -0.14959219854E+04  0.15072404554E+04  0.77000000000E+02 0.  0.
<mgrwt>
<rscale>  0 0.38622721E+03</rscale>
<asrwt>0</asrwt>
<pdfrwt beam="1">  1        2 0.35607590E+00 0.38622721E+03</pdfrwt>
<pdfrwt beam="2">  1       -2 0.24788853E-02 0.38622721E+03</pdfrwt>
<totfact> 0.28263802E+03</totfact>
</mgrwt>
</event>
<event>
 4    1  0.5980424E-004  0.1845169E+03  0.7818608E-02  0.1163502E+00
          2   -1    0    0  501    0  0.00000000000E+00  0.00000000000E+00  0.98423835569E+03  0.98423835570E+03  0.25500000000E-02 0.  1.
         -2   -1    0    0    0  501 -0.00000000000E+00 -0.00000000000E+00 -0.86479233005E+01  0.86479236764E+01  0.25500000000E-02 0. -1.
    5000001    1    1    2    0    0 -0.14494957485E+02  0.14735019884E+02  0.23797549161E+03  0.25097521632E+03  0.77000000000E+02 0.  0.
   -5000001    1    1    2    0    0  0.14494957485E+02 -0.14735019884E+02  0.73761494079E+03  0.74191106305E+03  0.77000000000E+02 0.  0.
<mgrwt>
<rscale>  0 0.18451686E+03</rscale>
<asrwt>0</asrwt>
<pdfrwt beam="1">  1        2 0.15142115E+00 0.18451686E+03</pdfrwt>
<pdfrwt beam="2">  1       -2 0.13304510E-02 0.18451686E+03</pdfrwt>
<totfact> 0.36596297E+04</totfact>
</mgrwt>
</event>
<event>
 4    1  0.5980424E-004  0.1871398E+03  0.7818608E-02  0.1161067E+00
          2   -1    0    0  501    0  0.00000000000E+00  0.00000000000E+00  0.10868512301E+04  0.10868512301E+04  0.25500000000E-02 0.  1.
         -2   -1    0    0    0  501 -0.00000000000E+00 -0.00000000000E+00 -0.80556768622E+01  0.80556772658E+01  0.25500000000E-02 0. -1.
    5000001    1    1    2    0    0 -0.39070035530E+02 -0.17962678374E+02  0.35650262352E+03  0.36724956919E+03  0.77000000000E+02 0.  0.
   -5000001    1    1    2    0    0  0.39070035530E+02  0.17962678374E+02  0.72229292967E+03  0.72765733813E+03  0.77000000000E+02 0.  0.
<mgrwt>
<rscale>  0 0.18713976E+03</rscale>
<asrwt>0</asrwt>
<pdfrwt beam="1">  1        2 0.16720789E+00 0.18713976E+03</pdfrwt>
<pdfrwt beam="2">  1       -2 0.12393349E-02 0.18713976E+03</pdfrwt>
<totfact> 0.35267424E+04</totfact>
</mgrwt>
</event>
<event>
 4    1  0.5980424E-004  0.2012385E+03  0.7818608E-02  0.1148698E+00
         -2   -1    0    0    0  501 -0.00000000000E+00  0.00000000000E+00  0.38233846334E+02  0.38233846419E+02  0.25500000000E-02 0. -1.
          2   -1    0    0  501    0  0.00000000000E+00 -0.00000000000E+00 -0.26479754169E+03  0.26479754170E+03  0.25500000000E-02 0.  1.
    5000001    1    1    2    0    0  0.39833218389E+02  0.45313438151E+02 -0.14876443576E+03  0.17804451778E+03  0.77000000000E+02 0.  0.
   -5000001    1    1    2    0    0 -0.39833218389E+02 -0.45313438151E+02 -0.77799259594E+02  0.12498687034E+03  0.77000000000E+02 0.  0.
<mgrwt>
<rscale>  0 0.20123845E+03</rscale>
<asrwt>0</asrwt>
<pdfrwt beam="1">  1        2 0.40738082E-01 0.20123845E+03</pdfrwt>
<pdfrwt beam="2">  1       -2 0.58821304E-02 0.20123845E+03</pdfrwt>
<totfact> 0.18483515E+04</totfact>
</mgrwt>
</event>
<event>
 4    1  0.5980424E-004  0.2401039E+03  0.7818608E-02  0.1119724E+00
          2   -1    0    0  501    0  0.00000000000E+00  0.00000000000E+00  0.20396926355E+02  0.20396926514E+02  0.25500000000E-02 0.  1.
         -2   -1    0    0    0  501 -0.00000000000E+00 -0.00000000000E+00 -0.70660020891E+03  0.70660020892E+03  0.25500000000E-02 0. -1.
    5000001    1    1    2    0    0  0.89729739789E+02 -0.14942208385E+02 -0.29935200355E+03  0.32220384514E+03  0.77000000000E+02 0.  0.
   -5000001    1    1    2    0    0 -0.89729739789E+02  0.14942208385E+02 -0.38685127901E+03  0.40479329029E+03  0.77000000000E+02 0.  0.
<mgrwt>
<rscale>  0 0.24010391E+03</rscale>
<asrwt>0</asrwt>
<pdfrwt beam="1">  1        2 0.31379892E-02 0.24010391E+03</pdfrwt>
<pdfrwt beam="2">  1       -2 0.10870771E+00 0.24010391E+03</pdfrwt>
<totfact> 0.20599689E+03</totfact>
</mgrwt>
</event>
<event>
 4    1  0.5980424E-004  0.1758246E+03  0.7818608E-02  0.1171906E+00
          2   -1    0    0  501    0  0.00000000000E+00  0.00000000000E+00  0.39326446311E+02  0.39326446393E+02  0.25500000000E-02 0.  1.
         -2   -1    0    0    0  501 -0.00000000000E+00 -0.00000000000E+00 -0.19652363693E+03  0.19652363695E+03  0.25500000000E-02 0. -1.
    5000001    1    1    2    0    0  0.13014052026E+02 -0.35644235881E+02 -0.10403911658E+03  0.13488148457E+03  0.77000000000E+02 0.  0.
   -5000001    1    1    2    0    0 -0.13014052026E+02  0.35644235881E+02 -0.53158074042E+02  0.10096859877E+03  0.77000000000E+02 0.  0.
<mgrwt>
<rscale>  0 0.17582464E+03</rscale>
<asrwt>0</asrwt>
<pdfrwt beam="1">  1        2 0.60502227E-02 0.17582464E+03</pdfrwt>
<pdfrwt beam="2">  1       -2 0.30234405E-01 0.17582464E+03</pdfrwt>
<totfact> 0.11784054E+04</totfact>
</mgrwt>
</event>
<event>
 4    1  0.5980424E-004  0.2160543E+03  0.7818608E-02  0.1136859E+00
          2   -1    0    0  501    0  0.00000000000E+00  0.00000000000E+00  0.39189493307E+03  0.39189493308E+03  0.25500000000E-02 0.  1.
         -2   -1    0    0    0  501 -0.00000000000E+00 -0.00000000000E+00 -0.29778037107E+02  0.29778037216E+02  0.25500000000E-02 0. -1.
    5000001    1    1    2    0    0 -0.93652843340E+01  0.73471643711E+02  0.21222891933E+03  0.23760451423E+03  0.77000000000E+02 0.  0.
   -5000001    1    1    2    0    0  0.93652843340E+01 -0.73471643711E+02  0.14988797663E+03  0.18406845607E+03  0.77000000000E+02 0.  0.
<mgrwt>
<rscale>  0 0.21605427E+03</rscale>
<asrwt>0</asrwt>
<pdfrwt beam="1">  1        2 0.60291524E-01 0.21605427E+03</pdfrwt>
<pdfrwt beam="2">  1       -2 0.45812368E-02 0.21605427E+03</pdfrwt>
<totfact> 0.17820327E+04</totfact>
</mgrwt>
</event>
<event>
 4    1  0.5980424E-004  0.5461054E+03  0.7818608E-02  0.1002399E+00
         -2   -1    0    0    0  501 -0.00000000000E+00  0.00000000000E+00  0.10272840526E+03  0.10272840529E+03  0.25500000000E-02 0.  1.
          2   -1    0    0  501    0  0.00000000000E+00 -0.00000000000E+00 -0.72577563492E+03  0.72577563492E+03  0.25500000000E-02 0. -1.
    5000001    1    1    2    0    0 -0.21886383022E+03  0.81189111042E+01 -0.52959510445E+03  0.57824498921E+03  0.77000000000E+02 0.  0.
   -5000001    1    1    2    0    0  0.21886383022E+03 -0.81189111042E+01 -0.93452125216E+02  0.25025905100E+03  0.77000000000E+02 0.  0.
<mgrwt>
<rscale>  0 0.54610539E+03</rscale>
<asrwt>0</asrwt>
<pdfrwt beam="1">  1        2 0.11165779E+00 0.54610539E+03</pdfrwt>
<pdfrwt beam="2">  1       -2 0.15804370E-01 0.54610539E+03</pdfrwt>
<totfact> 0.12585525E+03</totfact>
</mgrwt>
</event>
<event>
 4    1  0.5980424E-004  0.1941905E+03  0.7818608E-02  0.1154735E+00
         -2   -1    0    0    0  501 -0.00000000000E+00  0.00000000000E+00  0.27256206327E+02  0.27256206446E+02  0.25500000000E-02 0. -1.
          2   -1    0    0  501    0  0.00000000000E+00 -0.00000000000E+00 -0.34588404422E+03  0.34588404423E+03  0.25500000000E-02 0.  1.
    5000001    1    1    2    0    0 -0.46481594548E+02  0.33290288040E+02 -0.18843646552E+03  0.21143813148E+03  0.77000000000E+02 0.  0.
   -5000001    1    1    2    0    0  0.46481594548E+02 -0.33290288040E+02 -0.13019137238E+03  0.16170211920E+03  0.77000000000E+02 0.  0.
<mgrwt>
<rscale>  0 0.19419049E+03</rscale>
<asrwt>0</asrwt>
<pdfrwt beam="1">  1        2 0.53212927E-01 0.19419049E+03</pdfrwt>
<pdfrwt beam="2">  1       -2 0.41932628E-02 0.19419049E+03</pdfrwt>
<totfact> 0.23106307E+04</totfact>
</mgrwt>
</event>
<event>
 4    1  0.5980424E-004  0.1721588E+03  0.7818608E-02  0.1175615E+00
          2   -1    0    0  501    0  0.00000000000E+00  0.00000000000E+00  0.74292269217E+01  0.74292273594E+01  0.25500000000E-02 0.  1.
         -2   -1    0    0    0  501 -0.00000000000E+00 -0.00000000000E+00 -0.99736624359E+03  0.99736624360E+03  0.25500000000E-02 0. -1.
    5000001    1    1    2    0    0  0.29300744740E+02 -0.17568853301E+01 -0.34975470285E+03  0.35933128510E+03  0.77000000000E+02 0.  0.
   -5000001    1    1    2    0    0 -0.29300744740E+02  0.17568853301E+01 -0.64018231382E+03  0.64546418585E+03  0.77000000000E+02 0.  0.
<mgrwt>
<rscale>  0 0.17215877E+03</rscale>
<asrwt>0</asrwt>
<pdfrwt beam="1">  1        2 0.11429588E-02 0.17215877E+03</pdfrwt>
<pdfrwt beam="2">  1       -2 0.15344085E+00 0.17215877E+03</pdfrwt>
<totfact> 0.34631157E+03</totfact>
</mgrwt>
</event>
<event>
 4    1  0.5980424E-004  0.2275857E+03  0.7818608E-02  0.1128351E+00
          2   -1    0    0  501    0  0.00000000000E+00  0.00000000000E+00  0.12627418916E+04  0.12627418917E+04  0.25500000000E-02 0.  1.
         -2   -1    0    0    0  501 -0.00000000000E+00 -0.00000000000E+00 -0.10254522755E+02  0.10254523072E+02  0.25500000000E-02 0. -1.
    5000001    1    1    2    0    0 -0.34214494931E+02 -0.70697272561E+02  0.78942381076E+03  0.79704936422E+03  0.77000000000E+02 0.  0.
   -5000001    1    1    2    0    0  0.34214494931E+02  0.70697272561E+02  0.46306355813E+03  0.47594705050E+03  0.77000000000E+02 0.  0.
<mgrwt>
<rscale>  0 0.22758573E+03</rscale>
<asrwt>0</asrwt>
<pdfrwt beam="1">  1        2 0.19426787E+00 0.22758573E+03</pdfrwt>
<pdfrwt beam="2">  1       -2 0.15776198E-02 0.22758573E+03</pdfrwt>
<totfact> 0.19970119E+04</totfact>
</mgrwt>
</event>
<event>
 4    1  0.5980424E-004  0.3507603E+03  0.7818608E-02  0.1062303E+00
          2   -1    0    0  501    0  0.00000000000E+00  0.00000000000E+00  0.16249245522E+04  0.16249245523E+04  0.25500000000E-02 0.  1.
         -2   -1    0    0    0  501 -0.00000000000E+00 -0.00000000000E+00 -0.18929003462E+02  0.18929003633E+02  0.25500000000E-02 0. -1.
    5000001    1    1    2    0    0  0.15607172775E+03  0.93698245319E+01  0.89471820852E+03  0.91153488714E+03  0.77000000000E+02 0.  0.
   -5000001    1    1    2    0    0 -0.15607172775E+03 -0.93698245319E+01  0.71127734026E+03  0.73231866874E+03  0.77000000000E+02 0.  0.
<mgrwt>
<rscale>  0 0.35076033E+03</rscale>
<asrwt>0</asrwt>
<pdfrwt beam="1">  1        2 0.24998833E+00 0.35076033E+03</pdfrwt>
<pdfrwt beam="2">  1       -2 0.29121551E-02 0.35076033E+03</pdfrwt>
<totfact> 0.51916591E+03</totfact>
</mgrwt>
</event>
<event>
 4    1  0.5980424E-004  0.2855622E+03  0.7818608E-02  0.1092689E+00
         -2   -1    0    0    0  501 -0.00000000000E+00  0.00000000000E+00  0.28519746021E+02  0.28519746135E+02  0.25500000000E-02 0. -1.
          2   -1    0    0  501    0  0.00000000000E+00 -0.00000000000E+00 -0.71481865130E+03  0.71481865130E+03  0.25500000000E-02 0.  1.
    5000001    1    1    2    0    0  0.16165119005E+02  0.47880960100E+02 -0.59145726173E+02  0.10945827669E+03  0.77000000000E+02 0.  0.
   -5000001    1    1    2    0    0 -0.16165119005E+02 -0.47880960100E+02 -0.62715317910E+03  0.63388012074E+03  0.77000000000E+02 0.  0.
<mgrwt>
<rscale>  0 0.28556223E+03</rscale>
<asrwt>0</asrwt>
<pdfrwt beam="1">  1        2 0.10997209E+00 0.28556223E+03</pdfrwt>
<pdfrwt beam="2">  1       -2 0.43876538E-02 0.28556223E+03</pdfrwt>
<totfact> 0.97446469E+03</totfact>
</mgrwt>
</event>
<event>
 4    1  0.5980424E-004  0.2470601E+03  0.7818608E-02  0.1115177E+00
          2   -1    0    0  501    0  0.00000000000E+00  0.00000000000E+00  0.19557192902E+02  0.19557193068E+02  0.25500000000E-02 0.  1.
         -2   -1    0    0    0  501 -0.00000000000E+00 -0.00000000000E+00 -0.78025916527E+03  0.78025916527E+03  0.25500000000E-02 0. -1.
    5000001    1    1    2    0    0  0.52713350425E+02 -0.37874984004E+02 -0.61193849277E+03  0.62017008204E+03  0.77000000000E+02 0.  0.
   -5000001    1    1    2    0    0 -0.52713350425E+02  0.37874984004E+02 -0.14876347960E+03  0.17964627630E+03  0.77000000000E+02 0.  0.
<mgrwt>
<rscale>  0 0.24706015E+03</rscale>
<asrwt>0</asrwt>
<pdfrwt beam="1">  1        2 0.30087995E-02 0.24706015E+03</pdfrwt>
<pdfrwt beam="2">  1       -2 0.12003985E+00 0.24706015E+03</pdfrwt>
<totfact> 0.17226636E+03</totfact>
</mgrwt>
</event>
<event>
 4    1  0.5980424E-004  0.1980503E+03  0.7818608E-02  0.1151394E+00
         -2   -1    0    0    0  501 -0.00000000000E+00  0.00000000000E+00  0.85688928012E+01  0.85688931806E+01  0.25500000000E-02 0. -1.
          2   -1    0    0  501    0  0.00000000000E+00 -0.00000000000E+00 -0.11443694531E+04  0.11443694531E+04  0.25500000000E-02 0.  1.
    5000001    1    1    2    0    0 -0.43118904930E+02  0.48016516712E+01 -0.82789684213E+03  0.83260103112E+03  0.77000000000E+02 0.  0.
   -5000001    1    1    2    0    0  0.43118904930E+02 -0.48016516712E+01 -0.30790371818E+03  0.32033731517E+03  0.77000000000E+02 0.  0.
<mgrwt>
<rscale>  0 0.19805029E+03</rscale>
<asrwt>0</asrwt>
<pdfrwt beam="1">  1        2 0.17605672E+00 0.19805029E+03</pdfrwt>
<pdfrwt beam="2">  1       -2 0.13182921E-02 0.19805029E+03</pdfrwt>
<totfact> 0.29994427E+04</totfact>
</mgrwt>
</event>
<event>
 4    1  0.5980424E-004  0.2933365E+03  0.7818608E-02  0.1088620E+00
          2   -1    0    0  501    0  0.00000000000E+00  0.00000000000E+00  0.28448455263E+03  0.28448455264E+03  0.25500000000E-02 0.  1.
         -2   -1    0    0    0  501 -0.00000000000E+00 -0.00000000000E+00 -0.75615991700E+02  0.75615991743E+02  0.25500000000E-02 0. -1.
    5000001    1    1    2    0    0 -0.10828080063E+03 -0.25980915329E+02  0.35177046882E+02  0.13987910628E+03  0.77000000000E+02 0.  0.
   -5000001    1    1    2    0    0  0.10828080063E+03  0.25980915329E+02  0.17369151404E+03  0.22022143810E+03  0.77000000000E+02 0.  0.
<mgrwt>
<rscale>  0 0.29333654E+03</rscale>
<asrwt>0</asrwt>
<pdfrwt beam="1">  1        2 0.43766855E-01 0.29333654E+03</pdfrwt>
<pdfrwt beam="2">  1       -2 0.11633229E-01 0.29333654E+03</pdfrwt>
<totfact> 0.60000566E+03</totfact>
</mgrwt>
</event>
<event>
 4    1  0.5980424E-004  0.4261697E+03  0.7818608E-02  0.1035077E+00
          2   -1    0    0  501    0  0.00000000000E+00  0.00000000000E+00  0.47993181931E+03  0.47993181932E+03  0.25500000000E-02 0.  1.
         -2   -1    0    0    0  501 -0.00000000000E+00 -0.00000000000E+00 -0.94607523198E+02  0.94607523232E+02  0.25500000000E-02 0. -1.
    5000001    1    1    2    0    0  0.19400628801E+03  0.61950042190E+01  0.13547556695E+03  0.24891654647E+03  0.77000000000E+02 0.  0.
   -5000001    1    1    2    0    0 -0.19400628801E+03 -0.61950042190E+01  0.24984872916E+03  0.32562279608E+03  0.77000000000E+02 0.  0.
<mgrwt>
<rscale>  0 0.42616973E+03</rscale>
<asrwt>0</asrwt>
<pdfrwt beam="1">  1        2 0.73835663E-01 0.42616973E+03</pdfrwt>
<pdfrwt beam="2">  1       -2 0.14555004E-01 0.42616973E+03</pdfrwt>
<totfact> 0.23612849E+03</totfact>
</mgrwt>
</event>
<event>
 4    1  0.5980424E-004  0.2041640E+03  0.7818608E-02  0.1146273E+00
         -2   -1    0    0    0  501 -0.00000000000E+00  0.00000000000E+00  0.45052840161E+01  0.45052847377E+01  0.25500000000E-02 0. -1.
          2   -1    0    0  501    0  0.00000000000E+00 -0.00000000000E+00 -0.23130020203E+04  0.23130020203E+04  0.25500000000E-02 0.  1.
    5000001    1    1    2    0    0 -0.32077991360E+02  0.57997773432E+02 -0.12671872301E+04  0.12712534033E+04  0.77000000000E+02 0.  0.
   -5000001    1    1    2    0    0  0.32077991360E+02 -0.57997773432E+02 -0.10413095062E+04  0.10462539018E+04  0.77000000000E+02 0.  0.
<mgrwt>
<rscale>  0 0.20416397E+03</rscale>
<asrwt>0</asrwt>
<pdfrwt beam="1">  1        2 0.35584552E+00 0.20416397E+03</pdfrwt>
<pdfrwt beam="2">  1       -2 0.69312252E-03 0.20416397E+03</pdfrwt>
<totfact> 0.18228649E+04</totfact>
</mgrwt>
</event>
<event>
 4    1  0.5980424E-004  0.3103002E+03  0.7818608E-02  0.1080202E+00
          2   -1    0    0  501    0  0.00000000000E+00  0.00000000000E+00  0.79646682727E+03  0.79646682727E+03  0.25500000000E-02 0. -1.
         -2   -1    0    0    0  501 -0.00000000000E+00 -0.00000000000E+00 -0.30222920850E+02  0.30222920957E+02  0.25500000000E-02 0.  1.
    5000001    1    1    2    0    0 -0.27399876713E+02  0.98542446787E+01  0.32759998307E+02  0.88600659541E+02  0.77000000000E+02 0.  0.
   -5000001    1    1    2    0    0  0.27399876713E+02 -0.98542446787E+01  0.73348390811E+03  0.73808908869E+03  0.77000000000E+02 0.  0.
<mgrwt>
<rscale>  0 0.31030020E+03</rscale>
<asrwt>0</asrwt>
<pdfrwt beam="1">  1        2 0.12253334E+00 0.31030020E+03</pdfrwt>
<pdfrwt beam="2">  1       -2 0.46496807E-02 0.31030020E+03</pdfrwt>
<totfact> 0.78150323E+03</totfact>
</mgrwt>
</event>
<event>
 4    1  0.5980424E-004  0.1981529E+03  0.7818608E-02  0.1151307E+00
          2   -1    0    0  501    0  0.00000000000E+00  0.00000000000E+00  0.35505286129E+04  0.35505286129E+04  0.25500000000E-02 0.  1.
         -2   -1    0    0    0  501 -0.00000000000E+00 -0.00000000000E+00 -0.27646972140E+01  0.27646983900E+01  0.25500000000E-02 0. -1.
    5000001    1    1    2    0    0 -0.48642237772E+02 -0.38613681560E+02  0.16755739783E+04  0.16784916563E+04  0.77000000000E+02 0.  0.
   -5000001    1    1    2    0    0  0.48642237772E+02  0.38613681560E+02  0.18721899375E+04  0.18748016550E+04  0.77000000000E+02 0.  0.
<mgrwt>
<rscale>  0 0.19815286E+03</rscale>
<asrwt>0</asrwt>
<pdfrwt beam="1">  1        2 0.54623711E+00 0.19815286E+03</pdfrwt>
<pdfrwt beam="2">  1       -2 0.42533661E-03 0.19815286E+03</pdfrwt>
<totfact> 0.69111883E+03</totfact>
</mgrwt>
</event>
<event>
 4    1  0.5980424E-004  0.2566753E+03  0.7818608E-02  0.1109157E+00
         -2   -1    0    0    0  501 -0.00000000000E+00  0.00000000000E+00  0.56117473240E+01  0.56117479033E+01  0.25500000000E-02 0. -1.
          2   -1    0    0  501    0  0.00000000000E+00 -0.00000000000E+00 -0.29350131101E+04  0.29350131101E+04  0.25500000000E-02 0.  1.
    5000001    1    1    2    0    0 -0.45882529971E+02 -0.90009820723E+02 -0.16742588114E+04  0.16790707376E+04  0.77000000000E+02 0.  0.
   -5000001    1    1    2    0    0  0.45882529971E+02  0.90009820723E+02 -0.12551425514E+04  0.12615541204E+04  0.77000000000E+02 0.  0.
<mgrwt>
<rscale>  0 0.25667530E+03</rscale>
<asrwt>0</asrwt>
<pdfrwt beam="1">  1        2 0.45153925E+00 0.25667530E+03</pdfrwt>
<pdfrwt beam="2">  1       -2 0.86334813E-03 0.25667530E+03</pdfrwt>
<totfact> 0.60106923E+03</totfact>
</mgrwt>
</event>
<event>
 4    1  0.5980424E-004  0.4412153E+03  0.7818608E-02  0.1030375E+00
         -2   -1    0    0    0  501 -0.00000000000E+00  0.00000000000E+00  0.82758289623E+02  0.82758289663E+02  0.25500000000E-02 0. -1.
          2   -1    0    0  501    0  0.00000000000E+00 -0.00000000000E+00 -0.58807090750E+03  0.58807090751E+03  0.25500000000E-02 0.  1.
    5000001    1    1    2    0    0 -0.29301274416E+02  0.18332967813E+03 -0.11438731606E+03  0.23126131030E+03  0.77000000000E+02 0.  0.
   -5000001    1    1    2    0    0  0.29301274416E+02 -0.18332967813E+03 -0.39092530182E+03  0.43956788687E+03  0.77000000000E+02 0.  0.
<mgrwt>
<rscale>  0 0.44121533E+03</rscale>
<asrwt>0</asrwt>
<pdfrwt beam="1">  1        2 0.90472445E-01 0.44121533E+03</pdfrwt>
<pdfrwt beam="2">  1       -2 0.12732045E-01 0.44121533E+03</pdfrwt>
<totfact> 0.23318062E+03</totfact>
</mgrwt>
</event>
<event>
 4    1  0.5980424E-004  0.2350774E+03  0.7818608E-02  0.1123116E+00
          2   -1    0    0  501    0  0.00000000000E+00  0.00000000000E+00  0.98420800062E+03  0.98420800062E+03  0.25500000000E-02 0.  1.
         -2   -1    0    0    0  501 -0.00000000000E+00 -0.00000000000E+00 -0.14037016490E+02  0.14037016721E+02  0.25500000000E-02 0. -1.
    5000001    1    1    2    0    0  0.78588801133E+02  0.38023792063E+02  0.55412602765E+03  0.56622139040E+03  0.77000000000E+02 0.  0.
   -5000001    1    1    2    0    0 -0.78588801133E+02 -0.38023792063E+02  0.41604495647E+03  0.43202362694E+03  0.77000000000E+02 0.  0.
<mgrwt>
<rscale>  0 0.23507738E+03</rscale>
<asrwt>0</asrwt>
<pdfrwt beam="1">  1        2 0.15141670E+00 0.23507738E+03</pdfrwt>
<pdfrwt beam="2">  1       -2 0.21595397E-02 0.23507738E+03</pdfrwt>
<totfact> 0.18334378E+04</totfact>
</mgrwt>
</event>
<event>
 4    1  0.5980424E-004  0.7064690E+03  0.7818608E-02  0.9706233E-01
         -2   -1    0    0    0  501 -0.00000000000E+00  0.00000000000E+00  0.50266062545E+02  0.50266062609E+02  0.25500000000E-02 0. -1.
          2   -1    0    0  501    0  0.00000000000E+00 -0.00000000000E+00 -0.24822831014E+04  0.24822831014E+04  0.25500000000E-02 0.  1.
    5000001    1    1    2    0    0 -0.32857784485E+03  0.20915639291E+02 -0.84964393544E+03  0.91445321429E+03  0.77000000000E+02 0.  0.
   -5000001    1    1    2    0    0  0.32857784485E+03 -0.20915639291E+02 -0.15823731034E+04  0.16180959497E+04  0.77000000000E+02 0.  0.
<mgrwt>
<rscale>  0 0.70646896E+03</rscale>
<asrwt>0</asrwt>
<pdfrwt beam="1">  1        2 0.38188961E+00 0.70646896E+03</pdfrwt>
<pdfrwt beam="2">  1       -2 0.77332423E-02 0.70646896E+03</pdfrwt>
<totfact> 0.38559006E+02</totfact>
</mgrwt>
</event>
<event>
 4    1  0.5980424E-004  0.2985020E+03  0.7818608E-02  0.1085992E+00
         -2   -1    0    0    0  501 -0.00000000000E+00  0.00000000000E+00  0.61404071179E+02  0.61404071232E+02  0.25500000000E-02 0. -1.
          2   -1    0    0  501    0  0.00000000000E+00 -0.00000000000E+00 -0.36277494992E+03  0.36277494993E+03  0.25500000000E-02 0.  1.
    5000001    1    1    2    0    0 -0.77615486616E+02 -0.10131735889E+03 -0.13991111298E+03  0.20443456290E+03  0.77000000000E+02 0.  0.
   -5000001    1    1    2    0    0  0.77615486616E+02  0.10131735889E+03 -0.16145976577E+03  0.21974445826E+03  0.77000000000E+02 0.  0.
<mgrwt>
<rscale>  0 0.29850199E+03</rscale>
<asrwt>0</asrwt>
<pdfrwt beam="1">  1        2 0.55811529E-01 0.29850199E+03</pdfrwt>
<pdfrwt beam="2">  1       -2 0.94467804E-02 0.29850199E+03</pdfrwt>
<totfact> 0.64408645E+03</totfact>
</mgrwt>
</event>
<event>
 4    1  0.5980424E-004  0.1956972E+03  0.7818608E-02  0.1153421E+00
          2   -1    0    0  501    0  0.00000000000E+00  0.00000000000E+00  0.95497982311E+03  0.95497982312E+03  0.25500000000E-02 0.  1.
         -2   -1    0    0    0  501 -0.00000000000E+00 -0.00000000000E+00 -0.10025710354E+02  0.10025710679E+02  0.25500000000E-02 0. -1.
    5000001    1    1    2    0    0 -0.52348362352E+02 -0.25575673571E+02  0.39437137982E+03  0.40602001348E+03  0.77000000000E+02 0.  0.
   -5000001    1    1    2    0    0  0.52348362352E+02  0.25575673571E+02  0.55058273293E+03  0.55898552032E+03  0.77000000000E+02 0.  0.
<mgrwt>
<rscale>  0 0.19569723E+03</rscale>
<asrwt>0</asrwt>
<pdfrwt beam="1">  1        2 0.14692002E+00 0.19569723E+03</pdfrwt>
<pdfrwt beam="2">  1       -2 0.15424165E-02 0.19569723E+03</pdfrwt>
<totfact> 0.30915043E+04</totfact>
</mgrwt>
</event>
<event>
 4    1  0.5980424E-004  0.1910195E+03  0.7818608E-02  0.1157545E+00
         -2   -1    0    0    0  501 -0.00000000000E+00  0.00000000000E+00  0.50378016894E+03  0.50378016894E+03  0.25500000000E-02 0. -1.
          2   -1    0    0  501    0  0.00000000000E+00 -0.00000000000E+00 -0.18107318016E+02  0.18107318196E+02  0.25500000000E-02 0.  1.
    5000001    1    1    2    0    0 -0.15369192828E+02 -0.54041930218E+02  0.22636072535E+03  0.24561131955E+03  0.77000000000E+02 0.  0.
   -5000001    1    1    2    0    0  0.15369192828E+02  0.54041930218E+02  0.25931212556E+03  0.27627616758E+03  0.77000000000E+02 0.  0.
<mgrwt>
<rscale>  0 0.19101945E+03</rscale>
<asrwt>0</asrwt>
<pdfrwt beam="1">  1        2 0.27857416E-02 0.19101945E+03</pdfrwt>
<pdfrwt beam="2">  1       -2 0.77504633E-01 0.19101945E+03</pdfrwt>
<totfact> 0.51543352E+03</totfact>
</mgrwt>
</event>
<event>
 4    1  0.5980424E-004  0.2045683E+03  0.7818608E-02  0.1145941E+00
          2   -1    0    0  501    0  0.00000000000E+00  0.00000000000E+00  0.23789275961E+04  0.23789275961E+04  0.25500000000E-02 0.  1.
         -2   -1    0    0    0  501 -0.00000000000E+00 -0.00000000000E+00 -0.43977992879E+01  0.43978000272E+01  0.25500000000E-02 0. -1.
    5000001    1    1    2    0    0  0.37154896536E+02 -0.56140667667E+02  0.11975942985E+04  0.12019539777E+04  0.77000000000E+02 0.  0.
   -5000001    1    1    2    0    0 -0.37154896536E+02  0.56140667667E+02  0.11769354984E+04  0.11813714184E+04  0.77000000000E+02 0.  0.
<mgrwt>
<rscale>  0 0.20456830E+03</rscale>
<asrwt>0</asrwt>
<pdfrwt beam="1">  1        2 0.36598835E+00 0.20456830E+03</pdfrwt>
<pdfrwt beam="2">  1       -2 0.67658551E-03 0.20456830E+03</pdfrwt>
<totfact> 0.17405477E+04</totfact>
</mgrwt>
</event>
<event>
 4    1  0.5980424E-004  0.2671563E+03  0.7818608E-02  0.1102918E+00
         -2   -1    0    0    0  501 -0.00000000000E+00  0.00000000000E+00  0.13330933552E+02  0.13330933796E+02  0.25500000000E-02 0. -1.
          2   -1    0    0  501    0  0.00000000000E+00 -0.00000000000E+00 -0.13384755425E+04  0.13384755425E+04  0.25500000000E-02 0.  1.
    5000001    1    1    2    0    0 -0.94098561109E+02  0.36533051856E+02 -0.45241997536E+03  0.46989577268E+03  0.77000000000E+02 0.  0.
   -5000001    1    1    2    0    0  0.94098561109E+02 -0.36533051856E+02 -0.87272463360E+03  0.88191070362E+03  0.77000000000E+02 0.  0.
<mgrwt>
<rscale>  0 0.26715635E+03</rscale>
<asrwt>0</asrwt>
<pdfrwt beam="1">  1        2 0.20591921E+00 0.26715635E+03</pdfrwt>
<pdfrwt beam="2">  1       -2 0.20509139E-02 0.26715635E+03</pdfrwt>
<totfact> 0.12424326E+04</totfact>
</mgrwt>
</event>
<event>
 4    1  0.5980424E-004  0.2688224E+03  0.7818608E-02  0.1101955E+00
         -2   -1    0    0    0  501 -0.00000000000E+00  0.00000000000E+00  0.29404402926E+02  0.29404403037E+02  0.25500000000E-02 0. -1.
          2   -1    0    0  501    0  0.00000000000E+00 -0.00000000000E+00 -0.61441032905E+03  0.61441032905E+03  0.25500000000E-02 0.  1.
    5000001    1    1    2    0    0 -0.54951984188E+02 -0.57857080421E+02 -0.11057847614E+03  0.15660064402E+03  0.77000000000E+02 0.  0.
   -5000001    1    1    2    0    0  0.54951984188E+02  0.57857080421E+02 -0.47442744998E+03  0.48721408807E+03  0.77000000000E+02 0.  0.
<mgrwt>
<rscale>  0 0.26882239E+03</rscale>
<asrwt>0</asrwt>
<pdfrwt beam="1">  1        2 0.94524657E-01 0.26882239E+03</pdfrwt>
<pdfrwt beam="2">  1       -2 0.45237547E-02 0.26882239E+03</pdfrwt>
<totfact> 0.11124420E+04</totfact>
</mgrwt>
</event>
<event>
 4    1  0.5980424E-004  0.5069571E+03  0.7818608E-02  0.1011979E+00
         -2   -1    0    0    0  501 -0.00000000000E+00  0.00000000000E+00  0.11451944782E+03  0.11451944785E+03  0.25500000000E-02 0. -1.
          2   -1    0    0  501    0  0.00000000000E+00 -0.00000000000E+00 -0.56105209116E+03  0.56105209117E+03  0.25500000000E-02 0.  1.
    5000001    1    1    2    0    0 -0.83741155444E+02 -0.13686467235E+03 -0.46379196440E+03  0.49676604745E+03  0.77000000000E+02 0.  0.
   -5000001    1    1    2    0    0  0.83741155444E+02  0.13686467235E+03  0.17259321059E+02  0.17880549157E+03  0.77000000000E+02 0.  0.
<mgrwt>
<rscale>  0 0.50695710E+03</rscale>
<asrwt>0</asrwt>
<pdfrwt beam="1">  1        2 0.86315705E-01 0.50695710E+03</pdfrwt>
<pdfrwt beam="2">  1       -2 0.17618377E-01 0.50695710E+03</pdfrwt>
<totfact> 0.14307436E+03</totfact>
</mgrwt>
</event>
<event>
 4    1  0.5980424E-004  0.1861531E+03  0.7818608E-02  0.1161977E+00
          2   -1    0    0  501    0  0.00000000000E+00  0.00000000000E+00  0.39567770540E+03  0.39567770540E+03  0.25500000000E-02 0.  1.
         -2   -1    0    0    0  501 -0.00000000000E+00 -0.00000000000E+00 -0.21894707701E+02  0.21894707849E+02  0.25500000000E-02 0. -1.
    5000001    1    1    2    0    0  0.17272382432E+02 -0.49180007162E+02  0.19620521445E+03  0.21712322418E+03  0.77000000000E+02 0.  0.
   -5000001    1    1    2    0    0 -0.17272382432E+02  0.49180007162E+02  0.17757778324E+03  0.20044918907E+03  0.77000000000E+02 0.  0.
<mgrwt>
<rscale>  0 0.18615314E+03</rscale>
<asrwt>0</asrwt>
<pdfrwt beam="1">  1        2 0.60873494E-01 0.18615314E+03</pdfrwt>
<pdfrwt beam="2">  1       -2 0.33684165E-02 0.18615314E+03</pdfrwt>
<totfact> 0.27631912E+04</totfact>
</mgrwt>
</event>
<event>
 4    1  0.5980424E-004  0.1960952E+03  0.7818608E-02  0.1153076E+00
          2   -1    0    0  501    0  0.00000000000E+00  0.00000000000E+00  0.33567868471E+03  0.33567868472E+03  0.25500000000E-02 0.  1.
         -2   -1    0    0    0  501 -0.00000000000E+00 -0.00000000000E+00 -0.28638500412E+02  0.28638500526E+02  0.25500000000E-02 0. -1.
    5000001    1    1    2    0    0  0.47150661380E+02  0.20383150685E+02  0.93442667018E+02  0.13152638412E+03  0.77000000000E+02 0.  0.
   -5000001    1    1    2    0    0 -0.47150661380E+02 -0.20383150685E+02  0.21359751728E+03  0.23279080112E+03  0.77000000000E+02 0.  0.
<mgrwt>
<rscale>  0 0.19609522E+03</rscale>
<asrwt>0</asrwt>
<pdfrwt beam="1">  1        2 0.51642872E-01 0.19609522E+03</pdfrwt>
<pdfrwt beam="2">  1       -2 0.44059233E-02 0.19609522E+03</pdfrwt>
<totfact> 0.22168458E+04</totfact>
</mgrwt>
</event>
<event>
 4    1  0.5980424E-004  0.2279233E+03  0.7818608E-02  0.1128110E+00
         -2   -1    0    0    0  501 -0.00000000000E+00  0.00000000000E+00  0.10901644950E+04  0.10901644950E+04  0.25500000000E-02 0. -1.
          2   -1    0    0  501    0  0.00000000000E+00 -0.00000000000E+00 -0.11913112501E+02  0.11913112774E+02  0.25500000000E-02 0.  1.
    5000001    1    1    2    0    0  0.76370300208E+02 -0.34413839782E+02  0.57028143423E+03  0.58152097928E+03  0.77000000000E+02 0.  0.
   -5000001    1    1    2    0    0 -0.76370300208E+02  0.34413839782E+02  0.50796994828E+03  0.52055662851E+03  0.77000000000E+02 0.  0.
<mgrwt>
<rscale>  0 0.22792325E+03</rscale>
<asrwt>0</asrwt>
<pdfrwt beam="1">  1        2 0.18327869E-02 0.22792325E+03</pdfrwt>
<pdfrwt beam="2">  1       -2 0.16771758E+00 0.22792325E+03</pdfrwt>
<totfact> 0.14479894E+03</totfact>
</mgrwt>
</event>
<event>
 4    1  0.5980424E-004  0.2317367E+03  0.7818608E-02  0.1125423E+00
          2   -1    0    0  501    0  0.00000000000E+00  0.00000000000E+00  0.49059771325E+03  0.49059771326E+03  0.25500000000E-02 0.  1.
         -2   -1    0    0    0  501 -0.00000000000E+00 -0.00000000000E+00 -0.27365556923E+02  0.27365557042E+02  0.25500000000E-02 0. -1.
    5000001    1    1    2    0    0  0.60835694061E+02 -0.42650232403E+02  0.13224783686E+03  0.17011323978E+03  0.77000000000E+02 0.  0.
   -5000001    1    1    2    0    0 -0.60835694061E+02  0.42650232403E+02  0.33098431947E+03  0.34785003052E+03  0.77000000000E+02 0.  0.
<mgrwt>
<rscale>  0 0.23173674E+03</rscale>
<asrwt>0</asrwt>
<pdfrwt beam="1">  1        2 0.75476568E-01 0.23173674E+03</pdfrwt>
<pdfrwt beam="2">  1       -2 0.42100859E-02 0.23173674E+03</pdfrwt>
<totfact> 0.15898829E+04</totfact>
</mgrwt>
</event>
<event>
 4    1  0.5980424E-004  0.2442406E+03  0.7818608E-02  0.1117000E+00
         -2   -1    0    0    0  501 -0.00000000000E+00  0.00000000000E+00  0.47543537255E+02  0.47543537324E+02  0.25500000000E-02 0.  1.
          2   -1    0    0  501    0  0.00000000000E+00 -0.00000000000E+00 -0.31367820896E+03  0.31367820897E+03  0.25500000000E-02 0. -1.
    5000001    1    1    2    0    0 -0.91504256138E+02 -0.18163253856E+02 -0.15787855303E+03  0.19889084993E+03  0.77000000000E+02 0.  0.
   -5000001    1    1    2    0    0  0.91504256138E+02  0.18163253856E+02 -0.10825611868E+03  0.16233089636E+03  0.77000000000E+02 0.  0.
<mgrwt>
<rscale>  0 0.24424063E+03</rscale>
<asrwt>0</asrwt>
<pdfrwt beam="1">  1        2 0.48258185E-01 0.24424063E+03</pdfrwt>
<pdfrwt beam="2">  1       -2 0.73143906E-02 0.24424063E+03</pdfrwt>
<totfact> 0.11158574E+04</totfact>
</mgrwt>
</event>
<event>
 4    1  0.5980424E-004  0.2738273E+03  0.7818608E-02  0.1099109E+00
          2   -1    0    0  501    0  0.00000000000E+00  0.00000000000E+00  0.58430386709E+03  0.58430386709E+03  0.25500000000E-02 0.  1.
         -2   -1    0    0    0  501 -0.00000000000E+00 -0.00000000000E+00 -0.32081513402E+02  0.32081513503E+02  0.25500000000E-02 0. -1.
    5000001    1    1    2    0    0  0.69380286836E+02  0.83134381726E+02  0.20174626777E+03  0.24156884357E+03  0.77000000000E+02 0.  0.
   -5000001    1    1    2    0    0 -0.69380286836E+02 -0.83134381726E+02  0.35047608592E+03  0.37481653703E+03  0.77000000000E+02 0.  0.
<mgrwt>
<rscale>  0 0.27382734E+03</rscale>
<asrwt>0</asrwt>
<pdfrwt beam="1">  1        2 0.89892901E-01 0.27382734E+03</pdfrwt>
<pdfrwt beam="2">  1       -2 0.49356176E-02 0.27382734E+03</pdfrwt>
<totfact> 0.10341363E+04</totfact>
</mgrwt>
</event>
<event>
 4    1  0.5980424E-004  0.4172816E+03  0.7818608E-02  0.1037955E+00
          2   -1    0    0  501    0  0.00000000000E+00  0.00000000000E+00  0.32484777364E+04  0.32484777364E+04  0.25500000000E-02 0.  1.
         -2   -1    0    0    0  501 -0.00000000000E+00 -0.00000000000E+00 -0.13400425531E+02  0.13400425774E+02  0.25500000000E-02 0. -1.
    5000001    1    1    2    0    0  0.14566798649E+03 -0.81843100385E+02  0.23868067988E+04  0.23938866202E+04  0.77000000000E+02 0.  0.
   -5000001    1    1    2    0    0 -0.14566798649E+03  0.81843100385E+02  0.84827051208E+03  0.86799154203E+03  0.77000000000E+02 0.  0.
<mgrwt>
<rscale>  0 0.41728160E+03</rscale>
<asrwt>0</asrwt>
<pdfrwt beam="1">  1        2 0.49976588E+00 0.41728160E+03</pdfrwt>
<pdfrwt beam="2">  1       -2 0.20616036E-02 0.41728160E+03</pdfrwt>
<totfact> 0.10628888E+03</totfact>
</mgrwt>
</event>
<event>
 4    1  0.5980424E-004  0.1832746E+03  0.7818608E-02  0.1164671E+00
         -2   -1    0    0    0  501 -0.00000000000E+00  0.00000000000E+00  0.33917185925E+02  0.33917186021E+02  0.25500000000E-02 0. -1.
          2   -1    0    0  501    0  0.00000000000E+00 -0.00000000000E+00 -0.24758521624E+03  0.24758521626E+03  0.25500000000E-02 0.  1.
    5000001    1    1    2    0    0  0.95610912284E+01  0.48055001289E+02 -0.94196489948E+02  0.13115897351E+03  0.77000000000E+02 0.  0.
   -5000001    1    1    2    0    0 -0.95610912284E+01 -0.48055001289E+02 -0.11947154037E+03  0.15034342876E+03  0.77000000000E+02 0.  0.
<mgrwt>
<rscale>  0 0.18327459E+03</rscale>
<asrwt>0</asrwt>
<pdfrwt beam="1">  1        2 0.38090032E-01 0.18327459E+03</pdfrwt>
<pdfrwt beam="2">  1       -2 0.52180288E-02 0.18327459E+03</pdfrwt>
<totfact> 0.23655970E+04</totfact>
</mgrwt>
</event>
<event>
 4    1  0.5980424E-004  0.2160898E+03  0.7818608E-02  0.1136832E+00
         -2   -1    0    0    0  501 -0.00000000000E+00  0.00000000000E+00  0.74988470909E+01  0.74988475245E+01  0.25500000000E-02 0. -1.
          2   -1    0    0  501    0  0.00000000000E+00 -0.00000000000E+00 -0.15567329378E+04  0.15567329378E+04  0.25500000000E-02 0.  1.
    5000001    1    1    2    0    0  0.69063492095E+02  0.26673849139E+02 -0.89210941525E+03  0.89848175771E+03  0.77000000000E+02 0.  0.
   -5000001    1    1    2    0    0 -0.69063492095E+02 -0.26673849139E+02 -0.65712467547E+03  0.66575002762E+03  0.77000000000E+02 0.  0.
<mgrwt>
<rscale>  0 0.21608982E+03</rscale>
<asrwt>0</asrwt>
<pdfrwt beam="1">  1        2 0.23949712E+00 0.21608982E+03</pdfrwt>
<pdfrwt beam="2">  1       -2 0.11536701E-02 0.21608982E+03</pdfrwt>
<totfact> 0.21793441E+04</totfact>
</mgrwt>
</event>
<event>
 4    1  0.5980424E-004  0.3475365E+03  0.7818608E-02  0.1063631E+00
          2   -1    0    0  501    0  0.00000000000E+00  0.00000000000E+00  0.74807166039E+03  0.74807166039E+03  0.25500000000E-02 0.  1.
         -2   -1    0    0    0  501 -0.00000000000E+00 -0.00000000000E+00 -0.40364315642E+02  0.40364315722E+02  0.25500000000E-02 0. -1.
    5000001    1    1    2    0    0 -0.58903092747E+02  0.14099431603E+03  0.28513855212E+03  0.33253866751E+03  0.77000000000E+02 0.  0.
   -5000001    1    1    2    0    0  0.58903092747E+02 -0.14099431603E+03  0.42256879263E+03  0.45589730860E+03  0.77000000000E+02 0.  0.
<mgrwt>
<rscale>  0 0.34753648E+03</rscale>
<asrwt>0</asrwt>
<pdfrwt beam="1">  1        2 0.11508795E+00 0.34753648E+03</pdfrwt>
<pdfrwt beam="2">  1       -2 0.62098944E-02 0.34753648E+03</pdfrwt>
<totfact> 0.54434007E+03</totfact>
</mgrwt>
</event>
<event>
 4    1  0.5980424E-004  0.2256150E+03  0.7818608E-02  0.1129765E+00
          2   -1    0    0  501    0  0.00000000000E+00  0.00000000000E+00  0.69542950362E+03  0.69542950362E+03  0.25500000000E-02 0.  1.
         -2   -1    0    0    0  501 -0.00000000000E+00 -0.00000000000E+00 -0.18298808784E+02  0.18298808962E+02  0.25500000000E-02 0. -1.
    5000001    1    1    2    0    0 -0.49843316405E+02 -0.64703906459E+02  0.30311463368E+03  0.32323123743E+03  0.77000000000E+02 0.  0.
   -5000001    1    1    2    0    0  0.49843316405E+02  0.64703906459E+02  0.37401606116E+03  0.39049707516E+03  0.77000000000E+02 0.  0.
<mgrwt>
<rscale>  0 0.22561500E+03</rscale>
<asrwt>0</asrwt>
<pdfrwt beam="1">  1        2 0.10698915E+00 0.22561500E+03</pdfrwt>
<pdfrwt beam="2">  1       -2 0.28152016E-02 0.22561500E+03</pdfrwt>
<totfact> 0.19355989E+04</totfact>
</mgrwt>
</event>
<event>
 4    1  0.5980424E-004  0.3722341E+03  0.7818608E-02  0.1053842E+00
         -2   -1    0    0    0  501 -0.00000000000E+00  0.00000000000E+00  0.34434389041E+02  0.34434389136E+02  0.25500000000E-02 0. -1.
          2   -1    0    0  501    0  0.00000000000E+00 -0.00000000000E+00 -0.10059579963E+04  0.10059579963E+04  0.25500000000E-02 0.  1.
    5000001    1    1    2    0    0 -0.11481019797E+03  0.10167801404E+03 -0.68713240505E+03  0.70823706635E+03  0.77000000000E+02 0.  0.
   -5000001    1    1    2    0    0  0.11481019797E+03 -0.10167801404E+03 -0.28439120218E+03  0.33215531905E+03  0.77000000000E+02 0.  0.
<mgrwt>
<rscale>  0 0.37223406E+03</rscale>
<asrwt>0</asrwt>
<pdfrwt beam="1">  1        2 0.15476275E+00 0.37223406E+03</pdfrwt>
<pdfrwt beam="2">  1       -2 0.52975991E-02 0.37223406E+03</pdfrwt>
<totfact> 0.46866672E+03</totfact>
</mgrwt>
</event>
<event>
 4    1  0.5980424E-004  0.3616395E+03  0.7818608E-02  0.1057937E+00
          2   -1    0    0  501    0  0.00000000000E+00  0.00000000000E+00  0.25491896342E+02  0.25491896470E+02  0.25500000000E-02 0.  1.
         -2   -1    0    0    0  501 -0.00000000000E+00 -0.00000000000E+00 -0.12825951005E+04  0.12825951005E+04  0.25500000000E-02 0. -1.
    5000001    1    1    2    0    0 -0.15564762897E+03  0.48783256675E+02 -0.58268553495E+03  0.60996509996E+03  0.77000000000E+02 0.  0.
   -5000001    1    1    2    0    0  0.15564762897E+03 -0.48783256675E+02 -0.67441766916E+03  0.69812189696E+03  0.77000000000E+02 0.  0.
<mgrwt>
<rscale>  0 0.36163950E+03</rscale>
<asrwt>0</asrwt>
<pdfrwt beam="1">  1        2 0.39218312E-02 0.36163950E+03</pdfrwt>
<pdfrwt beam="2">  1       -2 0.19732227E+00 0.36163950E+03</pdfrwt>
<totfact> 0.32687097E+02</totfact>
</mgrwt>
</event>
<event>
 4    1  0.5980424E-004  0.2259517E+03  0.7818608E-02  0.1129522E+00
         -2   -1    0    0    0  501 -0.00000000000E+00  0.00000000000E+00  0.11540559603E+03  0.11540559606E+03  0.25500000000E-02 0. -1.
          2   -1    0    0  501    0  0.00000000000E+00 -0.00000000000E+00 -0.11059730143E+03  0.11059730146E+03  0.25500000000E-02 0.  1.
    5000001    1    1    2    0    0 -0.44313054273E+02 -0.64736681615E+02 -0.23679769874E+02  0.11244650384E+03  0.77000000000E+02 0.  0.
   -5000001    1    1    2    0    0  0.44313054273E+02  0.64736681615E+02  0.28488064477E+02  0.11355639367E+03  0.77000000000E+02 0.  0.
<mgrwt>
<rscale>  0 0.22595174E+03</rscale>
<asrwt>0</asrwt>
<pdfrwt beam="1">  1        2 0.17014969E-01 0.22595174E+03</pdfrwt>
<pdfrwt beam="2">  1       -2 0.17754707E-01 0.22595174E+03</pdfrwt>
<totfact> 0.84603913E+03</totfact>
</mgrwt>
</event>
<event>
 4    1  0.5980424E-004  0.6884527E+03  0.7818608E-02  0.9737186E-01
          2   -1    0    0  501    0  0.00000000000E+00  0.00000000000E+00  0.19934027367E+03  0.19934027369E+03  0.25500000000E-02 0.  1.
         -2   -1    0    0    0  501 -0.00000000000E+00 -0.00000000000E+00 -0.59441965187E+03  0.59441965188E+03  0.25500000000E-02 0. -1.
    5000001    1    1    2    0    0  0.25684174256E+03 -0.15797954853E+03 -0.27942290163E+02  0.31246598224E+03  0.77000000000E+02 0.  0.
   -5000001    1    1    2    0    0 -0.25684174256E+03  0.15797954853E+03 -0.36713708804E+03  0.48129394333E+03  0.77000000000E+02 0.  0.
<mgrwt>
<rscale>  0 0.68845269E+03</rscale>
<asrwt>0</asrwt>
<pdfrwt beam="1">  1        2 0.30667735E-01 0.68845269E+03</pdfrwt>
<pdfrwt beam="2">  1       -2 0.91449176E-01 0.68845269E+03</pdfrwt>
<totfact> 0.17863234E+02</totfact>
</mgrwt>
</event>
<event>
 4    1  0.5980424E-004  0.3820626E+03  0.7818608E-02  0.1050174E+00
         -2   -1    0    0    0  501 -0.00000000000E+00  0.00000000000E+00  0.10642743890E+03  0.10642743893E+03  0.25500000000E-02 0.  1.
          2   -1    0    0  501    0  0.00000000000E+00 -0.00000000000E+00 -0.34289053356E+03  0.34289053357E+03  0.25500000000E-02 0. -1.
    5000001    1    1    2    0    0 -0.12561329399E+03  0.50474523954E+02 -0.24832848879E+03  0.29312525572E+03  0.77000000000E+02 0.  0.
   -5000001    1    1    2    0    0  0.12561329399E+03 -0.50474523954E+02  0.11865394135E+02  0.15619271678E+03  0.77000000000E+02 0.  0.
<mgrwt>
<rscale>  0 0.38206262E+03</rscale>
<asrwt>0</asrwt>
<pdfrwt beam="1">  1        2 0.52752389E-01 0.38206262E+03</pdfrwt>
<pdfrwt beam="2">  1       -2 0.16373452E-01 0.38206262E+03</pdfrwt>
<totfact> 0.28093374E+03</totfact>
</mgrwt>
</event>
<event>
 4    1  0.5980424E-004  0.2221706E+03  0.7818608E-02  0.1132275E+00
          2   -1    0    0  501    0  0.00000000000E+00  0.00000000000E+00  0.81231840829E+03  0.81231840830E+03  0.25500000000E-02 0.  1.
         -2   -1    0    0    0  501 -0.00000000000E+00 -0.00000000000E+00 -0.15191012503E+02  0.15191012717E+02  0.25500000000E-02 0. -1.
    5000001    1    1    2    0    0  0.54471661087E+02 -0.59360175103E+01  0.18110804396E+03  0.20428294533E+03  0.77000000000E+02 0.  0.
   -5000001    1    1    2    0    0 -0.54471661087E+02  0.59360175103E+01  0.61601935183E+03  0.62322647569E+03  0.77000000000E+02 0.  0.
<mgrwt>
<rscale>  0 0.22217056E+03</rscale>
<asrwt>0</asrwt>
<pdfrwt beam="1">  1        2 0.12497208E+00 0.22217056E+03</pdfrwt>
<pdfrwt beam="2">  1       -2 0.23370785E-02 0.22217056E+03</pdfrwt>
<totfact> 0.21002110E+04</totfact>
</mgrwt>
</event>
<event>
 4    1  0.5980424E-004  0.2523852E+03  0.7818608E-02  0.1111807E+00
          2   -1    0    0  501    0  0.00000000000E+00  0.00000000000E+00  0.80533404873E+03  0.80533404873E+03  0.25500000000E-02 0.  1.
         -2   -1    0    0    0  501 -0.00000000000E+00 -0.00000000000E+00 -0.19773874522E+02  0.19773874686E+02  0.25500000000E-02 0. -1.
    5000001    1    1    2    0    0 -0.94483668605E+02 -0.19515399722E+02  0.30705614053E+03  0.33093879781E+03  0.77000000000E+02 0.  0.
   -5000001    1    1    2    0    0  0.94483668605E+02  0.19515399722E+02  0.47850403367E+03  0.49416912561E+03  0.77000000000E+02 0.  0.
<mgrwt>
<rscale>  0 0.25238522E+03</rscale>
<asrwt>0</asrwt>
<pdfrwt beam="1">  1        2 0.12389757E+00 0.25238522E+03</pdfrwt>
<pdfrwt beam="2">  1       -2 0.30421340E-02 0.25238522E+03</pdfrwt>
<totfact> 0.14471102E+04</totfact>
</mgrwt>
</event>
<event>
 4    1  0.5980424E-004  0.2277331E+03  0.7818608E-02  0.1128246E+00
          2   -1    0    0  501    0  0.00000000000E+00  0.00000000000E+00  0.29530746733E+04  0.29530746733E+04  0.25500000000E-02 0.  1.
         -2   -1    0    0    0  501 -0.00000000000E+00 -0.00000000000E+00 -0.43905386380E+01  0.43905393785E+01  0.25500000000E-02 0. -1.
    5000001    1    1    2    0    0  0.32730917475E+02 -0.73031994151E+02  0.18007164744E+04  0.18041379676E+04  0.77000000000E+02 0.  0.
   -5000001    1    1    2    0    0 -0.32730917475E+02  0.73031994151E+02  0.11479676603E+04  0.11533272451E+04  0.77000000000E+02 0.  0.
<mgrwt>
<rscale>  0 0.22773309E+03</rscale>
<asrwt>0</asrwt>
<pdfrwt beam="1">  1        2 0.45431845E+00 0.22773309E+03</pdfrwt>
<pdfrwt beam="2">  1       -2 0.67546863E-03 0.22773309E+03</pdfrwt>
<totfact> 0.83650701E+03</totfact>
</mgrwt>
</event>
<event>
 4    1  0.5980424E-004  0.2372049E+03  0.7818608E-02  0.1121669E+00
         -2   -1    0    0    0  501 -0.00000000000E+00  0.00000000000E+00  0.16674720688E+02  0.16674720883E+02  0.25500000000E-02 0. -1.
          2   -1    0    0  501    0  0.00000000000E+00 -0.00000000000E+00 -0.84358503189E+03  0.84358503189E+03  0.25500000000E-02 0.  1.
    5000001    1    1    2    0    0  0.30049440646E+02  0.64536939501E+02 -0.61438475303E+03  0.62327009410E+03  0.77000000000E+02 0.  0.
   -5000001    1    1    2    0    0 -0.30049440646E+02 -0.64536939501E+02 -0.21252555817E+03  0.23698965868E+03  0.77000000000E+02 0.  0.
<mgrwt>
<rscale>  0 0.23720493E+03</rscale>
<asrwt>0</asrwt>
<pdfrwt beam="1">  1        2 0.12978228E+00 0.23720493E+03</pdfrwt>
<pdfrwt beam="2">  1       -2 0.25653423E-02 0.23720493E+03</pdfrwt>
<totfact> 0.17501751E+04</totfact>
</mgrwt>
</event>
<event>
 4    1  0.5980424E-004  0.3580842E+03  0.7818608E-02  0.1059345E+00
         -2   -1    0    0    0  501 -0.00000000000E+00  0.00000000000E+00  0.79089083739E+02  0.79089083780E+02  0.25500000000E-02 0. -1.
          2   -1    0    0  501    0  0.00000000000E+00 -0.00000000000E+00 -0.40531603826E+03  0.40531603827E+03  0.25500000000E-02 0.  1.
    5000001    1    1    2    0    0  0.73303765931E+02 -0.13698380209E+03 -0.22344559841E+03  0.28283376670E+03  0.77000000000E+02 0.  0.
   -5000001    1    1    2    0    0 -0.73303765931E+02  0.13698380209E+03 -0.10278135611E+03  0.20157135535E+03  0.77000000000E+02 0.  0.
<mgrwt>
<rscale>  0 0.35808420E+03</rscale>
<asrwt>0</asrwt>
<pdfrwt beam="1">  1        2 0.62356312E-01 0.35808420E+03</pdfrwt>
<pdfrwt beam="2">  1       -2 0.12167552E-01 0.35808420E+03</pdfrwt>
<totfact> 0.38184737E+03</totfact>
</mgrwt>
</event>
<event>
 4    1  0.5980424E-004  0.2579915E+03  0.7818608E-02  0.1108356E+00
          2   -1    0    0  501    0  0.00000000000E+00  0.00000000000E+00  0.30885112603E+03  0.30885112604E+03  0.25500000000E-02 0.  1.
         -2   -1    0    0    0  501 -0.00000000000E+00 -0.00000000000E+00 -0.53876761029E+02  0.53876761090E+02  0.25500000000E-02 0. -1.
    5000001    1    1    2    0    0  0.67923515018E+02  0.45424575550E+02  0.21678447839E+03  0.24413419676E+03  0.77000000000E+02 0.  0.
   -5000001    1    1    2    0    0 -0.67923515018E+02 -0.45424575550E+02  0.38189886609E+02  0.11859369037E+03  0.77000000000E+02 0.  0.
<mgrwt>
<rscale>  0 0.25799146E+03</rscale>
<asrwt>0</asrwt>
<pdfrwt beam="1">  1        2 0.47515557E-01 0.25799146E+03</pdfrwt>
<pdfrwt beam="2">  1       -2 0.82887327E-02 0.25799146E+03</pdfrwt>
<totfact> 0.93622664E+03</totfact>
</mgrwt>
</event>
<event>
 4    1  0.5980424E-004  0.5095591E+03  0.7818608E-02  0.1011314E+00
         -2   -1    0    0    0  501 -0.00000000000E+00  0.00000000000E+00  0.15810176207E+03  0.15810176209E+03  0.25500000000E-02 0. -1.
          2   -1    0    0  501    0  0.00000000000E+00 -0.00000000000E+00 -0.41057494268E+03  0.41057494268E+03  0.25500000000E-02 0.  1.
    5000001    1    1    2    0    0  0.22293763829E+03 -0.48655517291E+02 -0.33432050964E+02  0.24313628270E+03  0.77000000000E+02 0.  0.
   -5000001    1    1    2    0    0 -0.22293763829E+03  0.48655517291E+02 -0.21904112964E+03  0.32554042208E+03  0.77000000000E+02 0.  0.
<mgrwt>
<rscale>  0 0.50955911E+03</rscale>
<asrwt>0</asrwt>
<pdfrwt beam="1">  1        2 0.63165375E-01 0.50955911E+03</pdfrwt>
<pdfrwt beam="2">  1       -2 0.24323348E-01 0.50955911E+03</pdfrwt>
<totfact> 0.11636666E+03</totfact>
</mgrwt>
</event>
<event>
 4    1  0.5980424E-004  0.2031472E+03  0.7818608E-02  0.1147111E+00
          2   -1    0    0  501    0  0.00000000000E+00  0.00000000000E+00  0.76737895069E+03  0.76737895070E+03  0.25500000000E-02 0.  1.
         -2   -1    0    0    0  501 -0.00000000000E+00 -0.00000000000E+00 -0.13444721242E+02  0.13444721484E+02  0.25500000000E-02 0. -1.
    5000001    1    1    2    0    0 -0.22064530711E+02  0.43061120501E+02  0.55087163532E+03  0.55832755817E+03  0.77000000000E+02 0.  0.
   -5000001    1    1    2    0    0  0.22064530711E+02 -0.43061120501E+02  0.20306259413E+03  0.22249611401E+03  0.77000000000E+02 0.  0.
<mgrwt>
<rscale>  0 0.20314720E+03</rscale>
<asrwt>0</asrwt>
<pdfrwt beam="1">  1        2 0.11805830E+00 0.20314720E+03</pdfrwt>
<pdfrwt beam="2">  1       -2 0.20684186E-02 0.20314720E+03</pdfrwt>
<totfact> 0.26835896E+04</totfact>
</mgrwt>
</event>
<event>
 4    1  0.5980424E-004  0.2412727E+03  0.7818608E-02  0.1118948E+00
         -2   -1    0    0    0  501 -0.00000000000E+00  0.00000000000E+00  0.37695140042E+02  0.37695140129E+02  0.25500000000E-02 0. -1.
          2   -1    0    0  501    0  0.00000000000E+00 -0.00000000000E+00 -0.38607425368E+03  0.38607425368E+03  0.25500000000E-02 0.  1.
    5000001    1    1    2    0    0 -0.32427942995E+02 -0.71262327089E+02 -0.26190780351E+03  0.28399751458E+03  0.77000000000E+02 0.  0.
   -5000001    1    1    2    0    0  0.32427942995E+02  0.71262327089E+02 -0.86471310120E+02  0.13977187923E+03  0.77000000000E+02 0.  0.
<mgrwt>
<rscale>  0 0.24127265E+03</rscale>
<asrwt>0</asrwt>
<pdfrwt beam="1">  1        2 0.59396036E-01 0.24127265E+03</pdfrwt>
<pdfrwt beam="2">  1       -2 0.57992526E-02 0.24127265E+03</pdfrwt>
<totfact> 0.12745985E+04</totfact>
</mgrwt>
</event>
<event>
 4    1  0.5980424E-004  0.1986214E+03  0.7818608E-02  0.1150907E+00
         -2   -1    0    0    0  501 -0.00000000000E+00  0.00000000000E+00  0.11872004522E+03  0.11872004525E+03  0.25500000000E-02 0. -1.
          2   -1    0    0  501    0  0.00000000000E+00 -0.00000000000E+00 -0.83074547998E+02  0.83074548037E+02  0.25500000000E-02 0.  1.
    5000001    1    1    2    0    0 -0.15231822933E+01 -0.55711013357E+02  0.47049982721E+02  0.10606006773E+03  0.77000000000E+02 0.  0.
   -5000001    1    1    2    0    0  0.15231822933E+01  0.55711013357E+02 -0.11404485496E+02  0.95734525554E+02  0.77000000000E+02 0.  0.
<mgrwt>
<rscale>  0 0.19862139E+03</rscale>
<asrwt>0</asrwt>
<pdfrwt beam="1">  1        2 0.12780700E-01 0.19862139E+03</pdfrwt>
<pdfrwt beam="2">  1       -2 0.18264622E-01 0.19862139E+03</pdfrwt>
<totfact> 0.11228445E+04</totfact>
</mgrwt>
</event>
<event>
 4    1  0.5980424E-004  0.1945392E+03  0.7818608E-02  0.1154430E+00
         -2   -1    0    0    0  501 -0.00000000000E+00  0.00000000000E+00  0.46317871665E+01  0.46317878684E+01  0.25500000000E-02 0. -1.
          2   -1    0    0  501    0  0.00000000000E+00 -0.00000000000E+00 -0.20427039005E+04  0.20427039005E+04  0.25500000000E-02 0.  1.
    5000001    1    1    2    0    0  0.13125202711E+02 -0.57965380477E+02 -0.10225917347E+04  0.10272074338E+04  0.77000000000E+02 0.  0.
   -5000001    1    1    2    0    0 -0.13125202711E+02  0.57965380477E+02 -0.10154803786E+04  0.10201282545E+04  0.77000000000E+02 0.  0.
<mgrwt>
<rscale>  0 0.19453915E+03</rscale>
<asrwt>0</asrwt>
<pdfrwt beam="1">  1        2 0.31426142E+00 0.19453915E+03</pdfrwt>
<pdfrwt beam="2">  1       -2 0.71258433E-03 0.19453915E+03</pdfrwt>
<totfact> 0.24249650E+04</totfact>
</mgrwt>
</event>
<event>
 4    1  0.5980424E-004  0.2787262E+03  0.7818608E-02  0.1096387E+00
          2   -1    0    0  501    0  0.00000000000E+00  0.00000000000E+00  0.46602576140E+02  0.46602576210E+02  0.25500000000E-02 0.  1.
         -2   -1    0    0    0  501 -0.00000000000E+00 -0.00000000000E+00 -0.41675960118E+03  0.41675960119E+03  0.25500000000E-02 0. -1.
    5000001    1    1    2    0    0 -0.76897452518E+02 -0.58607381696E+02 -0.78048264215E+02  0.14617994028E+03  0.77000000000E+02 0.  0.
   -5000001    1    1    2    0    0  0.76897452518E+02  0.58607381696E+02 -0.29210876083E+03  0.31718223712E+03  0.77000000000E+02 0.  0.
<mgrwt>
<rscale>  0 0.27872618E+03</rscale>
<asrwt>0</asrwt>
<pdfrwt beam="1">  1        2 0.71696274E-02 0.27872618E+03</pdfrwt>
<pdfrwt beam="2">  1       -2 0.64116859E-01 0.27872618E+03</pdfrwt>
<totfact> 0.22484733E+03</totfact>
</mgrwt>
</event>
<event>
 4    1  0.5980424E-004  0.2692642E+03  0.7818608E-02  0.1101701E+00
         -2   -1    0    0    0  501 -0.00000000000E+00  0.00000000000E+00  0.66332084983E+02  0.66332085032E+02  0.25500000000E-02 0. -1.
          2   -1    0    0  501    0  0.00000000000E+00 -0.00000000000E+00 -0.27325843963E+03  0.27325843964E+03  0.25500000000E-02 0.  1.
    5000001    1    1    2    0    0 -0.13583649509E+02  0.91656561754E+02 -0.17925326613E+03  0.21597725405E+03  0.77000000000E+02 0.  0.
   -5000001    1    1    2    0    0  0.13583649509E+02 -0.91656561754E+02 -0.27673088512E+02  0.12361327062E+03  0.77000000000E+02 0.  0.
<mgrwt>
<rscale>  0 0.26926420E+03</rscale>
<asrwt>0</asrwt>
<pdfrwt beam="1">  1        2 0.42039760E-01 0.26926420E+03</pdfrwt>
<pdfrwt beam="2">  1       -2 0.10204936E-01 0.26926420E+03</pdfrwt>
<totfact> 0.77054055E+03</totfact>
</mgrwt>
</event>
<event>
 4    1  0.5980424E-004  0.3759292E+03  0.7818608E-02  0.1052449E+00
         -2   -1    0    0    0  501 -0.00000000000E+00  0.00000000000E+00  0.12657937259E+03  0.12657937262E+03  0.25500000000E-02 0. -1.
          2   -1    0    0  501    0  0.00000000000E+00 -0.00000000000E+00 -0.27911881143E+03  0.27911881144E+03  0.25500000000E-02 0.  1.
    5000001    1    1    2    0    0 -0.29566472207E+02 -0.23160750472E+01  0.10598892083E+03  0.13432122625E+03  0.77000000000E+02 0.  0.
   -5000001    1    1    2    0    0  0.29566472207E+02  0.23160750472E+01 -0.25852835966E+03  0.27137695781E+03  0.77000000000E+02 0.  0.
<mgrwt>
<rscale>  0 0.37592916E+03</rscale>
<asrwt>0</asrwt>
<pdfrwt beam="1">  1        2 0.42941355E-01 0.37592916E+03</pdfrwt>
<pdfrwt beam="2">  1       -2 0.19473750E-01 0.37592916E+03</pdfrwt>
<totfact> 0.26170265E+03</totfact>
</mgrwt>
</event>
<event>
 4    1  0.5980424E-004  0.2235356E+03  0.7818608E-02  0.1131274E+00
          2   -1    0    0  501    0  0.00000000000E+00  0.00000000000E+00  0.27691583587E+03  0.27691583588E+03  0.25500000000E-02 0.  1.
         -2   -1    0    0    0  501 -0.00000000000E+00 -0.00000000000E+00 -0.45111323087E+02  0.45111323160E+02  0.25500000000E-02 0. -1.
    5000001    1    1    2    0    0  0.31021983943E+02  0.73739280241E+02  0.13430569618E+03  0.17426091060E+03  0.77000000000E+02 0.  0.
   -5000001    1    1    2    0    0 -0.31021983943E+02 -0.73739280241E+02  0.97498816604E+02  0.14776624844E+03  0.77000000000E+02 0.  0.
<mgrwt>
<rscale>  0 0.22353559E+03</rscale>
<asrwt>0</asrwt>
<pdfrwt beam="1">  1        2 0.42602437E-01 0.22353559E+03</pdfrwt>
<pdfrwt beam="2">  1       -2 0.69402035E-02 0.22353559E+03</pdfrwt>
<totfact> 0.13765705E+04</totfact>
</mgrwt>
</event>
<event>
 4    1  0.5980424E-004  0.2549140E+03  0.7818608E-02  0.1110238E+00
          2   -1    0    0  501    0  0.00000000000E+00  0.00000000000E+00  0.23224897505E+04  0.23224897505E+04  0.25500000000E-02 0.  1.
         -2   -1    0    0    0  501 -0.00000000000E+00 -0.00000000000E+00 -0.69947705170E+01  0.69947709818E+01  0.25500000000E-02 0. -1.
    5000001    1    1    2    0    0 -0.35171431536E+02 -0.91693455718E+02  0.13945628556E+04  0.14001354497E+04  0.77000000000E+02 0.  0.
   -5000001    1    1    2    0    0  0.35171431536E+02  0.91693455718E+02  0.92093212442E+03  0.92934907178E+03  0.77000000000E+02 0.  0.
<mgrwt>
<rscale>  0 0.25491397E+03</rscale>
<asrwt>0</asrwt>
<pdfrwt beam="1">  1        2 0.35730612E+00 0.25491397E+03</pdfrwt>
<pdfrwt beam="2">  1       -2 0.10761186E-02 0.25491397E+03</pdfrwt>
<totfact> 0.95874318E+03</totfact>
</mgrwt>
</event>
<event>
 4    1  0.5980424E-004  0.4024595E+03  0.7818608E-02  0.1042931E+00
         -2   -1    0    0    0  501 -0.00000000000E+00  0.00000000000E+00  0.45404984325E+02  0.45404984397E+02  0.25500000000E-02 0. -1.
          2   -1    0    0  501    0  0.00000000000E+00 -0.00000000000E+00 -0.89182752575E+03  0.89182752576E+03  0.25500000000E-02 0.  1.
    5000001    1    1    2    0    0 -0.83302697598E+02  0.12424998327E+03 -0.68029456581E+03  0.70079033529E+03  0.77000000000E+02 0.  0.
   -5000001    1    1    2    0    0  0.83302697598E+02 -0.12424998327E+03 -0.16612797562E+03  0.23644217486E+03  0.77000000000E+02 0.  0.
<mgrwt>
<rscale>  0 0.40245951E+03</rscale>
<asrwt>0</asrwt>
<pdfrwt beam="1">  1        2 0.13720422E+00 0.40245951E+03</pdfrwt>
<pdfrwt beam="2">  1       -2 0.69853829E-02 0.40245951E+03</pdfrwt>
<totfact> 0.36127297E+03</totfact>
</mgrwt>
</event>
<event>
 4    1  0.5980424E-004  0.2298629E+03  0.7818608E-02  0.1126736E+00
          2   -1    0    0  501    0  0.00000000000E+00  0.00000000000E+00  0.69738914002E+03  0.69738914003E+03  0.25500000000E-02 0.  1.
         -2   -1    0    0    0  501 -0.00000000000E+00 -0.00000000000E+00 -0.18940992660E+02  0.18940992832E+02  0.25500000000E-02 0. -1.
    5000001    1    1    2    0    0  0.69620560616E+02  0.33637493012E+02  0.22678784619E+03  0.25167485090E+03  0.77000000000E+02 0.  0.
   -5000001    1    1    2    0    0 -0.69620560616E+02 -0.33637493012E+02  0.45166030117E+03  0.46465528196E+03  0.77000000000E+02 0.  0.
<mgrwt>
<rscale>  0 0.22986294E+03</rscale>
<asrwt>0</asrwt>
<pdfrwt beam="1">  1        2 0.10729064E+00 0.22986294E+03</pdfrwt>
<pdfrwt beam="2">  1       -2 0.29139989E-02 0.22986294E+03</pdfrwt>
<totfact> 0.18349448E+04</totfact>
</mgrwt>
</event>
<event>
 4    1  0.5980424E-004  0.2069717E+03  0.7818608E-02  0.1143987E+00
          2   -1    0    0  501    0  0.00000000000E+00  0.00000000000E+00  0.21651779460E+03  0.21651779461E+03  0.25500000000E-02 0.  1.
         -2   -1    0    0    0  501 -0.00000000000E+00 -0.00000000000E+00 -0.49461636619E+02  0.49461636685E+02  0.25500000000E-02 0. -1.
    5000001    1    1    2    0    0  0.29962774722E+02 -0.49462087421E+02  0.34828737506E+02  0.10240267046E+03  0.77000000000E+02 0.  0.
   -5000001    1    1    2    0    0 -0.29962774722E+02  0.49462087421E+02  0.13222742047E+03  0.16357676084E+03  0.77000000000E+02 0.  0.
<mgrwt>
<rscale>  0 0.20697173E+03</rscale>
<asrwt>0</asrwt>
<pdfrwt beam="1">  1        2 0.33310430E-01 0.20697173E+03</pdfrwt>
<pdfrwt beam="2">  1       -2 0.76094825E-02 0.20697173E+03</pdfrwt>
<totfact> 0.15484716E+04</totfact>
</mgrwt>
</event>
<event>
 4    1  0.5980424E-004  0.2318803E+03  0.7818608E-02  0.1125323E+00
          2   -1    0    0  501    0  0.00000000000E+00  0.00000000000E+00  0.19253975915E+04  0.19253975915E+04  0.25500000000E-02 0.  1.
         -2   -1    0    0    0  501 -0.00000000000E+00 -0.00000000000E+00 -0.69814770513E+01  0.69814775170E+01  0.25500000000E-02 0. -1.
    5000001    1    1    2    0    0  0.42854191261E+02 -0.35075563149E+02  0.15148946508E+04  0.15178608565E+04  0.77000000000E+02 0.  0.
   -5000001    1    1    2    0    0 -0.42854191261E+02  0.35075563149E+02  0.40352146364E+03  0.41451821246E+03  0.77000000000E+02 0.  0.
<mgrwt>
<rscale>  0 0.23188031E+03</rscale>
<asrwt>0</asrwt>
<pdfrwt beam="1">  1        2 0.29621448E+00 0.23188031E+03</pdfrwt>
<pdfrwt beam="2">  1       -2 0.10740754E-02 0.23188031E+03</pdfrwt>
<totfact> 0.15547308E+04</totfact>
</mgrwt>
</event>
<event>
 4    1  0.5980424E-004  0.1670639E+03  0.7818608E-02  0.1180945E+00
          2   -1    0    0  501    0  0.00000000000E+00  0.00000000000E+00  0.12218552302E+04  0.12218552302E+04  0.25500000000E-02 0.  1.
         -2   -1    0    0    0  501 -0.00000000000E+00 -0.00000000000E+00 -0.57106494749E+01  0.57106500442E+01  0.25500000000E-02 0. -1.
    5000001    1    1    2    0    0 -0.12067932532E+02 -0.21744761507E+02  0.45568252614E+03  0.46281101357E+03  0.77000000000E+02 0.  0.
   -5000001    1    1    2    0    0  0.12067932532E+02  0.21744761507E+02  0.76046205459E+03  0.76475486668E+03  0.77000000000E+02 0.  0.
<mgrwt>
<rscale>  0 0.16706391E+03</rscale>
<asrwt>0</asrwt>
<pdfrwt beam="1">  1        2 0.18797766E+00 0.16706391E+03</pdfrwt>
<pdfrwt beam="2">  1       -2 0.87856182E-03 0.16706391E+03</pdfrwt>
<totfact> 0.48088259E+04</totfact>
</mgrwt>
</event>
<event>
 4    1  0.5980424E-004  0.3860560E+03  0.7818608E-02  0.1048718E+00
          2   -1    0    0  501    0  0.00000000000E+00  0.00000000000E+00  0.13671893273E+03  0.13671893276E+03  0.25500000000E-02 0.  1.
         -2   -1    0    0    0  501 -0.00000000000E+00 -0.00000000000E+00 -0.27252854015E+03  0.27252854016E+03  0.25500000000E-02 0. -1.
    5000001    1    1    2    0    0  0.34126289976E+02  0.16957037087E+03 -0.28069519328E+02  0.19140431620E+03  0.77000000000E+02 0.  0.
   -5000001    1    1    2    0    0 -0.34126289976E+02 -0.16957037087E+03 -0.10774008809E+03  0.21784315671E+03  0.77000000000E+02 0.  0.
<mgrwt>
<rscale>  0 0.38605601E+03</rscale>
<asrwt>0</asrwt>
<pdfrwt beam="1">  1        2 0.21033682E-01 0.38605601E+03</pdfrwt>
<pdfrwt beam="2">  1       -2 0.41927468E-01 0.38605601E+03</pdfrwt>
<totfact> 0.14346811E+03</totfact>
</mgrwt>
</event>
<event>
 4    1  0.5980424E-004  0.2435049E+03  0.7818608E-02  0.1117480E+00
          2   -1    0    0  501    0  0.00000000000E+00  0.00000000000E+00  0.19377782449E+03  0.19377782451E+03  0.25500000000E-02 0.  1.
         -2   -1    0    0    0  501 -0.00000000000E+00 -0.00000000000E+00 -0.76498223108E+02  0.76498223150E+02  0.25500000000E-02 0. -1.
    5000001    1    1    2    0    0  0.30581718065E+02  0.57541361881E+02  0.13431473277E+03  0.16797528760E+03  0.77000000000E+02 0.  0.
   -5000001    1    1    2    0    0 -0.30581718065E+02 -0.57541361881E+02 -0.17035131382E+02  0.10230076006E+03  0.77000000000E+02 0.  0.
<mgrwt>
<rscale>  0 0.24350490E+03</rscale>
<asrwt>0</asrwt>
<pdfrwt beam="1">  1        2 0.29811972E-01 0.24350490E+03</pdfrwt>
<pdfrwt beam="2">  1       -2 0.11768958E-01 0.24350490E+03</pdfrwt>
<totfact> 0.88647159E+03</totfact>
</mgrwt>
</event>
<event>
 4    1  0.5980424E-004  0.2063537E+03  0.7818608E-02  0.1144486E+00
          2   -1    0    0  501    0  0.00000000000E+00  0.00000000000E+00  0.28004332699E+04  0.28004332699E+04  0.25500000000E-02 0.  1.
         -2   -1    0    0    0  501 -0.00000000000E+00 -0.00000000000E+00 -0.38013612556E+01  0.38013621109E+01  0.25500000000E-02 0. -1.
    5000001    1    1    2    0    0  0.55316146725E+02  0.43862851621E+01  0.19482012770E+04  0.19505118126E+04  0.77000000000E+02 0.  0.
   -5000001    1    1    2    0    0 -0.55316146725E+02 -0.43862851621E+01  0.84843063168E+03  0.85372281939E+03  0.77000000000E+02 0.  0.
<mgrwt>
<rscale>  0 0.20635367E+03</rscale>
<asrwt>0</asrwt>
<pdfrwt beam="1">  1        2 0.43083724E+00 0.20635367E+03</pdfrwt>
<pdfrwt beam="2">  1       -2 0.58482304E-03 0.20635367E+03</pdfrwt>
<totfact> 0.12585997E+04</totfact>
</mgrwt>
</event>
<event>
 4    1  0.5980424E-004  0.2190931E+03  0.7818608E-02  0.1134561E+00
          2   -1    0    0  501    0  0.00000000000E+00  0.00000000000E+00  0.10600090250E+04  0.10600090250E+04  0.25500000000E-02 0.  1.
         -2   -1    0    0    0  501 -0.00000000000E+00 -0.00000000000E+00 -0.11321080784E+02  0.11321081071E+02  0.25500000000E-02 0. -1.
    5000001    1    1    2    0    0  0.13973748262E+02 -0.26672118474E+01  0.89895379972E+03  0.90235764179E+03  0.77000000000E+02 0.  0.
   -5000001    1    1    2    0    0 -0.13973748262E+02  0.26672118474E+01  0.14973414449E+03  0.16897246429E+03  0.77000000000E+02 0.  0.
<mgrwt>
<rscale>  0 0.21909311E+03</rscale>
<asrwt>0</asrwt>
<pdfrwt beam="1">  1        2 0.16307832E+00 0.21909311E+03</pdfrwt>
<pdfrwt beam="2">  1       -2 0.17417046E-02 0.21909311E+03</pdfrwt>
<totfact> 0.22530977E+04</totfact>
</mgrwt>
</event>
<event>
 4    1  0.5980424E-004  0.2440263E+03  0.7818608E-02  0.1117139E+00
          2   -1    0    0  501    0  0.00000000000E+00  0.00000000000E+00  0.18337036390E+04  0.18337036390E+04  0.25500000000E-02 0.  1.
         -2   -1    0    0    0  501 -0.00000000000E+00 -0.00000000000E+00 -0.81186541096E+01  0.81186545101E+01  0.25500000000E-02 0. -1.
    5000001    1    1    2    0    0 -0.35516737465E+02  0.87058679544E+02  0.83095936383E+03  0.83979945026E+03  0.77000000000E+02 0.  0.
   -5000001    1    1    2    0    0  0.35516737465E+02 -0.87058679544E+02  0.99462562107E+03  0.10020228433E+04  0.77000000000E+02 0.  0.
<mgrwt>
<rscale>  0 0.24402628E+03</rscale>
<asrwt>0</asrwt>
<pdfrwt beam="1">  1        2 0.28210853E+00 0.24402628E+03</pdfrwt>
<pdfrwt beam="2">  1       -2 0.12490225E-02 0.24402628E+03</pdfrwt>
<totfact> 0.13964438E+04</totfact>
</mgrwt>
</event>
<event>
 4    1  0.5980424E-004  0.4103765E+03  0.7818608E-02  0.1040245E+00
         -2   -1    0    0    0  501 -0.00000000000E+00  0.00000000000E+00  0.25479365329E+02  0.25479365457E+02  0.25500000000E-02 0. -1.
          2   -1    0    0  501    0  0.00000000000E+00 -0.00000000000E+00 -0.16524043116E+04  0.16524043116E+04  0.25500000000E-02 0.  1.
    5000001    1    1    2    0    0  0.97282105754E+02 -0.15581144727E+02 -0.14786264764E+04  0.14839042546E+04  0.77000000000E+02 0.  0.
   -5000001    1    1    2    0    0 -0.97282105754E+02  0.15581144727E+02 -0.14829846995E+03  0.19397942252E+03  0.77000000000E+02 0.  0.
<mgrwt>
<rscale>  0 0.41037648E+03</rscale>
<asrwt>0</asrwt>
<pdfrwt beam="1">  1        2 0.25421596E+00 0.41037648E+03</pdfrwt>
<pdfrwt beam="2">  1       -2 0.39199037E-02 0.41037648E+03</pdfrwt>
<totfact> 0.32033158E+03</totfact>
</mgrwt>
</event>
<event>
 4    1  0.5980424E-004  0.2399361E+03  0.7818608E-02  0.1119835E+00
          2   -1    0    0  501    0  0.00000000000E+00  0.00000000000E+00  0.45639643193E+02  0.45639643264E+02  0.25500000000E-02 0.  1.
         -2   -1    0    0    0  501 -0.00000000000E+00 -0.00000000000E+00 -0.31534714968E+03  0.31534714969E+03  0.25500000000E-02 0. -1.
    5000001    1    1    2    0    0 -0.28543329408E+02 -0.77536742616E+02 -0.19571984466E+03  0.22596886003E+03  0.77000000000E+02 0.  0.
   -5000001    1    1    2    0    0  0.28543329408E+02  0.77536742616E+02 -0.73987661831E+02  0.13501793293E+03  0.77000000000E+02 0.  0.
<mgrwt>
<rscale>  0 0.23993609E+03</rscale>
<asrwt>0</asrwt>
<pdfrwt beam="1">  1        2 0.70214838E-02 0.23993609E+03</pdfrwt>
<pdfrwt beam="2">  1       -2 0.48514945E-01 0.23993609E+03</pdfrwt>
<totfact> 0.40569695E+03</totfact>
</mgrwt>
</event>
<event>
 4    1  0.5980424E-004  0.2037911E+03  0.7818608E-02  0.1146579E+00
          2   -1    0    0  501    0  0.00000000000E+00  0.00000000000E+00  0.11342236771E+04  0.11342236771E+04  0.25500000000E-02 0.  1.
         -2   -1    0    0    0  501 -0.00000000000E+00 -0.00000000000E+00 -0.91540136765E+01  0.91540140317E+01  0.25500000000E-02 0. -1.
    5000001    1    1    2    0    0 -0.22771567862E+02  0.51990064935E+02  0.36559068091E+03  0.37789821001E+03  0.77000000000E+02 0.  0.
   -5000001    1    1    2    0    0  0.22771567862E+02 -0.51990064935E+02  0.75947898252E+03  0.76547948114E+03  0.77000000000E+02 0.  0.
<mgrwt>
<rscale>  0 0.20379106E+03</rscale>
<asrwt>0</asrwt>
<pdfrwt beam="1">  1        2 0.17449602E+00 0.20379106E+03</pdfrwt>
<pdfrwt beam="2">  1       -2 0.14083093E-02 0.20379106E+03</pdfrwt>
<totfact> 0.27671206E+04</totfact>
</mgrwt>
</event>
<event>
 4    1  0.5980424E-004  0.5761063E+03  0.7818608E-02  0.9956256E-01
         -2   -1    0    0    0  501 -0.00000000000E+00  0.00000000000E+00  0.12423648559E+03  0.12423648562E+03  0.25500000000E-02 0. -1.
          2   -1    0    0  501    0  0.00000000000E+00 -0.00000000000E+00 -0.66787651489E+03  0.66787651489E+03  0.25500000000E-02 0.  1.
    5000001    1    1    2    0    0 -0.13372252415E+03 -0.11490865551E+03 -0.56658378658E+03  0.59835766878E+03  0.77000000000E+02 0.  0.
   -5000001    1    1    2    0    0  0.13372252415E+03  0.11490865551E+03  0.22943757281E+02  0.19375533173E+03  0.77000000000E+02 0.  0.
<mgrwt>
<rscale>  0 0.57610635E+03</rscale>
<asrwt>0</asrwt>
<pdfrwt beam="1">  1        2 0.10275023E+00 0.57610635E+03</pdfrwt>
<pdfrwt beam="2">  1       -2 0.19113306E-01 0.57610635E+03</pdfrwt>
<totfact> 0.10082671E+03</totfact>
</mgrwt>
</event>
<event>
 4    1  0.5980424E-004  0.2856674E+03  0.7818608E-02  0.1092633E+00
         -2   -1    0    0    0  501 -0.00000000000E+00  0.00000000000E+00  0.28033330472E+02  0.28033330587E+02  0.25500000000E-02 0. -1.
          2   -1    0    0  501    0  0.00000000000E+00 -0.00000000000E+00 -0.72775733945E+03  0.72775733945E+03  0.25500000000E-02 0.  1.
    5000001    1    1    2    0    0  0.11071997271E+03 -0.46704761928E+02 -0.33484548456E+03  0.36399278244E+03  0.77000000000E+02 0.  0.
   -5000001    1    1    2    0    0 -0.11071997271E+03  0.46704761928E+02 -0.36487852442E+03  0.39179788760E+03  0.77000000000E+02 0.  0.
<mgrwt>
<rscale>  0 0.28566737E+03</rscale>
<asrwt>0</asrwt>
<pdfrwt beam="1">  1        2 0.11196265E+00 0.28566737E+03</pdfrwt>
<pdfrwt beam="2">  1       -2 0.43128206E-02 0.28566737E+03</pdfrwt>
<totfact> 0.97836419E+03</totfact>
</mgrwt>
</event>
<event>
 4    1  0.5980424E-004  0.1763140E+03  0.7818608E-02  0.1171419E+00
         -2   -1    0    0    0  501 -0.00000000000E+00  0.00000000000E+00  0.19886368256E+02  0.19886368420E+02  0.25500000000E-02 0. -1.
          2   -1    0    0  501    0  0.00000000000E+00 -0.00000000000E+00 -0.39080334491E+03  0.39080334492E+03  0.25500000000E-02 0.  1.
    5000001    1    1    2    0    0  0.42524228366E+02  0.98478442463E+00 -0.17200091767E+03  0.19319056778E+03  0.77000000000E+02 0.  0.
   -5000001    1    1    2    0    0 -0.42524228366E+02 -0.98478442463E+00 -0.19891605898E+03  0.21749914556E+03  0.77000000000E+02 0.  0.
<mgrwt>
<rscale>  0 0.17631403E+03</rscale>
<asrwt>0</asrwt>
<pdfrwt beam="1">  1        2 0.60123586E-01 0.17631403E+03</pdfrwt>
<pdfrwt beam="2">  1       -2 0.30594416E-02 0.17631403E+03</pdfrwt>
<totfact> 0.32141167E+04</totfact>
</mgrwt>
</event>
<event>
 4    1  0.5980424E-004  0.4195687E+03  0.7818608E-02  0.1037207E+00
         -2   -1    0    0    0  501 -0.00000000000E+00  0.00000000000E+00  0.43855135367E+02  0.43855135441E+02  0.25500000000E-02 0. -1.
          2   -1    0    0  501    0  0.00000000000E+00 -0.00000000000E+00 -0.10035193832E+04  0.10035193832E+04  0.25500000000E-02 0.  1.
    5000001    1    1    2    0    0 -0.17635358076E+03 -0.71407189170E+02 -0.37156851988E+03  0.42448997288E+03  0.77000000000E+02 0.  0.
   -5000001    1    1    2    0    0  0.17635358076E+03  0.71407189170E+02 -0.58809572794E+03  0.62288454575E+03  0.77000000000E+02 0.  0.
<mgrwt>
<rscale>  0 0.41956872E+03</rscale>
<asrwt>0</asrwt>
<pdfrwt beam="1">  1        2 0.15438758E+00 0.41956872E+03</pdfrwt>
<pdfrwt beam="2">  1       -2 0.67469446E-02 0.41956872E+03</pdfrwt>
<totfact> 0.32359187E+03</totfact>
</mgrwt>
</event>
<event>
 4    1  0.5980424E-004  0.2881081E+03  0.7818608E-02  0.1091341E+00
          2   -1    0    0  501    0  0.00000000000E+00  0.00000000000E+00  0.53270723532E+03  0.53270723533E+03  0.25500000000E-02 0.  1.
         -2   -1    0    0    0  501 -0.00000000000E+00 -0.00000000000E+00 -0.38954923584E+02  0.38954923668E+02  0.25500000000E-02 0. -1.
    5000001    1    1    2    0    0 -0.55504582709E+02 -0.10716285575E+03  0.21500941174E+03  0.25830734309E+03  0.77000000000E+02 0.  0.
   -5000001    1    1    2    0    0  0.55504582709E+02  0.10716285575E+03  0.27874290000E+03  0.31335481591E+03  0.77000000000E+02 0.  0.
<mgrwt>
<rscale>  0 0.28810810E+03</rscale>
<asrwt>0</asrwt>
<pdfrwt beam="1">  1        2 0.81954960E-01 0.28810810E+03</pdfrwt>
<pdfrwt beam="2">  1       -2 0.59930652E-02 0.28810810E+03</pdfrwt>
<totfact> 0.85610815E+03</totfact>
</mgrwt>
</event>
<event>
 4    1  0.5980424E-004  0.4589197E+03  0.7818608E-02  0.1025095E+00
          2   -1    0    0  501    0  0.00000000000E+00  0.00000000000E+00  0.16256956259E+03  0.16256956261E+03  0.25500000000E-02 0.  1.
         -2   -1    0    0    0  501 -0.00000000000E+00 -0.00000000000E+00 -0.32387259706E+03  0.32387259707E+03  0.25500000000E-02 0. -1.
    5000001    1    1    2    0    0  0.18561605844E+03  0.10495087848E+03 -0.11819935490E+03  0.25567185129E+03  0.77000000000E+02 0.  0.
   -5000001    1    1    2    0    0 -0.18561605844E+03 -0.10495087848E+03 -0.43103679568E+02  0.23077030839E+03  0.77000000000E+02 0.  0.
<mgrwt>
<rscale>  0 0.45891972E+03</rscale>
<asrwt>0</asrwt>
<pdfrwt beam="1">  1        2 0.25010702E-01 0.45891972E+03</pdfrwt>
<pdfrwt beam="2">  1       -2 0.49826553E-01 0.45891972E+03</pdfrwt>
<totfact> 0.83745141E+02</totfact>
</mgrwt>
</event>
<event>
 4    1  0.5980424E-004  0.2703109E+03  0.7818608E-02  0.1101102E+00
          2   -1    0    0  501    0  0.00000000000E+00  0.00000000000E+00  0.20814676362E+02  0.20814676519E+02  0.25500000000E-02 0.  1.
         -2   -1    0    0    0  501 -0.00000000000E+00 -0.00000000000E+00 -0.87760168381E+03  0.87760168381E+03  0.25500000000E-02 0. -1.
    5000001    1    1    2    0    0 -0.61873046545E+02  0.82569546301E+02 -0.29167945213E+03  0.31882896145E+03  0.77000000000E+02 0.  0.
   -5000001    1    1    2    0    0  0.61873046545E+02 -0.82569546301E+02 -0.56510755531E+03  0.57958739887E+03  0.77000000000E+02 0.  0.
<mgrwt>
<rscale>  0 0.27031090E+03</rscale>
<asrwt>0</asrwt>
<pdfrwt beam="1">  1        2 0.32022586E-02 0.27031090E+03</pdfrwt>
<pdfrwt beam="2">  1       -2 0.13501562E+00 0.27031090E+03</pdfrwt>
<totfact> 0.11882311E+03</totfact>
</mgrwt>
</event>
<event>
 4    1  0.5980424E-004  0.4644625E+03  0.7818608E-02  0.1023495E+00
         -2   -1    0    0    0  501 -0.00000000000E+00  0.00000000000E+00  0.91208823893E+02  0.91208823928E+02  0.25500000000E-02 0. -1.
          2   -1    0    0  501    0  0.00000000000E+00 -0.00000000000E+00 -0.59129546728E+03  0.59129546729E+03  0.25500000000E-02 0.  1.
    5000001    1    1    2    0    0  0.16072350179E+02  0.12679823975E+03  0.11445426924E+02  0.14965330548E+03  0.77000000000E+02 0.  0.
   -5000001    1    1    2    0    0 -0.16072350179E+02 -0.12679823975E+03 -0.51153207031E+03  0.53285098574E+03  0.77000000000E+02 0.  0.
<mgrwt>
<rscale>  0 0.46446255E+03</rscale>
<asrwt>0</asrwt>
<pdfrwt beam="1">  1        2 0.90968531E-01 0.46446255E+03</pdfrwt>
<pdfrwt beam="2">  1       -2 0.14032127E-01 0.46446255E+03</pdfrwt>
<totfact> 0.19733028E+03</totfact>
</mgrwt>
</event>
<event>
 4    1  0.5980424E-004  0.2581087E+03  0.7818608E-02  0.1108285E+00
         -2   -1    0    0    0  501 -0.00000000000E+00  0.00000000000E+00  0.43028874318E+03  0.43028874319E+03  0.25500000000E-02 0. -1.
          2   -1    0    0  501    0  0.00000000000E+00 -0.00000000000E+00 -0.38706626810E+02  0.38706626894E+02  0.25500000000E-02 0.  1.
    5000001    1    1    2    0    0 -0.78075829366E+02  0.62360426665E+02  0.14631640171E+03  0.19318940797E+03  0.77000000000E+02 0.  0.
   -5000001    1    1    2    0    0  0.78075829366E+02 -0.62360426665E+02  0.24526571467E+03  0.27580596211E+03  0.77000000000E+02 0.  0.
<mgrwt>
<rscale>  0 0.25810870E+03</rscale>
<asrwt>0</asrwt>
<pdfrwt beam="1">  1        2 0.59548661E-02 0.25810870E+03</pdfrwt>
<pdfrwt beam="2">  1       -2 0.66198263E-01 0.25810870E+03</pdfrwt>
<totfact> 0.26666380E+03</totfact>
</mgrwt>
</event>
<event>
 4    1  0.5980424E-004  0.2284616E+03  0.7818608E-02  0.1127727E+00
         -2   -1    0    0    0  501 -0.00000000000E+00  0.00000000000E+00  0.64755783111E+01  0.64755788132E+01  0.25500000000E-02 0. -1.
          2   -1    0    0  501    0  0.00000000000E+00 -0.00000000000E+00 -0.20150592586E+04  0.20150592586E+04  0.25500000000E-02 0.  1.
    5000001    1    1    2    0    0 -0.74209790863E+02  0.29057748238E+02 -0.12495442660E+04  0.12544486114E+04  0.77000000000E+02 0.  0.
   -5000001    1    1    2    0    0  0.74209790863E+02 -0.29057748238E+02 -0.75903941420E+03  0.76708622599E+03  0.77000000000E+02 0.  0.
<mgrwt>
<rscale>  0 0.22846159E+03</rscale>
<asrwt>0</asrwt>
<pdfrwt beam="1">  1        2 0.31000862E+00 0.22846159E+03</pdfrwt>
<pdfrwt beam="2">  1       -2 0.99624446E-03 0.22846159E+03</pdfrwt>
<totfact> 0.15557480E+04</totfact>
</mgrwt>
</event>
<event>
 4    1  0.5980424E-004  0.2357187E+03  0.7818608E-02  0.1122678E+00
          2   -1    0    0  501    0  0.00000000000E+00  0.00000000000E+00  0.19592109240E+03  0.19592109241E+03  0.25500000000E-02 0.  1.
         -2   -1    0    0    0  501 -0.00000000000E+00 -0.00000000000E+00 -0.70900077974E+02  0.70900078020E+02  0.25500000000E-02 0. -1.
    5000001    1    1    2    0    0  0.71873142749E+02  0.44428040184E+02  0.30052585664E+02  0.11820218825E+03  0.77000000000E+02 0.  0.
   -5000001    1    1    2    0    0 -0.71873142749E+02 -0.44428040184E+02  0.94968428759E+02  0.14861898218E+03  0.77000000000E+02 0.  0.
<mgrwt>
<rscale>  0 0.23571865E+03</rscale>
<asrwt>0</asrwt>
<pdfrwt beam="1">  1        2 0.30141706E-01 0.23571865E+03</pdfrwt>
<pdfrwt beam="2">  1       -2 0.10907704E-01 0.23571865E+03</pdfrwt>
<totfact> 0.98775199E+03</totfact>
</mgrwt>
</event>
<event>
 4    1  0.5980424E-004  0.2668363E+03  0.7818608E-02  0.1103104E+00
          2   -1    0    0  501    0  0.00000000000E+00  0.00000000000E+00  0.41450965008E+03  0.41450965009E+03  0.25500000000E-02 0.  1.
         -2   -1    0    0    0  501 -0.00000000000E+00 -0.00000000000E+00 -0.42943290032E+02  0.42943290107E+02  0.25500000000E-02 0. -1.
    5000001    1    1    2    0    0  0.39209627643E+02 -0.99088800025E+02  0.22470412042E+03  0.26034002175E+03  0.77000000000E+02 0.  0.
   -5000001    1    1    2    0    0 -0.39209627643E+02  0.99088800025E+02  0.14686223963E+03  0.19711291845E+03  0.77000000000E+02 0.  0.
<mgrwt>
<rscale>  0 0.26683634E+03</rscale>
<asrwt>0</asrwt>
<pdfrwt beam="1">  1        2 0.63770716E-01 0.26683634E+03</pdfrwt>
<pdfrwt beam="2">  1       -2 0.66066599E-02 0.26683634E+03</pdfrwt>
<totfact> 0.97051728E+03</totfact>
</mgrwt>
</event>
<event>
 4    1  0.5980424E-004  0.2211707E+03  0.7818608E-02  0.1133013E+00
          2   -1    0    0  501    0  0.00000000000E+00  0.00000000000E+00  0.11502574506E+03  0.11502574509E+03  0.25500000000E-02 0.  1.
         -2   -1    0    0    0  501 -0.00000000000E+00 -0.00000000000E+00 -0.10631637655E+03  0.10631637659E+03  0.25500000000E-02 0. -1.
    5000001    1    1    2    0    0 -0.69510303093E+02  0.26621025101E+02 -0.23230408652E+02  0.10958564276E+03  0.77000000000E+02 0.  0.
   -5000001    1    1    2    0    0  0.69510303093E+02 -0.26621025101E+02  0.31939777156E+02  0.11175647891E+03  0.77000000000E+02 0.  0.
<mgrwt>
<rscale>  0 0.22117071E+03</rscale>
<asrwt>0</asrwt>
<pdfrwt beam="1">  1        2 0.17696268E-01 0.22117071E+03</pdfrwt>
<pdfrwt beam="2">  1       -2 0.16356366E-01 0.22117071E+03</pdfrwt>
<totfact> 0.92597956E+03</totfact>
</mgrwt>
</event>
<event>
 4    1  0.5980424E-004  0.4448885E+03  0.7818608E-02  0.1029257E+00
         -2   -1    0    0    0  501 -0.00000000000E+00  0.00000000000E+00  0.53280671208E+02  0.53280671269E+02  0.25500000000E-02 0. -1.
          2   -1    0    0  501    0  0.00000000000E+00 -0.00000000000E+00 -0.92869408984E+03  0.92869408985E+03  0.25500000000E-02 0.  1.
    5000001    1    1    2    0    0  0.17206731577E+03  0.74537629393E+02 -0.23553739101E+03  0.31075694991E+03  0.77000000000E+02 0.  0.
   -5000001    1    1    2    0    0 -0.17206731577E+03 -0.74537629393E+02 -0.63987602762E+03  0.67121781120E+03  0.77000000000E+02 0.  0.
<mgrwt>
<rscale>  0 0.44488850E+03</rscale>
<asrwt>0</asrwt>
<pdfrwt beam="1">  1        2 0.14287600E+00 0.44488850E+03</pdfrwt>
<pdfrwt beam="2">  1       -2 0.81970270E-02 0.44488850E+03</pdfrwt>
<totfact> 0.26577546E+03</totfact>
</mgrwt>
</event>
<event>
 4    1  0.5980424E-004  0.1618678E+03  0.7818608E-02  0.1186604E+00
          2   -1    0    0  501    0  0.00000000000E+00  0.00000000000E+00  0.45513894810E+02  0.45513894882E+02  0.25500000000E-02 0.  1.
         -2   -1    0    0    0  501 -0.00000000000E+00 -0.00000000000E+00 -0.14391858076E+03  0.14391858078E+03  0.25500000000E-02 0. -1.
    5000001    1    1    2    0    0  0.19588616794E+02 -0.13758964638E+02 -0.41071374517E+02  0.90492435156E+02  0.77000000000E+02 0.  0.
   -5000001    1    1    2    0    0 -0.19588616794E+02  0.13758964638E+02 -0.57333311432E+02  0.98940040507E+02  0.77000000000E+02 0.  0.
<mgrwt>
<rscale>  0 0.16186779E+03</rscale>
<asrwt>0</asrwt>
<pdfrwt beam="1">  1        2 0.70021377E-02 0.16186779E+03</pdfrwt>
<pdfrwt beam="2">  1       -2 0.22141320E-01 0.16186779E+03</pdfrwt>
<totfact> 0.16795058E+04</totfact>
</mgrwt>
</event>
<event>
 4    1  0.5980424E-004  0.2090458E+03  0.7818608E-02  0.1142324E+00
          2   -1    0    0  501    0  0.00000000000E+00  0.00000000000E+00  0.26419031635E+03  0.26419031637E+03  0.25500000000E-02 0.  1.
         -2   -1    0    0    0  501 -0.00000000000E+00 -0.00000000000E+00 -0.41352900409E+02  0.41352900488E+02  0.25500000000E-02 0. -1.
    5000001    1    1    2    0    0  0.66810716036E+02  0.56088948040E+01  0.14413082332E+03  0.17662906247E+03  0.77000000000E+02 0.  0.
   -5000001    1    1    2    0    0 -0.66810716036E+02 -0.56088948040E+01  0.78706592626E+02  0.12891415439E+03  0.77000000000E+02 0.  0.
<mgrwt>
<rscale>  0 0.20904579E+03</rscale>
<asrwt>0</asrwt>
<pdfrwt beam="1">  1        2 0.40644662E-01 0.20904579E+03</pdfrwt>
<pdfrwt beam="2">  1       -2 0.63619850E-02 0.20904579E+03</pdfrwt>
<totfact> 0.16478805E+04</totfact>
</mgrwt>
</event>
<event>
 4    1  0.5980424E-004  0.3480475E+03  0.7818608E-02  0.1063419E+00
          2   -1    0    0  501    0  0.00000000000E+00  0.00000000000E+00  0.14914526404E+04  0.14914526404E+04  0.25500000000E-02 0.  1.
         -2   -1    0    0    0  501 -0.00000000000E+00 -0.00000000000E+00 -0.20305219508E+02  0.20305219668E+02  0.25500000000E-02 0. -1.
    5000001    1    1    2    0    0 -0.11096380027E+03  0.81103180082E+02  0.41448712812E+03  0.44341771521E+03  0.77000000000E+02 0.  0.
   -5000001    1    1    2    0    0  0.11096380027E+03 -0.81103180082E+02  0.10566602928E+04  0.10683401448E+04  0.77000000000E+02 0.  0.
<mgrwt>
<rscale>  0 0.34804754E+03</rscale>
<asrwt>0</asrwt>
<pdfrwt beam="1">  1        2 0.22945439E+00 0.34804754E+03</pdfrwt>
<pdfrwt beam="2">  1       -2 0.31238781E-02 0.34804754E+03</pdfrwt>
<totfact> 0.55122813E+03</totfact>
</mgrwt>
</event>
<event>
 4    1  0.5980424E-004  0.2028562E+03  0.7818608E-02  0.1147351E+00
         -2   -1    0    0    0  501 -0.00000000000E+00  0.00000000000E+00  0.77294408325E+01  0.77294412532E+01  0.25500000000E-02 0. -1.
          2   -1    0    0  501    0  0.00000000000E+00 -0.00000000000E+00 -0.13309702021E+04  0.13309702021E+04  0.25500000000E-02 0.  1.
    5000001    1    1    2    0    0 -0.25529620474E+02 -0.69851106099E+01 -0.26248256934E+03  0.27482112819E+03  0.77000000000E+02 0.  0.
   -5000001    1    1    2    0    0  0.25529620474E+02  0.69851106099E+01 -0.10607581919E+04  0.10638785151E+04  0.77000000000E+02 0.  0.
<mgrwt>
<rscale>  0 0.20285616E+03</rscale>
<asrwt>0</asrwt>
<pdfrwt beam="1">  1        2 0.20476446E+00 0.20285616E+03</pdfrwt>
<pdfrwt beam="2">  1       -2 0.11891458E-02 0.20285616E+03</pdfrwt>
<totfact> 0.27453707E+04</totfact>
</mgrwt>
</event>
<event>
 4    1  0.5980424E-004  0.1811999E+03  0.7818608E-02  0.1166647E+00
         -2   -1    0    0    0  501 -0.00000000000E+00  0.00000000000E+00  0.31792647436E+01  0.31792657663E+01  0.25500000000E-02 0. -1.
          2   -1    0    0  501    0  0.00000000000E+00 -0.00000000000E+00 -0.25818393941E+04  0.25818393941E+04  0.25500000000E-02 0.  1.
    5000001    1    1    2    0    0 -0.26400264954E+02 -0.39760493274E+02 -0.12719659839E+04  0.12751879606E+04  0.77000000000E+02 0.  0.
   -5000001    1    1    2    0    0  0.26400264954E+02  0.39760493274E+02 -0.13066941455E+04  0.13098306992E+04  0.77000000000E+02 0.  0.
<mgrwt>
<rscale>  0 0.18119991E+03</rscale>
<asrwt>0</asrwt>
<pdfrwt beam="1">  1        2 0.39720439E+00 0.18119991E+03</pdfrwt>
<pdfrwt beam="2">  1       -2 0.48911979E-03 0.18119991E+03</pdfrwt>
<totfact> 0.21432085E+04</totfact>
</mgrwt>
</event>
<event>
 4    1  0.5980424E-004  0.1679747E+03  0.7818608E-02  0.1179976E+00
         -2   -1    0    0    0  501 -0.00000000000E+00  0.00000000000E+00  0.62806287726E+02  0.62806287778E+02  0.25500000000E-02 0.  1.
          2   -1    0    0  501    0  0.00000000000E+00 -0.00000000000E+00 -0.11231164227E+03  0.11231164230E+03  0.25500000000E-02 0. -1.
    5000001    1    1    2    0    0 -0.23814030638E+02 -0.15319466804E+02 -0.43491567249E+02  0.92856397411E+02  0.77000000000E+02 0.  0.
   -5000001    1    1    2    0    0  0.23814030638E+02  0.15319466804E+02 -0.60137872914E+01  0.82261532662E+02  0.77000000000E+02 0.  0.
<mgrwt>
<rscale>  0 0.16797473E+03</rscale>
<asrwt>0</asrwt>
<pdfrwt beam="1">  1        2 0.17278714E-01 0.16797473E+03</pdfrwt>
<pdfrwt beam="2">  1       -2 0.96625058E-02 0.16797473E+03</pdfrwt>
<totfact> 0.21830114E+04</totfact>
</mgrwt>
</event>
<event>
 4    1  0.5980424E-004  0.1890780E+03  0.7818608E-02  0.1159296E+00
          2   -1    0    0  501    0  0.00000000000E+00  0.00000000000E+00  0.95171238640E+02  0.95171238674E+02  0.25500000000E-02 0.  1.
         -2   -1    0    0    0  501 -0.00000000000E+00 -0.00000000000E+00 -0.93910935114E+02  0.93910935149E+02  0.25500000000E-02 0. -1.
    5000001    1    1    2    0    0 -0.34589233185E+02  0.41289447312E+02 -0.97328247715E+01  0.94472013791E+02  0.77000000000E+02 0.  0.
   -5000001    1    1    2    0    0  0.34589233185E+02 -0.41289447312E+02  0.10993128297E+02  0.94610160033E+02  0.77000000000E+02 0.  0.
<mgrwt>
<rscale>  0 0.18907797E+03</rscale>
<asrwt>0</asrwt>
<pdfrwt beam="1">  1        2 0.14641729E-01 0.18907797E+03</pdfrwt>
<pdfrwt beam="2">  1       -2 0.14447836E-01 0.18907797E+03</pdfrwt>
<totfact> 0.14037879E+04</totfact>
</mgrwt>
</event>
<event>
 4    1  0.5980424E-004  0.2113670E+03  0.7818608E-02  0.1140488E+00
         -2   -1    0    0    0  501 -0.00000000000E+00  0.00000000000E+00  0.15196358898E+02  0.15196359112E+02  0.25500000000E-02 0. -1.
          2   -1    0    0  501    0  0.00000000000E+00 -0.00000000000E+00 -0.73497850870E+03  0.73497850871E+03  0.25500000000E-02 0.  1.
    5000001    1    1    2    0    0  0.64948174719E+02 -0.40272082995E+01 -0.47243430353E+03  0.48307106615E+03  0.77000000000E+02 0.  0.
   -5000001    1    1    2    0    0 -0.64948174719E+02  0.40272082995E+01 -0.24734784628E+03  0.26710380166E+03  0.77000000000E+02 0.  0.
<mgrwt>
<rscale>  0 0.21136695E+03</rscale>
<asrwt>0</asrwt>
<pdfrwt beam="1">  1        2 0.11307359E+00 0.21136695E+03</pdfrwt>
<pdfrwt beam="2">  1       -2 0.23379020E-02 0.21136695E+03</pdfrwt>
<totfact> 0.23709135E+04</totfact>
</mgrwt>
</event>
<event>
 4    1  0.5980424E-004  0.2663754E+03  0.7818608E-02  0.1103372E+00
         -2   -1    0    0    0  501 -0.00000000000E+00  0.00000000000E+00  0.40390589286E+03  0.40390589287E+03  0.25500000000E-02 0. -1.
          2   -1    0    0  501    0  0.00000000000E+00 -0.00000000000E+00 -0.43918561985E+02  0.43918562059E+02  0.25500000000E-02 0.  1.
    5000001    1    1    2    0    0 -0.68038349305E+02 -0.64777281283E+02  0.88147596511E+02  0.15008101784E+03  0.77000000000E+02 0.  0.
   -5000001    1    1    2    0    0  0.68038349305E+02  0.64777281283E+02  0.27183973436E+03  0.29774343708E+03  0.77000000000E+02 0.  0.
<mgrwt>
<rscale>  0 0.26637542E+03</rscale>
<asrwt>0</asrwt>
<pdfrwt beam="1">  1        2 0.67567023E-02 0.26637542E+03</pdfrwt>
<pdfrwt beam="2">  1       -2 0.62139364E-01 0.26637542E+03</pdfrwt>
<totfact> 0.25879490E+03</totfact>
</mgrwt>
</event>
<event>
 4    1  0.5980424E-004  0.1822788E+03  0.7818608E-02  0.1165616E+00
         -2   -1    0    0    0  501 -0.00000000000E+00  0.00000000000E+00  0.44525061177E+02  0.44525061250E+02  0.25500000000E-02 0. -1.
          2   -1    0    0  501    0  0.00000000000E+00 -0.00000000000E+00 -0.18655537213E+03  0.18655537215E+03  0.25500000000E-02 0.  1.
    5000001    1    1    2    0    0 -0.33852368593E+02 -0.26626397882E+02 -0.42038660894E+02  0.97730225280E+02  0.77000000000E+02 0.  0.
   -5000001    1    1    2    0    0  0.33852368593E+02  0.26626397882E+02 -0.99991650056E+02  0.13335020812E+03  0.77000000000E+02 0.  0.
<mgrwt>
<rscale>  0 0.18227879E+03</rscale>
<asrwt>0</asrwt>
<pdfrwt beam="1">  1        2 0.28700826E-01 0.18227879E+03</pdfrwt>
<pdfrwt beam="2">  1       -2 0.68500095E-02 0.18227879E+03</pdfrwt>
<totfact> 0.21214994E+04</totfact>
</mgrwt>
</event>
<event>
 4    1  0.5980424E-004  0.3102904E+03  0.7818608E-02  0.1080207E+00
          2   -1    0    0  501    0  0.00000000000E+00  0.00000000000E+00  0.27004991945E+04  0.27004991945E+04  0.25500000000E-02 0.  1.
         -2   -1    0    0    0  501 -0.00000000000E+00 -0.00000000000E+00 -0.89131798496E+01  0.89131802144E+01  0.25500000000E-02 0. -1.
    5000001    1    1    2    0    0  0.18605031381E+01 -0.11027692902E+03  0.20208382198E+04  0.20253099943E+04  0.77000000000E+02 0.  0.
   -5000001    1    1    2    0    0 -0.18605031381E+01  0.11027692902E+03  0.67074779486E+03  0.68410238040E+03  0.77000000000E+02 0.  0.
<mgrwt>
<rscale>  0 0.31029042E+03</rscale>
<asrwt>0</asrwt>
<pdfrwt beam="1">  1        2 0.41546193E+00 0.31029042E+03</pdfrwt>
<pdfrwt beam="2">  1       -2 0.13712567E-02 0.31029042E+03</pdfrwt>
<totfact> 0.41673269E+03</totfact>
</mgrwt>
</event>
<event>
 4    1  0.5980424E-004  0.2696801E+03  0.7818608E-02  0.1101463E+00
          2   -1    0    0  501    0  0.00000000000E+00  0.00000000000E+00  0.42920480414E+02  0.42920480490E+02  0.25500000000E-02 0.  1.
         -2   -1    0    0    0  501 -0.00000000000E+00 -0.00000000000E+00 -0.42361684236E+03  0.42361684237E+03  0.25500000000E-02 0. -1.
    5000001    1    1    2    0    0 -0.76305074837E+02 -0.79969475662E+02 -0.20062029179E+03  0.24165074583E+03  0.77000000000E+02 0.  0.
   -5000001    1    1    2    0    0  0.76305074837E+02  0.79969475662E+02 -0.18007607016E+03  0.22488657703E+03  0.77000000000E+02 0.  0.
<mgrwt>
<rscale>  0 0.26968009E+03</rscale>
<asrwt>0</asrwt>
<pdfrwt beam="1">  1        2 0.66031511E-02 0.26968009E+03</pdfrwt>
<pdfrwt beam="2">  1       -2 0.65171819E-01 0.26968009E+03</pdfrwt>
<totfact> 0.24134209E+03</totfact>
</mgrwt>
</event>
<event>
 4    1  0.5980424E-004  0.4076963E+03  0.7818608E-02  0.1041147E+00
          2   -1    0    0  501    0  0.00000000000E+00  0.00000000000E+00  0.20652898516E+03  0.20652898517E+03  0.25500000000E-02 0.  1.
         -2   -1    0    0    0  501 -0.00000000000E+00 -0.00000000000E+00 -0.20120211030E+03  0.20120211032E+03  0.25500000000E-02 0. -1.
    5000001    1    1    2    0    0 -0.13344419511E+03  0.31719803805E+02 -0.12700706224E+03  0.20217144462E+03  0.77000000000E+02 0.  0.
   -5000001    1    1    2    0    0  0.13344419511E+03 -0.31719803805E+02  0.13233393709E+03  0.20555965087E+03  0.77000000000E+02 0.  0.
<mgrwt>
<rscale>  0 0.40769630E+03</rscale>
<asrwt>0</asrwt>
<pdfrwt beam="1">  1        2 0.31773690E-01 0.40769630E+03</pdfrwt>
<pdfrwt beam="2">  1       -2 0.30954171E-01 0.40769630E+03</pdfrwt>
<totfact> 0.16000566E+03</totfact>
</mgrwt>
</event>
<event>
 4    1  0.5980424E-004  0.5586532E+03  0.7818608E-02  0.9995107E-01
          2   -1    0    0  501    0  0.00000000000E+00  0.00000000000E+00  0.19397163005E+04  0.19397163005E+04  0.25500000000E-02 0.  1.
         -2   -1    0    0    0  501 -0.00000000000E+00 -0.00000000000E+00 -0.40224100323E+02  0.40224100404E+02  0.25500000000E-02 0. -1.
    5000001    1    1    2    0    0 -0.14066974806E+03  0.22169329224E+03  0.75056560846E+03  0.79888273635E+03  0.77000000000E+02 0.  0.
   -5000001    1    1    2    0    0  0.14066974806E+03 -0.22169329224E+03  0.11489265918E+04  0.11810576646E+04  0.77000000000E+02 0.  0.
<mgrwt>
<rscale>  0 0.55865318E+03</rscale>
<asrwt>0</asrwt>
<pdfrwt beam="1">  1        2 0.29841781E+00 0.55865318E+03</pdfrwt>
<pdfrwt beam="2">  1       -2 0.61883249E-02 0.55865318E+03</pdfrwt>
<totfact> 0.11026532E+03</totfact>
</mgrwt>
</event>
<event>
 4    1  0.5980424E-004  0.2609475E+03  0.7818608E-02  0.1106575E+00
          2   -1    0    0  501    0  0.00000000000E+00  0.00000000000E+00  0.97681690554E+03  0.97681690555E+03  0.25500000000E-02 0.  1.
         -2   -1    0    0    0  501 -0.00000000000E+00 -0.00000000000E+00 -0.17427414673E+02  0.17427414859E+02  0.25500000000E-02 0. -1.
    5000001    1    1    2    0    0  0.53159679380E+02  0.90896297028E+02  0.48926192739E+03  0.50635394925E+03  0.77000000000E+02 0.  0.
   -5000001    1    1    2    0    0 -0.53159679380E+02 -0.90896297028E+02  0.47012756348E+03  0.48789037116E+03  0.77000000000E+02 0.  0.
<mgrwt>
<rscale>  0 0.26094745E+03</rscale>
<asrwt>0</asrwt>
<pdfrwt beam="1">  1        2 0.15027955E+00 0.26094745E+03</pdfrwt>
<pdfrwt beam="2">  1       -2 0.26811403E-02 0.26094745E+03</pdfrwt>
<totfact> 0.13524108E+04</totfact>
</mgrwt>
</event>
<event>
 4    1  0.5980424E-004  0.1995824E+03  0.7818608E-02  0.1150092E+00
          2   -1    0    0  501    0  0.00000000000E+00  0.00000000000E+00  0.79026044627E+03  0.79026044627E+03  0.25500000000E-02 0.  1.
         -2   -1    0    0    0  501 -0.00000000000E+00 -0.00000000000E+00 -0.12601262762E+02  0.12601263020E+02  0.25500000000E-02 0. -1.
    5000001    1    1    2    0    0  0.52382524331E+02 -0.26235619449E+02  0.48712232616E+03  0.49663809482E+03  0.77000000000E+02 0.  0.
   -5000001    1    1    2    0    0 -0.52382524331E+02  0.26235619449E+02  0.29053685734E+03  0.30622361447E+03  0.77000000000E+02 0.  0.
<mgrwt>
<rscale>  0 0.19958236E+03</rscale>
<asrwt>0</asrwt>
<pdfrwt beam="1">  1        2 0.12157861E+00 0.19958236E+03</pdfrwt>
<pdfrwt beam="2">  1       -2 0.19386546E-02 0.19958236E+03</pdfrwt>
<totfact> 0.28406517E+04</totfact>
</mgrwt>
</event>
<event>
 4    1  0.5980424E-004  0.1766239E+03  0.7818608E-02  0.1171111E+00
         -2   -1    0    0    0  501 -0.00000000000E+00  0.00000000000E+00  0.47280539810E+01  0.47280546686E+01  0.25500000000E-02 0. -1.
          2   -1    0    0  501    0  0.00000000000E+00 -0.00000000000E+00 -0.16495161480E+04  0.16495161480E+04  0.25500000000E-02 0.  1.
    5000001    1    1    2    0    0  0.38674811226E+02  0.18411175778E+02 -0.76675583902E+03  0.77180193643E+03  0.77000000000E+02 0.  0.
   -5000001    1    1    2    0    0 -0.38674811226E+02 -0.18411175778E+02 -0.87803225504E+03  0.88244226627E+03  0.77000000000E+02 0.  0.
<mgrwt>
<rscale>  0 0.17662392E+03</rscale>
<asrwt>0</asrwt>
<pdfrwt beam="1">  1        2 0.25377126E+00 0.17662392E+03</pdfrwt>
<pdfrwt beam="2">  1       -2 0.72739429E-03 0.17662392E+03</pdfrwt>
<totfact> 0.37446361E+04</totfact>
</mgrwt>
</event>
<event>
 4    1  0.5980424E-004  0.2034018E+03  0.7818608E-02  0.1146900E+00
         -2   -1    0    0    0  501 -0.00000000000E+00  0.00000000000E+00  0.37962427822E+02  0.37962427907E+02  0.25500000000E-02 0. -1.
          2   -1    0    0  501    0  0.00000000000E+00 -0.00000000000E+00 -0.27245556791E+03  0.27245556792E+03  0.25500000000E-02 0.  1.
    5000001    1    1    2    0    0 -0.48438402513E+02  0.18118749881E+02 -0.18089755677E+03  0.20329164759E+03  0.77000000000E+02 0.  0.
   -5000001    1    1    2    0    0  0.48438402513E+02 -0.18118749881E+02 -0.53595583317E+02  0.10712634824E+03  0.77000000000E+02 0.  0.
<mgrwt>
<rscale>  0 0.20340182E+03</rscale>
<asrwt>0</asrwt>
<pdfrwt beam="1">  1        2 0.41916240E-01 0.20340182E+03</pdfrwt>
<pdfrwt beam="2">  1       -2 0.58403737E-02 0.20340182E+03</pdfrwt>
<totfact> 0.18137478E+04</totfact>
</mgrwt>
</event>
<event>
 4    1  0.5980424E-004  0.2782262E+03  0.7818608E-02  0.1096662E+00
         -2   -1    0    0    0  501 -0.00000000000E+00  0.00000000000E+00  0.20432222087E+02  0.20432222246E+02  0.25500000000E-02 0. -1.
          2   -1    0    0  501    0  0.00000000000E+00 -0.00000000000E+00 -0.94715354308E+03  0.94715354308E+03  0.25500000000E-02 0.  1.
    5000001    1    1    2    0    0 -0.39200410464E+02 -0.89630368524E+02 -0.24748636663E+03  0.27703569591E+03  0.77000000000E+02 0.  0.
   -5000001    1    1    2    0    0  0.39200410464E+02  0.89630368524E+02 -0.67923495437E+03  0.69055006942E+03  0.77000000000E+02 0.  0.
<mgrwt>
<rscale>  0 0.27822618E+03</rscale>
<asrwt>0</asrwt>
<pdfrwt beam="1">  1        2 0.14571590E+00 0.27822618E+03</pdfrwt>
<pdfrwt beam="2">  1       -2 0.31434195E-02 0.27822618E+03</pdfrwt>
<totfact> 0.11166087E+04</totfact>
</mgrwt>
</event>
<event>
 4    1  0.5980424E-004  0.1736952E+03  0.7818608E-02  0.1174048E+00
         -2   -1    0    0    0  501 -0.00000000000E+00  0.00000000000E+00  0.13680208539E+02  0.13680208777E+02  0.25500000000E-02 0. -1.
          2   -1    0    0  501    0  0.00000000000E+00 -0.00000000000E+00 -0.55134431223E+03  0.55134431224E+03  0.25500000000E-02 0.  1.
    5000001    1    1    2    0    0  0.16619683672E+02 -0.36492021927E+02 -0.26111786645E+03  0.27517162232E+03  0.77000000000E+02 0.  0.
   -5000001    1    1    2    0    0 -0.16619683672E+02  0.36492021927E+02 -0.27654623725E+03  0.28985289870E+03  0.77000000000E+02 0.  0.
<mgrwt>
<rscale>  0 0.17369520E+03</rscale>
<asrwt>0</asrwt>
<pdfrwt beam="1">  1        2 0.84822185E-01 0.17369520E+03</pdfrwt>
<pdfrwt beam="2">  1       -2 0.21046479E-02 0.17369520E+03</pdfrwt>
<totfact> 0.38134957E+04</totfact>
</mgrwt>
</event>
<event>
 4    1  0.5980424E-004  0.5349512E+03  0.7818608E-02  0.1005038E+00
         -2   -1    0    0    0  501 -0.00000000000E+00  0.00000000000E+00  0.46094895375E+02  0.46094895446E+02  0.25500000000E-02 0. -1.
          2   -1    0    0  501    0  0.00000000000E+00 -0.00000000000E+00 -0.15520850387E+04  0.15520850387E+04  0.25500000000E-02 0.  1.
    5000001    1    1    2    0    0  0.19264496836E+03  0.20139669272E+02 -0.12537643453E+04  0.12709727471E+04  0.77000000000E+02 0.  0.
   -5000001    1    1    2    0    0 -0.19264496836E+03 -0.20139669272E+02 -0.25222579797E+03  0.32720718708E+03  0.77000000000E+02 0.  0.
<mgrwt>
<rscale>  0 0.53495120E+03</rscale>
<asrwt>0</asrwt>
<pdfrwt beam="1">  1        2 0.23878227E+00 0.53495120E+03</pdfrwt>
<pdfrwt beam="2">  1       -2 0.70915236E-02 0.53495120E+03</pdfrwt>
<totfact> 0.14445965E+03</totfact>
</mgrwt>
</event>
<event>
 4    1  0.5980424E-004  0.1694104E+03  0.7818608E-02  0.1178464E+00
          2   -1    0    0  501    0  0.00000000000E+00  0.00000000000E+00  0.20199076209E+02  0.20199076370E+02  0.25500000000E-02 0.  1.
         -2   -1    0    0    0  501 -0.00000000000E+00 -0.00000000000E+00 -0.35521284619E+03  0.35521284620E+03  0.25500000000E-02 0. -1.
    5000001    1    1    2    0    0 -0.24378521191E+02 -0.76594014554E+01 -0.22146945640E+03  0.23586160952E+03  0.77000000000E+02 0.  0.
   -5000001    1    1    2    0    0  0.24378521191E+02  0.76594014554E+01 -0.11354431358E+03  0.13955031305E+03  0.77000000000E+02 0.  0.
<mgrwt>
<rscale>  0 0.16941041E+03</rscale>
<asrwt>0</asrwt>
<pdfrwt beam="1">  1        2 0.31075505E-02 0.16941041E+03</pdfrwt>
<pdfrwt beam="2">  1       -2 0.54648126E-01 0.16941041E+03</pdfrwt>
<totfact> 0.91703879E+03</totfact>
</mgrwt>
</event>
<event>
 4    1  0.5980424E-004  0.2753529E+03  0.7818608E-02  0.1098254E+00
          2   -1    0    0  501    0  0.00000000000E+00  0.00000000000E+00  0.14361520195E+04  0.14361520195E+04  0.25500000000E-02 0.  1.
         -2   -1    0    0    0  501 -0.00000000000E+00 -0.00000000000E+00 -0.13198329957E+02  0.13198330204E+02  0.25500000000E-02 0. -1.
    5000001    1    1    2    0    0  0.56775198988E+01 -0.94841230148E+02  0.10443232900E+04  0.10514595699E+04  0.77000000000E+02 0.  0.
   -5000001    1    1    2    0    0 -0.56775198988E+01  0.94841230148E+02  0.37863039950E+03  0.39789077973E+03  0.77000000000E+02 0.  0.
<mgrwt>
<rscale>  0 0.27535293E+03</rscale>
<asrwt>0</asrwt>
<pdfrwt beam="1">  1        2 0.22094637E+00 0.27535293E+03</pdfrwt>
<pdfrwt beam="2">  1       -2 0.20305132E-02 0.27535293E+03</pdfrwt>
<totfact> 0.11164568E+04</totfact>
</mgrwt>
</event>
<event>
 4    1  0.5980424E-004  0.2364808E+03  0.7818608E-02  0.1122160E+00
         -2   -1    0    0    0  501 -0.00000000000E+00  0.00000000000E+00  0.92858895177E+01  0.92858898678E+01  0.25500000000E-02 0. -1.
          2   -1    0    0  501    0  0.00000000000E+00 -0.00000000000E+00 -0.15055951425E+04  0.15055951425E+04  0.25500000000E-02 0.  1.
    5000001    1    1    2    0    0 -0.51956939354E+02 -0.70548073888E+02 -0.62406513624E+03  0.63487230886E+03  0.77000000000E+02 0.  0.
   -5000001    1    1    2    0    0  0.51956939354E+02  0.70548073888E+02 -0.87224411670E+03  0.88000872347E+03  0.77000000000E+02 0.  0.
<mgrwt>
<rscale>  0 0.23648078E+03</rscale>
<asrwt>0</asrwt>
<pdfrwt beam="1">  1        2 0.23162983E+00 0.23648078E+03</pdfrwt>
<pdfrwt beam="2">  1       -2 0.14285996E-02 0.23648078E+03</pdfrwt>
<totfact> 0.17069191E+04</totfact>
</mgrwt>
</event>
<event>
 4    1  0.5980424E-004  0.2852267E+03  0.7818608E-02  0.1092868E+00
         -2   -1    0    0    0  501 -0.00000000000E+00  0.00000000000E+00  0.42869921851E+02  0.42869921927E+02  0.25500000000E-02 0. -1.
          2   -1    0    0  501    0  0.00000000000E+00 -0.00000000000E+00 -0.47442525306E+03  0.47442525307E+03  0.25500000000E-02 0.  1.
    5000001    1    1    2    0    0  0.67894510236E+01  0.11967663845E+03 -0.20416773997E+03  0.24896196593E+03  0.77000000000E+02 0.  0.
   -5000001    1    1    2    0    0 -0.67894510236E+01 -0.11967663845E+03 -0.22738759125E+03  0.26833320907E+03  0.77000000000E+02 0.  0.
<mgrwt>
<rscale>  0 0.28522674E+03</rscale>
<asrwt>0</asrwt>
<pdfrwt beam="1">  1        2 0.72988497E-01 0.28522674E+03</pdfrwt>
<pdfrwt beam="2">  1       -2 0.65953729E-02 0.28522674E+03</pdfrwt>
<totfact> 0.84096539E+03</totfact>
</mgrwt>
</event>
<event>
 4    1  0.5980424E-004  0.4179900E+03  0.7818608E-02  0.1037722E+00
         -2   -1    0    0    0  501 -0.00000000000E+00  0.00000000000E+00  0.73142519286E+02  0.73142519330E+02  0.25500000000E-02 0. -1.
          2   -1    0    0  501    0  0.00000000000E+00 -0.00000000000E+00 -0.59717537849E+03  0.59717537850E+03  0.25500000000E-02 0.  1.
    5000001    1    1    2    0    0 -0.13987881909E+03 -0.77866158254E+02 -0.43857083961E+03  0.47318347814E+03  0.77000000000E+02 0.  0.
   -5000001    1    1    2    0    0  0.13987881909E+03  0.77866158254E+02 -0.85462019599E+02  0.19713441969E+03  0.77000000000E+02 0.  0.
<mgrwt>
<rscale>  0 0.41799001E+03</rscale>
<asrwt>0</asrwt>
<pdfrwt beam="1">  1        2 0.91873132E-01 0.41799001E+03</pdfrwt>
<pdfrwt beam="2">  1       -2 0.11252696E-01 0.41799001E+03</pdfrwt>
<totfact> 0.28006075E+03</totfact>
</mgrwt>
</event>
<event>
 4    1  0.5980424E-004  0.2004945E+03  0.7818608E-02  0.1149323E+00
          2   -1    0    0  501    0  0.00000000000E+00  0.00000000000E+00  0.95821849953E+01  0.95821853346E+01  0.25500000000E-02 0.  1.
         -2   -1    0    0    0  501 -0.00000000000E+00 -0.00000000000E+00 -0.10487697891E+04  0.10487697891E+04  0.25500000000E-02 0. -1.
    5000001    1    1    2    0    0 -0.45790084626E+02 -0.34769638320E+02 -0.67027731113E+03  0.67713095736E+03  0.77000000000E+02 0.  0.
   -5000001    1    1    2    0    0  0.45790084626E+02  0.34769638320E+02 -0.36891029296E+03  0.38122101706E+03  0.77000000000E+02 0.  0.
<mgrwt>
<rscale>  0 0.20049445E+03</rscale>
<asrwt>0</asrwt>
<pdfrwt beam="1">  1        2 0.14741832E-02 0.20049445E+03</pdfrwt>
<pdfrwt beam="2">  1       -2 0.16134911E+00 0.20049445E+03</pdfrwt>
<totfact> 0.21557072E+03</totfact>
</mgrwt>
</event>
<event>
 4    1  0.5980424E-004  0.3335633E+03  0.7818608E-02  0.1069571E+00
          2   -1    0    0  501    0  0.00000000000E+00  0.00000000000E+00  0.44895239299E+02  0.44895239371E+02  0.25500000000E-02 0.  1.
         -2   -1    0    0    0  501 -0.00000000000E+00 -0.00000000000E+00 -0.61957846350E+03  0.61957846350E+03  0.25500000000E-02 0. -1.
    5000001    1    1    2    0    0  0.89458732584E+02 -0.93505330276E+02 -0.43017304720E+03  0.45576744307E+03  0.77000000000E+02 0.  0.
   -5000001    1    1    2    0    0 -0.89458732584E+02  0.93505330276E+02 -0.14451017700E+03  0.20870625981E+03  0.77000000000E+02 0.  0.
<mgrwt>
<rscale>  0 0.33356333E+03</rscale>
<asrwt>0</asrwt>
<pdfrwt beam="1">  1        2 0.69069604E-02 0.33356333E+03</pdfrwt>
<pdfrwt beam="2">  1       -2 0.95319757E-01 0.33356333E+03</pdfrwt>
<totfact> 0.98981989E+02</totfact>
</mgrwt>
</event>
<event>
 4    1  0.5980424E-004  0.1947725E+03  0.7818608E-02  0.1154226E+00
         -2   -1    0    0    0  501 -0.00000000000E+00  0.00000000000E+00  0.31653796011E+02  0.31653796114E+02  0.25500000000E-02 0. -1.
          2   -1    0    0  501    0  0.00000000000E+00 -0.00000000000E+00 -0.29961894269E+03  0.29961894270E+03  0.25500000000E-02 0.  1.
    5000001    1    1    2    0    0  0.47227154162E+02  0.32067399435E+02 -0.10470304410E+03  0.14195227945E+03  0.77000000000E+02 0.  0.
   -5000001    1    1    2    0    0 -0.47227154162E+02 -0.32067399435E+02 -0.16326210258E+03  0.18932045937E+03  0.77000000000E+02 0.  0.
<mgrwt>
<rscale>  0 0.19477245E+03</rscale>
<asrwt>0</asrwt>
<pdfrwt beam="1">  1        2 0.46095220E-01 0.19477245E+03</pdfrwt>
<pdfrwt beam="2">  1       -2 0.48698150E-02 0.19477245E+03</pdfrwt>
<totfact> 0.21518168E+04</totfact>
</mgrwt>
</event>
<event>
 4    1  0.5980424E-004  0.4152276E+03  0.7818608E-02  0.1038631E+00
         -2   -1    0    0    0  501 -0.00000000000E+00  0.00000000000E+00  0.40420414956E+02  0.40420415036E+02  0.25500000000E-02 0. -1.
          2   -1    0    0  501    0  0.00000000000E+00 -0.00000000000E+00 -0.10663792489E+04  0.10663792489E+04  0.25500000000E-02 0.  1.
    5000001    1    1    2    0    0  0.10193119573E+03  0.12613769280E+03 -0.23502500114E+03  0.29574725251E+03  0.77000000000E+02 0.  0.
   -5000001    1    1    2    0    0 -0.10193119573E+03 -0.12613769280E+03 -0.79093383284E+03  0.81105241146E+03  0.77000000000E+02 0.  0.
<mgrwt>
<rscale>  0 0.41522761E+03</rscale>
<asrwt>0</asrwt>
<pdfrwt beam="1">  1        2 0.16405832E+00 0.41522761E+03</pdfrwt>
<pdfrwt beam="2">  1       -2 0.62185262E-02 0.41522761E+03</pdfrwt>
<totfact> 0.33620910E+03</totfact>
</mgrwt>
</event>
<event>
 4    1  0.5980424E-004  0.4498689E+03  0.7818608E-02  0.1027761E+00
         -2   -1    0    0    0  501 -0.00000000000E+00  0.00000000000E+00  0.48462241872E+02  0.48462241939E+02  0.25500000000E-02 0. -1.
          2   -1    0    0  501    0  0.00000000000E+00 -0.00000000000E+00 -0.10440189495E+04  0.10440189495E+04  0.25500000000E-02 0.  1.
    5000001    1    1    2    0    0  0.13572398133E+03 -0.14395688521E+03 -0.67823500324E+03  0.71068720513E+03  0.77000000000E+02 0.  0.
   -5000001    1    1    2    0    0 -0.13572398133E+03  0.14395688521E+03 -0.31732170435E+03  0.38179398628E+03  0.77000000000E+02 0.  0.
<mgrwt>
<rscale>  0 0.44986886E+03</rscale>
<asrwt>0</asrwt>
<pdfrwt beam="1">  1        2 0.16061828E+00 0.44986886E+03</pdfrwt>
<pdfrwt beam="2">  1       -2 0.74557303E-02 0.44986886E+03</pdfrwt>
<totfact> 0.26116105E+03</totfact>
</mgrwt>
</event>
<event>
 4    1  0.5980424E-004  0.2503974E+03  0.7818608E-02  0.1113054E+00
         -2   -1    0    0    0  501 -0.00000000000E+00  0.00000000000E+00  0.28450192638E+02  0.28450192752E+02  0.25500000000E-02 0. -1.
          2   -1    0    0  501    0  0.00000000000E+00 -0.00000000000E+00 -0.55095297666E+03  0.55095297667E+03  0.25500000000E-02 0.  1.
    5000001    1    1    2    0    0 -0.68651740927E+02  0.16808943423E+02 -0.10177253417E+03  0.14588437484E+03  0.77000000000E+02 0.  0.
   -5000001    1    1    2    0    0  0.68651740927E+02 -0.16808943423E+02 -0.42073024986E+03  0.43351879458E+03  0.77000000000E+02 0.  0.
<mgrwt>
<rscale>  0 0.25039743E+03</rscale>
<asrwt>0</asrwt>
<pdfrwt beam="1">  1        2 0.84761989E-01 0.25039743E+03</pdfrwt>
<pdfrwt beam="2">  1       -2 0.43769531E-02 0.25039743E+03</pdfrwt>
<totfact> 0.13215472E+04</totfact>
</mgrwt>
</event>
<event>
 4    1  0.5980424E-004  0.4995267E+03  0.7818608E-02  0.1013903E+00
         -2   -1    0    0    0  501 -0.00000000000E+00  0.00000000000E+00  0.64142174468E+02  0.64142174519E+02  0.25500000000E-02 0. -1.
          2   -1    0    0  501    0  0.00000000000E+00 -0.00000000000E+00 -0.97255385282E+03  0.97255385283E+03  0.25500000000E-02 0.  1.
    5000001    1    1    2    0    0  0.22919451359E+03  0.10578722962E+02 -0.32609252498E+03  0.40608788370E+03  0.77000000000E+02 0.  0.
   -5000001    1    1    2    0    0 -0.22919451359E+03 -0.10578722962E+02 -0.58231915338E+03  0.63060814365E+03  0.77000000000E+02 0.  0.
<mgrwt>
<rscale>  0 0.49952665E+03</rscale>
<asrwt>0</asrwt>
<pdfrwt beam="1">  1        2 0.14962366E+00 0.49952665E+03</pdfrwt>
<pdfrwt beam="2">  1       -2 0.98680276E-02 0.49952665E+03</pdfrwt>
<totfact> 0.18509720E+03</totfact>
</mgrwt>
</event>
<event>
 4    1  0.5980424E-004  0.4242004E+03  0.7818608E-02  0.1035708E+00
          2   -1    0    0  501    0  0.00000000000E+00  0.00000000000E+00  0.17872727979E+03  0.17872727980E+03  0.25500000000E-02 0.  1.
         -2   -1    0    0    0  501 -0.00000000000E+00 -0.00000000000E+00 -0.25170469236E+03  0.25170469237E+03  0.25500000000E-02 0. -1.
    5000001    1    1    2    0    0  0.10144819857E+02 -0.16253418205E+03  0.77125862584E+02  0.19595325050E+03  0.77000000000E+02 0.  0.
   -5000001    1    1    2    0    0 -0.10144819857E+02  0.16253418205E+03 -0.15010327515E+03  0.23447872167E+03  0.77000000000E+02 0.  0.
<mgrwt>
<rscale>  0 0.42420040E+03</rscale>
<asrwt>0</asrwt>
<pdfrwt beam="1">  1        2 0.27496504E-01 0.42420040E+03</pdfrwt>
<pdfrwt beam="2">  1       -2 0.38723799E-01 0.42420040E+03</pdfrwt>
<totfact> 0.12345390E+03</totfact>
</mgrwt>
</event>
<event>
 4    1  0.5980424E-004  0.2565371E+03  0.7818608E-02  0.1109242E+00
         -2   -1    0    0    0  501 -0.00000000000E+00  0.00000000000E+00  0.20195182659E+03  0.20195182660E+03  0.25500000000E-02 0. -1.
          2   -1    0    0  501    0  0.00000000000E+00 -0.00000000000E+00 -0.81469059624E+02  0.81469059664E+02  0.25500000000E-02 0.  1.
    5000001    1    1    2    0    0  0.10080316636E+03  0.86958098891E+01  0.78955509710E+02  0.14966585439E+03  0.77000000000E+02 0.  0.
   -5000001    1    1    2    0    0 -0.10080316636E+03 -0.86958098891E+01  0.41527257252E+02  0.13375503187E+03  0.77000000000E+02 0.  0.
<mgrwt>
<rscale>  0 0.25653714E+03</rscale>
<asrwt>0</asrwt>
<pdfrwt beam="1">  1        2 0.12533702E-01 0.25653714E+03</pdfrwt>
<pdfrwt beam="2">  1       -2 0.31069511E-01 0.25653714E+03</pdfrwt>
<totfact> 0.45998294E+03</totfact>
</mgrwt>
</event>
<event>
 4    1  0.5980424E-004  0.1784625E+03  0.7818608E-02  0.1169299E+00
          2   -1    0    0  501    0  0.00000000000E+00  0.00000000000E+00  0.82987434485E+01  0.82987438403E+01  0.25500000000E-02 0.  1.
         -2   -1    0    0    0  501 -0.00000000000E+00 -0.00000000000E+00 -0.95944875392E+03  0.95944875393E+03  0.25500000000E-02 0. -1.
    5000001    1    1    2    0    0 -0.21164584313E+02  0.41137534839E+01 -0.69032710099E+03  0.69494270912E+03  0.77000000000E+02 0.  0.
   -5000001    1    1    2    0    0  0.21164584313E+02 -0.41137534839E+01 -0.26082290948E+03  0.27280478864E+03  0.77000000000E+02 0.  0.
<mgrwt>
<rscale>  0 0.17846254E+03</rscale>
<asrwt>0</asrwt>
<pdfrwt beam="1">  1        2 0.12767306E-02 0.17846254E+03</pdfrwt>
<pdfrwt beam="2">  1       -2 0.14760741E+00 0.17846254E+03</pdfrwt>
<totfact> 0.32896541E+03</totfact>
</mgrwt>
</event>
<event>
 4    1  0.5980424E-004  0.1739728E+03  0.7818608E-02  0.1173767E+00
          2   -1    0    0  501    0  0.00000000000E+00  0.00000000000E+00  0.36622938576E+02  0.36622938665E+02  0.25500000000E-02 0.  1.
         -2   -1    0    0    0  501 -0.00000000000E+00 -0.00000000000E+00 -0.20660911518E+03  0.20660911520E+03  0.25500000000E-02 0. -1.
    5000001    1    1    2    0    0  0.27564479860E+02  0.20898219252E+02 -0.55629681231E+02  0.10109499271E+03  0.77000000000E+02 0.  0.
   -5000001    1    1    2    0    0 -0.27564479860E+02 -0.20898219252E+02 -0.11435649538E+03  0.14213706115E+03  0.77000000000E+02 0.  0.
<mgrwt>
<rscale>  0 0.17397279E+03</rscale>
<asrwt>0</asrwt>
<pdfrwt beam="1">  1        2 0.56342984E-02 0.17397279E+03</pdfrwt>
<pdfrwt beam="2">  1       -2 0.31786017E-01 0.17397279E+03</pdfrwt>
<totfact> 0.11792170E+04</totfact>
</mgrwt>
</event>
<event>
 4    1  0.5980424E-004  0.2004599E+03  0.7818608E-02  0.1149352E+00
          2   -1    0    0  501    0  0.00000000000E+00  0.00000000000E+00  0.34040806096E+03  0.34040806097E+03  0.25500000000E-02 0.  1.
         -2   -1    0    0    0  501 -0.00000000000E+00 -0.00000000000E+00 -0.29511761356E+02  0.29511761466E+02  0.25500000000E-02 0. -1.
    5000001    1    1    2    0    0 -0.46277735405E+02 -0.31392107573E+02  0.21350939893E+03  0.23375704619E+03  0.77000000000E+02 0.  0.
   -5000001    1    1    2    0    0  0.46277735405E+02  0.31392107573E+02  0.97386900675E+02  0.13616277625E+03  0.77000000000E+02 0.  0.
<mgrwt>
<rscale>  0 0.20045989E+03</rscale>
<asrwt>0</asrwt>
<pdfrwt beam="1">  1        2 0.52370473E-01 0.20045989E+03</pdfrwt>
<pdfrwt beam="2">  1       -2 0.45402708E-02 0.20045989E+03</pdfrwt>
<totfact> 0.20908182E+04</totfact>
</mgrwt>
</event>
<event>
 4    1  0.5980424E-004  0.3685610E+03  0.7818608E-02  0.1055245E+00
         -2   -1    0    0    0  501 -0.00000000000E+00  0.00000000000E+00  0.39831724829E+02  0.39831724910E+02  0.25500000000E-02 0. -1.
          2   -1    0    0  501    0  0.00000000000E+00 -0.00000000000E+00 -0.85256903667E+03  0.85256903667E+03  0.25500000000E-02 0.  1.
    5000001    1    1    2    0    0 -0.10786085657E+03  0.12569214225E+03 -0.34716691497E+03  0.39228350189E+03  0.77000000000E+02 0.  0.
   -5000001    1    1    2    0    0  0.10786085657E+03 -0.12569214225E+03 -0.46557039686E+03  0.50011725969E+03  0.77000000000E+02 0.  0.
<mgrwt>
<rscale>  0 0.36856096E+03</rscale>
<asrwt>0</asrwt>
<pdfrwt beam="1">  1        2 0.13116445E+00 0.36856096E+03</pdfrwt>
<pdfrwt beam="2">  1       -2 0.61279583E-02 0.36856096E+03</pdfrwt>
<totfact> 0.47002607E+03</totfact>
</mgrwt>
</event>
<event>
 4    1  0.5980424E-004  0.3429333E+03  0.7818608E-02  0.1065553E+00
         -2   -1    0    0    0  501 -0.00000000000E+00  0.00000000000E+00  0.67052842603E+03  0.67052842603E+03  0.25500000000E-02 0. -1.
          2   -1    0    0  501    0  0.00000000000E+00 -0.00000000000E+00 -0.43847238681E+02  0.43847238755E+02  0.25500000000E-02 0.  1.
    5000001    1    1    2    0    0  0.10910236322E+03 -0.44424461094E+02  0.10928967493E+03  0.17818555342E+03  0.77000000000E+02 0.  0.
   -5000001    1    1    2    0    0 -0.10910236322E+03  0.44424461094E+02  0.51739151241E+03  0.53619011136E+03  0.77000000000E+02 0.  0.
<mgrwt>
<rscale>  0 0.34293335E+03</rscale>
<asrwt>0</asrwt>
<pdfrwt beam="1">  1        2 0.67457294E-02 0.34293335E+03</pdfrwt>
<pdfrwt beam="2">  1       -2 0.10315821E+00 0.34293335E+03</pdfrwt>
<totfact> 0.84937950E+02</totfact>
</mgrwt>
</event>
<event>
 4    1  0.5980424E-004  0.2083159E+03  0.7818608E-02  0.1142907E+00
          2   -1    0    0  501    0  0.00000000000E+00  0.00000000000E+00  0.17015480069E+04  0.17015480069E+04  0.25500000000E-02 0.  1.
         -2   -1    0    0    0  501 -0.00000000000E+00 -0.00000000000E+00 -0.63758897184E+01  0.63758902284E+01  0.25500000000E-02 0. -1.
    5000001    1    1    2    0    0  0.44191127062E+02  0.53201630028E+02  0.94341422657E+03  0.94907463987E+03  0.77000000000E+02 0.  0.
   -5000001    1    1    2    0    0 -0.44191127062E+02 -0.53201630028E+02  0.75175789062E+03  0.75884925727E+03  0.77000000000E+02 0.  0.
<mgrwt>
<rscale>  0 0.20831594E+03</rscale>
<asrwt>0</asrwt>
<pdfrwt beam="1">  1        2 0.26177687E+00 0.20831594E+03</pdfrwt>
<pdfrwt beam="2">  1       -2 0.98090520E-03 0.20831594E+03</pdfrwt>
<totfact> 0.23097821E+04</totfact>
</mgrwt>
</event>
<event>
 4    1  0.5980424E-004  0.2471197E+03  0.7818608E-02  0.1115139E+00
         -2   -1    0    0    0  501 -0.00000000000E+00  0.00000000000E+00  0.44741298235E+02  0.44741298308E+02  0.25500000000E-02 0. -1.
          2   -1    0    0  501    0  0.00000000000E+00 -0.00000000000E+00 -0.34122906047E+03  0.34122906048E+03  0.25500000000E-02 0.  1.
    5000001    1    1    2    0    0  0.87620407535E+02 -0.20958658905E+02 -0.93657921576E+02  0.15105431961E+03  0.77000000000E+02 0.  0.
   -5000001    1    1    2    0    0 -0.87620407535E+02  0.20958658905E+02 -0.20282984066E+03  0.23491603917E+03  0.77000000000E+02 0.  0.
<mgrwt>
<rscale>  0 0.24711966E+03</rscale>
<asrwt>0</asrwt>
<pdfrwt beam="1">  1        2 0.52496777E-01 0.24711966E+03</pdfrwt>
<pdfrwt beam="2">  1       -2 0.68832769E-02 0.24711966E+03</pdfrwt>
<totfact> 0.11204586E+04</totfact>
</mgrwt>
</event>
<event>
 4    1  0.5980424E-004  0.1861323E+03  0.7818608E-02  0.1161997E+00
         -2   -1    0    0    0  501 -0.00000000000E+00  0.00000000000E+00  0.72328432394E+01  0.72328436889E+01  0.25500000000E-02 0. -1.
          2   -1    0    0  501    0  0.00000000000E+00 -0.00000000000E+00 -0.11974967445E+04  0.11974967445E+04  0.25500000000E-02 0.  1.
    5000001    1    1    2    0    0 -0.19087649582E+02  0.33686074992E+02 -0.82242572423E+03  0.82692935726E+03  0.77000000000E+02 0.  0.
   -5000001    1    1    2    0    0  0.19087649582E+02 -0.33686074992E+02 -0.36783817705E+03  0.37780023096E+03  0.77000000000E+02 0.  0.
<mgrwt>
<rscale>  0 0.18613228E+03</rscale>
<asrwt>0</asrwt>
<pdfrwt beam="1">  1        2 0.18423011E+00 0.18613228E+03</pdfrwt>
<pdfrwt beam="2">  1       -2 0.11127461E-02 0.18613228E+03</pdfrwt>
<totfact> 0.35610354E+04</totfact>
</mgrwt>
</event>
<event>
 4    1  0.5980424E-004  0.2119056E+03  0.7818608E-02  0.1140066E+00
          2   -1    0    0  501    0  0.00000000000E+00  0.00000000000E+00  0.30624211200E+03  0.30624211202E+03  0.25500000000E-02 0.  1.
         -2   -1    0    0    0  501 -0.00000000000E+00 -0.00000000000E+00 -0.36657251434E+02  0.36657251523E+02  0.25500000000E-02 0. -1.
    5000001    1    1    2    0    0 -0.36814013033E+02 -0.53957830576E+02  0.82852558171E+02  0.13061495103E+03  0.77000000000E+02 0.  0.
   -5000001    1    1    2    0    0  0.36814013033E+02  0.53957830576E+02  0.18673230240E+03  0.21228441251E+03  0.77000000000E+02 0.  0.
<mgrwt>
<rscale>  0 0.21190558E+03</rscale>
<asrwt>0</asrwt>
<pdfrwt beam="1">  1        2 0.47114168E-01 0.21190558E+03</pdfrwt>
<pdfrwt beam="2">  1       -2 0.56395775E-02 0.21190558E+03</pdfrwt>
<totfact> 0.16929036E+04</totfact>
</mgrwt>
</event>
<event>
 4    1  0.5980424E-004  0.2405801E+03  0.7818608E-02  0.1119407E+00
         -2   -1    0    0    0  501 -0.00000000000E+00  0.00000000000E+00  0.18398299083E+02  0.18398299260E+02  0.25500000000E-02 0. -1.
          2   -1    0    0  501    0  0.00000000000E+00 -0.00000000000E+00 -0.78646944078E+03  0.78646944079E+03  0.25500000000E-02 0.  1.
    5000001    1    1    2    0    0  0.14569056923E+02 -0.71511108337E+02 -0.19435253014E+03  0.22142267726E+03  0.77000000000E+02 0.  0.
   -5000001    1    1    2    0    0 -0.14569056923E+02  0.71511108337E+02 -0.57371861156E+03  0.58344506278E+03  0.77000000000E+02 0.  0.
<mgrwt>
<rscale>  0 0.24058013E+03</rscale>
<asrwt>0</asrwt>
<pdfrwt beam="1">  1        2 0.12099527E+00 0.24058013E+03</pdfrwt>
<pdfrwt beam="2">  1       -2 0.28305082E-02 0.24058013E+03</pdfrwt>
<totfact> 0.16560039E+04</totfact>
</mgrwt>
</event>
<event>
 4    1  0.5980424E-004  0.2592091E+03  0.7818608E-02  0.1107619E+00
         -2   -1    0    0    0  501 -0.00000000000E+00  0.00000000000E+00  0.60765279291E+03  0.60765279292E+03  0.25500000000E-02 0. -1.
          2   -1    0    0  501    0  0.00000000000E+00 -0.00000000000E+00 -0.27642990801E+02  0.27642990919E+02  0.25500000000E-02 0.  1.
    5000001    1    1    2    0    0 -0.84957038691E+02 -0.57129587256E+02  0.24179920216E+03  0.27363724587E+03  0.77000000000E+02 0.  0.
   -5000001    1    1    2    0    0  0.84957038691E+02  0.57129587256E+02  0.33821059995E+03  0.36165853796E+03  0.77000000000E+02 0.  0.
<mgrwt>
<rscale>  0 0.25920911E+03</rscale>
<asrwt>0</asrwt>
<pdfrwt beam="1">  1        2 0.42527681E-02 0.25920911E+03</pdfrwt>
<pdfrwt beam="2">  1       -2 0.93485040E-01 0.25920911E+03</pdfrwt>
<totfact> 0.19488269E+03</totfact>
</mgrwt>
</event>
<event>
 4    1  0.5980424E-004  0.3639782E+03  0.7818608E-02  0.1057020E+00
         -2   -1    0    0    0  501 -0.00000000000E+00  0.00000000000E+00  0.25179070911E+03  0.25179070912E+03  0.25500000000E-02 0. -1.
          2   -1    0    0  501    0  0.00000000000E+00 -0.00000000000E+00 -0.13153791274E+03  0.13153791277E+03  0.25500000000E-02 0.  1.
    5000001    1    1    2    0    0  0.15548258498E+03 -0.44539850710E+02  0.93965451252E+02  0.20227985209E+03  0.77000000000E+02 0.  0.
   -5000001    1    1    2    0    0 -0.15548258498E+03  0.44539850710E+02  0.26287345118E+02  0.18104876980E+03  0.77000000000E+02 0.  0.
<mgrwt>
<rscale>  0 0.36397816E+03</rscale>
<asrwt>0</asrwt>
<pdfrwt beam="1">  1        2 0.20236602E-01 0.36397816E+03</pdfrwt>
<pdfrwt beam="2">  1       -2 0.38737032E-01 0.36397816E+03</pdfrwt>
<totfact> 0.17456995E+03</totfact>
</mgrwt>
</event>
<event>
 4    1  0.5980424E-004  0.3005433E+03  0.7818608E-02  0.1084969E+00
         -2   -1    0    0    0  501 -0.00000000000E+00  0.00000000000E+00  0.52030674068E+03  0.52030674069E+03  0.25500000000E-02 0. -1.
          2   -1    0    0  501    0  0.00000000000E+00 -0.00000000000E+00 -0.43400501885E+02  0.43400501960E+02  0.25500000000E-02 0.  1.
    5000001    1    1    2    0    0  0.12749236689E+03  0.16338398062E+01  0.27575880426E+03  0.31341488666E+03  0.77000000000E+02 0.  0.
   -5000001    1    1    2    0    0 -0.12749236689E+03 -0.16338398062E+01  0.20114743453E+03  0.25029235599E+03  0.77000000000E+02 0.  0.
<mgrwt>
<rscale>  0 0.30054333E+03</rscale>
<asrwt>0</asrwt>
<pdfrwt beam="1">  1        2 0.66770000E-02 0.30054333E+03</pdfrwt>
<pdfrwt beam="2">  1       -2 0.80047194E-01 0.30054333E+03</pdfrwt>
<totfact> 0.15305463E+03</totfact>
</mgrwt>
</event>
<event>
 4    1  0.5980424E-004  0.2684280E+03  0.7818608E-02  0.1102183E+00
         -2   -1    0    0    0  501 -0.00000000000E+00  0.00000000000E+00  0.87153978449E+01  0.87153982179E+01  0.25500000000E-02 0. -1.
          2   -1    0    0  501    0  0.00000000000E+00 -0.00000000000E+00 -0.20668470752E+04  0.20668470752E+04  0.25500000000E-02 0.  1.
    5000001    1    1    2    0    0  0.10783564378E+03 -0.73888949279E+01 -0.87417417304E+03  0.88419036788E+03  0.77000000000E+02 0.  0.
   -5000001    1    1    2    0    0 -0.10783564378E+03  0.73888949279E+01 -0.11839575043E+04  0.11913721056E+04  0.77000000000E+02 0.  0.
<mgrwt>
<rscale>  0 0.26842798E+03</rscale>
<asrwt>0</asrwt>
<pdfrwt beam="1">  1        2 0.31797608E+00 0.26842798E+03</pdfrwt>
<pdfrwt beam="2">  1       -2 0.13408321E-02 0.26842798E+03</pdfrwt>
<totfact> 0.95205264E+03</totfact>
</mgrwt>
</event>
<event>
 4    1  0.5980424E-004  0.4518046E+03  0.7818608E-02  0.1027185E+00
          2   -1    0    0  501    0  0.00000000000E+00  0.00000000000E+00  0.70890535539E+03  0.70890535539E+03  0.25500000000E-02 0.  1.
         -2   -1    0    0    0  501 -0.00000000000E+00 -0.00000000000E+00 -0.71986828625E+02  0.71986828670E+02  0.25500000000E-02 0. -1.
    5000001    1    1    2    0    0 -0.63496048047E+02 -0.58923624286E+02 -0.16682997171E+02  0.11709425268E+03  0.77000000000E+02 0.  0.
   -5000001    1    1    2    0    0  0.63496048047E+02  0.58923624286E+02  0.65360152393E+03  0.66379793138E+03  0.77000000000E+02 0.  0.
<mgrwt>
<rscale>  0 0.45180460E+03</rscale>
<asrwt>0</asrwt>
<pdfrwt beam="1">  1        2 0.10906237E+00 0.45180460E+03</pdfrwt>
<pdfrwt beam="2">  1       -2 0.11074896E-01 0.45180460E+03</pdfrwt>
<totfact> 0.23363202E+03</totfact>
</mgrwt>
</event>
<event>
 4    1  0.5980424E-004  0.5498770E+03  0.7818608E-02  0.1001522E+00
          2   -1    0    0  501    0  0.00000000000E+00  0.00000000000E+00  0.43301675457E+02  0.43301675532E+02  0.25500000000E-02 0.  1.
         -2   -1    0    0    0  501 -0.00000000000E+00 -0.00000000000E+00 -0.17456873026E+04  0.17456873026E+04  0.25500000000E-02 0. -1.
    5000001    1    1    2    0    0  0.25215668777E+03 -0.11212277509E+02 -0.60016181716E+03  0.65561567792E+03  0.77000000000E+02 0.  0.
   -5000001    1    1    2    0    0 -0.25215668777E+03  0.11212277509E+02 -0.11022238100E+04  0.11333733003E+04  0.77000000000E+02 0.  0.
<mgrwt>
<rscale>  0 0.54987702E+03</rscale>
<asrwt>0</asrwt>
<pdfrwt beam="1">  1        2 0.66617976E-02 0.54987702E+03</pdfrwt>
<pdfrwt beam="2">  1       -2 0.26856722E+00 0.54987702E+03</pdfrwt>
<totfact> 0.58466087E+01</totfact>
</mgrwt>
</event>
<event>
 4    1  0.5980424E-004  0.3987527E+03  0.7818608E-02  0.1044212E+00
          2   -1    0    0  501    0  0.00000000000E+00  0.00000000000E+00  0.13531771975E+04  0.13531771975E+04  0.25500000000E-02 0.  1.
         -2   -1    0    0    0  501 -0.00000000000E+00 -0.00000000000E+00 -0.29375997946E+02  0.29375998056E+02  0.25500000000E-02 0. -1.
    5000001    1    1    2    0    0  0.18164316147E+03 -0.19564855312E+02  0.58876753238E+03  0.62125134113E+03  0.77000000000E+02 0.  0.
   -5000001    1    1    2    0    0 -0.18164316147E+03  0.19564855312E+02  0.73503366713E+03  0.76130185438E+03  0.77000000000E+02 0.  0.
<mgrwt>
<rscale>  0 0.39875271E+03</rscale>
<asrwt>0</asrwt>
<pdfrwt beam="1">  1        2 0.20818107E+00 0.39875271E+03</pdfrwt>
<pdfrwt beam="2">  1       -2 0.45193851E-02 0.39875271E+03</pdfrwt>
<totfact> 0.37536967E+03</totfact>
</mgrwt>
</event>
<event>
 4    1  0.5980424E-004  0.2598146E+03  0.7818608E-02  0.1107255E+00
         -2   -1    0    0    0  501 -0.00000000000E+00  0.00000000000E+00  0.44671301732E+03  0.44671301733E+03  0.25500000000E-02 0. -1.
          2   -1    0    0  501    0  0.00000000000E+00 -0.00000000000E+00 -0.37777946470E+02  0.37777946556E+02  0.25500000000E-02 0.  1.
    5000001    1    1    2    0    0 -0.39375848534E+02  0.57043246384E+02  0.35061631131E+03  0.36560249884E+03  0.77000000000E+02 0.  0.
   -5000001    1    1    2    0    0  0.39375848534E+02 -0.57043246384E+02  0.58318759548E+02  0.11888846505E+03  0.77000000000E+02 0.  0.
<mgrwt>
<rscale>  0 0.25981455E+03</rscale>
<asrwt>0</asrwt>
<pdfrwt beam="1">  1        2 0.58119919E-02 0.25981455E+03</pdfrwt>
<pdfrwt beam="2">  1       -2 0.68725079E-01 0.25981455E+03</pdfrwt>
<totfact> 0.25426769E+03</totfact>
</mgrwt>
</event>
<event>
 4    1  0.5980424E-004  0.2055796E+03  0.7818608E-02  0.1145115E+00
         -2   -1    0    0    0  501 -0.00000000000E+00  0.00000000000E+00  0.78624627718E+01  0.78624631853E+01  0.25500000000E-02 0.  1.
          2   -1    0    0  501    0  0.00000000000E+00 -0.00000000000E+00 -0.13438215249E+04  0.13438215249E+04  0.25500000000E-02 0. -1.
    5000001    1    1    2    0    0 -0.56541619222E+02  0.36509880503E+02 -0.60002424978E+03  0.60867727607E+03  0.77000000000E+02 0.  0.
   -5000001    1    1    2    0    0  0.56541619222E+02 -0.36509880503E+02 -0.73593481232E+03  0.74300671199E+03  0.77000000000E+02 0.  0.
<mgrwt>
<rscale>  0 0.20557964E+03</rscale>
<asrwt>0</asrwt>
<pdfrwt beam="1">  1        2 0.20674159E+00 0.20557964E+03</pdfrwt>
<pdfrwt beam="2">  1       -2 0.12096108E-02 0.20557964E+03</pdfrwt>
<totfact> 0.26376343E+04</totfact>
</mgrwt>
</event>
<event>
 4    1  0.5980424E-004  0.2231432E+03  0.7818608E-02  0.1131561E+00
          2   -1    0    0  501    0  0.00000000000E+00  0.00000000000E+00  0.68374771589E+03  0.68374771589E+03  0.25500000000E-02 0.  1.
         -2   -1    0    0    0  501 -0.00000000000E+00 -0.00000000000E+00 -0.18205877574E+02  0.18205877753E+02  0.25500000000E-02 0. -1.
    5000001    1    1    2    0    0 -0.71756262411E+02  0.23520423735E+02  0.42268971768E+03  0.43623132506E+03  0.77000000000E+02 0.  0.
   -5000001    1    1    2    0    0  0.71756262411E+02 -0.23520423735E+02  0.24285212063E+03  0.26572226858E+03  0.77000000000E+02 0.  0.
<mgrwt>
<rscale>  0 0.22314325E+03</rscale>
<asrwt>0</asrwt>
<pdfrwt beam="1">  1        2 0.10519195E+00 0.22314325E+03</pdfrwt>
<pdfrwt beam="2">  1       -2 0.28009043E-02 0.22314325E+03</pdfrwt>
<totfact> 0.19890233E+04</totfact>
</mgrwt>
</event>
<event>
 4    1  0.5980424E-004  0.3643276E+03  0.7818608E-02  0.1056883E+00
         -2   -1    0    0    0  501 -0.00000000000E+00  0.00000000000E+00  0.16822667234E+02  0.16822667427E+02  0.25500000000E-02 0. -1.
          2   -1    0    0  501    0  0.00000000000E+00 -0.00000000000E+00 -0.19725562502E+04  0.19725562502E+04  0.25500000000E-02 0.  1.
    5000001    1    1    2    0    0  0.15840212655E+03 -0.42873198534E+02 -0.10763531153E+04  0.10915101345E+04  0.77000000000E+02 0.  0.
   -5000001    1    1    2    0    0 -0.15840212655E+03  0.42873198534E+02 -0.87938046757E+03  0.89786878306E+03  0.77000000000E+02 0.  0.
<mgrwt>
<rscale>  0 0.36432764E+03</rscale>
<asrwt>0</asrwt>
<pdfrwt beam="1">  1        2 0.30347001E+00 0.36432764E+03</pdfrwt>
<pdfrwt beam="2">  1       -2 0.25881042E-02 0.36432764E+03</pdfrwt>
<totfact> 0.40471371E+03</totfact>
</mgrwt>
</event>
<event>
 4    1  0.5980424E-004  0.5387280E+03  0.7818608E-02  0.1004137E+00
         -2   -1    0    0    0  501 -0.00000000000E+00  0.00000000000E+00  0.18397351118E+02  0.18397351295E+02  0.25500000000E-02 0. -1.
          2   -1    0    0  501    0  0.00000000000E+00 -0.00000000000E+00 -0.39438803976E+04  0.39438803976E+04  0.25500000000E-02 0.  1.
    5000001    1    1    2    0    0  0.42064054561E+01  0.21879965971E+03 -0.95598359535E+03  0.98372995254E+03  0.77000000000E+02 0.  0.
   -5000001    1    1    2    0    0 -0.42064054561E+01 -0.21879965971E+03 -0.29694994511E+04  0.29785477963E+04  0.77000000000E+02 0.  0.
<mgrwt>
<rscale>  0 0.53872796E+03</rscale>
<asrwt>0</asrwt>
<pdfrwt beam="1">  1        2 0.60675016E+00 0.53872796E+03</pdfrwt>
<pdfrwt beam="2">  1       -2 0.28303649E-02 0.53872796E+03</pdfrwt>
<totfact> 0.21337145E+02</totfact>
</mgrwt>
</event>
<event>
 4    1  0.5980424E-004  0.1956337E+03  0.7818608E-02  0.1153476E+00
         -2   -1    0    0    0  501 -0.00000000000E+00  0.00000000000E+00  0.52628215508E+01  0.52628221685E+01  0.25500000000E-02 0. -1.
          2   -1    0    0  501    0  0.00000000000E+00 -0.00000000000E+00 -0.18180624875E+04  0.18180624875E+04  0.25500000000E-02 0.  1.
    5000001    1    1    2    0    0  0.43600521516E+02 -0.40658174863E+02 -0.99235030268E+03  0.99711695196E+03  0.77000000000E+02 0.  0.
   -5000001    1    1    2    0    0 -0.43600521516E+02  0.40658174863E+02 -0.82044936331E+03  0.82620835775E+03  0.77000000000E+02 0.  0.
<mgrwt>
<rscale>  0 0.19563373E+03</rscale>
<asrwt>0</asrwt>
<pdfrwt beam="1">  1        2 0.27970142E+00 0.19563373E+03</pdfrwt>
<pdfrwt beam="2">  1       -2 0.80966635E-03 0.19563373E+03</pdfrwt>
<totfact> 0.26407820E+04</totfact>
</mgrwt>
</event>
<event>
 4    1  0.5980424E-004  0.2082566E+03  0.7818608E-02  0.1142954E+00
         -2   -1    0    0    0  501 -0.00000000000E+00  0.00000000000E+00  0.59963685108E+01  0.59963690530E+01  0.25500000000E-02 0. -1.
          2   -1    0    0  501    0  0.00000000000E+00 -0.00000000000E+00 -0.18082121911E+04  0.18082121911E+04  0.25500000000E-02 0.  1.
    5000001    1    1    2    0    0  0.37483364753E+02  0.52929144987E+02 -0.11327740628E+04  0.11372390137E+04  0.77000000000E+02 0.  0.
   -5000001    1    1    2    0    0 -0.37483364753E+02 -0.52929144987E+02 -0.66944175982E+03  0.67696954644E+03  0.77000000000E+02 0.  0.
<mgrwt>
<rscale>  0 0.20825664E+03</rscale>
<asrwt>0</asrwt>
<pdfrwt beam="1">  1        2 0.27818606E+00 0.20825664E+03</pdfrwt>
<pdfrwt beam="2">  1       -2 0.92251972E-03 0.20825664E+03</pdfrwt>
<totfact> 0.22208011E+04</totfact>
</mgrwt>
</event>
<event>
 4    1  0.5980424E-004  0.2212368E+03  0.7818608E-02  0.1132964E+00
          2   -1    0    0  501    0  0.00000000000E+00  0.00000000000E+00  0.33185840857E+02  0.33185840955E+02  0.25500000000E-02 0.  1.
         -2   -1    0    0    0  501 -0.00000000000E+00 -0.00000000000E+00 -0.36872448047E+03  0.36872448048E+03  0.25500000000E-02 0. -1.
    5000001    1    1    2    0    0 -0.25084433934E+02  0.64512536118E+02 -0.23851003718E+03  0.26001371882E+03  0.77000000000E+02 0.  0.
   -5000001    1    1    2    0    0  0.25084433934E+02 -0.64512536118E+02 -0.97028602440E+02  0.14189660261E+03  0.77000000000E+02 0.  0.
<mgrwt>
<rscale>  0 0.22123681E+03</rscale>
<asrwt>0</asrwt>
<pdfrwt beam="1">  1        2 0.51055142E-02 0.22123681E+03</pdfrwt>
<pdfrwt beam="2">  1       -2 0.56726840E-01 0.22123681E+03</pdfrwt>
<totfact> 0.44658817E+03</totfact>
</mgrwt>
</event>
<event>
 4    1  0.5980424E-004  0.1918560E+03  0.7818608E-02  0.1156798E+00
          2   -1    0    0  501    0  0.00000000000E+00  0.00000000000E+00  0.22188477471E+03  0.22188477473E+03  0.25500000000E-02 0.  1.
         -2   -1    0    0    0  501 -0.00000000000E+00 -0.00000000000E+00 -0.41472774602E+02  0.41472774680E+02  0.25500000000E-02 0. -1.
    5000001    1    1    2    0    0 -0.61933062414E+00 -0.42151926152E+02  0.37112964657E+02  0.95307610370E+02  0.77000000000E+02 0.  0.
   -5000001    1    1    2    0    0  0.61933062414E+00  0.42151926152E+02  0.14329903546E+03  0.16804993904E+03  0.77000000000E+02 0.  0.
<mgrwt>
<rscale>  0 0.19185596E+03</rscale>
<asrwt>0</asrwt>
<pdfrwt beam="1">  1        2 0.34136118E-01 0.19185596E+03</pdfrwt>
<pdfrwt beam="2">  1       -2 0.63804270E-02 0.19185596E+03</pdfrwt>
<totfact> 0.19674171E+04</totfact>
</mgrwt>
</event>
<event>
 4    1  0.5980424E-004  0.3166334E+03  0.7818608E-02  0.1077209E+00
         -2   -1    0    0    0  501 -0.00000000000E+00  0.00000000000E+00  0.41953207831E+02  0.41953207908E+02  0.25500000000E-02 0. -1.
          2   -1    0    0  501    0  0.00000000000E+00 -0.00000000000E+00 -0.59743180959E+03  0.59743180959E+03  0.25500000000E-02 0.  1.
    5000001    1    1    2    0    0 -0.12841218267E+03  0.31872786031E+02 -0.35925637342E+03  0.39051210608E+03  0.77000000000E+02 0.  0.
   -5000001    1    1    2    0    0  0.12841218267E+03 -0.31872786031E+02 -0.19622222833E+03  0.24887291142E+03  0.77000000000E+02 0.  0.
<mgrwt>
<rscale>  0 0.31663342E+03</rscale>
<asrwt>0</asrwt>
<pdfrwt beam="1">  1        2 0.91912580E-01 0.31663342E+03</pdfrwt>
<pdfrwt beam="2">  1       -2 0.64543401E-02 0.31663342E+03</pdfrwt>
<totfact> 0.67124186E+03</totfact>
</mgrwt>
</event>
<event>
 4    1  0.5980424E-004  0.2535517E+03  0.7818608E-02  0.1111081E+00
          2   -1    0    0  501    0  0.00000000000E+00  0.00000000000E+00  0.25774708731E+02  0.25774708857E+02  0.25500000000E-02 0.  1.
         -2   -1    0    0    0  501 -0.00000000000E+00 -0.00000000000E+00 -0.62356137266E+03  0.62356137267E+03  0.25500000000E-02 0. -1.
    5000001    1    1    2    0    0  0.94522072828E+02 -0.63107065400E+01 -0.21133744940E+03  0.24406303445E+03  0.77000000000E+02 0.  0.
   -5000001    1    1    2    0    0 -0.94522072828E+02  0.63107065400E+01 -0.38644921453E+03  0.40527304707E+03  0.77000000000E+02 0.  0.
<mgrwt>
<rscale>  0 0.25355167E+03</rscale>
<asrwt>0</asrwt>
<pdfrwt beam="1">  1        2 0.39653403E-02 0.25355167E+03</pdfrwt>
<pdfrwt beam="2">  1       -2 0.95932507E-01 0.25355167E+03</pdfrwt>
<totfact> 0.20156187E+03</totfact>
</mgrwt>
</event>
<event>
 4    1  0.5980424E-004  0.5472366E+03  0.7818608E-02  0.1002136E+00
         -2   -1    0    0    0  501 -0.00000000000E+00  0.00000000000E+00  0.79881582808E+03  0.79881582809E+03  0.25500000000E-02 0. -1.
          2   -1    0    0  501    0  0.00000000000E+00 -0.00000000000E+00 -0.93722449028E+02  0.93722449063E+02  0.25500000000E-02 0.  1.
    5000001    1    1    2    0    0 -0.17266519225E+03 -0.63304418407E+02  0.65818796758E+03  0.68772168693E+03  0.77000000000E+02 0.  0.
   -5000001    1    1    2    0    0  0.17266519225E+03  0.63304418407E+02  0.46905411473E+02  0.20481659022E+03  0.77000000000E+02 0.  0.
<mgrwt>
<rscale>  0 0.54723661E+03</rscale>
<asrwt>0</asrwt>
<pdfrwt beam="1">  1        2 0.14418839E-01 0.54723661E+03</pdfrwt>
<pdfrwt beam="2">  1       -2 0.12289474E+00 0.54723661E+03</pdfrwt>
<totfact> 0.21355111E+02</totfact>
</mgrwt>
</event>
<event>
 4    1  0.5980424E-004  0.2021149E+03  0.7818608E-02  0.1147967E+00
          2   -1    0    0  501    0  0.00000000000E+00  0.00000000000E+00  0.56891686217E+03  0.56891686217E+03  0.25500000000E-02 0.  1.
         -2   -1    0    0    0  501 -0.00000000000E+00 -0.00000000000E+00 -0.17950968433E+02  0.17950968615E+02  0.25500000000E-02 0. -1.
    5000001    1    1    2    0    0 -0.54951056045E+01 -0.34132784418E+02  0.43684682063E+03  0.44492627238E+03  0.77000000000E+02 0.  0.
   -5000001    1    1    2    0    0  0.54951056045E+01  0.34132784418E+02  0.11411907310E+03  0.14194155841E+03  0.77000000000E+02 0.  0.
<mgrwt>
<rscale>  0 0.20211490E+03</rscale>
<asrwt>0</asrwt>
<pdfrwt beam="1">  1        2 0.87525670E-01 0.20211490E+03</pdfrwt>
<pdfrwt beam="2">  1       -2 0.27616875E-02 0.20211490E+03</pdfrwt>
<totfact> 0.25001594E+04</totfact>
</mgrwt>
</event>
<event>
 4    1  0.5980424E-004  0.2265122E+03  0.7818608E-02  0.1129119E+00
          2   -1    0    0  501    0  0.00000000000E+00  0.00000000000E+00  0.44135409032E+03  0.44135409033E+03  0.25500000000E-02 0.  1.
         -2   -1    0    0    0  501 -0.00000000000E+00 -0.00000000000E+00 -0.29062710670E+02  0.29062710782E+02  0.25500000000E-02 0. -1.
    5000001    1    1    2    0    0  0.47083239281E+02  0.48938315155E+02  0.10684685878E+03  0.14817908537E+03  0.77000000000E+02 0.  0.
   -5000001    1    1    2    0    0 -0.47083239281E+02 -0.48938315155E+02  0.30544452087E+03  0.32223771574E+03  0.77000000000E+02 0.  0.
<mgrwt>
<rscale>  0 0.22651222E+03</rscale>
<asrwt>0</asrwt>
<pdfrwt beam="1">  1        2 0.67900628E-01 0.22651222E+03</pdfrwt>
<pdfrwt beam="2">  1       -2 0.44711863E-02 0.22651222E+03</pdfrwt>
<totfact> 0.16295214E+04</totfact>
</mgrwt>
</event>
<event>
 4    1  0.5980424E-004  0.2193154E+03  0.7818608E-02  0.1134394E+00
         -2   -1    0    0    0  501 -0.00000000000E+00  0.00000000000E+00  0.36978611532E+03  0.36978611533E+03  0.25500000000E-02 0. -1.
          2   -1    0    0  501    0  0.00000000000E+00 -0.00000000000E+00 -0.32518291898E+02  0.32518291998E+02  0.25500000000E-02 0.  1.
    5000001    1    1    2    0    0  0.10084472265E+02  0.74920947738E+02  0.13283005538E+03  0.17113640350E+03  0.77000000000E+02 0.  0.
   -5000001    1    1    2    0    0 -0.10084472265E+02 -0.74920947738E+02  0.20443776804E+03  0.23116800382E+03  0.77000000000E+02 0.  0.
<mgrwt>
<rscale>  0 0.21931542E+03</rscale>
<asrwt>0</asrwt>
<pdfrwt beam="1">  1        2 0.50028140E-02 0.21931542E+03</pdfrwt>
<pdfrwt beam="2">  1       -2 0.56890173E-01 0.21931542E+03</pdfrwt>
<totfact> 0.45579709E+03</totfact>
</mgrwt>
</event>
<event>
 4    1  0.5980424E-004  0.2907984E+03  0.7818608E-02  0.1089933E+00
         -2   -1    0    0    0  501 -0.00000000000E+00  0.00000000000E+00  0.30950109915E+02  0.30950110020E+02  0.25500000000E-02 0. -1.
          2   -1    0    0  501    0  0.00000000000E+00 -0.00000000000E+00 -0.68306486036E+03  0.68306486037E+03  0.25500000000E-02 0.  1.
    5000001    1    1    2    0    0  0.92084621516E+02  0.58118565873E+02 -0.18384584728E+03  0.22712472516E+03  0.77000000000E+02 0.  0.
   -5000001    1    1    2    0    0 -0.92084621516E+02 -0.58118565873E+02 -0.46826890317E+03  0.48689024522E+03  0.77000000000E+02 0.  0.
<mgrwt>
<rscale>  0 0.29079844E+03</rscale>
<asrwt>0</asrwt>
<pdfrwt beam="1">  1        2 0.10508689E+00 0.29079844E+03</pdfrwt>
<pdfrwt beam="2">  1       -2 0.47615559E-02 0.29079844E+03</pdfrwt>
<totfact> 0.91029598E+03</totfact>
</mgrwt>
</event>
<event>
 4    1  0.5980424E-004  0.2199042E+03  0.7818608E-02  0.1133954E+00
          2   -1    0    0  501    0  0.00000000000E+00  0.00000000000E+00  0.18114859693E+04  0.18114859693E+04  0.25500000000E-02 0.  1.
         -2   -1    0    0    0  501 -0.00000000000E+00 -0.00000000000E+00 -0.66737832481E+01  0.66737837353E+01  0.25500000000E-02 0. -1.
    5000001    1    1    2    0    0  0.29783049065E+02 -0.22022380890E+02  0.14745377435E+04  0.14770113649E+04  0.77000000000E+02 0.  0.
   -5000001    1    1    2    0    0 -0.29783049065E+02  0.22022380890E+02  0.33027444256E+03  0.34114838807E+03  0.77000000000E+02 0.  0.
<mgrwt>
<rscale>  0 0.21990421E+03</rscale>
<asrwt>0</asrwt>
<pdfrwt beam="1">  1        2 0.27869034E+00 0.21990421E+03</pdfrwt>
<pdfrwt beam="2">  1       -2 0.10267352E-02 0.21990421E+03</pdfrwt>
<totfact> 0.18994056E+04</totfact>
</mgrwt>
</event>
<event>
 4    1  0.5980424E-004  0.1843233E+03  0.7818608E-02  0.1163683E+00
         -2   -1    0    0    0  501 -0.00000000000E+00  0.00000000000E+00  0.64319206698E+02  0.64319206748E+02  0.25500000000E-02 0. -1.
          2   -1    0    0  501    0  0.00000000000E+00 -0.00000000000E+00 -0.13205655845E+03  0.13205655848E+03  0.25500000000E-02 0.  1.
    5000001    1    1    2    0    0 -0.39014207783E+02  0.16943626931E+02 -0.45835380488E+01  0.88086342435E+02  0.77000000000E+02 0.  0.
   -5000001    1    1    2    0    0  0.39014207783E+02 -0.16943626931E+02 -0.63153813704E+02  0.10828942279E+03  0.77000000000E+02 0.  0.
<mgrwt>
<rscale>  0 0.18432334E+03</rscale>
<asrwt>0</asrwt>
<pdfrwt beam="1">  1        2 0.20316394E-01 0.18432334E+03</pdfrwt>
<pdfrwt beam="2">  1       -2 0.98952626E-02 0.18432334E+03</pdfrwt>
<totfact> 0.17603572E+04</totfact>
</mgrwt>
</event>
<event>
 4    1  0.5980424E-004  0.4812354E+03  0.7818608E-02  0.1018796E+00
          2   -1    0    0  501    0  0.00000000000E+00  0.00000000000E+00  0.13289517061E+04  0.13289517061E+04  0.25500000000E-02 0.  1.
         -2   -1    0    0    0  501 -0.00000000000E+00 -0.00000000000E+00 -0.43565833177E+02  0.43565833252E+02  0.25500000000E-02 0. -1.
    5000001    1    1    2    0    0 -0.95279463257E+02  0.20675545367E+03  0.67666667126E+03  0.71807574651E+03  0.77000000000E+02 0.  0.
   -5000001    1    1    2    0    0  0.95279463257E+02 -0.20675545367E+03  0.60871920167E+03  0.65444179285E+03  0.77000000000E+02 0.  0.
<mgrwt>
<rscale>  0 0.48123545E+03</rscale>
<asrwt>0</asrwt>
<pdfrwt beam="1">  1        2 0.20445409E+00 0.48123545E+03</pdfrwt>
<pdfrwt beam="2">  1       -2 0.67024364E-02 0.48123545E+03</pdfrwt>
<totfact> 0.21023396E+03</totfact>
</mgrwt>
</event>
<event>
 4    1  0.5980424E-004  0.4326955E+03  0.7818608E-02  0.1033012E+00
         -2   -1    0    0    0  501 -0.00000000000E+00  0.00000000000E+00  0.14102018295E+02  0.14102018525E+02  0.25500000000E-02 0. -1.
          2   -1    0    0  501    0  0.00000000000E+00 -0.00000000000E+00 -0.33191233162E+04  0.33191233162E+04  0.25500000000E-02 0.  1.
    5000001    1    1    2    0    0  0.18973712881E+03 -0.64921882723E+02 -0.14542608561E+04  0.14700403622E+04  0.77000000000E+02 0.  0.
   -5000001    1    1    2    0    0 -0.18973712881E+03  0.64921882723E+02 -0.18507604418E+04  0.18631849725E+04  0.77000000000E+02 0.  0.
<mgrwt>
<rscale>  0 0.43269545E+03</rscale>
<asrwt>0</asrwt>
<pdfrwt beam="1">  1        2 0.51063374E+00 0.43269545E+03</pdfrwt>
<pdfrwt beam="2">  1       -2 0.21695439E-02 0.43269545E+03</pdfrwt>
<totfact> 0.88611838E+02</totfact>
</mgrwt>
</event>
<event>
 4    1  0.5980424E-004  0.2701085E+03  0.7818608E-02  0.1101218E+00
          2   -1    0    0  501    0  0.00000000000E+00  0.00000000000E+00  0.13144591884E+04  0.13144591884E+04  0.25500000000E-02 0.  1.
         -2   -1    0    0    0  501 -0.00000000000E+00 -0.00000000000E+00 -0.13876158189E+02  0.13876158423E+02  0.25500000000E-02 0. -1.
    5000001    1    1    2    0    0 -0.74298357079E+02  0.13692793007E+02  0.10499022011E+04  0.10554294720E+04  0.77000000000E+02 0.  0.
   -5000001    1    1    2    0    0  0.74298357079E+02 -0.13692793007E+02  0.25068082916E+03  0.27290587490E+03  0.77000000000E+02 0.  0.
<mgrwt>
<rscale>  0 0.27010845E+03</rscale>
<asrwt>0</asrwt>
<pdfrwt beam="1">  1        2 0.20222456E+00 0.27010845E+03</pdfrwt>
<pdfrwt beam="2">  1       -2 0.21347928E-02 0.27010845E+03</pdfrwt>
<totfact> 0.12077741E+04</totfact>
</mgrwt>
</event>
<event>
 4    1  0.5980424E-004  0.2279507E+03  0.7818608E-02  0.1128090E+00
          2   -1    0    0  501    0  0.00000000000E+00  0.00000000000E+00  0.16576024374E+04  0.16576024374E+04  0.25500000000E-02 0.  1.
         -2   -1    0    0    0  501 -0.00000000000E+00 -0.00000000000E+00 -0.78368508969E+01  0.78368513118E+01  0.25500000000E-02 0. -1.
    5000001    1    1    2    0    0  0.63884976729E+02 -0.38159957990E+02  0.11100946688E+04  0.11152473476E+04  0.77000000000E+02 0.  0.
   -5000001    1    1    2    0    0 -0.63884976729E+02  0.38159957990E+02  0.53967091775E+03  0.55019194115E+03  0.77000000000E+02 0.  0.
<mgrwt>
<rscale>  0 0.22795073E+03</rscale>
<asrwt>0</asrwt>
<pdfrwt beam="1">  1        2 0.25501602E+00 0.22795073E+03</pdfrwt>
<pdfrwt beam="2">  1       -2 0.12056682E-02 0.22795073E+03</pdfrwt>
<totfact> 0.18133979E+04</totfact>
</mgrwt>
</event>
<event>
 4    1  0.5980424E-004  0.3219898E+03  0.7818608E-02  0.1074737E+00
          2   -1    0    0  501    0  0.00000000000E+00  0.00000000000E+00  0.39076423716E+03  0.39076423717E+03  0.25500000000E-02 0.  1.
         -2   -1    0    0    0  501 -0.00000000000E+00 -0.00000000000E+00 -0.66329927753E+02  0.66329927802E+02  0.25500000000E-02 0. -1.
    5000001    1    1    2    0    0  0.20409575875E+02  0.78900958258E+02  0.32623041452E+03  0.34495970106E+03  0.77000000000E+02 0.  0.
   -5000001    1    1    2    0    0 -0.20409575875E+02 -0.78900958258E+02 -0.17961051134E+01  0.11213446390E+03  0.77000000000E+02 0.  0.
<mgrwt>
<rscale>  0 0.32198984E+03</rscale>
<asrwt>0</asrwt>
<pdfrwt beam="1">  1        2 0.60117573E-01 0.32198984E+03</pdfrwt>
<pdfrwt beam="2">  1       -2 0.10204605E-01 0.32198984E+03</pdfrwt>
<totfact> 0.52656397E+03</totfact>
</mgrwt>
</event>
<event>
 4    1  0.5980424E-004  0.2373325E+03  0.7818608E-02  0.1121583E+00
          2   -1    0    0  501    0  0.00000000000E+00  0.00000000000E+00  0.69937211064E+03  0.69937211065E+03  0.25500000000E-02 0.  1.
         -2   -1    0    0    0  501 -0.00000000000E+00 -0.00000000000E+00 -0.20134750123E+02  0.20134750284E+02  0.25500000000E-02 0. -1.
    5000001    1    1    2    0    0  0.50918057231E+02  0.49853423420E+02  0.17151510607E+03  0.20105830992E+03  0.77000000000E+02 0.  0.
   -5000001    1    1    2    0    0 -0.50918057231E+02 -0.49853423420E+02  0.50772225445E+03  0.51844855101E+03  0.77000000000E+02 0.  0.
<mgrwt>
<rscale>  0 0.23733253E+03</rscale>
<asrwt>0</asrwt>
<pdfrwt beam="1">  1        2 0.10759571E+00 0.23733253E+03</pdfrwt>
<pdfrwt beam="2">  1       -2 0.30976540E-02 0.23733253E+03</pdfrwt>
<totfact> 0.16729446E+04</totfact>
</mgrwt>
</event>
<event>
 4    1  0.5980424E-004  0.2552987E+03  0.7818608E-02  0.1110001E+00
         -2   -1    0    0    0  501 -0.00000000000E+00  0.00000000000E+00  0.28760599501E+03  0.28760599502E+03  0.25500000000E-02 0. -1.
          2   -1    0    0  501    0  0.00000000000E+00 -0.00000000000E+00 -0.56655154558E+02  0.56655154616E+02  0.25500000000E-02 0.  1.
    5000001    1    1    2    0    0  0.71548862592E+01  0.96079918624E+02  0.15984826385E+03  0.20189851564E+03  0.77000000000E+02 0.  0.
   -5000001    1    1    2    0    0 -0.71548862592E+01 -0.96079918624E+02  0.71102576599E+02  0.14236263400E+03  0.77000000000E+02 0.  0.
<mgrwt>
<rscale>  0 0.25529874E+03</rscale>
<asrwt>0</asrwt>
<pdfrwt beam="1">  1        2 0.87161778E-02 0.25529874E+03</pdfrwt>
<pdfrwt beam="2">  1       -2 0.44247075E-01 0.25529874E+03</pdfrwt>
<totfact> 0.37011166E+03</totfact>
</mgrwt>
</event>
<event>
 4    1  0.5980424E-004  0.2751082E+03  0.7818608E-02  0.1098391E+00
         -2   -1    0    0    0  501 -0.00000000000E+00  0.00000000000E+00  0.38258161270E+02  0.38258161355E+02  0.25500000000E-02 0. -1.
          2   -1    0    0  501    0  0.00000000000E+00 -0.00000000000E+00 -0.49456450488E+03  0.49456450488E+03  0.25500000000E-02 0.  1.
    5000001    1    1    2    0    0 -0.96147372624E+02 -0.19345566805E+02 -0.34064563372E+03  0.36274924672E+03  0.77000000000E+02 0.  0.
   -5000001    1    1    2    0    0  0.96147372624E+02  0.19345566805E+02 -0.11566070988E+03  0.17007341952E+03  0.77000000000E+02 0.  0.
<mgrwt>
<rscale>  0 0.27510819E+03</rscale>
<asrwt>0</asrwt>
<pdfrwt beam="1">  1        2 0.76086842E-01 0.27510819E+03</pdfrwt>
<pdfrwt beam="2">  1       -2 0.58858713E-02 0.27510819E+03</pdfrwt>
<totfact> 0.95530132E+03</totfact>
</mgrwt>
</event>
<event>
 4    1  0.5980424E-004  0.1775962E+03  0.7818608E-02  0.1170150E+00
          2   -1    0    0  501    0  0.00000000000E+00  0.00000000000E+00  0.14971504243E+03  0.14971504245E+03  0.25500000000E-02 0.  1.
         -2   -1    0    0    0  501 -0.00000000000E+00 -0.00000000000E+00 -0.52667389916E+02  0.52667389978E+02  0.25500000000E-02 0. -1.
    5000001    1    1    2    0    0  0.22490208586E+02 -0.85979447089E+01  0.62466251521E+01  0.80918196107E+02  0.77000000000E+02 0.  0.
   -5000001    1    1    2    0    0 -0.22490208586E+02  0.85979447089E+01  0.90801027361E+02  0.12146423632E+03  0.77000000000E+02 0.  0.
<mgrwt>
<rscale>  0 0.17759618E+03</rscale>
<asrwt>0</asrwt>
<pdfrwt beam="1">  1        2 0.23033083E-01 0.17759618E+03</pdfrwt>
<pdfrwt beam="2">  1       -2 0.81026754E-02 0.17759618E+03</pdfrwt>
<totfact> 0.20831515E+04</totfact>
</mgrwt>
</event>
<event>
 4    1  0.5980424E-004  0.1727915E+03  0.7818608E-02  0.1174968E+00
         -2   -1    0    0    0  501 -0.00000000000E+00  0.00000000000E+00  0.82293772291E+03  0.82293772291E+03  0.25500000000E-02 0. -1.
          2   -1    0    0  501    0  0.00000000000E+00 -0.00000000000E+00 -0.90702215943E+01  0.90702219527E+01  0.25500000000E-02 0.  1.
    5000001    1    1    2    0    0  0.72868836696E+00  0.37588883530E+02  0.46006862498E+03  0.46798033595E+03  0.77000000000E+02 0.  0.
   -5000001    1    1    2    0    0 -0.72868836696E+00 -0.37588883530E+02  0.35379887634E+03  0.36402760891E+03  0.77000000000E+02 0.  0.
<mgrwt>
<rscale>  0 0.17279152E+03</rscale>
<asrwt>0</asrwt>
<pdfrwt beam="1">  1        2 0.13954189E-02 0.17279152E+03</pdfrwt>
<pdfrwt beam="2">  1       -2 0.12660579E+00 0.17279152E+03</pdfrwt>
<totfact> 0.42566334E+03</totfact>
</mgrwt>
</event>
<event>
 4    1  0.5980424E-004  0.1802322E+03  0.7818608E-02  0.1167579E+00
         -2   -1    0    0    0  501 -0.00000000000E+00  0.00000000000E+00  0.12491538052E+02  0.12491538313E+02  0.25500000000E-02 0. -1.
          2   -1    0    0  501    0  0.00000000000E+00 -0.00000000000E+00 -0.65011289266E+03  0.65011289267E+03  0.25500000000E-02 0.  1.
    5000001    1    1    2    0    0  0.42963994347E+02 -0.82586126395E+01 -0.25753494260E+03  0.27233684318E+03  0.77000000000E+02 0.  0.
   -5000001    1    1    2    0    0 -0.42963994347E+02  0.82586126395E+01 -0.38008641201E+03  0.39026758780E+03  0.77000000000E+02 0.  0.
<mgrwt>
<rscale>  0 0.18023218E+03</rscale>
<asrwt>0</asrwt>
<pdfrwt beam="1">  1        2 0.10001734E+00 0.18023218E+03</pdfrwt>
<pdfrwt beam="2">  1       -2 0.19217756E-02 0.18023218E+03</pdfrwt>
<totfact> 0.36158001E+04</totfact>
</mgrwt>
</event>
<event>
 4    1  0.5980424E-004  0.2065917E+03  0.7818608E-02  0.1144294E+00
         -2   -1    0    0    0  501 -0.00000000000E+00  0.00000000000E+00  0.13843911079E+02  0.13843911314E+02  0.25500000000E-02 0. -1.
          2   -1    0    0  501    0  0.00000000000E+00 -0.00000000000E+00 -0.77073815707E+03  0.77073815708E+03  0.25500000000E-02 0.  1.
    5000001    1    1    2    0    0  0.17257996998E+02 -0.57876024741E+02 -0.25285961522E+03  0.27113549696E+03  0.77000000000E+02 0.  0.
   -5000001    1    1    2    0    0 -0.17257996998E+02  0.57876024741E+02 -0.50403463077E+03  0.51344657143E+03  0.77000000000E+02 0.  0.
<mgrwt>
<rscale>  0 0.20659168E+03</rscale>
<asrwt>0</asrwt>
<pdfrwt beam="1">  1        2 0.11857507E+00 0.20659168E+03</pdfrwt>
<pdfrwt beam="2">  1       -2 0.21298331E-02 0.20659168E+03</pdfrwt>
<totfact> 0.25599596E+04</totfact>
</mgrwt>
</event>
<event>
 4    1  0.5980424E-004  0.3126653E+03  0.7818608E-02  0.1079075E+00
          2   -1    0    0  501    0  0.00000000000E+00  0.00000000000E+00  0.84077046717E+02  0.84077046755E+02  0.25500000000E-02 0.  1.
         -2   -1    0    0    0  501 -0.00000000000E+00 -0.00000000000E+00 -0.29068459105E+03  0.29068459106E+03  0.25500000000E-02 0. -1.
    5000001    1    1    2    0    0  0.12843647302E+03 -0.22930540916E+02 -0.14955750218E+03  0.21288067965E+03  0.77000000000E+02 0.  0.
   -5000001    1    1    2    0    0 -0.12843647302E+03  0.22930540916E+02 -0.57050042156E+02  0.16188095817E+03  0.77000000000E+02 0.  0.
<mgrwt>
<rscale>  0 0.31266533E+03</rscale>
<asrwt>0</asrwt>
<pdfrwt beam="1">  1        2 0.12934930E-01 0.31266533E+03</pdfrwt>
<pdfrwt beam="2">  1       -2 0.44720706E-01 0.31266533E+03</pdfrwt>
<totfact> 0.22387683E+03</totfact>
</mgrwt>
</event>
<event>
 4    1  0.5980424E-004  0.3061861E+03  0.7818608E-02  0.1082188E+00
          2   -1    0    0  501    0  0.00000000000E+00  0.00000000000E+00  0.46454839327E+02  0.46454839397E+02  0.25500000000E-02 0.  1.
         -2   -1    0    0    0  501 -0.00000000000E+00 -0.00000000000E+00 -0.50452191226E+03  0.50452191227E+03  0.25500000000E-02 0. -1.
    5000001    1    1    2    0    0 -0.66836425898E+02  0.11406071248E+03 -0.23913798830E+03  0.28388894203E+03  0.77000000000E+02 0.  0.
   -5000001    1    1    2    0    0  0.66836425898E+02 -0.11406071248E+03 -0.21892908463E+03  0.26708780963E+03  0.77000000000E+02 0.  0.
<mgrwt>
<rscale>  0 0.30618612E+03</rscale>
<asrwt>0</asrwt>
<pdfrwt beam="1">  1        2 0.71468987E-02 0.30618612E+03</pdfrwt>
<pdfrwt beam="2">  1       -2 0.77618752E-01 0.30618612E+03</pdfrwt>
<totfact> 0.15007622E+03</totfact>
</mgrwt>
</event>
<event>
 4    1  0.5980424E-004  0.1720887E+03  0.7818608E-02  0.1175687E+00
         -2   -1    0    0    0  501 -0.00000000000E+00  0.00000000000E+00  0.87408299646E+02  0.87408299683E+02  0.25500000000E-02 0. -1.
          2   -1    0    0  501    0  0.00000000000E+00 -0.00000000000E+00 -0.84701652574E+02  0.84701652613E+02  0.25500000000E-02 0.  1.
    5000001    1    1    2    0    0 -0.34095477531E+02 -0.14821284551E+02  0.10969884393E+02  0.86206208752E+02  0.77000000000E+02 0.  0.
   -5000001    1    1    2    0    0  0.34095477531E+02  0.14821284551E+02 -0.82632373214E+01  0.85903743544E+02  0.77000000000E+02 0.  0.
<mgrwt>
<rscale>  0 0.17208867E+03</rscale>
<asrwt>0</asrwt>
<pdfrwt beam="1">  1        2 0.13031024E-01 0.17208867E+03</pdfrwt>
<pdfrwt beam="2">  1       -2 0.13447431E-01 0.17208867E+03</pdfrwt>
<totfact> 0.17986570E+04</totfact>
</mgrwt>
</event>
<event>
 4    1  0.5980424E-004  0.1889373E+03  0.7818608E-02  0.1159423E+00
          2   -1    0    0  501    0  0.00000000000E+00  0.00000000000E+00  0.63809144172E+02  0.63809144223E+02  0.25500000000E-02 0.  1.
         -2   -1    0    0    0  501 -0.00000000000E+00 -0.00000000000E+00 -0.13985968385E+03  0.13985968387E+03  0.25500000000E-02 0. -1.
    5000001    1    1    2    0    0  0.19103729971E+02 -0.47193598789E+02 -0.59669092194E+02  0.10991628100E+03  0.77000000000E+02 0.  0.
   -5000001    1    1    2    0    0 -0.19103729971E+02  0.47193598789E+02 -0.16381447484E+02  0.93752547097E+02  0.77000000000E+02 0.  0.
<mgrwt>
<rscale>  0 0.18893731E+03</rscale>
<asrwt>0</asrwt>
<pdfrwt beam="1">  1        2 0.98167914E-02 0.18893731E+03</pdfrwt>
<pdfrwt beam="2">  1       -2 0.21516874E-01 0.18893731E+03</pdfrwt>
<totfact> 0.11683903E+04</totfact>
</mgrwt>
</event>
<event>
 4    1  0.5980424E-004  0.1962878E+03  0.7818608E-02  0.1152909E+00
          2   -1    0    0  501    0  0.00000000000E+00  0.00000000000E+00  0.40034646277E+03  0.40034646278E+03  0.25500000000E-02 0.  1.
         -2   -1    0    0    0  501 -0.00000000000E+00 -0.00000000000E+00 -0.24059714989E+02  0.24059715124E+02  0.25500000000E-02 0. -1.
    5000001    1    1    2    0    0 -0.59879698835E+02 -0.10273705796E+02  0.19566274767E+03  0.21886991156E+03  0.77000000000E+02 0.  0.
   -5000001    1    1    2    0    0  0.59879698835E+02  0.10273705796E+02  0.18062400011E+03  0.20553626634E+03  0.77000000000E+02 0.  0.
<mgrwt>
<rscale>  0 0.19628777E+03</rscale>
<asrwt>0</asrwt>
<pdfrwt beam="1">  1        2 0.61591764E-01 0.19628777E+03</pdfrwt>
<pdfrwt beam="2">  1       -2 0.37014946E-02 0.19628777E+03</pdfrwt>
<totfact> 0.23813615E+04</totfact>
</mgrwt>
</event>
<event>
 4    1  0.5980424E-004  0.2232534E+03  0.7818608E-02  0.1131481E+00
         -2   -1    0    0    0  501 -0.00000000000E+00  0.00000000000E+00  0.32442525380E+02  0.32442525480E+02  0.25500000000E-02 0. -1.
          2   -1    0    0  501    0  0.00000000000E+00 -0.00000000000E+00 -0.38407985249E+03  0.38407985250E+03  0.25500000000E-02 0.  1.
    5000001    1    1    2    0    0  0.68834131976E+02 -0.41086224441E+02 -0.19496406076E+03  0.22442415323E+03  0.77000000000E+02 0.  0.
   -5000001    1    1    2    0    0 -0.68834131976E+02  0.41086224441E+02 -0.15667326635E+03  0.19209822475E+03  0.77000000000E+02 0.  0.
<mgrwt>
<rscale>  0 0.22325340E+03</rscale>
<asrwt>0</asrwt>
<pdfrwt beam="1">  1        2 0.59089205E-01 0.22325340E+03</pdfrwt>
<pdfrwt beam="2">  1       -2 0.49911580E-02 0.22325340E+03</pdfrwt>
<totfact> 0.16033373E+04</totfact>
</mgrwt>
</event>
<event>
 4    1  0.5980424E-004  0.2743289E+03  0.7818608E-02  0.1098827E+00
          2   -1    0    0  501    0  0.00000000000E+00  0.00000000000E+00  0.70710307446E+02  0.70710307492E+02  0.25500000000E-02 0.  1.
         -2   -1    0    0    0  501 -0.00000000000E+00 -0.00000000000E+00 -0.26607266960E+03  0.26607266961E+03  0.25500000000E-02 0. -1.
    5000001    1    1    2    0    0  0.99387772779E+02 -0.49751388529E+02 -0.69366338924E+02  0.15196650622E+03  0.77000000000E+02 0.  0.
   -5000001    1    1    2    0    0 -0.99387772779E+02  0.49751388529E+02 -0.12599602323E+03  0.18481647088E+03  0.77000000000E+02 0.  0.
<mgrwt>
<rscale>  0 0.27432886E+03</rscale>
<asrwt>0</asrwt>
<pdfrwt beam="1">  1        2 0.10878509E-01 0.27432886E+03</pdfrwt>
<pdfrwt beam="2">  1       -2 0.40934256E-01 0.27432886E+03</pdfrwt>
<totfact> 0.32722689E+03</totfact>
</mgrwt>
</event>
<event>
 4    1  0.5980424E-004  0.2075628E+03  0.7818608E-02  0.1143511E+00
         -2   -1    0    0    0  501 -0.00000000000E+00  0.00000000000E+00  0.19403182219E+02  0.19403182386E+02  0.25500000000E-02 0. -1.
          2   -1    0    0  501    0  0.00000000000E+00 -0.00000000000E+00 -0.55509316671E+03  0.55509316671E+03  0.25500000000E-02 0.  1.
    5000001    1    1    2    0    0  0.94547500128E+01 -0.60628917759E+02 -0.35864956971E+03  0.37191903934E+03  0.77000000000E+02 0.  0.
   -5000001    1    1    2    0    0 -0.94547500128E+01  0.60628917759E+02 -0.17704041477E+03  0.20257730976E+03  0.77000000000E+02 0.  0.
<mgrwt>
<rscale>  0 0.20756275E+03</rscale>
<asrwt>0</asrwt>
<pdfrwt beam="1">  1        2 0.85398937E-01 0.20756275E+03</pdfrwt>
<pdfrwt beam="2">  1       -2 0.29851054E-02 0.20756275E+03</pdfrwt>
<totfact> 0.22958724E+04</totfact>
</mgrwt>
</event>
<event>
 4    1  0.5980424E-004  0.2109944E+03  0.7818608E-02  0.1140781E+00
         -2   -1    0    0    0  501 -0.00000000000E+00  0.00000000000E+00  0.21319775765E+02  0.21319775918E+02  0.25500000000E-02 0. -1.
          2   -1    0    0  501    0  0.00000000000E+00 -0.00000000000E+00 -0.52203442215E+03  0.52203442216E+03  0.25500000000E-02 0.  1.
    5000001    1    1    2    0    0 -0.64195065904E+02  0.32387084204E+02 -0.26463223133E+03  0.28483178820E+03  0.77000000000E+02 0.  0.
   -5000001    1    1    2    0    0  0.64195065904E+02 -0.32387084204E+02 -0.23608241505E+03  0.25852240987E+03  0.77000000000E+02 0.  0.
<mgrwt>
<rscale>  0 0.21099438E+03</rscale>
<asrwt>0</asrwt>
<pdfrwt beam="1">  1        2 0.80312978E-01 0.21099438E+03</pdfrwt>
<pdfrwt beam="2">  1       -2 0.32799659E-02 0.21099438E+03</pdfrwt>
<totfact> 0.21417523E+04</totfact>
</mgrwt>
</event>
<event>
 4    1  0.5980424E-004  0.2082964E+03  0.7818608E-02  0.1142922E+00
          2   -1    0    0  501    0  0.00000000000E+00  0.00000000000E+00  0.25625049725E+04  0.25625049725E+04  0.25500000000E-02 0.  1.
         -2   -1    0    0    0  501 -0.00000000000E+00 -0.00000000000E+00 -0.42329067274E+01  0.42329074955E+01  0.25500000000E-02 0. -1.
    5000001    1    1    2    0    0 -0.34847061732E+02 -0.52057960413E+02  0.16675393971E+04  0.16704912421E+04  0.77000000000E+02 0.  0.
   -5000001    1    1    2    0    0  0.34847061732E+02  0.52057960413E+02  0.89073266868E+03  0.89624663794E+03  0.77000000000E+02 0.  0.
<mgrwt>
<rscale>  0 0.20829638E+03</rscale>
<asrwt>0</asrwt>
<pdfrwt beam="1">  1        2 0.39423246E+00 0.20829638E+03</pdfrwt>
<pdfrwt beam="2">  1       -2 0.65121494E-03 0.20829638E+03</pdfrwt>
<totfact> 0.14635637E+04</totfact>
</mgrwt>
</event>
<event>
 4    1  0.5980424E-004  0.2977691E+03  0.7818608E-02  0.1086361E+00
         -2   -1    0    0    0  501 -0.00000000000E+00  0.00000000000E+00  0.21588081986E+03  0.21588081987E+03  0.25500000000E-02 0. -1.
          2   -1    0    0  501    0  0.00000000000E+00 -0.00000000000E+00 -0.10267984909E+03  0.10267984912E+03  0.25500000000E-02 0.  1.
    5000001    1    1    2    0    0 -0.61216637067E+02  0.11165736164E+03  0.51495847345E+02  0.15746639437E+03  0.77000000000E+02 0.  0.
   -5000001    1    1    2    0    0  0.61216637067E+02 -0.11165736164E+03  0.61705123422E+02  0.16109427463E+03  0.77000000000E+02 0.  0.
<mgrwt>
<rscale>  0 0.29776911E+03</rscale>
<asrwt>0</asrwt>
<pdfrwt beam="1">  1        2 0.15796900E-01 0.29776911E+03</pdfrwt>
<pdfrwt beam="2">  1       -2 0.33212433E-01 0.29776911E+03</pdfrwt>
<totfact> 0.31006240E+03</totfact>
</mgrwt>
</event>
<event>
 4    1  0.5980424E-004  0.1913025E+03  0.7818608E-02  0.1157292E+00
          2   -1    0    0  501    0  0.00000000000E+00  0.00000000000E+00  0.88142883025E+03  0.88142883025E+03  0.25500000000E-02 0.  1.
         -2   -1    0    0    0  501 -0.00000000000E+00 -0.00000000000E+00 -0.10379922627E+02  0.10379922941E+02  0.25500000000E-02 0. -1.
    5000001    1    1    2    0    0 -0.48314326487E+02  0.23242055079E+02  0.34884858917E+03  0.36124618398E+03  0.77000000000E+02 0.  0.
   -5000001    1    1    2    0    0  0.48314326487E+02 -0.23242055079E+02  0.52220031844E+03  0.53056256921E+03  0.77000000000E+02 0.  0.
<mgrwt>
<rscale>  0 0.19130252E+03</rscale>
<asrwt>0</asrwt>
<pdfrwt beam="1">  1        2 0.13560448E+00 0.19130252E+03</pdfrwt>
<pdfrwt beam="2">  1       -2 0.15969106E-02 0.19130252E+03</pdfrwt>
<totfact> 0.32662868E+04</totfact>
</mgrwt>
</event>
<event>
 4    1  0.5980424E-004  0.3376535E+03  0.7818608E-02  0.1067800E+00
         -2   -1    0    0    0  501 -0.00000000000E+00  0.00000000000E+00  0.84827213553E+01  0.84827217386E+01  0.25500000000E-02 0. -1.
          2   -1    0    0  501    0  0.00000000000E+00 -0.00000000000E+00 -0.33600616180E+04  0.33600616180E+04  0.25500000000E-02 0.  1.
    5000001    1    1    2    0    0 -0.14748084321E+03  0.27682916145E+02 -0.17507940642E+04  0.17588990301E+04  0.77000000000E+02 0.  0.
   -5000001    1    1    2    0    0  0.14748084321E+03 -0.27682916145E+02 -0.16007848325E+04  0.16096453097E+04  0.77000000000E+02 0.  0.
<mgrwt>
<rscale>  0 0.33765347E+03</rscale>
<asrwt>0</asrwt>
<pdfrwt beam="1">  1        2 0.51693150E+00 0.33765347E+03</pdfrwt>
<pdfrwt beam="2">  1       -2 0.13050368E-02 0.33765347E+03</pdfrwt>
<totfact> 0.17927720E+03</totfact>
</mgrwt>
</event>
<event>
 4    1  0.5980424E-004  0.3849411E+03  0.7818608E-02  0.1049122E+00
         -2   -1    0    0    0  501 -0.00000000000E+00  0.00000000000E+00  0.28434265723E+02  0.28434265837E+02  0.25500000000E-02 0. -1.
          2   -1    0    0  501    0  0.00000000000E+00 -0.00000000000E+00 -0.13028263007E+04  0.13028263007E+04  0.25500000000E-02 0.  1.
    5000001    1    1    2    0    0  0.16108891491E+03 -0.14780976383E+02 -0.88045819433E+03  0.89850083346E+03  0.77000000000E+02 0.  0.
   -5000001    1    1    2    0    0 -0.16108891491E+03  0.14780976383E+02 -0.39393384068E+03  0.43275973311E+03  0.77000000000E+02 0.  0.
<mgrwt>
<rscale>  0 0.38494108E+03</rscale>
<asrwt>0</asrwt>
<pdfrwt beam="1">  1        2 0.20043477E+00 0.38494108E+03</pdfrwt>
<pdfrwt beam="2">  1       -2 0.43745034E-02 0.38494108E+03</pdfrwt>
<totfact> 0.42090696E+03</totfact>
</mgrwt>
</event>
<event>
 4    1  0.5980424E-004  0.1980592E+03  0.7818608E-02  0.1151387E+00
          2   -1    0    0  501    0  0.00000000000E+00  0.00000000000E+00  0.14575333173E+04  0.14575333173E+04  0.25500000000E-02 0.  1.
         -2   -1    0    0    0  501 -0.00000000000E+00 -0.00000000000E+00 -0.67283967790E+01  0.67283972622E+01  0.25500000000E-02 0. -1.
    5000001    1    1    2    0    0 -0.29773662797E+02  0.37600904251E+02  0.10190437562E+04  0.10230735438E+04  0.77000000000E+02 0.  0.
   -5000001    1    1    2    0    0  0.29773662797E+02 -0.37600904251E+02  0.43176116435E+03  0.44118817078E+03  0.77000000000E+02 0.  0.
<mgrwt>
<rscale>  0 0.19805921E+03</rscale>
<asrwt>0</asrwt>
<pdfrwt beam="1">  1        2 0.22423601E+00 0.19805921E+03</pdfrwt>
<pdfrwt beam="2">  1       -2 0.10351375E-02 0.19805921E+03</pdfrwt>
<totfact> 0.28640883E+04</totfact>
</mgrwt>
</event>
<event>
 4    1  0.5980424E-004  0.2034987E+03  0.7818608E-02  0.1146820E+00
         -2   -1    0    0    0  501 -0.00000000000E+00  0.00000000000E+00  0.60383727223E+01  0.60383732607E+01  0.25500000000E-02 0. -1.
          2   -1    0    0  501    0  0.00000000000E+00 -0.00000000000E+00 -0.17145238084E+04  0.17145238084E+04  0.25500000000E-02 0.  1.
    5000001    1    1    2    0    0  0.14890166853E+02  0.62086425544E+02 -0.10118519494E+04  0.10167840522E+04  0.77000000000E+02 0.  0.
   -5000001    1    1    2    0    0 -0.14890166853E+02 -0.62086425544E+02 -0.69663348636E+03  0.70377812954E+03  0.77000000000E+02 0.  0.
<mgrwt>
<rscale>  0 0.20349874E+03</rscale>
<asrwt>0</asrwt>
<pdfrwt beam="1">  1        2 0.26377251E+00 0.20349874E+03</pdfrwt>
<pdfrwt beam="2">  1       -2 0.92898183E-03 0.20349874E+03</pdfrwt>
<totfact> 0.24570203E+04</totfact>
</mgrwt>
</event>
<event>
 4    1  0.5980424E-004  0.1904072E+03  0.7818608E-02  0.1158095E+00
         -2   -1    0    0    0  501 -0.00000000000E+00  0.00000000000E+00  0.10177190376E+02  0.10177190696E+02  0.25500000000E-02 0. -1.
          2   -1    0    0  501    0  0.00000000000E+00 -0.00000000000E+00 -0.89059205536E+03  0.89059205536E+03  0.25500000000E-02 0.  1.
    5000001    1    1    2    0    0  0.20060063292E+02 -0.49661044490E+02 -0.51737810282E+03  0.52581149356E+03  0.77000000000E+02 0.  0.
   -5000001    1    1    2    0    0 -0.20060063292E+02  0.49661044490E+02 -0.36303676216E+03  0.37495775249E+03  0.77000000000E+02 0.  0.
<mgrwt>
<rscale>  0 0.19040720E+03</rscale>
<asrwt>0</asrwt>
<pdfrwt beam="1">  1        2 0.13701410E+00 0.19040720E+03</pdfrwt>
<pdfrwt beam="2">  1       -2 0.15657223E-02 0.19040720E+03</pdfrwt>
<totfact> 0.33147426E+04</totfact>
</mgrwt>
</event>
<event>
 4    1  0.5980424E-004  0.3102758E+03  0.7818608E-02  0.1080214E+00
          2   -1    0    0  501    0  0.00000000000E+00  0.00000000000E+00  0.93699718994E+03  0.93699718994E+03  0.25500000000E-02 0.  1.
         -2   -1    0    0    0  501 -0.00000000000E+00 -0.00000000000E+00 -0.25686062107E+02  0.25686062234E+02  0.25500000000E-02 0. -1.
    5000001    1    1    2    0    0 -0.12552567232E+03  0.44516741904E+02  0.51773480526E+03  0.54010810335E+03  0.77000000000E+02 0.  0.
   -5000001    1    1    2    0    0  0.12552567232E+03 -0.44516741904E+02  0.39357632257E+03  0.42257514883E+03  0.77000000000E+02 0.  0.
<mgrwt>
<rscale>  0 0.31027580E+03</rscale>
<asrwt>0</asrwt>
<pdfrwt beam="1">  1        2 0.14415338E+00 0.31027580E+03</pdfrwt>
<pdfrwt beam="2">  1       -2 0.39517027E-02 0.31027580E+03</pdfrwt>
<totfact> 0.80642198E+03</totfact>
</mgrwt>
</event>
<event>
 4    1  0.5980424E-004  0.4410766E+03  0.7818608E-02  0.1030417E+00
         -2   -1    0    0    0  501 -0.00000000000E+00  0.00000000000E+00  0.33905770020E+02  0.33905770116E+02  0.25500000000E-02 0. -1.
          2   -1    0    0  501    0  0.00000000000E+00 -0.00000000000E+00 -0.14344799975E+04  0.14344799975E+04  0.25500000000E-02 0.  1.
    5000001    1    1    2    0    0  0.17826731845E+03  0.10293845174E+03 -0.63957449838E+03  0.67628403845E+03  0.77000000000E+02 0.  0.
   -5000001    1    1    2    0    0 -0.17826731845E+03 -0.10293845174E+03 -0.76099972912E+03  0.79210172920E+03  0.77000000000E+02 0.  0.
<mgrwt>
<rscale>  0 0.44107663E+03</rscale>
<asrwt>0</asrwt>
<pdfrwt beam="1">  1        2 0.22068918E+00 0.44107663E+03</pdfrwt>
<pdfrwt beam="2">  1       -2 0.52162734E-02 0.44107663E+03</pdfrwt>
<totfact> 0.27140272E+03</totfact>
</mgrwt>
</event>
<event>
 4    1  0.5980424E-004  0.2589422E+03  0.7818608E-02  0.1107780E+00
          2   -1    0    0  501    0  0.00000000000E+00  0.00000000000E+00  0.86311002457E+03  0.86311002457E+03  0.25500000000E-02 0.  1.
         -2   -1    0    0    0  501 -0.00000000000E+00 -0.00000000000E+00 -0.19421349309E+02  0.19421349476E+02  0.25500000000E-02 0. -1.
    5000001    1    1    2    0    0 -0.81307648531E+02 -0.23341591693E+02  0.21514784564E+03  0.24366649153E+03  0.77000000000E+02 0.  0.
   -5000001    1    1    2    0    0  0.81307648531E+02  0.23341591693E+02  0.62854082962E+03  0.63886488252E+03  0.77000000000E+02 0.  0.
<mgrwt>
<rscale>  0 0.25894217E+03</rscale>
<asrwt>0</asrwt>
<pdfrwt beam="1">  1        2 0.13278614E+00 0.25894217E+03</pdfrwt>
<pdfrwt beam="2">  1       -2 0.29879003E-02 0.25894217E+03</pdfrwt>
<totfact> 0.13605388E+04</totfact>
</mgrwt>
</event>
<event>
 4    1  0.5980424E-004  0.3436146E+03  0.7818608E-02  0.1065267E+00
          2   -1    0    0  501    0  0.00000000000E+00  0.00000000000E+00  0.88947768839E+02  0.88947768875E+02  0.25500000000E-02 0.  1.
         -2   -1    0    0    0  501 -0.00000000000E+00 -0.00000000000E+00 -0.33185487297E+03  0.33185487298E+03  0.25500000000E-02 0. -1.
    5000001    1    1    2    0    0 -0.73214805272E+01 -0.11924402677E+03 -0.32523829772E+01  0.14217003901E+03  0.77000000000E+02 0.  0.
   -5000001    1    1    2    0    0  0.73214805272E+01  0.11924402677E+03 -0.23965472116E+03  0.27863260285E+03  0.77000000000E+02 0.  0.
<mgrwt>
<rscale>  0 0.34361461E+03</rscale>
<asrwt>0</asrwt>
<pdfrwt beam="1">  1        2 0.13684272E-01 0.34361461E+03</pdfrwt>
<pdfrwt beam="2">  1       -2 0.51054595E-01 0.34361461E+03</pdfrwt>
<totfact> 0.16108201E+03</totfact>
</mgrwt>
</event>
<event>
 4    1  0.5980424E-004  0.1995197E+03  0.7818608E-02  0.1150145E+00
          2   -1    0    0  501    0  0.00000000000E+00  0.00000000000E+00  0.52431785209E+03  0.52431785210E+03  0.25500000000E-02 0.  1.
         -2   -1    0    0    0  501 -0.00000000000E+00 -0.00000000000E+00 -0.18980907638E+02  0.18980907809E+02  0.25500000000E-02 0. -1.
    5000001    1    1    2    0    0  0.44583618651E+02  0.43900476461E+02  0.22435968086E+03  0.24531860362E+03  0.77000000000E+02 0.  0.
   -5000001    1    1    2    0    0 -0.44583618651E+02 -0.43900476461E+02  0.28097726359E+03  0.29798015629E+03  0.77000000000E+02 0.  0.
<mgrwt>
<rscale>  0 0.19951971E+03</rscale>
<asrwt>0</asrwt>
<pdfrwt beam="1">  1        2 0.80664281E-01 0.19951971E+03</pdfrwt>
<pdfrwt beam="2">  1       -2 0.29201398E-02 0.19951971E+03</pdfrwt>
<totfact> 0.25221094E+04</totfact>
</mgrwt>
</event>
<event>
 4    1  0.5980424E-004  0.1991731E+03  0.7818608E-02  0.1150439E+00
         -2   -1    0    0    0  501 -0.00000000000E+00  0.00000000000E+00  0.20179143186E+02  0.20179143347E+02  0.25500000000E-02 0. -1.
          2   -1    0    0  501    0  0.00000000000E+00 -0.00000000000E+00 -0.49147183523E+03  0.49147183524E+03  0.25500000000E-02 0.  1.
    5000001    1    1    2    0    0  0.14714489851E+02 -0.38220659930E+02 -0.11214924021E+03  0.14206965593E+03  0.77000000000E+02 0.  0.
   -5000001    1    1    2    0    0 -0.14714489851E+02  0.38220659930E+02 -0.35914345184E+03  0.36958132266E+03  0.77000000000E+02 0.  0.
<mgrwt>
<rscale>  0 0.19917310E+03</rscale>
<asrwt>0</asrwt>
<pdfrwt beam="1">  1        2 0.75611043E-01 0.19917310E+03</pdfrwt>
<pdfrwt beam="2">  1       -2 0.31044839E-02 0.19917310E+03</pdfrwt>
<totfact> 0.24752747E+04</totfact>
</mgrwt>
</event>
<event>
 4    1  0.5980424E-004  0.1944175E+03  0.7818608E-02  0.1154536E+00
          2   -1    0    0  501    0  0.00000000000E+00  0.00000000000E+00  0.40252976713E+02  0.40252976794E+02  0.25500000000E-02 0.  1.
         -2   -1    0    0    0  501 -0.00000000000E+00 -0.00000000000E+00 -0.23475384262E+03  0.23475384263E+03  0.25500000000E-02 0. -1.
    5000001    1    1    2    0    0  0.34697203348E+02  0.47007639842E+02 -0.11187730616E+03  0.14784838774E+03  0.77000000000E+02 0.  0.
   -5000001    1    1    2    0    0 -0.34697203348E+02 -0.47007639842E+02 -0.82623559746E+02  0.12715843169E+03  0.77000000000E+02 0.  0.
<mgrwt>
<rscale>  0 0.19441750E+03</rscale>
<asrwt>0</asrwt>
<pdfrwt beam="1">  1        2 0.61927658E-02 0.19441750E+03</pdfrwt>
<pdfrwt beam="2">  1       -2 0.36115975E-01 0.19441750E+03</pdfrwt>
<totfact> 0.83123481E+03</totfact>
</mgrwt>
</event>
<event>
 4    1  0.5980424E-004  0.2072388E+03  0.7818608E-02  0.1143771E+00
         -2   -1    0    0    0  501 -0.00000000000E+00  0.00000000000E+00  0.50160387922E+01  0.50160394404E+01  0.25500000000E-02 0. -1.
          2   -1    0    0  501    0  0.00000000000E+00 -0.00000000000E+00 -0.21405304991E+04  0.21405304991E+04  0.25500000000E-02 0.  1.
    5000001    1    1    2    0    0  0.10271210175E+02  0.68393246432E+02 -0.11193675993E+04  0.11241423203E+04  0.77000000000E+02 0.  0.
   -5000001    1    1    2    0    0 -0.10271210175E+02 -0.68393246432E+02 -0.10161468610E+04  0.10214042182E+04  0.77000000000E+02 0.  0.
<mgrwt>
<rscale>  0 0.20723884E+03</rscale>
<asrwt>0</asrwt>
<pdfrwt beam="1">  1        2 0.32931166E+00 0.20723884E+03</pdfrwt>
<pdfrwt beam="2">  1       -2 0.77170004E-03 0.20723884E+03</pdfrwt>
<totfact> 0.19273065E+04</totfact>
</mgrwt>
</event>
<event>
 4    1  0.5980424E-004  0.1651292E+04  0.7818608E-02  0.8789643E-01
         -2   -1    0    0    0  501 -0.00000000000E+00  0.00000000000E+00  0.41336258861E+03  0.41336258862E+03  0.25500000000E-02 0. -1.
          2   -1    0    0  501    0  0.00000000000E+00 -0.00000000000E+00 -0.16491356331E+04  0.16491356331E+04  0.25500000000E-02 0.  1.
    5000001    1    1    2    0    0 -0.58507642753E+03  0.51646979661E+03 -0.94047873831E+03  0.12245344969E+04  0.77000000000E+02 0.  0.
   -5000001    1    1    2    0    0  0.58507642753E+03 -0.51646979661E+03 -0.29529430616E+03  0.83796372482E+03  0.77000000000E+02 0.  0.
<mgrwt>
<rscale>  0 0.16512916E+04</rscale>
<asrwt>0</asrwt>
<pdfrwt beam="1">  1        2 0.25371317E+00 0.16512916E+04</pdfrwt>
<pdfrwt beam="2">  1       -2 0.63594245E-01 0.16512916E+04</pdfrwt>
<totfact> 0.22876244E+01</totfact>
</mgrwt>
</event>
<event>
 4    1  0.5980424E-004  0.1730695E+03  0.7818608E-02  0.1174684E+00
         -2   -1    0    0    0  501 -0.00000000000E+00  0.00000000000E+00  0.35933790911E+01  0.35933799959E+01  0.25500000000E-02 0. -1.
          2   -1    0    0  501    0  0.00000000000E+00 -0.00000000000E+00 -0.20839064507E+04  0.20839064507E+04  0.25500000000E-02 0.  1.
    5000001    1    1    2    0    0  0.17871903781E+02  0.25771092163E+02 -0.75074976018E+03  0.75533949755E+03  0.77000000000E+02 0.  0.
   -5000001    1    1    2    0    0 -0.17871903781E+02 -0.25771092163E+02 -0.13295633114E+04  0.13321603331E+04  0.77000000000E+02 0.  0.
<mgrwt>
<rscale>  0 0.17306954E+03</rscale>
<asrwt>0</asrwt>
<pdfrwt beam="1">  1        2 0.32060003E+00 0.17306954E+03</pdfrwt>
<pdfrwt beam="2">  1       -2 0.55282929E-03 0.17306954E+03</pdfrwt>
<totfact> 0.33003656E+04</totfact>
</mgrwt>
</event>
<event>
 4    1  0.5980424E-004  0.1872742E+03  0.7818608E-02  0.1160943E+00
         -2   -1    0    0    0  501 -0.00000000000E+00  0.00000000000E+00  0.16479379926E+02  0.16479380124E+02  0.25500000000E-02 0. -1.
          2   -1    0    0  501    0  0.00000000000E+00 -0.00000000000E+00 -0.53205298692E+03  0.53205298692E+03  0.25500000000E-02 0.  1.
    5000001    1    1    2    0    0 -0.44416878818E+02  0.29349759781E+02 -0.26409330986E+03  0.28019376124E+03  0.77000000000E+02 0.  0.
   -5000001    1    1    2    0    0  0.44416878818E+02 -0.29349759781E+02 -0.25148029713E+03  0.26833860581E+03  0.77000000000E+02 0.  0.
<mgrwt>
<rscale>  0 0.18727417E+03</rscale>
<asrwt>0</asrwt>
<pdfrwt beam="1">  1        2 0.81854292E-01 0.18727417E+03</pdfrwt>
<pdfrwt beam="2">  1       -2 0.25352896E-02 0.18727417E+03</pdfrwt>
<totfact> 0.30409547E+04</totfact>
</mgrwt>
</event>
<event>
 4    1  0.5980424E-004  0.2610511E+03  0.7818608E-02  0.1106513E+00
         -2   -1    0    0    0  501 -0.00000000000E+00  0.00000000000E+00  0.39252283843E+02  0.39252283925E+02  0.25500000000E-02 0. -1.
          2   -1    0    0  501    0  0.00000000000E+00 -0.00000000000E+00 -0.43403634489E+03  0.43403634490E+03  0.25500000000E-02 0.  1.
    5000001    1    1    2    0    0 -0.74122154333E+02 -0.67201913199E+02 -0.13732340159E+03  0.18653929218E+03  0.77000000000E+02 0.  0.
   -5000001    1    1    2    0    0  0.74122154333E+02  0.67201913199E+02 -0.25746065946E+03  0.28674933665E+03  0.77000000000E+02 0.  0.
<mgrwt>
<rscale>  0 0.26105109E+03</rscale>
<asrwt>0</asrwt>
<pdfrwt beam="1">  1        2 0.66774819E-01 0.26105109E+03</pdfrwt>
<pdfrwt beam="2">  1       -2 0.60388132E-02 0.26105109E+03</pdfrwt>
<totfact> 0.10587353E+04</totfact>
</mgrwt>
</event>
<event>
 4    1  0.5980424E-004  0.2076792E+03  0.7818608E-02  0.1143417E+00
         -2   -1    0    0    0  501 -0.00000000000E+00  0.00000000000E+00  0.73797000851E+02  0.73797000895E+02  0.25500000000E-02 0. -1.
          2   -1    0    0  501    0  0.00000000000E+00 -0.00000000000E+00 -0.14611244230E+03  0.14611244232E+03  0.25500000000E-02 0.  1.
    5000001    1    1    2    0    0 -0.56633975181E+02  0.37282257352E+01  0.66239753056E+01  0.95886306951E+02  0.77000000000E+02 0.  0.
   -5000001    1    1    2    0    0  0.56633975181E+02 -0.37282257352E+01 -0.78939416757E+02  0.12402313627E+03  0.77000000000E+02 0.  0.
<mgrwt>
<rscale>  0 0.20767918E+03</rscale>
<asrwt>0</asrwt>
<pdfrwt beam="1">  1        2 0.22478837E-01 0.20767918E+03</pdfrwt>
<pdfrwt beam="2">  1       -2 0.11353385E-01 0.20767918E+03</pdfrwt>
<totfact> 0.12730466E+04</totfact>
</mgrwt>
</event>
<event>
 4    1  0.5980424E-004  0.3652424E+03  0.7818608E-02  0.1056527E+00
          2   -1    0    0  501    0  0.00000000000E+00  0.00000000000E+00  0.20125185380E+04  0.20125185380E+04  0.25500000000E-02 0.  1.
         -2   -1    0    0    0  501 -0.00000000000E+00 -0.00000000000E+00 -0.16571527721E+02  0.16571527917E+02  0.25500000000E-02 0. -1.
    5000001    1    1    2    0    0 -0.13939299266E+03 -0.28654861297E+02  0.52756012002E+03  0.55181535654E+03  0.77000000000E+02 0.  0.
   -5000001    1    1    2    0    0  0.13939299266E+03  0.28654861297E+02  0.14683868902E+04  0.14772747094E+04  0.77000000000E+02 0.  0.
<mgrwt>
<rscale>  0 0.36524242E+03</rscale>
<asrwt>0</asrwt>
<pdfrwt beam="1">  1        2 0.30961822E+00 0.36524242E+03</pdfrwt>
<pdfrwt beam="2">  1       -2 0.25494660E-02 0.36524242E+03</pdfrwt>
<totfact> 0.39413313E+03</totfact>
</mgrwt>
</event>
<event>
 4    1  0.5980424E-004  0.2194280E+03  0.7818608E-02  0.1134310E+00
         -2   -1    0    0    0  501 -0.00000000000E+00  0.00000000000E+00  0.18802035988E+02  0.18802036161E+02  0.25500000000E-02 0. -1.
          2   -1    0    0  501    0  0.00000000000E+00 -0.00000000000E+00 -0.64020510652E+03  0.64020510652E+03  0.25500000000E-02 0.  1.
    5000001    1    1    2    0    0  0.63130580685E+02 -0.42199139499E+01 -0.44848971287E+03  0.45942932040E+03  0.77000000000E+02 0.  0.
   -5000001    1    1    2    0    0 -0.63130580685E+02  0.42199139499E+01 -0.17291335766E+03  0.19957782229E+03  0.77000000000E+02 0.  0.
<mgrwt>
<rscale>  0 0.21942798E+03</rscale>
<asrwt>0</asrwt>
<pdfrwt beam="1">  1        2 0.98493076E-01 0.21942798E+03</pdfrwt>
<pdfrwt beam="2">  1       -2 0.28926214E-02 0.21942798E+03</pdfrwt>
<totfact> 0.20481894E+04</totfact>
</mgrwt>
</event>
<event>
 4    1  0.5980424E-004  0.3367040E+03  0.7818608E-02  0.1068208E+00
         -2   -1    0    0    0  501 -0.00000000000E+00  0.00000000000E+00  0.20266716689E+02  0.20266716849E+02  0.25500000000E-02 0. -1.
          2   -1    0    0  501    0  0.00000000000E+00 -0.00000000000E+00 -0.13984700369E+04  0.13984700369E+04  0.25500000000E-02 0.  1.
    5000001    1    1    2    0    0 -0.27098700770E+02  0.14461575960E+03 -0.57253338693E+03  0.59613046949E+03  0.77000000000E+02 0.  0.
   -5000001    1    1    2    0    0  0.27098700770E+02 -0.14461575960E+03 -0.80566993330E+03  0.82260628427E+03  0.77000000000E+02 0.  0.
<mgrwt>
<rscale>  0 0.33670400E+03</rscale>
<asrwt>0</asrwt>
<pdfrwt beam="1">  1        2 0.21514916E+00 0.33670400E+03</pdfrwt>
<pdfrwt beam="2">  1       -2 0.31179575E-02 0.33670400E+03</pdfrwt>
<totfact> 0.62099518E+03</totfact>
</mgrwt>
</event>
<event>
 4    1  0.5980424E-004  0.2836457E+03  0.7818608E-02  0.1093714E+00
          2   -1    0    0  501    0  0.00000000000E+00  0.00000000000E+00  0.10427372676E+03  0.10427372679E+03  0.25500000000E-02 0.  1.
         -2   -1    0    0    0  501 -0.00000000000E+00 -0.00000000000E+00 -0.19289351365E+03  0.19289351367E+03  0.25500000000E-02 0. -1.
    5000001    1    1    2    0    0  0.32126709529E+02  0.89648708561E+02 -0.11924366596E+03  0.17093000989E+03  0.77000000000E+02 0.  0.
   -5000001    1    1    2    0    0 -0.32126709529E+02 -0.89648708561E+02  0.30623879061E+02  0.12623723056E+03  0.77000000000E+02 0.  0.
<mgrwt>
<rscale>  0 0.28364573E+03</rscale>
<asrwt>0</asrwt>
<pdfrwt beam="1">  1        2 0.16042112E-01 0.28364573E+03</pdfrwt>
<pdfrwt beam="2">  1       -2 0.29675925E-01 0.28364573E+03</pdfrwt>
<totfact> 0.37375999E+03</totfact>
</mgrwt>
</event>
<event>
 4    1  0.5980424E-004  0.2293082E+03  0.7818608E-02  0.1127128E+00
          2   -1    0    0  501    0  0.00000000000E+00  0.00000000000E+00  0.13652595717E+04  0.13652595717E+04  0.25500000000E-02 0.  1.
         -2   -1    0    0    0  501 -0.00000000000E+00 -0.00000000000E+00 -0.96286179872E+01  0.96286183249E+01  0.25500000000E-02 0. -1.
    5000001    1    1    2    0    0  0.41457154208E+02 -0.74118765820E+02  0.66541701690E+03  0.67521929287E+03  0.77000000000E+02 0.  0.
   -5000001    1    1    2    0    0 -0.41457154208E+02  0.74118765820E+02  0.69021393685E+03  0.69966889720E+03  0.77000000000E+02 0.  0.
<mgrwt>
<rscale>  0 0.22930820E+03</rscale>
<asrwt>0</asrwt>
<pdfrwt beam="1">  1        2 0.21004003E+00 0.22930820E+03</pdfrwt>
<pdfrwt beam="2">  1       -2 0.14813252E-02 0.22930820E+03</pdfrwt>
<totfact> 0.19236671E+04</totfact>
</mgrwt>
</event>
<event>
 4    1  0.5980424E-004  0.3934827E+03  0.7818608E-02  0.1046060E+00
         -2   -1    0    0    0  501 -0.00000000000E+00  0.00000000000E+00  0.25323447438E+02  0.25323447567E+02  0.25500000000E-02 0. -1.
          2   -1    0    0  501    0  0.00000000000E+00 -0.00000000000E+00 -0.15285103599E+04  0.15285103599E+04  0.25500000000E-02 0.  1.
    5000001    1    1    2    0    0  0.25651065363E+02  0.12876962976E+03 -0.12438418496E+04  0.12531205614E+04  0.77000000000E+02 0.  0.
   -5000001    1    1    2    0    0 -0.25651065363E+02 -0.12876962976E+03 -0.25934506285E+03  0.30071324601E+03  0.77000000000E+02 0.  0.
<mgrwt>
<rscale>  0 0.39348266E+03</rscale>
<asrwt>0</asrwt>
<pdfrwt beam="1">  1        2 0.23515537E+00 0.39348266E+03</pdfrwt>
<pdfrwt beam="2">  1       -2 0.38959162E-02 0.39348266E+03</pdfrwt>
<totfact> 0.37716722E+03</totfact>
</mgrwt>
</event>
<event>
 4    1  0.5980424E-004  0.2524042E+03  0.7818608E-02  0.1111795E+00
         -2   -1    0    0    0  501 -0.00000000000E+00  0.00000000000E+00  0.31235550261E+02  0.31235550365E+02  0.25500000000E-02 0. -1.
          2   -1    0    0  501    0  0.00000000000E+00 -0.00000000000E+00 -0.50989895758E+03  0.50989895759E+03  0.25500000000E-02 0.  1.
    5000001    1    1    2    0    0  0.61198033297E+02 -0.75039777053E+02 -0.18587078233E+03  0.22327811165E+03  0.77000000000E+02 0.  0.
   -5000001    1    1    2    0    0 -0.61198033297E+02  0.75039777053E+02 -0.29279262499E+03  0.31785639630E+03  0.77000000000E+02 0.  0.
<mgrwt>
<rscale>  0 0.25240424E+03</rscale>
<asrwt>0</asrwt>
<pdfrwt beam="1">  1        2 0.78445988E-01 0.25240424E+03</pdfrwt>
<pdfrwt beam="2">  1       -2 0.48054696E-02 0.25240424E+03</pdfrwt>
<totfact> 0.12528036E+04</totfact>
</mgrwt>
</event>
<event>
 4    1  0.5980424E-004  0.3281654E+03  0.7818608E-02  0.1071952E+00
          2   -1    0    0  501    0  0.00000000000E+00  0.00000000000E+00  0.12279472399E+03  0.12279472401E+03  0.25500000000E-02 0.  1.
         -2   -1    0    0    0  501 -0.00000000000E+00 -0.00000000000E+00 -0.21925311551E+03  0.21925311552E+03  0.25500000000E-02 0. -1.
    5000001    1    1    2    0    0 -0.12702349120E+03  0.67434654630E+02 -0.29826539126E+02  0.16583432214E+03  0.77000000000E+02 0.  0.
   -5000001    1    1    2    0    0  0.12702349120E+03 -0.67434654630E+02 -0.66631852394E+02  0.17621351740E+03  0.77000000000E+02 0.  0.
<mgrwt>
<rscale>  0 0.32816536E+03</rscale>
<asrwt>0</asrwt>
<pdfrwt beam="1">  1        2 0.18891496E-01 0.32816536E+03</pdfrwt>
<pdfrwt beam="2">  1       -2 0.33731248E-01 0.32816536E+03</pdfrwt>
<totfact> 0.24491366E+03</totfact>
</mgrwt>
</event>
<event>
 4    1  0.5980424E-004  0.1686738E+03  0.7818608E-02  0.1179238E+00
          2   -1    0    0  501    0  0.00000000000E+00  0.00000000000E+00  0.54167673682E+03  0.54167673682E+03  0.25500000000E-02 0.  1.
         -2   -1    0    0    0  501 -0.00000000000E+00 -0.00000000000E+00 -0.13130915019E+02  0.13130915267E+02  0.25500000000E-02 0. -1.
    5000001    1    1    2    0    0  0.24096029449E+02 -0.18132878503E+02  0.31874837190E+03  0.32930069011E+03  0.77000000000E+02 0.  0.
   -5000001    1    1    2    0    0 -0.24096029449E+02  0.18132878503E+02  0.20979744990E+03  0.22550696199E+03  0.77000000000E+02 0.  0.
<mgrwt>
<rscale>  0 0.16867378E+03</rscale>
<asrwt>0</asrwt>
<pdfrwt beam="1">  1        2 0.83334874E-01 0.16867378E+03</pdfrwt>
<pdfrwt beam="2">  1       -2 0.20201410E-02 0.16867378E+03</pdfrwt>
<totfact> 0.41187527E+04</totfact>
</mgrwt>
</event>
<event>
 4    1  0.5980424E-004  0.2677276E+03  0.7818608E-02  0.1102587E+00
         -2   -1    0    0    0  501 -0.00000000000E+00  0.00000000000E+00  0.13644245987E+02  0.13644246225E+02  0.25500000000E-02 0. -1.
          2   -1    0    0  501    0  0.00000000000E+00 -0.00000000000E+00 -0.13133382700E+04  0.13133382700E+04  0.25500000000E-02 0.  1.
    5000001    1    1    2    0    0 -0.10176162877E+03 -0.69418324501E+01 -0.84729189385E+03  0.85687582035E+03  0.77000000000E+02 0.  0.
   -5000001    1    1    2    0    0  0.10176162877E+03  0.69418324501E+01 -0.45240213020E+03  0.47010669591E+03  0.77000000000E+02 0.  0.
<mgrwt>
<rscale>  0 0.26772755E+03</rscale>
<asrwt>0</asrwt>
<pdfrwt beam="1">  1        2 0.20205194E+00 0.26772755E+03</pdfrwt>
<pdfrwt beam="2">  1       -2 0.20991158E-02 0.26772755E+03</pdfrwt>
<totfact> 0.12395933E+04</totfact>
</mgrwt>
</event>
<event>
 4    1  0.5980424E-004  0.5324667E+03  0.7818608E-02  0.1005636E+00
         -2   -1    0    0    0  501 -0.00000000000E+00  0.00000000000E+00  0.36560424053E+02  0.36560424142E+02  0.25500000000E-02 0. -1.
          2   -1    0    0  501    0  0.00000000000E+00 -0.00000000000E+00 -0.19387140625E+04  0.19387140625E+04  0.25500000000E-02 0.  1.
    5000001    1    1    2    0    0  0.22733080908E+03 -0.16474700197E+02 -0.52810160009E+03  0.58031975024E+03  0.77000000000E+02 0.  0.
   -5000001    1    1    2    0    0 -0.22733080908E+03  0.16474700197E+02 -0.13740520384E+04  0.13949547364E+04  0.77000000000E+02 0.  0.
<mgrwt>
<rscale>  0 0.53246674E+03</rscale>
<asrwt>0</asrwt>
<pdfrwt beam="1">  1        2 0.29826362E+00 0.53246674E+03</pdfrwt>
<pdfrwt beam="2">  1       -2 0.56246821E-02 0.53246674E+03</pdfrwt>
<totfact> 0.12835895E+03</totfact>
</mgrwt>
</event>
<event>
 4    1  0.5980424E-004  0.2335612E+03  0.7818608E-02  0.1124158E+00
         -2   -1    0    0    0  501 -0.00000000000E+00  0.00000000000E+00  0.56697992757E+01  0.56697998491E+01  0.25500000000E-02 0. -1.
          2   -1    0    0  501    0  0.00000000000E+00 -0.00000000000E+00 -0.24053247270E+04  0.24053247270E+04  0.25500000000E-02 0.  1.
    5000001    1    1    2    0    0 -0.61990919301E+01 -0.78570550316E+02 -0.80043578189E+03  0.80798403514E+03  0.77000000000E+02 0.  0.
   -5000001    1    1    2    0    0  0.61990919301E+01  0.78570550316E+02 -0.15992191458E+04  0.16030104917E+04  0.77000000000E+02 0.  0.
<mgrwt>
<rscale>  0 0.23356120E+03</rscale>
<asrwt>0</asrwt>
<pdfrwt beam="1">  1        2 0.37004914E+00 0.23356120E+03</pdfrwt>
<pdfrwt beam="2">  1       -2 0.87227877E-03 0.23356120E+03</pdfrwt>
<totfact> 0.11717050E+04</totfact>
</mgrwt>
</event>
<event>
 4    1  0.5980424E-004  0.1909740E+03  0.7818608E-02  0.1157586E+00
         -2   -1    0    0    0  501 -0.00000000000E+00  0.00000000000E+00  0.10192048741E+02  0.10192049060E+02  0.25500000000E-02 0. -1.
          2   -1    0    0  501    0  0.00000000000E+00 -0.00000000000E+00 -0.89459568934E+03  0.89459568934E+03  0.25500000000E-02 0.  1.
    5000001    1    1    2    0    0  0.18478404865E+02  0.25059077985E+02 -0.66539754344E+03  0.67056118263E+03  0.77000000000E+02 0.  0.
   -5000001    1    1    2    0    0 -0.18478404865E+02 -0.25059077985E+02 -0.21900609716E+03  0.23422655577E+03  0.77000000000E+02 0.  0.
<mgrwt>
<rscale>  0 0.19097396E+03</rscale>
<asrwt>0</asrwt>
<pdfrwt beam="1">  1        2 0.13763004E+00 0.19097396E+03</pdfrwt>
<pdfrwt beam="2">  1       -2 0.15680082E-02 0.19097396E+03</pdfrwt>
<totfact> 0.32889512E+04</totfact>
</mgrwt>
</event>
<event>
 4    1  0.5980424E-004  0.1827295E+03  0.7818608E-02  0.1165187E+00
         -2   -1    0    0    0  501 -0.00000000000E+00  0.00000000000E+00  0.23035069143E+02  0.23035069285E+02  0.25500000000E-02 0. -1.
          2   -1    0    0  501    0  0.00000000000E+00 -0.00000000000E+00 -0.36238295275E+03  0.36238295275E+03  0.25500000000E-02 0.  1.
    5000001    1    1    2    0    0 -0.32362843623E+02  0.25653241684E+02 -0.11335030799E+03  0.14311790516E+03  0.77000000000E+02 0.  0.
   -5000001    1    1    2    0    0  0.32362843623E+02 -0.25653241684E+02 -0.22599757562E+03  0.24230011688E+03  0.77000000000E+02 0.  0.
<mgrwt>
<rscale>  0 0.18272949E+03</rscale>
<asrwt>0</asrwt>
<pdfrwt beam="1">  1        2 0.55751219E-01 0.18272949E+03</pdfrwt>
<pdfrwt beam="2">  1       -2 0.35438571E-02 0.18272949E+03</pdfrwt>
<totfact> 0.28116371E+04</totfact>
</mgrwt>
</event>
<event>
 4    1  0.5980424E-004  0.2777834E+03  0.7818608E-02  0.1096906E+00
          2   -1    0    0  501    0  0.00000000000E+00  0.00000000000E+00  0.92654664476E+03  0.92654664476E+03  0.25500000000E-02 0.  1.
         -2   -1    0    0    0  501 -0.00000000000E+00 -0.00000000000E+00 -0.20820218061E+02  0.20820218217E+02  0.25500000000E-02 0. -1.
    5000001    1    1    2    0    0  0.21889287902E+02 -0.10971189984E+03  0.35366294515E+03  0.37884339860E+03  0.77000000000E+02 0.  0.
   -5000001    1    1    2    0    0 -0.21889287902E+02  0.10971189984E+03  0.55206348154E+03  0.56852346438E+03  0.77000000000E+02 0.  0.
<mgrwt>
<rscale>  0 0.27778339E+03</rscale>
<asrwt>0</asrwt>
<pdfrwt beam="1">  1        2 0.14254562E+00 0.27778339E+03</pdfrwt>
<pdfrwt beam="2">  1       -2 0.32031109E-02 0.27778339E+03</pdfrwt>
<totfact> 0.11187532E+04</totfact>
</mgrwt>
</event>
<event>
 4    1  0.5980424E-004  0.1878492E+03  0.7818608E-02  0.1160416E+00
          2   -1    0    0  501    0  0.00000000000E+00  0.00000000000E+00  0.16266573893E+02  0.16266574093E+02  0.25500000000E-02 0.  1.
         -2   -1    0    0    0  501 -0.00000000000E+00 -0.00000000000E+00 -0.54232882773E+03  0.54232882774E+03  0.25500000000E-02 0. -1.
    5000001    1    1    2    0    0 -0.40738967700E+02  0.22564238721E+02 -0.34304482538E+03  0.35465132254E+03  0.77000000000E+02 0.  0.
   -5000001    1    1    2    0    0  0.40738967700E+02 -0.22564238721E+02 -0.18301742846E+03  0.20394407929E+03  0.77000000000E+02 0.  0.
<mgrwt>
<rscale>  0 0.18784922E+03</rscale>
<asrwt>0</asrwt>
<pdfrwt beam="1">  1        2 0.25025503E-02 0.18784922E+03</pdfrwt>
<pdfrwt beam="2">  1       -2 0.83435190E-01 0.18784922E+03</pdfrwt>
<totfact> 0.50645802E+03</totfact>
</mgrwt>
</event>
<event>
 4    1  0.5980424E-004  0.4900858E+03  0.7818608E-02  0.1016400E+00
         -2   -1    0    0    0  501 -0.00000000000E+00  0.00000000000E+00  0.37692097185E+02  0.37692097271E+02  0.25500000000E-02 0. -1.
          2   -1    0    0  501    0  0.00000000000E+00 -0.00000000000E+00 -0.15930666613E+04  0.15930666614E+04  0.25500000000E-02 0.  1.
    5000001    1    1    2    0    0 -0.18096751358E+03 -0.51986577859E+02 -0.32308284634E+03  0.38178969453E+03  0.77000000000E+02 0.  0.
   -5000001    1    1    2    0    0  0.18096751358E+03  0.51986577859E+02 -0.12322917178E+04  0.12489690641E+04  0.77000000000E+02 0.  0.
<mgrwt>
<rscale>  0 0.49008580E+03</rscale>
<asrwt>0</asrwt>
<pdfrwt beam="1">  1        2 0.24508713E+00 0.49008580E+03</pdfrwt>
<pdfrwt beam="2">  1       -2 0.57987855E-02 0.49008580E+03</pdfrwt>
<totfact> 0.18841354E+03</totfact>
</mgrwt>
</event>
<event>
 4    1  0.5980424E-004  0.1923939E+03  0.7818608E-02  0.1156320E+00
         -2   -1    0    0    0  501 -0.00000000000E+00  0.00000000000E+00  0.52101989343E+01  0.52101995583E+01  0.25500000000E-02 0. -1.
          2   -1    0    0  501    0  0.00000000000E+00 -0.00000000000E+00 -0.17761026330E+04  0.17761026330E+04  0.25500000000E-02 0.  1.
    5000001    1    1    2    0    0 -0.37140323227E+02 -0.42428401404E+02 -0.77385100389E+03  0.77971401749E+03  0.77000000000E+02 0.  0.
   -5000001    1    1    2    0    0  0.37140323227E+02  0.42428401404E+02 -0.99704143015E+03  0.10015988150E+04  0.77000000000E+02 0.  0.
<mgrwt>
<rscale>  0 0.19239385E+03</rscale>
<asrwt>0</asrwt>
<pdfrwt beam="1">  1        2 0.27324608E+00 0.19239385E+03</pdfrwt>
<pdfrwt beam="2">  1       -2 0.80157053E-03 0.19239385E+03</pdfrwt>
<totfact> 0.28144443E+04</totfact>
</mgrwt>
</event>
<event>
 4    1  0.5980424E-004  0.2283368E+03  0.7818608E-02  0.1127816E+00
          2   -1    0    0  501    0  0.00000000000E+00  0.00000000000E+00  0.68170500582E+02  0.68170500630E+02  0.25500000000E-02 0.  1.
         -2   -1    0    0    0  501 -0.00000000000E+00 -0.00000000000E+00 -0.19120324711E+03  0.19120324713E+03  0.25500000000E-02 0. -1.
    5000001    1    1    2    0    0 -0.18314357872E+02  0.82272923289E+02 -0.62745835077E+02  0.13027006345E+03  0.77000000000E+02 0.  0.
   -5000001    1    1    2    0    0  0.18314357872E+02 -0.82272923289E+02 -0.60286911455E+02  0.12910368431E+03  0.77000000000E+02 0.  0.
<mgrwt>
<rscale>  0 0.22833678E+03</rscale>
<asrwt>0</asrwt>
<pdfrwt beam="1">  1        2 0.10487769E-01 0.22833678E+03</pdfrwt>
<pdfrwt beam="2">  1       -2 0.29415884E-01 0.22833678E+03</pdfrwt>
<totfact> 0.62829598E+03</totfact>
</mgrwt>
</event>
<event>
 4    1  0.5980424E-004  0.2727227E+03  0.7818608E-02  0.1099731E+00
         -2   -1    0    0    0  501 -0.00000000000E+00  0.00000000000E+00  0.22883896124E+04  0.22883896124E+04  0.25500000000E-02 0. -1.
          2   -1    0    0  501    0  0.00000000000E+00 -0.00000000000E+00 -0.81255449639E+01  0.81255453640E+01  0.25500000000E-02 0.  1.
    5000001    1    1    2    0    0  0.89968301179E+02  0.58936783197E+02  0.14191067811E+04  0.14252581856E+04  0.77000000000E+02 0.  0.
   -5000001    1    1    2    0    0 -0.89968301179E+02 -0.58936783197E+02  0.86115728637E+03  0.87125697214E+03  0.77000000000E+02 0.  0.
<mgrwt>
<rscale>  0 0.27272267E+03</rscale>
<asrwt>0</asrwt>
<pdfrwt beam="1">  1        2 0.12500829E-02 0.27272267E+03</pdfrwt>
<pdfrwt beam="2">  1       -2 0.35206022E+00 0.27272267E+03</pdfrwt>
<totfact> 0.18921651E+02</totfact>
</mgrwt>
</event>
<event>
 4    1  0.5980424E-004  0.8107083E+03  0.7818608E-02  0.9544645E-01
          2   -1    0    0  501    0  0.00000000000E+00  0.00000000000E+00  0.23945317295E+04  0.23945317295E+04  0.25500000000E-02 0.  1.
         -2   -1    0    0    0  501 -0.00000000000E+00 -0.00000000000E+00 -0.68619679094E+02  0.68619679142E+02  0.25500000000E-02 0. -1.
    5000001    1    1    2    0    0  0.36465679008E+03  0.12889000419E+02  0.68024088736E+03  0.77575599625E+03  0.77000000000E+02 0.  0.
   -5000001    1    1    2    0    0 -0.36465679008E+03 -0.12889000419E+02  0.16456711631E+04  0.16873954124E+04  0.77000000000E+02 0.  0.
<mgrwt>
<rscale>  0 0.81070833E+03</rscale>
<asrwt>0</asrwt>
<pdfrwt beam="1">  1        2 0.36838953E+00 0.81070833E+03</pdfrwt>
<pdfrwt beam="2">  1       -2 0.10556873E-01 0.81070833E+03</pdfrwt>
<totfact> 0.25888898E+02</totfact>
</mgrwt>
</event>
<event>
 4    1  0.5980424E-004  0.1738174E+03  0.7818608E-02  0.1173924E+00
          2   -1    0    0  501    0  0.00000000000E+00  0.00000000000E+00  0.15783424211E+04  0.15783424211E+04  0.25500000000E-02 0.  1.
         -2   -1    0    0    0  501 -0.00000000000E+00 -0.00000000000E+00 -0.47854752785E+01  0.47854759579E+01  0.25500000000E-02 0. -1.
    5000001    1    1    2    0    0 -0.29523611492E+02 -0.23354502381E+02  0.65572369423E+03  0.66130147406E+03  0.77000000000E+02 0.  0.
   -5000001    1    1    2    0    0  0.29523611492E+02  0.23354502381E+02  0.91783325160E+03  0.92182642301E+03  0.77000000000E+02 0.  0.
<mgrwt>
<rscale>  0 0.17381737E+03</rscale>
<asrwt>0</asrwt>
<pdfrwt beam="1">  1        2 0.24282216E+00 0.17381737E+03</pdfrwt>
<pdfrwt beam="2">  1       -2 0.73622625E-03 0.17381737E+03</pdfrwt>
<totfact> 0.40040757E+04</totfact>
</mgrwt>
</event>
<event>
 4    1  0.5980424E-004  0.3631583E+03  0.7818608E-02  0.1057340E+00
          2   -1    0    0  501    0  0.00000000000E+00  0.00000000000E+00  0.73728609114E+02  0.73728609158E+02  0.25500000000E-02 0.  1.
         -2   -1    0    0    0  501 -0.00000000000E+00 -0.00000000000E+00 -0.44719386379E+03  0.44719386380E+03  0.25500000000E-02 0. -1.
    5000001    1    1    2    0    0 -0.14637903327E+03 -0.57167237432E+02 -0.25622544480E+03  0.31028276294E+03  0.77000000000E+02 0.  0.
   -5000001    1    1    2    0    0  0.14637903327E+03  0.57167237432E+02 -0.11723980988E+03  0.21063971002E+03  0.77000000000E+02 0.  0.
<mgrwt>
<rscale>  0 0.36315827E+03</rscale>
<asrwt>0</asrwt>
<pdfrwt beam="1">  1        2 0.11342863E-01 0.36315827E+03</pdfrwt>
<pdfrwt beam="2">  1       -2 0.68799054E-01 0.36315827E+03</pdfrwt>
<totfact> 0.10907771E+03</totfact>
</mgrwt>
</event>
<event>
 4    1  0.5980424E-004  0.3275003E+03  0.7818608E-02  0.1072248E+00
         -2   -1    0    0    0  501 -0.00000000000E+00  0.00000000000E+00  0.56251011650E+03  0.56251011651E+03  0.25500000000E-02 0. -1.
          2   -1    0    0  501    0  0.00000000000E+00 -0.00000000000E+00 -0.47668681085E+02  0.47668681153E+02  0.25500000000E-02 0.  1.
    5000001    1    1    2    0    0  0.91195439245E+02  0.67241859927E+02  0.42455419427E+03  0.44610911192E+03  0.77000000000E+02 0.  0.
   -5000001    1    1    2    0    0 -0.91195439245E+02 -0.67241859927E+02  0.90287241151E+02  0.16406968574E+03  0.77000000000E+02 0.  0.
<mgrwt>
<rscale>  0 0.32750032E+03</rscale>
<asrwt>0</asrwt>
<pdfrwt beam="1">  1        2 0.73336433E-02 0.32750032E+03</pdfrwt>
<pdfrwt beam="2">  1       -2 0.86540017E-01 0.32750032E+03</pdfrwt>
<totfact> 0.11411332E+03</totfact>
</mgrwt>
</event>
<event>
 4    1  0.5980424E-004  0.2097593E+03  0.7818608E-02  0.1141757E+00
         -2   -1    0    0    0  501 -0.00000000000E+00  0.00000000000E+00  0.82070310751E+01  0.82070314712E+01  0.25500000000E-02 0. -1.
          2   -1    0    0  501    0  0.00000000000E+00 -0.00000000000E+00 -0.13402819906E+04  0.13402819906E+04  0.25500000000E-02 0.  1.
    5000001    1    1    2    0    0  0.52265180159E+01 -0.70605806297E+02 -0.61697648207E+03  0.62578069305E+03  0.77000000000E+02 0.  0.
   -5000001    1    1    2    0    0 -0.52265180159E+01  0.70605806297E+02 -0.71509847742E+03  0.72270832899E+03  0.77000000000E+02 0.  0.
<mgrwt>
<rscale>  0 0.20975925E+03</rscale>
<asrwt>0</asrwt>
<pdfrwt beam="1">  1        2 0.20619706E+00 0.20975925E+03</pdfrwt>
<pdfrwt beam="2">  1       -2 0.12626213E-02 0.20975925E+03</pdfrwt>
<totfact> 0.24924781E+04</totfact>
</mgrwt>
</event>
<event>
 4    1  0.5980424E-004  0.2508373E+03  0.7818608E-02  0.1112777E+00
          2   -1    0    0  501    0  0.00000000000E+00  0.00000000000E+00  0.36886057616E+03  0.36886057616E+03  0.25500000000E-02 0.  1.
         -2   -1    0    0    0  501 -0.00000000000E+00 -0.00000000000E+00 -0.42644403301E+02  0.42644403377E+02  0.25500000000E-02 0. -1.
    5000001    1    1    2    0    0 -0.33831877606E+02 -0.68749664114E+02  0.26594857813E+03  0.28727819003E+03  0.77000000000E+02 0.  0.
   -5000001    1    1    2    0    0  0.33831877606E+02  0.68749664114E+02  0.60267594724E+02  0.12422678951E+03  0.77000000000E+02 0.  0.
<mgrwt>
<rscale>  0 0.25083731E+03</rscale>
<asrwt>0</asrwt>
<pdfrwt beam="1">  1        2 0.56747784E-01 0.25083731E+03</pdfrwt>
<pdfrwt beam="2">  1       -2 0.65606771E-02 0.25083731E+03</pdfrwt>
<totfact> 0.11102121E+04</totfact>
</mgrwt>
</event>
<event>
 4    1  0.5980424E-004  0.2612009E+03  0.7818608E-02  0.1106424E+00
          2   -1    0    0  501    0  0.00000000000E+00  0.00000000000E+00  0.20369755903E+04  0.20369755903E+04  0.25500000000E-02 0.  1.
         -2   -1    0    0    0  501 -0.00000000000E+00 -0.00000000000E+00 -0.83734322483E+01  0.83734326366E+01  0.25500000000E-02 0. -1.
    5000001    1    1    2    0    0  0.94914766762E+02 -0.33056287402E+02  0.76348516008E+03  0.77391221773E+03  0.77000000000E+02 0.  0.
   -5000001    1    1    2    0    0 -0.94914766762E+02  0.33056287402E+02  0.12651169980E+04  0.12714368052E+04  0.77000000000E+02 0.  0.
<mgrwt>
<rscale>  0 0.26120090E+03</rscale>
<asrwt>0</asrwt>
<pdfrwt beam="1">  1        2 0.31338115E+00 0.26120090E+03</pdfrwt>
<pdfrwt beam="2">  1       -2 0.12882192E-02 0.26120090E+03</pdfrwt>
<totfact> 0.10461483E+04</totfact>
</mgrwt>
</event>
<event>
 4    1  0.5980424E-004  0.1988492E+03  0.7818608E-02  0.1150714E+00
          2   -1    0    0  501    0  0.00000000000E+00  0.00000000000E+00  0.30564539397E+02  0.30564539504E+02  0.25500000000E-02 0.  1.
         -2   -1    0    0    0  501 -0.00000000000E+00 -0.00000000000E+00 -0.32342227293E+03  0.32342227294E+03  0.25500000000E-02 0. -1.
    5000001    1    1    2    0    0  0.20667184008E+02  0.58019068316E+02 -0.12370749976E+03  0.15819573408E+03  0.77000000000E+02 0.  0.
   -5000001    1    1    2    0    0 -0.20667184008E+02 -0.58019068316E+02 -0.16915023377E+03  0.19579107837E+03  0.77000000000E+02 0.  0.
<mgrwt>
<rscale>  0 0.19884922E+03</rscale>
<asrwt>0</asrwt>
<pdfrwt beam="1">  1        2 0.47022371E-02 0.19884922E+03</pdfrwt>
<pdfrwt beam="2">  1       -2 0.49757270E-01 0.19884922E+03</pdfrwt>
<totfact> 0.64410644E+03</totfact>
</mgrwt>
</event>
<event>
 4    1  0.5980424E-004  0.3596204E+03  0.7818608E-02  0.1058734E+00
         -2   -1    0    0    0  501 -0.00000000000E+00  0.00000000000E+00  0.44720040320E+02  0.44720040392E+02  0.25500000000E-02 0. -1.
          2   -1    0    0  501    0  0.00000000000E+00 -0.00000000000E+00 -0.72298026064E+03  0.72298026064E+03  0.25500000000E-02 0.  1.
    5000001    1    1    2    0    0 -0.10575963403E+03 -0.25164851476E+02 -0.59693475622E+03  0.61161954933E+03  0.77000000000E+02 0.  0.
   -5000001    1    1    2    0    0  0.10575963403E+03  0.25164851476E+02 -0.81325464095E+02  0.15608075170E+03  0.77000000000E+02 0.  0.
<mgrwt>
<rscale>  0 0.35962039E+03</rscale>
<asrwt>0</asrwt>
<pdfrwt beam="1">  1        2 0.11122772E+00 0.35962039E+03</pdfrwt>
<pdfrwt beam="2">  1       -2 0.68800068E-02 0.35962039E+03</pdfrwt>
<totfact> 0.48472901E+03</totfact>
</mgrwt>
</event>
<event>
 4    1  0.5980424E-004  0.1955270E+03  0.7818608E-02  0.1153569E+00
         -2   -1    0    0    0  501 -0.00000000000E+00  0.00000000000E+00  0.39348237236E+02  0.39348237319E+02  0.25500000000E-02 0. -1.
          2   -1    0    0  501    0  0.00000000000E+00 -0.00000000000E+00 -0.24290036305E+03  0.24290036306E+03  0.25500000000E-02 0.  1.
    5000001    1    1    2    0    0  0.16842529873E+02 -0.53961031730E+02 -0.71729968209E+02  0.11945564908E+03  0.77000000000E+02 0.  0.
   -5000001    1    1    2    0    0 -0.16842529873E+02  0.53961031730E+02 -0.13182215760E+03  0.16279295130E+03  0.77000000000E+02 0.  0.
<mgrwt>
<rscale>  0 0.19552699E+03</rscale>
<asrwt>0</asrwt>
<pdfrwt beam="1">  1        2 0.37369286E-01 0.19552699E+03</pdfrwt>
<pdfrwt beam="2">  1       -2 0.60535751E-02 0.19552699E+03</pdfrwt>
<totfact> 0.19367494E+04</totfact>
</mgrwt>
</event>
<event>
 4    1  0.5980424E-004  0.1972116E+03  0.7818608E-02  0.1152113E+00
         -2   -1    0    0    0  501 -0.00000000000E+00  0.00000000000E+00  0.13539367449E+03  0.13539367452E+03  0.25500000000E-02 0. -1.
          2   -1    0    0  501    0  0.00000000000E+00 -0.00000000000E+00 -0.71813563317E+02  0.71813563362E+02  0.25500000000E-02 0.  1.
    5000001    1    1    2    0    0  0.54503478180E+02 -0.28696184533E+02  0.31742108492E+02  0.10358890670E+03  0.77000000000E+02 0.  0.
   -5000001    1    1    2    0    0 -0.54503478180E+02  0.28696184533E+02  0.31838002682E+02  0.10361833117E+03  0.77000000000E+02 0.  0.
<mgrwt>
<rscale>  0 0.19721158E+03</rscale>
<asrwt>0</asrwt>
<pdfrwt beam="1">  1        2 0.11048240E-01 0.19721158E+03</pdfrwt>
<pdfrwt beam="2">  1       -2 0.20829796E-01 0.19721158E+03</pdfrwt>
<totfact> 0.10714041E+04</totfact>
</mgrwt>
</event>
<event>
 4    1  0.5980424E-004  0.2222860E+03  0.7818608E-02  0.1132190E+00
          2   -1    0    0  501    0  0.00000000000E+00  0.00000000000E+00  0.88502956902E+03  0.88502956902E+03  0.25500000000E-02 0.  1.
         -2   -1    0    0    0  501 -0.00000000000E+00 -0.00000000000E+00 -0.13957466166E+02  0.13957466399E+02  0.25500000000E-02 0. -1.
    5000001    1    1    2    0    0 -0.21311330445E+01  0.80076204611E+02  0.44625919123E+03  0.45988368750E+03  0.77000000000E+02 0.  0.
   -5000001    1    1    2    0    0  0.21311330445E+01 -0.80076204611E+02  0.42481291163E+03  0.43910334792E+03  0.77000000000E+02 0.  0.
<mgrwt>
<rscale>  0 0.22228604E+03</rscale>
<asrwt>0</asrwt>
<pdfrwt beam="1">  1        2 0.13615840E+00 0.22228604E+03</pdfrwt>
<pdfrwt beam="2">  1       -2 0.21473024E-02 0.22228604E+03</pdfrwt>
<totfact> 0.21286213E+04</totfact>
</mgrwt>
</event>
<event>
 4    1  0.5980424E-004  0.2905488E+03  0.7818608E-02  0.1090063E+00
         -2   -1    0    0    0  501 -0.00000000000E+00  0.00000000000E+00  0.12541342967E+03  0.12541342970E+03  0.25500000000E-02 0. -1.
          2   -1    0    0  501    0  0.00000000000E+00 -0.00000000000E+00 -0.16828067694E+03  0.16828067696E+03  0.25500000000E-02 0.  1.
    5000001    1    1    2    0    0  0.10888863486E+03  0.56518233707E+02 -0.10149838342E+02  0.14520008526E+03  0.77000000000E+02 0.  0.
   -5000001    1    1    2    0    0 -0.10888863486E+03 -0.56518233707E+02 -0.32717408925E+02  0.14849402139E+03  0.77000000000E+02 0.  0.
<mgrwt>
<rscale>  0 0.29054884E+03</rscale>
<asrwt>0</asrwt>
<pdfrwt beam="1">  1        2 0.25889335E-01 0.29054884E+03</pdfrwt>
<pdfrwt beam="2">  1       -2 0.19294374E-01 0.29054884E+03</pdfrwt>
<totfact> 0.46060661E+03</totfact>
</mgrwt>
</event>
<event>
 4    1  0.5980424E-004  0.2297365E+03  0.7818608E-02  0.1126825E+00
          2   -1    0    0  501    0  0.00000000000E+00  0.00000000000E+00  0.17773466565E+04  0.17773466565E+04  0.25500000000E-02 0.  1.
         -2   -1    0    0    0  501 -0.00000000000E+00 -0.00000000000E+00 -0.74238283120E+01  0.74238287499E+01  0.25500000000E-02 0. -1.
    5000001    1    1    2    0    0 -0.70182685438E+02 -0.39680305655E+02  0.10999165705E+04  0.11055521689E+04  0.77000000000E+02 0.  0.
   -5000001    1    1    2    0    0  0.70182685438E+02  0.39680305655E+02  0.67000625768E+03  0.67921831640E+03  0.77000000000E+02 0.  0.
<mgrwt>
<rscale>  0 0.22973652E+03</rscale>
<asrwt>0</asrwt>
<pdfrwt beam="1">  1        2 0.27343817E+00 0.22973652E+03</pdfrwt>
<pdfrwt beam="2">  1       -2 0.11421265E-02 0.22973652E+03</pdfrwt>
<totfact> 0.16986257E+04</totfact>
</mgrwt>
</event>
<event>
 4    1  0.5980424E-004  0.3594083E+03  0.7818608E-02  0.1058818E+00
          2   -1    0    0  501    0  0.00000000000E+00  0.00000000000E+00  0.41386848591E+03  0.41386848592E+03  0.25500000000E-02 0.  1.
         -2   -1    0    0    0  501 -0.00000000000E+00 -0.00000000000E+00 -0.78028615979E+02  0.78028616020E+02  0.25500000000E-02 0. -1.
    5000001    1    1    2    0    0  0.12501555757E+03  0.10195199264E+03  0.19321134547E+03  0.26321611360E+03  0.77000000000E+02 0.  0.
   -5000001    1    1    2    0    0 -0.12501555757E+03 -0.10195199264E+03  0.14262852446E+03  0.22868098834E+03  0.77000000000E+02 0.  0.
<mgrwt>
<rscale>  0 0.35940832E+03</rscale>
<asrwt>0</asrwt>
<pdfrwt beam="1">  1        2 0.63672073E-01 0.35940832E+03</pdfrwt>
<pdfrwt beam="2">  1       -2 0.12004403E-01 0.35940832E+03</pdfrwt>
<totfact> 0.38148629E+03</totfact>
</mgrwt>
</event>
<event>
 4    1  0.5980424E-004  0.2508779E+03  0.7818608E-02  0.1112751E+00
         -2   -1    0    0    0  501 -0.00000000000E+00  0.00000000000E+00  0.91952881862E+01  0.91952885398E+01  0.25500000000E-02 0. -1.
          2   -1    0    0  501    0  0.00000000000E+00 -0.00000000000E+00 -0.17111951311E+04  0.17111951311E+04  0.25500000000E-02 0.  1.
    5000001    1    1    2    0    0 -0.22009586638E+02 -0.95341280652E+02 -0.74665101890E+03  0.75696177296E+03  0.77000000000E+02 0.  0.
   -5000001    1    1    2    0    0  0.22009586638E+02  0.95341280652E+02 -0.95534882403E+03  0.96342864670E+03  0.77000000000E+02 0.  0.
<mgrwt>
<rscale>  0 0.25087792E+03</rscale>
<asrwt>0</asrwt>
<pdfrwt beam="1">  1        2 0.26326054E+00 0.25087792E+03</pdfrwt>
<pdfrwt beam="2">  1       -2 0.14146611E-02 0.25087792E+03</pdfrwt>
<totfact> 0.13512110E+04</totfact>
</mgrwt>
</event>
<event>
 4    1  0.5980424E-004  0.2515253E+03  0.7818608E-02  0.1112345E+00
         -2   -1    0    0    0  501 -0.00000000000E+00  0.00000000000E+00  0.21107558339E+02  0.21107558493E+02  0.25500000000E-02 0. -1.
          2   -1    0    0  501    0  0.00000000000E+00 -0.00000000000E+00 -0.74931683881E+03  0.74931683881E+03  0.25500000000E-02 0.  1.
    5000001    1    1    2    0    0 -0.26280906556E+02  0.43379394544E+02 -0.10213603530E+03  0.13759806549E+03  0.77000000000E+02 0.  0.
   -5000001    1    1    2    0    0  0.26280906556E+02 -0.43379394544E+02 -0.62607324517E+03  0.63282633181E+03  0.77000000000E+02 0.  0.
<mgrwt>
<rscale>  0 0.25152534E+03</rscale>
<asrwt>0</asrwt>
<pdfrwt beam="1">  1        2 0.11527949E+00 0.25152534E+03</pdfrwt>
<pdfrwt beam="2">  1       -2 0.32473173E-02 0.25152534E+03</pdfrwt>
<totfact> 0.14373211E+04</totfact>
</mgrwt>
</event>
<event>
 4    1  0.5980424E-004  0.3727751E+03  0.7818608E-02  0.1053637E+00
         -2   -1    0    0    0  501 -0.00000000000E+00  0.00000000000E+00  0.68488678016E+02  0.68488678063E+02  0.25500000000E-02 0. -1.
          2   -1    0    0  501    0  0.00000000000E+00 -0.00000000000E+00 -0.50724181670E+03  0.50724181671E+03  0.25500000000E-02 0.  1.
    5000001    1    1    2    0    0 -0.15709521739E+03  0.57075674799E+02 -0.17369698798E+03  0.25305371685E+03  0.77000000000E+02 0.  0.
   -5000001    1    1    2    0    0  0.15709521739E+03 -0.57075674799E+02 -0.26505615071E+03  0.32267677792E+03  0.77000000000E+02 0.  0.
<mgrwt>
<rscale>  0 0.37277511E+03</rscale>
<asrwt>0</asrwt>
<pdfrwt beam="1">  1        2 0.78037200E-01 0.37277511E+03</pdfrwt>
<pdfrwt beam="2">  1       -2 0.10536720E-01 0.37277511E+03</pdfrwt>
<totfact> 0.37556375E+03</totfact>
</mgrwt>
</event>
<event>
 4    1  0.5980424E-004  0.2708139E+03  0.7818608E-02  0.1100815E+00
         -2   -1    0    0    0  501 -0.00000000000E+00  0.00000000000E+00  0.33522093108E+02  0.33522093205E+02  0.25500000000E-02 0. -1.
          2   -1    0    0  501    0  0.00000000000E+00 -0.00000000000E+00 -0.54695380294E+03  0.54695380294E+03  0.25500000000E-02 0.  1.
    5000001    1    1    2    0    0  0.10939887420E+03  0.70428879516E+01 -0.21447736288E+03  0.25287794513E+03  0.77000000000E+02 0.  0.
   -5000001    1    1    2    0    0 -0.10939887420E+03 -0.70428879516E+01 -0.29895434695E+03  0.32759795102E+03  0.77000000000E+02 0.  0.
<mgrwt>
<rscale>  0 0.27081386E+03</rscale>
<asrwt>0</asrwt>
<pdfrwt beam="1">  1        2 0.84146732E-01 0.27081386E+03</pdfrwt>
<pdfrwt beam="2">  1       -2 0.51572455E-02 0.27081386E+03</pdfrwt>
<totfact> 0.10429057E+04</totfact>
</mgrwt>
</event>
<event>
 4    1  0.5980424E-004  0.5734918E+03  0.7818608E-02  0.9961981E-01
         -2   -1    0    0    0  501 -0.00000000000E+00  0.00000000000E+00  0.97124180162E+02  0.97124180195E+02  0.25500000000E-02 0. -1.
          2   -1    0    0  501    0  0.00000000000E+00 -0.00000000000E+00 -0.84657805386E+03  0.84657805386E+03  0.25500000000E-02 0.  1.
    5000001    1    1    2    0    0 -0.33353965193E+02  0.25630397830E+03 -0.53502952057E+03  0.59915757874E+03  0.77000000000E+02 0.  0.
   -5000001    1    1    2    0    0  0.33353965193E+02 -0.25630397830E+03 -0.21442435313E+03  0.34454465531E+03  0.77000000000E+02 0.  0.
<mgrwt>
<rscale>  0 0.57349176E+03</rscale>
<asrwt>0</asrwt>
<pdfrwt beam="1">  1        2 0.13024277E+00 0.57349176E+03</pdfrwt>
<pdfrwt beam="2">  1       -2 0.14942182E-01 0.57349176E+03</pdfrwt>
<totfact> 0.11316563E+03</totfact>
</mgrwt>
</event>
<event>
 4    1  0.5980424E-004  0.2145759E+03  0.7818608E-02  0.1137993E+00
         -2   -1    0    0    0  501 -0.00000000000E+00  0.00000000000E+00  0.59961319722E+02  0.59961319776E+02  0.25500000000E-02 0. -1.
          2   -1    0    0  501    0  0.00000000000E+00 -0.00000000000E+00 -0.19196885363E+03  0.19196885365E+03  0.25500000000E-02 0.  1.
    5000001    1    1    2    0    0  0.38838190233E+02 -0.42670698158E+02 -0.12172655011E+03  0.15516296757E+03  0.77000000000E+02 0.  0.
   -5000001    1    1    2    0    0 -0.38838190233E+02  0.42670698158E+02 -0.10280983799E+02  0.96767205859E+02  0.77000000000E+02 0.  0.
<mgrwt>
<rscale>  0 0.21457591E+03</rscale>
<asrwt>0</asrwt>
<pdfrwt beam="1">  1        2 0.29533670E-01 0.21457591E+03</pdfrwt>
<pdfrwt beam="2">  1       -2 0.92248185E-02 0.21457591E+03</pdfrwt>
<totfact> 0.13101022E+04</totfact>
</mgrwt>
</event>
<event>
 4    1  0.5980424E-004  0.1786201E+03  0.7818608E-02  0.1169145E+00
         -2   -1    0    0    0  501 -0.00000000000E+00  0.00000000000E+00  0.59123959814E+01  0.59123965313E+01  0.25500000000E-02 0. -1.
          2   -1    0    0  501    0  0.00000000000E+00 -0.00000000000E+00 -0.13490788201E+04  0.13490788201E+04  0.25500000000E-02 0.  1.
    5000001    1    1    2    0    0  0.38336153652E+01 -0.39028885136E+02 -0.50038109456E+03  0.50778754443E+03  0.77000000000E+02 0.  0.
   -5000001    1    1    2    0    0 -0.38336153652E+01  0.39028885136E+02 -0.84278532952E+03  0.84720367217E+03  0.77000000000E+02 0.  0.
<mgrwt>
<rscale>  0 0.17862014E+03</rscale>
<asrwt>0</asrwt>
<pdfrwt beam="1">  1        2 0.20755034E+00 0.17862014E+03</pdfrwt>
<pdfrwt beam="2">  1       -2 0.90960049E-03 0.17862014E+03</pdfrwt>
<totfact> 0.39178798E+04</totfact>
</mgrwt>
</event>
<event>
 4    1  0.5980424E-004  0.3221465E+03  0.7818608E-02  0.1074666E+00
          2   -1    0    0  501    0  0.00000000000E+00  0.00000000000E+00  0.22762087760E+04  0.22762087760E+04  0.25500000000E-02 0.  1.
         -2   -1    0    0    0  501 -0.00000000000E+00 -0.00000000000E+00 -0.11398157647E+02  0.11398157933E+02  0.25500000000E-02 0. -1.
    5000001    1    1    2    0    0  0.11073799841E+03 -0.72535511458E+02  0.77796795854E+03  0.79289813295E+03  0.77000000000E+02 0.  0.
   -5000001    1    1    2    0    0 -0.11073799841E+03  0.72535511458E+02  0.14868426598E+04  0.14947088010E+04  0.77000000000E+02 0.  0.
<mgrwt>
<rscale>  0 0.32214647E+03</rscale>
<asrwt>0</asrwt>
<pdfrwt beam="1">  1        2 0.35018585E+00 0.32214647E+03</pdfrwt>
<pdfrwt beam="2">  1       -2 0.17535633E-02 0.32214647E+03</pdfrwt>
<totfact> 0.49694949E+03</totfact>
</mgrwt>
</event>
<event>
 4    1  0.5980424E-004  0.2295617E+03  0.7818608E-02  0.1126949E+00
         -2   -1    0    0    0  501 -0.00000000000E+00  0.00000000000E+00  0.55856606689E+01  0.55856612510E+01  0.25500000000E-02 0. -1.
          2   -1    0    0  501    0  0.00000000000E+00 -0.00000000000E+00 -0.23586552015E+04  0.23586552015E+04  0.25500000000E-02 0.  1.
    5000001    1    1    2    0    0 -0.64929233443E+02 -0.55007088902E+02 -0.11557750880E+04  0.11614588409E+04  0.77000000000E+02 0.  0.
   -5000001    1    1    2    0    0  0.64929233443E+02  0.55007088902E+02 -0.11972944529E+04  0.12027820218E+04  0.77000000000E+02 0.  0.
<mgrwt>
<rscale>  0 0.22956174E+03</rscale>
<asrwt>0</asrwt>
<pdfrwt beam="1">  1        2 0.36286924E+00 0.22956174E+03</pdfrwt>
<pdfrwt beam="2">  1       -2 0.85933434E-03 0.22956174E+03</pdfrwt>
<totfact> 0.12681530E+04</totfact>
</mgrwt>
</event>
<event>
 4    1  0.5980424E-004  0.3752049E+03  0.7818608E-02  0.1052720E+00
         -2   -1    0    0    0  501 -0.00000000000E+00  0.00000000000E+00  0.22270815164E+02  0.22270815310E+02  0.25500000000E-02 0. -1.
          2   -1    0    0  501    0  0.00000000000E+00 -0.00000000000E+00 -0.15803051403E+04  0.15803051403E+04  0.25500000000E-02 0.  1.
    5000001    1    1    2    0    0 -0.10660985282E+03 -0.95243007382E+01 -0.13490155792E+04  0.13554439885E+04  0.77000000000E+02 0.  0.
   -5000001    1    1    2    0    0  0.10660985282E+03  0.95243007382E+01 -0.20901874599E+03  0.24713196717E+03  0.77000000000E+02 0.  0.
<mgrwt>
<rscale>  0 0.37520492E+03</rscale>
<asrwt>0</asrwt>
<pdfrwt beam="1">  1        2 0.24312378E+00 0.37520492E+03</pdfrwt>
<pdfrwt beam="2">  1       -2 0.34262805E-02 0.37520492E+03</pdfrwt>
<totfact> 0.42960801E+03</totfact>
</mgrwt>
</event>
<event>
 4    1  0.5980424E-004  0.4550781E+03  0.7818608E-02  0.1026218E+00
          2   -1    0    0  501    0  0.00000000000E+00  0.00000000000E+00  0.13975205808E+04  0.13975205808E+04  0.25500000000E-02 0.  1.
         -2   -1    0    0    0  501 -0.00000000000E+00 -0.00000000000E+00 -0.37047047524E+02  0.37047047612E+02  0.25500000000E-02 0. -1.
    5000001    1    1    2    0    0 -0.14202067784E+03 -0.56322219032E+02  0.20735255567E+03  0.26882363667E+03  0.77000000000E+02 0.  0.
   -5000001    1    1    2    0    0  0.14202067784E+03  0.56322219032E+02  0.11531209776E+04  0.11657439918E+04  0.77000000000E+02 0.  0.
<mgrwt>
<rscale>  0 0.45507807E+03</rscale>
<asrwt>0</asrwt>
<pdfrwt beam="1">  1        2 0.21500316E+00 0.45507807E+03</pdfrwt>
<pdfrwt beam="2">  1       -2 0.56995460E-02 0.45507807E+03</pdfrwt>
<totfact> 0.24796801E+03</totfact>
</mgrwt>
</event>
<event>
 4    1  0.5980424E-004  0.1652107E+03  0.7818608E-02  0.1182936E+00
          2   -1    0    0  501    0  0.00000000000E+00  0.00000000000E+00  0.16560711826E+04  0.16560711826E+04  0.25500000000E-02 0.  1.
         -2   -1    0    0    0  501 -0.00000000000E+00 -0.00000000000E+00 -0.41203816528E+01  0.41203824418E+01  0.25500000000E-02 0. -1.
    5000001    1    1    2    0    0  0.16397183427E+02 -0.12349585700E+01  0.10770486027E+04  0.10799227219E+04  0.77000000000E+02 0.  0.
   -5000001    1    1    2    0    0 -0.16397183427E+02  0.12349585700E+01  0.57490219820E+03  0.58026884307E+03  0.77000000000E+02 0.  0.
<mgrwt>
<rscale>  0 0.16521073E+03</rscale>
<asrwt>0</asrwt>
<pdfrwt beam="1">  1        2 0.25478017E+00 0.16521073E+03</pdfrwt>
<pdfrwt beam="2">  1       -2 0.63390496E-03 0.16521073E+03</pdfrwt>
<totfact> 0.45025172E+04</totfact>
</mgrwt>
</event>
<event>
 4    1  0.5980424E-004  0.2529903E+03  0.7818608E-02  0.1111429E+00
         -2   -1    0    0    0  501 -0.00000000000E+00  0.00000000000E+00  0.31339376039E+02  0.31339376142E+02  0.25500000000E-02 0. -1.
          2   -1    0    0  501    0  0.00000000000E+00 -0.00000000000E+00 -0.51057249615E+03  0.51057249616E+03  0.25500000000E-02 0.  1.
    5000001    1    1    2    0    0 -0.46494820956E+01  0.97959447648E+02 -0.28527501477E+03  0.31133343078E+03  0.77000000000E+02 0.  0.
   -5000001    1    1    2    0    0  0.46494820956E+01 -0.97959447648E+02 -0.19395810534E+03  0.23057844152E+03  0.77000000000E+02 0.  0.
<mgrwt>
<rscale>  0 0.25299030E+03</rscale>
<asrwt>0</asrwt>
<pdfrwt beam="1">  1        2 0.78549609E-01 0.25299030E+03</pdfrwt>
<pdfrwt beam="2">  1       -2 0.48214429E-02 0.25299030E+03</pdfrwt>
<totfact> 0.12448141E+04</totfact>
</mgrwt>
</event>
<event>
 4    1  0.5980424E-004  0.3151700E+03  0.7818608E-02  0.1077894E+00
          2   -1    0    0  501    0  0.00000000000E+00  0.00000000000E+00  0.11646513378E+02  0.11646513657E+02  0.25500000000E-02 0.  1.
         -2   -1    0    0    0  501 -0.00000000000E+00 -0.00000000000E+00 -0.21322293184E+04  0.21322293184E+04  0.25500000000E-02 0. -1.
    5000001    1    1    2    0    0 -0.63713916969E+02  0.90734079365E+02 -0.16134095249E+04  0.16190464574E+04  0.77000000000E+02 0.  0.
   -5000001    1    1    2    0    0  0.63713916969E+02 -0.90734079365E+02 -0.50717328017E+03  0.52482937465E+03  0.77000000000E+02 0.  0.
<mgrwt>
<rscale>  0 0.31517003E+03</rscale>
<asrwt>0</asrwt>
<pdfrwt beam="1">  1        2 0.17917730E-02 0.31517003E+03</pdfrwt>
<pdfrwt beam="2">  1       -2 0.32803497E+00 0.31517003E+03</pdfrwt>
<totfact> 0.15909929E+02</totfact>
</mgrwt>
</event>
<event>
 4    1  0.5980424E-004  0.1667597E+03  0.7818608E-02  0.1181270E+00
         -2   -1    0    0    0  501 -0.00000000000E+00  0.00000000000E+00  0.20521756892E+03  0.20521756894E+03  0.25500000000E-02 0. -1.
          2   -1    0    0  501    0  0.00000000000E+00 -0.00000000000E+00 -0.33877210752E+02  0.33877210848E+02  0.25500000000E-02 0.  1.
    5000001    1    1    2    0    0  0.10471770778E+02 -0.31266381119E+01  0.12877310623E+03  0.15043585589E+03  0.77000000000E+02 0.  0.
   -5000001    1    1    2    0    0 -0.10471770778E+02  0.31266381119E+01  0.42567251944E+02  0.88658923901E+02  0.77000000000E+02 0.  0.
<mgrwt>
<rscale>  0 0.16675969E+03</rscale>
<asrwt>0</asrwt>
<pdfrwt beam="1">  1        2 0.52118785E-02 0.16675969E+03</pdfrwt>
<pdfrwt beam="2">  1       -2 0.31571934E-01 0.16675969E+03</pdfrwt>
<totfact> 0.13168325E+04</totfact>
</mgrwt>
</event>
<event>
 4    1  0.5980424E-004  0.1900271E+03  0.7818608E-02  0.1158437E+00
          2   -1    0    0  501    0  0.00000000000E+00  0.00000000000E+00  0.25858974865E+03  0.25858974866E+03  0.25500000000E-02 0.  1.
         -2   -1    0    0    0  501 -0.00000000000E+00 -0.00000000000E+00 -0.34910802957E+02  0.34910803050E+02  0.25500000000E-02 0. -1.
    5000001    1    1    2    0    0  0.49004505448E+02 -0.26290222570E+02  0.10806932026E+03  0.14387701463E+03  0.77000000000E+02 0.  0.
   -5000001    1    1    2    0    0 -0.49004505448E+02  0.26290222570E+02  0.11560962543E+03  0.14962353709E+03  0.77000000000E+02 0.  0.
<mgrwt>
<rscale>  0 0.19002711E+03</rscale>
<asrwt>0</asrwt>
<pdfrwt beam="1">  1        2 0.39783040E-01 0.19002711E+03</pdfrwt>
<pdfrwt beam="2">  1       -2 0.53708925E-02 0.19002711E+03</pdfrwt>
<totfact> 0.21676356E+04</totfact>
</mgrwt>
</event>
<event>
 4    1  0.5980424E-004  0.3610614E+03  0.7818608E-02  0.1058164E+00
          2   -1    0    0  501    0  0.00000000000E+00  0.00000000000E+00  0.16408194875E+03  0.16408194877E+03  0.25500000000E-02 0.  1.
         -2   -1    0    0    0  501 -0.00000000000E+00 -0.00000000000E+00 -0.19862840704E+03  0.19862840706E+03  0.25500000000E-02 0. -1.
    5000001    1    1    2    0    0 -0.15371438536E+03 -0.14987296782E+02  0.35974549345E+02  0.17628357704E+03  0.77000000000E+02 0.  0.
   -5000001    1    1    2    0    0  0.15371438536E+03  0.14987296782E+02 -0.70521007641E+02  0.18642677879E+03  0.77000000000E+02 0.  0.
<mgrwt>
<rscale>  0 0.36106141E+03</rscale>
<asrwt>0</asrwt>
<pdfrwt beam="1">  1        2 0.25243377E-01 0.36106141E+03</pdfrwt>
<pdfrwt beam="2">  1       -2 0.30558217E-01 0.36106141E+03</pdfrwt>
<totfact> 0.21145129E+03</totfact>
</mgrwt>
</event>
<event>
 4    1  0.5980424E-004  0.1786788E+03  0.7818608E-02  0.1169088E+00
          2   -1    0    0  501    0  0.00000000000E+00  0.00000000000E+00  0.50692518419E+03  0.50692518420E+03  0.25500000000E-02 0.  1.
         -2   -1    0    0    0  501 -0.00000000000E+00 -0.00000000000E+00 -0.15744988444E+02  0.15744988651E+02  0.25500000000E-02 0. -1.
    5000001    1    1    2    0    0 -0.15754371397E+02  0.42435647232E+02  0.24008105754E+03  0.25615795628E+03  0.77000000000E+02 0.  0.
   -5000001    1    1    2    0    0  0.15754371397E+02 -0.42435647232E+02  0.25109913821E+03  0.26651221657E+03  0.77000000000E+02 0.  0.
<mgrwt>
<rscale>  0 0.17867883E+03</rscale>
<asrwt>0</asrwt>
<pdfrwt beam="1">  1        2 0.77988493E-01 0.17867883E+03</pdfrwt>
<pdfrwt beam="2">  1       -2 0.24223058E-02 0.17867883E+03</pdfrwt>
<totfact> 0.34181544E+04</totfact>
</mgrwt>
</event>
<event>
 4    1  0.5980424E-004  0.2661984E+03  0.7818608E-02  0.1103475E+00
         -2   -1    0    0    0  501 -0.00000000000E+00  0.00000000000E+00  0.43758402182E+02  0.43758402257E+02  0.25500000000E-02 0. -1.
          2   -1    0    0  501    0  0.00000000000E+00 -0.00000000000E+00 -0.40484569746E+03  0.40484569747E+03  0.25500000000E-02 0.  1.
    5000001    1    1    2    0    0 -0.18034134081E+02  0.10392826512E+03 -0.13724660791E+03  0.18945169745E+03  0.77000000000E+02 0.  0.
   -5000001    1    1    2    0    0  0.18034134081E+02 -0.10392826512E+03 -0.22384068737E+03  0.25915240228E+03  0.77000000000E+02 0.  0.
<mgrwt>
<rscale>  0 0.26619843E+03</rscale>
<asrwt>0</asrwt>
<pdfrwt beam="1">  1        2 0.62283951E-01 0.26619843E+03</pdfrwt>
<pdfrwt beam="2">  1       -2 0.67320622E-02 0.26619843E+03</pdfrwt>
<totfact> 0.96718834E+03</totfact>
</mgrwt>
</event>
<event>
 4    1  0.5980424E-004  0.2513567E+03  0.7818608E-02  0.1112450E+00
         -2   -1    0    0    0  501 -0.00000000000E+00  0.00000000000E+00  0.21367452792E+03  0.21367452794E+03  0.25500000000E-02 0. -1.
          2   -1    0    0  501    0  0.00000000000E+00 -0.00000000000E+00 -0.73921087148E+02  0.73921087192E+02  0.25500000000E-02 0.  1.
    5000001    1    1    2    0    0 -0.79218256283E+02 -0.27697741544E+02  0.90807819469E+01  0.11425479253E+03  0.77000000000E+02 0.  0.
   -5000001    1    1    2    0    0  0.79218256283E+02  0.27697741544E+02  0.13067265883E+03  0.17334082260E+03  0.77000000000E+02 0.  0.
<mgrwt>
<rscale>  0 0.25135675E+03</rscale>
<asrwt>0</asrwt>
<pdfrwt beam="1">  1        2 0.11372475E-01 0.25135675E+03</pdfrwt>
<pdfrwt beam="2">  1       -2 0.32873004E-01 0.25135675E+03</pdfrwt>
<totfact> 0.46648496E+03</totfact>
</mgrwt>
</event>
<event>
 4    1  0.5980424E-004  0.2615589E+03  0.7818608E-02  0.1106210E+00
         -2   -1    0    0    0  501 -0.00000000000E+00  0.00000000000E+00  0.78210236636E+01  0.78210240793E+01  0.25500000000E-02 0. -1.
          2   -1    0    0  501    0  0.00000000000E+00 -0.00000000000E+00 -0.21868326987E+04  0.21868326987E+04  0.25500000000E-02 0.  1.
    5000001    1    1    2    0    0  0.10009250499E+03 -0.30099483661E+02 -0.95689554612E+03  0.96566172890E+03  0.77000000000E+02 0.  0.
   -5000001    1    1    2    0    0 -0.10009250499E+03  0.30099483661E+02 -0.12221161289E+04  0.12289919939E+04  0.77000000000E+02 0.  0.
<mgrwt>
<rscale>  0 0.26155895E+03</rscale>
<asrwt>0</asrwt>
<pdfrwt beam="1">  1        2 0.33643531E+00 0.26155895E+03</pdfrwt>
<pdfrwt beam="2">  1       -2 0.12032362E-02 0.26155895E+03</pdfrwt>
<totfact> 0.96302442E+03</totfact>
</mgrwt>
</event>
<event>
 4    1  0.5980424E-004  0.2354428E+03  0.7818608E-02  0.1122866E+00
          2   -1    0    0  501    0  0.00000000000E+00  0.00000000000E+00  0.92551846158E+03  0.92551846158E+03  0.25500000000E-02 0.  1.
         -2   -1    0    0    0  501 -0.00000000000E+00 -0.00000000000E+00 -0.14973588601E+02  0.14973588818E+02  0.25500000000E-02 0. -1.
    5000001    1    1    2    0    0  0.68976229210E+02 -0.33802054089E+02  0.63520686711E+03  0.64445097803E+03  0.77000000000E+02 0.  0.
   -5000001    1    1    2    0    0 -0.68976229210E+02  0.33802054089E+02  0.27533800587E+03  0.29604107237E+03  0.77000000000E+02 0.  0.
<mgrwt>
<rscale>  0 0.23544284E+03</rscale>
<asrwt>0</asrwt>
<pdfrwt beam="1">  1        2 0.14238751E+00 0.23544284E+03</pdfrwt>
<pdfrwt beam="2">  1       -2 0.23036282E-02 0.23544284E+03</pdfrwt>
<totfact> 0.18139665E+04</totfact>
</mgrwt>
</event>
<event>
 4    1  0.5980424E-004  0.2122860E+03  0.7818608E-02  0.1139768E+00
          2   -1    0    0  501    0  0.00000000000E+00  0.00000000000E+00  0.48332957049E+03  0.48332957050E+03  0.25500000000E-02 0.  1.
         -2   -1    0    0    0  501 -0.00000000000E+00 -0.00000000000E+00 -0.23309847632E+02  0.23309847771E+02  0.25500000000E-02 0. -1.
    5000001    1    1    2    0    0  0.44611391936E+02 -0.16454825587E+02  0.97636968934E+02  0.13312743999E+03  0.77000000000E+02 0.  0.
   -5000001    1    1    2    0    0 -0.44611391936E+02  0.16454825587E+02  0.36238275393E+03  0.37351197828E+03  0.77000000000E+02 0.  0.
<mgrwt>
<rscale>  0 0.21228602E+03</rscale>
<asrwt>0</asrwt>
<pdfrwt beam="1">  1        2 0.74358397E-01 0.21228602E+03</pdfrwt>
<pdfrwt beam="2">  1       -2 0.35861303E-02 0.21228602E+03</pdfrwt>
<totfact> 0.20439716E+04</totfact>
</mgrwt>
</event>
<event>
 4    1  0.5980424E-004  0.2310500E+03  0.7818608E-02  0.1125903E+00
          2   -1    0    0  501    0  0.00000000000E+00  0.00000000000E+00  0.17700264004E+04  0.17700264004E+04  0.25500000000E-02 0.  1.
         -2   -1    0    0    0  501 -0.00000000000E+00 -0.00000000000E+00 -0.75400165269E+01  0.75400169581E+01  0.25500000000E-02 0. -1.
    5000001    1    1    2    0    0 -0.77902626422E+02  0.26159279866E+02  0.10794742330E+04  0.10853325513E+04  0.77000000000E+02 0.  0.
   -5000001    1    1    2    0    0  0.77902626422E+02 -0.26159279866E+02  0.68301215082E+03  0.69223386604E+03  0.77000000000E+02 0.  0.
<mgrwt>
<rscale>  0 0.23105003E+03</rscale>
<asrwt>0</asrwt>
<pdfrwt beam="1">  1        2 0.27231182E+00 0.23105003E+03</pdfrwt>
<pdfrwt beam="2">  1       -2 0.11600023E-02 0.23105003E+03</pdfrwt>
<totfact> 0.16757902E+04</totfact>
</mgrwt>
</event>
<event>
 4    1  0.5980424E-004  0.4205966E+03  0.7818608E-02  0.1036872E+00
          2   -1    0    0  501    0  0.00000000000E+00  0.00000000000E+00  0.62796060198E+03  0.62796060199E+03  0.25500000000E-02 0.  1.
         -2   -1    0    0    0  501 -0.00000000000E+00 -0.00000000000E+00 -0.70426992261E+02  0.70426992307E+02  0.25500000000E-02 0. -1.
    5000001    1    1    2    0    0 -0.13648496215E+03 -0.12815604099E+03  0.37334447835E+03  0.42469661554E+03  0.77000000000E+02 0.  0.
   -5000001    1    1    2    0    0  0.13648496215E+03  0.12815604099E+03  0.18418913137E+03  0.27369097876E+03  0.77000000000E+02 0.  0.
<mgrwt>
<rscale>  0 0.42059661E+03</rscale>
<asrwt>0</asrwt>
<pdfrwt beam="1">  1        2 0.96609326E-01 0.42059661E+03</pdfrwt>
<pdfrwt beam="2">  1       -2 0.10834922E-01 0.42059661E+03</pdfrwt>
<totfact> 0.28052100E+03</totfact>
</mgrwt>
</event>
<event>
 4    1  0.5980424E-004  0.2903940E+03  0.7818608E-02  0.1090144E+00
         -2   -1    0    0    0  501 -0.00000000000E+00  0.00000000000E+00  0.59794418852E+02  0.59794418907E+02  0.25500000000E-02 0. -1.
          2   -1    0    0  501    0  0.00000000000E+00 -0.00000000000E+00 -0.35257743789E+03  0.35257743790E+03  0.25500000000E-02 0.  1.
    5000001    1    1    2    0    0 -0.12187494393E+03 -0.15883050965E+02 -0.13661590489E+03  0.19924527280E+03  0.77000000000E+02 0.  0.
   -5000001    1    1    2    0    0  0.12187494393E+03  0.15883050965E+02 -0.15616711415E+03  0.21312658400E+03  0.77000000000E+02 0.  0.
<mgrwt>
<rscale>  0 0.29039396E+03</rscale>
<asrwt>0</asrwt>
<pdfrwt beam="1">  1        2 0.54242681E-01 0.29039396E+03</pdfrwt>
<pdfrwt beam="2">  1       -2 0.91991416E-02 0.29039396E+03</pdfrwt>
<totfact> 0.69221642E+03</totfact>
</mgrwt>
</event>
<event>
 4    1  0.5980424E-004  0.2004918E+03  0.7818608E-02  0.1149325E+00
         -2   -1    0    0    0  501 -0.00000000000E+00  0.00000000000E+00  0.47672736318E+01  0.47672743138E+01  0.25500000000E-02 0. -1.
          2   -1    0    0  501    0  0.00000000000E+00 -0.00000000000E+00 -0.21079632591E+04  0.21079632591E+04  0.25500000000E-02 0.  1.
    5000001    1    1    2    0    0  0.19796672012E+02  0.57704260482E+02 -0.84122590381E+03  0.84694256662E+03  0.77000000000E+02 0.  0.
   -5000001    1    1    2    0    0 -0.19796672012E+02 -0.57704260482E+02 -0.12619700817E+04  0.12657879668E+04  0.77000000000E+02 0.  0.
<mgrwt>
<rscale>  0 0.20049178E+03</rscale>
<asrwt>0</asrwt>
<pdfrwt beam="1">  1        2 0.32430130E+00 0.20049178E+03</pdfrwt>
<pdfrwt beam="2">  1       -2 0.73342845E-03 0.20049178E+03</pdfrwt>
<totfact> 0.21539323E+04</totfact>
</mgrwt>
</event>
<event>
 4    1  0.5980424E-004  0.5120053E+03  0.7818608E-02  0.1010692E+00
          2   -1    0    0  501    0  0.00000000000E+00  0.00000000000E+00  0.44906794913E+02  0.44906794985E+02  0.25500000000E-02 0.  1.
         -2   -1    0    0    0  501 -0.00000000000E+00 -0.00000000000E+00 -0.14594083235E+04  0.14594083235E+04  0.25500000000E-02 0. -1.
    5000001    1    1    2    0    0 -0.18667508484E+03 -0.59550979340E+02 -0.27931339653E+03  0.34976975273E+03  0.77000000000E+02 0.  0.
   -5000001    1    1    2    0    0  0.18667508484E+03  0.59550979340E+02 -0.11351881321E+04  0.11545453658E+04  0.77000000000E+02 0.  0.
<mgrwt>
<rscale>  0 0.51200527E+03</rscale>
<asrwt>0</asrwt>
<pdfrwt beam="1">  1        2 0.69087388E-02 0.51200527E+03</pdfrwt>
<pdfrwt beam="2">  1       -2 0.22452432E+00 0.51200527E+03</pdfrwt>
<totfact> 0.10296072E+02</totfact>
</mgrwt>
</event>
<event>
 4    1  0.5980424E-004  0.4459836E+03  0.7818608E-02  0.1028927E+00
          2   -1    0    0  501    0  0.00000000000E+00  0.00000000000E+00  0.18005994231E+04  0.18005994231E+04  0.25500000000E-02 0.  1.
         -2   -1    0    0    0  501 -0.00000000000E+00 -0.00000000000E+00 -0.27615988276E+02  0.27615988393E+02  0.25500000000E-02 0. -1.
    5000001    1    1    2    0    0 -0.81358998045E+02 -0.14810497658E+03  0.13925831191E+04  0.14049096462E+04  0.77000000000E+02 0.  0.
   -5000001    1    1    2    0    0  0.81358998045E+02  0.14810497658E+03  0.38040031576E+03  0.42330576523E+03  0.77000000000E+02 0.  0.
<mgrwt>
<rscale>  0 0.44598355E+03</rscale>
<asrwt>0</asrwt>
<pdfrwt beam="1">  1        2 0.27701531E+00 0.44598355E+03</pdfrwt>
<pdfrwt beam="2">  1       -2 0.42486134E-02 0.44598355E+03</pdfrwt>
<totfact> 0.23573071E+03</totfact>
</mgrwt>
</event>
<event>
 4    1  0.5980424E-004  0.2487095E+03  0.7818608E-02  0.1114123E+00
          2   -1    0    0  501    0  0.00000000000E+00  0.00000000000E+00  0.12012056586E+04  0.12012056586E+04  0.25500000000E-02 0.  1.
         -2   -1    0    0    0  501 -0.00000000000E+00 -0.00000000000E+00 -0.12873816863E+02  0.12873817115E+02  0.25500000000E-02 0. -1.
    5000001    1    1    2    0    0  0.95592754511E+02  0.10429314622E+00  0.49688815494E+03  0.51182499363E+03  0.77000000000E+02 0.  0.
   -5000001    1    1    2    0    0 -0.95592754511E+02 -0.10429314622E+00  0.69144368684E+03  0.70225448212E+03  0.77000000000E+02 0.  0.
<mgrwt>
<rscale>  0 0.24870948E+03</rscale>
<asrwt>0</asrwt>
<pdfrwt beam="1">  1        2 0.18480086E+00 0.24870948E+03</pdfrwt>
<pdfrwt beam="2">  1       -2 0.19805873E-02 0.24870948E+03</pdfrwt>
<totfact> 0.15558399E+04</totfact>
</mgrwt>
</event>
<event>
 4    1  0.5980424E-004  0.3517917E+03  0.7818608E-02  0.1061882E+00
          2   -1    0    0  501    0  0.00000000000E+00  0.00000000000E+00  0.54776978607E+02  0.54776978667E+02  0.25500000000E-02 0. -1.
         -2   -1    0    0    0  501 -0.00000000000E+00 -0.00000000000E+00 -0.56482381172E+03  0.56482381172E+03  0.25500000000E-02 0.  1.
    5000001    1    1    2    0    0  0.13231823441E+03 -0.86126027540E+02 -0.27121697838E+03  0.32313071215E+03  0.77000000000E+02 0.  0.
   -5000001    1    1    2    0    0 -0.13231823441E+03  0.86126027540E+02 -0.23882985473E+03  0.29647007824E+03  0.77000000000E+02 0.  0.
<mgrwt>
<rscale>  0 0.35179165E+03</rscale>
<asrwt>0</asrwt>
<pdfrwt beam="1">  1        2 0.84272279E-02 0.35179165E+03</pdfrwt>
<pdfrwt beam="2">  1       -2 0.86895967E-01 0.35179165E+03</pdfrwt>
<totfact> 0.94703766E+02</totfact>
</mgrwt>
</event>
<event>
 4    1  0.5980424E-004  0.2759298E+03  0.7818608E-02  0.1097933E+00
          2   -1    0    0  501    0  0.00000000000E+00  0.00000000000E+00  0.14992228219E+04  0.14992228219E+04  0.25500000000E-02 0.  1.
         -2   -1    0    0    0  501 -0.00000000000E+00 -0.00000000000E+00 -0.12696117393E+02  0.12696117649E+02  0.25500000000E-02 0. -1.
    5000001    1    1    2    0    0  0.46147222796E+02  0.75742649406E+02  0.11398568727E+04  0.11458923184E+04  0.77000000000E+02 0.  0.
   -5000001    1    1    2    0    0 -0.46147222796E+02 -0.75742649406E+02  0.34666983178E+03  0.36602662113E+03  0.77000000000E+02 0.  0.
<mgrwt>
<rscale>  0 0.27592977E+03</rscale>
<asrwt>0</asrwt>
<pdfrwt beam="1">  1        2 0.23064969E+00 0.27592977E+03</pdfrwt>
<pdfrwt beam="2">  1       -2 0.19532487E-02 0.27592977E+03</pdfrwt>
<totfact> 0.10933024E+04</totfact>
</mgrwt>
</event>
<event>
 4    1  0.5980424E-004  0.2584316E+03  0.7818608E-02  0.1108089E+00
          2   -1    0    0  501    0  0.00000000000E+00  0.00000000000E+00  0.23448462616E+04  0.23448462616E+04  0.25500000000E-02 0.  1.
         -2   -1    0    0    0  501 -0.00000000000E+00 -0.00000000000E+00 -0.71206050370E+01  0.71206054935E+01  0.25500000000E-02 0. -1.
    5000001    1    1    2    0    0 -0.38756292209E+02  0.89559064859E+02  0.84776025479E+03  0.85682514312E+03  0.77000000000E+02 0.  0.
   -5000001    1    1    2    0    0  0.38756292209E+02 -0.89559064859E+02  0.14899654018E+04  0.14951417240E+04  0.77000000000E+02 0.  0.
<mgrwt>
<rscale>  0 0.25843161E+03</rscale>
<asrwt>0</asrwt>
<pdfrwt beam="1">  1        2 0.36074537E+00 0.25843161E+03</pdfrwt>
<pdfrwt beam="2">  1       -2 0.10954784E-02 0.25843161E+03</pdfrwt>
<totfact> 0.90886205E+03</totfact>
</mgrwt>
</event>
<event>
 4    1  0.5980424E-004  0.3297110E+03  0.7818608E-02  0.1071265E+00
         -2   -1    0    0    0  501 -0.00000000000E+00  0.00000000000E+00  0.25508426324E+03  0.25508426325E+03  0.25500000000E-02 0. -1.
          2   -1    0    0  501    0  0.00000000000E+00 -0.00000000000E+00 -0.10654257878E+03  0.10654257881E+03  0.25500000000E-02 0.  1.
    5000001    1    1    2    0    0 -0.10186490127E+03  0.10425338236E+03  0.72336808946E+02  0.18001899836E+03  0.77000000000E+02 0.  0.
   -5000001    1    1    2    0    0  0.10186490127E+03 -0.10425338236E+03  0.76204875514E+02  0.18160784370E+03  0.77000000000E+02 0.  0.
<mgrwt>
<rscale>  0 0.32971100E+03</rscale>
<asrwt>0</asrwt>
<pdfrwt beam="1">  1        2 0.16391166E-01 0.32971100E+03</pdfrwt>
<pdfrwt beam="2">  1       -2 0.39243733E-01 0.32971100E+03</pdfrwt>
<totfact> 0.21739865E+03</totfact>
</mgrwt>
</event>
<event>
 4    1  0.5980424E-004  0.2990666E+03  0.7818608E-02  0.1085708E+00
          2   -1    0    0  501    0  0.00000000000E+00  0.00000000000E+00  0.10372533362E+03  0.10372533365E+03  0.25500000000E-02 0.  1.
         -2   -1    0    0    0  501 -0.00000000000E+00 -0.00000000000E+00 -0.21557137807E+03  0.21557137808E+03  0.25500000000E-02 0. -1.
    5000001    1    1    2    0    0 -0.77213249770E+02 -0.82052320080E+02  0.93408970643E+01  0.13678713949E+03  0.77000000000E+02 0.  0.
   -5000001    1    1    2    0    0  0.77213249770E+02  0.82052320080E+02 -0.12118694151E+03  0.18250957225E+03  0.77000000000E+02 0.  0.
<mgrwt>
<rscale>  0 0.29906664E+03</rscale>
<asrwt>0</asrwt>
<pdfrwt beam="1">  1        2 0.15957744E-01 0.29906664E+03</pdfrwt>
<pdfrwt beam="2">  1       -2 0.33164827E-01 0.29906664E+03</pdfrwt>
<totfact> 0.30722470E+03</totfact>
</mgrwt>
</event>
<event>
 4    1  0.5980424E-004  0.2633347E+03  0.7818608E-02  0.1105156E+00
         -2   -1    0    0    0  501 -0.00000000000E+00  0.00000000000E+00  0.36728101281E+02  0.36728101370E+02  0.25500000000E-02 0. -1.
          2   -1    0    0  501    0  0.00000000000E+00 -0.00000000000E+00 -0.47201696102E+03  0.47201696103E+03  0.25500000000E-02 0.  1.
    5000001    1    1    2    0    0 -0.77157971837E+02  0.47678661741E+02 -0.10868818765E+03  0.16114816021E+03  0.77000000000E+02 0.  0.
   -5000001    1    1    2    0    0  0.77157971837E+02 -0.47678661741E+02 -0.32660067208E+03  0.34759690219E+03  0.77000000000E+02 0.  0.
<mgrwt>
<rscale>  0 0.26333467E+03</rscale>
<asrwt>0</asrwt>
<pdfrwt beam="1">  1        2 0.72617990E-01 0.26333467E+03</pdfrwt>
<pdfrwt beam="2">  1       -2 0.56504775E-02 0.26333467E+03</pdfrwt>
<totfact> 0.10691241E+04</totfact>
</mgrwt>
</event>
<event>
 4    1  0.5980424E-004  0.2322943E+03  0.7818608E-02  0.1125035E+00
          2   -1    0    0  501    0  0.00000000000E+00  0.00000000000E+00  0.41081385217E+03  0.41081385218E+03  0.25500000000E-02 0.  1.
         -2   -1    0    0    0  501 -0.00000000000E+00 -0.00000000000E+00 -0.32837639920E+02  0.32837640019E+02  0.25500000000E-02 0. -1.
    5000001    1    1    2    0    0 -0.12848647582E+02  0.72554676042E+02  0.10080493790E+03  0.14669664027E+03  0.77000000000E+02 0.  0.
   -5000001    1    1    2    0    0  0.12848647582E+02 -0.72554676042E+02  0.27717127435E+03  0.29695485193E+03  0.77000000000E+02 0.  0.
<mgrwt>
<rscale>  0 0.23229427E+03</rscale>
<asrwt>0</asrwt>
<pdfrwt beam="1">  1        2 0.63202133E-01 0.23229427E+03</pdfrwt>
<pdfrwt beam="2">  1       -2 0.50519444E-02 0.23229427E+03</pdfrwt>
<totfact> 0.14671369E+04</totfact>
</mgrwt>
</event>
<event>
 4    1  0.5980424E-004  0.1892874E+03  0.7818608E-02  0.1159106E+00
         -2   -1    0    0    0  501 -0.00000000000E+00  0.00000000000E+00  0.48070020093E+01  0.48070026857E+01  0.25500000000E-02 0. -1.
          2   -1    0    0  501    0  0.00000000000E+00 -0.00000000000E+00 -0.18634132057E+04  0.18634132057E+04  0.25500000000E-02 0.  1.
    5000001    1    1    2    0    0  0.46371665299E+02  0.16398410252E+02 -0.68569957229E+03  0.69176017711E+03  0.77000000000E+02 0.  0.
   -5000001    1    1    2    0    0 -0.46371665299E+02 -0.16398410252E+02 -0.11729066314E+04  0.11764600313E+04  0.77000000000E+02 0.  0.
<mgrwt>
<rscale>  0 0.18928742E+03</rscale>
<asrwt>0</asrwt>
<pdfrwt beam="1">  1        2 0.28667838E+00 0.18928742E+03</pdfrwt>
<pdfrwt beam="2">  1       -2 0.73954031E-03 0.18928742E+03</pdfrwt>
<totfact> 0.28446084E+04</totfact>
</mgrwt>
</event>
<event>
 4    1  0.5980424E-004  0.3065145E+03  0.7818608E-02  0.1082029E+00
          2   -1    0    0  501    0  0.00000000000E+00  0.00000000000E+00  0.25755687461E+03  0.25755687462E+03  0.25500000000E-02 0.  1.
         -2   -1    0    0    0  501 -0.00000000000E+00 -0.00000000000E+00 -0.91194535243E+02  0.91194535279E+02  0.25500000000E-02 0. -1.
    5000001    1    1    2    0    0 -0.12089038286E+03  0.44797266473E+02  0.11801895774E+03  0.19099412069E+03  0.77000000000E+02 0.  0.
   -5000001    1    1    2    0    0  0.12089038286E+03 -0.44797266473E+02  0.48343381625E+02  0.15775728921E+03  0.77000000000E+02 0.  0.
<mgrwt>
<rscale>  0 0.30651447E+03</rscale>
<asrwt>0</asrwt>
<pdfrwt beam="1">  1        2 0.39624134E-01 0.30651447E+03</pdfrwt>
<pdfrwt beam="2">  1       -2 0.14029929E-01 0.30651447E+03</pdfrwt>
<totfact> 0.49303134E+03</totfact>
</mgrwt>
</event>
<event>
 4    1  0.5980424E-004  0.3577072E+03  0.7818608E-02  0.1059495E+00
         -2   -1    0    0    0  501 -0.00000000000E+00  0.00000000000E+00  0.18246959652E+02  0.18246959830E+02  0.25500000000E-02 0. -1.
          2   -1    0    0  501    0  0.00000000000E+00 -0.00000000000E+00 -0.17530928385E+04  0.17530928385E+04  0.25500000000E-02 0.  1.
    5000001    1    1    2    0    0  0.14518938889E+03  0.70146368531E+00 -0.12168466528E+04  0.12278946319E+04  0.77000000000E+02 0.  0.
   -5000001    1    1    2    0    0 -0.14518938889E+03 -0.70146368531E+00 -0.51799922605E+03  0.54344516641E+03  0.77000000000E+02 0.  0.
<mgrwt>
<rscale>  0 0.35770722E+03</rscale>
<asrwt>0</asrwt>
<pdfrwt beam="1">  1        2 0.26970646E+00 0.35770722E+03</pdfrwt>
<pdfrwt beam="2">  1       -2 0.28072259E-02 0.35770722E+03</pdfrwt>
<totfact> 0.46871264E+03</totfact>
</mgrwt>
</event>
<event>
 4    1  0.5980424E-004  0.2007282E+03  0.7818608E-02  0.1149126E+00
         -2   -1    0    0    0  501 -0.00000000000E+00  0.00000000000E+00  0.32019876680E+02  0.32019876782E+02  0.25500000000E-02 0. -1.
          2   -1    0    0  501    0  0.00000000000E+00 -0.00000000000E+00 -0.31458438445E+03  0.31458438446E+03  0.25500000000E-02 0.  1.
    5000001    1    1    2    0    0  0.12540653069E+02  0.63054483581E+02 -0.14696143412E+03  0.17793200667E+03  0.77000000000E+02 0.  0.
   -5000001    1    1    2    0    0 -0.12540653069E+02 -0.63054483581E+02 -0.13560307364E+03  0.16867225457E+03  0.77000000000E+02 0.  0.
<mgrwt>
<rscale>  0 0.20072821E+03</rscale>
<asrwt>0</asrwt>
<pdfrwt beam="1">  1        2 0.48397596E-01 0.20072821E+03</pdfrwt>
<pdfrwt beam="2">  1       -2 0.49261351E-02 0.20072821E+03</pdfrwt>
<totfact> 0.20118951E+04</totfact>
</mgrwt>
</event>
<event>
 4    1  0.5980424E-004  0.2949721E+03  0.7818608E-02  0.1087781E+00
         -2   -1    0    0    0  501 -0.00000000000E+00  0.00000000000E+00  0.74924841568E+02  0.74924841611E+02  0.25500000000E-02 0. -1.
          2   -1    0    0  501    0  0.00000000000E+00 -0.00000000000E+00 -0.29031931753E+03  0.29031931754E+03  0.25500000000E-02 0.  1.
    5000001    1    1    2    0    0 -0.10673361362E+02  0.12502570342E+03 -0.96776771890E+02  0.17618198187E+03  0.77000000000E+02 0.  0.
   -5000001    1    1    2    0    0  0.10673361362E+02 -0.12502570342E+03 -0.11861770407E+03  0.18906217728E+03  0.77000000000E+02 0.  0.
<mgrwt>
<rscale>  0 0.29497206E+03</rscale>
<asrwt>0</asrwt>
<pdfrwt beam="1">  1        2 0.44664510E-01 0.29497206E+03</pdfrwt>
<pdfrwt beam="2">  1       -2 0.11526899E-01 0.29497206E+03</pdfrwt>
<totfact> 0.59587604E+03</totfact>
</mgrwt>
</event>
<event>
 4    1  0.5980424E-004  0.2136753E+03  0.7818608E-02  0.1138688E+00
          2   -1    0    0  501    0  0.00000000000E+00  0.00000000000E+00  0.40331928624E+03  0.40331928625E+03  0.25500000000E-02 0.  1.
         -2   -1    0    0    0  501 -0.00000000000E+00 -0.00000000000E+00 -0.28300852263E+02  0.28300852378E+02  0.25500000000E-02 0. -1.
    5000001    1    1    2    0    0 -0.16711747938E+01  0.67307974406E+02  0.12517965826E+03  0.16165427024E+03  0.77000000000E+02 0.  0.
   -5000001    1    1    2    0    0  0.16711747938E+01 -0.67307974406E+02  0.24983877571E+03  0.26996586839E+03  0.77000000000E+02 0.  0.
<mgrwt>
<rscale>  0 0.21367526E+03</rscale>
<asrwt>0</asrwt>
<pdfrwt beam="1">  1        2 0.62049124E-01 0.21367526E+03</pdfrwt>
<pdfrwt beam="2">  1       -2 0.43539771E-02 0.21367526E+03</pdfrwt>
<totfact> 0.18637294E+04</totfact>
</mgrwt>
</event>
<event>
 4    1  0.5980424E-004  0.2580534E+03  0.7818608E-02  0.1108318E+00
          2   -1    0    0  501    0  0.00000000000E+00  0.00000000000E+00  0.28089727677E+02  0.28089727793E+02  0.25500000000E-02 0.  1.
         -2   -1    0    0    0  501 -0.00000000000E+00 -0.00000000000E+00 -0.59266840256E+03  0.59266840257E+03  0.25500000000E-02 0. -1.
    5000001    1    1    2    0    0 -0.47685397933E+02  0.66016959433E+02 -0.43607017695E+03  0.45024252946E+03  0.77000000000E+02 0.  0.
   -5000001    1    1    2    0    0  0.47685397933E+02 -0.66016959433E+02 -0.12850849793E+03  0.17051560090E+03  0.77000000000E+02 0.  0.
<mgrwt>
<rscale>  0 0.25805344E+03</rscale>
<asrwt>0</asrwt>
<pdfrwt beam="1">  1        2 0.43214970E-02 0.25805344E+03</pdfrwt>
<pdfrwt beam="2">  1       -2 0.91179745E-01 0.25805344E+03</pdfrwt>
<totfact> 0.20187924E+03</totfact>
</mgrwt>
</event>
<event>
 4    1  0.5980424E-004  0.8399573E+03  0.7818608E-02  0.9503916E-01
         -2   -1    0    0    0  501 -0.00000000000E+00  0.00000000000E+00  0.32240515954E+03  0.32240515955E+03  0.25500000000E-02 0. -1.
          2   -1    0    0  501    0  0.00000000000E+00 -0.00000000000E+00 -0.54708206838E+03  0.54708206838E+03  0.25500000000E-02 0.  1.
    5000001    1    1    2    0    0 -0.12295241306E+03  0.32143114313E+03 -0.34843084754E+03  0.49575027097E+03  0.77000000000E+02 0.  0.
   -5000001    1    1    2    0    0  0.12295241306E+03 -0.32143114313E+03  0.12375393871E+03  0.37373695696E+03  0.77000000000E+02 0.  0.
<mgrwt>
<rscale>  0 0.83995734E+03</rscale>
<asrwt>0</asrwt>
<pdfrwt beam="1">  1        2 0.84166472E-01 0.83995734E+03</pdfrwt>
<pdfrwt beam="2">  1       -2 0.49600794E-01 0.83995734E+03</pdfrwt>
<totfact> 0.21432386E+02</totfact>
</mgrwt>
</event>
<event>
 4    1  0.5980424E-004  0.2440641E+03  0.7818608E-02  0.1117115E+00
         -2   -1    0    0    0  501 -0.00000000000E+00  0.00000000000E+00  0.47606615500E+02  0.47606615568E+02  0.25500000000E-02 0. -1.
          2   -1    0    0  501    0  0.00000000000E+00 -0.00000000000E+00 -0.31280983613E+03  0.31280983614E+03  0.25500000000E-02 0.  1.
    5000001    1    1    2    0    0  0.42313786300E+02  0.63311577612E+02 -0.21566685594E+03  0.24132966068E+03  0.77000000000E+02 0.  0.
   -5000001    1    1    2    0    0 -0.42313786300E+02 -0.63311577612E+02 -0.49536364682E+02  0.11908679103E+03  0.77000000000E+02 0.  0.
<mgrwt>
<rscale>  0 0.24406407E+03</rscale>
<asrwt>0</asrwt>
<pdfrwt beam="1">  1        2 0.48124589E-01 0.24406407E+03</pdfrwt>
<pdfrwt beam="2">  1       -2 0.73240949E-02 0.24406407E+03</pdfrwt>
<totfact> 0.11168444E+04</totfact>
</mgrwt>
</event>
<event>
 4    1  0.5980424E-004  0.1872949E+03  0.7818608E-02  0.1160924E+00
         -2   -1    0    0    0  501 -0.00000000000E+00  0.00000000000E+00  0.11539232948E+02  0.11539233230E+02  0.25500000000E-02 0. -1.
          2   -1    0    0  501    0  0.00000000000E+00 -0.00000000000E+00 -0.76000275132E+03  0.76000275132E+03  0.25500000000E-02 0.  1.
    5000001    1    1    2    0    0  0.49442975871E+02 -0.11259247985E+02 -0.30660960171E+03  0.32017155775E+03  0.77000000000E+02 0.  0.
   -5000001    1    1    2    0    0 -0.49442975871E+02  0.11259247985E+02 -0.44185391666E+03  0.45137042681E+03  0.77000000000E+02 0.  0.
<mgrwt>
<rscale>  0 0.18729494E+03</rscale>
<asrwt>0</asrwt>
<pdfrwt beam="1">  1        2 0.11692346E+00 0.18729494E+03</pdfrwt>
<pdfrwt beam="2">  1       -2 0.17752672E-02 0.18729494E+03</pdfrwt>
<totfact> 0.33747946E+04</totfact>
</mgrwt>
</event>
<event>
 4    1  0.5980424E-004  0.2838409E+03  0.7818608E-02  0.1093609E+00
         -2   -1    0    0    0  501 -0.00000000000E+00  0.00000000000E+00  0.10503445184E+02  0.10503445493E+02  0.25500000000E-02 0.  1.
          2   -1    0    0  501    0  0.00000000000E+00 -0.00000000000E+00 -0.19176008573E+04  0.19176008573E+04  0.25500000000E-02 0. -1.
    5000001    1    1    2    0    0 -0.41511997108E+02 -0.11122638272E+03 -0.87980213548E+03  0.89110905714E+03  0.77000000000E+02 0.  0.
   -5000001    1    1    2    0    0  0.41511997108E+02  0.11122638272E+03 -0.10272952766E+04  0.10369952456E+04  0.77000000000E+02 0.  0.
<mgrwt>
<rscale>  0 0.28384091E+03</rscale>
<asrwt>0</asrwt>
<pdfrwt beam="1">  1        2 0.29501524E+00 0.28384091E+03</pdfrwt>
<pdfrwt beam="2">  1       -2 0.16159162E-02 0.28384091E+03</pdfrwt>
<totfact> 0.86874097E+03</totfact>
</mgrwt>
</event>
<event>
 4    1  0.5980424E-004  0.1785334E+03  0.7818608E-02  0.1169230E+00
         -2   -1    0    0    0  501 -0.00000000000E+00  0.00000000000E+00  0.49315104723E+02  0.49315104789E+02  0.25500000000E-02 0. -1.
          2   -1    0    0  501    0  0.00000000000E+00 -0.00000000000E+00 -0.16158428337E+03  0.16158428339E+03  0.25500000000E-02 0.  1.
    5000001    1    1    2    0    0 -0.77747856432E+01 -0.40606963013E+02 -0.34669799125E+02  0.94023229621E+02  0.77000000000E+02 0.  0.
   -5000001    1    1    2    0    0  0.77747856432E+01  0.40606963013E+02 -0.77599379517E+02  0.11687615855E+03  0.77000000000E+02 0.  0.
<mgrwt>
<rscale>  0 0.17853342E+03</rscale>
<asrwt>0</asrwt>
<pdfrwt beam="1">  1        2 0.24859120E-01 0.17853342E+03</pdfrwt>
<pdfrwt beam="2">  1       -2 0.75869392E-02 0.17853342E+03</pdfrwt>
<totfact> 0.21195963E+04</totfact>
</mgrwt>
</event>
<event>
 4    1  0.5980424E-004  0.3267068E+03  0.7818608E-02  0.1072603E+00
          2   -1    0    0  501    0  0.00000000000E+00  0.00000000000E+00  0.16306925369E+04  0.16306925369E+04  0.25500000000E-02 0.  1.
         -2   -1    0    0    0  501 -0.00000000000E+00 -0.00000000000E+00 -0.16363807169E+02  0.16363807368E+02  0.25500000000E-02 0. -1.
    5000001    1    1    2    0    0 -0.29426063115E+02  0.10989000719E+03  0.36153202108E+03  0.38675070671E+03  0.77000000000E+02 0.  0.
   -5000001    1    1    2    0    0  0.29426063115E+02 -0.10989000719E+03  0.12527967087E+04  0.12603056376E+04  0.77000000000E+02 0.  0.
<mgrwt>
<rscale>  0 0.32670683E+03</rscale>
<asrwt>0</asrwt>
<pdfrwt beam="1">  1        2 0.25087585E+00 0.32670683E+03</pdfrwt>
<pdfrwt beam="2">  1       -2 0.25175081E-02 0.32670683E+03</pdfrwt>
<totfact> 0.64049688E+03</totfact>
</mgrwt>
</event>
<event>
 4    1  0.5980424E-004  0.2058947E+03  0.7818608E-02  0.1144859E+00
          2   -1    0    0  501    0  0.00000000000E+00  0.00000000000E+00  0.22577677926E+03  0.22577677927E+03  0.25500000000E-02 0.  1.
         -2   -1    0    0    0  501 -0.00000000000E+00 -0.00000000000E+00 -0.46940880866E+02  0.46940880935E+02  0.25500000000E-02 0. -1.
    5000001    1    1    2    0    0  0.49282022429E+02  0.33754516953E+02  0.13336974383E+03  0.16518042777E+03  0.77000000000E+02 0.  0.
   -5000001    1    1    2    0    0 -0.49282022429E+02 -0.33754516953E+02  0.45466154563E+02  0.10753723244E+03  0.77000000000E+02 0.  0.
<mgrwt>
<rscale>  0 0.20589474E+03</rscale>
<asrwt>0</asrwt>
<pdfrwt beam="1">  1        2 0.34734889E-01 0.20589474E+03</pdfrwt>
<pdfrwt beam="2">  1       -2 0.72216740E-02 0.20589474E+03</pdfrwt>
<totfact> 0.16040645E+04</totfact>
</mgrwt>
</event>
<event>
 4    1  0.5980424E-004  0.5910353E+03  0.7818608E-02  0.9924181E-01
          2   -1    0    0  501    0  0.00000000000E+00  0.00000000000E+00  0.17952460470E+03  0.17952460472E+03  0.25500000000E-02 0.  1.
         -2   -1    0    0    0  501 -0.00000000000E+00 -0.00000000000E+00 -0.48645527815E+03  0.48645527816E+03  0.25500000000E-02 0. -1.
    5000001    1    1    2    0    0  0.22414887566E+03 -0.16011159073E+03 -0.69722999424E+02  0.29439554445E+03  0.77000000000E+02 0.  0.
   -5000001    1    1    2    0    0 -0.22414887566E+03  0.16011159073E+03 -0.23720767403E+03  0.37158433843E+03  0.77000000000E+02 0.  0.
<mgrwt>
<rscale>  0 0.59103533E+03</rscale>
<asrwt>0</asrwt>
<pdfrwt beam="1">  1        2 0.27619170E-01 0.59103533E+03</pdfrwt>
<pdfrwt beam="2">  1       -2 0.74839273E-01 0.59103533E+03</pdfrwt>
<totfact> 0.31702117E+02</totfact>
</mgrwt>
</event>
<event>
 4    1  0.5980424E-004  0.2900263E+03  0.7818608E-02  0.1090335E+00
          2   -1    0    0  501    0  0.00000000000E+00  0.00000000000E+00  0.16837548435E+03  0.16837548437E+03  0.25500000000E-02 0.  1.
         -2   -1    0    0    0  501 -0.00000000000E+00 -0.00000000000E+00 -0.12489240740E+03  0.12489240743E+03  0.25500000000E-02 0. -1.
    5000001    1    1    2    0    0 -0.52637192166E+02 -0.10895164495E+03  0.43397834573E+02  0.14984494313E+03  0.77000000000E+02 0.  0.
   -5000001    1    1    2    0    0  0.52637192166E+02  0.10895164495E+03  0.85242372373E-01  0.14342294866E+03  0.77000000000E+02 0.  0.
<mgrwt>
<rscale>  0 0.29002634E+03</rscale>
<asrwt>0</asrwt>
<pdfrwt beam="1">  1        2 0.25903921E-01 0.29002634E+03</pdfrwt>
<pdfrwt beam="2">  1       -2 0.19214217E-01 0.29002634E+03</pdfrwt>
<totfact> 0.46357051E+03</totfact>
</mgrwt>
</event>
<event>
 4    1  0.5980424E-004  0.3310443E+03  0.7818608E-02  0.1070676E+00
          2   -1    0    0  501    0  0.00000000000E+00  0.00000000000E+00  0.27751386242E+04  0.27751386242E+04  0.25500000000E-02 0.  1.
         -2   -1    0    0    0  501 -0.00000000000E+00 -0.00000000000E+00 -0.98725109805E+01  0.98725113098E+01  0.25500000000E-02 0. -1.
    5000001    1    1    2    0    0  0.61197331885E+02 -0.12136918205E+03  0.92238305949E+03  0.93551862633E+03  0.77000000000E+02 0.  0.
   -5000001    1    1    2    0    0 -0.61197331885E+02  0.12136918205E+03  0.18428830537E+04  0.18494925092E+04  0.77000000000E+02 0.  0.
<mgrwt>
<rscale>  0 0.33104433E+03</rscale>
<asrwt>0</asrwt>
<pdfrwt beam="1">  1        2 0.42694416E+00 0.33104433E+03</pdfrwt>
<pdfrwt beam="2">  1       -2 0.15188487E-02 0.33104433E+03</pdfrwt>
<totfact> 0.32472868E+03</totfact>
</mgrwt>
</event>
<event>
 4    1  0.5980424E-004  0.2800929E+03  0.7818608E-02  0.1095638E+00
         -2   -1    0    0    0  501 -0.00000000000E+00  0.00000000000E+00  0.77747934406E+01  0.77747938587E+01  0.25500000000E-02 0. -1.
          2   -1    0    0  501    0  0.00000000000E+00 -0.00000000000E+00 -0.25226403847E+04  0.25226403847E+04  0.25500000000E-02 0.  1.
    5000001    1    1    2    0    0 -0.92428266181E+02  0.69481202338E+02 -0.14173627737E+04  0.14241547858E+04  0.77000000000E+02 0.  0.
   -5000001    1    1    2    0    0  0.92428266181E+02 -0.69481202338E+02 -0.10975028176E+04  0.11062603927E+04  0.77000000000E+02 0.  0.
<mgrwt>
<rscale>  0 0.28009290E+03</rscale>
<asrwt>0</asrwt>
<pdfrwt beam="1">  1        2 0.38809787E+00 0.28009290E+03</pdfrwt>
<pdfrwt beam="2">  1       -2 0.11961241E-02 0.28009290E+03</pdfrwt>
<totfact> 0.64016495E+03</totfact>
</mgrwt>
</event>
<event>
 4    1  0.5980424E-004  0.2694924E+03  0.7818608E-02  0.1101570E+00
         -2   -1    0    0    0  501 -0.00000000000E+00  0.00000000000E+00  0.61715829355E+03  0.61715829355E+03  0.25500000000E-02 0. -1.
          2   -1    0    0  501    0  0.00000000000E+00 -0.00000000000E+00 -0.29419573790E+02  0.29419573900E+02  0.25500000000E-02 0.  1.
    5000001    1    1    2    0    0  0.59976225317E+02 -0.73588176724E+02  0.15782638861E+03  0.19962599104E+03  0.77000000000E+02 0.  0.
   -5000001    1    1    2    0    0 -0.59976225317E+02  0.73588176724E+02  0.42991233114E+03  0.44695187641E+03  0.77000000000E+02 0.  0.
<mgrwt>
<rscale>  0 0.26949237E+03</rscale>
<asrwt>0</asrwt>
<pdfrwt beam="1">  1        2 0.45260890E-02 0.26949237E+03</pdfrwt>
<pdfrwt beam="2">  1       -2 0.94947416E-01 0.26949237E+03</pdfrwt>
<totfact> 0.17331035E+03</totfact>
</mgrwt>
</event>
<event>
 4    1  0.5980424E-004  0.3519186E+03  0.7818608E-02  0.1061830E+00
          2   -1    0    0  501    0  0.00000000000E+00  0.00000000000E+00  0.18378517763E+03  0.18378517765E+03  0.25500000000E-02 0.  1.
         -2   -1    0    0    0  501 -0.00000000000E+00 -0.00000000000E+00 -0.16846664614E+03  0.16846664616E+03  0.25500000000E-02 0. -1.
    5000001    1    1    2    0    0 -0.69576656858E+02 -0.17537830982E+02  0.14880408917E+03  0.18226393952E+03  0.77000000000E+02 0.  0.
   -5000001    1    1    2    0    0  0.69576656858E+02  0.17537830982E+02 -0.13348555768E+03  0.16998788429E+03  0.77000000000E+02 0.  0.
<mgrwt>
<rscale>  0 0.35191858E+03</rscale>
<asrwt>0</asrwt>
<pdfrwt beam="1">  1        2 0.28274643E-01 0.35191858E+03</pdfrwt>
<pdfrwt beam="2">  1       -2 0.25917946E-01 0.35191858E+03</pdfrwt>
<totfact> 0.25076354E+03</totfact>
</mgrwt>
</event>
<event>
 4    1  0.5980424E-004  0.2529520E+03  0.7818608E-02  0.1111453E+00
         -2   -1    0    0    0  501 -0.00000000000E+00  0.00000000000E+00  0.46379198984E+02  0.46379199054E+02  0.25500000000E-02 0. -1.
          2   -1    0    0  501    0  0.00000000000E+00 -0.00000000000E+00 -0.34489986276E+03  0.34489986277E+03  0.25500000000E-02 0.  1.
    5000001    1    1    2    0    0 -0.72529967976E+02 -0.39477133483E+02 -0.61101508164E+02  0.12838003981E+03  0.77000000000E+02 0.  0.
   -5000001    1    1    2    0    0  0.72529967976E+02  0.39477133483E+02 -0.23741915562E+03  0.26289902201E+03  0.77000000000E+02 0.  0.
<mgrwt>
<rscale>  0 0.25295201E+03</rscale>
<asrwt>0</asrwt>
<pdfrwt beam="1">  1        2 0.53061516E-01 0.25295201E+03</pdfrwt>
<pdfrwt beam="2">  1       -2 0.71352616E-02 0.25295201E+03</pdfrwt>
<totfact> 0.10488856E+04</totfact>
</mgrwt>
</event>
<event>
 4    1  0.5980424E-004  0.2735691E+03  0.7818608E-02  0.1099254E+00
         -2   -1    0    0    0  501 -0.00000000000E+00  0.00000000000E+00  0.14033948376E+02  0.14033948608E+02  0.25500000000E-02 0. -1.
          2   -1    0    0  501    0  0.00000000000E+00 -0.00000000000E+00 -0.13331968337E+04  0.13331968337E+04  0.25500000000E-02 0.  1.
    5000001    1    1    2    0    0 -0.75908826972E+02 -0.83730567617E+02 -0.67356061083E+03  0.68730332054E+03  0.77000000000E+02 0.  0.
   -5000001    1    1    2    0    0  0.75908826972E+02  0.83730567617E+02 -0.64560227454E+03  0.65992746182E+03  0.77000000000E+02 0.  0.
<mgrwt>
<rscale>  0 0.27356912E+03</rscale>
<asrwt>0</asrwt>
<pdfrwt beam="1">  1        2 0.20510711E+00 0.27356912E+03</pdfrwt>
<pdfrwt beam="2">  1       -2 0.21590700E-02 0.27356912E+03</pdfrwt>
<totfact> 0.11603094E+04</totfact>
</mgrwt>
</event>
<event>
 4    1  0.5980424E-004  0.2803563E+03  0.7818608E-02  0.1095495E+00
         -2   -1    0    0    0  501 -0.00000000000E+00  0.00000000000E+00  0.10038774924E+03  0.10038774928E+03  0.25500000000E-02 0. -1.
          2   -1    0    0  501    0  0.00000000000E+00 -0.00000000000E+00 -0.19574013829E+03  0.19574013831E+03  0.25500000000E-02 0.  1.
    5000001    1    1    2    0    0  0.53745149491E+02  0.71814539278E+02  0.31894578785E+02  0.12244236726E+03  0.77000000000E+02 0.  0.
   -5000001    1    1    2    0    0 -0.53745149491E+02 -0.71814539278E+02 -0.12724696783E+03  0.17368552032E+03  0.77000000000E+02 0.  0.
<mgrwt>
<rscale>  0 0.28035629E+03</rscale>
<asrwt>0</asrwt>
<pdfrwt beam="1">  1        2 0.30113867E-01 0.28035629E+03</pdfrwt>
<pdfrwt beam="2">  1       -2 0.15444269E-01 0.28035629E+03</pdfrwt>
<totfact> 0.56581717E+03</totfact>
</mgrwt>
</event>
<event>
 4    1  0.5980424E-004  0.1877052E+03  0.7818608E-02  0.1160548E+00
         -2   -1    0    0    0  501 -0.00000000000E+00  0.00000000000E+00  0.12189746054E+02  0.12189746321E+02  0.25500000000E-02 0. -1.
          2   -1    0    0  501    0  0.00000000000E+00 -0.00000000000E+00 -0.72259961642E+03  0.72259961643E+03  0.25500000000E-02 0.  1.
    5000001    1    1    2    0    0  0.65809922365E+01  0.42126124120E+02 -0.22767170075E+03  0.24409285756E+03  0.77000000000E+02 0.  0.
   -5000001    1    1    2    0    0 -0.65809922365E+01 -0.42126124120E+02 -0.48273816962E+03  0.49069650518E+03  0.77000000000E+02 0.  0.
<mgrwt>
<rscale>  0 0.18770515E+03</rscale>
<asrwt>0</asrwt>
<pdfrwt beam="1">  1        2 0.11116914E+00 0.18770515E+03</pdfrwt>
<pdfrwt beam="2">  1       -2 0.18753461E-02 0.18770515E+03</pdfrwt>
<totfact> 0.33144937E+04</totfact>
</mgrwt>
</event>
<event>
 4    1  0.5980424E-004  0.5810129E+03  0.7818608E-02  0.9945600E-01
         -2   -1    0    0    0  501 -0.00000000000E+00  0.00000000000E+00  0.12874662291E+03  0.12874662293E+03  0.25500000000E-02 0. -1.
          2   -1    0    0  501    0  0.00000000000E+00 -0.00000000000E+00 -0.65550465910E+03  0.65550465911E+03  0.25500000000E-02 0.  1.
    5000001    1    1    2    0    0  0.15923142957E+03 -0.18574474302E+03 -0.79245054158E+02  0.26844838672E+03  0.77000000000E+02 0.  0.
   -5000001    1    1    2    0    0 -0.15923142957E+03  0.18574474302E+03 -0.44751298204E+03  0.51580289532E+03  0.77000000000E+02 0.  0.
<mgrwt>
<rscale>  0 0.58101295E+03</rscale>
<asrwt>0</asrwt>
<pdfrwt beam="1">  1        2 0.10084687E+00 0.58101295E+03</pdfrwt>
<pdfrwt beam="2">  1       -2 0.19807173E-01 0.58101295E+03</pdfrwt>
<totfact> 0.96973515E+02</totfact>
</mgrwt>
</event>
<event>
 4    1  0.5980424E-004  0.5208797E+03  0.7818608E-02  0.1008468E+00
          2   -1    0    0  501    0  0.00000000000E+00  0.00000000000E+00  0.12457263952E+04  0.12457263952E+04  0.25500000000E-02 0.  1.
         -2   -1    0    0    0  501 -0.00000000000E+00 -0.00000000000E+00 -0.54449295189E+02  0.54449295248E+02  0.25500000000E-02 0. -1.
    5000001    1    1    2    0    0 -0.94596799175E+02  0.17807118974E+03  0.95943838739E+03  0.98341696255E+03  0.77000000000E+02 0.  0.
   -5000001    1    1    2    0    0  0.94596799175E+02 -0.17807118974E+03  0.23183871261E+03  0.31675872789E+03  0.77000000000E+02 0.  0.
<mgrwt>
<rscale>  0 0.52087973E+03</rscale>
<asrwt>0</asrwt>
<pdfrwt beam="1">  1        2 0.19165020E+00 0.52087973E+03</pdfrwt>
<pdfrwt beam="2">  1       -2 0.83768152E-02 0.52087973E+03</pdfrwt>
<totfact> 0.16466223E+03</totfact>
</mgrwt>
</event>
<event>
 4    1  0.5980424E-004  0.2071018E+03  0.7818608E-02  0.1143882E+00
         -2   -1    0    0    0  501 -0.00000000000E+00  0.00000000000E+00  0.42934285946E+02  0.42934286022E+02  0.25500000000E-02 0. -1.
          2   -1    0    0  501    0  0.00000000000E+00 -0.00000000000E+00 -0.24974893793E+03  0.24974893794E+03  0.25500000000E-02 0.  1.
    5000001    1    1    2    0    0  0.33611681426E+02  0.57902716689E+02 -0.78471761065E+02  0.12872174258E+03  0.77000000000E+02 0.  0.
   -5000001    1    1    2    0    0 -0.33611681426E+02 -0.57902716689E+02 -0.12834289092E+03  0.16396148138E+03  0.77000000000E+02 0.  0.
<mgrwt>
<rscale>  0 0.20710183E+03</rscale>
<asrwt>0</asrwt>
<pdfrwt beam="1">  1        2 0.38422913E-01 0.20710183E+03</pdfrwt>
<pdfrwt beam="2">  1       -2 0.66052749E-02 0.20710183E+03</pdfrwt>
<totfact> 0.16513635E+04</totfact>
</mgrwt>
</event>
<event>
 4    1  0.5980424E-004  0.2316185E+03  0.7818608E-02  0.1125506E+00
         -2   -1    0    0    0  501 -0.00000000000E+00  0.00000000000E+00  0.55941490765E+03  0.55941490766E+03  0.25500000000E-02 0. -1.
          2   -1    0    0  501    0  0.00000000000E+00 -0.00000000000E+00 -0.23974655223E+02  0.23974655359E+02  0.25500000000E-02 0.  1.
    5000001    1    1    2    0    0  0.17996516628E+02  0.77813124815E+02  0.35141029290E+03  0.36850637845E+03  0.77000000000E+02 0.  0.
   -5000001    1    1    2    0    0 -0.17996516628E+02 -0.77813124815E+02  0.18402995953E+03  0.21488318457E+03  0.77000000000E+02 0.  0.
<mgrwt>
<rscale>  0 0.23161848E+03</rscale>
<asrwt>0</asrwt>
<pdfrwt beam="1">  1        2 0.36884086E-02 0.23161848E+03</pdfrwt>
<pdfrwt beam="2">  1       -2 0.86063829E-01 0.23161848E+03</pdfrwt>
<totfact> 0.28302922E+03</totfact>
</mgrwt>
</event>
<event>
 4    1  0.5980424E-004  0.2079749E+03  0.7818608E-02  0.1143180E+00
         -2   -1    0    0    0  501 -0.00000000000E+00  0.00000000000E+00  0.11047618973E+02  0.11047619267E+02  0.25500000000E-02 0. -1.
          2   -1    0    0  501    0  0.00000000000E+00 -0.00000000000E+00 -0.97879791664E+03  0.97879791664E+03  0.25500000000E-02 0.  1.
    5000001    1    1    2    0    0  0.68923561049E+02  0.13934868024E+01 -0.53855445362E+03  0.54838152648E+03  0.77000000000E+02 0.  0.
   -5000001    1    1    2    0    0 -0.68923561049E+02 -0.13934868024E+01 -0.42919584405E+03  0.44146400943E+03  0.77000000000E+02 0.  0.
<mgrwt>
<rscale>  0 0.20797487E+03</rscale>
<asrwt>0</asrwt>
<pdfrwt beam="1">  1        2 0.15058423E+00 0.20797487E+03</pdfrwt>
<pdfrwt beam="2">  1       -2 0.16996345E-02 0.20797487E+03</pdfrwt>
<totfact> 0.26053342E+04</totfact>
</mgrwt>
</event>
<event>
 4    1  0.5980424E-004  0.1876479E+03  0.7818608E-02  0.1160600E+00
         -2   -1    0    0    0  501 -0.00000000000E+00  0.00000000000E+00  0.39767854377E+01  0.39767862553E+01  0.25500000000E-02 0. -1.
          2   -1    0    0  501    0  0.00000000000E+00 -0.00000000000E+00 -0.22135804042E+04  0.22135804042E+04  0.25500000000E-02 0.  1.
    5000001    1    1    2    0    0  0.11090647069E+02 -0.49361903225E+02 -0.89528076715E+03  0.90000902883E+03  0.77000000000E+02 0.  0.
   -5000001    1    1    2    0    0 -0.11090647069E+02  0.49361903225E+02 -0.13143228516E+04  0.13175481616E+04  0.77000000000E+02 0.  0.
<mgrwt>
<rscale>  0 0.18764792E+03</rscale>
<asrwt>0</asrwt>
<pdfrwt beam="1">  1        2 0.34054985E+00 0.18764792E+03</pdfrwt>
<pdfrwt beam="2">  1       -2 0.61181498E-03 0.18764792E+03</pdfrwt>
<totfact> 0.24526014E+04</totfact>
</mgrwt>
</event>
<event>
 4    1  0.5980424E-004  0.3562154E+03  0.7818608E-02  0.1060093E+00
         -2   -1    0    0    0  501 -0.00000000000E+00  0.00000000000E+00  0.11985661556E+02  0.11985661827E+02  0.25500000000E-02 0. -1.
          2   -1    0    0  501    0  0.00000000000E+00 -0.00000000000E+00 -0.26466919561E+04  0.26466919561E+04  0.25500000000E-02 0.  1.
    5000001    1    1    2    0    0 -0.14607279558E+03 -0.61734939612E+02 -0.11278153611E+04  0.11415099444E+04  0.77000000000E+02 0.  0.
   -5000001    1    1    2    0    0  0.14607279558E+03  0.61734939612E+02 -0.15068909334E+04  0.15171676735E+04  0.77000000000E+02 0.  0.
<mgrwt>
<rscale>  0 0.35621541E+03</rscale>
<asrwt>0</asrwt>
<pdfrwt beam="1">  1        2 0.40718291E+00 0.35621541E+03</pdfrwt>
<pdfrwt beam="2">  1       -2 0.18439501E-02 0.35621541E+03</pdfrwt>
<totfact> 0.28804727E+03</totfact>
</mgrwt>
</event>
<event>
 4    1  0.5980424E-004  0.1840116E+03  0.7818608E-02  0.1163976E+00
         -2   -1    0    0    0  501 -0.00000000000E+00  0.00000000000E+00  0.44315854684E+01  0.44315862021E+01  0.25500000000E-02 0. -1.
          2   -1    0    0  501    0  0.00000000000E+00 -0.00000000000E+00 -0.19101655822E+04  0.19101655822E+04  0.25500000000E-02 0.  1.
    5000001    1    1    2    0    0  0.42142755347E+02 -0.11532831966E+02 -0.12134112983E+04  0.12166367563E+04  0.77000000000E+02 0.  0.
   -5000001    1    1    2    0    0 -0.42142755347E+02  0.11532831966E+02 -0.69232269844E+03  0.69796041207E+03  0.77000000000E+02 0.  0.
<mgrwt>
<rscale>  0 0.18401155E+03</rscale>
<asrwt>0</asrwt>
<pdfrwt beam="1">  1        2 0.29387097E+00 0.18401155E+03</pdfrwt>
<pdfrwt beam="2">  1       -2 0.68178396E-03 0.18401155E+03</pdfrwt>
<totfact> 0.30186968E+04</totfact>
</mgrwt>
</event>
<event>
 4    1  0.5980424E-004  0.1898732E+03  0.7818608E-02  0.1158576E+00
         -2   -1    0    0    0  501 -0.00000000000E+00  0.00000000000E+00  0.74292513003E+01  0.74292517379E+01  0.25500000000E-02 0. -1.
          2   -1    0    0  501    0  0.00000000000E+00 -0.00000000000E+00 -0.12131722347E+04  0.12131722347E+04  0.25500000000E-02 0.  1.
    5000001    1    1    2    0    0  0.39537100683E+02  0.37960068209E+02 -0.66030241038E+03  0.66703254963E+03  0.77000000000E+02 0.  0.
   -5000001    1    1    2    0    0 -0.39537100683E+02 -0.37960068209E+02 -0.54544057305E+03  0.55356893684E+03  0.77000000000E+02 0.  0.
<mgrwt>
<rscale>  0 0.18987324E+03</rscale>
<asrwt>0</asrwt>
<pdfrwt beam="1">  1        2 0.18664172E+00 0.18987324E+03</pdfrwt>
<pdfrwt beam="2">  1       -2 0.11429627E-02 0.18987324E+03</pdfrwt>
<totfact> 0.33620214E+04</totfact>
</mgrwt>
</event>
<event>
 4    1  0.5980424E-004  0.3030743E+03  0.7818608E-02  0.1083714E+00
          2   -1    0    0  501    0  0.00000000000E+00  0.00000000000E+00  0.40468373715E+03  0.40468373716E+03  0.25500000000E-02 0.  1.
         -2   -1    0    0    0  501 -0.00000000000E+00 -0.00000000000E+00 -0.56744347368E+02  0.56744347426E+02  0.25500000000E-02 0. -1.
    5000001    1    1    2    0    0  0.80091508217E+02 -0.89838191639E+02  0.97103263673E+02  0.17275298603E+03  0.77000000000E+02 0.  0.
   -5000001    1    1    2    0    0 -0.80091508217E+02  0.89838191639E+02  0.25083612611E+03  0.28867509856E+03  0.77000000000E+02 0.  0.
<mgrwt>
<rscale>  0 0.30307434E+03</rscale>
<asrwt>0</asrwt>
<pdfrwt beam="1">  1        2 0.62259039E-01 0.30307434E+03</pdfrwt>
<pdfrwt beam="2">  1       -2 0.87298992E-02 0.30307434E+03</pdfrwt>
<totfact> 0.64818703E+03</totfact>
</mgrwt>
</event>
<event>
 4    1  0.5980424E-004  0.2991037E+03  0.7818608E-02  0.1085690E+00
         -2   -1    0    0    0  501 -0.00000000000E+00  0.00000000000E+00  0.36527724541E+03  0.36527724542E+03  0.25500000000E-02 0. -1.
          2   -1    0    0  501    0  0.00000000000E+00 -0.00000000000E+00 -0.61229537183E+02  0.61229537236E+02  0.25500000000E-02 0.  1.
    5000001    1    1    2    0    0 -0.90876107027E+02  0.90199097826E+02  0.16131034594E+03  0.21987353589E+03  0.77000000000E+02 0.  0.
   -5000001    1    1    2    0    0  0.90876107027E+02 -0.90199097826E+02  0.14273736229E+03  0.20663324677E+03  0.77000000000E+02 0.  0.
<mgrwt>
<rscale>  0 0.29910371E+03</rscale>
<asrwt>0</asrwt>
<pdfrwt beam="1">  1        2 0.94199287E-02 0.29910371E+03</pdfrwt>
<pdfrwt beam="2">  1       -2 0.56196500E-01 0.29910371E+03</pdfrwt>
<totfact> 0.20934176E+03</totfact>
</mgrwt>
</event>
<event>
 4    1  0.5980424E-004  0.5199607E+03  0.7818608E-02  0.1008696E+00
          2   -1    0    0  501    0  0.00000000000E+00  0.00000000000E+00  0.32072597120E+03  0.32072597121E+03  0.25500000000E-02 0.  1.
         -2   -1    0    0    0  501 -0.00000000000E+00 -0.00000000000E+00 -0.21073995295E+03  0.21073995296E+03  0.25500000000E-02 0. -1.
    5000001    1    1    2    0    0 -0.24124080097E+03  0.28227409106E+02  0.10777739512E+03  0.27665660588E+03  0.77000000000E+02 0.  0.
   -5000001    1    1    2    0    0  0.24124080097E+03 -0.28227409106E+02  0.22086231319E+01  0.25480931830E+03  0.77000000000E+02 0.  0.
<mgrwt>
<rscale>  0 0.51996068E+03</rscale>
<asrwt>0</asrwt>
<pdfrwt beam="1">  1        2 0.49342457E-01 0.51996068E+03</pdfrwt>
<pdfrwt beam="2">  1       -2 0.32421532E-01 0.51996068E+03</pdfrwt>
<totfact> 0.90555407E+02</totfact>
</mgrwt>
</event>
<event>
 4    1  0.5980424E-004  0.2710014E+03  0.7818608E-02  0.1100708E+00
         -2   -1    0    0    0  501 -0.00000000000E+00  0.00000000000E+00  0.86240433576E+02  0.86240433614E+02  0.25500000000E-02 0. -1.
          2   -1    0    0  501    0  0.00000000000E+00 -0.00000000000E+00 -0.21289832230E+03  0.21289832232E+03  0.25500000000E-02 0.  1.
    5000001    1    1    2    0    0 -0.98850264103E+02  0.20889786446E+02 -0.11538099071E+03  0.17160865627E+03  0.77000000000E+02 0.  0.
   -5000001    1    1    2    0    0  0.98850264103E+02 -0.20889786446E+02 -0.11276898023E+02  0.12753009966E+03  0.77000000000E+02 0.  0.
<mgrwt>
<rscale>  0 0.27100143E+03</rscale>
<asrwt>0</asrwt>
<pdfrwt beam="1">  1        2 0.32753588E-01 0.27100143E+03</pdfrwt>
<pdfrwt beam="2">  1       -2 0.13267759E-01 0.27100143E+03</pdfrwt>
<totfact> 0.66173910E+03</totfact>
</mgrwt>
</event>
<event>
 4    1  0.5980424E-004  0.2149744E+03  0.7818608E-02  0.1137686E+00
          2   -1    0    0  501    0  0.00000000000E+00  0.00000000000E+00  0.14054057076E+04  0.14054057076E+04  0.25500000000E-02 0.  1.
         -2   -1    0    0    0  501 -0.00000000000E+00 -0.00000000000E+00 -0.82207538154E+01  0.82207542109E+01  0.25500000000E-02 0. -1.
    5000001    1    1    2    0    0 -0.74514839972E+02  0.40508830425E+01  0.64954942649E+03  0.65834058699E+03  0.77000000000E+02 0.  0.
   -5000001    1    1    2    0    0  0.74514839972E+02 -0.40508830425E+01  0.74763552732E+03  0.75528587484E+03  0.77000000000E+02 0.  0.
<mgrwt>
<rscale>  0 0.21497437E+03</rscale>
<asrwt>0</asrwt>
<pdfrwt beam="1">  1        2 0.21621642E+00 0.21497437E+03</pdfrwt>
<pdfrwt beam="2">  1       -2 0.12647305E-02 0.21497437E+03</pdfrwt>
<totfact> 0.22956667E+04</totfact>
</mgrwt>
</event>
<event>
 4    1  0.5980424E-004  0.2762355E+03  0.7818608E-02  0.1097763E+00
          2   -1    0    0  501    0  0.00000000000E+00  0.00000000000E+00  0.16697866057E+03  0.16697866059E+03  0.25500000000E-02 0.  1.
         -2   -1    0    0    0  501 -0.00000000000E+00 -0.00000000000E+00 -0.11424521380E+03  0.11424521383E+03  0.25500000000E-02 0. -1.
    5000001    1    1    2    0    0  0.26136093422E+02 -0.10405719569E+03  0.67551149172E+02  0.14833459848E+03  0.77000000000E+02 0.  0.
   -5000001    1    1    2    0    0 -0.26136093422E+02  0.10405719569E+03 -0.14817702397E+02  0.13288927593E+03  0.77000000000E+02 0.  0.
<mgrwt>
<rscale>  0 0.27623550E+03</rscale>
<asrwt>0</asrwt>
<pdfrwt beam="1">  1        2 0.25689025E-01 0.27623550E+03</pdfrwt>
<pdfrwt beam="2">  1       -2 0.17576187E-01 0.27623550E+03</pdfrwt>
<totfact> 0.54322617E+03</totfact>
</mgrwt>
</event>
<event>
 4    1  0.5980424E-004  0.2840366E+03  0.7818608E-02  0.1093504E+00
          2   -1    0    0  501    0  0.00000000000E+00  0.00000000000E+00  0.88602967177E+02  0.88602967214E+02  0.25500000000E-02 0.  1.
         -2   -1    0    0    0  501 -0.00000000000E+00 -0.00000000000E+00 -0.22763568545E+03  0.22763568546E+03  0.25500000000E-02 0. -1.
    5000001    1    1    2    0    0  0.11782787730E+03  0.15440190727E+02 -0.81630604146E+02  0.16344529266E+03  0.77000000000E+02 0.  0.
   -5000001    1    1    2    0    0 -0.11782787730E+03 -0.15440190727E+02 -0.57402114126E+02  0.15279336002E+03  0.77000000000E+02 0.  0.
<mgrwt>
<rscale>  0 0.28403660E+03</rscale>
<asrwt>0</asrwt>
<pdfrwt beam="1">  1        2 0.13631226E-01 0.28403660E+03</pdfrwt>
<pdfrwt beam="2">  1       -2 0.35020874E-01 0.28403660E+03</pdfrwt>
<totfact> 0.33447832E+03</totfact>
</mgrwt>
</event>
<event>
 4    1  0.5980424E-004  0.3112302E+03  0.7818608E-02  0.1079758E+00
         -2   -1    0    0    0  501 -0.00000000000E+00  0.00000000000E+00  0.96019762006E+01  0.96019765392E+01  0.25500000000E-02 0. -1.
          2   -1    0    0  501    0  0.00000000000E+00 -0.00000000000E+00 -0.25219870978E+04  0.25219870978E+04  0.25500000000E-02 0.  1.
    5000001    1    1    2    0    0 -0.63394262664E+02  0.80391793666E+02 -0.19748281225E+04  0.19789787231E+04  0.77000000000E+02 0.  0.
   -5000001    1    1    2    0    0  0.63394262664E+02 -0.80391793666E+02 -0.53755699908E+03  0.55261035123E+03  0.77000000000E+02 0.  0.
<mgrwt>
<rscale>  0 0.31123021E+03</rscale>
<asrwt>0</asrwt>
<pdfrwt beam="1">  1        2 0.38799749E+00 0.31123021E+03</pdfrwt>
<pdfrwt beam="2">  1       -2 0.14772291E-02 0.31123021E+03</pdfrwt>
<totfact> 0.47005390E+03</totfact>
</mgrwt>
</event>
<event>
 4    1  0.5980424E-004  0.1894662E+03  0.7818608E-02  0.1158944E+00
          2   -1    0    0  501    0  0.00000000000E+00  0.00000000000E+00  0.10965220347E+04  0.10965220347E+04  0.25500000000E-02 0.  1.
         -2   -1    0    0    0  501 -0.00000000000E+00 -0.00000000000E+00 -0.81843827299E+01  0.81843831271E+01  0.25500000000E-02 0. -1.
    5000001    1    1    2    0    0 -0.33078105932E+02 -0.27420008504E+02  0.74609195836E+03  0.75128438577E+03  0.77000000000E+02 0.  0.
   -5000001    1    1    2    0    0  0.33078105932E+02  0.27420008504E+02  0.34224569365E+03  0.35342203211E+03  0.77000000000E+02 0.  0.
<mgrwt>
<rscale>  0 0.18946616E+03</rscale>
<asrwt>0</asrwt>
<pdfrwt beam="1">  1        2 0.16869561E+00 0.18946616E+03</pdfrwt>
<pdfrwt beam="2">  1       -2 0.12591365E-02 0.18946616E+03</pdfrwt>
<totfact> 0.34054792E+04</totfact>
</mgrwt>
</event>
<event>
 4    1  0.5980424E-004  0.2698895E+03  0.7818608E-02  0.1101343E+00
         -2   -1    0    0    0  501 -0.00000000000E+00  0.00000000000E+00  0.15065003156E+02  0.15065003372E+02  0.25500000000E-02 0. -1.
          2   -1    0    0  501    0  0.00000000000E+00 -0.00000000000E+00 -0.12087673690E+04  0.12087673690E+04  0.25500000000E-02 0.  1.
    5000001    1    1    2    0    0  0.89485481789E+02  0.65359442770E+02 -0.59115826168E+03  0.60636342120E+03  0.77000000000E+02 0.  0.
   -5000001    1    1    2    0    0 -0.89485481789E+02 -0.65359442770E+02 -0.60254410418E+03  0.61746895120E+03  0.77000000000E+02 0.  0.
<mgrwt>
<rscale>  0 0.26988949E+03</rscale>
<asrwt>0</asrwt>
<pdfrwt beam="1">  1        2 0.18596413E+00 0.26988949E+03</pdfrwt>
<pdfrwt beam="2">  1       -2 0.23176938E-02 0.26988949E+03</pdfrwt>
<totfact> 0.12256857E+04</totfact>
</mgrwt>
</event>
<event>
 4    1  0.5980424E-004  0.1836924E+03  0.7818608E-02  0.1164277E+00
          2   -1    0    0  501    0  0.00000000000E+00  0.00000000000E+00  0.12095032493E+03  0.12095032496E+03  0.25500000000E-02 0.  1.
         -2   -1    0    0    0  501 -0.00000000000E+00 -0.00000000000E+00 -0.69745342563E+02  0.69745342609E+02  0.25500000000E-02 0. -1.
    5000001    1    1    2    0    0  0.26610148663E+02  0.41620604820E+02  0.17146575176E+02  0.93077278633E+02  0.77000000000E+02 0.  0.
   -5000001    1    1    2    0    0 -0.26610148663E+02 -0.41620604820E+02  0.34058407190E+02  0.97618388932E+02  0.77000000000E+02 0.  0.
<mgrwt>
<rscale>  0 0.18369237E+03</rscale>
<asrwt>0</asrwt>
<pdfrwt beam="1">  1        2 0.18607742E-01 0.18369237E+03</pdfrwt>
<pdfrwt beam="2">  1       -2 0.10730053E-01 0.18369237E+03</pdfrwt>
<totfact> 0.17112661E+04</totfact>
</mgrwt>
</event>
<event>
 4    1  0.5980424E-004  0.2814982E+03  0.7818608E-02  0.1094873E+00
         -2   -1    0    0    0  501 -0.00000000000E+00  0.00000000000E+00  0.93335178389E+01  0.93335181872E+01  0.25500000000E-02 0. -1.
          2   -1    0    0  501    0  0.00000000000E+00 -0.00000000000E+00 -0.21224912766E+04  0.21224912766E+04  0.25500000000E-02 0.  1.
    5000001    1    1    2    0    0  0.34043640112E+01  0.11723594852E+03 -0.11414025037E+04  0.11499932751E+04  0.77000000000E+02 0.  0.
   -5000001    1    1    2    0    0 -0.34043640112E+01 -0.11723594852E+03 -0.97175525512E+03  0.98183151975E+03  0.77000000000E+02 0.  0.
<mgrwt>
<rscale>  0 0.28149821E+03</rscale>
<asrwt>0</asrwt>
<pdfrwt beam="1">  1        2 0.32653674E+00 0.28149821E+03</pdfrwt>
<pdfrwt beam="2">  1       -2 0.14359275E-02 0.28149821E+03</pdfrwt>
<totfact> 0.80525536E+03</totfact>
</mgrwt>
</event>
<event>
 4    1  0.5980424E-004  0.2493975E+03  0.7818608E-02  0.1113686E+00
         -2   -1    0    0    0  501 -0.00000000000E+00  0.00000000000E+00  0.22314145167E+02  0.22314145313E+02  0.25500000000E-02 0. -1.
          2   -1    0    0  501    0  0.00000000000E+00 -0.00000000000E+00 -0.69685717954E+03  0.69685717955E+03  0.25500000000E-02 0.  1.
    5000001    1    1    2    0    0  0.73746552342E+02  0.16930684582E+01 -0.15085052393E+03  0.18473305344E+03  0.77000000000E+02 0.  0.
   -5000001    1    1    2    0    0 -0.73746552342E+02 -0.16930684582E+01 -0.52369251044E+03  0.53443827142E+03  0.77000000000E+02 0.  0.
<mgrwt>
<rscale>  0 0.24939745E+03</rscale>
<asrwt>0</asrwt>
<pdfrwt beam="1">  1        2 0.10720878E+00 0.24939745E+03</pdfrwt>
<pdfrwt beam="2">  1       -2 0.34329460E-02 0.24939745E+03</pdfrwt>
<totfact> 0.14452258E+04</totfact>
</mgrwt>
</event>
<event>
 4    1  0.5980424E-004  0.1875116E+03  0.7818608E-02  0.1160725E+00
          2   -1    0    0  501    0  0.00000000000E+00  0.00000000000E+00  0.66336920644E+02  0.66336920693E+02  0.25500000000E-02 0.  1.
         -2   -1    0    0    0  501 -0.00000000000E+00 -0.00000000000E+00 -0.13250771447E+03  0.13250771449E+03  0.25500000000E-02 0. -1.
    5000001    1    1    2    0    0  0.32506200291E+02 -0.11453224249E+02 -0.76464014900E+02  0.11385769617E+03  0.77000000000E+02 0.  0.
   -5000001    1    1    2    0    0 -0.32506200291E+02  0.11453224249E+02  0.10293221074E+02  0.84986939015E+02  0.77000000000E+02 0.  0.
<mgrwt>
<rscale>  0 0.18751164E+03</rscale>
<asrwt>0</asrwt>
<pdfrwt beam="1">  1        2 0.10205680E-01 0.18751164E+03</pdfrwt>
<pdfrwt beam="2">  1       -2 0.20385802E-01 0.18751164E+03</pdfrwt>
<totfact> 0.12208243E+04</totfact>
</mgrwt>
</event>
<event>
 4    1  0.5980424E-004  0.1883426E+03  0.7818608E-02  0.1159965E+00
          2   -1    0    0  501    0  0.00000000000E+00  0.00000000000E+00  0.11295562450E+04  0.11295562450E+04  0.25500000000E-02 0.  1.
         -2   -1    0    0    0  501 -0.00000000000E+00 -0.00000000000E+00 -0.78510759295E+01  0.78510763436E+01  0.25500000000E-02 0. -1.
    5000001    1    1    2    0    0 -0.78020415081E+01  0.36833262291E+02  0.79642687057E+03  0.80102579311E+03  0.77000000000E+02 0.  0.
   -5000001    1    1    2    0    0  0.78020415081E+01 -0.36833262291E+02  0.32527829849E+03  0.33638152823E+03  0.77000000000E+02 0.  0.
<mgrwt>
<rscale>  0 0.18834258E+03</rscale>
<asrwt>0</asrwt>
<pdfrwt beam="1">  1        2 0.17377792E+00 0.18834258E+03</pdfrwt>
<pdfrwt beam="2">  1       -2 0.12078576E-02 0.18834258E+03</pdfrwt>
<totfact> 0.34596710E+04</totfact>
</mgrwt>
</event>
<event>
 4    1  0.5980424E-004  0.3878289E+03  0.7818608E-02  0.1048078E+00
          2   -1    0    0  501    0  0.00000000000E+00  0.00000000000E+00  0.74013086052E+03  0.74013086052E+03  0.25500000000E-02 0.  1.
         -2   -1    0    0    0  501 -0.00000000000E+00 -0.00000000000E+00 -0.50805621001E+02  0.50805621065E+02  0.25500000000E-02 0. -1.
    5000001    1    1    2    0    0  0.10189526887E+03 -0.14515206256E+03  0.37505173081E+03  0.42195327688E+03  0.77000000000E+02 0.  0.
   -5000001    1    1    2    0    0 -0.10189526887E+03  0.14515206256E+03  0.31427350870E+03  0.36898320471E+03  0.77000000000E+02 0.  0.
<mgrwt>
<rscale>  0 0.38782887E+03</rscale>
<asrwt>0</asrwt>
<pdfrwt beam="1">  1        2 0.11386628E+00 0.38782887E+03</pdfrwt>
<pdfrwt beam="2">  1       -2 0.78162499E-02 0.38782887E+03</pdfrwt>
<totfact> 0.38592247E+03</totfact>
</mgrwt>
</event>
<event>
 4    1  0.5980424E-004  0.2141506E+03  0.7818608E-02  0.1138321E+00
         -2   -1    0    0    0  501 -0.00000000000E+00  0.00000000000E+00  0.14165064149E+02  0.14165064378E+02  0.25500000000E-02 0. -1.
          2   -1    0    0  501    0  0.00000000000E+00 -0.00000000000E+00 -0.80939395048E+03  0.80939395048E+03  0.25500000000E-02 0.  1.
    5000001    1    1    2    0    0 -0.44791287210E+01 -0.72030300027E+02 -0.32799869793E+03  0.34455851834E+03  0.77000000000E+02 0.  0.
   -5000001    1    1    2    0    0  0.44791287210E+01  0.72030300027E+02 -0.46723018840E+03  0.47900049652E+03  0.77000000000E+02 0.  0.
<mgrwt>
<rscale>  0 0.21415058E+03</rscale>
<asrwt>0</asrwt>
<pdfrwt beam="1">  1        2 0.12452211E+00 0.21415058E+03</pdfrwt>
<pdfrwt beam="2">  1       -2 0.21792413E-02 0.21415058E+03</pdfrwt>
<totfact> 0.23330309E+04</totfact>
</mgrwt>
</event>
<event>
 4    1  0.5980424E-004  0.1943203E+03  0.7818608E-02  0.1154621E+00
         -2   -1    0    0    0  501 -0.00000000000E+00  0.00000000000E+00  0.31569744426E+01  0.31569754724E+01  0.25500000000E-02 0. -1.
          2   -1    0    0  501    0  0.00000000000E+00 -0.00000000000E+00 -0.29902345503E+04  0.29902345503E+04  0.25500000000E-02 0.  1.
    5000001    1    1    2    0    0 -0.50202549013E+02  0.90798205779E+01 -0.19578118689E+04  0.19599895543E+04  0.77000000000E+02 0.  0.
   -5000001    1    1    2    0    0  0.50202549013E+02 -0.90798205779E+01 -0.10292657070E+04  0.10334019715E+04  0.77000000000E+02 0.  0.
<mgrwt>
<rscale>  0 0.19432031E+03</rscale>
<asrwt>0</asrwt>
<pdfrwt beam="1">  1        2 0.46003382E+00 0.19432031E+03</pdfrwt>
<pdfrwt beam="2">  1       -2 0.48569085E-03 0.19432031E+03</pdfrwt>
<totfact> 0.12754393E+04</totfact>
</mgrwt>
</event>
<event>
 4    1  0.5980424E-004  0.2575163E+03  0.7818608E-02  0.1108645E+00
         -2   -1    0    0    0  501 -0.00000000000E+00  0.00000000000E+00  0.11591548497E+02  0.11591548777E+02  0.25500000000E-02 0. -1.
          2   -1    0    0  501    0  0.00000000000E+00 -0.00000000000E+00 -0.14302365885E+04  0.14302365885E+04  0.25500000000E-02 0.  1.
    5000001    1    1    2    0    0  0.25317442095E+02  0.20518487692E+02 -0.12575559286E+04  0.12603324541E+04  0.77000000000E+02 0.  0.
   -5000001    1    1    2    0    0 -0.25317442095E+02 -0.20518487692E+02 -0.16108911136E+03  0.18149568317E+03  0.77000000000E+02 0.  0.
<mgrwt>
<rscale>  0 0.25751627E+03</rscale>
<asrwt>0</asrwt>
<pdfrwt beam="1">  1        2 0.22003626E+00 0.25751627E+03</pdfrwt>
<pdfrwt beam="2">  1       -2 0.17833163E-02 0.25751627E+03</pdfrwt>
<totfact> 0.13585622E+04</totfact>
</mgrwt>
</event>
<event>
 4    1  0.5980424E-004  0.3629886E+03  0.7818608E-02  0.1057407E+00
          2   -1    0    0  501    0  0.00000000000E+00  0.00000000000E+00  0.11138118640E+04  0.11138118640E+04  0.25500000000E-02 0.  1.
         -2   -1    0    0    0  501 -0.00000000000E+00 -0.00000000000E+00 -0.29574277654E+02  0.29574277764E+02  0.25500000000E-02 0. -1.
    5000001    1    1    2    0    0  0.11450930464E+03  0.91492474667E+02  0.30792191099E+03  0.34961143722E+03  0.77000000000E+02 0.  0.
   -5000001    1    1    2    0    0 -0.11450930464E+03 -0.91492474667E+02  0.77631567537E+03  0.79377470455E+03  0.77000000000E+02 0.  0.
<mgrwt>
<rscale>  0 0.36298860E+03</rscale>
<asrwt>0</asrwt>
<pdfrwt beam="1">  1        2 0.17135568E+00 0.36298860E+03</pdfrwt>
<pdfrwt beam="2">  1       -2 0.45498887E-02 0.36298860E+03</pdfrwt>
<totfact> 0.50898028E+03</totfact>
</mgrwt>
</event>
<event>
 4    1  0.5980424E-004  0.2748998E+03  0.7818608E-02  0.1098508E+00
         -2   -1    0    0    0  501 -0.00000000000E+00  0.00000000000E+00  0.39966784266E+02  0.39966784347E+02  0.25500000000E-02 0. -1.
          2   -1    0    0  501    0  0.00000000000E+00 -0.00000000000E+00 -0.47270429838E+03  0.47270429838E+03  0.25500000000E-02 0.  1.
    5000001    1    1    2    0    0  0.62282760210E+02 -0.94951824999E+02 -0.23180155145E+03  0.26936211788E+03  0.77000000000E+02 0.  0.
   -5000001    1    1    2    0    0 -0.62282760210E+02  0.94951824999E+02 -0.20093596265E+03  0.24330896485E+03  0.77000000000E+02 0.  0.
<mgrwt>
<rscale>  0 0.27489977E+03</rscale>
<asrwt>0</asrwt>
<pdfrwt beam="1">  1        2 0.72723734E-01 0.27489977E+03</pdfrwt>
<pdfrwt beam="2">  1       -2 0.61487364E-02 0.27489977E+03</pdfrwt>
<totfact> 0.93941804E+03</totfact>
</mgrwt>
</event>
<event>
 4    1  0.5980424E-004  0.7585214E+03  0.7818608E-02  0.9622076E-01
         -2   -1    0    0    0  501 -0.00000000000E+00  0.00000000000E+00  0.35838203491E+03  0.35838203492E+03  0.25500000000E-02 0. -1.
          2   -1    0    0  501    0  0.00000000000E+00 -0.00000000000E+00 -0.40135568738E+03  0.40135568739E+03  0.25500000000E-02 0.  1.
    5000001    1    1    2    0    0 -0.16988829243E+03  0.27998472341E+03  0.15388303694E+03  0.36994927531E+03  0.77000000000E+02 0.  0.
   -5000001    1    1    2    0    0  0.16988829243E+03 -0.27998472341E+03 -0.19685668940E+03  0.38978844700E+03  0.77000000000E+02 0.  0.
<mgrwt>
<rscale>  0 0.75852137E+03</rscale>
<asrwt>0</asrwt>
<pdfrwt beam="1">  1        2 0.61747029E-01 0.75852137E+03</pdfrwt>
<pdfrwt beam="2">  1       -2 0.55135698E-01 0.75852137E+03</pdfrwt>
<totfact> 0.24711193E+02</totfact>
</mgrwt>
</event>
<event>
 4    1  0.5980424E-004  0.2128753E+03  0.7818608E-02  0.1139309E+00
         -2   -1    0    0    0  501 -0.00000000000E+00  0.00000000000E+00  0.83348313917E+01  0.83348317818E+01  0.25500000000E-02 0. -1.
          2   -1    0    0  501    0  0.00000000000E+00 -0.00000000000E+00 -0.13592323746E+04  0.13592323746E+04  0.25500000000E-02 0.  1.
    5000001    1    1    2    0    0 -0.57291914776E+02  0.32017666016E+02 -0.88778781746E+03  0.89353438841E+03  0.77000000000E+02 0.  0.
   -5000001    1    1    2    0    0  0.57291914776E+02 -0.32017666016E+02 -0.46310972571E+03  0.47403281794E+03  0.77000000000E+02 0.  0.
<mgrwt>
<rscale>  0 0.21287530E+03</rscale>
<asrwt>0</asrwt>
<pdfrwt beam="1">  1        2 0.20911250E+00 0.21287530E+03</pdfrwt>
<pdfrwt beam="2">  1       -2 0.12822829E-02 0.21287530E+03</pdfrwt>
<totfact> 0.23820274E+04</totfact>
</mgrwt>
</event>
<event>
 4    1  0.5980424E-004  0.2535894E+03  0.7818608E-02  0.1111057E+00
          2   -1    0    0  501    0  0.00000000000E+00  0.00000000000E+00  0.58328537894E+02  0.58328537949E+02  0.25500000000E-02 0.  1.
         -2   -1    0    0    0  501 -0.00000000000E+00 -0.00000000000E+00 -0.27562668735E+03  0.27562668736E+03  0.25500000000E-02 0. -1.
    5000001    1    1    2    0    0 -0.95668506669E+02 -0.31503236300E+02 -0.11092418179E+03  0.16845798043E+03  0.77000000000E+02 0.  0.
   -5000001    1    1    2    0    0  0.95668506669E+02  0.31503236300E+02 -0.10637396767E+03  0.16549724488E+03  0.77000000000E+02 0.  0.
<mgrwt>
<rscale>  0 0.25358945E+03</rscale>
<asrwt>0</asrwt>
<pdfrwt beam="1">  1        2 0.89736214E-02 0.25358945E+03</pdfrwt>
<pdfrwt beam="2">  1       -2 0.42404105E-01 0.25358945E+03</pdfrwt>
<totfact> 0.38737258E+03</totfact>
</mgrwt>
</event>
<event>
 4    1  0.5980424E-004  0.2171698E+03  0.7818608E-02  0.1136011E+00
          2   -1    0    0  501    0  0.00000000000E+00  0.00000000000E+00  0.11321697769E+04  0.11321697769E+04  0.25500000000E-02 0.  1.
         -2   -1    0    0    0  501 -0.00000000000E+00 -0.00000000000E+00 -0.10414231911E+02  0.10414232223E+02  0.25500000000E-02 0. -1.
    5000001    1    1    2    0    0 -0.71581618792E+02 -0.24582511061E+02  0.62165618238E+03  0.63096246885E+03  0.77000000000E+02 0.  0.
   -5000001    1    1    2    0    0  0.71581618792E+02  0.24582511061E+02  0.50009936262E+03  0.51162154029E+03  0.77000000000E+02 0.  0.
<mgrwt>
<rscale>  0 0.21716978E+03</rscale>
<asrwt>0</asrwt>
<pdfrwt beam="1">  1        2 0.17418000E+00 0.21716978E+03</pdfrwt>
<pdfrwt beam="2">  1       -2 0.16021893E-02 0.21716978E+03</pdfrwt>
<totfact> 0.23085118E+04</totfact>
</mgrwt>
</event>
<event>
 4    1  0.5980424E-004  0.2034103E+03  0.7818608E-02  0.1146893E+00
          2   -1    0    0  501    0  0.00000000000E+00  0.00000000000E+00  0.32813101030E+02  0.32813101129E+02  0.25500000000E-02 0.  1.
         -2   -1    0    0    0  501 -0.00000000000E+00 -0.00000000000E+00 -0.31523802537E+03  0.31523802538E+03  0.25500000000E-02 0. -1.
    5000001    1    1    2    0    0 -0.40879626316E+02 -0.51970843228E+02 -0.15240987742E+03  0.18311166847E+03  0.77000000000E+02 0.  0.
   -5000001    1    1    2    0    0  0.40879626316E+02  0.51970843228E+02 -0.13001504691E+03  0.16493945803E+03  0.77000000000E+02 0.  0.
<mgrwt>
<rscale>  0 0.20341030E+03</rscale>
<asrwt>0</asrwt>
<pdfrwt beam="1">  1        2 0.50481696E-02 0.20341030E+03</pdfrwt>
<pdfrwt beam="2">  1       -2 0.48498156E-01 0.20341030E+03</pdfrwt>
<totfact> 0.61800798E+03</totfact>
</mgrwt>
</event>
<event>
 4    1  0.5980424E-004  0.2434595E+03  0.7818608E-02  0.1117509E+00
          2   -1    0    0  501    0  0.00000000000E+00  0.00000000000E+00  0.37442057248E+04  0.37442057248E+04  0.25500000000E-02 0.  1.
         -2   -1    0    0    0  501 -0.00000000000E+00 -0.00000000000E+00 -0.39576175660E+01  0.39576183875E+01  0.25500000000E-02 0. -1.
    5000001    1    1    2    0    0 -0.57506125788E+02 -0.16041644120E+01  0.30201127526E+04  0.30216418659E+04  0.77000000000E+02 0.  0.
   -5000001    1    1    2    0    0  0.57506125788E+02  0.16041644120E+01  0.72013535468E+03  0.72652147725E+03  0.77000000000E+02 0.  0.
<mgrwt>
<rscale>  0 0.24345953E+03</rscale>
<asrwt>0</asrwt>
<pdfrwt beam="1">  1        2 0.57603025E+00 0.24345953E+03</pdfrwt>
<pdfrwt beam="2">  1       -2 0.60886578E-03 0.24345953E+03</pdfrwt>
<totfact> 0.30320818E+03</totfact>
</mgrwt>
</event>
<event>
 4    1  0.5980424E-004  0.2360278E+03  0.7818608E-02  0.1122468E+00
         -2   -1    0    0    0  501 -0.00000000000E+00  0.00000000000E+00  0.16157266289E+03  0.16157266292E+03  0.25500000000E-02 0. -1.
          2   -1    0    0  501    0  0.00000000000E+00 -0.00000000000E+00 -0.86198243050E+02  0.86198243087E+02  0.25500000000E-02 0.  1.
    5000001    1    1    2    0    0  0.86261053057E+02 -0.23525013141E+02  0.35618329040E+02  0.12325607848E+03  0.77000000000E+02 0.  0.
   -5000001    1    1    2    0    0 -0.86261053057E+02  0.23525013141E+02  0.39756090805E+02  0.12451482753E+03  0.77000000000E+02 0.  0.
<mgrwt>
<rscale>  0 0.23602779E+03</rscale>
<asrwt>0</asrwt>
<pdfrwt beam="1">  1        2 0.13261268E-01 0.23602779E+03</pdfrwt>
<pdfrwt beam="2">  1       -2 0.24857333E-01 0.23602779E+03</pdfrwt>
<totfact> 0.63860651E+03</totfact>
</mgrwt>
</event>
<event>
 4    1  0.5980424E-004  0.2633081E+03  0.7818608E-02  0.1105172E+00
          2   -1    0    0  501    0  0.00000000000E+00  0.00000000000E+00  0.81800959642E+02  0.81800959682E+02  0.25500000000E-02 0.  1.
         -2   -1    0    0    0  501 -0.00000000000E+00 -0.00000000000E+00 -0.21188987137E+03  0.21188987138E+03  0.25500000000E-02 0. -1.
    5000001    1    1    2    0    0 -0.23558707124E+02  0.90706754920E+02 -0.79406393088E+01  0.12155156034E+03  0.77000000000E+02 0.  0.
   -5000001    1    1    2    0    0  0.23558707124E+02 -0.90706754920E+02 -0.12214827241E+03  0.17213927072E+03  0.77000000000E+02 0.  0.
<mgrwt>
<rscale>  0 0.26330815E+03</rscale>
<asrwt>0</asrwt>
<pdfrwt beam="1">  1        2 0.12584763E-01 0.26330815E+03</pdfrwt>
<pdfrwt beam="2">  1       -2 0.32598442E-01 0.26330815E+03</pdfrwt>
<totfact> 0.41955373E+03</totfact>
</mgrwt>
</event>
<event>
 4    1  0.5980424E-004  0.4312627E+03  0.7818608E-02  0.1033462E+00
         -2   -1    0    0    0  501 -0.00000000000E+00  0.00000000000E+00  0.10105531812E+04  0.10105531812E+04  0.25500000000E-02 0. -1.
          2   -1    0    0  501    0  0.00000000000E+00 -0.00000000000E+00 -0.46011323432E+02  0.46011323502E+02  0.25500000000E-02 0.  1.
    5000001    1    1    2    0    0  0.17119229109E+03 -0.10189922450E+03  0.55485001387E+03  0.59453998215E+03  0.77000000000E+02 0.  0.
   -5000001    1    1    2    0    0 -0.17119229109E+03  0.10189922450E+03  0.40969184385E+03  0.46202452251E+03  0.77000000000E+02 0.  0.
<mgrwt>
<rscale>  0 0.43126275E+03</rscale>
<asrwt>0</asrwt>
<pdfrwt beam="1">  1        2 0.70786650E-02 0.43126275E+03</pdfrwt>
<pdfrwt beam="2">  1       -2 0.15546972E+00 0.43126275E+03</pdfrwt>
<totfact> 0.28803325E+02</totfact>
</mgrwt>
</event>
<event>
 4    1  0.5980424E-004  0.1872708E+03  0.7818608E-02  0.1160946E+00
          2   -1    0    0  501    0  0.00000000000E+00  0.00000000000E+00  0.95913212184E+03  0.95913212184E+03  0.25500000000E-02 0.  1.
         -2   -1    0    0    0  501 -0.00000000000E+00 -0.00000000000E+00 -0.91411725385E+01  0.91411728942E+01  0.25500000000E-02 0. -1.
    5000001    1    1    2    0    0 -0.39157395085E+02 -0.16874377897E+02  0.64017039688E+03  0.64619283752E+03  0.77000000000E+02 0.  0.
   -5000001    1    1    2    0    0  0.39157395085E+02  0.16874377897E+02  0.30982055242E+03  0.32208045721E+03  0.77000000000E+02 0.  0.
<mgrwt>
<rscale>  0 0.18727085E+03</rscale>
<asrwt>0</asrwt>
<pdfrwt beam="1">  1        2 0.14755864E+00 0.18727085E+03</pdfrwt>
<pdfrwt beam="2">  1       -2 0.14063357E-02 0.18727085E+03</pdfrwt>
<totfact> 0.35029393E+04</totfact>
</mgrwt>
</event>
<event>
 4    1  0.5980424E-004  0.4524661E+03  0.7818608E-02  0.1026989E+00
         -2   -1    0    0    0  501 -0.00000000000E+00  0.00000000000E+00  0.36874578404E+02  0.36874578493E+02  0.25500000000E-02 0. -1.
          2   -1    0    0  501    0  0.00000000000E+00 -0.00000000000E+00 -0.13879860802E+04  0.13879860802E+04  0.25500000000E-02 0.  1.
    5000001    1    1    2    0    0 -0.33235004946E+02  0.18511186411E+03 -0.98859319965E+03  0.10092653180E+04  0.77000000000E+02 0.  0.
   -5000001    1    1    2    0    0  0.33235004946E+02 -0.18511186411E+03 -0.36251830213E+03  0.41559534065E+03  0.77000000000E+02 0.  0.
<mgrwt>
<rscale>  0 0.45246614E+03</rscale>
<asrwt>0</asrwt>
<pdfrwt beam="1">  1        2 0.21353628E+00 0.45246614E+03</pdfrwt>
<pdfrwt beam="2">  1       -2 0.56730131E-02 0.45246614E+03</pdfrwt>
<totfact> 0.25284612E+03</totfact>
</mgrwt>
</event>
<event>
 4    1  0.5980424E-004  0.3151345E+03  0.7818608E-02  0.1077911E+00
         -2   -1    0    0    0  501 -0.00000000000E+00  0.00000000000E+00  0.15068119644E+03  0.15068119646E+03  0.25500000000E-02 0. -1.
          2   -1    0    0  501    0  0.00000000000E+00 -0.00000000000E+00 -0.16476802312E+03  0.16476802314E+03  0.25500000000E-02 0.  1.
    5000001    1    1    2    0    0 -0.73388697228E+02 -0.66957912018E+02 -0.10216029890E+03  0.16197218753E+03  0.77000000000E+02 0.  0.
   -5000001    1    1    2    0    0  0.73388697228E+02  0.66957912018E+02  0.88073472221E+02  0.15347703207E+03  0.77000000000E+02 0.  0.
<mgrwt>
<rscale>  0 0.31513453E+03</rscale>
<asrwt>0</asrwt>
<pdfrwt beam="1">  1        2 0.25348927E-01 0.31513453E+03</pdfrwt>
<pdfrwt beam="2">  1       -2 0.23181722E-01 0.31513453E+03</pdfrwt>
<totfact> 0.34421650E+03</totfact>
</mgrwt>
</event>
<event>
 4    1  0.5980424E-004  0.4620922E+03  0.7818608E-02  0.1024176E+00
         -2   -1    0    0    0  501 -0.00000000000E+00  0.00000000000E+00  0.29164642637E+03  0.29164642638E+03  0.25500000000E-02 0. -1.
          2   -1    0    0  501    0  0.00000000000E+00 -0.00000000000E+00 -0.18303774747E+03  0.18303774749E+03  0.25500000000E-02 0.  1.
    5000001    1    1    2    0    0  0.14568199452E+03 -0.11561131254E+03 -0.62206293189E+02  0.21068422349E+03  0.77000000000E+02 0.  0.
   -5000001    1    1    2    0    0 -0.14568199452E+03  0.11561131254E+03  0.17081497209E+03  0.26399995039E+03  0.77000000000E+02 0.  0.
<mgrwt>
<rscale>  0 0.46209222E+03</rscale>
<asrwt>0</asrwt>
<pdfrwt beam="1">  1        2 0.28159654E-01 0.46209222E+03</pdfrwt>
<pdfrwt beam="2">  1       -2 0.44868680E-01 0.46209222E+03</pdfrwt>
<totfact> 0.90282820E+02</totfact>
</mgrwt>
</event>
<event>
 4    1  0.5980424E-004  0.2563992E+03  0.7818608E-02  0.1109326E+00
          2   -1    0    0  501    0  0.00000000000E+00  0.00000000000E+00  0.11886655012E+03  0.11886655015E+03  0.25500000000E-02 0.  1.
         -2   -1    0    0    0  501 -0.00000000000E+00 -0.00000000000E+00 -0.13826542620E+03  0.13826542622E+03  0.25500000000E-02 0. -1.
    5000001    1    1    2    0    0 -0.99779135779E+02 -0.93198947621E+01  0.11888763792E+02  0.12693730374E+03  0.77000000000E+02 0.  0.
   -5000001    1    1    2    0    0  0.99779135779E+02  0.93198947621E+01 -0.31287639868E+02  0.13019467264E+03  0.77000000000E+02 0.  0.
<mgrwt>
<rscale>  0 0.25639917E+03</rscale>
<asrwt>0</asrwt>
<pdfrwt beam="1">  1        2 0.18287161E-01 0.25639917E+03</pdfrwt>
<pdfrwt beam="2">  1       -2 0.21271604E-01 0.25639917E+03</pdfrwt>
<totfact> 0.57560848E+03</totfact>
</mgrwt>
</event>
<event>
 4    1  0.5980424E-004  0.3632380E+03  0.7818608E-02  0.1057309E+00
         -2   -1    0    0    0  501 -0.00000000000E+00  0.00000000000E+00  0.36766129227E+02  0.36766129315E+02  0.25500000000E-02 0. -1.
          2   -1    0    0  501    0  0.00000000000E+00 -0.00000000000E+00 -0.89716988698E+03  0.89716988699E+03  0.25500000000E-02 0.  1.
    5000001    1    1    2    0    0 -0.12104552435E+03 -0.17877039396E+02 -0.71285030973E+03  0.72736247606E+03  0.77000000000E+02 0.  0.
   -5000001    1    1    2    0    0  0.12104552435E+03  0.17877039396E+02 -0.14755344803E+03  0.20657354024E+03  0.77000000000E+02 0.  0.
<mgrwt>
<rscale>  0 0.36323802E+03</rscale>
<asrwt>0</asrwt>
<pdfrwt beam="1">  1        2 0.13802612E+00 0.36323802E+03</pdfrwt>
<pdfrwt beam="2">  1       -2 0.56563282E-02 0.36323802E+03</pdfrwt>
<totfact> 0.49674294E+03</totfact>
</mgrwt>
</event>
<event>
 4    1  0.5980424E-004  0.2375859E+03  0.7818608E-02  0.1121412E+00
          2   -1    0    0  501    0  0.00000000000E+00  0.00000000000E+00  0.11052578827E+04  0.11052578827E+04  0.25500000000E-02 0.  1.
         -2   -1    0    0    0  501 -0.00000000000E+00 -0.00000000000E+00 -0.12767845253E+02  0.12767845507E+02  0.25500000000E-02 0. -1.
    5000001    1    1    2    0    0  0.58845353881E+02  0.68452911577E+02  0.57375870832E+03  0.58589814145E+03  0.77000000000E+02 0.  0.
   -5000001    1    1    2    0    0 -0.58845353881E+02 -0.68452911577E+02  0.51873132909E+03  0.53212758673E+03  0.77000000000E+02 0.  0.
<mgrwt>
<rscale>  0 0.23758587E+03</rscale>
<asrwt>0</asrwt>
<pdfrwt beam="1">  1        2 0.17003971E+00 0.23758587E+03</pdfrwt>
<pdfrwt beam="2">  1       -2 0.19642835E-02 0.23758587E+03</pdfrwt>
<totfact> 0.17845331E+04</totfact>
</mgrwt>
</event>
<event>
 4    1  0.5980424E-004  0.2444878E+03  0.7818608E-02  0.1116839E+00
         -2   -1    0    0    0  501 -0.00000000000E+00  0.00000000000E+00  0.15681913708E+02  0.15681913916E+02  0.25500000000E-02 0. -1.
          2   -1    0    0  501    0  0.00000000000E+00 -0.00000000000E+00 -0.95291739447E+03  0.95291739447E+03  0.25500000000E-02 0.  1.
    5000001    1    1    2    0    0  0.84219248295E+02 -0.41180573209E+02 -0.52815573758E+03  0.54190977527E+03  0.77000000000E+02 0.  0.
   -5000001    1    1    2    0    0 -0.84219248295E+02  0.41180573209E+02 -0.40907974318E+03  0.42668953312E+03  0.77000000000E+02 0.  0.
<mgrwt>
<rscale>  0 0.24448778E+03</rscale>
<asrwt>0</asrwt>
<pdfrwt beam="1">  1        2 0.14660263E+00 0.24448778E+03</pdfrwt>
<pdfrwt beam="2">  1       -2 0.24126029E-02 0.24448778E+03</pdfrwt>
<totfact> 0.16314320E+04</totfact>
</mgrwt>
</event>
<event>
 4    1  0.5980424E-004  0.2162014E+03  0.7818608E-02  0.1136747E+00
         -2   -1    0    0    0  501 -0.00000000000E+00  0.00000000000E+00  0.44521530459E+02  0.44521530532E+02  0.25500000000E-02 0. -1.
          2   -1    0    0  501    0  0.00000000000E+00 -0.00000000000E+00 -0.26247431115E+03  0.26247431116E+03  0.25500000000E-02 0.  1.
    5000001    1    1    2    0    0 -0.66435158933E+02 -0.34601110202E+02 -0.91825442471E+02  0.14132154491E+03  0.77000000000E+02 0.  0.
   -5000001    1    1    2    0    0  0.66435158933E+02  0.34601110202E+02 -0.12612733822E+03  0.16567429679E+03  0.77000000000E+02 0.  0.
<mgrwt>
<rscale>  0 0.21620137E+03</rscale>
<asrwt>0</asrwt>
<pdfrwt beam="1">  1        2 0.40380662E-01 0.21620137E+03</pdfrwt>
<pdfrwt beam="2">  1       -2 0.68494664E-02 0.21620137E+03</pdfrwt>
<totfact> 0.14847089E+04</totfact>
</mgrwt>
</event>
<event>
 4    1  0.5980424E-004  0.1841250E+03  0.7818608E-02  0.1163870E+00
         -2   -1    0    0    0  501 -0.00000000000E+00  0.00000000000E+00  0.42482208387E+02  0.42482208464E+02  0.25500000000E-02 0. -1.
          2   -1    0    0  501    0  0.00000000000E+00 -0.00000000000E+00 -0.19950705677E+03  0.19950705679E+03  0.25500000000E-02 0.  1.
    5000001    1    1    2    0    0  0.36932704636E+02  0.31946491377E+02 -0.95235006942E+02  0.13184577934E+03  0.77000000000E+02 0.  0.
   -5000001    1    1    2    0    0 -0.36932704636E+02 -0.31946491377E+02 -0.61789841442E+02  0.11014348591E+03  0.77000000000E+02 0.  0.
<mgrwt>
<rscale>  0 0.18412496E+03</rscale>
<asrwt>0</asrwt>
<pdfrwt beam="1">  1        2 0.30693393E-01 0.18412496E+03</pdfrwt>
<pdfrwt beam="2">  1       -2 0.65357245E-02 0.18412496E+03</pdfrwt>
<totfact> 0.21208413E+04</totfact>
</mgrwt>
</event>
<event>
 4    1  0.5980424E-004  0.2084853E+03  0.7818608E-02  0.1142771E+00
         -2   -1    0    0    0  501 -0.00000000000E+00  0.00000000000E+00  0.15075365957E+02  0.15075366173E+02  0.25500000000E-02 0. -1.
          2   -1    0    0  501    0  0.00000000000E+00 -0.00000000000E+00 -0.72081370647E+03  0.72081370648E+03  0.25500000000E-02 0.  1.
    5000001    1    1    2    0    0  0.48076076065E+02 -0.19040367807E+02 -0.18493271583E+03  0.20688874807E+03  0.77000000000E+02 0.  0.
   -5000001    1    1    2    0    0 -0.48076076065E+02  0.19040367807E+02 -0.52080562469E+03  0.52900032458E+03  0.77000000000E+02 0.  0.
<mgrwt>
<rscale>  0 0.20848530E+03</rscale>
<asrwt>0</asrwt>
<pdfrwt beam="1">  1        2 0.11089439E+00 0.20848530E+03</pdfrwt>
<pdfrwt beam="2">  1       -2 0.23192876E-02 0.20848530E+03</pdfrwt>
<totfact> 0.24543548E+04</totfact>
</mgrwt>
</event>
<event>
 4    1  0.5980424E-004  0.2043902E+03  0.7818608E-02  0.1146087E+00
         -2   -1    0    0    0  501 -0.00000000000E+00  0.00000000000E+00  0.12420419606E+02  0.12420419868E+02  0.25500000000E-02 0. -1.
          2   -1    0    0  501    0  0.00000000000E+00 -0.00000000000E+00 -0.84086007983E+03  0.84086007983E+03  0.25500000000E-02 0.  1.
    5000001    1    1    2    0    0  0.34701125229E+02 -0.57029645240E+02 -0.38234732445E+03  0.39569562171E+03  0.77000000000E+02 0.  0.
   -5000001    1    1    2    0    0 -0.34701125229E+02  0.57029645240E+02 -0.44609233577E+03  0.45758487799E+03  0.77000000000E+02 0.  0.
<mgrwt>
<rscale>  0 0.20439017E+03</rscale>
<asrwt>0</asrwt>
<pdfrwt beam="1">  1        2 0.12936304E+00 0.20439017E+03</pdfrwt>
<pdfrwt beam="2">  1       -2 0.19108345E-02 0.20439017E+03</pdfrwt>
<totfact> 0.26856240E+04</totfact>
</mgrwt>
</event>
<event>
 4    1  0.5980424E-004  0.1897009E+03  0.7818608E-02  0.1158731E+00
          2   -1    0    0  501    0  0.00000000000E+00  0.00000000000E+00  0.31834767713E+02  0.31834767815E+02  0.25500000000E-02 0.  1.
         -2   -1    0    0    0  501 -0.00000000000E+00 -0.00000000000E+00 -0.28260307981E+03  0.28260307983E+03  0.25500000000E-02 0. -1.
    5000001    1    1    2    0    0 -0.53770704186E+02  0.41660052376E+01 -0.10448598151E+03  0.14055235523E+03  0.77000000000E+02 0.  0.
   -5000001    1    1    2    0    0  0.53770704186E+02 -0.41660052376E+01 -0.14628233059E+03  0.17388549241E+03  0.77000000000E+02 0.  0.
<mgrwt>
<rscale>  0 0.18970085E+03</rscale>
<asrwt>0</asrwt>
<pdfrwt beam="1">  1        2 0.48976568E-02 0.18970085E+03</pdfrwt>
<pdfrwt beam="2">  1       -2 0.43477395E-01 0.18970085E+03</pdfrwt>
<totfact> 0.79250845E+03</totfact>
</mgrwt>
</event>
<event>
 4    1  0.5980424E-004  0.7721632E+03  0.7818608E-02  0.9601207E-01
          2   -1    0    0  501    0  0.00000000000E+00  0.00000000000E+00  0.16811631797E+04  0.16811631797E+04  0.25500000000E-02 0.  1.
         -2   -1    0    0    0  501 -0.00000000000E+00 -0.00000000000E+00 -0.88664214539E+02  0.88664214576E+02  0.25500000000E-02 0. -1.
    5000001    1    1    2    0    0 -0.28198792801E+03 -0.17666628430E+03  0.12088280553E+04  0.12561538261E+04  0.77000000000E+02 0.  0.
   -5000001    1    1    2    0    0  0.28198792801E+03  0.17666628430E+03  0.38367090980E+03  0.51367356811E+03  0.77000000000E+02 0.  0.
<mgrwt>
<rscale>  0 0.77216323E+03</rscale>
<asrwt>0</asrwt>
<pdfrwt beam="1">  1        2 0.25864049E+00 0.77216323E+03</pdfrwt>
<pdfrwt beam="2">  1       -2 0.13640648E-01 0.77216323E+03</pdfrwt>
<totfact> 0.41914098E+02</totfact>
</mgrwt>
</event>
<event>
 4    1  0.5980424E-004  0.5782611E+03  0.7818608E-02  0.9951563E-01
          2   -1    0    0  501    0  0.00000000000E+00  0.00000000000E+00  0.39095697813E+03  0.39095697814E+03  0.25500000000E-02 0.  1.
         -2   -1    0    0    0  501 -0.00000000000E+00 -0.00000000000E+00 -0.21382528666E+03  0.21382528668E+03  0.25500000000E-02 0. -1.
    5000001    1    1    2    0    0  0.17815119965E+03 -0.18276550712E+03 -0.28488704737E+02  0.26810760307E+03  0.77000000000E+02 0.  0.
   -5000001    1    1    2    0    0 -0.17815119965E+03  0.18276550712E+03  0.20562039621E+03  0.33667466175E+03  0.77000000000E+02 0.  0.
<mgrwt>
<rscale>  0 0.57826114E+03</rscale>
<asrwt>0</asrwt>
<pdfrwt beam="1">  1        2 0.60147227E-01 0.57826114E+03</pdfrwt>
<pdfrwt beam="2">  1       -2 0.32896198E-01 0.57826114E+03</pdfrwt>
<totfact> 0.70736187E+02</totfact>
</mgrwt>
</event>
<event>
 4    1  0.5980424E-004  0.2661082E+03  0.7818608E-02  0.1103528E+00
          2   -1    0    0  501    0  0.00000000000E+00  0.00000000000E+00  0.56826102202E+02  0.56826102259E+02  0.25500000000E-02 0.  1.
         -2   -1    0    0    0  501 -0.00000000000E+00 -0.00000000000E+00 -0.31153629858E+03  0.31153629859E+03  0.25500000000E-02 0. -1.
    5000001    1    1    2    0    0  0.73519304311E+02 -0.73921440160E+02 -0.16899633329E+03  0.21297471232E+03  0.77000000000E+02 0.  0.
   -5000001    1    1    2    0    0 -0.73519304311E+02  0.73921440160E+02 -0.85713863087E+02  0.15538768853E+03  0.77000000000E+02 0.  0.
<mgrwt>
<rscale>  0 0.26610820E+03</rscale>
<asrwt>0</asrwt>
<pdfrwt beam="1">  1        2 0.87424774E-02 0.26610820E+03</pdfrwt>
<pdfrwt beam="2">  1       -2 0.47928661E-01 0.26610820E+03</pdfrwt>
<totfact> 0.31567232E+03</totfact>
</mgrwt>
</event>
<event>
 4    1  0.5980424E-004  0.4689813E+03  0.7818608E-02  0.1022208E+00
          2   -1    0    0  501    0  0.00000000000E+00  0.00000000000E+00  0.51230730158E+03  0.51230730159E+03  0.25500000000E-02 0.  1.
         -2   -1    0    0    0  501 -0.00000000000E+00 -0.00000000000E+00 -0.10732983427E+03  0.10732983430E+03  0.25500000000E-02 0. -1.
    5000001    1    1    2    0    0 -0.13189175783E+03  0.17125350823E+03  0.13866230604E+03  0.26810340353E+03  0.77000000000E+02 0.  0.
   -5000001    1    1    2    0    0  0.13189175783E+03 -0.17125350823E+03  0.26631516127E+03  0.35153373237E+03  0.77000000000E+02 0.  0.
<mgrwt>
<rscale>  0 0.46898127E+03</rscale>
<asrwt>0</asrwt>
<pdfrwt beam="1">  1        2 0.78816507E-01 0.46898127E+03</pdfrwt>
<pdfrwt beam="2">  1       -2 0.16512282E-01 0.46898127E+03</pdfrwt>
<totfact> 0.17748005E+03</totfact>
</mgrwt>
</event>
<event>
 4    1  0.5980424E-004  0.1884439E+03  0.7818608E-02  0.1159872E+00
         -2   -1    0    0    0  501 -0.00000000000E+00  0.00000000000E+00  0.35992461486E+01  0.35992470519E+01  0.25500000000E-02 0. -1.
          2   -1    0    0  501    0  0.00000000000E+00 -0.00000000000E+00 -0.24665644893E+04  0.24665644893E+04  0.25500000000E-02 0.  1.
    5000001    1    1    2    0    0  0.22202677603E+02  0.49555961518E+02 -0.12334109545E+04  0.12370045816E+04  0.77000000000E+02 0.  0.
   -5000001    1    1    2    0    0 -0.22202677603E+02 -0.49555961518E+02 -0.12295542886E+04  0.12331591548E+04  0.77000000000E+02 0.  0.
<mgrwt>
<rscale>  0 0.18844388E+03</rscale>
<asrwt>0</asrwt>
<pdfrwt beam="1">  1        2 0.37947011E+00 0.18844388E+03</pdfrwt>
<pdfrwt beam="2">  1       -2 0.55373222E-03 0.18844388E+03</pdfrwt>
<totfact> 0.20758181E+04</totfact>
</mgrwt>
</event>
<event>
 4    1  0.5980424E-004  0.3032939E+03  0.7818608E-02  0.1083606E+00
         -2   -1    0    0    0  501 -0.00000000000E+00  0.00000000000E+00  0.75194443640E+01  0.75194447964E+01  0.25500000000E-02 0. -1.
          2   -1    0    0  501    0  0.00000000000E+00 -0.00000000000E+00 -0.30583098133E+04  0.30583098133E+04  0.25500000000E-02 0.  1.
    5000001    1    1    2    0    0 -0.34984803359E+02 -0.12569979757E+03 -0.14587901370E+04  0.14666363010E+04  0.77000000000E+02 0.  0.
   -5000001    1    1    2    0    0  0.34984803359E+02  0.12569979757E+03 -0.15920002319E+04  0.15991929571E+04  0.77000000000E+02 0.  0.
<mgrwt>
<rscale>  0 0.30329386E+03</rscale>
<asrwt>0</asrwt>
<pdfrwt beam="1">  1        2 0.47050821E+00 0.30329386E+03</pdfrwt>
<pdfrwt beam="2">  1       -2 0.11568401E-02 0.30329386E+03</pdfrwt>
<totfact> 0.33085314E+03</totfact>
</mgrwt>
</event>
<event>
 4    1  0.5980424E-004  0.4104250E+03  0.7818608E-02  0.1040228E+00
         -2   -1    0    0    0  501 -0.00000000000E+00  0.00000000000E+00  0.90887895784E+02  0.90887895820E+02  0.25500000000E-02 0. -1.
          2   -1    0    0  501    0  0.00000000000E+00 -0.00000000000E+00 -0.46334191195E+03  0.46334191196E+03  0.25500000000E-02 0.  1.
    5000001    1    1    2    0    0  0.58462595919E+02  0.17421199341E+03 -0.11985918425E+03  0.23251433895E+03  0.77000000000E+02 0.  0.
   -5000001    1    1    2    0    0 -0.58462595919E+02 -0.17421199341E+03 -0.25259483192E+03  0.32171546883E+03  0.77000000000E+02 0.  0.
<mgrwt>
<rscale>  0 0.41042501E+03</rscale>
<asrwt>0</asrwt>
<pdfrwt beam="1">  1        2 0.71283370E-01 0.41042501E+03</pdfrwt>
<pdfrwt beam="2">  1       -2 0.13982753E-01 0.41042501E+03</pdfrwt>
<totfact> 0.26250546E+03</totfact>
</mgrwt>
</event>
<event>
 4    1  0.5980424E-004  0.4504312E+03  0.7818608E-02  0.1027594E+00
         -2   -1    0    0    0  501 -0.00000000000E+00  0.00000000000E+00  0.35077037452E+02  0.35077037544E+02  0.25500000000E-02 0. -1.
          2   -1    0    0  501    0  0.00000000000E+00 -0.00000000000E+00 -0.14460190124E+04  0.14460190124E+04  0.25500000000E-02 0.  1.
    5000001    1    1    2    0    0  0.16305080862E+03 -0.13409347691E+03 -0.65599119416E+03  0.69341190757E+03  0.77000000000E+02 0.  0.
   -5000001    1    1    2    0    0 -0.16305080862E+03  0.13409347691E+03 -0.75495078078E+03  0.78768414237E+03  0.77000000000E+02 0.  0.
<mgrwt>
<rscale>  0 0.45043119E+03</rscale>
<asrwt>0</asrwt>
<pdfrwt beam="1">  1        2 0.22246442E+00 0.45043119E+03</pdfrwt>
<pdfrwt beam="2">  1       -2 0.53964684E-02 0.45043119E+03</pdfrwt>
<totfact> 0.25374209E+03</totfact>
</mgrwt>
</event>
<event>
 4    1  0.5980424E-004  0.2205197E+03  0.7818608E-02  0.1133496E+00
         -2   -1    0    0    0  501 -0.00000000000E+00  0.00000000000E+00  0.28987842851E+02  0.28987842963E+02  0.25500000000E-02 0. -1.
          2   -1    0    0  501    0  0.00000000000E+00 -0.00000000000E+00 -0.41939072036E+03  0.41939072037E+03  0.25500000000E-02 0.  1.
    5000001    1    1    2    0    0 -0.68206012758E+02 -0.37136695106E+02 -0.16666022047E+03  0.19933846440E+03  0.77000000000E+02 0.  0.
   -5000001    1    1    2    0    0  0.68206012758E+02  0.37136695106E+02 -0.22374265704E+03  0.24904009894E+03  0.77000000000E+02 0.  0.
<mgrwt>
<rscale>  0 0.22051968E+03</rscale>
<asrwt>0</asrwt>
<pdfrwt beam="1">  1        2 0.64521645E-01 0.22051968E+03</pdfrwt>
<pdfrwt beam="2">  1       -2 0.44596684E-02 0.22051968E+03</pdfrwt>
<totfact> 0.17266077E+04</totfact>
</mgrwt>
</event>
<event>
 4    1  0.5980424E-004  0.3241398E+03  0.7818608E-02  0.1073760E+00
         -2   -1    0    0    0  501 -0.00000000000E+00  0.00000000000E+00  0.37822661355E+03  0.37822661356E+03  0.25500000000E-02 0. -1.
          2   -1    0    0  501    0  0.00000000000E+00 -0.00000000000E+00 -0.69446854216E+02  0.69446854262E+02  0.25500000000E-02 0.  1.
    5000001    1    1    2    0    0  0.38466582036E+02  0.10878472782E+03  0.38641011420E+02  0.14399973161E+03  0.77000000000E+02 0.  0.
   -5000001    1    1    2    0    0 -0.38466582036E+02 -0.10878472782E+03  0.27013874792E+03  0.30367373622E+03  0.77000000000E+02 0.  0.
<mgrwt>
<rscale>  0 0.32413978E+03</rscale>
<asrwt>0</asrwt>
<pdfrwt beam="1">  1        2 0.10684131E-01 0.32413978E+03</pdfrwt>
<pdfrwt beam="2">  1       -2 0.58188710E-01 0.32413978E+03</pdfrwt>
<totfact> 0.16683349E+03</totfact>
</mgrwt>
</event>
<event>
 4    1  0.5980424E-004  0.2812863E+03  0.7818608E-02  0.1094988E+00
         -2   -1    0    0    0  501 -0.00000000000E+00  0.00000000000E+00  0.38526397253E+02  0.38526397337E+02  0.25500000000E-02 0. -1.
          2   -1    0    0  501    0  0.00000000000E+00 -0.00000000000E+00 -0.51342719714E+03  0.51342719715E+03  0.25500000000E-02 0.  1.
    5000001    1    1    2    0    0 -0.10090288374E+03  0.41738699766E+01 -0.35604370372E+03  0.37801446017E+03  0.77000000000E+02 0.  0.
   -5000001    1    1    2    0    0  0.10090288374E+03 -0.41738699766E+01 -0.11885709617E+03  0.17393913432E+03  0.77000000000E+02 0.  0.
<mgrwt>
<rscale>  0 0.28128633E+03</rscale>
<asrwt>0</asrwt>
<pdfrwt beam="1">  1        2 0.78988795E-01 0.28128633E+03</pdfrwt>
<pdfrwt beam="2">  1       -2 0.59271384E-02 0.28128633E+03</pdfrwt>
<totfact> 0.90705184E+03</totfact>
</mgrwt>
</event>
<event>
 4    1  0.5980424E-004  0.2336030E+03  0.7818608E-02  0.1124129E+00
          2   -1    0    0  501    0  0.00000000000E+00  0.00000000000E+00  0.48807718578E+03  0.48807718579E+03  0.25500000000E-02 0.  1.
         -2   -1    0    0    0  501 -0.00000000000E+00 -0.00000000000E+00 -0.27951710036E+02  0.27951710152E+02  0.25500000000E-02 0. -1.
    5000001    1    1    2    0    0 -0.85409772124E+02 -0.18867418702E+02  0.24756595144E+03  0.27362147024E+03  0.77000000000E+02 0.  0.
   -5000001    1    1    2    0    0  0.85409772124E+02  0.18867418702E+02  0.21255952430E+03  0.24240742570E+03  0.77000000000E+02 0.  0.
<mgrwt>
<rscale>  0 0.23360301E+03</rscale>
<asrwt>0</asrwt>
<pdfrwt beam="1">  1        2 0.75088794E-01 0.23360301E+03</pdfrwt>
<pdfrwt beam="2">  1       -2 0.43002633E-02 0.23360301E+03</pdfrwt>
<totfact> 0.15495347E+04</totfact>
</mgrwt>
</event>
<event>
 4    1  0.5980424E-004  0.4018858E+03  0.7818608E-02  0.1043129E+00
         -2   -1    0    0    0  501 -0.00000000000E+00  0.00000000000E+00  0.10298755031E+04  0.10298755031E+04  0.25500000000E-02 0. -1.
          2   -1    0    0  501    0  0.00000000000E+00 -0.00000000000E+00 -0.39206723968E+02  0.39206724051E+02  0.25500000000E-02 0.  1.
    5000001    1    1    2    0    0 -0.79381222798E+02 -0.16738985799E+03  0.46520263749E+03  0.50661942029E+03  0.77000000000E+02 0.  0.
   -5000001    1    1    2    0    0  0.79381222798E+02  0.16738985799E+03  0.52546614167E+03  0.56246280689E+03  0.77000000000E+02 0.  0.
<mgrwt>
<rscale>  0 0.40188578E+03</rscale>
<asrwt>0</asrwt>
<pdfrwt beam="1">  1        2 0.60318032E-02 0.40188578E+03</pdfrwt>
<pdfrwt beam="2">  1       -2 0.15844240E+00 0.40188578E+03</pdfrwt>
<totfact> 0.33799896E+02</totfact>
</mgrwt>
</event>
<event>
 4    1  0.5980424E-004  0.2641364E+03  0.7818608E-02  0.1104683E+00
         -2   -1    0    0    0  501 -0.00000000000E+00  0.00000000000E+00  0.44077832931E+02  0.44077833004E+02  0.25500000000E-02 0. -1.
          2   -1    0    0  501    0  0.00000000000E+00 -0.00000000000E+00 -0.39570917622E+03  0.39570917623E+03  0.25500000000E-02 0.  1.
    5000001    1    1    2    0    0  0.22370811612E+02 -0.89491125279E+02 -0.84560789256E+02  0.14693073809E+03  0.77000000000E+02 0.  0.
   -5000001    1    1    2    0    0 -0.22370811612E+02  0.89491125279E+02 -0.26707055403E+03  0.29285627114E+03  0.77000000000E+02 0.  0.
<mgrwt>
<rscale>  0 0.26413635E+03</rscale>
<asrwt>0</asrwt>
<pdfrwt beam="1">  1        2 0.60878332E-01 0.26413635E+03</pdfrwt>
<pdfrwt beam="2">  1       -2 0.67812053E-02 0.26413635E+03</pdfrwt>
<totfact> 0.98007298E+03</totfact>
</mgrwt>
</event>
<event>
 4    1  0.5980424E-004  0.1969624E+03  0.7818608E-02  0.1152327E+00
         -2   -1    0    0    0  501 -0.00000000000E+00  0.00000000000E+00  0.86044295344E+01  0.86044299123E+01  0.25500000000E-02 0. -1.
          2   -1    0    0  501    0  0.00000000000E+00 -0.00000000000E+00 -0.11271571378E+04  0.11271571378E+04  0.25500000000E-02 0.  1.
    5000001    1    1    2    0    0 -0.49506235027E+02 -0.13325386056E+02 -0.75406689846E+03  0.75971989613E+03  0.77000000000E+02 0.  0.
   -5000001    1    1    2    0    0  0.49506235027E+02  0.13325386056E+02 -0.36448580980E+03  0.37604167158E+03  0.77000000000E+02 0.  0.
<mgrwt>
<rscale>  0 0.19696238E+03</rscale>
<asrwt>0</asrwt>
<pdfrwt beam="1">  1        2 0.17340867E+00 0.19696238E+03</pdfrwt>
<pdfrwt beam="2">  1       -2 0.13237593E-02 0.19696238E+03</pdfrwt>
<totfact> 0.30489623E+04</totfact>
</mgrwt>
</event>
<event>
 4    1  0.5980424E-004  0.2591687E+03  0.7818608E-02  0.1107644E+00
         -2   -1    0    0    0  501 -0.00000000000E+00  0.00000000000E+00  0.64784606282E+01  0.64784611300E+01  0.25500000000E-02 0. -1.
          2   -1    0    0  501    0  0.00000000000E+00 -0.00000000000E+00 -0.25919906150E+04  0.25919906150E+04  0.25500000000E-02 0.  1.
    5000001    1    1    2    0    0  0.10079939348E+03  0.13239412033E+02 -0.10625228790E+04  0.10701493673E+04  0.77000000000E+02 0.  0.
   -5000001    1    1    2    0    0 -0.10079939348E+03 -0.13239412033E+02 -0.15229892754E+04  0.15283197089E+04  0.77000000000E+02 0.  0.
<mgrwt>
<rscale>  0 0.25916875E+03</rscale>
<asrwt>0</asrwt>
<pdfrwt beam="1">  1        2 0.39876696E+00 0.25916875E+03</pdfrwt>
<pdfrwt beam="2">  1       -2 0.99668836E-03 0.25916875E+03</pdfrwt>
<totfact> 0.76450952E+03</totfact>
</mgrwt>
</event>
<event>
 4    1  0.5980424E-004  0.2988460E+03  0.7818608E-02  0.1085819E+00
          2   -1    0    0  501    0  0.00000000000E+00  0.00000000000E+00  0.43275174416E+04  0.43275174416E+04  0.25500000000E-02 0.  1.
         -2   -1    0    0    0  501 -0.00000000000E+00 -0.00000000000E+00 -0.51593612771E+01  0.51593619072E+01  0.25500000000E-02 0. -1.
    5000001    1    1    2    0    0 -0.90484504676E+02 -0.83190900490E+02  0.16404483858E+04  0.16468479219E+04  0.77000000000E+02 0.  0.
   -5000001    1    1    2    0    0  0.90484504676E+02  0.83190900490E+02  0.26819096946E+04  0.26858288816E+04  0.77000000000E+02 0.  0.
<mgrwt>
<rscale>  0 0.29884596E+03</rscale>
<asrwt>0</asrwt>
<pdfrwt beam="1">  1        2 0.66577231E+00 0.29884596E+03</pdfrwt>
<pdfrwt beam="2">  1       -2 0.79374746E-03 0.29884596E+03</pdfrwt>
<totfact> 0.71766597E+02</totfact>
</mgrwt>
</event>
<event>
 4    1  0.5980424E-004  0.1613360E+03  0.7818608E-02  0.1187197E+00
         -2   -1    0    0    0  501 -0.00000000000E+00  0.00000000000E+00  0.12143328585E+04  0.12143328585E+04  0.25500000000E-02 0. -1.
          2   -1    0    0  501    0  0.00000000000E+00 -0.00000000000E+00 -0.53587646925E+01  0.53587652992E+01  0.25500000000E-02 0.  1.
    5000001    1    1    2    0    0 -0.18341677908E+02 -0.80004956307E+01  0.50365328163E+03  0.50989808117E+03  0.77000000000E+02 0.  0.
   -5000001    1    1    2    0    0  0.18341677908E+02  0.80004956307E+01  0.70532081218E+03  0.70979354264E+03  0.77000000000E+02 0.  0.
<mgrwt>
<rscale>  0 0.16133598E+03</rscale>
<asrwt>0</asrwt>
<pdfrwt beam="1">  1        2 0.82442506E-03 0.16133598E+03</pdfrwt>
<pdfrwt beam="2">  1       -2 0.18682051E+00 0.16133598E+03</pdfrwt>
<totfact> 0.32029450E+03</totfact>
</mgrwt>
</event>
<event>
 4    1  0.5980424E-004  0.2059255E+03  0.7818608E-02  0.1144834E+00
          2   -1    0    0  501    0  0.00000000000E+00  0.00000000000E+00  0.11335312043E+04  0.11335312043E+04  0.25500000000E-02 0.  1.
         -2   -1    0    0    0  501 -0.00000000000E+00 -0.00000000000E+00 -0.93524790631E+01  0.93524794107E+01  0.25500000000E-02 0. -1.
    5000001    1    1    2    0    0  0.55189927384E+02 -0.93495217037E+01  0.34436392480E+03  0.35727979840E+03  0.77000000000E+02 0.  0.
   -5000001    1    1    2    0    0 -0.55189927384E+02  0.93495217037E+01  0.77981480048E+03  0.78560388536E+03  0.77000000000E+02 0.  0.
<mgrwt>
<rscale>  0 0.20592549E+03</rscale>
<asrwt>0</asrwt>
<pdfrwt beam="1">  1        2 0.17438937E+00 0.20592549E+03</pdfrwt>
<pdfrwt beam="2">  1       -2 0.14388433E-02 0.20592549E+03</pdfrwt>
<totfact> 0.26864140E+04</totfact>
</mgrwt>
</event>
<event>
 4    1  0.5980424E-004  0.2247416E+03  0.7818608E-02  0.1130397E+00
          2   -1    0    0  501    0  0.00000000000E+00  0.00000000000E+00  0.10270281547E+03  0.10270281550E+03  0.25500000000E-02 0.  1.
         -2   -1    0    0    0  501 -0.00000000000E+00 -0.00000000000E+00 -0.12294887814E+03  0.12294887817E+03  0.25500000000E-02 0. -1.
    5000001    1    1    2    0    0 -0.37787503403E+02  0.66053027835E+02  0.20120335046E+02  0.11011233256E+03  0.77000000000E+02 0.  0.
   -5000001    1    1    2    0    0  0.37787503403E+02 -0.66053027835E+02 -0.40366397722E+02  0.11553936111E+03  0.77000000000E+02 0.  0.
<mgrwt>
<rscale>  0 0.22474159E+03</rscale>
<asrwt>0</asrwt>
<pdfrwt beam="1">  1        2 0.15800433E-01 0.22474159E+03</pdfrwt>
<pdfrwt beam="2">  1       -2 0.18915212E-01 0.22474159E+03</pdfrwt>
<totfact> 0.82889977E+03</totfact>
</mgrwt>
</event>
<event>
 4    1  0.5980424E-004  0.2074748E+03  0.7818608E-02  0.1143581E+00
         -2   -1    0    0    0  501 -0.00000000000E+00  0.00000000000E+00  0.92862914812E+01  0.92862918313E+01  0.25500000000E-02 0. -1.
          2   -1    0    0  501    0  0.00000000000E+00 -0.00000000000E+00 -0.11588525988E+04  0.11588525988E+04  0.25500000000E-02 0.  1.
    5000001    1    1    2    0    0 -0.81874958979E+01 -0.52076076464E+02 -0.82992139982E+03  0.83515117356E+03  0.77000000000E+02 0.  0.
   -5000001    1    1    2    0    0  0.81874958979E+01  0.52076076464E+02 -0.31964490752E+03  0.33298771709E+03  0.77000000000E+02 0.  0.
<mgrwt>
<rscale>  0 0.20747475E+03</rscale>
<asrwt>0</asrwt>
<pdfrwt beam="1">  1        2 0.17828490E+00 0.20747475E+03</pdfrwt>
<pdfrwt beam="2">  1       -2 0.14286612E-02 0.20747475E+03</pdfrwt>
<totfact> 0.26263654E+04</totfact>
</mgrwt>
</event>
<event>
 4    1  0.5980424E-004  0.4215360E+03  0.7818608E-02  0.1036568E+00
          2   -1    0    0  501    0  0.00000000000E+00  0.00000000000E+00  0.15633955373E+04  0.15633955373E+04  0.25500000000E-02 0.  1.
         -2   -1    0    0    0  501 -0.00000000000E+00 -0.00000000000E+00 -0.28414531640E+02  0.28414531754E+02  0.25500000000E-02 0. -1.
    5000001    1    1    2    0    0  0.63591883291E+02  0.73053472595E+02  0.14118127677E+04  0.14172244101E+04  0.77000000000E+02 0.  0.
   -5000001    1    1    2    0    0 -0.63591883291E+02 -0.73053472595E+02  0.12316823796E+03  0.17458565898E+03  0.77000000000E+02 0.  0.
<mgrwt>
<rscale>  0 0.42153601E+03</rscale>
<asrwt>0</asrwt>
<pdfrwt beam="1">  1        2 0.24052238E+00 0.42153601E+03</pdfrwt>
<pdfrwt beam="2">  1       -2 0.43714667E-02 0.42153601E+03</pdfrwt>
<totfact> 0.30288210E+03</totfact>
</mgrwt>
</event>
<event>
 4    1  0.5980424E-004  0.1971958E+03  0.7818608E-02  0.1152127E+00
         -2   -1    0    0    0  501 -0.00000000000E+00  0.00000000000E+00  0.15275138597E+03  0.15275138599E+03  0.25500000000E-02 0. -1.
          2   -1    0    0  501    0  0.00000000000E+00 -0.00000000000E+00 -0.63642912428E+02  0.63642912480E+02  0.25500000000E-02 0.  1.
    5000001    1    1    2    0    0 -0.60348607755E+02  0.12222061641E+02  0.43347223117E+02  0.10770011607E+03  0.77000000000E+02 0.  0.
   -5000001    1    1    2    0    0  0.60348607755E+02 -0.12222061641E+02  0.45761250428E+02  0.10869418241E+03  0.77000000000E+02 0.  0.
<mgrwt>
<rscale>  0 0.19719577E+03</rscale>
<asrwt>0</asrwt>
<pdfrwt beam="1">  1        2 0.97912174E-02 0.19719577E+03</pdfrwt>
<pdfrwt beam="2">  1       -2 0.23500213E-01 0.19719577E+03</pdfrwt>
<totfact> 0.10094474E+04</totfact>
</mgrwt>
</event>
<event>
 4    1  0.5980424E-004  0.2585278E+03  0.7818608E-02  0.1108031E+00
         -2   -1    0    0    0  501 -0.00000000000E+00  0.00000000000E+00  0.17748416312E+03  0.17748416314E+03  0.25500000000E-02 0. -1.
          2   -1    0    0  501    0  0.00000000000E+00 -0.00000000000E+00 -0.94144515103E+02  0.94144515138E+02  0.25500000000E-02 0.  1.
    5000001    1    1    2    0    0  0.91741615761E+02 -0.21252711271E+02 -0.42719288490E+01  0.12171873798E+03  0.77000000000E+02 0.  0.
   -5000001    1    1    2    0    0 -0.91741615761E+02  0.21252711271E+02  0.87611576864E+02  0.14990994030E+03  0.77000000000E+02 0.  0.
<mgrwt>
<rscale>  0 0.25852784E+03</rscale>
<asrwt>0</asrwt>
<pdfrwt beam="1">  1        2 0.14483772E-01 0.25852784E+03</pdfrwt>
<pdfrwt beam="2">  1       -2 0.27305256E-01 0.25852784E+03</pdfrwt>
<totfact> 0.48846742E+03</totfact>
</mgrwt>
</event>
<event>
 4    1  0.5980424E-004  0.1937119E+03  0.7818608E-02  0.1155155E+00
         -2   -1    0    0    0  501 -0.00000000000E+00  0.00000000000E+00  0.12855158190E+02  0.12855158443E+02  0.25500000000E-02 0. -1.
          2   -1    0    0  501    0  0.00000000000E+00 -0.00000000000E+00 -0.72975183535E+03  0.72975183535E+03  0.25500000000E-02 0.  1.
    5000001    1    1    2    0    0  0.16114621955E+02  0.50653522020E+02 -0.26248548906E+03  0.27866304437E+03  0.77000000000E+02 0.  0.
   -5000001    1    1    2    0    0 -0.16114621955E+02 -0.50653522020E+02 -0.45441118810E+03  0.46394394942E+03  0.77000000000E+02 0.  0.
<mgrwt>
<rscale>  0 0.19371190E+03</rscale>
<asrwt>0</asrwt>
<pdfrwt beam="1">  1        2 0.11226948E+00 0.19371190E+03</pdfrwt>
<pdfrwt beam="2">  1       -2 0.19777172E-02 0.19371190E+03</pdfrwt>
<totfact> 0.30379574E+04</totfact>
</mgrwt>
</event>
<event>
 4    1  0.5980424E-004  0.2266567E+03  0.7818608E-02  0.1129015E+00
         -2   -1    0    0    0  501 -0.00000000000E+00  0.00000000000E+00  0.59391017514E+01  0.59391022988E+01  0.25500000000E-02 0. -1.
          2   -1    0    0  501    0  0.00000000000E+00 -0.00000000000E+00 -0.21625005449E+04  0.21625005449E+04  0.25500000000E-02 0.  1.
    5000001    1    1    2    0    0 -0.59547725272E+02 -0.52198458026E+02 -0.13210092651E+04  0.13256187571E+04  0.77000000000E+02 0.  0.
   -5000001    1    1    2    0    0  0.59547725272E+02  0.52198458026E+02 -0.83555217807E+03  0.84282089015E+03  0.77000000000E+02 0.  0.
<mgrwt>
<rscale>  0 0.22665667E+03</rscale>
<asrwt>0</asrwt>
<pdfrwt beam="1">  1        2 0.33269176E+00 0.22665667E+03</pdfrwt>
<pdfrwt beam="2">  1       -2 0.91370972E-03 0.22665667E+03</pdfrwt>
<totfact> 0.14749525E+04</totfact>
</mgrwt>
</event>
<event>
 4    1  0.5980424E-004  0.2759215E+03  0.7818608E-02  0.1097938E+00
          2   -1    0    0  501    0  0.00000000000E+00  0.00000000000E+00  0.40722335785E+03  0.40722335786E+03  0.25500000000E-02 0.  1.
         -2   -1    0    0    0  501 -0.00000000000E+00 -0.00000000000E+00 -0.46738891149E+02  0.46738891218E+02  0.25500000000E-02 0. -1.
    5000001    1    1    2    0    0  0.50312981464E+02 -0.91156083489E+02  0.25851472389E+03  0.28913611004E+03  0.77000000000E+02 0.  0.
   -5000001    1    1    2    0    0 -0.50312981464E+02  0.91156083489E+02  0.10196974281E+03  0.16482613904E+03  0.77000000000E+02 0.  0.
<mgrwt>
<rscale>  0 0.27592150E+03</rscale>
<asrwt>0</asrwt>
<pdfrwt beam="1">  1        2 0.62649749E-01 0.27592150E+03</pdfrwt>
<pdfrwt beam="2">  1       -2 0.71905984E-02 0.27592150E+03</pdfrwt>
<totfact> 0.86911766E+03</totfact>
</mgrwt>
</event>
<event>
 4    1  0.5980424E-004  0.2941940E+03  0.7818608E-02  0.1088180E+00
          2   -1    0    0  501    0  0.00000000000E+00  0.00000000000E+00  0.25095176714E+03  0.25095176715E+03  0.25500000000E-02 0.  1.
         -2   -1    0    0    0  501 -0.00000000000E+00 -0.00000000000E+00 -0.86221878806E+02  0.86221878844E+02  0.25500000000E-02 0. -1.
    5000001    1    1    2    0    0 -0.10373855612E+03  0.33649768331E+02  0.15314986079E+03  0.20316957153E+03  0.77000000000E+02 0.  0.
   -5000001    1    1    2    0    0  0.10373855612E+03 -0.33649768331E+02  0.11580027542E+02  0.13400407447E+03  0.77000000000E+02 0.  0.
<mgrwt>
<rscale>  0 0.29419404E+03</rscale>
<asrwt>0</asrwt>
<pdfrwt beam="1">  1        2 0.38607964E-01 0.29419404E+03</pdfrwt>
<pdfrwt beam="2">  1       -2 0.13264905E-01 0.29419404E+03</pdfrwt>
<totfact> 0.55524789E+03</totfact>
</mgrwt>
</event>
<event>
 4    1  0.5980424E-004  0.3561379E+03  0.7818608E-02  0.1060124E+00
          2   -1    0    0  501    0  0.00000000000E+00  0.00000000000E+00  0.46295264530E+03  0.46295264531E+03  0.25500000000E-02 0.  1.
         -2   -1    0    0    0  501 -0.00000000000E+00 -0.00000000000E+00 -0.68492008153E+02  0.68492008201E+02  0.25500000000E-02 0. -1.
    5000001    1    1    2    0    0  0.10013252129E+03 -0.12514623512E+03  0.18295972360E+03  0.25513008926E+03  0.77000000000E+02 0.  0.
   -5000001    1    1    2    0    0 -0.10013252129E+03  0.12514623512E+03  0.21150091355E+03  0.27631456425E+03  0.77000000000E+02 0.  0.
<mgrwt>
<rscale>  0 0.35613793E+03</rscale>
<asrwt>0</asrwt>
<pdfrwt beam="1">  1        2 0.71223487E-01 0.35613793E+03</pdfrwt>
<pdfrwt beam="2">  1       -2 0.10537232E-01 0.35613793E+03</pdfrwt>
<totfact> 0.41585984E+03</totfact>
</mgrwt>
</event>
<event>
 4    1  0.5980424E-004  0.3665649E+03  0.7818608E-02  0.1056014E+00
          2   -1    0    0  501    0  0.00000000000E+00  0.00000000000E+00  0.45489216105E+03  0.45489216105E+03  0.25500000000E-02 0.  1.
         -2   -1    0    0    0  501 -0.00000000000E+00 -0.00000000000E+00 -0.73847091745E+02  0.73847091789E+02  0.25500000000E-02 0. -1.
    5000001    1    1    2    0    0  0.15827044846E+03 -0.15119371876E+02  0.12007510825E+03  0.21360047257E+03  0.77000000000E+02 0.  0.
   -5000001    1    1    2    0    0 -0.15827044846E+03  0.15119371876E+02  0.26096996105E+03  0.31513878027E+03  0.77000000000E+02 0.  0.
<mgrwt>
<rscale>  0 0.36656494E+03</rscale>
<asrwt>0</asrwt>
<pdfrwt beam="1">  1        2 0.69983409E-01 0.36656494E+03</pdfrwt>
<pdfrwt beam="2">  1       -2 0.11361091E-01 0.36656494E+03</pdfrwt>
<totfact> 0.37580574E+03</totfact>
</mgrwt>
</event>
<event>
 4    1  0.5980424E-004  0.3597326E+03  0.7818608E-02  0.1058690E+00
         -2   -1    0    0    0  501 -0.00000000000E+00  0.00000000000E+00  0.27867507873E+02  0.27867507989E+02  0.25500000000E-02 0. -1.
          2   -1    0    0  501    0  0.00000000000E+00 -0.00000000000E+00 -0.11609177096E+04  0.11609177096E+04  0.25500000000E-02 0.  1.
    5000001    1    1    2    0    0  0.63229595613E+02  0.16603937192E+02 -0.74708996357E+02  0.12563481456E+03  0.77000000000E+02 0.  0.
   -5000001    1    1    2    0    0 -0.63229595613E+02 -0.16603937192E+02 -0.10583412053E+04  0.10631504030E+04  0.77000000000E+02 0.  0.
<mgrwt>
<rscale>  0 0.35973259E+03</rscale>
<asrwt>0</asrwt>
<pdfrwt beam="1">  1        2 0.17860269E+00 0.35973259E+03</pdfrwt>
<pdfrwt beam="2">  1       -2 0.42873098E-02 0.35973259E+03</pdfrwt>
<totfact> 0.52280767E+03</totfact>
</mgrwt>
</event>
<event>
 4    1  0.5980424E-004  0.4027988E+03  0.7818608E-02  0.1042815E+00
         -2   -1    0    0    0  501 -0.00000000000E+00  0.00000000000E+00  0.67258038327E+03  0.67258038327E+03  0.25500000000E-02 0. -1.
          2   -1    0    0  501    0  0.00000000000E+00 -0.00000000000E+00 -0.60307617865E+02  0.60307617919E+02  0.25500000000E-02 0.  1.
    5000001    1    1    2    0    0  0.65083747930E+02 -0.17246130649E+03  0.25960851381E+03  0.32757346798E+03  0.77000000000E+02 0.  0.
   -5000001    1    1    2    0    0 -0.65083747930E+02  0.17246130649E+03  0.35266425159E+03  0.40531453321E+03  0.77000000000E+02 0.  0.
<mgrwt>
<rscale>  0 0.40279881E+03</rscale>
<asrwt>0</asrwt>
<pdfrwt beam="1">  1        2 0.92780951E-02 0.40279881E+03</pdfrwt>
<pdfrwt beam="2">  1       -2 0.10347390E+00 0.40279881E+03</pdfrwt>
<totfact> 0.56063045E+02</totfact>
</mgrwt>
</event>
<event>
 4    1  0.5980424E-004  0.6604296E+03  0.7818608E-02  0.9787403E-01
         -2   -1    0    0    0  501 -0.00000000000E+00  0.00000000000E+00  0.84809872171E+02  0.84809872209E+02  0.25500000000E-02 0. -1.
          2   -1    0    0  501    0  0.00000000000E+00 -0.00000000000E+00 -0.12857209404E+04  0.12857209404E+04  0.25500000000E-02 0.  1.
    5000001    1    1    2    0    0 -0.23605180474E+03 -0.76310754952E+01 -0.10519469467E+04  0.10808793025E+04  0.77000000000E+02 0.  0.
   -5000001    1    1    2    0    0  0.23605180474E+03  0.76310754952E+01 -0.14896412157E+03  0.28965151018E+03  0.77000000000E+02 0.  0.
<mgrwt>
<rscale>  0 0.66042964E+03</rscale>
<asrwt>0</asrwt>
<pdfrwt beam="1">  1        2 0.19780321E+00 0.66042964E+03</pdfrwt>
<pdfrwt beam="2">  1       -2 0.13047674E-01 0.66042964E+03</pdfrwt>
<totfact> 0.75542545E+02</totfact>
</mgrwt>
</event>
<event>
 4    1  0.5980424E-004  0.2959301E+03  0.7818608E-02  0.1087293E+00
          2   -1    0    0  501    0  0.00000000000E+00  0.00000000000E+00  0.28419310523E+02  0.28419310637E+02  0.25500000000E-02 0.  1.
         -2   -1    0    0    0  501 -0.00000000000E+00 -0.00000000000E+00 -0.77037976066E+03  0.77037976067E+03  0.25500000000E-02 0. -1.
    5000001    1    1    2    0    0  0.10855008806E+03 -0.27884047450E+02 -0.52846711392E+03  0.54568043049E+03  0.77000000000E+02 0.  0.
   -5000001    1    1    2    0    0 -0.10855008806E+03  0.27884047450E+02 -0.21349333622E+03  0.25311864082E+03  0.77000000000E+02 0.  0.
<mgrwt>
<rscale>  0 0.29593014E+03</rscale>
<asrwt>0</asrwt>
<pdfrwt beam="1">  1        2 0.43722022E-02 0.29593014E+03</pdfrwt>
<pdfrwt beam="2">  1       -2 0.11851995E+00 0.29593014E+03</pdfrwt>
<totfact> 0.10788188E+03</totfact>
</mgrwt>
</event>
<event>
 4    1  0.5980424E-004  0.1861372E+03  0.7818608E-02  0.1161992E+00
          2   -1    0    0  501    0  0.00000000000E+00  0.00000000000E+00  0.17684412279E+03  0.17684412280E+03  0.25500000000E-02 0.  1.
         -2   -1    0    0    0  501 -0.00000000000E+00 -0.00000000000E+00 -0.48979667186E+02  0.48979667253E+02  0.25500000000E-02 0. -1.
    5000001    1    1    2    0    0  0.50785396438E+02  0.98436062259E+01  0.54795754484E+02  0.10773870142E+03  0.77000000000E+02 0.  0.
   -5000001    1    1    2    0    0 -0.50785396438E+02 -0.98436062259E+01  0.73068701115E+02  0.11808508863E+03  0.77000000000E+02 0.  0.
<mgrwt>
<rscale>  0 0.18613722E+03</rscale>
<asrwt>0</asrwt>
<pdfrwt beam="1">  1        2 0.27206788E-01 0.18613722E+03</pdfrwt>
<pdfrwt beam="2">  1       -2 0.75353335E-02 0.18613722E+03</pdfrwt>
<totfact> 0.19454215E+04</totfact>
</mgrwt>
</event>
<event>
 4    1  0.5980424E-004  0.4572949E+03  0.7818608E-02  0.1025569E+00
          2   -1    0    0  501    0  0.00000000000E+00  0.00000000000E+00  0.72344413223E+03  0.72344413223E+03  0.25500000000E-02 0.  1.
         -2   -1    0    0    0  501 -0.00000000000E+00 -0.00000000000E+00 -0.72264955314E+02  0.72264955359E+02  0.25500000000E-02 0. -1.
    5000001    1    1    2    0    0  0.16531621638E+03 -0.13678176986E+03  0.35632246378E+03  0.42300520346E+03  0.77000000000E+02 0.  0.
   -5000001    1    1    2    0    0 -0.16531621638E+03  0.13678176986E+03  0.29485671313E+03  0.37270388413E+03  0.77000000000E+02 0.  0.
<mgrwt>
<rscale>  0 0.45729491E+03</rscale>
<asrwt>0</asrwt>
<pdfrwt beam="1">  1        2 0.11129909E+00 0.45729491E+03</pdfrwt>
<pdfrwt beam="2">  1       -2 0.11117686E-01 0.45729491E+03</pdfrwt>
<totfact> 0.22637142E+03</totfact>
</mgrwt>
</event>
<event>
 4    1  0.5980424E-004  0.2214823E+03  0.7818608E-02  0.1132783E+00
         -2   -1    0    0    0  501 -0.00000000000E+00  0.00000000000E+00  0.29513093946E+02  0.29513094056E+02  0.25500000000E-02 0. -1.
          2   -1    0    0  501    0  0.00000000000E+00 -0.00000000000E+00 -0.41553102544E+03  0.41553102545E+03  0.25500000000E-02 0.  1.
    5000001    1    1    2    0    0  0.78011881894E+02 -0.14458792700E+02 -0.18034888919E+03  0.21154108876E+03  0.77000000000E+02 0.  0.
   -5000001    1    1    2    0    0 -0.78011881894E+02  0.14458792700E+02 -0.20566904230E+03  0.23350303074E+03  0.77000000000E+02 0.  0.
<mgrwt>
<rscale>  0 0.22148234E+03</rscale>
<asrwt>0</asrwt>
<pdfrwt beam="1">  1        2 0.63927846E-01 0.22148234E+03</pdfrwt>
<pdfrwt beam="2">  1       -2 0.45404763E-02 0.22148234E+03</pdfrwt>
<totfact> 0.16979421E+04</totfact>
</mgrwt>
</event>
<event>
 4    1  0.5980424E-004  0.3646694E+03  0.7818608E-02  0.1056750E+00
          2   -1    0    0  501    0  0.00000000000E+00  0.00000000000E+00  0.72935962409E+03  0.72935962410E+03  0.25500000000E-02 0.  1.
         -2   -1    0    0    0  501 -0.00000000000E+00 -0.00000000000E+00 -0.45582371704E+02  0.45582371775E+02  0.25500000000E-02 0. -1.
    5000001    1    1    2    0    0 -0.15382071740E+03  0.27898533668E+02  0.22788984582E+03  0.28688311751E+03  0.77000000000E+02 0.  0.
   -5000001    1    1    2    0    0  0.15382071740E+03 -0.27898533668E+02  0.45588740657E+03  0.48805887837E+03  0.77000000000E+02 0.  0.
<mgrwt>
<rscale>  0 0.36466939E+03</rscale>
<asrwt>0</asrwt>
<pdfrwt beam="1">  1        2 0.11220918E+00 0.36466939E+03</pdfrwt>
<pdfrwt beam="2">  1       -2 0.70126722E-02 0.36466939E+03</pdfrwt>
<totfact> 0.46550252E+03</totfact>
</mgrwt>
</event>
<event>
 4    1  0.5980424E-004  0.2912200E+03  0.7818608E-02  0.1089714E+00
          2   -1    0    0  501    0  0.00000000000E+00  0.00000000000E+00  0.66901285293E+03  0.66901285293E+03  0.25500000000E-02 0.  1.
         -2   -1    0    0    0  501 -0.00000000000E+00 -0.00000000000E+00 -0.31691883597E+02  0.31691883699E+02  0.25500000000E-02 0. -1.
    5000001    1    1    2    0    0  0.91243201875E+01  0.11762175971E+03  0.40723460170E+03  0.43091432141E+03  0.77000000000E+02 0.  0.
   -5000001    1    1    2    0    0 -0.91243201875E+01 -0.11762175971E+03  0.23008636764E+03  0.26979041523E+03  0.77000000000E+02 0.  0.
<mgrwt>
<rscale>  0 0.29122004E+03</rscale>
<asrwt>0</asrwt>
<pdfrwt beam="1">  1        2 0.10292506E+00 0.29122004E+03</pdfrwt>
<pdfrwt beam="2">  1       -2 0.48756741E-02 0.29122004E+03</pdfrwt>
<totfact> 0.90040390E+03</totfact>
</mgrwt>
</event>
<event>
 4    1  0.5980424E-004  0.3272796E+03  0.7818608E-02  0.1072347E+00
         -2   -1    0    0    0  501 -0.00000000000E+00  0.00000000000E+00  0.83376315134E+02  0.83376315173E+02  0.25500000000E-02 0. -1.
          2   -1    0    0  501    0  0.00000000000E+00 -0.00000000000E+00 -0.32117019594E+03  0.32117019595E+03  0.25500000000E-02 0.  1.
    5000001    1    1    2    0    0  0.11457704065E+03  0.86718359074E+02 -0.10137169129E+03  0.19197185168E+03  0.77000000000E+02 0.  0.
   -5000001    1    1    2    0    0 -0.11457704065E+03 -0.86718359074E+02 -0.13642218951E+03  0.21257465944E+03  0.77000000000E+02 0.  0.
<mgrwt>
<rscale>  0 0.32727962E+03</rscale>
<asrwt>0</asrwt>
<pdfrwt beam="1">  1        2 0.49410799E-01 0.32727962E+03</pdfrwt>
<pdfrwt beam="2">  1       -2 0.12827126E-01 0.32727962E+03</pdfrwt>
<totfact> 0.45059437E+03</totfact>
</mgrwt>
</event>
<event>
 4    1  0.5980424E-004  0.2552927E+03  0.7818608E-02  0.1110005E+00
          2   -1    0    0  501    0  0.00000000000E+00  0.00000000000E+00  0.40546890517E+03  0.40546890518E+03  0.25500000000E-02 0.  1.
         -2   -1    0    0    0  501 -0.00000000000E+00 -0.00000000000E+00 -0.40184570344E+02  0.40184570425E+02  0.25500000000E-02 0. -1.
    5000001    1    1    2    0    0 -0.89379342538E+02 -0.14484683884E+01  0.97590357463E+02  0.15311316992E+03  0.77000000000E+02 0.  0.
   -5000001    1    1    2    0    0  0.89379342538E+02  0.14484683884E+01  0.26769397736E+03  0.29254030568E+03  0.77000000000E+02 0.  0.
<mgrwt>
<rscale>  0 0.25529272E+03</rscale>
<asrwt>0</asrwt>
<pdfrwt beam="1">  1        2 0.62379834E-01 0.25529272E+03</pdfrwt>
<pdfrwt beam="2">  1       -2 0.61822414E-02 0.25529272E+03</pdfrwt>
<totfact> 0.10989049E+04</totfact>
</mgrwt>
</event>
<event>
 4    1  0.5980424E-004  0.2546871E+03  0.7818608E-02  0.1110378E+00
          2   -1    0    0  501    0  0.00000000000E+00  0.00000000000E+00  0.11940363246E+02  0.11940363518E+02  0.25500000000E-02 0.  1.
         -2   -1    0    0    0  501 -0.00000000000E+00 -0.00000000000E+00 -0.13581146527E+04  0.13581146527E+04  0.25500000000E-02 0. -1.
    5000001    1    1    2    0    0 -0.94719141412E+02 -0.30939262943E+02 -0.77493043661E+03  0.78509562178E+03  0.77000000000E+02 0.  0.
   -5000001    1    1    2    0    0  0.94719141412E+02  0.30939262943E+02 -0.57124385283E+03  0.58495939443E+03  0.77000000000E+02 0.  0.
<mgrwt>
<rscale>  0 0.25468712E+03</rscale>
<asrwt>0</asrwt>
<pdfrwt beam="1">  1        2 0.18369801E-02 0.25468712E+03</pdfrwt>
<pdfrwt beam="2">  1       -2 0.20894059E+00 0.25468712E+03</pdfrwt>
<totfact> 0.77956710E+02</totfact>
</mgrwt>
</event>
<event>
 4    1  0.5980424E-004  0.2269857E+03  0.7818608E-02  0.1128780E+00
         -2   -1    0    0    0  501 -0.00000000000E+00  0.00000000000E+00  0.15479453191E+03  0.15479453194E+03  0.25500000000E-02 0. -1.
          2   -1    0    0  501    0  0.00000000000E+00 -0.00000000000E+00 -0.83211137877E+02  0.83211137916E+02  0.25500000000E-02 0.  1.
    5000001    1    1    2    0    0  0.12664892677E+02  0.79179186032E+02  0.59745620059E+02  0.12620729822E+03  0.77000000000E+02 0.  0.
   -5000001    1    1    2    0    0 -0.12664892677E+02 -0.79179186032E+02  0.11837773978E+02  0.11179837163E+03  0.77000000000E+02 0.  0.
<mgrwt>
<rscale>  0 0.22698572E+03</rscale>
<asrwt>0</asrwt>
<pdfrwt beam="1">  1        2 0.12801714E-01 0.22698572E+03</pdfrwt>
<pdfrwt beam="2">  1       -2 0.23814543E-01 0.22698572E+03</pdfrwt>
<totfact> 0.71684001E+03</totfact>
</mgrwt>
</event>
<event>
 4    1  0.5980424E-004  0.2828090E+03  0.7818608E-02  0.1094165E+00
          2   -1    0    0  501    0  0.00000000000E+00  0.00000000000E+00  0.19516945685E+04  0.19516945685E+04  0.25500000000E-02 0.  1.
         -2   -1    0    0    0  501 -0.00000000000E+00 -0.00000000000E+00 -0.10245065552E+02  0.10245065869E+02  0.25500000000E-02 0. -1.
    5000001    1    1    2    0    0  0.28684559536E+02  0.60918757797E+02  0.29340754493E+03  0.31072638515E+03  0.77000000000E+02 0.  0.
   -5000001    1    1    2    0    0 -0.28684559536E+02 -0.60918757797E+02  0.16480419580E+04  0.16512132492E+04  0.77000000000E+02 0.  0.
<mgrwt>
<rscale>  0 0.28280905E+03</rscale>
<asrwt>0</asrwt>
<pdfrwt beam="1">  1        2 0.30026050E+00 0.28280905E+03</pdfrwt>
<pdfrwt beam="2">  1       -2 0.15761650E-02 0.28280905E+03</pdfrwt>
<totfact> 0.86457531E+03</totfact>
</mgrwt>
</event>
<event>
 4    1  0.5980424E-004  0.2139070E+03  0.7818608E-02  0.1138509E+00
          2   -1    0    0  501    0  0.00000000000E+00  0.00000000000E+00  0.47247996860E+03  0.47247996861E+03  0.25500000000E-02 0.  1.
         -2   -1    0    0    0  501 -0.00000000000E+00 -0.00000000000E+00 -0.24210653226E+02  0.24210653360E+02  0.25500000000E-02 0. -1.
    5000001    1    1    2    0    0  0.20036854893E+02  0.53175341863E+02  0.33503157664E+03  0.34843112645E+03  0.77000000000E+02 0.  0.
   -5000001    1    1    2    0    0 -0.20036854893E+02 -0.53175341863E+02  0.11323773874E+03  0.14825949552E+03  0.77000000000E+02 0.  0.
<mgrwt>
<rscale>  0 0.21390698E+03</rscale>
<asrwt>0</asrwt>
<pdfrwt beam="1">  1        2 0.72689223E-01 0.21390698E+03</pdfrwt>
<pdfrwt beam="2">  1       -2 0.37247161E-02 0.21390698E+03</pdfrwt>
<totfact> 0.19815378E+04</totfact>
</mgrwt>
</event>
<event>
 4    1  0.5980424E-004  0.5668528E+03  0.7818608E-02  0.9976667E-01
         -2   -1    0    0    0  501 -0.00000000000E+00  0.00000000000E+00  0.38774352532E+02  0.38774352616E+02  0.25500000000E-02 0. -1.
          2   -1    0    0  501    0  0.00000000000E+00 -0.00000000000E+00 -0.20717435347E+04  0.20717435347E+04  0.25500000000E-02 0.  1.
    5000001    1    1    2    0    0  0.19811118861E+03  0.18740343231E+03 -0.99495910475E+03  0.10345243881E+04  0.77000000000E+02 0.  0.
   -5000001    1    1    2    0    0 -0.19811118861E+03 -0.18740343231E+03 -0.10380100774E+04  0.10759934992E+04  0.77000000000E+02 0.  0.
<mgrwt>
<rscale>  0 0.56685276E+03</rscale>
<asrwt>0</asrwt>
<pdfrwt beam="1">  1        2 0.31872969E+00 0.56685276E+03</pdfrwt>
<pdfrwt beam="2">  1       -2 0.59652866E-02 0.56685276E+03</pdfrwt>
<totfact> 0.99029207E+02</totfact>
</mgrwt>
</event>
<event>
 4    1  0.5980424E-004  0.2693293E+03  0.7818608E-02  0.1101664E+00
         -2   -1    0    0    0  501 -0.00000000000E+00  0.00000000000E+00  0.29718841376E+03  0.29718841377E+03  0.25500000000E-02 0. -1.
          2   -1    0    0  501    0  0.00000000000E+00 -0.00000000000E+00 -0.61020445228E+02  0.61020445281E+02  0.25500000000E-02 0.  1.
    5000001    1    1    2    0    0 -0.80002971478E+02 -0.51790620719E+02  0.19240755422E+03  0.22810613925E+03  0.77000000000E+02 0.  0.
   -5000001    1    1    2    0    0  0.80002971478E+02  0.51790620719E+02  0.43760414306E+02  0.13010271980E+03  0.77000000000E+02 0.  0.
<mgrwt>
<rscale>  0 0.26932931E+03</rscale>
<asrwt>0</asrwt>
<pdfrwt beam="1">  1        2 0.93877606E-02 0.26932931E+03</pdfrwt>
<pdfrwt beam="2">  1       -2 0.45721295E-01 0.26932931E+03</pdfrwt>
<totfact> 0.31688276E+03</totfact>
</mgrwt>
</event>
<event>
 4    1  0.5980424E-004  0.4989392E+03  0.7818608E-02  0.1014056E+00
          2   -1    0    0  501    0  0.00000000000E+00  0.00000000000E+00  0.16083911504E+04  0.16083911504E+04  0.25500000000E-02 0.  1.
         -2   -1    0    0    0  501 -0.00000000000E+00 -0.00000000000E+00 -0.38693989349E+02  0.38693989433E+02  0.25500000000E-02 0. -1.
    5000001    1    1    2    0    0  0.22565746658E+03 -0.67179891876E+02  0.88231096705E+03  0.91642570493E+03  0.77000000000E+02 0.  0.
   -5000001    1    1    2    0    0 -0.22565746658E+03  0.67179891876E+02  0.68738619397E+03  0.73065943486E+03  0.77000000000E+02 0.  0.
<mgrwt>
<rscale>  0 0.49893916E+03</rscale>
<asrwt>0</asrwt>
<pdfrwt beam="1">  1        2 0.24744477E+00 0.49893916E+03</pdfrwt>
<pdfrwt beam="2">  1       -2 0.59529219E-02 0.49893916E+03</pdfrwt>
<totfact> 0.17738047E+03</totfact>
</mgrwt>
</event>
<event>
 4    1  0.5980424E-004  0.1730288E+03  0.7818608E-02  0.1174726E+00
          2   -1    0    0  501    0  0.00000000000E+00  0.00000000000E+00  0.82225517118E+03  0.82225517119E+03  0.25500000000E-02 0.  1.
         -2   -1    0    0    0  501 -0.00000000000E+00 -0.00000000000E+00 -0.91026963411E+01  0.91026966982E+01  0.25500000000E-02 0. -1.
    5000001    1    1    2    0    0 -0.21207386846E+01  0.24687711922E+02  0.25912803493E+03  0.27145960867E+03  0.77000000000E+02 0.  0.
   -5000001    1    1    2    0    0  0.21207386846E+01 -0.24687711922E+02  0.55402443992E+03  0.55989825922E+03  0.77000000000E+02 0.  0.
<mgrwt>
<rscale>  0 0.17302878E+03</rscale>
<asrwt>0</asrwt>
<pdfrwt beam="1">  1        2 0.12650086E+00 0.17302878E+03</pdfrwt>
<pdfrwt beam="2">  1       -2 0.14004141E-02 0.17302878E+03</pdfrwt>
<totfact> 0.42871062E+04</totfact>
</mgrwt>
</event>
<event>
 4    1  0.5980424E-004  0.2514349E+03  0.7818608E-02  0.1112401E+00
         -2   -1    0    0    0  501 -0.00000000000E+00  0.00000000000E+00  0.11559391822E+03  0.11559391825E+03  0.25500000000E-02 0. -1.
          2   -1    0    0  501    0  0.00000000000E+00 -0.00000000000E+00 -0.13672756700E+03  0.13672756702E+03  0.25500000000E-02 0.  1.
    5000001    1    1    2    0    0  0.62277265707E+02 -0.56253261005E+02  0.42846679615E+02  0.12168699664E+03  0.77000000000E+02 0.  0.
   -5000001    1    1    2    0    0 -0.62277265707E+02  0.56253261005E+02 -0.63980328393E+02  0.13063448863E+03  0.77000000000E+02 0.  0.
<mgrwt>
<rscale>  0 0.25143488E+03</rscale>
<asrwt>0</asrwt>
<pdfrwt beam="1">  1        2 0.21035010E-01 0.25143488E+03</pdfrwt>
<pdfrwt beam="2">  1       -2 0.17783680E-01 0.25143488E+03</pdfrwt>
<totfact> 0.66450050E+03</totfact>
</mgrwt>
</event>
<event>
 4    1  0.5980424E-004  0.4656690E+03  0.7818608E-02  0.1023150E+00
         -2   -1    0    0    0  501 -0.00000000000E+00  0.00000000000E+00  0.34849942381E+02  0.34849942475E+02  0.25500000000E-02 0. -1.
          2   -1    0    0  501    0  0.00000000000E+00 -0.00000000000E+00 -0.15555809747E+04  0.15555809747E+04  0.25500000000E-02 0.  1.
    5000001    1    1    2    0    0  0.10304097972E+02  0.18249778369E+03 -0.11768624604E+04  0.11934596207E+04  0.77000000000E+02 0.  0.
   -5000001    1    1    2    0    0 -0.10304097972E+02 -0.18249778369E+03 -0.34386857186E+03  0.39697129645E+03  0.77000000000E+02 0.  0.
<mgrwt>
<rscale>  0 0.46566901E+03</rscale>
<asrwt>0</asrwt>
<pdfrwt beam="1">  1        2 0.23932010E+00 0.46566901E+03</pdfrwt>
<pdfrwt beam="2">  1       -2 0.53615308E-02 0.46566901E+03</pdfrwt>
<totfact> 0.22318651E+03</totfact>
</mgrwt>
</event>
<event>
 4    1  0.5980424E-004  0.2958953E+03  0.7818608E-02  0.1087311E+00
          2   -1    0    0  501    0  0.00000000000E+00  0.00000000000E+00  0.36176864568E+03  0.36176864569E+03  0.25500000000E-02 0.  1.
         -2   -1    0    0    0  501 -0.00000000000E+00 -0.00000000000E+00 -0.60504168279E+02  0.60504168333E+02  0.25500000000E-02 0. -1.
    5000001    1    1    2    0    0  0.40163546321E+02  0.75385609288E+02  0.28346324513E+03  0.30590278175E+03  0.77000000000E+02 0.  0.
   -5000001    1    1    2    0    0 -0.40163546321E+02 -0.75385609288E+02  0.17801232268E+02  0.11637003227E+03  0.77000000000E+02 0.  0.
<mgrwt>
<rscale>  0 0.29589533E+03</rscale>
<asrwt>0</asrwt>
<pdfrwt beam="1">  1        2 0.55656714E-01 0.29589533E+03</pdfrwt>
<pdfrwt beam="2">  1       -2 0.93083337E-02 0.29589533E+03</pdfrwt>
<totfact> 0.66113745E+03</totfact>
</mgrwt>
</event>
<event>
 4    1  0.5980424E-004  0.2199542E+03  0.7818608E-02  0.1133917E+00
          2   -1    0    0  501    0  0.00000000000E+00  0.00000000000E+00  0.31430531509E+03  0.31430531510E+03  0.25500000000E-02 0.  1.
         -2   -1    0    0    0  501 -0.00000000000E+00 -0.00000000000E+00 -0.38481571949E+02  0.38481572033E+02  0.25500000000E-02 0. -1.
    5000001    1    1    2    0    0  0.20444162691E+01  0.78495221821E+02  0.13705843658E+03  0.17572619191E+03  0.77000000000E+02 0.  0.
   -5000001    1    1    2    0    0 -0.20444162691E+01 -0.78495221821E+02  0.13876530656E+03  0.17706069522E+03  0.77000000000E+02 0.  0.
<mgrwt>
<rscale>  0 0.21995420E+03</rscale>
<asrwt>0</asrwt>
<pdfrwt beam="1">  1        2 0.48354663E-01 0.21995420E+03</pdfrwt>
<pdfrwt beam="2">  1       -2 0.59202420E-02 0.21995420E+03</pdfrwt>
<totfact> 0.15325988E+04</totfact>
</mgrwt>
</event>
<event>
 4    1  0.5980424E-004  0.7206869E+03  0.7818608E-02  0.9682495E-01
         -2   -1    0    0    0  501 -0.00000000000E+00  0.00000000000E+00  0.14394833467E+03  0.14394833469E+03  0.25500000000E-02 0. -1.
          2   -1    0    0  501    0  0.00000000000E+00 -0.00000000000E+00 -0.90204175386E+03  0.90204175387E+03  0.25500000000E-02 0.  1.
    5000001    1    1    2    0    0 -0.26283892021E+03  0.22744869592E+03 -0.45987174263E+03  0.58157392215E+03  0.77000000000E+02 0.  0.
   -5000001    1    1    2    0    0  0.26283892021E+03 -0.22744869592E+03 -0.29822167656E+03  0.46441616641E+03  0.77000000000E+02 0.  0.
<mgrwt>
<rscale>  0 0.72068692E+03</rscale>
<asrwt>0</asrwt>
<pdfrwt beam="1">  1        2 0.13877565E+00 0.72068692E+03</pdfrwt>
<pdfrwt beam="2">  1       -2 0.22145898E-01 0.72068692E+03</pdfrwt>
<totfact> 0.52400808E+02</totfact>
</mgrwt>
</event>
<event>
 4    1  0.5980424E-004  0.2609779E+03  0.7818608E-02  0.1106557E+00
          2   -1    0    0  501    0  0.00000000000E+00  0.00000000000E+00  0.22030843138E+03  0.22030843139E+03  0.25500000000E-02 0.  1.
         -2   -1    0    0    0  501 -0.00000000000E+00 -0.00000000000E+00 -0.77288774120E+02  0.77288774162E+02  0.25500000000E-02 0. -1.
    5000001    1    1    2    0    0 -0.48292307695E+02  0.90206421540E+02  0.10010932540E+03  0.16254298663E+03  0.77000000000E+02 0.  0.
   -5000001    1    1    2    0    0  0.48292307695E+02 -0.90206421540E+02  0.42910331853E+02  0.13505421892E+03  0.77000000000E+02 0.  0.
<mgrwt>
<rscale>  0 0.26097792E+03</rscale>
<asrwt>0</asrwt>
<pdfrwt beam="1">  1        2 0.33893605E-01 0.26097792E+03</pdfrwt>
<pdfrwt beam="2">  1       -2 0.11890581E-01 0.26097792E+03</pdfrwt>
<totfact> 0.76035426E+03</totfact>
</mgrwt>
</event>
<event>
 4    1  0.5980424E-004  0.2486204E+03  0.7818608E-02  0.1114180E+00
          2   -1    0    0  501    0  0.00000000000E+00  0.00000000000E+00  0.70592297181E+02  0.70592297227E+02  0.25500000000E-02 0.  1.
         -2   -1    0    0    0  501 -0.00000000000E+00 -0.00000000000E+00 -0.21890528869E+03  0.21890528870E+03  0.25500000000E-02 0. -1.
    5000001    1    1    2    0    0 -0.70315774050E+02  0.32797383160E+02 -0.14308412828E+03  0.18006122345E+03  0.77000000000E+02 0.  0.
   -5000001    1    1    2    0    0  0.70315774050E+02 -0.32797383160E+02 -0.52288632208E+01  0.10943636248E+03  0.77000000000E+02 0.  0.
<mgrwt>
<rscale>  0 0.24862041E+03</rscale>
<asrwt>0</asrwt>
<pdfrwt beam="1">  1        2 0.10860353E-01 0.24862041E+03</pdfrwt>
<pdfrwt beam="2">  1       -2 0.33677737E-01 0.24862041E+03</pdfrwt>
<totfact> 0.47184473E+03</totfact>
</mgrwt>
</event>
<event>
 4    1  0.5980424E-004  0.2130569E+03  0.7818608E-02  0.1139168E+00
         -2   -1    0    0    0  501 -0.00000000000E+00  0.00000000000E+00  0.27035380256E+03  0.27035380257E+03  0.25500000000E-02 0. -1.
          2   -1    0    0  501    0  0.00000000000E+00 -0.00000000000E+00 -0.41975779937E+02  0.41975780015E+02  0.25500000000E-02 0.  1.
    5000001    1    1    2    0    0  0.47498443107E+02  0.56206144461E+02  0.11122832527E+03  0.15399991271E+03  0.77000000000E+02 0.  0.
   -5000001    1    1    2    0    0 -0.47498443107E+02 -0.56206144461E+02  0.11714969735E+03  0.15832966987E+03  0.77000000000E+02 0.  0.
<mgrwt>
<rscale>  0 0.21305691E+03</rscale>
<asrwt>0</asrwt>
<pdfrwt beam="1">  1        2 0.64578122E-02 0.21305691E+03</pdfrwt>
<pdfrwt beam="2">  1       -2 0.41592893E-01 0.21305691E+03</pdfrwt>
<totfact> 0.60625731E+03</totfact>
</mgrwt>
</event>
<event>
 4    1  0.5980424E-004  0.6288645E+03  0.7818608E-02  0.9847267E-01
         -2   -1    0    0    0  501 -0.00000000000E+00  0.00000000000E+00  0.21125921706E+03  0.21125921707E+03  0.25500000000E-02 0. -1.
          2   -1    0    0  501    0  0.00000000000E+00 -0.00000000000E+00 -0.46799214409E+03  0.46799214410E+03  0.25500000000E-02 0.  1.
    5000001    1    1    2    0    0 -0.25814493583E+03 -0.11226799821E+03 -0.25477203038E+03  0.38740250229E+03  0.77000000000E+02 0.  0.
   -5000001    1    1    2    0    0  0.25814493583E+03  0.11226799821E+03 -0.19608966516E+01  0.29184885888E+03  0.77000000000E+02 0.  0.
<mgrwt>
<rscale>  0 0.62886454E+03</rscale>
<asrwt>0</asrwt>
<pdfrwt beam="1">  1        2 0.71998791E-01 0.62886454E+03</pdfrwt>
<pdfrwt beam="2">  1       -2 0.32501418E-01 0.62886454E+03</pdfrwt>
<totfact> 0.59023144E+02</totfact>
</mgrwt>
</event>
<event>
 4    1  0.5980424E-004  0.2154354E+03  0.7818608E-02  0.1137333E+00
         -2   -1    0    0    0  501 -0.00000000000E+00  0.00000000000E+00  0.79380082536E+02  0.79380082577E+02  0.25500000000E-02 0. -1.
          2   -1    0    0  501    0  0.00000000000E+00 -0.00000000000E+00 -0.14617142523E+03  0.14617142526E+03  0.25500000000E-02 0.  1.
    5000001    1    1    2    0    0 -0.56717650576E+02 -0.37974009271E+02 -0.66753732073E+02  0.12265389522E+03  0.77000000000E+02 0.  0.
   -5000001    1    1    2    0    0  0.56717650576E+02  0.37974009271E+02 -0.37610625880E-01  0.10289761261E+03  0.77000000000E+02 0.  0.
<mgrwt>
<rscale>  0 0.21543537E+03</rscale>
<asrwt>0</asrwt>
<pdfrwt beam="1">  1        2 0.22487912E-01 0.21543537E+03</pdfrwt>
<pdfrwt beam="2">  1       -2 0.12212320E-01 0.21543537E+03</pdfrwt>
<totfact> 0.11344825E+04</totfact>
</mgrwt>
</event>
<event>
 4    1  0.5980424E-004  0.1955485E+03  0.7818608E-02  0.1153550E+00
          2   -1    0    0  501    0  0.00000000000E+00  0.00000000000E+00  0.22190295208E+03  0.22190295210E+03  0.25500000000E-02 0.  1.
         -2   -1    0    0    0  501 -0.00000000000E+00 -0.00000000000E+00 -0.43081027400E+02  0.43081027475E+02  0.25500000000E-02 0. -1.
    5000001    1    1    2    0    0  0.46613062919E+02  0.35942223763E+02  0.71942189908E+02  0.12070335444E+03  0.77000000000E+02 0.  0.
   -5000001    1    1    2    0    0 -0.46613062919E+02 -0.35942223763E+02  0.10687973478E+03  0.14428062514E+03  0.77000000000E+02 0.  0.
<mgrwt>
<rscale>  0 0.19554853E+03</rscale>
<asrwt>0</asrwt>
<pdfrwt beam="1">  1        2 0.34138915E-01 0.19554853E+03</pdfrwt>
<pdfrwt beam="2">  1       -2 0.66278504E-02 0.19554853E+03</pdfrwt>
<totfact> 0.18584412E+04</totfact>
</mgrwt>
</event>
<event>
 4    1  0.5980424E-004  0.3855484E+03  0.7818608E-02  0.1048902E+00
          2   -1    0    0  501    0  0.00000000000E+00  0.00000000000E+00  0.29017069700E+04  0.29017069700E+04  0.25500000000E-02 0.  1.
         -2   -1    0    0    0  501 -0.00000000000E+00 -0.00000000000E+00 -0.12806905022E+02  0.12806905276E+02  0.25500000000E-02 0. -1.
    5000001    1    1    2    0    0  0.28846619365E+02 -0.82302465678E+02  0.26064125660E+04  0.26090077209E+04  0.77000000000E+02 0.  0.
   -5000001    1    1    2    0    0 -0.28846619365E+02  0.82302465678E+02  0.28248749892E+03  0.30550615436E+03  0.77000000000E+02 0.  0.
<mgrwt>
<rscale>  0 0.38554837E+03</rscale>
<asrwt>0</asrwt>
<pdfrwt beam="1">  1        2 0.44641669E+00 0.38554837E+03</pdfrwt>
<pdfrwt beam="2">  1       -2 0.19702921E-02 0.38554837E+03</pdfrwt>
<totfact> 0.18568884E+03</totfact>
</mgrwt>
</event>
<event>
 4    1  0.5980424E-004  0.4272523E+03  0.7818608E-02  0.1034731E+00
         -2   -1    0    0    0  501 -0.00000000000E+00  0.00000000000E+00  0.96564467868E+02  0.96564467902E+02  0.25500000000E-02 0. -1.
          2   -1    0    0  501    0  0.00000000000E+00 -0.00000000000E+00 -0.47259745342E+03  0.47259745343E+03  0.25500000000E-02 0.  1.
    5000001    1    1    2    0    0  0.14428414039E+03 -0.13474489734E+03 -0.22408346718E+03  0.30840963148E+03  0.77000000000E+02 0.  0.
   -5000001    1    1    2    0    0 -0.14428414039E+03  0.13474489734E+03 -0.15194951838E+03  0.26075228985E+03  0.77000000000E+02 0.  0.
<mgrwt>
<rscale>  0 0.42725225E+03</rscale>
<asrwt>0</asrwt>
<pdfrwt beam="1">  1        2 0.72707300E-01 0.42725225E+03</pdfrwt>
<pdfrwt beam="2">  1       -2 0.14856072E-01 0.42725225E+03</pdfrwt>
<totfact> 0.23221377E+03</totfact>
</mgrwt>
</event>
<event>
 4    1  0.5980424E-004  0.2756734E+03  0.7818608E-02  0.1098076E+00
          2   -1    0    0  501    0  0.00000000000E+00  0.00000000000E+00  0.19659377154E+04  0.19659377154E+04  0.25500000000E-02 0.  1.
         -2   -1    0    0    0  501 -0.00000000000E+00 -0.00000000000E+00 -0.96640679200E+01  0.96640682564E+01  0.25500000000E-02 0. -1.
    5000001    1    1    2    0    0  0.91991347619E+02  0.30120961564E+02  0.54220198215E+03  0.55613098260E+03  0.77000000000E+02 0.  0.
   -5000001    1    1    2    0    0 -0.91991347619E+02 -0.30120961564E+02  0.14140716654E+04  0.14194708011E+04  0.77000000000E+02 0.  0.
<mgrwt>
<rscale>  0 0.27567340E+03</rscale>
<asrwt>0</asrwt>
<pdfrwt beam="1">  1        2 0.30245162E+00 0.27567340E+03</pdfrwt>
<pdfrwt beam="2">  1       -2 0.14867814E-02 0.27567340E+03</pdfrwt>
<totfact> 0.92540429E+03</totfact>
</mgrwt>
</event>
<event>
 4    1  0.5980424E-004  0.2121586E+03  0.7818608E-02  0.1139868E+00
         -2   -1    0    0    0  501 -0.00000000000E+00  0.00000000000E+00  0.15096747480E+02  0.15096747696E+02  0.25500000000E-02 0. -1.
          2   -1    0    0  501    0  0.00000000000E+00 -0.00000000000E+00 -0.74538018915E+03  0.74538018916E+03  0.25500000000E-02 0.  1.
    5000001    1    1    2    0    0 -0.57423359931E+02  0.42566881801E+02 -0.31265213443E+03  0.32983289535E+03  0.77000000000E+02 0.  0.
   -5000001    1    1    2    0    0  0.57423359931E+02 -0.42566881801E+02 -0.41763130724E+03  0.43064404150E+03  0.77000000000E+02 0.  0.
<mgrwt>
<rscale>  0 0.21215859E+03</rscale>
<asrwt>0</asrwt>
<pdfrwt beam="1">  1        2 0.11467385E+00 0.21215859E+03</pdfrwt>
<pdfrwt beam="2">  1       -2 0.23225771E-02 0.21215859E+03</pdfrwt>
<totfact> 0.23535847E+04</totfact>
</mgrwt>
</event>
<event>
 4    1  0.5980424E-004  0.2749955E+03  0.7818608E-02  0.1098454E+00
         -2   -1    0    0    0  501 -0.00000000000E+00  0.00000000000E+00  0.33182022524E+03  0.33182022525E+03  0.25500000000E-02 0. -1.
          2   -1    0    0  501    0  0.00000000000E+00 -0.00000000000E+00 -0.56975520252E+02  0.56975520309E+02  0.25500000000E-02 0.  1.
    5000001    1    1    2    0    0  0.86547005079E+02  0.74011392692E+02  0.13328594155E+03  0.19147379077E+03  0.77000000000E+02 0.  0.
   -5000001    1    1    2    0    0 -0.86547005079E+02 -0.74011392692E+02  0.14155876344E+03  0.19732195479E+03  0.77000000000E+02 0.  0.
<mgrwt>
<rscale>  0 0.27499549E+03</rscale>
<asrwt>0</asrwt>
<pdfrwt beam="1">  1        2 0.87654647E-02 0.27499549E+03</pdfrwt>
<pdfrwt beam="2">  1       -2 0.51049265E-01 0.27499549E+03</pdfrwt>
<totfact> 0.27779394E+03</totfact>
</mgrwt>
</event>
<event>
 4    1  0.5980424E-004  0.4341522E+03  0.7818608E-02  0.1032556E+00
          2   -1    0    0  501    0  0.00000000000E+00  0.00000000000E+00  0.15329117045E+03  0.15329117047E+03  0.25500000000E-02 0.  1.
         -2   -1    0    0    0  501 -0.00000000000E+00 -0.00000000000E+00 -0.30740214096E+03  0.30740214097E+03  0.25500000000E-02 0. -1.
    5000001    1    1    2    0    0  0.17011524544E+03 -0.92381516580E+02 -0.14177149771E+03  0.25199543429E+03  0.77000000000E+02 0.  0.
   -5000001    1    1    2    0    0 -0.17011524544E+03  0.92381516580E+02 -0.12339472800E+02  0.20869787715E+03  0.77000000000E+02 0.  0.
<mgrwt>
<rscale>  0 0.43415220E+03</rscale>
<asrwt>0</asrwt>
<pdfrwt beam="1">  1        2 0.23583257E-01 0.43415220E+03</pdfrwt>
<pdfrwt beam="2">  1       -2 0.47292637E-01 0.43415220E+03</pdfrwt>
<totfact> 0.99394961E+02</totfact>
</mgrwt>
</event>
<event>
 4    1  0.5980424E-004  0.2440556E+03  0.7818608E-02  0.1117120E+00
         -2   -1    0    0    0  501 -0.00000000000E+00  0.00000000000E+00  0.65857910194E+02  0.65857910244E+02  0.25500000000E-02 0. -1.
          2   -1    0    0  501    0  0.00000000000E+00 -0.00000000000E+00 -0.22610475462E+03  0.22610475463E+03  0.25500000000E-02 0.  1.
    5000001    1    1    2    0    0 -0.87711173305E+02 -0.32751385357E+02 -0.96866580960E+02  0.15517099495E+03  0.77000000000E+02 0.  0.
   -5000001    1    1    2    0    0  0.87711173305E+02  0.32751385357E+02 -0.63380263461E+02  0.13679166993E+03  0.77000000000E+02 0.  0.
<mgrwt>
<rscale>  0 0.24405562E+03</rscale>
<asrwt>0</asrwt>
<pdfrwt beam="1">  1        2 0.34785346E-01 0.24405562E+03</pdfrwt>
<pdfrwt beam="2">  1       -2 0.10131986E-01 0.24405562E+03</pdfrwt>
<totfact> 0.95207485E+03</totfact>
</mgrwt>
</event>
<event>
 4    1  0.5980424E-004  0.2455530E+03  0.7818608E-02  0.1116148E+00
         -2   -1    0    0    0  501 -0.00000000000E+00  0.00000000000E+00  0.33276641241E+02  0.33276641338E+02  0.25500000000E-02 0. -1.
          2   -1    0    0  501    0  0.00000000000E+00 -0.00000000000E+00 -0.45299233430E+03  0.45299233430E+03  0.25500000000E-02 0.  1.
    5000001    1    1    2    0    0 -0.66021732631E+02  0.61384407370E+02 -0.14666949608E+03  0.18859442126E+03  0.77000000000E+02 0.  0.
   -5000001    1    1    2    0    0  0.66021732631E+02 -0.61384407370E+02 -0.27304619697E+03  0.29767455438E+03  0.77000000000E+02 0.  0.
<mgrwt>
<rscale>  0 0.24555295E+03</rscale>
<asrwt>0</asrwt>
<pdfrwt beam="1">  1        2 0.69691124E-01 0.24555295E+03</pdfrwt>
<pdfrwt beam="2">  1       -2 0.51194836E-02 0.24555295E+03</pdfrwt>
<totfact> 0.12960594E+04</totfact>
</mgrwt>
</event>
<event>
 4    1  0.5980424E-004  0.2423368E+03  0.7818608E-02  0.1118246E+00
          2   -1    0    0  501    0  0.00000000000E+00  0.00000000000E+00  0.82460506068E+02  0.82460506107E+02  0.25500000000E-02 0.  1.
         -2   -1    0    0    0  501 -0.00000000000E+00 -0.00000000000E+00 -0.17804620089E+03  0.17804620090E+03  0.25500000000E-02 0. -1.
    5000001    1    1    2    0    0  0.78187486525E+02 -0.63057773777E+01 -0.10260337890E+03  0.15036455447E+03  0.77000000000E+02 0.  0.
   -5000001    1    1    2    0    0 -0.78187486525E+02  0.63057773777E+01  0.70176840849E+01  0.11014215255E+03  0.77000000000E+02 0.  0.
<mgrwt>
<rscale>  0 0.24233679E+03</rscale>
<asrwt>0</asrwt>
<pdfrwt beam="1">  1        2 0.12686232E-01 0.24233679E+03</pdfrwt>
<pdfrwt beam="2">  1       -2 0.27391723E-01 0.24233679E+03</pdfrwt>
<totfact> 0.56778402E+03</totfact>
</mgrwt>
</event>
<event>
 4    1  0.5980424E-004  0.6134264E+03  0.7818608E-02  0.9877936E-01
         -2   -1    0    0    0  501 -0.00000000000E+00  0.00000000000E+00  0.57699324769E+03  0.57699324770E+03  0.25500000000E-02 0. -1.
          2   -1    0    0  501    0  0.00000000000E+00 -0.00000000000E+00 -0.16304001207E+03  0.16304001209E+03  0.25500000000E-02 0.  1.
    5000001    1    1    2    0    0 -0.20761621986E+02 -0.29353731040E+03  0.25445378965E+03  0.39657398882E+03  0.77000000000E+02 0.  0.
   -5000001    1    1    2    0    0  0.20761621986E+02  0.29353731040E+03  0.15949944597E+03  0.34345927096E+03  0.77000000000E+02 0.  0.
<mgrwt>
<rscale>  0 0.61342640E+03</rscale>
<asrwt>0</asrwt>
<pdfrwt beam="1">  1        2 0.25083080E-01 0.61342640E+03</pdfrwt>
<pdfrwt beam="2">  1       -2 0.88768189E-01 0.61342640E+03</pdfrwt>
<totfact> 0.24088182E+02</totfact>
</mgrwt>
</event>
<event>
 4    1  0.5980424E-004  0.3847312E+03  0.7818608E-02  0.1049199E+00
         -2   -1    0    0    0  501 -0.00000000000E+00  0.00000000000E+00  0.65785434047E+02  0.65785434096E+02  0.25500000000E-02 0. -1.
          2   -1    0    0  501    0  0.00000000000E+00 -0.00000000000E+00 -0.56250318036E+03  0.56250318037E+03  0.25500000000E-02 0.  1.
    5000001    1    1    2    0    0 -0.15700138530E+03  0.68819020340E+02 -0.31549374776E+03  0.36722036630E+03  0.77000000000E+02 0.  0.
   -5000001    1    1    2    0    0  0.15700138530E+03 -0.68819020340E+02 -0.18122399855E+03  0.26106824816E+03  0.77000000000E+02 0.  0.
<mgrwt>
<rscale>  0 0.38473116E+03</rscale>
<asrwt>0</asrwt>
<pdfrwt beam="1">  1        2 0.86538948E-01 0.38473116E+03</pdfrwt>
<pdfrwt beam="2">  1       -2 0.10120836E-01 0.38473116E+03</pdfrwt>
<totfact> 0.35603896E+03</totfact>
</mgrwt>
</event>
<event>
 4    1  0.5980424E-004  0.2883022E+03  0.7818608E-02  0.1091239E+00
         -2   -1    0    0    0  501 -0.00000000000E+00  0.00000000000E+00  0.11308688424E+02  0.11308688711E+02  0.25500000000E-02 0. -1.
          2   -1    0    0  501    0  0.00000000000E+00 -0.00000000000E+00 -0.18374849651E+04  0.18374849651E+04  0.25500000000E-02 0.  1.
    5000001    1    1    2    0    0 -0.55276711341E+02  0.10434230433E+03 -0.11062916105E+04  0.11152367276E+04  0.77000000000E+02 0.  0.
   -5000001    1    1    2    0    0  0.55276711341E+02 -0.10434230433E+03 -0.71988466617E+03  0.73355692614E+03  0.77000000000E+02 0.  0.
<mgrwt>
<rscale>  0 0.28830224E+03</rscale>
<asrwt>0</asrwt>
<pdfrwt beam="1">  1        2 0.28268976E+00 0.28830224E+03</pdfrwt>
<pdfrwt beam="2">  1       -2 0.17397997E-02 0.28830224E+03</pdfrwt>
<totfact> 0.85899652E+03</totfact>
</mgrwt>
</event>
<event>
 4    1  0.5980424E-004  0.3395004E+03  0.7818608E-02  0.1067009E+00
          2   -1    0    0  501    0  0.00000000000E+00  0.00000000000E+00  0.80351505136E+03  0.80351505136E+03  0.25500000000E-02 0.  1.
         -2   -1    0    0    0  501 -0.00000000000E+00 -0.00000000000E+00 -0.35861345010E+02  0.35861345100E+02  0.25500000000E-02 0. -1.
    5000001    1    1    2    0    0 -0.10353664725E+03 -0.10884919014E+03  0.33972768709E+03  0.37935719960E+03  0.77000000000E+02 0.  0.
   -5000001    1    1    2    0    0  0.10353664725E+03  0.10884919014E+03  0.42792601926E+03  0.46001919686E+03  0.77000000000E+02 0.  0.
<mgrwt>
<rscale>  0 0.33950040E+03</rscale>
<asrwt>0</asrwt>
<pdfrwt beam="1">  1        2 0.12361770E+00 0.33950040E+03</pdfrwt>
<pdfrwt beam="2">  1       -2 0.55171300E-02 0.33950040E+03</pdfrwt>
<totfact> 0.59627027E+03</totfact>
</mgrwt>
</event>
<event>
 4    1  0.5980424E-004  0.2832701E+03  0.7818608E-02  0.1093916E+00
         -2   -1    0    0    0  501 -0.00000000000E+00  0.00000000000E+00  0.95521490342E+01  0.95521493745E+01  0.25500000000E-02 0. -1.
          2   -1    0    0  501    0  0.00000000000E+00 -0.00000000000E+00 -0.21001019699E+04  0.21001019699E+04  0.25500000000E-02 0.  1.
    5000001    1    1    2    0    0 -0.56389775316E+02 -0.83817664958E+02 -0.15119355121E+04  0.15172617442E+04  0.77000000000E+02 0.  0.
   -5000001    1    1    2    0    0  0.56389775316E+02  0.83817664958E+02 -0.57861430880E+03  0.59239237510E+03  0.77000000000E+02 0.  0.
<mgrwt>
<rscale>  0 0.28327010E+03</rscale>
<asrwt>0</asrwt>
<pdfrwt beam="1">  1        2 0.32309224E+00 0.28327010E+03</pdfrwt>
<pdfrwt beam="2">  1       -2 0.14695631E-02 0.28327010E+03</pdfrwt>
<totfact> 0.79999617E+03</totfact>
</mgrwt>
</event>
<event>
 4    1  0.5980424E-004  0.2764132E+03  0.7818608E-02  0.1097664E+00
         -2   -1    0    0    0  501 -0.00000000000E+00  0.00000000000E+00  0.10428278291E+02  0.10428278602E+02  0.25500000000E-02 0. -1.
          2   -1    0    0  501    0  0.00000000000E+00 -0.00000000000E+00 -0.18316610015E+04  0.18316610015E+04  0.25500000000E-02 0.  1.
    5000001    1    1    2    0    0 -0.45191974823E+02  0.10401855965E+03 -0.10279329787E+04  0.10370329715E+04  0.77000000000E+02 0.  0.
   -5000001    1    1    2    0    0  0.45191974823E+02 -0.10401855965E+03 -0.79329974453E+03  0.80505630859E+03  0.77000000000E+02 0.  0.
<mgrwt>
<rscale>  0 0.27641325E+03</rscale>
<asrwt>0</asrwt>
<pdfrwt beam="1">  1        2 0.28179374E+00 0.27641325E+03</pdfrwt>
<pdfrwt beam="2">  1       -2 0.16043520E-02 0.27641325E+03</pdfrwt>
<totfact> 0.97380849E+03</totfact>
</mgrwt>
</event>
<event>
 4    1  0.5980424E-004  0.2437133E+03  0.7818608E-02  0.1117344E+00
         -2   -1    0    0    0  501 -0.00000000000E+00  0.00000000000E+00  0.16867208408E+02  0.16867208600E+02  0.25500000000E-02 0. -1.
          2   -1    0    0  501    0  0.00000000000E+00 -0.00000000000E+00 -0.88035007890E+03  0.88035007891E+03  0.25500000000E-02 0.  1.
    5000001    1    1    2    0    0  0.36704923857E+02 -0.80966962616E+02 -0.54915286422E+03  0.56160552771E+03  0.77000000000E+02 0.  0.
   -5000001    1    1    2    0    0 -0.36704923857E+02  0.80966962616E+02 -0.31433000627E+03  0.33561175980E+03  0.77000000000E+02 0.  0.
<mgrwt>
<rscale>  0 0.24371334E+03</rscale>
<asrwt>0</asrwt>
<pdfrwt beam="1">  1        2 0.13543844E+00 0.24371334E+03</pdfrwt>
<pdfrwt beam="2">  1       -2 0.25949558E-02 0.24371334E+03</pdfrwt>
<totfact> 0.16294790E+04</totfact>
</mgrwt>
</event>
<event>
 4    1  0.5980424E-004  0.4207562E+03  0.7818608E-02  0.1036820E+00
         -2   -1    0    0    0  501 -0.00000000000E+00  0.00000000000E+00  0.49740951557E+03  0.49740951557E+03  0.25500000000E-02 0. -1.
          2   -1    0    0  501    0  0.00000000000E+00 -0.00000000000E+00 -0.88978900299E+02  0.88978900335E+02  0.25500000000E-02 0.  1.
    5000001    1    1    2    0    0  0.70875839942E+01  0.19447872090E+03  0.17439812412E+03  0.27242597605E+03  0.77000000000E+02 0.  0.
   -5000001    1    1    2    0    0 -0.70875839942E+01 -0.19447872090E+03  0.23403249115E+03  0.31396243986E+03  0.77000000000E+02 0.  0.
<mgrwt>
<rscale>  0 0.42075623E+03</rscale>
<asrwt>0</asrwt>
<pdfrwt beam="1">  1        2 0.13689062E-01 0.42075623E+03</pdfrwt>
<pdfrwt beam="2">  1       -2 0.76524540E-01 0.42075623E+03</pdfrwt>
<totfact> 0.68810933E+02</totfact>
</mgrwt>
</event>
<event>
 4    1  0.5980424E-004  0.1926235E+03  0.7818608E-02  0.1156116E+00
         -2   -1    0    0    0  501 -0.00000000000E+00  0.00000000000E+00  0.46826334288E+01  0.46826341232E+01  0.25500000000E-02 0. -1.
          2   -1    0    0  501    0  0.00000000000E+00 -0.00000000000E+00 -0.19809257145E+04  0.19809257146E+04  0.25500000000E-02 0.  1.
    5000001    1    1    2    0    0  0.11733555310E+02  0.48797646257E+02 -0.69149083217E+03  0.69757254646E+03  0.77000000000E+02 0.  0.
   -5000001    1    1    2    0    0 -0.11733555310E+02 -0.48797646257E+02 -0.12847522490E+04  0.12880358022E+04  0.77000000000E+02 0.  0.
<mgrwt>
<rscale>  0 0.19262346E+03</rscale>
<asrwt>0</asrwt>
<pdfrwt beam="1">  1        2 0.30475713E+00 0.19262346E+03</pdfrwt>
<pdfrwt beam="2">  1       -2 0.72040678E-03 0.19262346E+03</pdfrwt>
<totfact> 0.25693138E+04</totfact>
</mgrwt>
</event>
<event>
 4    1  0.5980424E-004  0.3057420E+03  0.7818608E-02  0.1082405E+00
         -2   -1    0    0    0  501 -0.00000000000E+00  0.00000000000E+00  0.75931350749E+02  0.75931350792E+02  0.25500000000E-02 0. -1.
          2   -1    0    0  501    0  0.00000000000E+00 -0.00000000000E+00 -0.30777194043E+03  0.30777194044E+03  0.25500000000E-02 0.  1.
    5000001    1    1    2    0    0 -0.42797351526E+02  0.94836402678E+02 -0.13848721862E+02  0.13017812285E+03  0.77000000000E+02 0.  0.
   -5000001    1    1    2    0    0  0.42797351526E+02 -0.94836402678E+02 -0.21799186782E+03  0.25352516839E+03  0.77000000000E+02 0.  0.
<mgrwt>
<rscale>  0 0.30574198E+03</rscale>
<asrwt>0</asrwt>
<pdfrwt beam="1">  1        2 0.47349529E-01 0.30574198E+03</pdfrwt>
<pdfrwt beam="2">  1       -2 0.11681746E-01 0.30574198E+03</pdfrwt>
<totfact> 0.54818842E+03</totfact>
</mgrwt>
</event>
<event>
 4    1  0.5980424E-004  0.3164319E+03  0.7818608E-02  0.1077303E+00
          2   -1    0    0  501    0  0.00000000000E+00  0.00000000000E+00  0.15669197629E+03  0.15669197632E+03  0.25500000000E-02 0.  1.
         -2   -1    0    0    0  501 -0.00000000000E+00 -0.00000000000E+00 -0.15975470817E+03  0.15975470819E+03  0.25500000000E-02 0. -1.
    5000001    1    1    2    0    0 -0.12891891313E+02  0.13696088513E+03 -0.14903455737E+02  0.15835276414E+03  0.77000000000E+02 0.  0.
   -5000001    1    1    2    0    0  0.12891891313E+02 -0.13696088513E+03  0.11840723858E+02  0.15809392037E+03  0.77000000000E+02 0.  0.
<mgrwt>
<rscale>  0 0.31643186E+03</rscale>
<asrwt>0</asrwt>
<pdfrwt beam="1">  1        2 0.24106458E-01 0.31643186E+03</pdfrwt>
<pdfrwt beam="2">  1       -2 0.24577647E-01 0.31643186E+03</pdfrwt>
<totfact> 0.32866306E+03</totfact>
</mgrwt>
</event>
<event>
 4    1  0.5980424E-004  0.5590773E+03  0.7818608E-02  0.9994145E-01
         -2   -1    0    0    0  501 -0.00000000000E+00  0.00000000000E+00  0.86404679333E+02  0.86404679371E+02  0.25500000000E-02 0. -1.
          2   -1    0    0  501    0  0.00000000000E+00 -0.00000000000E+00 -0.90437075093E+03  0.90437075093E+03  0.25500000000E-02 0.  1.
    5000001    1    1    2    0    0 -0.16263071393E+03  0.58781953879E+02 -0.44465279596E+02  0.19444852354E+03  0.77000000000E+02 0.  0.
   -5000001    1    1    2    0    0  0.16263071393E+03 -0.58781953879E+02 -0.77350079200E+03  0.79632690676E+03  0.77000000000E+02 0.  0.
<mgrwt>
<rscale>  0 0.55907733E+03</rscale>
<asrwt>0</asrwt>
<pdfrwt beam="1">  1        2 0.13913395E+00 0.55907733E+03</pdfrwt>
<pdfrwt beam="2">  1       -2 0.13293028E-01 0.55907733E+03</pdfrwt>
<totfact> 0.12578881E+03</totfact>
</mgrwt>
</event>
<event>
 4    1  0.5980424E-004  0.2723886E+03  0.7818608E-02  0.1099920E+00
          2   -1    0    0  501    0  0.00000000000E+00  0.00000000000E+00  0.48212682763E+03  0.48212682764E+03  0.25500000000E-02 0.  1.
         -2   -1    0    0    0  501 -0.00000000000E+00 -0.00000000000E+00 -0.38473048402E+02  0.38473048486E+02  0.25500000000E-02 0. -1.
    5000001    1    1    2    0    0  0.35377086462E+02  0.93911002901E+02  0.12533154866E+03  0.17806687452E+03  0.77000000000E+02 0.  0.
   -5000001    1    1    2    0    0 -0.35377086462E+02 -0.93911002901E+02  0.31832223057E+03  0.34253300160E+03  0.77000000000E+02 0.  0.
<mgrwt>
<rscale>  0 0.27238861E+03</rscale>
<asrwt>0</asrwt>
<pdfrwt beam="1">  1        2 0.74173362E-01 0.27238861E+03</pdfrwt>
<pdfrwt beam="2">  1       -2 0.59189302E-02 0.27238861E+03</pdfrwt>
<totfact> 0.97402477E+03</totfact>
</mgrwt>
</event>
<event>
 4    1  0.5980424E-004  0.2405537E+03  0.7818608E-02  0.1119425E+00
          2   -1    0    0  501    0  0.00000000000E+00  0.00000000000E+00  0.11765556029E+04  0.11765556029E+04  0.25500000000E-02 0.  1.
         -2   -1    0    0    0  501 -0.00000000000E+00 -0.00000000000E+00 -0.12295652908E+02  0.12295653172E+02  0.25500000000E-02 0. -1.
    5000001    1    1    2    0    0 -0.73968579658E+02  0.28808257890E+02  0.34842069184E+03  0.36555060525E+03  0.77000000000E+02 0.  0.
   -5000001    1    1    2    0    0  0.73968579658E+02 -0.28808257890E+02  0.81583925814E+03  0.82330065080E+03  0.77000000000E+02 0.  0.
<mgrwt>
<rscale>  0 0.24055369E+03</rscale>
<asrwt>0</asrwt>
<pdfrwt beam="1">  1        2 0.18100861E+00 0.24055369E+03</pdfrwt>
<pdfrwt beam="2">  1       -2 0.18916383E-02 0.24055369E+03</pdfrwt>
<totfact> 0.17165511E+04</totfact>
</mgrwt>
</event>
<event>
 4    1  0.5980424E-004  0.2876055E+03  0.7818608E-02  0.1091606E+00
         -2   -1    0    0    0  501 -0.00000000000E+00  0.00000000000E+00  0.13790853053E+03  0.13790853056E+03  0.25500000000E-02 0. -1.
          2   -1    0    0  501    0  0.00000000000E+00 -0.00000000000E+00 -0.14994886936E+03  0.14994886939E+03  0.25500000000E-02 0.  1.
    5000001    1    1    2    0    0  0.41297885830E+02 -0.10025827001E+03 -0.60776335067E+02  0.14621901034E+03  0.77000000000E+02 0.  0.
   -5000001    1    1    2    0    0 -0.41297885830E+02  0.10025827001E+03  0.48735996236E+02  0.14163838960E+03  0.77000000000E+02 0.  0.
<mgrwt>
<rscale>  0 0.28760548E+03</rscale>
<asrwt>0</asrwt>
<pdfrwt beam="1">  1        2 0.23069057E-01 0.28760548E+03</pdfrwt>
<pdfrwt beam="2">  1       -2 0.21216697E-01 0.28760548E+03</pdfrwt>
<totfact> 0.44529468E+03</totfact>
</mgrwt>
</event>
<event>
 4    1  0.5980424E-004  0.3027008E+03  0.7818608E-02  0.1083898E+00
         -2   -1    0    0    0  501 -0.00000000000E+00  0.00000000000E+00  0.15265684381E+02  0.15265684594E+02  0.25500000000E-02 0. -1.
          2   -1    0    0  501    0  0.00000000000E+00 -0.00000000000E+00 -0.15005514380E+04  0.15005514380E+04  0.25500000000E-02 0.  1.
    5000001    1    1    2    0    0  0.12195421988E+03 -0.28944863528E+02 -0.56437450147E+03  0.58323084176E+03  0.77000000000E+02 0.  0.
   -5000001    1    1    2    0    0 -0.12195421988E+03  0.28944863528E+02 -0.92091125218E+03  0.93258628087E+03  0.77000000000E+02 0.  0.
<mgrwt>
<rscale>  0 0.30270081E+03</rscale>
<asrwt>0</asrwt>
<pdfrwt beam="1">  1        2 0.23085395E+00 0.30270081E+03</pdfrwt>
<pdfrwt beam="2">  1       -2 0.23485680E-02 0.30270081E+03</pdfrwt>
<totfact> 0.83284723E+03</totfact>
</mgrwt>
</event>
<event>
 4    1  0.5980424E-004  0.4586782E+03  0.7818608E-02  0.1025165E+00
         -2   -1    0    0    0  501 -0.00000000000E+00  0.00000000000E+00  0.43107420513E+03  0.43107420513E+03  0.25500000000E-02 0. -1.
          2   -1    0    0  501    0  0.00000000000E+00 -0.00000000000E+00 -0.12201244065E+03  0.12201244067E+03  0.25500000000E-02 0.  1.
    5000001    1    1    2    0    0 -0.20509720245E+03  0.54339247096E+02  0.20350884370E+03  0.30391193740E+03  0.77000000000E+02 0.  0.
   -5000001    1    1    2    0    0  0.20509720245E+03 -0.54339247096E+02  0.10555292078E+03  0.24917470841E+03  0.77000000000E+02 0.  0.
<mgrwt>
<rscale>  0 0.45867817E+03</rscale>
<asrwt>0</asrwt>
<pdfrwt beam="1">  1        2 0.18771145E-01 0.45867817E+03</pdfrwt>
<pdfrwt beam="2">  1       -2 0.66319108E-01 0.45867817E+03</pdfrwt>
<totfact> 0.64414910E+02</totfact>
</mgrwt>
</event>
<event>
 4    1  0.5980424E-004  0.1646794E+03  0.7818608E-02  0.1183513E+00
         -2   -1    0    0    0  501 -0.00000000000E+00  0.00000000000E+00  0.93970593117E+01  0.93970596577E+01  0.25500000000E-02 0. -1.
          2   -1    0    0  501    0  0.00000000000E+00 -0.00000000000E+00 -0.72148337596E+03  0.72148337596E+03  0.25500000000E-02 0.  1.
    5000001    1    1    2    0    0  0.71637284726E+01  0.24296508113E+02 -0.29185273048E+03  0.30290040542E+03  0.77000000000E+02 0.  0.
   -5000001    1    1    2    0    0 -0.71637284726E+01 -0.24296508113E+02 -0.42023358616E+03  0.42798003020E+03  0.77000000000E+02 0.  0.
<mgrwt>
<rscale>  0 0.16467935E+03</rscale>
<asrwt>0</asrwt>
<pdfrwt beam="1">  1        2 0.11099740E+00 0.16467935E+03</pdfrwt>
<pdfrwt beam="2">  1       -2 0.14457020E-02 0.16467935E+03</pdfrwt>
<totfact> 0.47912548E+04</totfact>
</mgrwt>
</event>
<event>
 4    1  0.5980424E-004  0.2551632E+03  0.7818608E-02  0.1110085E+00
          2   -1    0    0  501    0  0.00000000000E+00  0.00000000000E+00  0.29009389576E+02  0.29009389688E+02  0.25500000000E-02 0.  1.
         -2   -1    0    0    0  501 -0.00000000000E+00 -0.00000000000E+00 -0.56109652007E+03  0.56109652007E+03  0.25500000000E-02 0. -1.
    5000001    1    1    2    0    0  0.16330752043E+02  0.95443814324E+02 -0.33813971055E+03  0.36006066017E+03  0.77000000000E+02 0.  0.
   -5000001    1    1    2    0    0 -0.16330752043E+02 -0.95443814324E+02 -0.19394741995E+03  0.23004524959E+03  0.77000000000E+02 0.  0.
<mgrwt>
<rscale>  0 0.25516322E+03</rscale>
<asrwt>0</asrwt>
<pdfrwt beam="1">  1        2 0.44629834E-02 0.25516322E+03</pdfrwt>
<pdfrwt beam="2">  1       -2 0.86322534E-01 0.25516322E+03</pdfrwt>
<totfact> 0.21871418E+03</totfact>
</mgrwt>
</event>
<event>
 4    1  0.5980424E-004  0.2298008E+03  0.7818608E-02  0.1126780E+00
          2   -1    0    0  501    0  0.00000000000E+00  0.00000000000E+00  0.11598397702E+03  0.11598397705E+03  0.25500000000E-02 0.  1.
         -2   -1    0    0    0  501 -0.00000000000E+00 -0.00000000000E+00 -0.11382698069E+03  0.11382698072E+03  0.25500000000E-02 0. -1.
    5000001    1    1    2    0    0 -0.27822044889E+02  0.65411436565E+02 -0.46044525182E+02  0.11446318410E+03  0.77000000000E+02 0.  0.
   -5000001    1    1    2    0    0  0.27822044889E+02 -0.65411436565E+02  0.48201521513E+02  0.11534777367E+03  0.77000000000E+02 0.  0.
<mgrwt>
<rscale>  0 0.22980083E+03</rscale>
<asrwt>0</asrwt>
<pdfrwt beam="1">  1        2 0.17843689E-01 0.22980083E+03</pdfrwt>
<pdfrwt beam="2">  1       -2 0.17511843E-01 0.22980083E+03</pdfrwt>
<totfact> 0.82007317E+03</totfact>
</mgrwt>
</event>
<event>
 4    1  0.5980424E-004  0.2473766E+03  0.7818608E-02  0.1114974E+00
         -2   -1    0    0    0  501 -0.00000000000E+00  0.00000000000E+00  0.11465075735E+02  0.11465076019E+02  0.25500000000E-02 0. -1.
          2   -1    0    0  501    0  0.00000000000E+00 -0.00000000000E+00 -0.13343819805E+04  0.13343819805E+04  0.25500000000E-02 0.  1.
    5000001    1    1    2    0    0 -0.85051993882E+02 -0.26955359581E+01 -0.91246940190E+03  0.91965782603E+03  0.77000000000E+02 0.  0.
   -5000001    1    1    2    0    0  0.85051993882E+02  0.26955359581E+01 -0.41044750285E+03  0.42618923048E+03  0.77000000000E+02 0.  0.
<mgrwt>
<rscale>  0 0.24737656E+03</rscale>
<asrwt>0</asrwt>
<pdfrwt beam="1">  1        2 0.20528941E+00 0.24737656E+03</pdfrwt>
<pdfrwt beam="2">  1       -2 0.17638589E-02 0.24737656E+03</pdfrwt>
<totfact> 0.15544059E+04</totfact>
</mgrwt>
</event>
<event>
 4    1  0.5980424E-004  0.3455993E+03  0.7818608E-02  0.1064436E+00
         -2   -1    0    0    0  501 -0.00000000000E+00  0.00000000000E+00  0.99200493572E+01  0.99200496849E+01  0.25500000000E-02 0. -1.
          2   -1    0    0  501    0  0.00000000000E+00 -0.00000000000E+00 -0.30100378132E+04  0.30100378132E+04  0.25500000000E-02 0.  1.
    5000001    1    1    2    0    0  0.15336132441E+03  0.99648784017E+01 -0.13457762731E+04  0.13567099070E+04  0.77000000000E+02 0.  0.
   -5000001    1    1    2    0    0 -0.15336132441E+03 -0.99648784017E+01 -0.16543414908E+04  0.16632479559E+04  0.77000000000E+02 0.  0.
<mgrwt>
<rscale>  0 0.34559933E+03</rscale>
<asrwt>0</asrwt>
<pdfrwt beam="1">  1        2 0.46308201E+00 0.34559933E+03</pdfrwt>
<pdfrwt beam="2">  1       -2 0.15261639E-02 0.34559933E+03</pdfrwt>
<totfact> 0.23459050E+03</totfact>
</mgrwt>
</event>
<event>
 4    1  0.5980424E-004  0.2440273E+03  0.7818608E-02  0.1117139E+00
         -2   -1    0    0    0  501 -0.00000000000E+00  0.00000000000E+00  0.62948680085E+02  0.62948680137E+02  0.25500000000E-02 0. -1.
          2   -1    0    0  501    0  0.00000000000E+00 -0.00000000000E+00 -0.23649950568E+03  0.23649950570E+03  0.25500000000E-02 0.  1.
    5000001    1    1    2    0    0  0.38628329977E+02 -0.69805367611E+02 -0.24284401747E+02  0.11350625266E+03  0.77000000000E+02 0.  0.
   -5000001    1    1    2    0    0 -0.38628329977E+02  0.69805367611E+02 -0.14926642385E+03  0.18594193318E+03  0.77000000000E+02 0.  0.
<mgrwt>
<rscale>  0 0.24402731E+03</rscale>
<asrwt>0</asrwt>
<pdfrwt beam="1">  1        2 0.36384539E-01 0.24402731E+03</pdfrwt>
<pdfrwt beam="2">  1       -2 0.96844124E-02 0.24402731E+03</pdfrwt>
<totfact> 0.97418337E+03</totfact>
</mgrwt>
</event>
<event>
 4    1  0.5980424E-004  0.1803272E+03  0.7818608E-02  0.1167487E+00
          2   -1    0    0  501    0  0.00000000000E+00  0.00000000000E+00  0.19111498515E+03  0.19111498517E+03  0.25500000000E-02 0.  1.
         -2   -1    0    0    0  501 -0.00000000000E+00 -0.00000000000E+00 -0.42537103245E+02  0.42537103321E+02  0.25500000000E-02 0. -1.
    5000001    1    1    2    0    0  0.26690526555E+02  0.37837324737E+02  0.84022358436E+02  0.12301546272E+03  0.77000000000E+02 0.  0.
   -5000001    1    1    2    0    0 -0.26690526555E+02 -0.37837324737E+02  0.64555523470E+02  0.11063662577E+03  0.77000000000E+02 0.  0.
<mgrwt>
<rscale>  0 0.18032723E+03</rscale>
<asrwt>0</asrwt>
<pdfrwt beam="1">  1        2 0.29402306E-01 0.18032723E+03</pdfrwt>
<pdfrwt beam="2">  1       -2 0.65441697E-02 0.18032723E+03</pdfrwt>
<totfact> 0.22142620E+04</totfact>
</mgrwt>
</event>
<event>
 4    1  0.5980424E-004  0.3540876E+03  0.7818608E-02  0.1060950E+00
         -2   -1    0    0    0  501 -0.00000000000E+00  0.00000000000E+00  0.31182193438E+02  0.31182193542E+02  0.25500000000E-02 0. -1.
          2   -1    0    0  501    0  0.00000000000E+00 -0.00000000000E+00 -0.10052050945E+04  0.10052050945E+04  0.25500000000E-02 0.  1.
    5000001    1    1    2    0    0 -0.71238795521E+02 -0.13015987321E+03 -0.65765239041E+03  0.67856630125E+03  0.77000000000E+02 0.  0.
   -5000001    1    1    2    0    0  0.71238795521E+02  0.13015987321E+03 -0.31637051065E+03  0.35782098679E+03  0.77000000000E+02 0.  0.
<mgrwt>
<rscale>  0 0.35408756E+03</rscale>
<asrwt>0</asrwt>
<pdfrwt beam="1">  1        2 0.15464691E+00 0.35408756E+03</pdfrwt>
<pdfrwt beam="2">  1       -2 0.47972613E-02 0.35408756E+03</pdfrwt>
<totfact> 0.54586112E+03</totfact>
</mgrwt>
</event>
<event>
 4    1  0.5980424E-004  0.2224529E+03  0.7818608E-02  0.1132067E+00
         -2   -1    0    0    0  501 -0.00000000000E+00  0.00000000000E+00  0.18027352203E+03  0.18027352205E+03  0.25500000000E-02 0. -1.
          2   -1    0    0  501    0  0.00000000000E+00 -0.00000000000E+00 -0.68625261785E+02  0.68625261833E+02  0.25500000000E-02 0.  1.
    5000001    1    1    2    0    0 -0.59307929512E+02  0.16475855516E+02 -0.18112139475E+01  0.98595967534E+02  0.77000000000E+02 0.  0.
   -5000001    1    1    2    0    0  0.59307929512E+02 -0.16475855516E+02  0.11345947419E+03  0.15030281635E+03  0.77000000000E+02 0.  0.
<mgrwt>
<rscale>  0 0.22245285E+03</rscale>
<asrwt>0</asrwt>
<pdfrwt beam="1">  1        2 0.10557733E-01 0.22245285E+03</pdfrwt>
<pdfrwt beam="2">  1       -2 0.27734388E-01 0.22245285E+03</pdfrwt>
<totfact> 0.69173960E+03</totfact>
</mgrwt>
</event>
<event>
 4    1  0.5980424E-004  0.2183030E+03  0.7818608E-02  0.1135155E+00
         -2   -1    0    0    0  501 -0.00000000000E+00  0.00000000000E+00  0.12250394549E+02  0.12250394815E+02  0.25500000000E-02 0. -1.
          2   -1    0    0  501    0  0.00000000000E+00 -0.00000000000E+00 -0.97254395853E+03  0.97254395853E+03  0.25500000000E-02 0.  1.
    5000001    1    1    2    0    0  0.17657106328E+02  0.73781095759E+02 -0.54850557504E+03  0.55905526502E+03  0.77000000000E+02 0.  0.
   -5000001    1    1    2    0    0 -0.17657106328E+02 -0.73781095759E+02 -0.41178798894E+03  0.42573908832E+03  0.77000000000E+02 0.  0.
<mgrwt>
<rscale>  0 0.21830298E+03</rscale>
<asrwt>0</asrwt>
<pdfrwt beam="1">  1        2 0.14962209E+00 0.21830298E+03</pdfrwt>
<pdfrwt beam="2">  1       -2 0.18846769E-02 0.21830298E+03</pdfrwt>
<totfact> 0.22668630E+04</totfact>
</mgrwt>
</event>
<event>
 4    1  0.5980424E-004  0.2734441E+03  0.7818608E-02  0.1099324E+00
          2   -1    0    0  501    0  0.00000000000E+00  0.00000000000E+00  0.18891428962E+02  0.18891429134E+02  0.25500000000E-02 0.  1.
         -2   -1    0    0    0  501 -0.00000000000E+00 -0.00000000000E+00 -0.98949221604E+03  0.98949221604E+03  0.25500000000E-02 0. -1.
    5000001    1    1    2    0    0 -0.98340804968E+02  0.26727500654E+02 -0.66515532965E+03  0.67730782202E+03  0.77000000000E+02 0.  0.
   -5000001    1    1    2    0    0  0.98340804968E+02 -0.26727500654E+02 -0.30544545743E+03  0.33107582315E+03  0.77000000000E+02 0.  0.
<mgrwt>
<rscale>  0 0.27344412E+03</rscale>
<asrwt>0</asrwt>
<pdfrwt beam="1">  1        2 0.29063745E-02 0.27344412E+03</pdfrwt>
<pdfrwt beam="2">  1       -2 0.15222953E+00 0.27344412E+03</pdfrwt>
<totfact> 0.99856099E+02</totfact>
</mgrwt>
</event>
<event>
 4    1  0.5980424E-004  0.1713976E+03  0.7818608E-02  0.1176398E+00
         -2   -1    0    0    0  501 -0.00000000000E+00  0.00000000000E+00  0.41943194462E+01  0.41943202213E+01  0.25500000000E-02 0. -1.
          2   -1    0    0  501    0  0.00000000000E+00 -0.00000000000E+00 -0.17510064693E+04  0.17510064693E+04  0.25500000000E-02 0.  1.
    5000001    1    1    2    0    0  0.39018990889E+01  0.21127658796E+02 -0.11896506848E+04  0.11923335752E+04  0.77000000000E+02 0.  0.
   -5000001    1    1    2    0    0 -0.39018990889E+01 -0.21127658796E+02 -0.55716146513E+03  0.56286721437E+03  0.77000000000E+02 0.  0.
<mgrwt>
<rscale>  0 0.17139756E+03</rscale>
<asrwt>0</asrwt>
<pdfrwt beam="1">  1        2 0.26938503E+00 0.17139756E+03</pdfrwt>
<pdfrwt beam="2">  1       -2 0.64528137E-03 0.17139756E+03</pdfrwt>
<totfact> 0.39302746E+04</totfact>
</mgrwt>
</event>
<event>
 4    1  0.5980424E-004  0.2128261E+03  0.7818608E-02  0.1139347E+00
          2   -1    0    0  501    0  0.00000000000E+00  0.00000000000E+00  0.14080681390E+04  0.14080681390E+04  0.25500000000E-02 0.  1.
         -2   -1    0    0    0  501 -0.00000000000E+00 -0.00000000000E+00 -0.80420377918E+01  0.80420381961E+01  0.25500000000E-02 0. -1.
    5000001    1    1    2    0    0  0.33995640924E+02  0.62409392386E+02  0.57658453448E+03  0.58602846455E+03  0.77000000000E+02 0.  0.
   -5000001    1    1    2    0    0 -0.33995640924E+02 -0.62409392386E+02  0.82344156675E+03  0.83008171267E+03  0.77000000000E+02 0.  0.
<mgrwt>
<rscale>  0 0.21282610E+03</rscale>
<asrwt>0</asrwt>
<pdfrwt beam="1">  1        2 0.21662588E+00 0.21282610E+03</pdfrwt>
<pdfrwt beam="2">  1       -2 0.12372365E-02 0.21282610E+03</pdfrwt>
<totfact> 0.23610162E+04</totfact>
</mgrwt>
</event>
<event>
 4    1  0.5980424E-004  0.1930784E+03  0.7818608E-02  0.1155714E+00
         -2   -1    0    0    0  501 -0.00000000000E+00  0.00000000000E+00  0.56604696101E+01  0.56604701845E+01  0.25500000000E-02 0. -1.
          2   -1    0    0  501    0  0.00000000000E+00 -0.00000000000E+00 -0.16464732912E+04  0.16464732912E+04  0.25500000000E-02 0.  1.
    5000001    1    1    2    0    0  0.35016330912E+02  0.30722388700E+02 -0.11193812066E+04  0.11229930073E+04  0.77000000000E+02 0.  0.
   -5000001    1    1    2    0    0 -0.35016330912E+02 -0.30722388700E+02 -0.52143161496E+03  0.52914075412E+03  0.77000000000E+02 0.  0.
<mgrwt>
<rscale>  0 0.19307835E+03</rscale>
<asrwt>0</asrwt>
<pdfrwt beam="1">  1        2 0.25330320E+00 0.19307835E+03</pdfrwt>
<pdfrwt beam="2">  1       -2 0.87084284E-03 0.19307835E+03</pdfrwt>
<totfact> 0.29181132E+04</totfact>
</mgrwt>
</event>
<event>
 4    1  0.5980424E-004  0.2515647E+03  0.7818608E-02  0.1112320E+00
         -2   -1    0    0    0  501 -0.00000000000E+00  0.00000000000E+00  0.12605848763E+02  0.12605849021E+02  0.25500000000E-02 0. -1.
          2   -1    0    0  501    0  0.00000000000E+00 -0.00000000000E+00 -0.12550684083E+04  0.12550684083E+04  0.25500000000E-02 0.  1.
    5000001    1    1    2    0    0  0.55896007485E+02 -0.34330758072E+01 -0.20703665982E+03  0.22788007410E+03  0.77000000000E+02 0.  0.
   -5000001    1    1    2    0    0 -0.55896007485E+02  0.34330758072E+01 -0.10354258997E+04  0.10397941832E+04  0.77000000000E+02 0.  0.
<mgrwt>
<rscale>  0 0.25156472E+03</rscale>
<asrwt>0</asrwt>
<pdfrwt beam="1">  1        2 0.19308735E+00 0.25156472E+03</pdfrwt>
<pdfrwt beam="2">  1       -2 0.19393624E-02 0.25156472E+03</pdfrwt>
<totfact> 0.14972080E+04</totfact>
</mgrwt>
</event>
<event>
 4    1  0.5980424E-004  0.8273146E+03  0.7818608E-02  0.9521301E-01
          2   -1    0    0  501    0  0.00000000000E+00  0.00000000000E+00  0.17154458705E+04  0.17154458705E+04  0.25500000000E-02 0.  1.
         -2   -1    0    0    0  501 -0.00000000000E+00 -0.00000000000E+00 -0.99748047995E+02  0.99748048028E+02  0.25500000000E-02 0. -1.
    5000001    1    1    2    0    0  0.82033167538E+02 -0.39339485007E+03  0.67448880035E+03  0.78889358626E+03  0.77000000000E+02 0.  0.
   -5000001    1    1    2    0    0 -0.82033167538E+02  0.39339485007E+03  0.94120902219E+03  0.10263003323E+04  0.77000000000E+02 0.  0.
<mgrwt>
<rscale>  0 0.82731464E+03</rscale>
<asrwt>0</asrwt>
<pdfrwt beam="1">  1        2 0.26391477E+00 0.82731464E+03</pdfrwt>
<pdfrwt beam="2">  1       -2 0.15345852E-01 0.82731464E+03</pdfrwt>
<totfact> 0.32789319E+02</totfact>
</mgrwt>
</event>
<event>
 4    1  0.5980424E-004  0.2040225E+03  0.7818608E-02  0.1146389E+00
          2   -1    0    0  501    0  0.00000000000E+00  0.00000000000E+00  0.31526671384E+03  0.31526671385E+03  0.25500000000E-02 0.  1.
         -2   -1    0    0    0  501 -0.00000000000E+00 -0.00000000000E+00 -0.33007908906E+02  0.33007909004E+02  0.25500000000E-02 0. -1.
    5000001    1    1    2    0    0  0.66891139544E+02  0.27823536887E+00  0.14398226767E+03  0.17644941306E+03  0.77000000000E+02 0.  0.
   -5000001    1    1    2    0    0 -0.66891139544E+02 -0.27823536887E+00  0.13827653726E+03  0.17182520980E+03  0.77000000000E+02 0.  0.
<mgrwt>
<rscale>  0 0.20402250E+03</rscale>
<asrwt>0</asrwt>
<pdfrwt beam="1">  1        2 0.48502569E-01 0.20402250E+03</pdfrwt>
<pdfrwt beam="2">  1       -2 0.50781400E-02 0.20402250E+03</pdfrwt>
<totfact> 0.19193071E+04</totfact>
</mgrwt>
</event>
<event>
 4    1  0.5980424E-004  0.2019621E+03  0.7818608E-02  0.1148094E+00
          2   -1    0    0  501    0  0.00000000000E+00  0.00000000000E+00  0.48341927080E+03  0.48341927080E+03  0.25500000000E-02 0.  1.
         -2   -1    0    0    0  501 -0.00000000000E+00 -0.00000000000E+00 -0.21093849782E+02  0.21093849936E+02  0.25500000000E-02 0. -1.
    5000001    1    1    2    0    0 -0.37887570160E+02  0.27794564935E+02  0.11777816786E+03  0.14835330342E+03  0.77000000000E+02 0.  0.
   -5000001    1    1    2    0    0  0.37887570160E+02 -0.27794564935E+02  0.34454725316E+03  0.35615981732E+03  0.77000000000E+02 0.  0.
<mgrwt>
<rscale>  0 0.20196211E+03</rscale>
<asrwt>0</asrwt>
<pdfrwt beam="1">  1        2 0.74372189E-01 0.20196211E+03</pdfrwt>
<pdfrwt beam="2">  1       -2 0.32452079E-02 0.20196211E+03</pdfrwt>
<totfact> 0.23628553E+04</totfact>
</mgrwt>
</event>
<event>
 4    1  0.5980424E-004  0.1915345E+03  0.7818608E-02  0.1157085E+00
         -2   -1    0    0    0  501 -0.00000000000E+00  0.00000000000E+00  0.60913680107E+02  0.60913680160E+02  0.25500000000E-02 0. -1.
          2   -1    0    0  501    0  0.00000000000E+00 -0.00000000000E+00 -0.15056335004E+03  0.15056335006E+03  0.25500000000E-02 0.  1.
    5000001    1    1    2    0    0 -0.56406061452E+02  0.45679676380E+01 -0.37854205379E+02  0.10278351503E+03  0.77000000000E+02 0.  0.
   -5000001    1    1    2    0    0  0.56406061452E+02 -0.45679676380E+01 -0.51795464556E+02  0.10869351519E+03  0.77000000000E+02 0.  0.
<mgrwt>
<rscale>  0 0.19153452E+03</rscale>
<asrwt>0</asrwt>
<pdfrwt beam="1">  1        2 0.23163592E-01 0.19153452E+03</pdfrwt>
<pdfrwt beam="2">  1       -2 0.93713354E-02 0.19153452E+03</pdfrwt>
<totfact> 0.16592746E+04</totfact>
</mgrwt>
</event>
<event>
 4    1  0.5980424E-004  0.3388231E+03  0.7818608E-02  0.1067298E+00
         -2   -1    0    0    0  501 -0.00000000000E+00  0.00000000000E+00  0.11881435490E+04  0.11881435490E+04  0.25500000000E-02 0. -1.
          2   -1    0    0  501    0  0.00000000000E+00 -0.00000000000E+00 -0.24155562199E+02  0.24155562333E+02  0.25500000000E-02 0.  1.
    5000001    1    1    2    0    0 -0.60972854463E+02  0.13686074343E+03  0.64627045957E+03  0.66786455138E+03  0.77000000000E+02 0.  0.
   -5000001    1    1    2    0    0  0.60972854463E+02 -0.13686074343E+03  0.51771752720E+03  0.54443455993E+03  0.77000000000E+02 0.  0.
<mgrwt>
<rscale>  0 0.33882311E+03</rscale>
<asrwt>0</asrwt>
<pdfrwt beam="1">  1        2 0.37162403E-02 0.33882311E+03</pdfrwt>
<pdfrwt beam="2">  1       -2 0.18279132E+00 0.33882311E+03</pdfrwt>
<totfact> 0.43761187E+02</totfact>
</mgrwt>
</event>
<event>
 4    1  0.5980424E-004  0.2252888E+03  0.7818608E-02  0.1130000E+00
          2   -1    0    0  501    0  0.00000000000E+00  0.00000000000E+00  0.63516418330E+02  0.63516418381E+02  0.25500000000E-02 0.  1.
         -2   -1    0    0    0  501 -0.00000000000E+00 -0.00000000000E+00 -0.19977143921E+03  0.19977143923E+03  0.25500000000E-02 0. -1.
    5000001    1    1    2    0    0 -0.16366321493E+02 -0.50932891512E+02 -0.14108974856E+03  0.16940287207E+03  0.77000000000E+02 0.  0.
   -5000001    1    1    2    0    0  0.16366321493E+02  0.50932891512E+02  0.48347276842E+01  0.93884985534E+02  0.77000000000E+02 0.  0.
<mgrwt>
<rscale>  0 0.22528885E+03</rscale>
<asrwt>0</asrwt>
<pdfrwt beam="1">  1        2 0.97717568E-02 0.22528885E+03</pdfrwt>
<pdfrwt beam="2">  1       -2 0.30734067E-01 0.22528885E+03</pdfrwt>
<totfact> 0.63291239E+03</totfact>
</mgrwt>
</event>
<event>
 4    1  0.5980424E-004  0.3874394E+03  0.7818608E-02  0.1048218E+00
         -2   -1    0    0    0  501 -0.00000000000E+00  0.00000000000E+00  0.13792137058E+04  0.13792137058E+04  0.25500000000E-02 0.  1.
          2   -1    0    0  501    0  0.00000000000E+00 -0.00000000000E+00 -0.27209210818E+02  0.27209210937E+02  0.25500000000E-02 0. -1.
    5000001    1    1    2    0    0 -0.14845335768E+03  0.53936463814E+02  0.37996366766E+03  0.41862743613E+03  0.77000000000E+02 0.  0.
   -5000001    1    1    2    0    0  0.14845335768E+03 -0.53936463814E+02  0.97204082730E+03  0.98779548059E+03  0.77000000000E+02 0.  0.
<mgrwt>
<rscale>  0 0.38743937E+03</rscale>
<asrwt>0</asrwt>
<pdfrwt beam="1">  1        2 0.41860341E-02 0.38743937E+03</pdfrwt>
<pdfrwt beam="2">  1       -2 0.21218664E+00 0.38743937E+03</pdfrwt>
<totfact> 0.24093213E+02</totfact>
</mgrwt>
</event>
<event>
 4    1  0.5980424E-004  0.2771566E+03  0.7818608E-02  0.1097252E+00
          2   -1    0    0  501    0  0.00000000000E+00  0.00000000000E+00  0.57353466009E+02  0.57353466065E+02  0.25500000000E-02 0.  1.
         -2   -1    0    0    0  501 -0.00000000000E+00 -0.00000000000E+00 -0.33483486484E+03  0.33483486485E+03  0.25500000000E-02 0. -1.
    5000001    1    1    2    0    0 -0.60806497089E+02 -0.74402973511E+02 -0.22870121610E+03  0.25974310155E+03  0.77000000000E+02 0.  0.
   -5000001    1    1    2    0    0  0.60806497089E+02  0.74402973511E+02 -0.48780182734E+02  0.13244522937E+03  0.77000000000E+02 0.  0.
<mgrwt>
<rscale>  0 0.27715656E+03</rscale>
<asrwt>0</asrwt>
<pdfrwt beam="1">  1        2 0.88236104E-02 0.27715656E+03</pdfrwt>
<pdfrwt beam="2">  1       -2 0.51513055E-01 0.27715656E+03</pdfrwt>
<totfact> 0.27060095E+03</totfact>
</mgrwt>
</event>
<event>
 4    1  0.5980424E-004  0.2157869E+03  0.7818608E-02  0.1137064E+00
          2   -1    0    0  501    0  0.00000000000E+00  0.00000000000E+00  0.15425848577E+03  0.15425848579E+03  0.25500000000E-02 0.  1.
         -2   -1    0    0    0  501 -0.00000000000E+00 -0.00000000000E+00 -0.75464238834E+02  0.75464238877E+02  0.25500000000E-02 0. -1.
    5000001    1    1    2    0    0 -0.60629860981E+02  0.43476346531E+02  0.26541385434E+02  0.11045188043E+03  0.77000000000E+02 0.  0.
   -5000001    1    1    2    0    0  0.60629860981E+02 -0.43476346531E+02  0.52252861504E+02  0.11927084424E+03  0.77000000000E+02 0.  0.
<mgrwt>
<rscale>  0 0.21578692E+03</rscale>
<asrwt>0</asrwt>
<pdfrwt beam="1">  1        2 0.23732075E-01 0.21578692E+03</pdfrwt>
<pdfrwt beam="2">  1       -2 0.11609883E-01 0.21578692E+03</pdfrwt>
<totfact> 0.11585668E+04</totfact>
</mgrwt>
</event>
<event>
 4    1  0.5980424E-004  0.2694134E+03  0.7818608E-02  0.1101616E+00
         -2   -1    0    0    0  501 -0.00000000000E+00  0.00000000000E+00  0.87259428575E+03  0.87259428575E+03  0.25500000000E-02 0. -1.
          2   -1    0    0  501    0  0.00000000000E+00 -0.00000000000E+00 -0.20795346836E+02  0.20795346992E+02  0.25500000000E-02 0.  1.
    5000001    1    1    2    0    0  0.34464254940E+02 -0.35511781022E+02  0.98162732645E+02  0.13421547429E+03  0.77000000000E+02 0.  0.
   -5000001    1    1    2    0    0 -0.34464254940E+02  0.35511781022E+02  0.75363620627E+03  0.75917415845E+03  0.77000000000E+02 0.  0.
<mgrwt>
<rscale>  0 0.26941344E+03</rscale>
<asrwt>0</asrwt>
<pdfrwt beam="1">  1        2 0.31992847E-02 0.26941344E+03</pdfrwt>
<pdfrwt beam="2">  1       -2 0.13424525E+00 0.26941344E+03</pdfrwt>
<totfact> 0.12067347E+03</totfact>
</mgrwt>
</event>
<event>
 4    1  0.5980424E-004  0.1956983E+03  0.7818608E-02  0.1153420E+00
          2   -1    0    0  501    0  0.00000000000E+00  0.00000000000E+00  0.74360402549E+03  0.74360402549E+03  0.25500000000E-02 0.  1.
         -2   -1    0    0    0  501 -0.00000000000E+00 -0.00000000000E+00 -0.12875741177E+02  0.12875741429E+02  0.25500000000E-02 0. -1.
    5000001    1    1    2    0    0  0.43166882156E+02  0.13918202564E+02  0.21130609339E+03  0.22942615627E+03  0.77000000000E+02 0.  0.
   -5000001    1    1    2    0    0 -0.43166882156E+02 -0.13918202564E+02  0.51942219093E+03  0.52705361066E+03  0.77000000000E+02 0.  0.
<mgrwt>
<rscale>  0 0.19569827E+03</rscale>
<asrwt>0</asrwt>
<pdfrwt beam="1">  1        2 0.11440064E+00 0.19569827E+03</pdfrwt>
<pdfrwt beam="2">  1       -2 0.19808829E-02 0.19569827E+03</pdfrwt>
<totfact> 0.29642226E+04</totfact>
</mgrwt>
</event>
<event>
 4    1  0.5980424E-004  0.1849103E+03  0.7818608E-02  0.1163134E+00
         -2   -1    0    0    0  501 -0.00000000000E+00  0.00000000000E+00  0.39787722869E+01  0.39787731040E+01  0.25500000000E-02 0. -1.
          2   -1    0    0  501    0  0.00000000000E+00 -0.00000000000E+00 -0.21483908530E+04  0.21483908530E+04  0.25500000000E-02 0.  1.
    5000001    1    1    2    0    0  0.43227611401E+02  0.14932895783E+02 -0.80490450125E+03  0.80987151691E+03  0.77000000000E+02 0.  0.
   -5000001    1    1    2    0    0 -0.43227611401E+02 -0.14932895783E+02 -0.13395075795E+04  0.13424981092E+04  0.77000000000E+02 0.  0.
<mgrwt>
<rscale>  0 0.18491034E+03</rscale>
<asrwt>0</asrwt>
<pdfrwt beam="1">  1        2 0.33052074E+00 0.18491034E+03</pdfrwt>
<pdfrwt beam="2">  1       -2 0.61212059E-03 0.18491034E+03</pdfrwt>
<totfact> 0.26496807E+04</totfact>
</mgrwt>
</event>
<event>
 4    1  0.5980424E-004  0.3299879E+03  0.7818608E-02  0.1071142E+00
         -2   -1    0    0    0  501 -0.00000000000E+00  0.00000000000E+00  0.32849264258E+02  0.32849264357E+02  0.25500000000E-02 0. -1.
          2   -1    0    0  501    0  0.00000000000E+00 -0.00000000000E+00 -0.82872480470E+03  0.82872480470E+03  0.25500000000E-02 0.  1.
    5000001    1    1    2    0    0  0.10181359929E+02  0.98715714482E+02 -0.67726477358E+03  0.68881421727E+03  0.77000000000E+02 0.  0.
   -5000001    1    1    2    0    0 -0.10181359929E+02 -0.98715714482E+02 -0.11861076686E+03  0.17275985179E+03  0.77000000000E+02 0.  0.
<mgrwt>
<rscale>  0 0.32998788E+03</rscale>
<asrwt>0</asrwt>
<pdfrwt beam="1">  1        2 0.12749611E+00 0.32998788E+03</pdfrwt>
<pdfrwt beam="2">  1       -2 0.50537336E-02 0.32998788E+03</pdfrwt>
<totfact> 0.65492921E+03</totfact>
</mgrwt>
</event>
<event>
 4    1  0.5980424E-004  0.3074260E+03  0.7818608E-02  0.1081586E+00
         -2   -1    0    0    0  501 -0.00000000000E+00  0.00000000000E+00  0.14287135444E+02  0.14287135672E+02  0.25500000000E-02 0. -1.
          2   -1    0    0  501    0  0.00000000000E+00 -0.00000000000E+00 -0.16537733868E+04  0.16537733868E+04  0.25500000000E-02 0.  1.
    5000001    1    1    2    0    0  0.60914601792E+02 -0.10921013637E+03 -0.10660835664E+04  0.10761508320E+04  0.77000000000E+02 0.  0.
   -5000001    1    1    2    0    0 -0.60914601792E+02  0.10921013637E+03 -0.57340268491E+03  0.59190969046E+03  0.77000000000E+02 0.  0.
<mgrwt>
<rscale>  0 0.30742599E+03</rscale>
<asrwt>0</asrwt>
<pdfrwt beam="1">  1        2 0.25442652E+00 0.30742599E+03</pdfrwt>
<pdfrwt beam="2">  1       -2 0.21980222E-02 0.30742599E+03</pdfrwt>
<totfact> 0.76121399E+03</totfact>
</mgrwt>
</event>
<event>
 4    1  0.5980424E-004  0.1897595E+03  0.7818608E-02  0.1158678E+00
         -2   -1    0    0    0  501 -0.00000000000E+00  0.00000000000E+00  0.28806138863E+01  0.28806150149E+01  0.25500000000E-02 0. -1.
          2   -1    0    0  501    0  0.00000000000E+00 -0.00000000000E+00 -0.31250857341E+04  0.31250857341E+04  0.25500000000E-02 0.  1.
    5000001    1    1    2    0    0 -0.52878612669E+02  0.10852490188E+02 -0.17691146558E+04  0.17716121442E+04  0.77000000000E+02 0.  0.
   -5000001    1    1    2    0    0  0.52878612669E+02 -0.10852490188E+02 -0.13530904644E+04  0.13563542048E+04  0.77000000000E+02 0.  0.
<mgrwt>
<rscale>  0 0.18975950E+03</rscale>
<asrwt>0</asrwt>
<pdfrwt beam="1">  1        2 0.48077971E+00 0.18975950E+03</pdfrwt>
<pdfrwt beam="2">  1       -2 0.44317395E-03 0.18975950E+03</pdfrwt>
<totfact> 0.12089734E+04</totfact>
</mgrwt>
</event>
<event>
 4    1  0.5980424E-004  0.1934898E+03  0.7818608E-02  0.1155351E+00
         -2   -1    0    0    0  501 -0.00000000000E+00  0.00000000000E+00  0.37262443327E+02  0.37262443414E+02  0.25500000000E-02 0. -1.
          2   -1    0    0  501    0  0.00000000000E+00 -0.00000000000E+00 -0.25117980642E+03  0.25117980643E+03  0.25500000000E-02 0.  1.
    5000001    1    1    2    0    0 -0.22423454538E+02  0.51322239398E+02 -0.13251034450E+03  0.16317099917E+03  0.77000000000E+02 0.  0.
   -5000001    1    1    2    0    0  0.22423454538E+02 -0.51322239398E+02 -0.81407018594E+02  0.12527125068E+03  0.77000000000E+02 0.  0.
<mgrwt>
<rscale>  0 0.19348978E+03</rscale>
<asrwt>0</asrwt>
<pdfrwt beam="1">  1        2 0.38643046E-01 0.19348978E+03</pdfrwt>
<pdfrwt beam="2">  1       -2 0.57326838E-02 0.19348978E+03</pdfrwt>
<totfact> 0.20283600E+04</totfact>
</mgrwt>
</event>
<event>
 4    1  0.5980424E-004  0.2143031E+03  0.7818608E-02  0.1138203E+00
          2   -1    0    0  501    0  0.00000000000E+00  0.00000000000E+00  0.85007871645E+03  0.85007871646E+03  0.25500000000E-02 0.  1.
         -2   -1    0    0    0  501 -0.00000000000E+00 -0.00000000000E+00 -0.13506337205E+02  0.13506337446E+02  0.25500000000E-02 0. -1.
    5000001    1    1    2    0    0  0.53880897888E+02 -0.48302985793E+02  0.48993400482E+03  0.50119922054E+03  0.77000000000E+02 0.  0.
   -5000001    1    1    2    0    0 -0.53880897888E+02  0.48302985793E+02  0.34663837443E+03  0.36238583336E+03  0.77000000000E+02 0.  0.
<mgrwt>
<rscale>  0 0.21430306E+03</rscale>
<asrwt>0</asrwt>
<pdfrwt beam="1">  1        2 0.13078138E+00 0.21430306E+03</pdfrwt>
<pdfrwt beam="2">  1       -2 0.20778975E-02 0.21430306E+03</pdfrwt>
<totfact> 0.23494598E+04</totfact>
</mgrwt>
</event>
<event>
 4    1  0.5980424E-004  0.4801166E+03  0.7818608E-02  0.1019103E+00
         -2   -1    0    0    0  501 -0.00000000000E+00  0.00000000000E+00  0.41283079896E+02  0.41283079975E+02  0.25500000000E-02 0. -1.
          2   -1    0    0  501    0  0.00000000000E+00 -0.00000000000E+00 -0.13959229051E+04  0.13959229051E+04  0.25500000000E-02 0.  1.
    5000001    1    1    2    0    0  0.21674841655E+03 -0.16763790981E+01 -0.88289640737E+03  0.91236930707E+03  0.77000000000E+02 0.  0.
   -5000001    1    1    2    0    0 -0.21674841655E+03  0.16763790981E+01 -0.47174341784E+03  0.52483667803E+03  0.77000000000E+02 0.  0.
<mgrwt>
<rscale>  0 0.48011664E+03</rscale>
<asrwt>0</asrwt>
<pdfrwt beam="1">  1        2 0.21475733E+00 0.48011664E+03</pdfrwt>
<pdfrwt beam="2">  1       -2 0.63512441E-02 0.48011664E+03</pdfrwt>
<totfact> 0.20980669E+03</totfact>
</mgrwt>
</event>
<event>
 4    1  0.5980424E-004  0.2665775E+03  0.7818608E-02  0.1103255E+00
         -2   -1    0    0    0  501 -0.00000000000E+00  0.00000000000E+00  0.31555253805E+03  0.31555253806E+03  0.25500000000E-02 0. -1.
          2   -1    0    0  501    0  0.00000000000E+00 -0.00000000000E+00 -0.56300896448E+02  0.56300896506E+02  0.25500000000E-02 0.  1.
    5000001    1    1    2    0    0 -0.40910485266E+02 -0.64418505484E+02  0.21454729422E+02  0.11051116264E+03  0.77000000000E+02 0.  0.
   -5000001    1    1    2    0    0  0.40910485266E+02  0.64418505484E+02  0.23779691218E+03  0.26134227193E+03  0.77000000000E+02 0.  0.
<mgrwt>
<rscale>  0 0.26657750E+03</rscale>
<asrwt>0</asrwt>
<pdfrwt beam="1">  1        2 0.86616764E-02 0.26657750E+03</pdfrwt>
<pdfrwt beam="2">  1       -2 0.48546544E-01 0.26657750E+03</pdfrwt>
<totfact> 0.31140721E+03</totfact>
</mgrwt>
</event>
<event>
 4    1  0.5980424E-004  0.3466179E+03  0.7818608E-02  0.1064012E+00
         -2   -1    0    0    0  501 -0.00000000000E+00  0.00000000000E+00  0.97631171824E+01  0.97631175154E+01  0.25500000000E-02 0. -1.
          2   -1    0    0  501    0  0.00000000000E+00 -0.00000000000E+00 -0.30764758752E+04  0.30764758752E+04  0.25500000000E-02 0.  1.
    5000001    1    1    2    0    0  0.10244680806E+03 -0.10720485874E+03 -0.11235111170E+04  0.11358672723E+04  0.77000000000E+02 0.  0.
   -5000001    1    1    2    0    0 -0.10244680806E+03  0.10720485874E+03 -0.19432016410E+04  0.19503717205E+04  0.77000000000E+02 0.  0.
<mgrwt>
<rscale>  0 0.34661792E+03</rscale>
<asrwt>0</asrwt>
<pdfrwt beam="1">  1        2 0.47330321E+00 0.34661792E+03</pdfrwt>
<pdfrwt beam="2">  1       -2 0.15020205E-02 0.34661792E+03</pdfrwt>
<totfact> 0.21899875E+03</totfact>
</mgrwt>
</event>
<event>
 4    1  0.5980424E-004  0.2130657E+03  0.7818608E-02  0.1139161E+00
          2   -1    0    0  501    0  0.00000000000E+00  0.00000000000E+00  0.25825871655E+03  0.25825871656E+03  0.25500000000E-02 0.  1.
         -2   -1    0    0    0  501 -0.00000000000E+00 -0.00000000000E+00 -0.43945283282E+02  0.43945283356E+02  0.25500000000E-02 0. -1.
    5000001    1    1    2    0    0  0.38814750252E+02 -0.59875754933E+02  0.81447136142E+02  0.13286958588E+03  0.77000000000E+02 0.  0.
   -5000001    1    1    2    0    0 -0.38814750252E+02  0.59875754933E+02  0.13286629713E+03  0.16933441404E+03  0.77000000000E+02 0.  0.
<mgrwt>
<rscale>  0 0.21306574E+03</rscale>
<asrwt>0</asrwt>
<pdfrwt beam="1">  1        2 0.39732110E-01 0.21306574E+03</pdfrwt>
<pdfrwt beam="2">  1       -2 0.67608129E-02 0.21306574E+03</pdfrwt>
<totfact> 0.15398763E+04</totfact>
</mgrwt>
</event>
<event>
 4    1  0.5980424E-004  0.1808499E+03  0.7818608E-02  0.1166983E+00
         -2   -1    0    0    0  501 -0.00000000000E+00  0.00000000000E+00  0.47348624081E+01  0.47348630948E+01  0.25500000000E-02 0. -1.
          2   -1    0    0  501    0  0.00000000000E+00 -0.00000000000E+00 -0.17269080279E+04  0.17269080279E+04  0.25500000000E-02 0.  1.
    5000001    1    1    2    0    0 -0.17893399571E+02  0.39115963032E+02 -0.67019976999E+03  0.67597852334E+03  0.77000000000E+02 0.  0.
   -5000001    1    1    2    0    0  0.17893399571E+02 -0.39115963032E+02 -0.10519733955E+04  0.10556643677E+04  0.77000000000E+02 0.  0.
<mgrwt>
<rscale>  0 0.18084991E+03</rscale>
<asrwt>0</asrwt>
<pdfrwt beam="1">  1        2 0.26567766E+00 0.18084991E+03</pdfrwt>
<pdfrwt beam="2">  1       -2 0.72844180E-03 0.18084991E+03</pdfrwt>
<totfact> 0.34119846E+04</totfact>
</mgrwt>
</event>
<event>
 4    1  0.5980424E-004  0.2138157E+03  0.7818608E-02  0.1138579E+00
         -2   -1    0    0    0  501 -0.00000000000E+00  0.00000000000E+00  0.34261189644E+02  0.34261189739E+02  0.25500000000E-02 0. -1.
          2   -1    0    0  501    0  0.00000000000E+00 -0.00000000000E+00 -0.33359301517E+03  0.33359301518E+03  0.25500000000E-02 0.  1.
    5000001    1    1    2    0    0  0.54258697290E+02  0.10065170936E+02 -0.64422665431E+02  0.11456261920E+03  0.77000000000E+02 0.  0.
   -5000001    1    1    2    0    0 -0.54258697290E+02 -0.10065170936E+02 -0.23490916010E+03  0.25329158572E+03  0.77000000000E+02 0.  0.
<mgrwt>
<rscale>  0 0.21381575E+03</rscale>
<asrwt>0</asrwt>
<pdfrwt beam="1">  1        2 0.51322000E-01 0.21381575E+03</pdfrwt>
<pdfrwt beam="2">  1       -2 0.52709525E-02 0.21381575E+03</pdfrwt>
<totfact> 0.17128976E+04</totfact>
</mgrwt>
</event>
<event>
 4    1  0.5980424E-004  0.4095915E+03  0.7818608E-02  0.1040508E+00
          2   -1    0    0  501    0  0.00000000000E+00  0.00000000000E+00  0.30308785098E+04  0.30308785098E+04  0.25500000000E-02 0.  1.
         -2   -1    0    0    0  501 -0.00000000000E+00 -0.00000000000E+00 -0.13837998149E+02  0.13837998384E+02  0.25500000000E-02 0. -1.
    5000001    1    1    2    0    0  0.27595053094E+02 -0.18110008013E+03  0.18767295972E+04  0.18872206302E+04  0.77000000000E+02 0.  0.
   -5000001    1    1    2    0    0 -0.27595053094E+02  0.18110008013E+03  0.11403109144E+04  0.11574958780E+04  0.77000000000E+02 0.  0.
<mgrwt>
<rscale>  0 0.40959146E+03</rscale>
<asrwt>0</asrwt>
<pdfrwt beam="1">  1        2 0.46628913E+00 0.40959146E+03</pdfrwt>
<pdfrwt beam="2">  1       -2 0.21289222E-02 0.40959146E+03</pdfrwt>
<totfact> 0.13820574E+03</totfact>
</mgrwt>
</event>
<event>
 4    1  0.5980424E-004  0.2901951E+03  0.7818608E-02  0.1090247E+00
          2   -1    0    0  501    0  0.00000000000E+00  0.00000000000E+00  0.71933434628E+03  0.71933434628E+03  0.25500000000E-02 0.  1.
         -2   -1    0    0    0  501 -0.00000000000E+00 -0.00000000000E+00 -0.29267741637E+02  0.29267741748E+02  0.25500000000E-02 0. -1.
    5000001    1    1    2    0    0  0.84341159276E+02  0.70492420524E+02  0.48730474886E+03  0.50544785167E+03  0.77000000000E+02 0.  0.
   -5000001    1    1    2    0    0 -0.84341159276E+02 -0.70492420524E+02  0.20276185578E+03  0.24315423636E+03  0.77000000000E+02 0.  0.
<mgrwt>
<rscale>  0 0.29019505E+03</rscale>
<asrwt>0</asrwt>
<pdfrwt beam="1">  1        2 0.11066683E+00 0.29019505E+03</pdfrwt>
<pdfrwt beam="2">  1       -2 0.45027290E-02 0.29019505E+03</pdfrwt>
<totfact> 0.93029323E+03</totfact>
</mgrwt>
</event>
<event>
 4    1  0.5980424E-004  0.5115765E+03  0.7818608E-02  0.1010801E+00
         -2   -1    0    0    0  501 -0.00000000000E+00  0.00000000000E+00  0.11036470629E+04  0.11036470629E+04  0.25500000000E-02 0. -1.
          2   -1    0    0  501    0  0.00000000000E+00 -0.00000000000E+00 -0.59283119317E+02  0.59283119372E+02  0.25500000000E-02 0.  1.
    5000001    1    1    2    0    0 -0.18503730283E+03  0.60326652001E+02  0.18792828459E+03  0.28129015008E+03  0.77000000000E+02 0.  0.
   -5000001    1    1    2    0    0  0.18503730283E+03 -0.60326652001E+02  0.85643565903E+03  0.88164003223E+03  0.77000000000E+02 0.  0.
<mgrwt>
<rscale>  0 0.51157655E+03</rscale>
<asrwt>0</asrwt>
<pdfrwt beam="1">  1        2 0.91204800E-02 0.51157655E+03</pdfrwt>
<pdfrwt beam="2">  1       -2 0.16979185E+00 0.51157655E+03</pdfrwt>
<totfact> 0.16335007E+02</totfact>
</mgrwt>
</event>
<event>
 4    1  0.5980424E-004  0.3001703E+03  0.7818608E-02  0.1085156E+00
          2   -1    0    0  501    0  0.00000000000E+00  0.00000000000E+00  0.70772310687E+03  0.70772310688E+03  0.25500000000E-02 0.  1.
         -2   -1    0    0    0  501 -0.00000000000E+00 -0.00000000000E+00 -0.31828202049E+02  0.31828202152E+02  0.25500000000E-02 0. -1.
    5000001    1    1    2    0    0 -0.68781222737E+02  0.85633187504E+02  0.17207399774E+03  0.21817965098E+03  0.77000000000E+02 0.  0.
   -5000001    1    1    2    0    0  0.68781222737E+02 -0.85633187504E+02  0.50382090708E+03  0.52137165805E+03  0.77000000000E+02 0.  0.
<mgrwt>
<rscale>  0 0.30017031E+03</rscale>
<asrwt>0</asrwt>
<pdfrwt beam="1">  1        2 0.10888047E+00 0.30017031E+03</pdfrwt>
<pdfrwt beam="2">  1       -2 0.48966469E-02 0.30017031E+03</pdfrwt>
<totfact> 0.83641552E+03</totfact>
</mgrwt>
</event>
<event>
 4    1  0.5980424E-004  0.3503263E+03  0.7818608E-02  0.1062481E+00
          2   -1    0    0  501    0  0.00000000000E+00  0.00000000000E+00  0.51964473346E+03  0.51964473347E+03  0.25500000000E-02 0.  1.
         -2   -1    0    0    0  501 -0.00000000000E+00 -0.00000000000E+00 -0.59044417527E+02  0.59044417582E+02  0.25500000000E-02 0. -1.
    5000001    1    1    2    0    0  0.34733770194E+02 -0.14932665192E+03  0.28866094770E+03  0.33579610851E+03  0.77000000000E+02 0.  0.
   -5000001    1    1    2    0    0 -0.34733770194E+02  0.14932665192E+03  0.17193936823E+03  0.24289304254E+03  0.77000000000E+02 0.  0.
<mgrwt>
<rscale>  0 0.35032625E+03</rscale>
<asrwt>0</asrwt>
<pdfrwt beam="1">  1        2 0.79945344E-01 0.35032625E+03</pdfrwt>
<pdfrwt beam="2">  1       -2 0.90837565E-02 0.35032625E+03</pdfrwt>
<totfact> 0.46263874E+03</totfact>
</mgrwt>
</event>
<event>
 4    1  0.5980424E-004  0.1655760E+03  0.7818608E-02  0.1182541E+00
         -2   -1    0    0    0  501 -0.00000000000E+00  0.00000000000E+00  0.26782492473E+02  0.26782492594E+02  0.25500000000E-02 0. -1.
          2   -1    0    0  501    0  0.00000000000E+00 -0.00000000000E+00 -0.25590806515E+03  0.25590806517E+03  0.25500000000E-02 0.  1.
    5000001    1    1    2    0    0  0.70677802299E+01 -0.29241333353E+02 -0.12216882570E+03  0.14751010497E+03  0.77000000000E+02 0.  0.
   -5000001    1    1    2    0    0 -0.70677802299E+01  0.29241333353E+02 -0.10695674698E+03  0.13518045279E+03  0.77000000000E+02 0.  0.
<mgrwt>
<rscale>  0 0.16557604E+03</rscale>
<asrwt>0</asrwt>
<pdfrwt beam="1">  1        2 0.39370470E-01 0.16557604E+03</pdfrwt>
<pdfrwt beam="2">  1       -2 0.41203836E-02 0.16557604E+03</pdfrwt>
<totfact> 0.32269296E+04</totfact>
</mgrwt>
</event>
<event>
 4    1  0.5980424E-004  0.2595278E+03  0.7818608E-02  0.1107427E+00
          2   -1    0    0  501    0  0.00000000000E+00  0.00000000000E+00  0.20691939030E+03  0.20691939031E+03  0.25500000000E-02 0.  1.
         -2   -1    0    0    0  501 -0.00000000000E+00 -0.00000000000E+00 -0.81377933426E+02  0.81377933466E+02  0.25500000000E-02 0. -1.
    5000001    1    1    2    0    0 -0.82161561242E+02 -0.34383560274E+01 -0.87679446252E+01  0.11299655433E+03  0.77000000000E+02 0.  0.
   -5000001    1    1    2    0    0  0.82161561242E+02  0.34383560274E+01  0.13430940150E+03  0.17530076944E+03  0.77000000000E+02 0.  0.
<mgrwt>
<rscale>  0 0.25952782E+03</rscale>
<asrwt>0</asrwt>
<pdfrwt beam="1">  1        2 0.31833752E-01 0.25952782E+03</pdfrwt>
<pdfrwt beam="2">  1       -2 0.12519682E-01 0.25952782E+03</pdfrwt>
<totfact> 0.74884155E+03</totfact>
</mgrwt>
</event>
<event>
 4    1  0.5980424E-004  0.2011231E+03  0.7818608E-02  0.1148795E+00
         -2   -1    0    0    0  501 -0.00000000000E+00  0.00000000000E+00  0.83291177177E+02  0.83291177216E+02  0.25500000000E-02 0. -1.
          2   -1    0    0  501    0  0.00000000000E+00 -0.00000000000E+00 -0.12141292666E+03  0.12141292669E+03  0.25500000000E-02 0.  1.
    5000001    1    1    2    0    0 -0.56600914185E+02  0.80258589684E+01  0.11735888637E+02  0.96616815207E+02  0.77000000000E+02 0.  0.
   -5000001    1    1    2    0    0  0.56600914185E+02 -0.80258589684E+01 -0.49857638121E+02  0.10808728870E+03  0.77000000000E+02 0.  0.
<mgrwt>
<rscale>  0 0.20112310E+03</rscale>
<asrwt>0</asrwt>
<pdfrwt beam="1">  1        2 0.18678912E-01 0.20112310E+03</pdfrwt>
<pdfrwt beam="2">  1       -2 0.12814027E-01 0.20112310E+03</pdfrwt>
<totfact> 0.12905262E+04</totfact>
</mgrwt>
</event>
<event>
 4    1  0.5980424E-004  0.6119850E+03  0.7818608E-02  0.9880848E-01
          2   -1    0    0  501    0  0.00000000000E+00  0.00000000000E+00  0.21371404601E+04  0.21371404601E+04  0.25500000000E-02 0.  1.
         -2   -1    0    0    0  501 -0.00000000000E+00 -0.00000000000E+00 -0.43811534026E+02  0.43811534100E+02  0.25500000000E-02 0. -1.
    5000001    1    1    2    0    0 -0.17508252603E+03 -0.12195961952E+02  0.18967460345E+04  0.19064042467E+04  0.77000000000E+02 0.  0.
   -5000001    1    1    2    0    0  0.17508252603E+03  0.12195961952E+02  0.19658289162E+03  0.27454774755E+03  0.77000000000E+02 0.  0.
<mgrwt>
<rscale>  0 0.61198497E+03</rscale>
<asrwt>0</asrwt>
<pdfrwt beam="1">  1        2 0.32879084E+00 0.61198497E+03</pdfrwt>
<pdfrwt beam="2">  1       -2 0.67402359E-02 0.61198497E+03</pdfrwt>
<totfact> 0.75073338E+02</totfact>
</mgrwt>
</event>
<event>
 4    1  0.5980424E-004  0.1955715E+03  0.7818608E-02  0.1153530E+00
         -2   -1    0    0    0  501 -0.00000000000E+00  0.00000000000E+00  0.21630307140E+02  0.21630307290E+02  0.25500000000E-02 0. -1.
          2   -1    0    0  501    0  0.00000000000E+00 -0.00000000000E+00 -0.44206743460E+03  0.44206743461E+03  0.25500000000E-02 0.  1.
    5000001    1    1    2    0    0  0.37988818079E+01  0.32616863131E+02 -0.33005936447E+03  0.34050914135E+03  0.77000000000E+02 0.  0.
   -5000001    1    1    2    0    0 -0.37988818079E+01 -0.32616863131E+02 -0.90377762991E+02  0.12318860056E+03  0.77000000000E+02 0.  0.
<mgrwt>
<rscale>  0 0.19557152E+03</rscale>
<asrwt>0</asrwt>
<pdfrwt beam="1">  1        2 0.68010368E-01 0.19557152E+03</pdfrwt>
<pdfrwt beam="2">  1       -2 0.33277399E-02 0.19557152E+03</pdfrwt>
<totfact> 0.25050608E+04</totfact>
</mgrwt>
</event>
<event>
 4    1  0.5980424E-004  0.3178944E+03  0.7818608E-02  0.1076622E+00
         -2   -1    0    0    0  501 -0.00000000000E+00  0.00000000000E+00  0.34144567733E+03  0.34144567734E+03  0.25500000000E-02 0. -1.
          2   -1    0    0  501    0  0.00000000000E+00 -0.00000000000E+00 -0.73991911544E+02  0.73991911588E+02  0.25500000000E-02 0.  1.
    5000001    1    1    2    0    0 -0.12417699744E+03  0.47855546923E+02  0.81044183053E+02  0.17380230053E+03  0.77000000000E+02 0.  0.
   -5000001    1    1    2    0    0  0.12417699744E+03 -0.47855546923E+02  0.18640958273E+03  0.24163528839E+03  0.77000000000E+02 0.  0.
<mgrwt>
<rscale>  0 0.31789444E+03</rscale>
<asrwt>0</asrwt>
<pdfrwt beam="1">  1        2 0.11383371E-01 0.31789444E+03</pdfrwt>
<pdfrwt beam="2">  1       -2 0.52530104E-01 0.31789444E+03</pdfrwt>
<totfact> 0.19006655E+03</totfact>
</mgrwt>
</event>
<event>
 4    1  0.5980424E-004  0.1997014E+03  0.7818608E-02  0.1149991E+00
          2   -1    0    0  501    0  0.00000000000E+00  0.00000000000E+00  0.15778013371E+04  0.15778013371E+04  0.25500000000E-02 0.  1.
         -2   -1    0    0    0  501 -0.00000000000E+00 -0.00000000000E+00 -0.63190192438E+01  0.63190197584E+01  0.25500000000E-02 0. -1.
    5000001    1    1    2    0    0  0.34734322841E+02  0.52036228464E+02  0.87510543294E+03  0.88071150839E+03  0.77000000000E+02 0.  0.
   -5000001    1    1    2    0    0 -0.34734322841E+02 -0.52036228464E+02  0.69637688494E+03  0.70340884849E+03  0.77000000000E+02 0.  0.
<mgrwt>
<rscale>  0 0.19970135E+03</rscale>
<asrwt>0</asrwt>
<pdfrwt beam="1">  1        2 0.24273907E+00 0.19970135E+03</pdfrwt>
<pdfrwt beam="2">  1       -2 0.97215523E-03 0.19970135E+03</pdfrwt>
<totfact> 0.27101016E+04</totfact>
</mgrwt>
</event>
<event>
 4    1  0.5980424E-004  0.1861966E+03  0.7818608E-02  0.1161937E+00
         -2   -1    0    0    0  501 -0.00000000000E+00  0.00000000000E+00  0.97435000440E+02  0.97435000473E+02  0.25500000000E-02 0. -1.
          2   -1    0    0  501    0  0.00000000000E+00 -0.00000000000E+00 -0.88954633526E+02  0.88954633562E+02  0.25500000000E-02 0.  1.
    5000001    1    1    2    0    0 -0.45297603008E+02 -0.24815685046E+02  0.12651494806E+02  0.93577515373E+02  0.77000000000E+02 0.  0.
   -5000001    1    1    2    0    0  0.45297603008E+02  0.24815685046E+02 -0.41711278923E+01  0.92812118662E+02  0.77000000000E+02 0.  0.
<mgrwt>
<rscale>  0 0.18619661E+03</rscale>
<asrwt>0</asrwt>
<pdfrwt beam="1">  1        2 0.13685328E-01 0.18619661E+03</pdfrwt>
<pdfrwt beam="2">  1       -2 0.14990000E-01 0.18619661E+03</pdfrwt>
<totfact> 0.14300835E+04</totfact>
</mgrwt>
</event>
<event>
 4    1  0.5980424E-004  0.4013048E+03  0.7818608E-02  0.1043329E+00
         -2   -1    0    0    0  501 -0.00000000000E+00  0.00000000000E+00  0.45248322093E+02  0.45248322165E+02  0.25500000000E-02 0. -1.
          2   -1    0    0  501    0  0.00000000000E+00 -0.00000000000E+00 -0.88978758139E+03  0.88978758139E+03  0.25500000000E-02 0.  1.
    5000001    1    1    2    0    0 -0.15497958652E+03  0.59719358195E+02 -0.61365977487E+03  0.64038456671E+03  0.77000000000E+02 0.  0.
   -5000001    1    1    2    0    0  0.15497958652E+03 -0.59719358195E+02 -0.23087948442E+03  0.29465133685E+03  0.77000000000E+02 0.  0.
<mgrwt>
<rscale>  0 0.40130485E+03</rscale>
<asrwt>0</asrwt>
<pdfrwt beam="1">  1        2 0.13689038E+00 0.40130485E+03</pdfrwt>
<pdfrwt beam="2">  1       -2 0.69612810E-02 0.40130485E+03</pdfrwt>
<totfact> 0.36435108E+03</totfact>
</mgrwt>
</event>
<event>
 4    1  0.5980424E-004  0.1815769E+03  0.7818608E-02  0.1166286E+00
          2   -1    0    0  501    0  0.00000000000E+00  0.00000000000E+00  0.66037866707E+03  0.66037866708E+03  0.25500000000E-02 0.  1.
         -2   -1    0    0    0  501 -0.00000000000E+00 -0.00000000000E+00 -0.12481535322E+02  0.12481535583E+02  0.25500000000E-02 0. -1.
    5000001    1    1    2    0    0 -0.43002652461E+02 -0.74267999840E+00  0.24414707753E+03  0.25958924315E+03  0.77000000000E+02 0.  0.
   -5000001    1    1    2    0    0  0.43002652461E+02  0.74267999840E+00  0.40375005421E+03  0.41327095951E+03  0.77000000000E+02 0.  0.
<mgrwt>
<rscale>  0 0.18157687E+03</rscale>
<asrwt>0</asrwt>
<pdfrwt beam="1">  1        2 0.10159669E+00 0.18157687E+03</pdfrwt>
<pdfrwt beam="2">  1       -2 0.19202367E-02 0.18157687E+03</pdfrwt>
<totfact> 0.35561967E+04</totfact>
</mgrwt>
</event>
<event>
 4    1  0.5980424E-004  0.3048844E+03  0.7818608E-02  0.1082824E+00
         -2   -1    0    0    0  501 -0.00000000000E+00  0.00000000000E+00  0.21559234634E+03  0.21559234635E+03  0.25500000000E-02 0. -1.
          2   -1    0    0  501    0  0.00000000000E+00 -0.00000000000E+00 -0.10778968707E+03  0.10778968710E+03  0.25500000000E-02 0.  1.
    5000001    1    1    2    0    0  0.11112352532E+03  0.70387130233E+02  0.51126185775E+02  0.16076589456E+03  0.77000000000E+02 0.  0.
   -5000001    1    1    2    0    0 -0.11112352532E+03 -0.70387130233E+02  0.56676473489E+02  0.16261613889E+03  0.77000000000E+02 0.  0.
<mgrwt>
<rscale>  0 0.30488445E+03</rscale>
<asrwt>0</asrwt>
<pdfrwt beam="1">  1        2 0.16583029E-01 0.30488445E+03</pdfrwt>
<pdfrwt beam="2">  1       -2 0.33168053E-01 0.30488445E+03</pdfrwt>
<totfact> 0.29371781E+03</totfact>
</mgrwt>
</event>
<event>
 4    1  0.5980424E-004  0.2685785E+03  0.7818608E-02  0.1102096E+00
          2   -1    0    0  501    0  0.00000000000E+00  0.00000000000E+00  0.16855775585E+03  0.16855775587E+03  0.25500000000E-02 0.  1.
         -2   -1    0    0    0  501 -0.00000000000E+00 -0.00000000000E+00 -0.10698767080E+03  0.10698767083E+03  0.25500000000E-02 0. -1.
    5000001    1    1    2    0    0  0.50706896007E+02 -0.59260750194E+02  0.11039677168E+03  0.15556179806E+03  0.77000000000E+02 0.  0.
   -5000001    1    1    2    0    0 -0.50706896007E+02  0.59260750194E+02 -0.48826686628E+02  0.11998362865E+03  0.77000000000E+02 0.  0.
<mgrwt>
<rscale>  0 0.26857849E+03</rscale>
<asrwt>0</asrwt>
<pdfrwt beam="1">  1        2 0.25931963E-01 0.26857849E+03</pdfrwt>
<pdfrwt beam="2">  1       -2 0.16459642E-01 0.26857849E+03</pdfrwt>
<totfact> 0.59943123E+03</totfact>
</mgrwt>
</event>
<event>
 4    1  0.5980424E-004  0.2255512E+03  0.7818608E-02  0.1129811E+00
         -2   -1    0    0    0  501 -0.00000000000E+00  0.00000000000E+00  0.69419176830E+02  0.69419176877E+02  0.25500000000E-02 0. -1.
          2   -1    0    0  501    0  0.00000000000E+00 -0.00000000000E+00 -0.18321070024E+03  0.18321070026E+03  0.25500000000E-02 0.  1.
    5000001    1    1    2    0    0 -0.20976773456E+02  0.28717458266E+02 -0.14014700297E+03  0.16381361322E+03  0.77000000000E+02 0.  0.
   -5000001    1    1    2    0    0  0.20976773456E+02 -0.28717458266E+02  0.26355479558E+02  0.88816263919E+02  0.77000000000E+02 0.  0.
<mgrwt>
<rscale>  0 0.22555120E+03</rscale>
<asrwt>0</asrwt>
<pdfrwt beam="1">  1        2 0.28186261E-01 0.22555120E+03</pdfrwt>
<pdfrwt beam="2">  1       -2 0.10679873E-01 0.22555120E+03</pdfrwt>
<totfact> 0.10968972E+04</totfact>
</mgrwt>
</event>
<event>
 4    1  0.5980424E-004  0.2715797E+03  0.7818608E-02  0.1100379E+00
          2   -1    0    0  501    0  0.00000000000E+00  0.00000000000E+00  0.27948759063E+03  0.27948759064E+03  0.25500000000E-02 0.  1.
         -2   -1    0    0    0  501 -0.00000000000E+00 -0.00000000000E+00 -0.65973871635E+02  0.65973871684E+02  0.25500000000E-02 0. -1.
    5000001    1    1    2    0    0 -0.10010999947E+03  0.49443851623E+02  0.11511487838E+03  0.17789643527E+03  0.77000000000E+02 0.  0.
   -5000001    1    1    2    0    0  0.10010999947E+03 -0.49443851623E+02  0.98398840610E+02  0.16756502705E+03  0.77000000000E+02 0.  0.
<mgrwt>
<rscale>  0 0.27157966E+03</rscale>
<asrwt>0</asrwt>
<pdfrwt beam="1">  1        2 0.42998090E-01 0.27157966E+03</pdfrwt>
<pdfrwt beam="2">  1       -2 0.10149827E-01 0.27157966E+03</pdfrwt>
<totfact> 0.75884946E+03</totfact>
</mgrwt>
</event>
<event>
 4    1  0.5980424E-004  0.5289799E+03  0.7818608E-02  0.1006480E+00
         -2   -1    0    0    0  501 -0.00000000000E+00  0.00000000000E+00  0.25361949235E+03  0.25361949237E+03  0.25500000000E-02 0. -1.
          2   -1    0    0  501    0  0.00000000000E+00 -0.00000000000E+00 -0.27582628149E+03  0.27582628150E+03  0.25500000000E-02 0.  1.
    5000001    1    1    2    0    0  0.14317401050E+03 -0.20725816057E+03 -0.35023798254E+02  0.26572619150E+03  0.77000000000E+02 0.  0.
   -5000001    1    1    2    0    0 -0.14317401050E+03  0.20725816057E+03  0.12817009115E+02  0.26371958237E+03  0.77000000000E+02 0.  0.
<mgrwt>
<rscale>  0 0.52897985E+03</rscale>
<asrwt>0</asrwt>
<pdfrwt beam="1">  1        2 0.42434812E-01 0.52897985E+03</pdfrwt>
<pdfrwt beam="2">  1       -2 0.39018383E-01 0.52897985E+03</pdfrwt>
<totfact> 0.75228277E+02</totfact>
</mgrwt>
</event>
<event>
 4    1  0.5980424E-004  0.3510583E+03  0.7818608E-02  0.1062181E+00
          2   -1    0    0  501    0  0.00000000000E+00  0.00000000000E+00  0.54499861818E+02  0.54499861877E+02  0.25500000000E-02 0.  1.
         -2   -1    0    0    0  501 -0.00000000000E+00 -0.00000000000E+00 -0.56533150916E+03  0.56533150917E+03  0.25500000000E-02 0. -1.
    5000001    1    1    2    0    0  0.11155903826E+03  0.11074739745E+03 -0.23232182835E+03  0.29088285785E+03  0.77000000000E+02 0.  0.
   -5000001    1    1    2    0    0 -0.11155903826E+03 -0.11074739745E+03 -0.27850981899E+03  0.32894851320E+03  0.77000000000E+02 0.  0.
<mgrwt>
<rscale>  0 0.35105834E+03</rscale>
<asrwt>0</asrwt>
<pdfrwt beam="1">  1        2 0.83845945E-02 0.35105834E+03</pdfrwt>
<pdfrwt beam="2">  1       -2 0.86974074E-01 0.35105834E+03</pdfrwt>
<totfact> 0.95122846E+02</totfact>
</mgrwt>
</event>
<event>
 4    1  0.5980424E-004  0.1659630E+03  0.7818608E-02  0.1182124E+00
         -2   -1    0    0    0  501 -0.00000000000E+00  0.00000000000E+00  0.16985884668E+01  0.16985903809E+01  0.25500000000E-02 0. -1.
          2   -1    0    0  501    0  0.00000000000E+00 -0.00000000000E+00 -0.40539099555E+04  0.40539099555E+04  0.25500000000E-02 0.  1.
    5000001    1    1    2    0    0  0.16193446009E+02 -0.25244275647E+02 -0.18409212509E+04  0.18427749600E+04  0.77000000000E+02 0.  0.
   -5000001    1    1    2    0    0 -0.16193446009E+02  0.25244275647E+02 -0.22112901161E+04  0.22128335859E+04  0.77000000000E+02 0.  0.
<mgrwt>
<rscale>  0 0.16596299E+03</rscale>
<asrwt>0</asrwt>
<pdfrwt beam="1">  1        2 0.62367071E+00 0.16596299E+03</pdfrwt>
<pdfrwt beam="2">  1       -2 0.26132469E-03 0.16596299E+03</pdfrwt>
<totfact> 0.60536082E+03</totfact>
</mgrwt>
</event>
<event>
 4    1  0.5980424E-004  0.4219296E+03  0.7818608E-02  0.1036440E+00
          2   -1    0    0  501    0  0.00000000000E+00  0.00000000000E+00  0.64428829844E+03  0.64428829844E+03  0.25500000000E-02 0.  1.
         -2   -1    0    0    0  501 -0.00000000000E+00 -0.00000000000E+00 -0.69077987065E+02  0.69077987112E+02  0.25500000000E-02 0. -1.
    5000001    1    1    2    0    0  0.11402043952E+03  0.11950777479E+03  0.10792354610E+03  0.21180004879E+03  0.77000000000E+02 0.  0.
   -5000001    1    1    2    0    0 -0.11402043952E+03 -0.11950777479E+03  0.46728676527E+03  0.50156623676E+03  0.77000000000E+02 0.  0.
<mgrwt>
<rscale>  0 0.42192956E+03</rscale>
<asrwt>0</asrwt>
<pdfrwt beam="1">  1        2 0.99121273E-01 0.42192956E+03</pdfrwt>
<pdfrwt beam="2">  1       -2 0.10627383E-01 0.42192956E+03</pdfrwt>
<totfact> 0.28065569E+03</totfact>
</mgrwt>
</event>
<event>
 4    1  0.5980424E-004  0.2071327E+03  0.7818608E-02  0.1143857E+00
          2   -1    0    0  501    0  0.00000000000E+00  0.00000000000E+00  0.42248518820E+03  0.42248518821E+03  0.25500000000E-02 0.  1.
         -2   -1    0    0    0  501 -0.00000000000E+00 -0.00000000000E+00 -0.25387834802E+02  0.25387834930E+02  0.25500000000E-02 0. -1.
    5000001    1    1    2    0    0 -0.58119235632E+02 -0.19750281162E+02  0.26791165685E+03  0.28543576341E+03  0.77000000000E+02 0.  0.
   -5000001    1    1    2    0    0  0.58119235632E+02  0.19750281162E+02  0.12918569655E+03  0.16243725974E+03  0.77000000000E+02 0.  0.
<mgrwt>
<rscale>  0 0.20713266E+03</rscale>
<asrwt>0</asrwt>
<pdfrwt beam="1">  1        2 0.64997721E-01 0.20713266E+03</pdfrwt>
<pdfrwt beam="2">  1       -2 0.39058208E-02 0.20713266E+03</pdfrwt>
<totfact> 0.20814063E+04</totfact>
</mgrwt>
</event>
<event>
 4    1  0.5980424E-004  0.2356103E+03  0.7818608E-02  0.1122752E+00
          2   -1    0    0  501    0  0.00000000000E+00  0.00000000000E+00  0.53375000127E+03  0.53375000127E+03  0.25500000000E-02 0.  1.
         -2   -1    0    0    0  501 -0.00000000000E+00 -0.00000000000E+00 -0.26001026286E+02  0.26001026411E+02  0.25500000000E-02 0. -1.
    5000001    1    1    2    0    0 -0.21165451535E+02 -0.83491038756E+02  0.30858476034E+03  0.32950308679E+03  0.77000000000E+02 0.  0.
   -5000001    1    1    2    0    0  0.21165451535E+02  0.83491038756E+02  0.19916421464E+03  0.23024794089E+03  0.77000000000E+02 0.  0.
<mgrwt>
<rscale>  0 0.23561025E+03</rscale>
<asrwt>0</asrwt>
<pdfrwt beam="1">  1        2 0.82115386E-01 0.23561025E+03</pdfrwt>
<pdfrwt beam="2">  1       -2 0.40001578E-02 0.23561025E+03</pdfrwt>
<totfact> 0.15636871E+04</totfact>
</mgrwt>
</event>
<event>
 4    1  0.5980424E-004  0.2011131E+03  0.7818608E-02  0.1148803E+00
         -2   -1    0    0    0  501 -0.00000000000E+00  0.00000000000E+00  0.40931598861E+02  0.40931598941E+02  0.25500000000E-02 0. -1.
          2   -1    0    0  501    0  0.00000000000E+00 -0.00000000000E+00 -0.24703692921E+03  0.24703692922E+03  0.25500000000E-02 0.  1.
    5000001    1    1    2    0    0 -0.59841584068E+02  0.23133448102E+02 -0.11472440392E+03  0.15233798102E+03  0.77000000000E+02 0.  0.
   -5000001    1    1    2    0    0  0.59841584068E+02 -0.23133448102E+02 -0.91380926425E+02  0.13563054715E+03  0.77000000000E+02 0.  0.
<mgrwt>
<rscale>  0 0.20111307E+03</rscale>
<asrwt>0</asrwt>
<pdfrwt beam="1">  1        2 0.38005681E-01 0.20111307E+03</pdfrwt>
<pdfrwt beam="2">  1       -2 0.62971692E-02 0.20111307E+03</pdfrwt>
<totfact> 0.17942139E+04</totfact>
</mgrwt>
</event>
<event>
 4    1  0.5980424E-004  0.2269523E+03  0.7818608E-02  0.1128803E+00
         -2   -1    0    0    0  501 -0.00000000000E+00  0.00000000000E+00  0.73224642330E+03  0.73224642331E+03  0.25500000000E-02 0. -1.
          2   -1    0    0  501    0  0.00000000000E+00 -0.00000000000E+00 -0.17585380454E+02  0.17585380639E+02  0.25500000000E-02 0.  1.
    5000001    1    1    2    0    0 -0.31281160642E+02 -0.62793748353E+02  0.50605333499E+03  0.51666289173E+03  0.77000000000E+02 0.  0.
   -5000001    1    1    2    0    0  0.31281160642E+02  0.62793748353E+02  0.20860770786E+03  0.23316891221E+03  0.77000000000E+02 0.  0.
<mgrwt>
<rscale>  0 0.22695226E+03</rscale>
<asrwt>0</asrwt>
<pdfrwt beam="1">  1        2 0.27054429E-02 0.22695226E+03</pdfrwt>
<pdfrwt beam="2">  1       -2 0.11265331E+00 0.22695226E+03</pdfrwt>
<totfact> 0.23100698E+03</totfact>
</mgrwt>
</event>
<event>
 4    1  0.5980424E-004  0.3035267E+03  0.7818608E-02  0.1083491E+00
         -2   -1    0    0    0  501 -0.00000000000E+00  0.00000000000E+00  0.44169988669E+02  0.44169988742E+02  0.25500000000E-02 0. -1.
          2   -1    0    0  501    0  0.00000000000E+00 -0.00000000000E+00 -0.52144266725E+03  0.52144266726E+03  0.25500000000E-02 0.  1.
    5000001    1    1    2    0    0  0.17576786170E+02 -0.11763603496E+03 -0.13732227135E+03  0.19731595562E+03  0.77000000000E+02 0.  0.
   -5000001    1    1    2    0    0 -0.17576786170E+02  0.11763603496E+03 -0.33995040723E+03  0.36829670038E+03  0.77000000000E+02 0.  0.
<mgrwt>
<rscale>  0 0.30352672E+03</rscale>
<asrwt>0</asrwt>
<pdfrwt beam="1">  1        2 0.80221944E-01 0.30352672E+03</pdfrwt>
<pdfrwt beam="2">  1       -2 0.67953833E-02 0.30352672E+03</pdfrwt>
<totfact> 0.72371367E+03</totfact>
</mgrwt>
</event>
<event>
 4    1  0.5980424E-004  0.2820221E+03  0.7818608E-02  0.1094590E+00
         -2   -1    0    0    0  501 -0.00000000000E+00  0.00000000000E+00  0.30689248941E+02  0.30689249047E+02  0.25500000000E-02 0. -1.
          2   -1    0    0  501    0  0.00000000000E+00 -0.00000000000E+00 -0.64791787309E+03  0.64791787310E+03  0.25500000000E-02 0.  1.
    5000001    1    1    2    0    0 -0.91430836852E+02  0.48944151739E+02 -0.44473034394E+03  0.46310820198E+03  0.77000000000E+02 0.  0.
   -5000001    1    1    2    0    0  0.91430836852E+02 -0.48944151739E+02 -0.17249828021E+03  0.21549892016E+03  0.77000000000E+02 0.  0.
<mgrwt>
<rscale>  0 0.28202208E+03</rscale>
<asrwt>0</asrwt>
<pdfrwt beam="1">  1        2 0.99679662E-01 0.28202208E+03</pdfrwt>
<pdfrwt beam="2">  1       -2 0.47214234E-02 0.28202208E+03</pdfrwt>
<totfact> 0.98126722E+03</totfact>
</mgrwt>
</event>
<event>
 4    1  0.5980424E-004  0.4332624E+03  0.7818608E-02  0.1032834E+00
          2   -1    0    0  501    0  0.00000000000E+00  0.00000000000E+00  0.56358493794E+02  0.56358493852E+02  0.25500000000E-02 0.  1.
         -2   -1    0    0    0  501 -0.00000000000E+00 -0.00000000000E+00 -0.83268874678E+03  0.83268874678E+03  0.25500000000E-02 0. -1.
    5000001    1    1    2    0    0 -0.75557904223E+02  0.87321613277E+02 -0.46856575333E+02  0.14648754107E+03  0.77000000000E+02 0.  0.
   -5000001    1    1    2    0    0  0.75557904223E+02 -0.87321613277E+02 -0.72947367765E+03  0.74255969957E+03  0.77000000000E+02 0.  0.
<mgrwt>
<rscale>  0 0.43326243E+03</rscale>
<asrwt>0</asrwt>
<pdfrwt beam="1">  1        2 0.86705381E-02 0.43326243E+03</pdfrwt>
<pdfrwt beam="2">  1       -2 0.12810595E+00 0.43326243E+03</pdfrwt>
<totfact> 0.36416020E+02</totfact>
</mgrwt>
</event>
<event>
 4    1  0.5980424E-004  0.1755680E+03  0.7818608E-02  0.1172163E+00
         -2   -1    0    0    0  501 -0.00000000000E+00  0.00000000000E+00  0.15537181369E+03  0.15537181371E+03  0.25500000000E-02 0. -1.
          2   -1    0    0  501    0  0.00000000000E+00 -0.00000000000E+00 -0.49597363142E+02  0.49597363208E+02  0.25500000000E-02 0.  1.
    5000001    1    1    2    0    0  0.40301506438E+02 -0.11214892438E+02  0.46815626988E+02  0.99351337000E+02  0.77000000000E+02 0.  0.
   -5000001    1    1    2    0    0 -0.40301506438E+02  0.11214892438E+02  0.58958823561E+02  0.10561783992E+03  0.77000000000E+02 0.  0.
<mgrwt>
<rscale>  0 0.17556802E+03</rscale>
<asrwt>0</asrwt>
<pdfrwt beam="1">  1        2 0.76303635E-02 0.17556802E+03</pdfrwt>
<pdfrwt beam="2">  1       -2 0.23903356E-01 0.17556802E+03</pdfrwt>
<totfact> 0.13279030E+04</totfact>
</mgrwt>
</event>
<event>
 4    1  0.5980424E-004  0.3520092E+03  0.7818608E-02  0.1061793E+00
         -2   -1    0    0    0  501 -0.00000000000E+00  0.00000000000E+00  0.71201867800E+02  0.71201867846E+02  0.25500000000E-02 0. -1.
          2   -1    0    0  501    0  0.00000000000E+00 -0.00000000000E+00 -0.43506740574E+03  0.43506740575E+03  0.25500000000E-02 0.  1.
    5000001    1    1    2    0    0 -0.92457945660E+02 -0.10921729560E+03 -0.27917782703E+03  0.32302654454E+03  0.77000000000E+02 0.  0.
   -5000001    1    1    2    0    0  0.92457945660E+02  0.10921729560E+03 -0.84687710918E+02  0.18324272906E+03  0.77000000000E+02 0.  0.
<mgrwt>
<rscale>  0 0.35200916E+03</rscale>
<asrwt>0</asrwt>
<pdfrwt beam="1">  1        2 0.66933445E-01 0.35200916E+03</pdfrwt>
<pdfrwt beam="2">  1       -2 0.10954134E-01 0.35200916E+03</pdfrwt>
<totfact> 0.41852005E+03</totfact>
</mgrwt>
</event>
<event>
 4    1  0.5980424E-004  0.4314941E+03  0.7818608E-02  0.1033389E+00
          2   -1    0    0  501    0  0.00000000000E+00  0.00000000000E+00  0.10023986903E+04  0.10023986903E+04  0.25500000000E-02 0.  1.
         -2   -1    0    0    0  501 -0.00000000000E+00 -0.00000000000E+00 -0.46435414344E+02  0.46435414414E+02  0.25500000000E-02 0. -1.
    5000001    1    1    2    0    0 -0.20096483233E+03  0.70234860421E+01  0.44522523225E+03  0.49456111920E+03  0.77000000000E+02 0.  0.
   -5000001    1    1    2    0    0  0.20096483233E+03 -0.70234860421E+01  0.51073804370E+03  0.55427298552E+03  0.77000000000E+02 0.  0.
<mgrwt>
<rscale>  0 0.43149414E+03</rscale>
<asrwt>0</asrwt>
<pdfrwt beam="1">  1        2 0.15421518E+00 0.43149414E+03</pdfrwt>
<pdfrwt beam="2">  1       -2 0.71439098E-02 0.43149414E+03</pdfrwt>
<totfact> 0.29636868E+03</totfact>
</mgrwt>
</event>
<event>
 4    1  0.5980424E-004  0.2509693E+03  0.7818608E-02  0.1112694E+00
          2   -1    0    0  501    0  0.00000000000E+00  0.00000000000E+00  0.98776570282E+02  0.98776570314E+02  0.25500000000E-02 0.  1.
         -2   -1    0    0    0  501 -0.00000000000E+00 -0.00000000000E+00 -0.15941425210E+03  0.15941425212E+03  0.25500000000E-02 0. -1.
    5000001    1    1    2    0    0  0.37939328013E+02 -0.75733302816E+02 -0.83202935490E+02  0.14151556183E+03  0.77000000000E+02 0.  0.
   -5000001    1    1    2    0    0 -0.37939328013E+02  0.75733302816E+02  0.22565253667E+02  0.11667526061E+03  0.77000000000E+02 0.  0.
<mgrwt>
<rscale>  0 0.25096927E+03</rscale>
<asrwt>0</asrwt>
<pdfrwt beam="1">  1        2 0.15196395E-01 0.25096927E+03</pdfrwt>
<pdfrwt beam="2">  1       -2 0.24525270E-01 0.25096927E+03</pdfrwt>
<totfact> 0.55746293E+03</totfact>
</mgrwt>
</event>
<event>
 4    1  0.5980424E-004  0.1832680E+03  0.7818608E-02  0.1164677E+00
         -2   -1    0    0    0  501 -0.00000000000E+00  0.00000000000E+00  0.70663111926E+01  0.70663116527E+01  0.25500000000E-02 0. -1.
          2   -1    0    0  501    0  0.00000000000E+00 -0.00000000000E+00 -0.11882843466E+04  0.11882843466E+04  0.25500000000E-02 0.  1.
    5000001    1    1    2    0    0  0.27245917343E+02 -0.33595582252E+02 -0.74994628879E+03  0.75512875673E+03  0.77000000000E+02 0.  0.
   -5000001    1    1    2    0    0 -0.27245917343E+02  0.33595582252E+02 -0.43127174658E+03  0.44022190150E+03  0.77000000000E+02 0.  0.
<mgrwt>
<rscale>  0 0.18326797E+03</rscale>
<asrwt>0</asrwt>
<pdfrwt beam="1">  1        2 0.18281282E+00 0.18326797E+03</pdfrwt>
<pdfrwt beam="2">  1       -2 0.10871258E-02 0.18326797E+03</pdfrwt>
<totfact> 0.37227218E+04</totfact>
</mgrwt>
</event>
<event>
 4    1  0.5980424E-004  0.3015998E+03  0.7818608E-02  0.1084444E+00
          2   -1    0    0  501    0  0.00000000000E+00  0.00000000000E+00  0.17488834702E+04  0.17488834702E+04  0.25500000000E-02 0. -1.
         -2   -1    0    0    0  501 -0.00000000000E+00 -0.00000000000E+00 -0.13002926909E+02  0.13002927159E+02  0.25500000000E-02 0.  1.
    5000001    1    1    2    0    0 -0.85748024960E+02  0.59717374573E+02  0.41949995936E+03  0.43912196998E+03  0.77000000000E+02 0.  0.
   -5000001    1    1    2    0    0  0.85748024960E+02 -0.59717374573E+02  0.13163805839E+04  0.13227644274E+04  0.77000000000E+02 0.  0.
<mgrwt>
<rscale>  0 0.30159976E+03</rscale>
<asrwt>0</asrwt>
<pdfrwt beam="1">  1        2 0.26905895E+00 0.30159976E+03</pdfrwt>
<pdfrwt beam="2">  1       -2 0.20004507E-02 0.30159976E+03</pdfrwt>
<totfact> 0.77907238E+03</totfact>
</mgrwt>
</event>
<event>
 4    1  0.5980424E-004  0.1869799E+03  0.7818608E-02  0.1161214E+00
         -2   -1    0    0    0  501 -0.00000000000E+00  0.00000000000E+00  0.35446805635E+01  0.35446814807E+01  0.25500000000E-02 0. -1.
          2   -1    0    0  501    0  0.00000000000E+00 -0.00000000000E+00 -0.24657706513E+04  0.24657706513E+04  0.25500000000E-02 0.  1.
    5000001    1    1    2    0    0 -0.32465511817E+02  0.24170889464E+01 -0.67841354875E+03  0.68354502039E+03  0.77000000000E+02 0.  0.
   -5000001    1    1    2    0    0  0.32465511817E+02 -0.24170889464E+01 -0.17838124219E+04  0.17857703123E+04  0.77000000000E+02 0.  0.
<mgrwt>
<rscale>  0 0.18697990E+03</rscale>
<asrwt>0</asrwt>
<pdfrwt beam="1">  1        2 0.37934796E+00 0.18697990E+03</pdfrwt>
<pdfrwt beam="2">  1       -2 0.54533751E-03 0.18697990E+03</pdfrwt>
<totfact> 0.21231848E+04</totfact>
</mgrwt>
</event>
<event>
 4    1  0.5980424E-004  0.2823956E+03  0.7818608E-02  0.1094388E+00
          2   -1    0    0  501    0  0.00000000000E+00  0.00000000000E+00  0.13008705258E+04  0.13008705258E+04  0.25500000000E-02 0.  1.
         -2   -1    0    0    0  501 -0.00000000000E+00 -0.00000000000E+00 -0.15325756451E+02  0.15325756663E+02  0.25500000000E-02 0. -1.
    5000001    1    1    2    0    0 -0.38970933685E+02  0.10254506170E+03  0.84983057538E+03  0.86033437117E+03  0.77000000000E+02 0.  0.
   -5000001    1    1    2    0    0  0.38970933685E+02 -0.10254506170E+03  0.43571419398E+03  0.45586191131E+03  0.77000000000E+02 0.  0.
<mgrwt>
<rscale>  0 0.28239564E+03</rscale>
<asrwt>0</asrwt>
<pdfrwt beam="1">  1        2 0.20013390E+00 0.28239564E+03</pdfrwt>
<pdfrwt beam="2">  1       -2 0.23578090E-02 0.28239564E+03</pdfrwt>
<totfact> 0.10624209E+04</totfact>
</mgrwt>
</event>
<event>
 4    1  0.5980424E-004  0.1997150E+03  0.7818608E-02  0.1149980E+00
          2   -1    0    0  501    0  0.00000000000E+00  0.00000000000E+00  0.10373891904E+03  0.10373891907E+03  0.25500000000E-02 0.  1.
         -2   -1    0    0    0  501 -0.00000000000E+00 -0.00000000000E+00 -0.96121344131E+02  0.96121344165E+02  0.25500000000E-02 0. -1.
    5000001    1    1    2    0    0  0.83746953222E+01  0.16692635258E+02 -0.57011591665E+02  0.97611993002E+02  0.77000000000E+02 0.  0.
   -5000001    1    1    2    0    0 -0.83746953222E+01 -0.16692635258E+02  0.64629166570E+02  0.10224827023E+03  0.77000000000E+02 0.  0.
<mgrwt>
<rscale>  0 0.19971504E+03</rscale>
<asrwt>0</asrwt>
<pdfrwt beam="1">  1        2 0.15959834E-01 0.19971504E+03</pdfrwt>
<pdfrwt beam="2">  1       -2 0.14787899E-01 0.19971504E+03</pdfrwt>
<totfact> 0.12257468E+04</totfact>
</mgrwt>
</event>
<event>
 4    1  0.5980424E-004  0.3333798E+03  0.7818608E-02  0.1069651E+00
          2   -1    0    0  501    0  0.00000000000E+00  0.00000000000E+00  0.45158472990E+03  0.45158472991E+03  0.25500000000E-02 0.  1.
         -2   -1    0    0    0  501 -0.00000000000E+00 -0.00000000000E+00 -0.61528933966E+02  0.61528934019E+02  0.25500000000E-02 0. -1.
    5000001    1    1    2    0    0 -0.13234826413E+03 -0.52016236298E+02  0.13279739901E+03  0.20925080894E+03  0.77000000000E+02 0.  0.
   -5000001    1    1    2    0    0  0.13234826413E+03  0.52016236298E+02  0.25725839693E+03  0.30386285499E+03  0.77000000000E+02 0.  0.
<mgrwt>
<rscale>  0 0.33337983E+03</rscale>
<asrwt>0</asrwt>
<pdfrwt beam="1">  1        2 0.69474574E-01 0.33337983E+03</pdfrwt>
<pdfrwt beam="2">  1       -2 0.94659898E-02 0.33337983E+03</pdfrwt>
<totfact> 0.50672886E+03</totfact>
</mgrwt>
</event>
<event>
 4    1  0.5980424E-004  0.2660585E+03  0.7818608E-02  0.1103557E+00
         -2   -1    0    0    0  501 -0.00000000000E+00  0.00000000000E+00  0.27657569406E+03  0.27657569407E+03  0.25500000000E-02 0. -1.
          2   -1    0    0  501    0  0.00000000000E+00 -0.00000000000E+00 -0.63985296921E+02  0.63985296972E+02  0.25500000000E-02 0.  1.
    5000001    1    1    2    0    0  0.28876369038E+02  0.75433882071E+02  0.19898568841E+03  0.22814122697E+03  0.77000000000E+02 0.  0.
   -5000001    1    1    2    0    0 -0.28876369038E+02 -0.75433882071E+02  0.13604708725E+02  0.11241976407E+03  0.77000000000E+02 0.  0.
<mgrwt>
<rscale>  0 0.26605847E+03</rscale>
<asrwt>0</asrwt>
<pdfrwt beam="1">  1        2 0.98438918E-02 0.26605847E+03</pdfrwt>
<pdfrwt beam="2">  1       -2 0.42550107E-01 0.26605847E+03</pdfrwt>
<totfact> 0.34336837E+03</totfact>
</mgrwt>
</event>
<event>
 4    1  0.5980424E-004  0.5468357E+03  0.7818608E-02  0.1002229E+00
          2   -1    0    0  501    0  0.00000000000E+00  0.00000000000E+00  0.11781175277E+04  0.11781175277E+04  0.25500000000E-02 0.  1.
         -2   -1    0    0    0  501 -0.00000000000E+00 -0.00000000000E+00 -0.63454892686E+02  0.63454892737E+02  0.25500000000E-02 0. -1.
    5000001    1    1    2    0    0 -0.17429590000E+02 -0.25632021351E+03  0.67799716298E+03  0.72911795718E+03  0.77000000000E+02 0.  0.
   -5000001    1    1    2    0    0  0.17429590000E+02  0.25632021351E+03  0.43666547207E+03  0.51245446331E+03  0.77000000000E+02 0.  0.
<mgrwt>
<rscale>  0 0.54683570E+03</rscale>
<asrwt>0</asrwt>
<pdfrwt beam="1">  1        2 0.18124883E+00 0.54683570E+03</pdfrwt>
<pdfrwt beam="2">  1       -2 0.97622921E-02 0.54683570E+03</pdfrwt>
<totfact> 0.14093498E+03</totfact>
</mgrwt>
</event>
<event>
 4    1  0.5980424E-004  0.2693191E+03  0.7818608E-02  0.1101670E+00
         -2   -1    0    0    0  501 -0.00000000000E+00  0.00000000000E+00  0.42727745118E+02  0.42727745194E+02  0.25500000000E-02 0. -1.
          2   -1    0    0  501    0  0.00000000000E+00 -0.00000000000E+00 -0.42438913871E+03  0.42438913872E+03  0.25500000000E-02 0.  1.
    5000001    1    1    2    0    0 -0.83704097630E+01 -0.10967892591E+03 -0.20857462161E+03  0.24805625033E+03  0.77000000000E+02 0.  0.
   -5000001    1    1    2    0    0  0.83704097630E+01  0.10967892591E+03 -0.17308677198E+03  0.21906063358E+03  0.77000000000E+02 0.  0.
<mgrwt>
<rscale>  0 0.26931907E+03</rscale>
<asrwt>0</asrwt>
<pdfrwt beam="1">  1        2 0.65290634E-01 0.26931907E+03</pdfrwt>
<pdfrwt beam="2">  1       -2 0.65734996E-02 0.26931907E+03</pdfrwt>
<totfact> 0.95361819E+03</totfact>
</mgrwt>
</event>
<event>
 4    1  0.5980424E-004  0.1712299E+03  0.7818608E-02  0.1176571E+00
         -2   -1    0    0    0  501 -0.00000000000E+00  0.00000000000E+00  0.33880716797E+01  0.33880726393E+01  0.25500000000E-02 0. -1.
          2   -1    0    0  501    0  0.00000000000E+00 -0.00000000000E+00 -0.21634488924E+04  0.21634488924E+04  0.25500000000E-02 0.  1.
    5000001    1    1    2    0    0 -0.65337734951E+01  0.33619837285E+02 -0.88897721643E+03  0.89296275117E+03  0.77000000000E+02 0.  0.
   -5000001    1    1    2    0    0  0.65337734951E+01 -0.33619837285E+02 -0.12710836043E+04  0.12738742138E+04  0.77000000000E+02 0.  0.
<mgrwt>
<rscale>  0 0.17122992E+03</rscale>
<asrwt>0</asrwt>
<pdfrwt beam="1">  1        2 0.33283719E+00 0.17122992E+03</pdfrwt>
<pdfrwt beam="2">  1       -2 0.52124360E-03 0.17122992E+03</pdfrwt>
<totfact> 0.32610862E+04</totfact>
</mgrwt>
</event>
<event>
 4    1  0.5980424E-004  0.2312781E+03  0.7818608E-02  0.1125743E+00
         -2   -1    0    0    0  501 -0.00000000000E+00  0.00000000000E+00  0.74542666781E+01  0.74542671143E+01  0.25500000000E-02 0. -1.
          2   -1    0    0  501    0  0.00000000000E+00 -0.00000000000E+00 -0.17939236215E+04  0.17939236215E+04  0.25500000000E-02 0.  1.
    5000001    1    1    2    0    0 -0.45033705956E+02  0.73541842860E+02 -0.91376542924E+03  0.92104977987E+03  0.77000000000E+02 0.  0.
   -5000001    1    1    2    0    0  0.45033705956E+02 -0.73541842860E+02 -0.87270392558E+03  0.88032810874E+03  0.77000000000E+02 0.  0.
<mgrwt>
<rscale>  0 0.23127806E+03</rscale>
<asrwt>0</asrwt>
<pdfrwt beam="1">  1        2 0.27598791E+00 0.23127806E+03</pdfrwt>
<pdfrwt beam="2">  1       -2 0.11468117E-02 0.23127806E+03</pdfrwt>
<totfact> 0.16556324E+04</totfact>
</mgrwt>
</event>
<event>
 4    1  0.5980424E-004  0.2278942E+03  0.7818608E-02  0.1128131E+00
          2   -1    0    0  501    0  0.00000000000E+00  0.00000000000E+00  0.27993997280E+03  0.27993997281E+03  0.25500000000E-02 0.  1.
         -2   -1    0    0    0  501 -0.00000000000E+00 -0.00000000000E+00 -0.46381147600E+02  0.46381147670E+02  0.25500000000E-02 0. -1.
    5000001    1    1    2    0    0 -0.73841406081E+02  0.38800998793E+01  0.59730754896E+02  0.12232894795E+03  0.77000000000E+02 0.  0.
   -5000001    1    1    2    0    0  0.73841406081E+02 -0.38800998793E+01  0.17382807030E+03  0.20399217253E+03  0.77000000000E+02 0.  0.
<mgrwt>
<rscale>  0 0.22789416E+03</rscale>
<asrwt>0</asrwt>
<pdfrwt beam="1">  1        2 0.43067688E-01 0.22789416E+03</pdfrwt>
<pdfrwt beam="2">  1       -2 0.71355612E-02 0.22789416E+03</pdfrwt>
<totfact> 0.13050488E+04</totfact>
</mgrwt>
</event>
<event>
 4    1  0.5980424E-004  0.1729376E+03  0.7818608E-02  0.1174819E+00
         -2   -1    0    0    0  501 -0.00000000000E+00  0.00000000000E+00  0.10844286826E+02  0.10844287125E+02  0.25500000000E-02 0. -1.
          2   -1    0    0  501    0  0.00000000000E+00 -0.00000000000E+00 -0.68947381542E+03  0.68947381542E+03  0.25500000000E-02 0.  1.
    5000001    1    1    2    0    0  0.11540353491E+02 -0.71978215869E+01 -0.18981787657E+03  0.20529202288E+03  0.77000000000E+02 0.  0.
   -5000001    1    1    2    0    0 -0.11540353491E+02  0.71978215869E+01 -0.48881165203E+03  0.49502607967E+03  0.77000000000E+02 0.  0.
<mgrwt>
<rscale>  0 0.17293758E+03</rscale>
<asrwt>0</asrwt>
<pdfrwt beam="1">  1        2 0.10607286E+00 0.17293758E+03</pdfrwt>
<pdfrwt beam="2">  1       -2 0.16683524E-02 0.17293758E+03</pdfrwt>
<totfact> 0.41290416E+04</totfact>
</mgrwt>
</event>
<event>
 4    1  0.5980424E-004  0.2448293E+03  0.7818608E-02  0.1116617E+00
         -2   -1    0    0    0  501 -0.00000000000E+00  0.00000000000E+00  0.88267421013E+02  0.88267421050E+02  0.25500000000E-02 0. -1.
          2   -1    0    0  501    0  0.00000000000E+00 -0.00000000000E+00 -0.16977206349E+03  0.16977206351E+03  0.25500000000E-02 0.  1.
    5000001    1    1    2    0    0 -0.70819948065E+01 -0.91930202085E+02 -0.15922173244E+02  0.12117686374E+03  0.77000000000E+02 0.  0.
   -5000001    1    1    2    0    0  0.70819948065E+01  0.91930202085E+02 -0.65582469234E+02  0.13686262082E+03  0.77000000000E+02 0.  0.
<mgrwt>
<rscale>  0 0.24482926E+03</rscale>
<asrwt>0</asrwt>
<pdfrwt beam="1">  1        2 0.26118779E-01 0.24482926E+03</pdfrwt>
<pdfrwt beam="2">  1       -2 0.13579603E-01 0.24482926E+03</pdfrwt>
<totfact> 0.81360309E+03</totfact>
</mgrwt>
</event>
<event>
 4    1  0.5980424E-004  0.2077751E+03  0.7818608E-02  0.1143340E+00
          2   -1    0    0  501    0  0.00000000000E+00  0.00000000000E+00  0.69100649086E+02  0.69100649133E+02  0.25500000000E-02 0.  1.
         -2   -1    0    0    0  501 -0.00000000000E+00 -0.00000000000E+00 -0.15618693759E+03  0.15618693761E+03  0.25500000000E-02 0. -1.
    5000001    1    1    2    0    0 -0.62603678907E+02  0.19181081404E+02 -0.69576945340E+02  0.12270731771E+03  0.77000000000E+02 0.  0.
   -5000001    1    1    2    0    0  0.62603678907E+02 -0.19181081404E+02 -0.17509343160E+02  0.10258026903E+03  0.77000000000E+02 0.  0.
<mgrwt>
<rscale>  0 0.20777506E+03</rscale>
<asrwt>0</asrwt>
<pdfrwt beam="1">  1        2 0.10630869E-01 0.20777506E+03</pdfrwt>
<pdfrwt beam="2">  1       -2 0.24028760E-01 0.20777506E+03</pdfrwt>
<totfact> 0.88025438E+03</totfact>
</mgrwt>
</event>
<event>
 4    1  0.5980424E-004  0.4072735E+03  0.7818608E-02  0.1041290E+00
          2   -1    0    0  501    0  0.00000000000E+00  0.00000000000E+00  0.37811555507E+03  0.37811555508E+03  0.25500000000E-02 0.  1.
         -2   -1    0    0    0  501 -0.00000000000E+00 -0.00000000000E+00 -0.10966997273E+03  0.10966997276E+03  0.25500000000E-02 0. -1.
    5000001    1    1    2    0    0  0.18394926017E+03  0.21579294463E+02  0.17632831478E+03  0.26706491881E+03  0.77000000000E+02 0.  0.
   -5000001    1    1    2    0    0 -0.18394926017E+03 -0.21579294463E+02  0.92117267562E+02  0.22072060903E+03  0.77000000000E+02 0.  0.
<mgrwt>
<rscale>  0 0.40727348E+03</rscale>
<asrwt>0</asrwt>
<pdfrwt beam="1">  1        2 0.58171622E-01 0.40727348E+03</pdfrwt>
<pdfrwt beam="2">  1       -2 0.16872304E-01 0.40727348E+03</pdfrwt>
<totfact> 0.24016570E+03</totfact>
</mgrwt>
</event>
<event>
 4    1  0.5980424E-004  0.1843989E+03  0.7818608E-02  0.1163612E+00
          2   -1    0    0  501    0  0.00000000000E+00  0.00000000000E+00  0.22876306894E+04  0.22876306894E+04  0.25500000000E-02 0.  1.
         -2   -1    0    0    0  501 -0.00000000000E+00 -0.00000000000E+00 -0.37159590154E+01  0.37159598904E+01  0.25500000000E-02 0. -1.
    5000001    1    1    2    0    0 -0.35736079740E+02  0.35785476768E+02  0.11885759204E+04  0.11921406739E+04  0.77000000000E+02 0.  0.
   -5000001    1    1    2    0    0  0.35736079740E+02 -0.35785476768E+02  0.10953388100E+04  0.10992059754E+04  0.77000000000E+02 0.  0.
<mgrwt>
<rscale>  0 0.18439895E+03</rscale>
<asrwt>0</asrwt>
<pdfrwt beam="1">  1        2 0.35194256E+00 0.18439895E+03</pdfrwt>
<pdfrwt beam="2">  1       -2 0.57168709E-03 0.18439895E+03</pdfrwt>
<totfact> 0.24685822E+04</totfact>
</mgrwt>
</event>
<event>
 4    1  0.5980424E-004  0.3858405E+03  0.7818608E-02  0.1048796E+00
          2   -1    0    0  501    0  0.00000000000E+00  0.00000000000E+00  0.85225169841E+02  0.85225169879E+02  0.25500000000E-02 0.  1.
         -2   -1    0    0    0  501 -0.00000000000E+00 -0.00000000000E+00 -0.43670458957E+03  0.43670458957E+03  0.25500000000E-02 0. -1.
    5000001    1    1    2    0    0  0.13866492579E+03 -0.91783471023E+02 -0.94160551475E+02  0.20602761138E+03  0.77000000000E+02 0.  0.
   -5000001    1    1    2    0    0 -0.13866492579E+03  0.91783471023E+02 -0.25731886825E+03  0.31590214807E+03  0.77000000000E+02 0.  0.
<mgrwt>
<rscale>  0 0.38584050E+03</rscale>
<asrwt>0</asrwt>
<pdfrwt beam="1">  1        2 0.13111565E-01 0.38584050E+03</pdfrwt>
<pdfrwt beam="2">  1       -2 0.67185320E-01 0.38584050E+03</pdfrwt>
<totfact> 0.96130186E+02</totfact>
</mgrwt>
</event>
<event>
 4    1  0.5980424E-004  0.2160500E+03  0.7818608E-02  0.1136863E+00
          2   -1    0    0  501    0  0.00000000000E+00  0.00000000000E+00  0.10667706236E+04  0.10667706236E+04  0.25500000000E-02 0.  1.
         -2   -1    0    0    0  501 -0.00000000000E+00 -0.00000000000E+00 -0.10938994636E+02  0.10938994933E+02  0.25500000000E-02 0. -1.
    5000001    1    1    2    0    0  0.67434122231E+01 -0.74529661843E+02  0.58699104840E+03  0.59673078939E+03  0.77000000000E+02 0.  0.
   -5000001    1    1    2    0    0 -0.67434122231E+01  0.74529661843E+02  0.46884058051E+03  0.48097882910E+03  0.77000000000E+02 0.  0.
<mgrwt>
<rscale>  0 0.21604998E+03</rscale>
<asrwt>0</asrwt>
<pdfrwt beam="1">  1        2 0.16411855E+00 0.21604998E+03</pdfrwt>
<pdfrwt beam="2">  1       -2 0.16829224E-02 0.21604998E+03</pdfrwt>
<totfact> 0.23453312E+04</totfact>
</mgrwt>
</event>
<event>
 4    1  0.5980424E-004  0.2052875E+03  0.7818608E-02  0.1145353E+00
          2   -1    0    0  501    0  0.00000000000E+00  0.00000000000E+00  0.46319357528E+03  0.46319357529E+03  0.25500000000E-02 0.  1.
         -2   -1    0    0    0  501 -0.00000000000E+00 -0.00000000000E+00 -0.22745869067E+02  0.22745869210E+02  0.25500000000E-02 0. -1.
    5000001    1    1    2    0    0 -0.23669773399E+02  0.49810856513E+02  0.12656973904E+03  0.15808313774E+03  0.77000000000E+02 0.  0.
   -5000001    1    1    2    0    0  0.23669773399E+02 -0.49810856513E+02  0.31387796718E+03  0.32785630675E+03  0.77000000000E+02 0.  0.
<mgrwt>
<rscale>  0 0.20528751E+03</rscale>
<asrwt>0</asrwt>
<pdfrwt beam="1">  1        2 0.71260545E-01 0.20528751E+03</pdfrwt>
<pdfrwt beam="2">  1       -2 0.34993648E-02 0.20528751E+03</pdfrwt>
<totfact> 0.22166222E+04</totfact>
</mgrwt>
</event>
<event>
 4    1  0.5980424E-004  0.2259116E+03  0.7818608E-02  0.1129551E+00
          2   -1    0    0  501    0  0.00000000000E+00  0.00000000000E+00  0.49839932543E+04  0.49839932543E+04  0.25500000000E-02 0.  1.
         -2   -1    0    0    0  501 -0.00000000000E+00 -0.00000000000E+00 -0.25599975253E+01  0.25599987954E+01  0.25500000000E-02 0. -1.
    5000001    1    1    2    0    0 -0.63332758345E+01 -0.81725735113E+02  0.22583646877E+04  0.22611632557E+04  0.77000000000E+02 0.  0.
   -5000001    1    1    2    0    0  0.63332758345E+01  0.81725735113E+02  0.27230685690E+04  0.27253899974E+04  0.77000000000E+02 0.  0.
<mgrwt>
<rscale>  0 0.22591161E+03</rscale>
<asrwt>0</asrwt>
<pdfrwt beam="1">  1        2 0.76677130E+00 0.22591161E+03</pdfrwt>
<pdfrwt beam="2">  1       -2 0.39384428E-03 0.22591161E+03</pdfrwt>
<totfact> 0.44118457E+02</totfact>
</mgrwt>
</event>
<event>
 4    1  0.5980424E-004  0.5426056E+03  0.7818608E-02  0.1003220E+00
         -2   -1    0    0    0  501 -0.00000000000E+00  0.00000000000E+00  0.10204138470E+03  0.10204138473E+03  0.25500000000E-02 0. -1.
          2   -1    0    0  501    0  0.00000000000E+00 -0.00000000000E+00 -0.72132713118E+03  0.72132713118E+03  0.25500000000E-02 0.  1.
    5000001    1    1    2    0    0 -0.10092840477E+03 -0.19839719082E+03 -0.10533379263E+03  0.25801588340E+03  0.77000000000E+02 0.  0.
   -5000001    1    1    2    0    0  0.10092840477E+03  0.19839719082E+03 -0.51395195385E+03  0.56535263251E+03  0.77000000000E+02 0.  0.
<mgrwt>
<rscale>  0 0.54260564E+03</rscale>
<asrwt>0</asrwt>
<pdfrwt beam="1">  1        2 0.11097340E+00 0.54260564E+03</pdfrwt>
<pdfrwt beam="2">  1       -2 0.15698675E-01 0.54260564E+03</pdfrwt>
<totfact> 0.12828720E+03</totfact>
</mgrwt>
</event>
<event>
 4    1  0.5980424E-004  0.3318159E+03  0.7818608E-02  0.1070336E+00
         -2   -1    0    0    0  501 -0.00000000000E+00  0.00000000000E+00  0.43382106002E+02  0.43382106077E+02  0.25500000000E-02 0. -1.
          2   -1    0    0  501    0  0.00000000000E+00 -0.00000000000E+00 -0.63448837983E+03  0.63448837984E+03  0.25500000000E-02 0.  1.
    5000001    1    1    2    0    0  0.55080089817E+02  0.13261740534E+03 -0.35935119904E+03  0.39456745525E+03  0.77000000000E+02 0.  0.
   -5000001    1    1    2    0    0 -0.55080089817E+02 -0.13261740534E+03 -0.23175507479E+03  0.28330303067E+03  0.77000000000E+02 0.  0.
<mgrwt>
<rscale>  0 0.33181587E+03</rscale>
<asrwt>0</asrwt>
<pdfrwt beam="1">  1        2 0.97613590E-01 0.33181587E+03</pdfrwt>
<pdfrwt beam="2">  1       -2 0.66741706E-02 0.33181587E+03</pdfrwt>
<totfact> 0.59442654E+03</totfact>
</mgrwt>
</event>
<event>
 4    1  0.5980424E-004  0.4229242E+03  0.7818608E-02  0.1036119E+00
         -2   -1    0    0    0  501 -0.00000000000E+00  0.00000000000E+00  0.32920684848E+02  0.32920684947E+02  0.25500000000E-02 0. -1.
          2   -1    0    0  501    0  0.00000000000E+00 -0.00000000000E+00 -0.13583018621E+04  0.13583018621E+04  0.25500000000E-02 0.  1.
    5000001    1    1    2    0    0  0.19399096680E+03 -0.33714326866E+02 -0.67667653988E+03  0.70893532191E+03  0.77000000000E+02 0.  0.
   -5000001    1    1    2    0    0 -0.19399096680E+03  0.33714326866E+02 -0.64870463741E+03  0.68228722518E+03  0.77000000000E+02 0.  0.
<mgrwt>
<rscale>  0 0.42292424E+03</rscale>
<asrwt>0</asrwt>
<pdfrwt beam="1">  1        2 0.20896947E+00 0.42292424E+03</pdfrwt>
<pdfrwt beam="2">  1       -2 0.50647218E-02 0.42292424E+03</pdfrwt>
<totfact> 0.31308432E+03</totfact>
</mgrwt>
</event>
<event>
 4    1  0.5980424E-004  0.3795748E+03  0.7818608E-02  0.1051091E+00
         -2   -1    0    0    0  501 -0.00000000000E+00  0.00000000000E+00  0.76652540349E+01  0.76652544591E+01  0.25500000000E-02 0. -1.
          2   -1    0    0  501    0  0.00000000000E+00 -0.00000000000E+00 -0.46990304431E+04  0.46990304431E+04  0.25500000000E-02 0.  1.
    5000001    1    1    2    0    0  0.90694074328E+02 -0.13685527312E+03 -0.16513446797E+04  0.16612715106E+04  0.77000000000E+02 0.  0.
   -5000001    1    1    2    0    0 -0.90694074328E+02  0.13685527312E+03 -0.30400205094E+04  0.30454241870E+04  0.77000000000E+02 0.  0.
<mgrwt>
<rscale>  0 0.37957483E+03</rscale>
<asrwt>0</asrwt>
<pdfrwt beam="1">  1        2 0.72292546E+00 0.37957483E+03</pdfrwt>
<pdfrwt beam="2">  1       -2 0.11792736E-02 0.37957483E+03</pdfrwt>
<totfact> 0.17594516E+02</totfact>
</mgrwt>
</event>
<event>
 4    1  0.5980424E-004  0.2800598E+03  0.7818608E-02  0.1095656E+00
         -2   -1    0    0    0  501 -0.00000000000E+00  0.00000000000E+00  0.27752147400E+02  0.27752147517E+02  0.25500000000E-02 0. -1.
          2   -1    0    0  501    0  0.00000000000E+00 -0.00000000000E+00 -0.70655329640E+03  0.70655329640E+03  0.25500000000E-02 0.  1.
    5000001    1    1    2    0    0  0.84976517823E+02  0.80195779159E+02 -0.32577654967E+03  0.35455850278E+03  0.77000000000E+02 0.  0.
   -5000001    1    1    2    0    0 -0.84976517823E+02 -0.80195779159E+02 -0.35302459933E+03  0.37974694114E+03  0.77000000000E+02 0.  0.
<mgrwt>
<rscale>  0 0.28005979E+03</rscale>
<asrwt>0</asrwt>
<pdfrwt beam="1">  1        2 0.10870049E+00 0.28005979E+03</pdfrwt>
<pdfrwt beam="2">  1       -2 0.42695617E-02 0.28005979E+03</pdfrwt>
<totfact> 0.10293304E+04</totfact>
</mgrwt>
</event>
<event>
 4    1  0.5980424E-004  0.2544261E+03  0.7818608E-02  0.1110539E+00
         -2   -1    0    0    0  501 -0.00000000000E+00  0.00000000000E+00  0.16240658266E+02  0.16240658466E+02  0.25500000000E-02 0. -1.
          2   -1    0    0  501    0  0.00000000000E+00 -0.00000000000E+00 -0.99645952671E+03  0.99645952672E+03  0.25500000000E-02 0.  1.
    5000001    1    1    2    0    0  0.75614666365E+02  0.64306514244E+02 -0.56984067189E+03  0.58352403282E+03  0.77000000000E+02 0.  0.
   -5000001    1    1    2    0    0 -0.75614666365E+02 -0.64306514244E+02 -0.41037819656E+03  0.42917615236E+03  0.77000000000E+02 0.  0.
<mgrwt>
<rscale>  0 0.25442609E+03</rscale>
<asrwt>0</asrwt>
<pdfrwt beam="1">  1        2 0.15330142E+00 0.25442609E+03</pdfrwt>
<pdfrwt beam="2">  1       -2 0.24985636E-02 0.25442609E+03</pdfrwt>
<totfact> 0.14585498E+04</totfact>
</mgrwt>
</event>
<event>
 4    1  0.5980424E-004  0.3875348E+03  0.7818608E-02  0.1048183E+00
         -2   -1    0    0    0  501 -0.00000000000E+00  0.00000000000E+00  0.44191655865E+02  0.44191655938E+02  0.25500000000E-02 0. -1.
          2   -1    0    0  501    0  0.00000000000E+00 -0.00000000000E+00 -0.84961281261E+03  0.84961281261E+03  0.25500000000E-02 0.  1.
    5000001    1    1    2    0    0 -0.42461808163E+02 -0.16969929583E+03 -0.32919725008E+03  0.38065822678E+03  0.77000000000E+02 0.  0.
   -5000001    1    1    2    0    0  0.42461808163E+02  0.16969929583E+03 -0.47622390667E+03  0.51314624177E+03  0.77000000000E+02 0.  0.
<mgrwt>
<rscale>  0 0.38753476E+03</rscale>
<asrwt>0</asrwt>
<pdfrwt beam="1">  1        2 0.13070965E+00 0.38753476E+03</pdfrwt>
<pdfrwt beam="2">  1       -2 0.67987169E-02 0.38753476E+03</pdfrwt>
<totfact> 0.40203453E+03</totfact>
</mgrwt>
</event>
<event>
 4    1  0.5980424E-004  0.2375492E+03  0.7818608E-02  0.1121436E+00
          2   -1    0    0  501    0  0.00000000000E+00  0.00000000000E+00  0.62676159200E+03  0.62676159201E+03  0.25500000000E-02 0.  1.
         -2   -1    0    0    0  501 -0.00000000000E+00 -0.00000000000E+00 -0.22508416706E+02  0.22508416851E+02  0.25500000000E-02 0. -1.
    5000001    1    1    2    0    0 -0.16487992648E+01  0.90373829282E+02  0.29426960538E+03  0.31732278236E+03  0.77000000000E+02 0.  0.
   -5000001    1    1    2    0    0  0.16487992648E+01 -0.90373829282E+02  0.30998356992E+03  0.33194722650E+03  0.77000000000E+02 0.  0.
<mgrwt>
<rscale>  0 0.23754925E+03</rscale>
<asrwt>0</asrwt>
<pdfrwt beam="1">  1        2 0.96424848E-01 0.23754925E+03</pdfrwt>
<pdfrwt beam="2">  1       -2 0.34628338E-02 0.23754925E+03</pdfrwt>
<totfact> 0.16143986E+04</totfact>
</mgrwt>
</event>
<event>
 4    1  0.5980424E-004  0.3841559E+03  0.7818608E-02  0.1049408E+00
         -2   -1    0    0    0  501 -0.00000000000E+00  0.00000000000E+00  0.17686339529E+02  0.17686339713E+02  0.25500000000E-02 0. -1.
          2   -1    0    0  501    0  0.00000000000E+00 -0.00000000000E+00 -0.20860129348E+04  0.20860129348E+04  0.25500000000E-02 0.  1.
    5000001    1    1    2    0    0 -0.11540882763E+03 -0.12394716899E+03 -0.77251769118E+03  0.79460347431E+03  0.77000000000E+02 0.  0.
   -5000001    1    1    2    0    0  0.11540882763E+03  0.12394716899E+03 -0.12958089041E+04  0.13090958002E+04  0.77000000000E+02 0.  0.
<mgrwt>
<rscale>  0 0.38415587E+03</rscale>
<asrwt>0</asrwt>
<pdfrwt beam="1">  1        2 0.32092487E+00 0.38415587E+03</pdfrwt>
<pdfrwt beam="2">  1       -2 0.27209770E-02 0.38415587E+03</pdfrwt>
<totfact> 0.32647410E+03</totfact>
</mgrwt>
</event>
<event>
 4    1  0.5980424E-004  0.1736998E+03  0.7818608E-02  0.1174044E+00
          2   -1    0    0  501    0  0.00000000000E+00  0.00000000000E+00  0.23019581995E+03  0.23019581996E+03  0.25500000000E-02 0.  1.
         -2   -1    0    0    0  501 -0.00000000000E+00 -0.00000000000E+00 -0.32767323918E+02  0.32767324017E+02  0.25500000000E-02 0. -1.
    5000001    1    1    2    0    0  0.18403755457E+02  0.31423790025E+02  0.73033834984E+02  0.11220113122E+03  0.77000000000E+02 0.  0.
   -5000001    1    1    2    0    0 -0.18403755457E+02 -0.31423790025E+02  0.12439466105E+03  0.15076201276E+03  0.77000000000E+02 0.  0.
<mgrwt>
<rscale>  0 0.17369975E+03</rscale>
<asrwt>0</asrwt>
<pdfrwt beam="1">  1        2 0.35414741E-01 0.17369975E+03</pdfrwt>
<pdfrwt beam="2">  1       -2 0.50411269E-02 0.17369975E+03</pdfrwt>
<totfact> 0.26825430E+04</totfact>
</mgrwt>
</event>
<event>
 4    1  0.5980424E-004  0.5998878E+03  0.7818608E-02  0.9905639E-01
         -2   -1    0    0    0  501 -0.00000000000E+00  0.00000000000E+00  0.52816334419E+02  0.52816334481E+02  0.25500000000E-02 0. -1.
          2   -1    0    0  501    0  0.00000000000E+00 -0.00000000000E+00 -0.17033810029E+04  0.17033810029E+04  0.25500000000E-02 0.  1.
    5000001    1    1    2    0    0  0.26981631817E+03 -0.88569446577E+02 -0.65478095185E+03  0.71785269193E+03  0.77000000000E+02 0.  0.
   -5000001    1    1    2    0    0 -0.26981631817E+03  0.88569446577E+02 -0.99578371663E+03  0.10383446454E+04  0.77000000000E+02 0.  0.
<mgrwt>
<rscale>  0 0.59988779E+03</rscale>
<asrwt>0</asrwt>
<pdfrwt beam="1">  1        2 0.26205857E+00 0.59988779E+03</pdfrwt>
<pdfrwt beam="2">  1       -2 0.81255912E-02 0.59988779E+03</pdfrwt>
<totfact> 0.95977769E+02</totfact>
</mgrwt>
</event>
<event>
 4    1  0.5980424E-004  0.2844479E+03  0.7818608E-02  0.1093284E+00
         -2   -1    0    0    0  501 -0.00000000000E+00  0.00000000000E+00  0.17280466481E+03  0.17280466483E+03  0.25500000000E-02 0. -1.
          2   -1    0    0  501    0  0.00000000000E+00 -0.00000000000E+00 -0.11705502060E+03  0.11705502063E+03  0.25500000000E-02 0.  1.
    5000001    1    1    2    0    0  0.79720589465E+02  0.69807610974E+02 -0.28588560486E+02  0.13407005902E+03  0.77000000000E+02 0.  0.
   -5000001    1    1    2    0    0 -0.79720589465E+02 -0.69807610974E+02  0.84338204698E+02  0.15578962644E+03  0.77000000000E+02 0.  0.
<mgrwt>
<rscale>  0 0.28444791E+03</rscale>
<asrwt>0</asrwt>
<pdfrwt beam="1">  1        2 0.18008465E-01 0.28444791E+03</pdfrwt>
<pdfrwt beam="2">  1       -2 0.26585333E-01 0.28444791E+03</pdfrwt>
<totfact> 0.39793555E+03</totfact>
</mgrwt>
</event>
<event>
 4    1  0.5980424E-004  0.3585232E+03  0.7818608E-02  0.1059170E+00
         -2   -1    0    0    0  501 -0.00000000000E+00  0.00000000000E+00  0.19272496114E+03  0.19272496116E+03  0.25500000000E-02 0. -1.
          2   -1    0    0  501    0  0.00000000000E+00 -0.00000000000E+00 -0.16673879986E+03  0.16673879988E+03  0.25500000000E-02 0.  1.
    5000001    1    1    2    0    0 -0.72119486848E+02 -0.12068880853E+03 -0.67459052514E+02  0.17391587809E+03  0.77000000000E+02 0.  0.
   -5000001    1    1    2    0    0  0.72119486848E+02  0.12068880853E+03  0.93445213795E+02  0.18554788295E+03  0.77000000000E+02 0.  0.
<mgrwt>
<rscale>  0 0.35852324E+03</rscale>
<asrwt>0</asrwt>
<pdfrwt beam="1">  1        2 0.25652123E-01 0.35852324E+03</pdfrwt>
<pdfrwt beam="2">  1       -2 0.29649994E-01 0.35852324E+03</pdfrwt>
<totfact> 0.21941865E+03</totfact>
</mgrwt>
</event>
<event>
 4    1  0.5980424E-004  0.1717477E+03  0.7818608E-02  0.1176037E+00
          2   -1    0    0  501    0  0.00000000000E+00  0.00000000000E+00  0.47281332864E+02  0.47281332933E+02  0.25500000000E-02 0.  1.
         -2   -1    0    0    0  501 -0.00000000000E+00 -0.00000000000E+00 -0.15596671864E+03  0.15596671866E+03  0.25500000000E-02 0. -1.
    5000001    1    1    2    0    0 -0.34537970710E+02  0.10983936060E+02 -0.67928542822E+02  0.10888895813E+03  0.77000000000E+02 0.  0.
   -5000001    1    1    2    0    0  0.34537970710E+02 -0.10983936060E+02 -0.40756842951E+02  0.94359093465E+02  0.77000000000E+02 0.  0.
<mgrwt>
<rscale>  0 0.17174766E+03</rscale>
<asrwt>0</asrwt>
<pdfrwt beam="1">  1        2 0.72740513E-02 0.17174766E+03</pdfrwt>
<pdfrwt beam="2">  1       -2 0.23994880E-01 0.17174766E+03</pdfrwt>
<totfact> 0.13991607E+04</totfact>
</mgrwt>
</event>
<event>
 4    1  0.5980424E-004  0.2596075E+03  0.7818608E-02  0.1107379E+00
         -2   -1    0    0    0  501 -0.00000000000E+00  0.00000000000E+00  0.59012532920E+02  0.59012532975E+02  0.25500000000E-02 0. -1.
          2   -1    0    0  501    0  0.00000000000E+00 -0.00000000000E+00 -0.28551589530E+03  0.28551589531E+03  0.25500000000E-02 0.  1.
    5000001    1    1    2    0    0 -0.83636515552E+02 -0.46352537007E+02 -0.16918584742E+03  0.20903701918E+03  0.77000000000E+02 0.  0.
   -5000001    1    1    2    0    0  0.83636515552E+02  0.46352537007E+02 -0.57317514961E+02  0.13549140911E+03  0.77000000000E+02 0.  0.
<mgrwt>
<rscale>  0 0.25960752E+03</rscale>
<asrwt>0</asrwt>
<pdfrwt beam="1">  1        2 0.43925522E-01 0.25960752E+03</pdfrwt>
<pdfrwt beam="2">  1       -2 0.90788513E-02 0.25960752E+03</pdfrwt>
<totfact> 0.88320865E+03</totfact>
</mgrwt>
</event>
<event>
 4    1  0.5980424E-004  0.2244264E+03  0.7818608E-02  0.1130625E+00
         -2   -1    0    0    0  501 -0.00000000000E+00  0.00000000000E+00  0.15016515317E+02  0.15016515534E+02  0.25500000000E-02 0. -1.
          2   -1    0    0  501    0  0.00000000000E+00 -0.00000000000E+00 -0.83853050884E+03  0.83853050884E+03  0.25500000000E-02 0.  1.
    5000001    1    1    2    0    0 -0.40849575071E+02 -0.52041153420E+01 -0.14371547112E+03  0.16816333500E+03  0.77000000000E+02 0.  0.
   -5000001    1    1    2    0    0  0.40849575071E+02  0.52041153420E+01 -0.67979852240E+03  0.68538368937E+03  0.77000000000E+02 0.  0.
<mgrwt>
<rscale>  0 0.22442644E+03</rscale>
<asrwt>0</asrwt>
<pdfrwt beam="1">  1        2 0.12900466E+00 0.22442644E+03</pdfrwt>
<pdfrwt beam="2">  1       -2 0.23102338E-02 0.22442644E+03</pdfrwt>
<totfact> 0.20522465E+04</totfact>
</mgrwt>
</event>
<event>
 4    1  0.5980424E-004  0.1818162E+03  0.7818608E-02  0.1166057E+00
          2   -1    0    0  501    0  0.00000000000E+00  0.00000000000E+00  0.14379734991E+04  0.14379734991E+04  0.25500000000E-02 0.  1.
         -2   -1    0    0    0  501 -0.00000000000E+00 -0.00000000000E+00 -0.57471699295E+01  0.57471704952E+01  0.25500000000E-02 0. -1.
    5000001    1    1    2    0    0  0.24007498262E+01 -0.13842737874E+02  0.34896299085E+03  0.35763326743E+03  0.77000000000E+02 0.  0.
   -5000001    1    1    2    0    0 -0.24007498262E+01  0.13842737874E+02  0.10832633383E+04  0.10860874021E+04  0.77000000000E+02 0.  0.
<mgrwt>
<rscale>  0 0.18181615E+03</rscale>
<asrwt>0</asrwt>
<pdfrwt beam="1">  1        2 0.22122687E+00 0.18181615E+03</pdfrwt>
<pdfrwt beam="2">  1       -2 0.88417931E-03 0.18181615E+03</pdfrwt>
<totfact> 0.36615173E+04</totfact>
</mgrwt>
</event>
<event>
 4    1  0.5980424E-004  0.3857906E+03  0.7818608E-02  0.1048814E+00
          2   -1    0    0  501    0  0.00000000000E+00  0.00000000000E+00  0.10486012052E+04  0.10486012052E+04  0.25500000000E-02 0.  1.
         -2   -1    0    0    0  501 -0.00000000000E+00 -0.00000000000E+00 -0.35484032935E+02  0.35484033026E+02  0.25500000000E-02 0. -1.
    5000001    1    1    2    0    0  0.16587763539E+03  0.40287554911E+02  0.37653188194E+03  0.42052792430E+03  0.77000000000E+02 0.  0.
   -5000001    1    1    2    0    0 -0.16587763539E+03 -0.40287554911E+02  0.63658529035E+03  0.66355731395E+03  0.77000000000E+02 0.  0.
<mgrwt>
<rscale>  0 0.38579062E+03</rscale>
<asrwt>0</asrwt>
<pdfrwt beam="1">  1        2 0.16132325E+00 0.38579062E+03</pdfrwt>
<pdfrwt beam="2">  1       -2 0.54590824E-02 0.38579062E+03</pdfrwt>
<totfact> 0.42148132E+03</totfact>
</mgrwt>
</event>
<event>
 4    1  0.5980424E-004  0.2143415E+03  0.7818608E-02  0.1138173E+00
          2   -1    0    0  501    0  0.00000000000E+00  0.00000000000E+00  0.36873646923E+04  0.36873646923E+04  0.25500000000E-02 0.  1.
         -2   -1    0    0    0  501 -0.00000000000E+00 -0.00000000000E+00 -0.31148437574E+01  0.31148448011E+01  0.25500000000E-02 0. -1.
    5000001    1    1    2    0    0 -0.24943836747E+02  0.51949396088E+02  0.10280267974E+04  0.10325158744E+04  0.77000000000E+02 0.  0.
   -5000001    1    1    2    0    0  0.24943836747E+02 -0.51949396088E+02  0.26562230512E+04  0.26579636627E+04  0.77000000000E+02 0.  0.
<mgrwt>
<rscale>  0 0.21434147E+03</rscale>
<asrwt>0</asrwt>
<pdfrwt beam="1">  1        2 0.56728679E+00 0.21434147E+03</pdfrwt>
<pdfrwt beam="2">  1       -2 0.47920688E-03 0.21434147E+03</pdfrwt>
<totfact> 0.47024047E+03</totfact>
</mgrwt>
</event>
<event>
 4    1  0.5980424E-004  0.1731624E+03  0.7818608E-02  0.1174590E+00
          2   -1    0    0  501    0  0.00000000000E+00  0.00000000000E+00  0.36175485895E+03  0.36175485896E+03  0.25500000000E-02 0.  1.
         -2   -1    0    0    0  501 -0.00000000000E+00 -0.00000000000E+00 -0.20722061920E+02  0.20722062077E+02  0.25500000000E-02 0. -1.
    5000001    1    1    2    0    0  0.39152832066E+02  0.51846290954E+01  0.16447468853E+03  0.18585141325E+03  0.77000000000E+02 0.  0.
   -5000001    1    1    2    0    0 -0.39152832066E+02 -0.51846290954E+01  0.17655810850E+03  0.19662550779E+03  0.77000000000E+02 0.  0.
<mgrwt>
<rscale>  0 0.17316243E+03</rscale>
<asrwt>0</asrwt>
<pdfrwt beam="1">  1        2 0.55654590E-01 0.17316243E+03</pdfrwt>
<pdfrwt beam="2">  1       -2 0.31880097E-02 0.17316243E+03</pdfrwt>
<totfact> 0.32800270E+04</totfact>
</mgrwt>
</event>
<event>
 4    1  0.5980424E-004  0.2267485E+03  0.7818608E-02  0.1128949E+00
          2   -1    0    0  501    0  0.00000000000E+00  0.00000000000E+00  0.51013311548E+03  0.51013311548E+03  0.25500000000E-02 0.  1.
         -2   -1    0    0    0  501 -0.00000000000E+00 -0.00000000000E+00 -0.25196801535E+02  0.25196801664E+02  0.25500000000E-02 0. -1.
    5000001    1    1    2    0    0  0.24316112862E+02  0.79582288743E+02  0.24168914320E+03  0.26695927773E+03  0.77000000000E+02 0.  0.
   -5000001    1    1    2    0    0 -0.24316112862E+02 -0.79582288743E+02  0.24324717075E+03  0.26837063942E+03  0.77000000000E+02 0.  0.
<mgrwt>
<rscale>  0 0.22674852E+03</rscale>
<asrwt>0</asrwt>
<pdfrwt beam="1">  1        2 0.78482017E-01 0.22674852E+03</pdfrwt>
<pdfrwt beam="2">  1       -2 0.38764310E-02 0.22674852E+03</pdfrwt>
<totfact> 0.17207398E+04</totfact>
</mgrwt>
</event>
<event>
 4    1  0.5980424E-004  0.2653787E+03  0.7818608E-02  0.1103954E+00
          2   -1    0    0  501    0  0.00000000000E+00  0.00000000000E+00  0.11526858605E+04  0.11526858605E+04  0.25500000000E-02 0.  1.
         -2   -1    0    0    0  501 -0.00000000000E+00 -0.00000000000E+00 -0.15274295350E+02  0.15274295562E+02  0.25500000000E-02 0. -1.
    5000001    1    1    2    0    0 -0.79567511370E+02  0.44921024272E+02  0.31478908158E+03  0.33670469728E+03  0.77000000000E+02 0.  0.
   -5000001    1    1    2    0    0  0.79567511370E+02 -0.44921024272E+02  0.82262248354E+03  0.83125545876E+03  0.77000000000E+02 0.  0.
<mgrwt>
<rscale>  0 0.26537871E+03</rscale>
<asrwt>0</asrwt>
<pdfrwt beam="1">  1        2 0.17733626E+00 0.26537871E+03</pdfrwt>
<pdfrwt beam="2">  1       -2 0.23498919E-02 0.26537871E+03</pdfrwt>
<totfact> 0.12922158E+04</totfact>
</mgrwt>
</event>
<event>
 4    1  0.5980424E-004  0.5910074E+03  0.7818608E-02  0.9924240E-01
         -2   -1    0    0    0  501 -0.00000000000E+00  0.00000000000E+00  0.30331630909E+03  0.30331630910E+03  0.25500000000E-02 0. -1.
          2   -1    0    0  501    0  0.00000000000E+00 -0.00000000000E+00 -0.28789233347E+03  0.28789233349E+03  0.25500000000E-02 0.  1.
    5000001    1    1    2    0    0 -0.26928558503E+03 -0.94403645777E+01 -0.86072764474E+02  0.29315758147E+03  0.77000000000E+02 0.  0.
   -5000001    1    1    2    0    0  0.26928558503E+03  0.94403645777E+01  0.10149674009E+03  0.29805106112E+03  0.77000000000E+02 0.  0.
<mgrwt>
<rscale>  0 0.59100741E+03</rscale>
<asrwt>0</asrwt>
<pdfrwt beam="1">  1        2 0.44291128E-01 0.59100741E+03</pdfrwt>
<pdfrwt beam="2">  1       -2 0.46664048E-01 0.59100741E+03</pdfrwt>
<totfact> 0.50462895E+02</totfact>
</mgrwt>
</event>
<event>
 4    1  0.5980424E-004  0.3272389E+03  0.7818608E-02  0.1072365E+00
         -2   -1    0    0    0  501 -0.00000000000E+00  0.00000000000E+00  0.63987253831E+02  0.63987253882E+02  0.25500000000E-02 0.  1.
          2   -1    0    0  501    0  0.00000000000E+00 -0.00000000000E+00 -0.41838524371E+03  0.41838524372E+03  0.25500000000E-02 0. -1.
    5000001    1    1    2    0    0 -0.12631310013E+03 -0.69774137389E+02 -0.18360624141E+03  0.24589363838E+03  0.77000000000E+02 0.  0.
   -5000001    1    1    2    0    0  0.12631310013E+03  0.69774137389E+02 -0.17079174847E+03  0.23647885922E+03  0.77000000000E+02 0.  0.
<mgrwt>
<rscale>  0 0.32723889E+03</rscale>
<asrwt>0</asrwt>
<pdfrwt beam="1">  1        2 0.64366959E-01 0.32723889E+03</pdfrwt>
<pdfrwt beam="2">  1       -2 0.98441932E-02 0.32723889E+03</pdfrwt>
<totfact> 0.51771630E+03</totfact>
</mgrwt>
</event>
<event>
 4    1  0.5980424E-004  0.1817663E+03  0.7818608E-02  0.1166104E+00
          2   -1    0    0  501    0  0.00000000000E+00  0.00000000000E+00  0.57044643858E+03  0.57044643858E+03  0.25500000000E-02 0.  1.
         -2   -1    0    0    0  501 -0.00000000000E+00 -0.00000000000E+00 -0.14479450312E+02  0.14479450536E+02  0.25500000000E-02 0. -1.
    5000001    1    1    2    0    0 -0.28073916918E+02 -0.32475450295E+02  0.34906810472E+03  0.36002825086E+03  0.77000000000E+02 0.  0.
   -5000001    1    1    2    0    0  0.28073916918E+02  0.32475450295E+02  0.20689888354E+03  0.22489763826E+03  0.77000000000E+02 0.  0.
<mgrwt>
<rscale>  0 0.18176634E+03</rscale>
<asrwt>0</asrwt>
<pdfrwt beam="1">  1        2 0.87760994E-01 0.18176634E+03</pdfrwt>
<pdfrwt beam="2">  1       -2 0.22276077E-02 0.18176634E+03</pdfrwt>
<totfact> 0.33904785E+04</totfact>
</mgrwt>
</event>
<event>
 4    1  0.5980424E-004  0.6609730E+03  0.7818608E-02  0.9786404E-01
          2   -1    0    0  501    0  0.00000000000E+00  0.00000000000E+00  0.23669125346E+04  0.23669125346E+04  0.25500000000E-02 0.  1.
         -2   -1    0    0    0  501 -0.00000000000E+00 -0.00000000000E+00 -0.46145068005E+02  0.46145068076E+02  0.25500000000E-02 0. -1.
    5000001    1    1    2    0    0  0.90769173744E+01 -0.31392321343E+03  0.14096581974E+04  0.14462694797E+04  0.77000000000E+02 0.  0.
   -5000001    1    1    2    0    0 -0.90769173744E+01  0.31392321343E+03  0.91110926922E+03  0.96678812302E+03  0.77000000000E+02 0.  0.
<mgrwt>
<rscale>  0 0.66097304E+03</rscale>
<asrwt>0</asrwt>
<pdfrwt beam="1">  1        2 0.36414043E+00 0.66097304E+03</pdfrwt>
<pdfrwt beam="2">  1       -2 0.70992404E-02 0.66097304E+03</pdfrwt>
<totfact> 0.51480130E+02</totfact>
</mgrwt>
</event>
<event>
 4    1  0.5980424E-004  0.2363133E+03  0.7818608E-02  0.1122273E+00
         -2   -1    0    0    0  501 -0.00000000000E+00  0.00000000000E+00  0.90961990914E+01  0.90961994489E+01  0.25500000000E-02 0. -1.
          2   -1    0    0  501    0  0.00000000000E+00 -0.00000000000E+00 -0.15348159032E+04  0.15348159032E+04  0.25500000000E-02 0.  1.
    5000001    1    1    2    0    0 -0.88659508298E+02  0.12187928775E+02 -0.79414984243E+03  0.80287734197E+03  0.77000000000E+02 0.  0.
   -5000001    1    1    2    0    0  0.88659508298E+02 -0.12187928775E+02 -0.73156986170E+03  0.74103476070E+03  0.77000000000E+02 0.  0.
<mgrwt>
<rscale>  0 0.23631328E+03</rscale>
<asrwt>0</asrwt>
<pdfrwt beam="1">  1        2 0.23612532E+00 0.23631328E+03</pdfrwt>
<pdfrwt beam="2">  1       -2 0.13994165E-02 0.23631328E+03</pdfrwt>
<totfact> 0.16971949E+04</totfact>
</mgrwt>
</event>
<event>
 4    1  0.5980424E-004  0.2104367E+03  0.7818608E-02  0.1141221E+00
          2   -1    0    0  501    0  0.00000000000E+00  0.00000000000E+00  0.48697318517E+03  0.48697318518E+03  0.25500000000E-02 0.  1.
         -2   -1    0    0    0  501 -0.00000000000E+00 -0.00000000000E+00 -0.22734106134E+02  0.22734106277E+02  0.25500000000E-02 0. -1.
    5000001    1    1    2    0    0  0.51851705386E+02 -0.49012334996E+02  0.21480643685E+03  0.23908495069E+03  0.77000000000E+02 0.  0.
   -5000001    1    1    2    0    0 -0.51851705386E+02  0.49012334996E+02  0.24943264218E+03  0.27062234076E+03  0.77000000000E+02 0.  0.
<mgrwt>
<rscale>  0 0.21043669E+03</rscale>
<asrwt>0</asrwt>
<pdfrwt beam="1">  1        2 0.74918950E-01 0.21043669E+03</pdfrwt>
<pdfrwt beam="2">  1       -2 0.34975549E-02 0.21043669E+03</pdfrwt>
<totfact> 0.21028108E+04</totfact>
</mgrwt>
</event>
<event>
 4    1  0.5980424E-004  0.2758728E+03  0.7818608E-02  0.1097965E+00
          2   -1    0    0  501    0  0.00000000000E+00  0.00000000000E+00  0.12954680736E+04  0.12954680736E+04  0.25500000000E-02 0.  1.
         -2   -1    0    0    0  501 -0.00000000000E+00 -0.00000000000E+00 -0.14686930604E+02  0.14686930825E+02  0.25500000000E-02 0. -1.
    5000001    1    1    2    0    0 -0.22912900334E+02  0.11066324932E+03  0.72615066961E+03  0.73891484673E+03  0.77000000000E+02 0.  0.
   -5000001    1    1    2    0    0  0.22912900334E+02 -0.11066324932E+03  0.55463047336E+03  0.57124015767E+03  0.77000000000E+02 0.  0.
<mgrwt>
<rscale>  0 0.27587280E+03</rscale>
<asrwt>0</asrwt>
<pdfrwt beam="1">  1        2 0.19930275E+00 0.27587280E+03</pdfrwt>
<pdfrwt beam="2">  1       -2 0.22595282E-02 0.27587280E+03</pdfrwt>
<totfact> 0.11385772E+04</totfact>
</mgrwt>
</event>
<event>
 4    1  0.5980424E-004  0.1785954E+03  0.7818608E-02  0.1169169E+00
          2   -1    0    0  501    0  0.00000000000E+00  0.00000000000E+00  0.41024609319E+03  0.41024609320E+03  0.25500000000E-02 0.  1.
         -2   -1    0    0    0  501 -0.00000000000E+00 -0.00000000000E+00 -0.19437316733E+02  0.19437316900E+02  0.25500000000E-02 0. -1.
    5000001    1    1    2    0    0 -0.25659325250E+02  0.28431426466E+02  0.13754571973E+03  0.16221766858E+03  0.77000000000E+02 0.  0.
   -5000001    1    1    2    0    0  0.25659325250E+02 -0.28431426466E+02  0.25326305673E+03  0.26746574152E+03  0.77000000000E+02 0.  0.
<mgrwt>
<rscale>  0 0.17859545E+03</rscale>
<asrwt>0</asrwt>
<pdfrwt beam="1">  1        2 0.63114779E-01 0.17859545E+03</pdfrwt>
<pdfrwt beam="2">  1       -2 0.29903567E-02 0.17859545E+03</pdfrwt>
<totfact> 0.31587210E+04</totfact>
</mgrwt>
</event>
<event>
 4    1  0.5980424E-004  0.2048212E+03  0.7818608E-02  0.1145734E+00
         -2   -1    0    0    0  501 -0.00000000000E+00  0.00000000000E+00  0.67978559871E+01  0.67978564654E+01  0.25500000000E-02 0. -1.
          2   -1    0    0  501    0  0.00000000000E+00 -0.00000000000E+00 -0.15428286287E+04  0.15428286287E+04  0.25500000000E-02 0.  1.
    5000001    1    1    2    0    0 -0.35423269923E+02  0.29676747741E+02 -0.11404633740E+04  0.11439935423E+04  0.77000000000E+02 0.  0.
   -5000001    1    1    2    0    0  0.35423269923E+02 -0.29676747741E+02 -0.39556739875E+03  0.40563294289E+03  0.77000000000E+02 0.  0.
<mgrwt>
<rscale>  0 0.20482116E+03</rscale>
<asrwt>0</asrwt>
<pdfrwt beam="1">  1        2 0.23735797E+00 0.20482116E+03</pdfrwt>
<pdfrwt beam="2">  1       -2 0.10458253E-02 0.20482116E+03</pdfrwt>
<totfact> 0.25478745E+04</totfact>
</mgrwt>
</event>
<event>
 4    1  0.5980424E-004  0.4391488E+03  0.7818608E-02  0.1031008E+00
          2   -1    0    0  501    0  0.00000000000E+00  0.00000000000E+00  0.31772475200E+04  0.31772475200E+04  0.25500000000E-02 0.  1.
         -2   -1    0    0    0  501 -0.00000000000E+00 -0.00000000000E+00 -0.15174426162E+02  0.15174426376E+02  0.25500000000E-02 0. -1.
    5000001    1    1    2    0    0 -0.20089844475E+03  0.43844251955E+02  0.15724206497E+04  0.15876769832E+04  0.77000000000E+02 0.  0.
   -5000001    1    1    2    0    0  0.20089844475E+03 -0.43844251955E+02  0.15896524442E+04  0.16047449632E+04  0.77000000000E+02 0.  0.
<mgrwt>
<rscale>  0 0.43914876E+03</rscale>
<asrwt>0</asrwt>
<pdfrwt beam="1">  1        2 0.48880751E+00 0.43914876E+03</pdfrwt>
<pdfrwt beam="2">  1       -2 0.23345261E-02 0.43914876E+03</pdfrwt>
<totfact> 0.97577812E+02</totfact>
</mgrwt>
</event>
<event>
 4    1  0.5980424E-004  0.2287683E+03  0.7818608E-02  0.1127510E+00
          2   -1    0    0  501    0  0.00000000000E+00  0.00000000000E+00  0.19791231309E+04  0.19791231309E+04  0.25500000000E-02 0.  1.
         -2   -1    0    0    0  501 -0.00000000000E+00 -0.00000000000E+00 -0.66108766385E+01  0.66108771303E+01  0.25500000000E-02 0. -1.
    5000001    1    1    2    0    0 -0.68979654060E+01 -0.60592057452E+02  0.14950437597E+04  0.14982669398E+04  0.77000000000E+02 0.  0.
   -5000001    1    1    2    0    0  0.68979654060E+01  0.60592057452E+02  0.47746849456E+03  0.48746706827E+03  0.77000000000E+02 0.  0.
<mgrwt>
<rscale>  0 0.22876835E+03</rscale>
<asrwt>0</asrwt>
<pdfrwt beam="1">  1        2 0.30448017E+00 0.22876835E+03</pdfrwt>
<pdfrwt beam="2">  1       -2 0.10170590E-02 0.22876835E+03</pdfrwt>
<totfact> 0.15766724E+04</totfact>
</mgrwt>
</event>
<event>
 4    1  0.5980424E-004  0.2590707E+03  0.7818608E-02  0.1107703E+00
          2   -1    0    0  501    0  0.00000000000E+00  0.00000000000E+00  0.32911031991E+02  0.32911032090E+02  0.25500000000E-02 0.  1.
         -2   -1    0    0    0  501 -0.00000000000E+00 -0.00000000000E+00 -0.50984147785E+03  0.50984147786E+03  0.25500000000E-02 0. -1.
    5000001    1    1    2    0    0 -0.44241717185E+02  0.79512741599E+02 -0.34468807591E+03  0.36471697971E+03  0.77000000000E+02 0.  0.
   -5000001    1    1    2    0    0  0.44241717185E+02 -0.79512741599E+02 -0.13224236995E+03  0.17803553024E+03  0.77000000000E+02 0.  0.
<mgrwt>
<rscale>  0 0.25907072E+03</rscale>
<asrwt>0</asrwt>
<pdfrwt beam="1">  1        2 0.50632361E-02 0.25907072E+03</pdfrwt>
<pdfrwt beam="2">  1       -2 0.78437144E-01 0.25907072E+03</pdfrwt>
<totfact> 0.22894143E+03</totfact>
</mgrwt>
</event>
<event>
 4    1  0.5980424E-004  0.2073802E+03  0.7818608E-02  0.1143658E+00
         -2   -1    0    0    0  501 -0.00000000000E+00  0.00000000000E+00  0.15832271663E+02  0.15832271868E+02  0.25500000000E-02 0. -1.
          2   -1    0    0  501    0  0.00000000000E+00 -0.00000000000E+00 -0.67909618723E+03  0.67909618723E+03  0.25500000000E-02 0.  1.
    5000001    1    1    2    0    0  0.63403072996E+02 -0.28160917468E+02 -0.34204078407E+03  0.35739877575E+03  0.77000000000E+02 0.  0.
   -5000001    1    1    2    0    0 -0.63403072996E+02  0.28160917468E+02 -0.32122313150E+03  0.33752968336E+03  0.77000000000E+02 0.  0.
<mgrwt>
<rscale>  0 0.20738019E+03</rscale>
<asrwt>0</asrwt>
<pdfrwt beam="1">  1        2 0.10447631E+00 0.20738019E+03</pdfrwt>
<pdfrwt beam="2">  1       -2 0.24357346E-02 0.20738019E+03</pdfrwt>
<totfact> 0.24528382E+04</totfact>
</mgrwt>
</event>
<event>
 4    1  0.5980424E-004  0.1714666E+03  0.7818608E-02  0.1176327E+00
         -2   -1    0    0    0  501 -0.00000000000E+00  0.00000000000E+00  0.53459336069E+02  0.53459336130E+02  0.25500000000E-02 0. -1.
          2   -1    0    0  501    0  0.00000000000E+00 -0.00000000000E+00 -0.13749138132E+03  0.13749138134E+03  0.25500000000E-02 0.  1.
    5000001    1    1    2    0    0 -0.47590684988E+01  0.32622295538E+02 -0.62378599992E+02  0.10443635687E+03  0.77000000000E+02 0.  0.
   -5000001    1    1    2    0    0  0.47590684988E+01 -0.32622295538E+02 -0.21653445259E+02  0.86514360604E+02  0.77000000000E+02 0.  0.
<mgrwt>
<rscale>  0 0.17146659E+03</rscale>
<asrwt>0</asrwt>
<pdfrwt beam="1">  1        2 0.21152520E-01 0.17146659E+03</pdfrwt>
<pdfrwt beam="2">  1       -2 0.82245133E-02 0.17146659E+03</pdfrwt>
<totfact> 0.22330641E+04</totfact>
</mgrwt>
</event>
<event>
 4    1  0.5980424E-004  0.3900641E+03  0.7818608E-02  0.1047275E+00
         -2   -1    0    0    0  501 -0.00000000000E+00  0.00000000000E+00  0.75638701472E+03  0.75638701472E+03  0.25500000000E-02 0. -1.
          2   -1    0    0  501    0  0.00000000000E+00 -0.00000000000E+00 -0.50288399460E+02  0.50288399524E+02  0.25500000000E-02 0.  1.
    5000001    1    1    2    0    0 -0.71374988502E+02  0.16276415672E+03  0.30580275461E+03  0.36198188411E+03  0.77000000000E+02 0.  0.
   -5000001    1    1    2    0    0  0.71374988502E+02 -0.16276415672E+03  0.40029586065E+03  0.44469353014E+03  0.77000000000E+02 0.  0.
<mgrwt>
<rscale>  0 0.39006406E+03</rscale>
<asrwt>0</asrwt>
<pdfrwt beam="1">  1        2 0.77366770E-02 0.39006406E+03</pdfrwt>
<pdfrwt beam="2">  1       -2 0.11636723E+00 0.39006406E+03</pdfrwt>
<totfact> 0.53402915E+02</totfact>
</mgrwt>
</event>
<event>
 4    1  0.5980424E-004  0.2240553E+03  0.7818608E-02  0.1130895E+00
          2   -1    0    0  501    0  0.00000000000E+00  0.00000000000E+00  0.25858429438E+04  0.25858429438E+04  0.25500000000E-02 0.  1.
         -2   -1    0    0    0  501 -0.00000000000E+00 -0.00000000000E+00 -0.48534229249E+01  0.48534235948E+01  0.25500000000E-02 0. -1.
    5000001    1    1    2    0    0  0.78549609222E+02  0.13175064578E+02  0.10978553372E+04  0.11034305438E+04  0.77000000000E+02 0.  0.
   -5000001    1    1    2    0    0 -0.78549609222E+02 -0.13175064578E+02  0.14831341836E+04  0.14872658236E+04  0.77000000000E+02 0.  0.
<mgrwt>
<rscale>  0 0.22405526E+03</rscale>
<asrwt>0</asrwt>
<pdfrwt beam="1">  1        2 0.39782209E+00 0.22405526E+03</pdfrwt>
<pdfrwt beam="2">  1       -2 0.74668032E-03 0.22405526E+03</pdfrwt>
<totfact> 0.11686883E+04</totfact>
</mgrwt>
</event>
<event>
 4    1  0.5980424E-004  0.3503137E+03  0.7818608E-02  0.1062486E+00
         -2   -1    0    0    0  501 -0.00000000000E+00  0.00000000000E+00  0.23436240015E+02  0.23436240154E+02  0.25500000000E-02 0. -1.
          2   -1    0    0  501    0  0.00000000000E+00 -0.00000000000E+00 -0.13090802801E+04  0.13090802801E+04  0.25500000000E-02 0.  1.
    5000001    1    1    2    0    0  0.86329546226E+02  0.86659382619E+02 -0.10191519000E+04  0.10293503944E+04  0.77000000000E+02 0.  0.
   -5000001    1    1    2    0    0 -0.86329546226E+02 -0.86659382619E+02 -0.26649214007E+03  0.30316612586E+03  0.77000000000E+02 0.  0.
<mgrwt>
<rscale>  0 0.35031369E+03</rscale>
<asrwt>0</asrwt>
<pdfrwt beam="1">  1        2 0.20139691E+00 0.35031369E+03</pdfrwt>
<pdfrwt beam="2">  1       -2 0.36055764E-02 0.35031369E+03</pdfrwt>
<totfact> 0.55946060E+03</totfact>
</mgrwt>
</event>
<event>
 4    1  0.5980424E-004  0.2161345E+03  0.7818608E-02  0.1136798E+00
         -2   -1    0    0    0  501 -0.00000000000E+00  0.00000000000E+00  0.72857320324E+02  0.72857320369E+02  0.25500000000E-02 0. -1.
          2   -1    0    0  501    0  0.00000000000E+00 -0.00000000000E+00 -0.16029317059E+03  0.16029317061E+03  0.25500000000E-02 0.  1.
    5000001    1    1    2    0    0  0.32947734919E+01  0.67731633998E+02 -0.80316903920E+02  0.13030055576E+03  0.77000000000E+02 0.  0.
   -5000001    1    1    2    0    0 -0.32947734919E+01 -0.67731633998E+02 -0.71189463410E+01  0.10284993521E+03  0.77000000000E+02 0.  0.
<mgrwt>
<rscale>  0 0.21613450E+03</rscale>
<asrwt>0</asrwt>
<pdfrwt beam="1">  1        2 0.24660488E-01 0.21613450E+03</pdfrwt>
<pdfrwt beam="2">  1       -2 0.11208819E-01 0.21613450E+03</pdfrwt>
<totfact> 0.11743704E+04</totfact>
</mgrwt>
</event>
<event>
 4    1  0.5980424E-004  0.3756011E+03  0.7818608E-02  0.1052572E+00
          2   -1    0    0  501    0  0.00000000000E+00  0.00000000000E+00  0.10617763981E+04  0.10617763981E+04  0.25500000000E-02 0.  1.
         -2   -1    0    0    0  501 -0.00000000000E+00 -0.00000000000E+00 -0.33217013343E+02  0.33217013441E+02  0.25500000000E-02 0. -1.
    5000001    1    1    2    0    0  0.12878188065E+03 -0.11281005607E+03  0.53002217671E+03  0.56228408241E+03  0.77000000000E+02 0.  0.
   -5000001    1    1    2    0    0 -0.12878188065E+03  0.11281005607E+03  0.49853720809E+03  0.53270932918E+03  0.77000000000E+02 0.  0.
<mgrwt>
<rscale>  0 0.37560107E+03</rscale>
<asrwt>0</asrwt>
<pdfrwt beam="1">  1        2 0.16335021E+00 0.37560107E+03</pdfrwt>
<pdfrwt beam="2">  1       -2 0.51103099E-02 0.37560107E+03</pdfrwt>
<totfact> 0.45791059E+03</totfact>
</mgrwt>
</event>
<event>
 4    1  0.5980424E-004  0.4075784E+03  0.7818608E-02  0.1041187E+00
         -2   -1    0    0    0  501 -0.00000000000E+00  0.00000000000E+00  0.10422824999E+03  0.10422825002E+03  0.25500000000E-02 0. -1.
          2   -1    0    0  501    0  0.00000000000E+00 -0.00000000000E+00 -0.39845271614E+03  0.39845271614E+03  0.25500000000E-02 0.  1.
    5000001    1    1    2    0    0  0.12622072534E+03 -0.19124175558E+02  0.24244332154E+02  0.15104367990E+03  0.77000000000E+02 0.  0.
   -5000001    1    1    2    0    0 -0.12622072534E+03  0.19124175558E+02 -0.31846879830E+03  0.35163728626E+03  0.77000000000E+02 0.  0.
<mgrwt>
<rscale>  0 0.40757836E+03</rscale>
<asrwt>0</asrwt>
<pdfrwt beam="1">  1        2 0.61300417E-01 0.40757836E+03</pdfrwt>
<pdfrwt beam="2">  1       -2 0.16035116E-01 0.40757836E+03</pdfrwt>
<totfact> 0.24701947E+03</totfact>
</mgrwt>
</event>
<event>
 4    1  0.5980424E-004  0.1893197E+03  0.7818608E-02  0.1159076E+00
         -2   -1    0    0    0  501 -0.00000000000E+00  0.00000000000E+00  0.69250159195E+01  0.69250163890E+01  0.25500000000E-02 0. -1.
          2   -1    0    0  501    0  0.00000000000E+00 -0.00000000000E+00 -0.12939302204E+04  0.12939302204E+04  0.25500000000E-02 0.  1.
    5000001    1    1    2    0    0 -0.34447936409E+02  0.42935245584E+02 -0.65160959665E+03  0.65844829871E+03  0.77000000000E+02 0.  0.
   -5000001    1    1    2    0    0  0.34447936409E+02 -0.42935245584E+02 -0.63539560779E+03  0.64240693803E+03  0.77000000000E+02 0.  0.
<mgrwt>
<rscale>  0 0.18931971E+03</rscale>
<asrwt>0</asrwt>
<pdfrwt beam="1">  1        2 0.19906600E+00 0.18931971E+03</pdfrwt>
<pdfrwt beam="2">  1       -2 0.10653881E-02 0.18931971E+03</pdfrwt>
<totfact> 0.33567331E+04</totfact>
</mgrwt>
</event>
<event>
 4    1  0.5980424E-004  0.2433994E+03  0.7818608E-02  0.1117549E+00
          2   -1    0    0  501    0  0.00000000000E+00  0.00000000000E+00  0.17302646194E+02  0.17302646382E+02  0.25500000000E-02 0.  1.
         -2   -1    0    0    0  501 -0.00000000000E+00 -0.00000000000E+00 -0.85598569396E+03  0.85598569396E+03  0.25500000000E-02 0. -1.
    5000001    1    1    2    0    0 -0.56347820058E+02  0.51609609523E+02 -0.61726741818E+03  0.62672696940E+03  0.77000000000E+02 0.  0.
   -5000001    1    1    2    0    0  0.56347820058E+02 -0.51609609523E+02 -0.22141562958E+03  0.24656137095E+03  0.77000000000E+02 0.  0.
<mgrwt>
<rscale>  0 0.24339941E+03</rscale>
<asrwt>0</asrwt>
<pdfrwt beam="1">  1        2 0.26619463E-02 0.24339941E+03</pdfrwt>
<pdfrwt beam="2">  1       -2 0.13169007E+00 0.24339941E+03</pdfrwt>
<totfact> 0.16206249E+03</totfact>
</mgrwt>
</event>
<event>
 4    1  0.5980424E-004  0.3880117E+03  0.7818608E-02  0.1048012E+00
          2   -1    0    0  501    0  0.00000000000E+00  0.00000000000E+00  0.82322539135E+02  0.82322539175E+02  0.25500000000E-02 0.  1.
         -2   -1    0    0    0  501 -0.00000000000E+00 -0.00000000000E+00 -0.45720492179E+03  0.45720492180E+03  0.25500000000E-02 0. -1.
    5000001    1    1    2    0    0  0.16875677656E+03 -0.53563192261E+02 -0.21387536484E+03  0.28813111059E+03  0.77000000000E+02 0.  0.
   -5000001    1    1    2    0    0 -0.16875677656E+03  0.53563192261E+02 -0.16100701781E+03  0.25139635038E+03  0.77000000000E+02 0.  0.
<mgrwt>
<rscale>  0 0.38801170E+03</rscale>
<asrwt>0</asrwt>
<pdfrwt beam="1">  1        2 0.12665006E-01 0.38801170E+03</pdfrwt>
<pdfrwt beam="2">  1       -2 0.70339217E-01 0.38801170E+03</pdfrwt>
<totfact> 0.90875273E+02</totfact>
</mgrwt>
</event>
<event>
 4    1  0.5980424E-004  0.2084668E+03  0.7818608E-02  0.1142786E+00
         -2   -1    0    0    0  501 -0.00000000000E+00  0.00000000000E+00  0.76498843451E+03  0.76498843451E+03  0.25500000000E-02 0. -1.
          2   -1    0    0  501    0  0.00000000000E+00 -0.00000000000E+00 -0.14202305444E+02  0.14202305673E+02  0.25500000000E-02 0.  1.
    5000001    1    1    2    0    0  0.41582942523E+01 -0.69357590376E+02  0.33657961375E+03  0.35219682444E+03  0.77000000000E+02 0.  0.
   -5000001    1    1    2    0    0 -0.41582942523E+01  0.69357590376E+02  0.41420651531E+03  0.42699391574E+03  0.77000000000E+02 0.  0.
<mgrwt>
<rscale>  0 0.20846678E+03</rscale>
<asrwt>0</asrwt>
<pdfrwt beam="1">  1        2 0.21849693E-02 0.20846678E+03</pdfrwt>
<pdfrwt beam="2">  1       -2 0.11769057E+00 0.20846678E+03</pdfrwt>
<totfact> 0.27748860E+03</totfact>
</mgrwt>
</event>
<event>
 4    1  0.5980424E-004  0.6500043E+03  0.7818608E-02  0.9806771E-01
         -2   -1    0    0    0  501 -0.00000000000E+00  0.00000000000E+00  0.35742075009E+02  0.35742075100E+02  0.25500000000E-02 0. -1.
          2   -1    0    0  501    0  0.00000000000E+00 -0.00000000000E+00 -0.29552392931E+04  0.29552392931E+04  0.25500000000E-02 0.  1.
    5000001    1    1    2    0    0 -0.13196606413E+03 -0.20543977180E+03 -0.23809280877E+04  0.23946540670E+04  0.77000000000E+02 0.  0.
   -5000001    1    1    2    0    0  0.13196606413E+03  0.20543977180E+03 -0.53856913040E+03  0.59632730118E+03  0.77000000000E+02 0.  0.
<mgrwt>
<rscale>  0 0.65000426E+03</rscale>
<asrwt>0</asrwt>
<pdfrwt beam="1">  1        2 0.45465201E+00 0.65000426E+03</pdfrwt>
<pdfrwt beam="2">  1       -2 0.54987831E-02 0.65000426E+03</pdfrwt>
<totfact> 0.35207755E+02</totfact>
</mgrwt>
</event>
<event>
 4    1  0.5980424E-004  0.3076758E+03  0.7818608E-02  0.1081465E+00
         -2   -1    0    0    0  501 -0.00000000000E+00  0.00000000000E+00  0.66048972795E+02  0.66048972845E+02  0.25500000000E-02 0. -1.
          2   -1    0    0  501    0  0.00000000000E+00 -0.00000000000E+00 -0.35831136272E+03  0.35831136273E+03  0.25500000000E-02 0.  1.
    5000001    1    1    2    0    0 -0.85913303630E+02 -0.68020946543E+02 -0.25052786772E+03  0.28407949136E+03  0.77000000000E+02 0.  0.
   -5000001    1    1    2    0    0  0.85913303630E+02  0.68020946543E+02 -0.41734522208E+02  0.14028084421E+03  0.77000000000E+02 0.  0.
<mgrwt>
<rscale>  0 0.30767579E+03</rscale>
<asrwt>0</asrwt>
<pdfrwt beam="1">  1        2 0.55124824E-01 0.30767579E+03</pdfrwt>
<pdfrwt beam="2">  1       -2 0.10161381E-01 0.30767579E+03</pdfrwt>
<totfact> 0.58183255E+03</totfact>
</mgrwt>
</event>
<event>
 4    1  0.5980424E-004  0.2200791E+03  0.7818608E-02  0.1133824E+00
          2   -1    0    0  501    0  0.00000000000E+00  0.00000000000E+00  0.16204619094E+03  0.16204619096E+03  0.25500000000E-02 0.  1.
         -2   -1    0    0    0  501 -0.00000000000E+00 -0.00000000000E+00 -0.74723782619E+02  0.74723782662E+02  0.25500000000E-02 0. -1.
    5000001    1    1    2    0    0  0.28587257430E+02 -0.47967367674E+02 -0.15866941006E+02  0.96430594034E+02  0.77000000000E+02 0.  0.
   -5000001    1    1    2    0    0 -0.28587257430E+02  0.47967367674E+02  0.10318934933E+03  0.14033937959E+03  0.77000000000E+02 0.  0.
<mgrwt>
<rscale>  0 0.22007912E+03</rscale>
<asrwt>0</asrwt>
<pdfrwt beam="1">  1        2 0.24930183E-01 0.22007912E+03</pdfrwt>
<pdfrwt beam="2">  1       -2 0.11495967E-01 0.22007912E+03</pdfrwt>
<totfact> 0.11154008E+04</totfact>
</mgrwt>
</event>
<event>
 4    1  0.5980424E-004  0.2658540E+03  0.7818608E-02  0.1103676E+00
         -2   -1    0    0    0  501 -0.00000000000E+00  0.00000000000E+00  0.15776478458E+03  0.15776478460E+03  0.25500000000E-02 0. -1.
          2   -1    0    0  501    0  0.00000000000E+00 -0.00000000000E+00 -0.11199959050E+03  0.11199959053E+03  0.25500000000E-02 0.  1.
    5000001    1    1    2    0    0 -0.10637357564E+03  0.19306260244E+02  0.15528794567E+02  0.13363462403E+03  0.77000000000E+02 0.  0.
   -5000001    1    1    2    0    0  0.10637357564E+03 -0.19306260244E+02  0.30236399509E+02  0.13612975110E+03  0.77000000000E+02 0.  0.
<mgrwt>
<rscale>  0 0.26585403E+03</rscale>
<asrwt>0</asrwt>
<pdfrwt beam="1">  1        2 0.17230706E-01 0.26585403E+03</pdfrwt>
<pdfrwt beam="2">  1       -2 0.24271505E-01 0.26585403E+03</pdfrwt>
<totfact> 0.49100446E+03</totfact>
</mgrwt>
</event>
<event>
 4    1  0.5980424E-004  0.3210909E+03  0.7818608E-02  0.1075148E+00
         -2   -1    0    0    0  501 -0.00000000000E+00  0.00000000000E+00  0.32644126941E+02  0.32644127041E+02  0.25500000000E-02 0. -1.
          2   -1    0    0  501    0  0.00000000000E+00 -0.00000000000E+00 -0.78957074525E+03  0.78957074525E+03  0.25500000000E-02 0.  1.
    5000001    1    1    2    0    0 -0.12790264555E+03  0.42596507320E+02 -0.48317958287E+03  0.50750867823E+03  0.77000000000E+02 0.  0.
   -5000001    1    1    2    0    0  0.12790264555E+03 -0.42596507320E+02 -0.27374703544E+03  0.31470619407E+03  0.77000000000E+02 0.  0.
<mgrwt>
<rscale>  0 0.32109094E+03</rscale>
<asrwt>0</asrwt>
<pdfrwt beam="1">  1        2 0.12147241E+00 0.32109094E+03</pdfrwt>
<pdfrwt beam="2">  1       -2 0.50221740E-02 0.32109094E+03</pdfrwt>
<totfact> 0.70331250E+03</totfact>
</mgrwt>
</event>
<event>
 4    1  0.5980424E-004  0.2461941E+03  0.7818608E-02  0.1115734E+00
         -2   -1    0    0    0  501 -0.00000000000E+00  0.00000000000E+00  0.87180996807E+01  0.87181000537E+01  0.25500000000E-02 0. -1.
          2   -1    0    0  501    0  0.00000000000E+00 -0.00000000000E+00 -0.17380946290E+04  0.17380946290E+04  0.25500000000E-02 0.  1.
    5000001    1    1    2    0    0  0.87986679850E+02 -0.36449122800E+02 -0.95264901958E+03  0.96048911961E+03  0.77000000000E+02 0.  0.
   -5000001    1    1    2    0    0 -0.87986679850E+02  0.36449122800E+02 -0.77672750971E+03  0.78632360942E+03  0.77000000000E+02 0.  0.
<mgrwt>
<rscale>  0 0.24619409E+03</rscale>
<asrwt>0</asrwt>
<pdfrwt beam="1">  1        2 0.26739890E+00 0.24619409E+03</pdfrwt>
<pdfrwt beam="2">  1       -2 0.13412475E-02 0.24619409E+03</pdfrwt>
<totfact> 0.14129463E+04</totfact>
</mgrwt>
</event>
<event>
 4    1  0.5980424E-004  0.2666457E+03  0.7818608E-02  0.1103215E+00
          2   -1    0    0  501    0  0.00000000000E+00  0.00000000000E+00  0.14988608751E+04  0.14988608751E+04  0.25500000000E-02 0.  1.
         -2   -1    0    0    0  501 -0.00000000000E+00 -0.00000000000E+00 -0.11858995088E+02  0.11858995362E+02  0.25500000000E-02 0. -1.
    5000001    1    1    2    0    0 -0.74222420529E+02  0.78779739597E+02  0.80828997994E+03  0.81913180060E+03  0.77000000000E+02 0.  0.
   -5000001    1    1    2    0    0  0.74222420529E+02 -0.78779739597E+02  0.67871190005E+03  0.69158806984E+03  0.77000000000E+02 0.  0.
<mgrwt>
<rscale>  0 0.26664571E+03</rscale>
<asrwt>0</asrwt>
<pdfrwt beam="1">  1        2 0.23059389E+00 0.26664571E+03</pdfrwt>
<pdfrwt beam="2">  1       -2 0.18244615E-02 0.26664571E+03</pdfrwt>
<totfact> 0.12081289E+04</totfact>
</mgrwt>
</event>
<event>
 4    1  0.5980424E-004  0.2355433E+03  0.7818608E-02  0.1122798E+00
         -2   -1    0    0    0  501 -0.00000000000E+00  0.00000000000E+00  0.22625302708E+02  0.22625302852E+02  0.25500000000E-02 0. -1.
          2   -1    0    0  501    0  0.00000000000E+00 -0.00000000000E+00 -0.61303742743E+03  0.61303742743E+03  0.25500000000E-02 0.  1.
    5000001    1    1    2    0    0  0.30674572527E+01  0.85407407362E+02 -0.22707646599E+03  0.25455167635E+03  0.77000000000E+02 0.  0.
   -5000001    1    1    2    0    0 -0.30674572527E+01 -0.85407407362E+02 -0.36333565873E+03  0.38111105394E+03  0.77000000000E+02 0.  0.
<mgrwt>
<rscale>  0 0.23554326E+03</rscale>
<asrwt>0</asrwt>
<pdfrwt beam="1">  1        2 0.94313438E-01 0.23554326E+03</pdfrwt>
<pdfrwt beam="2">  1       -2 0.34808163E-02 0.23554326E+03</pdfrwt>
<totfact> 0.16431569E+04</totfact>
</mgrwt>
</event>
<event>
 4    1  0.5980424E-004  0.3004292E+03  0.7818608E-02  0.1085026E+00
         -2   -1    0    0    0  501 -0.00000000000E+00  0.00000000000E+00  0.17458501037E+03  0.17458501039E+03  0.25500000000E-02 0. -1.
          2   -1    0    0  501    0  0.00000000000E+00 -0.00000000000E+00 -0.12924605400E+03  0.12924605403E+03  0.25500000000E-02 0.  1.
    5000001    1    1    2    0    0 -0.12529236672E+03  0.29416769607E+02  0.14094064399E+02  0.15063587270E+03  0.77000000000E+02 0.  0.
   -5000001    1    1    2    0    0  0.12529236672E+03 -0.29416769607E+02  0.31244891968E+02  0.15319519172E+03  0.77000000000E+02 0.  0.
<mgrwt>
<rscale>  0 0.30042918E+03</rscale>
<asrwt>0</asrwt>
<pdfrwt beam="1">  1        2 0.19884008E-01 0.30042918E+03</pdfrwt>
<pdfrwt beam="2">  1       -2 0.26859232E-01 0.30042918E+03</pdfrwt>
<totfact> 0.34899953E+03</totfact>
</mgrwt>
</event>
<event>
 4    1  0.5980424E-004  0.1889566E+03  0.7818608E-02  0.1159406E+00
         -2   -1    0    0    0  501 -0.00000000000E+00  0.00000000000E+00  0.17127740251E+03  0.17127740253E+03  0.25500000000E-02 0. -1.
          2   -1    0    0  501    0  0.00000000000E+00 -0.00000000000E+00 -0.52115134359E+02  0.52115134421E+02  0.25500000000E-02 0.  1.
    5000001    1    1    2    0    0  0.54435997964E+02 -0.95991343471E+00  0.66366996484E+02  0.11531598992E+03  0.77000000000E+02 0.  0.
   -5000001    1    1    2    0    0 -0.54435997964E+02  0.95991343471E+00  0.52795271667E+02  0.10807654703E+03  0.77000000000E+02 0.  0.
<mgrwt>
<rscale>  0 0.18895655E+03</rscale>
<asrwt>0</asrwt>
<pdfrwt beam="1">  1        2 0.80177130E-02 0.18895655E+03</pdfrwt>
<pdfrwt beam="2">  1       -2 0.26350370E-01 0.18895655E+03</pdfrwt>
<totfact> 0.10571272E+04</totfact>
</mgrwt>
</event>
<event>
 4    1  0.5980424E-004  0.1955806E+03  0.7818608E-02  0.1153522E+00
         -2   -1    0    0    0  501 -0.00000000000E+00  0.00000000000E+00  0.21696073112E+02  0.21696073262E+02  0.25500000000E-02 0. -1.
          2   -1    0    0  501    0  0.00000000000E+00 -0.00000000000E+00 -0.44076816177E+03  0.44076816178E+03  0.25500000000E-02 0.  1.
    5000001    1    1    2    0    0 -0.59424174733E+02 -0.81142055521E+01 -0.22389299151E+03  0.24424197944E+03  0.77000000000E+02 0.  0.
   -5000001    1    1    2    0    0  0.59424174733E+02  0.81142055521E+01 -0.19517909715E+03  0.21822225559E+03  0.77000000000E+02 0.  0.
<mgrwt>
<rscale>  0 0.19558055E+03</rscale>
<asrwt>0</asrwt>
<pdfrwt beam="1">  1        2 0.67810480E-01 0.19558055E+03</pdfrwt>
<pdfrwt beam="2">  1       -2 0.33378577E-02 0.19558055E+03</pdfrwt>
<totfact> 0.25018131E+04</totfact>
</mgrwt>
</event>
<event>
 4    1  0.5980424E-004  0.2607541E+03  0.7818608E-02  0.1106691E+00
          2   -1    0    0  501    0  0.00000000000E+00  0.00000000000E+00  0.36855488710E+03  0.36855488711E+03  0.25500000000E-02 0.  1.
         -2   -1    0    0    0  501 -0.00000000000E+00 -0.00000000000E+00 -0.46121144283E+02  0.46121144354E+02  0.25500000000E-02 0. -1.
    5000001    1    1    2    0    0 -0.74677478138E+02  0.73286465938E+02  0.14368453603E+03  0.19370564711E+03  0.77000000000E+02 0.  0.
   -5000001    1    1    2    0    0  0.74677478138E+02 -0.73286465938E+02  0.17874920679E+03  0.22097038434E+03  0.77000000000E+02 0.  0.
<mgrwt>
<rscale>  0 0.26075408E+03</rscale>
<asrwt>0</asrwt>
<pdfrwt beam="1">  1        2 0.56700750E-01 0.26075408E+03</pdfrwt>
<pdfrwt beam="2">  1       -2 0.70955608E-02 0.26075408E+03</pdfrwt>
<totfact> 0.98626259E+03</totfact>
</mgrwt>
</event>
<event>
 4    1  0.5980424E-004  0.2578748E+03  0.7818608E-02  0.1108427E+00
         -2   -1    0    0    0  501 -0.00000000000E+00  0.00000000000E+00  0.11330554408E+02  0.11330554695E+02  0.25500000000E-02 0. -1.
          2   -1    0    0  501    0  0.00000000000E+00 -0.00000000000E+00 -0.14672585696E+04  0.14672585696E+04  0.25500000000E-02 0.  1.
    5000001    1    1    2    0    0  0.91169231845E+02  0.48645431576E+02 -0.70387788435E+03  0.71557758693E+03  0.77000000000E+02 0.  0.
   -5000001    1    1    2    0    0 -0.91169231845E+02 -0.48645431576E+02 -0.75205013089E+03  0.76301153740E+03  0.77000000000E+02 0.  0.
<mgrwt>
<rscale>  0 0.25787480E+03</rscale>
<asrwt>0</asrwt>
<pdfrwt beam="1">  1        2 0.22573194E+00 0.25787480E+03</pdfrwt>
<pdfrwt beam="2">  1       -2 0.17431634E-02 0.25787480E+03</pdfrwt>
<totfact> 0.13417726E+04</totfact>
</mgrwt>
</event>
<event>
 4    1  0.5980424E-004  0.5930475E+03  0.7818608E-02  0.9919936E-01
         -2   -1    0    0    0  501 -0.00000000000E+00  0.00000000000E+00  0.98900502512E+02  0.98900502545E+02  0.25500000000E-02 0. -1.
          2   -1    0    0  501    0  0.00000000000E+00 -0.00000000000E+00 -0.88903836398E+03  0.88903836399E+03  0.25500000000E-02 0.  1.
    5000001    1    1    2    0    0  0.23318033534E+03 -0.13874837027E+03 -0.24263371123E+03  0.37205415851E+03  0.77000000000E+02 0.  0.
   -5000001    1    1    2    0    0 -0.23318033534E+03  0.13874837027E+03 -0.54750415025E+03  0.61588470802E+03  0.77000000000E+02 0.  0.
<mgrwt>
<rscale>  0 0.59304752E+03</rscale>
<asrwt>0</asrwt>
<pdfrwt beam="1">  1        2 0.13677513E+00 0.59304752E+03</pdfrwt>
<pdfrwt beam="2">  1       -2 0.15215462E-01 0.59304752E+03</pdfrwt>
<totfact> 0.10265791E+03</totfact>
</mgrwt>
</event>
<event>
 4    1  0.5980424E-004  0.4269010E+03  0.7818608E-02  0.1034843E+00
          2   -1    0    0  501    0  0.00000000000E+00  0.00000000000E+00  0.20205086473E+03  0.20205086474E+03  0.25500000000E-02 0.  1.
         -2   -1    0    0    0  501 -0.00000000000E+00 -0.00000000000E+00 -0.22549333335E+03  0.22549333336E+03  0.25500000000E-02 0. -1.
    5000001    1    1    2    0    0 -0.11945944958E+03 -0.11915605767E+03  0.94094924679E+02  0.20797014455E+03  0.77000000000E+02 0.  0.
   -5000001    1    1    2    0    0  0.11945944958E+03  0.11915605767E+03 -0.11753739330E+03  0.21957405356E+03  0.77000000000E+02 0.  0.
<mgrwt>
<rscale>  0 0.42690103E+03</rscale>
<asrwt>0</asrwt>
<pdfrwt beam="1">  1        2 0.31084748E-01 0.42690103E+03</pdfrwt>
<pdfrwt beam="2">  1       -2 0.34691282E-01 0.42690103E+03</pdfrwt>
<totfact> 0.13265672E+03</totfact>
</mgrwt>
</event>
<event>
 4    1  0.5980424E-004  0.2408346E+03  0.7818608E-02  0.1119238E+00
          2   -1    0    0  501    0  0.00000000000E+00  0.00000000000E+00  0.62534505121E+03  0.62534505122E+03  0.25500000000E-02 0.  1.
         -2   -1    0    0    0  501 -0.00000000000E+00 -0.00000000000E+00 -0.23187724316E+02  0.23187724456E+02  0.25500000000E-02 0. -1.
    5000001    1    1    2    0    0 -0.55230633997E+02 -0.42340779449E+02  0.13665643732E+03  0.17160170861E+03  0.77000000000E+02 0.  0.
   -5000001    1    1    2    0    0  0.55230633997E+02  0.42340779449E+02  0.46550088958E+03  0.47693106707E+03  0.77000000000E+02 0.  0.
<mgrwt>
<rscale>  0 0.24083462E+03</rscale>
<asrwt>0</asrwt>
<pdfrwt beam="1">  1        2 0.96206939E-01 0.24083462E+03</pdfrwt>
<pdfrwt beam="2">  1       -2 0.35673419E-02 0.24083462E+03</pdfrwt>
<totfact> 0.15494735E+04</totfact>
</mgrwt>
</event>
<event>
 4    1  0.5980424E-004  0.3028994E+03  0.7818608E-02  0.1083800E+00
          2   -1    0    0  501    0  0.00000000000E+00  0.00000000000E+00  0.10074177857E+04  0.10074177857E+04  0.25500000000E-02 0.  1.
         -2   -1    0    0    0  501 -0.00000000000E+00 -0.00000000000E+00 -0.22768118826E+02  0.22768118969E+02  0.25500000000E-02 0. -1.
    5000001    1    1    2    0    0 -0.56359467205E+02  0.81286723610E+02  0.78139861757E+03  0.79138910816E+03  0.77000000000E+02 0.  0.
   -5000001    1    1    2    0    0  0.56359467205E+02 -0.81286723610E+02  0.20325104929E+03  0.23879679649E+03  0.77000000000E+02 0.  0.
<mgrwt>
<rscale>  0 0.30289938E+03</rscale>
<asrwt>0</asrwt>
<pdfrwt beam="1">  1        2 0.15498734E+00 0.30289938E+03</pdfrwt>
<pdfrwt beam="2">  1       -2 0.35027878E-02 0.30289938E+03</pdfrwt>
<totfact> 0.87329670E+03</totfact>
</mgrwt>
</event>
<event>
 4    1  0.5980424E-004  0.1717863E+03  0.7818608E-02  0.1175998E+00
          2   -1    0    0  501    0  0.00000000000E+00  0.00000000000E+00  0.14109025167E+04  0.14109025167E+04  0.25500000000E-02 0.  1.
         -2   -1    0    0    0  501 -0.00000000000E+00 -0.00000000000E+00 -0.52290184256E+01  0.52290190474E+01  0.25500000000E-02 0. -1.
    5000001    1    1    2    0    0 -0.36829687709E+02 -0.94677827743E+01  0.68961902095E+03  0.69494565174E+03  0.77000000000E+02 0.  0.
   -5000001    1    1    2    0    0  0.36829687709E+02  0.94677827743E+01  0.71605447727E+03  0.72118588397E+03  0.77000000000E+02 0.  0.
<mgrwt>
<rscale>  0 0.17178633E+03</rscale>
<asrwt>0</asrwt>
<pdfrwt beam="1">  1        2 0.21706218E+00 0.17178633E+03</pdfrwt>
<pdfrwt beam="2">  1       -2 0.80446349E-03 0.17178633E+03</pdfrwt>
<totfact> 0.43173909E+04</totfact>
</mgrwt>
</event>
<event>
 4    1  0.5980424E-004  0.4070714E+03  0.7818608E-02  0.1041358E+00
         -2   -1    0    0    0  501 -0.00000000000E+00  0.00000000000E+00  0.14888229446E+03  0.14888229448E+03  0.25500000000E-02 0. -1.
          2   -1    0    0  501    0  0.00000000000E+00 -0.00000000000E+00 -0.27825189356E+03  0.27825189357E+03  0.25500000000E-02 0.  1.
    5000001    1    1    2    0    0 -0.80105329053E+02 -0.17006636277E+03 -0.51480929812E+02  0.20956793081E+03  0.77000000000E+02 0.  0.
   -5000001    1    1    2    0    0  0.80105329053E+02  0.17006636277E+03 -0.77888669290E+02  0.21756625724E+03  0.77000000000E+02 0.  0.
<mgrwt>
<rscale>  0 0.40707140E+03</rscale>
<asrwt>0</asrwt>
<pdfrwt beam="1">  1        2 0.42807984E-01 0.40707140E+03</pdfrwt>
<pdfrwt beam="2">  1       -2 0.22904968E-01 0.40707140E+03</pdfrwt>
<totfact> 0.19828193E+03</totfact>
</mgrwt>
</event>
<event>
 4    1  0.5980424E-004  0.3523159E+03  0.7818608E-02  0.1061669E+00
         -2   -1    0    0    0  501 -0.00000000000E+00  0.00000000000E+00  0.28521081691E+03  0.28521081692E+03  0.25500000000E-02 0. -1.
          2   -1    0    0  501    0  0.00000000000E+00 -0.00000000000E+00 -0.10880240213E+03  0.10880240216E+03  0.25500000000E-02 0.  1.
    5000001    1    1    2    0    0 -0.92187640647E+02  0.12784620175E+03  0.10621660770E+03  0.20507115872E+03  0.77000000000E+02 0.  0.
   -5000001    1    1    2    0    0  0.92187640647E+02 -0.12784620175E+03  0.70191807088E+02  0.18894206036E+03  0.77000000000E+02 0.  0.
<mgrwt>
<rscale>  0 0.35231589E+03</rscale>
<asrwt>0</asrwt>
<pdfrwt beam="1">  1        2 0.16738831E-01 0.35231589E+03</pdfrwt>
<pdfrwt beam="2">  1       -2 0.43878587E-01 0.35231589E+03</pdfrwt>
<totfact> 0.17111816E+03</totfact>
</mgrwt>
</event>
<event>
 4    1  0.5980424E-004  0.2226082E+03  0.7818608E-02  0.1131953E+00
          2   -1    0    0  501    0  0.00000000000E+00  0.00000000000E+00  0.18130180074E+04  0.18130180074E+04  0.25500000000E-02 0.  1.
         -2   -1    0    0    0  501 -0.00000000000E+00 -0.00000000000E+00 -0.68331393725E+01  0.68331398483E+01  0.25500000000E-02 0. -1.
    5000001    1    1    2    0    0  0.72709488416E+02 -0.29826699847E+02  0.76549175241E+03  0.77335821243E+03  0.77000000000E+02 0.  0.
   -5000001    1    1    2    0    0 -0.72709488416E+02  0.29826699847E+02  0.10406931157E+04  0.10464929349E+04  0.77000000000E+02 0.  0.
<mgrwt>
<rscale>  0 0.22260822E+03</rscale>
<asrwt>0</asrwt>
<pdfrwt beam="1">  1        2 0.27892642E+00 0.22260822E+03</pdfrwt>
<pdfrwt beam="2">  1       -2 0.10512501E-02 0.22260822E+03</pdfrwt>
<totfact> 0.18330970E+04</totfact>
</mgrwt>
</event>
<event>
 4    1  0.5980424E-004  0.5170189E+03  0.7818608E-02  0.1009430E+00
          2   -1    0    0  501    0  0.00000000000E+00  0.00000000000E+00  0.12606498843E+04  0.12606498843E+04  0.25500000000E-02 0.  1.
         -2   -1    0    0    0  501 -0.00000000000E+00 -0.00000000000E+00 -0.53010062000E+02  0.53010062061E+02  0.25500000000E-02 0. -1.
    5000001    1    1    2    0    0  0.19391963252E+03  0.14955481509E+02  0.98973961677E+03  0.10116036770E+04  0.77000000000E+02 0.  0.
   -5000001    1    1    2    0    0 -0.19391963252E+03 -0.14955481509E+02  0.21790020557E+03  0.30205626941E+03  0.77000000000E+02 0.  0.
<mgrwt>
<rscale>  0 0.51701887E+03</rscale>
<asrwt>0</asrwt>
<pdfrwt beam="1">  1        2 0.19394613E+00 0.51701887E+03</pdfrwt>
<pdfrwt beam="2">  1       -2 0.81553945E-02 0.51701887E+03</pdfrwt>
<totfact> 0.16849260E+03</totfact>
</mgrwt>
</event>
<event>
 4    1  0.5980424E-004  0.2338521E+03  0.7818608E-02  0.1123957E+00
          2   -1    0    0  501    0  0.00000000000E+00  0.00000000000E+00  0.11105822546E+04  0.11105822546E+04  0.25500000000E-02 0.  1.
         -2   -1    0    0    0  501 -0.00000000000E+00 -0.00000000000E+00 -0.12310388833E+02  0.12310389097E+02  0.25500000000E-02 0. -1.
    5000001    1    1    2    0    0  0.39757504223E+02 -0.14250229044E+02  0.91980183581E+03  0.92398492700E+03  0.77000000000E+02 0.  0.
   -5000001    1    1    2    0    0 -0.39757504223E+02  0.14250229044E+02  0.17847002999E+03  0.19890771673E+03  0.77000000000E+02 0.  0.
<mgrwt>
<rscale>  0 0.23385209E+03</rscale>
<asrwt>0</asrwt>
<pdfrwt beam="1">  1        2 0.17085886E+00 0.23385209E+03</pdfrwt>
<pdfrwt beam="2">  1       -2 0.18939054E-02 0.23385209E+03</pdfrwt>
<totfact> 0.18678149E+04</totfact>
</mgrwt>
</event>
<event>
 4    1  0.5980424E-004  0.2454379E+03  0.7818608E-02  0.1116222E+00
         -2   -1    0    0    0  501 -0.00000000000E+00  0.00000000000E+00  0.48429471744E+01  0.48429478457E+01  0.25500000000E-02 0.  1.
          2   -1    0    0  501    0  0.00000000000E+00 -0.00000000000E+00 -0.31096654455E+04  0.31096654455E+04  0.25500000000E-02 0. -1.
    5000001    1    1    2    0    0  0.77759133141E+02 -0.40060165994E+02 -0.20405315058E+04  0.20438564348E+04  0.77000000000E+02 0.  0.
   -5000001    1    1    2    0    0 -0.77759133141E+02  0.40060165994E+02 -0.10642909925E+04  0.10706519586E+04  0.77000000000E+02 0.  0.
<mgrwt>
<rscale>  0 0.24543795E+03</rscale>
<asrwt>0</asrwt>
<pdfrwt beam="1">  1        2 0.47840847E+00 0.24543795E+03</pdfrwt>
<pdfrwt beam="2">  1       -2 0.74507133E-03 0.24543795E+03</pdfrwt>
<totfact> 0.58604022E+03</totfact>
</mgrwt>
</event>
<event>
 4    1  0.5980424E-004  0.2593112E+03  0.7818608E-02  0.1107558E+00
         -2   -1    0    0    0  501 -0.00000000000E+00  0.00000000000E+00  0.61860995929E+02  0.61860995981E+02  0.25500000000E-02 0. -1.
          2   -1    0    0  501    0  0.00000000000E+00 -0.00000000000E+00 -0.27174752327E+03  0.27174752329E+03  0.25500000000E-02 0.  1.
    5000001    1    1    2    0    0  0.65769597293E+02 -0.70174882926E+02 -0.52979744789E+02  0.13411192147E+03  0.77000000000E+02 0.  0.
   -5000001    1    1    2    0    0 -0.65769597293E+02  0.70174882926E+02 -0.15690678256E+03  0.19949659780E+03  0.77000000000E+02 0.  0.
<mgrwt>
<rscale>  0 0.25931118E+03</rscale>
<asrwt>0</asrwt>
<pdfrwt beam="1">  1        2 0.41807311E-01 0.25931118E+03</pdfrwt>
<pdfrwt beam="2">  1       -2 0.95170764E-02 0.25931118E+03</pdfrwt>
<totfact> 0.86454407E+03</totfact>
</mgrwt>
</event>
<event>
 4    1  0.5980424E-004  0.2376486E+03  0.7818608E-02  0.1121369E+00
         -2   -1    0    0    0  501 -0.00000000000E+00  0.00000000000E+00  0.53292194092E+02  0.53292194153E+02  0.25500000000E-02 0. -1.
          2   -1    0    0  501    0  0.00000000000E+00 -0.00000000000E+00 -0.26493969788E+03  0.26493969789E+03  0.25500000000E-02 0.  1.
    5000001    1    1    2    0    0  0.72418870772E+02  0.26208190731E+02 -0.42180460570E+02  0.11678849840E+03  0.77000000000E+02 0.  0.
   -5000001    1    1    2    0    0 -0.72418870772E+02 -0.26208190731E+02 -0.16946704322E+03  0.20144339364E+03  0.77000000000E+02 0.  0.
<mgrwt>
<rscale>  0 0.23764863E+03</rscale>
<asrwt>0</asrwt>
<pdfrwt beam="1">  1        2 0.40759953E-01 0.23764863E+03</pdfrwt>
<pdfrwt beam="2">  1       -2 0.81987992E-02 0.23764863E+03</pdfrwt>
<totfact> 0.11183565E+04</totfact>
</mgrwt>
</event>
<event>
 4    1  0.5980424E-004  0.1671382E+03  0.7818608E-02  0.1180865E+00
          2   -1    0    0  501    0  0.00000000000E+00  0.00000000000E+00  0.31664471246E+03  0.31664471247E+03  0.25500000000E-02 0.  1.
         -2   -1    0    0    0  501 -0.00000000000E+00 -0.00000000000E+00 -0.22055629845E+02  0.22055629992E+02  0.25500000000E-02 0. -1.
    5000001    1    1    2    0    0  0.11232543255E+02  0.28012965779E+02  0.17160391003E+03  0.19049356476E+03  0.77000000000E+02 0.  0.
   -5000001    1    1    2    0    0 -0.11232543255E+02 -0.28012965779E+02  0.12298517259E+03  0.14820677770E+03  0.77000000000E+02 0.  0.
<mgrwt>
<rscale>  0 0.16713825E+03</rscale>
<asrwt>0</asrwt>
<pdfrwt beam="1">  1        2 0.48714568E-01 0.16713825E+03</pdfrwt>
<pdfrwt beam="2">  1       -2 0.33931740E-02 0.16713825E+03</pdfrwt>
<totfact> 0.34362629E+04</totfact>
</mgrwt>
</event>
<event>
 4    1  0.5980424E-004  0.2775667E+03  0.7818608E-02  0.1097025E+00
          2   -1    0    0  501    0  0.00000000000E+00  0.00000000000E+00  0.37632888564E+02  0.37632888650E+02  0.25500000000E-02 0.  1.
         -2   -1    0    0    0  501 -0.00000000000E+00 -0.00000000000E+00 -0.51180808397E+03  0.51180808398E+03  0.25500000000E-02 0. -1.
    5000001    1    1    2    0    0  0.97410396032E+02 -0.21662695882E+02 -0.12211066345E+03  0.17549379412E+03  0.77000000000E+02 0.  0.
   -5000001    1    1    2    0    0 -0.97410396032E+02  0.21662695882E+02 -0.35206453196E+03  0.37394717851E+03  0.77000000000E+02 0.  0.
<mgrwt>
<rscale>  0 0.27756669E+03</rscale>
<asrwt>0</asrwt>
<pdfrwt beam="1">  1        2 0.57896755E-02 0.27756669E+03</pdfrwt>
<pdfrwt beam="2">  1       -2 0.78739700E-01 0.27756669E+03</pdfrwt>
<totfact> 0.19074640E+03</totfact>
</mgrwt>
</event>
<event>
 4    1  0.5980424E-004  0.3287958E+03  0.7818608E-02  0.1071671E+00
         -2   -1    0    0    0  501 -0.00000000000E+00  0.00000000000E+00  0.24994058298E+03  0.24994058300E+03  0.25500000000E-02 0. -1.
          2   -1    0    0  501    0  0.00000000000E+00 -0.00000000000E+00 -0.10813240530E+03  0.10813240533E+03  0.25500000000E-02 0.  1.
    5000001    1    1    2    0    0 -0.12833301839E+03  0.13392949662E+02  0.14354371531E+03  0.20780407338E+03  0.77000000000E+02 0.  0.
   -5000001    1    1    2    0    0  0.12833301839E+03 -0.13392949662E+02 -0.17355376243E+01  0.15026891495E+03  0.77000000000E+02 0.  0.
<mgrwt>
<rscale>  0 0.32879584E+03</rscale>
<asrwt>0</asrwt>
<pdfrwt beam="1">  1        2 0.16635755E-01 0.32879584E+03</pdfrwt>
<pdfrwt beam="2">  1       -2 0.38452397E-01 0.32879584E+03</pdfrwt>
<totfact> 0.22208763E+03</totfact>
</mgrwt>
</event>
<event>
 4    1  0.5980424E-004  0.4259403E+03  0.7818608E-02  0.1035150E+00
         -2   -1    0    0    0  501 -0.00000000000E+00  0.00000000000E+00  0.61809835454E+02  0.61809835506E+02  0.25500000000E-02 0. -1.
          2   -1    0    0  501    0  0.00000000000E+00 -0.00000000000E+00 -0.73380363733E+03  0.73380363733E+03  0.25500000000E-02 0.  1.
    5000001    1    1    2    0    0  0.15440690614E+03 -0.37669107622E+02 -0.11367117642E+03  0.21002521440E+03  0.77000000000E+02 0.  0.
   -5000001    1    1    2    0    0 -0.15440690614E+03  0.37669107622E+02 -0.55832262545E+03  0.58558825844E+03  0.77000000000E+02 0.  0.
<mgrwt>
<rscale>  0 0.42594029E+03</rscale>
<asrwt>0</asrwt>
<pdfrwt beam="1">  1        2 0.11289286E+00 0.42594029E+03</pdfrwt>
<pdfrwt beam="2">  1       -2 0.95092060E-02 0.42594029E+03</pdfrwt>
<totfact> 0.28602701E+03</totfact>
</mgrwt>
</event>
<event>
 4    1  0.5980424E-004  0.1584394E+03  0.7818608E-02  0.1190470E+00
          2   -1    0    0  501    0  0.00000000000E+00  0.00000000000E+00  0.56998248570E+02  0.56998248627E+02  0.25500000000E-02 0.  1.
         -2   -1    0    0    0  501 -0.00000000000E+00 -0.00000000000E+00 -0.11010438864E+03  0.11010438867E+03  0.25500000000E-02 0. -1.
    5000001    1    1    2    0    0 -0.68423489967E+01  0.10865004421E+02 -0.40777214419E+02  0.88071830210E+02  0.77000000000E+02 0.  0.
   -5000001    1    1    2    0    0  0.68423489967E+01 -0.10865004421E+02 -0.12328925651E+02  0.79030807086E+02  0.77000000000E+02 0.  0.
<mgrwt>
<rscale>  0 0.15843936E+03</rscale>
<asrwt>0</asrwt>
<pdfrwt beam="1">  1        2 0.87689614E-02 0.15843936E+03</pdfrwt>
<pdfrwt beam="2">  1       -2 0.16939137E-01 0.15843936E+03</pdfrwt>
<totfact> 0.19841676E+04</totfact>
</mgrwt>
</event>
<event>
 4    1  0.5980424E-004  0.3413723E+03  0.7818608E-02  0.1066213E+00
         -2   -1    0    0    0  501 -0.00000000000E+00  0.00000000000E+00  0.56282923942E+03  0.56282923943E+03  0.25500000000E-02 0. -1.
          2   -1    0    0  501    0  0.00000000000E+00 -0.00000000000E+00 -0.51763062888E+02  0.51763062951E+02  0.25500000000E-02 0.  1.
    5000001    1    1    2    0    0 -0.23708304265E+02  0.11113646496E+03  0.72893313973E+02  0.15542146813E+03  0.77000000000E+02 0.  0.
   -5000001    1    1    2    0    0  0.23708304265E+02 -0.11113646496E+03  0.43817286256E+03  0.45917083425E+03  0.77000000000E+02 0.  0.
<mgrwt>
<rscale>  0 0.34137232E+03</rscale>
<asrwt>0</asrwt>
<pdfrwt beam="1">  1        2 0.79635483E-02 0.34137232E+03</pdfrwt>
<pdfrwt beam="2">  1       -2 0.86589112E-01 0.34137232E+03</pdfrwt>
<totfact> 0.10258409E+03</totfact>
</mgrwt>
</event>
<event>
 4    1  0.5980424E-004  0.2334119E+03  0.7818608E-02  0.1124261E+00
         -2   -1    0    0    0  501 -0.00000000000E+00  0.00000000000E+00  0.87966110712E+01  0.87966114408E+01  0.25500000000E-02 0. -1.
          2   -1    0    0  501    0  0.00000000000E+00 -0.00000000000E+00 -0.15483550658E+04  0.15483550658E+04  0.25500000000E-02 0.  1.
    5000001    1    1    2    0    0 -0.83992067346E+02 -0.97455153554E+01 -0.61451858971E+03  0.62506938778E+03  0.77000000000E+02 0.  0.
   -5000001    1    1    2    0    0  0.83992067346E+02  0.97455153554E+01 -0.92503986498E+03  0.93208228942E+03  0.77000000000E+02 0.  0.
<mgrwt>
<rscale>  0 0.23341189E+03</rscale>
<asrwt>0</asrwt>
<pdfrwt beam="1">  1        2 0.23820826E+00 0.23341189E+03</pdfrwt>
<pdfrwt beam="2">  1       -2 0.13533260E-02 0.23341189E+03</pdfrwt>
<totfact> 0.17519659E+04</totfact>
</mgrwt>
</event>
<event>
 4    1  0.5980424E-004  0.2834226E+03  0.7818608E-02  0.1093834E+00
          2   -1    0    0  501    0  0.00000000000E+00  0.00000000000E+00  0.13157801908E+04  0.13157801908E+04  0.25500000000E-02 0.  1.
         -2   -1    0    0    0  501 -0.00000000000E+00 -0.00000000000E+00 -0.15262503035E+02  0.15262503248E+02  0.25500000000E-02 0. -1.
    5000001    1    1    2    0    0  0.36923535920E+02  0.11303356138E+03  0.66729929060E+03  0.68217100256E+03  0.77000000000E+02 0.  0.
   -5000001    1    1    2    0    0 -0.36923535920E+02 -0.11303356138E+03  0.63321839715E+03  0.64887169147E+03  0.77000000000E+02 0.  0.
<mgrwt>
<rscale>  0 0.28342265E+03</rscale>
<asrwt>0</asrwt>
<pdfrwt beam="1">  1        2 0.20242776E+00 0.28342265E+03</pdfrwt>
<pdfrwt beam="2">  1       -2 0.23480770E-02 0.28342265E+03</pdfrwt>
<totfact> 0.10489042E+04</totfact>
</mgrwt>
</event>
<event>
 4    1  0.5980424E-004  0.3022228E+03  0.7818608E-02  0.1084135E+00
         -2   -1    0    0    0  501 -0.00000000000E+00  0.00000000000E+00  0.10322542836E+02  0.10322543151E+02  0.25500000000E-02 0. -1.
          2   -1    0    0  501    0  0.00000000000E+00 -0.00000000000E+00 -0.22121157059E+04  0.22121157059E+04  0.25500000000E-02 0.  1.
    5000001    1    1    2    0    0  0.66557237844E+02  0.68590532285E+02 -0.17491496677E+04  0.17534503377E+04  0.77000000000E+02 0.  0.
   -5000001    1    1    2    0    0 -0.66557237844E+02 -0.68590532285E+02 -0.45264349535E+03  0.46898791127E+03  0.77000000000E+02 0.  0.
<mgrwt>
<rscale>  0 0.30222283E+03</rscale>
<asrwt>0</asrwt>
<pdfrwt beam="1">  1        2 0.34032512E+00 0.30222283E+03</pdfrwt>
<pdfrwt beam="2">  1       -2 0.15880853E-02 0.30222283E+03</pdfrwt>
<totfact> 0.62258075E+03</totfact>
</mgrwt>
</event>
<event>
 4    1  0.5980424E-004  0.2094395E+03  0.7818608E-02  0.1142011E+00
          2   -1    0    0  501    0  0.00000000000E+00  0.00000000000E+00  0.19127556054E+04  0.19127556054E+04  0.25500000000E-02 0.  1.
         -2   -1    0    0    0  501 -0.00000000000E+00 -0.00000000000E+00 -0.57332092289E+01  0.57332097960E+01  0.25500000000E-02 0. -1.
    5000001    1    1    2    0    0 -0.60999899218E+02  0.98636417971E+01  0.63370013372E+03  0.64134478918E+03  0.77000000000E+02 0.  0.
   -5000001    1    1    2    0    0  0.60999899218E+02 -0.98636417971E+01  0.12733222625E+04  0.12771440260E+04  0.77000000000E+02 0.  0.
<mgrwt>
<rscale>  0 0.20943952E+03</rscale>
<asrwt>0</asrwt>
<pdfrwt beam="1">  1        2 0.29427040E+00 0.20943952E+03</pdfrwt>
<pdfrwt beam="2">  1       -2 0.88203130E-03 0.20943952E+03</pdfrwt>
<totfact> 0.20911160E+04</totfact>
</mgrwt>
</event>
<event>
 4    1  0.5980424E-004  0.2086486E+03  0.7818608E-02  0.1142641E+00
          2   -1    0    0  501    0  0.00000000000E+00  0.00000000000E+00  0.16143418544E+04  0.16143418544E+04  0.25500000000E-02 0.  1.
         -2   -1    0    0    0  501 -0.00000000000E+00 -0.00000000000E+00 -0.67417937522E+01  0.67417942345E+01  0.25500000000E-02 0. -1.
    5000001    1    1    2    0    0 -0.51297642248E+02  0.48198634737E+02  0.80427452882E+03  0.81101237611E+03  0.77000000000E+02 0.  0.
   -5000001    1    1    2    0    0  0.51297642248E+02 -0.48198634737E+02  0.80332553184E+03  0.81007127254E+03  0.77000000000E+02 0.  0.
<mgrwt>
<rscale>  0 0.20864861E+03</rscale>
<asrwt>0</asrwt>
<pdfrwt beam="1">  1        2 0.24836031E+00 0.20864861E+03</pdfrwt>
<pdfrwt beam="2">  1       -2 0.10371990E-02 0.20864861E+03</pdfrwt>
<totfact> 0.23669254E+04</totfact>
</mgrwt>
</event>
<event>
 4    1  0.5980424E-004  0.1915339E+03  0.7818608E-02  0.1157085E+00
         -2   -1    0    0    0  501 -0.00000000000E+00  0.00000000000E+00  0.11036059494E+04  0.11036059494E+04  0.25500000000E-02 0. -1.
          2   -1    0    0  501    0  0.00000000000E+00 -0.00000000000E+00 -0.83103112156E+01  0.83103116069E+01  0.25500000000E-02 0.  1.
    5000001    1    1    2    0    0  0.54778044168E+02  0.12833735831E+02  0.49671616474E+03  0.50578778872E+03  0.77000000000E+02 0.  0.
   -5000001    1    1    2    0    0 -0.54778044168E+02 -0.12833735831E+02  0.59857947342E+03  0.60612847227E+03  0.77000000000E+02 0.  0.
<mgrwt>
<rscale>  0 0.19153390E+03</rscale>
<asrwt>0</asrwt>
<pdfrwt beam="1">  1        2 0.12785098E-02 0.19153390E+03</pdfrwt>
<pdfrwt beam="2">  1       -2 0.16978548E+00 0.19153390E+03</pdfrwt>
<totfact> 0.22872183E+03</totfact>
</mgrwt>
</event>
<event>
 4    1  0.5980424E-004  0.2530169E+03  0.7818608E-02  0.1111413E+00
          2   -1    0    0  501    0  0.00000000000E+00  0.00000000000E+00  0.69145160834E+02  0.69145160881E+02  0.25500000000E-02 0.  1.
         -2   -1    0    0    0  501 -0.00000000000E+00 -0.00000000000E+00 -0.23146077459E+03  0.23146077460E+03  0.25500000000E-02 0. -1.
    5000001    1    1    2    0    0 -0.66892717044E+02 -0.65046115984E+02 -0.37186421299E+02  0.12656011507E+03  0.77000000000E+02 0.  0.
   -5000001    1    1    2    0    0  0.66892717044E+02  0.65046115984E+02 -0.12512919246E+03  0.17404582041E+03  0.77000000000E+02 0.  0.
<mgrwt>
<rscale>  0 0.25301694E+03</rscale>
<asrwt>0</asrwt>
<pdfrwt beam="1">  1        2 0.10637717E-01 0.25301694E+03</pdfrwt>
<pdfrwt beam="2">  1       -2 0.35609349E-01 0.25301694E+03</pdfrwt>
<totfact> 0.43667082E+03</totfact>
</mgrwt>
</event>
<event>
 4    1  0.5980424E-004  0.3029795E+03  0.7818608E-02  0.1083761E+00
         -2   -1    0    0    0  501 -0.00000000000E+00  0.00000000000E+00  0.19109302953E+03  0.19109302955E+03  0.25500000000E-02 0. -1.
          2   -1    0    0  501    0  0.00000000000E+00 -0.00000000000E+00 -0.12009409556E+03  0.12009409559E+03  0.25500000000E-02 0.  1.
    5000001    1    1    2    0    0 -0.76899107254E+02  0.93122388970E+02 -0.15181894467E+02  0.14403035077E+03  0.77000000000E+02 0.  0.
   -5000001    1    1    2    0    0  0.76899107254E+02 -0.93122388970E+02  0.86180828438E+02  0.16715677436E+03  0.77000000000E+02 0.  0.
<mgrwt>
<rscale>  0 0.30297950E+03</rscale>
<asrwt>0</asrwt>
<pdfrwt beam="1">  1        2 0.18476015E-01 0.30297950E+03</pdfrwt>
<pdfrwt beam="2">  1       -2 0.29398927E-01 0.30297950E+03</pdfrwt>
<totfact> 0.32289665E+03</totfact>
</mgrwt>
</event>
<event>
 4    1  0.5980424E-004  0.2686421E+03  0.7818608E-02  0.1102059E+00
         -2   -1    0    0    0  501 -0.00000000000E+00  0.00000000000E+00  0.41508042229E+03  0.41508042230E+03  0.25500000000E-02 0. -1.
          2   -1    0    0  501    0  0.00000000000E+00 -0.00000000000E+00 -0.43466615915E+02  0.43466615990E+02  0.25500000000E-02 0.  1.
    5000001    1    1    2    0    0 -0.29806204688E+02  0.45238209728E+02  0.34933390108E+03  0.36179839676E+03  0.77000000000E+02 0.  0.
   -5000001    1    1    2    0    0  0.29806204688E+02 -0.45238209728E+02  0.22279905298E+02  0.96748641527E+02  0.77000000000E+02 0.  0.
<mgrwt>
<rscale>  0 0.26864208E+03</rscale>
<asrwt>0</asrwt>
<pdfrwt beam="1">  1        2 0.66871715E-02 0.26864208E+03</pdfrwt>
<pdfrwt beam="2">  1       -2 0.63858528E-01 0.26864208E+03</pdfrwt>
<totfact> 0.24778577E+03</totfact>
</mgrwt>
</event>
<event>
 4    1  0.5980424E-004  0.3156841E+03  0.7818608E-02  0.1077653E+00
          2   -1    0    0  501    0  0.00000000000E+00  0.00000000000E+00  0.18896919464E+03  0.18896919465E+03  0.25500000000E-02 0.  1.
         -2   -1    0    0    0  501 -0.00000000000E+00 -0.00000000000E+00 -0.13184220649E+03  0.13184220652E+03  0.25500000000E-02 0. -1.
    5000001    1    1    2    0    0 -0.10801025595E+03  0.90013063447E+01  0.11502098953E+03  0.17580121427E+03  0.77000000000E+02 0.  0.
   -5000001    1    1    2    0    0  0.10801025595E+03 -0.90013063447E+01 -0.57894001390E+02  0.14501018690E+03  0.77000000000E+02 0.  0.
<mgrwt>
<rscale>  0 0.31568412E+03</rscale>
<asrwt>0</asrwt>
<pdfrwt beam="1">  1        2 0.29072184E-01 0.31568412E+03</pdfrwt>
<pdfrwt beam="2">  1       -2 0.20283416E-01 0.31568412E+03</pdfrwt>
<totfact> 0.37260280E+03</totfact>
</mgrwt>
</event>
<event>
 4    1  0.5980424E-004  0.1967841E+03  0.7818608E-02  0.1152481E+00
          2   -1    0    0  501    0  0.00000000000E+00  0.00000000000E+00  0.11986943993E+02  0.11986944265E+02  0.25500000000E-02 0.  1.
         -2   -1    0    0    0  501 -0.00000000000E+00 -0.00000000000E+00 -0.80762819875E+03  0.80762819875E+03  0.25500000000E-02 0. -1.
    5000001    1    1    2    0    0 -0.26385958456E+02  0.54281187096E+02 -0.35427086932E+03  0.36753165160E+03  0.77000000000E+02 0.  0.
   -5000001    1    1    2    0    0  0.26385958456E+02 -0.54281187096E+02 -0.44137038543E+03  0.45208349142E+03  0.77000000000E+02 0.  0.
<mgrwt>
<rscale>  0 0.19678409E+03</rscale>
<asrwt>0</asrwt>
<pdfrwt beam="1">  1        2 0.18441459E-02 0.19678409E+03</pdfrwt>
<pdfrwt beam="2">  1       -2 0.12425045E+00 0.19678409E+03</pdfrwt>
<totfact> 0.30610129E+03</totfact>
</mgrwt>
</event>
<event>
 4    1  0.5980424E-004  0.3446568E+03  0.7818608E-02  0.1064830E+00
          2   -1    0    0  501    0  0.00000000000E+00  0.00000000000E+00  0.70997737026E+03  0.70997737026E+03  0.25500000000E-02 0.  1.
         -2   -1    0    0    0  501 -0.00000000000E+00 -0.00000000000E+00 -0.41828203504E+02  0.41828203582E+02  0.25500000000E-02 0. -1.
    5000001    1    1    2    0    0 -0.14573774551E+03 -0.20508492935E+02  0.43422502710E+03  0.46490909101E+03  0.77000000000E+02 0.  0.
   -5000001    1    1    2    0    0  0.14573774551E+03  0.20508492935E+02  0.23392413966E+03  0.28689648283E+03  0.77000000000E+02 0.  0.
<mgrwt>
<rscale>  0 0.34465680E+03</rscale>
<asrwt>0</asrwt>
<pdfrwt beam="1">  1        2 0.10922730E+00 0.34465680E+03</pdfrwt>
<pdfrwt beam="2">  1       -2 0.64351078E-02 0.34465680E+03</pdfrwt>
<totfact> 0.54957676E+03</totfact>
</mgrwt>
</event>
<event>
 4    1  0.5980424E-004  0.3049650E+03  0.7818608E-02  0.1082785E+00
         -2   -1    0    0    0  501 -0.00000000000E+00  0.00000000000E+00  0.17146857973E+02  0.17146858163E+02  0.25500000000E-02 0. -1.
          2   -1    0    0  501    0  0.00000000000E+00 -0.00000000000E+00 -0.13559866386E+04  0.13559866387E+04  0.25500000000E-02 0.  1.
    5000001    1    1    2    0    0  0.72181816853E+02 -0.98995157850E+02 -0.45293666759E+03  0.47549014796E+03  0.77000000000E+02 0.  0.
   -5000001    1    1    2    0    0 -0.72181816853E+02  0.98995157850E+02 -0.88590311309E+03  0.89764334885E+03  0.77000000000E+02 0.  0.
<mgrwt>
<rscale>  0 0.30496498E+03</rscale>
<asrwt>0</asrwt>
<pdfrwt beam="1">  1        2 0.20861325E+00 0.30496498E+03</pdfrwt>
<pdfrwt beam="2">  1       -2 0.26379792E-02 0.30496498E+03</pdfrwt>
<totfact> 0.83990395E+03</totfact>
</mgrwt>
</event>
<event>
 4    1  0.5980424E-004  0.1902734E+03  0.7818608E-02  0.1158215E+00
          2   -1    0    0  501    0  0.00000000000E+00  0.00000000000E+00  0.18183625591E+04  0.18183625591E+04  0.25500000000E-02 0.  1.
         -2   -1    0    0    0  501 -0.00000000000E+00 -0.00000000000E+00 -0.49775481392E+01  0.49775487924E+01  0.25500000000E-02 0. -1.
    5000001    1    1    2    0    0  0.54731371315E+02 -0.99292945368E+01  0.95728526439E+03  0.96198658583E+03  0.77000000000E+02 0.  0.
   -5000001    1    1    2    0    0 -0.54731371315E+02  0.99292945368E+01  0.85609974655E+03  0.86135352204E+03  0.77000000000E+02 0.  0.
<mgrwt>
<rscale>  0 0.19027336E+03</rscale>
<asrwt>0</asrwt>
<pdfrwt beam="1">  1        2 0.27974789E+00 0.19027336E+03</pdfrwt>
<pdfrwt beam="2">  1       -2 0.76577722E-03 0.19027336E+03</pdfrwt>
<totfact> 0.28558534E+04</totfact>
</mgrwt>
</event>
<event>
 4    1  0.5980424E-004  0.4814579E+03  0.7818608E-02  0.1018735E+00
         -2   -1    0    0    0  501 -0.00000000000E+00  0.00000000000E+00  0.45877924135E+02  0.45877924206E+02  0.25500000000E-02 0. -1.
          2   -1    0    0  501    0  0.00000000000E+00 -0.00000000000E+00 -0.12631438321E+04  0.12631438321E+04  0.25500000000E-02 0.  1.
    5000001    1    1    2    0    0  0.21705276123E+03 -0.42393799247E+02 -0.76031285179E+03  0.79555877719E+03  0.77000000000E+02 0.  0.
   -5000001    1    1    2    0    0 -0.21705276123E+03  0.42393799247E+02 -0.45695305617E+03  0.51346297911E+03  0.77000000000E+02 0.  0.
<mgrwt>
<rscale>  0 0.48145786E+03</rscale>
<asrwt>0</asrwt>
<pdfrwt beam="1">  1        2 0.19432979E+00 0.48145786E+03</pdfrwt>
<pdfrwt beam="2">  1       -2 0.70581431E-02 0.48145786E+03</pdfrwt>
<totfact> 0.21124487E+03</totfact>
</mgrwt>
</event>
<event>
 4    1  0.5980424E-004  0.1883713E+03  0.7818608E-02  0.1159939E+00
         -2   -1    0    0    0  501 -0.00000000000E+00  0.00000000000E+00  0.19711766284E+02  0.19711766449E+02  0.25500000000E-02 0. -1.
          2   -1    0    0  501    0  0.00000000000E+00 -0.00000000000E+00 -0.45003243788E+03  0.45003243788E+03  0.25500000000E-02 0.  1.
    5000001    1    1    2    0    0  0.11149062848E+02 -0.51556818293E+02 -0.18366370698E+03  0.20601884471E+03  0.77000000000E+02 0.  0.
   -5000001    1    1    2    0    0 -0.11149062848E+02  0.51556818293E+02 -0.24665696461E+03  0.26372535962E+03  0.77000000000E+02 0.  0.
<mgrwt>
<rscale>  0 0.18837127E+03</rscale>
<asrwt>0</asrwt>
<pdfrwt beam="1">  1        2 0.69235752E-01 0.18837127E+03</pdfrwt>
<pdfrwt beam="2">  1       -2 0.30325798E-02 0.18837127E+03</pdfrwt>
<totfact> 0.28109812E+04</totfact>
</mgrwt>
</event>
<event>
 4    1  0.5980424E-004  0.3046594E+03  0.7818608E-02  0.1082934E+00
          2   -1    0    0  501    0  0.00000000000E+00  0.00000000000E+00  0.12330667168E+03  0.12330667171E+03  0.25500000000E-02 0.  1.
         -2   -1    0    0    0  501 -0.00000000000E+00 -0.00000000000E+00 -0.18818395872E+03  0.18818395873E+03  0.25500000000E-02 0. -1.
    5000001    1    1    2    0    0 -0.70716126828E+02 -0.84215640220E+02  0.41163656299E+02  0.14041542384E+03  0.77000000000E+02 0.  0.
   -5000001    1    1    2    0    0  0.70716126828E+02  0.84215640220E+02 -0.10604094333E+03  0.17107520660E+03  0.77000000000E+02 0.  0.
<mgrwt>
<rscale>  0 0.30465940E+03</rscale>
<asrwt>0</asrwt>
<pdfrwt beam="1">  1        2 0.18970257E-01 0.30465940E+03</pdfrwt>
<pdfrwt beam="2">  1       -2 0.28951378E-01 0.30465940E+03</pdfrwt>
<totfact> 0.32204961E+03</totfact>
</mgrwt>
</event>
<event>
 4    1  0.5980424E-004  0.1779986E+03  0.7818608E-02  0.1169754E+00
         -2   -1    0    0    0  501 -0.00000000000E+00  0.00000000000E+00  0.22745642831E+01  0.22745657125E+01  0.25500000000E-02 0. -1.
          2   -1    0    0  501    0  0.00000000000E+00 -0.00000000000E+00 -0.34823706199E+04  0.34823706199E+04  0.25500000000E-02 0.  1.
    5000001    1    1    2    0    0 -0.18332622781E+01  0.13007473665E+02 -0.90502814932E+03  0.90839281496E+03  0.77000000000E+02 0.  0.
   -5000001    1    1    2    0    0  0.18332622781E+01 -0.13007473665E+02 -0.25750679063E+04  0.25762523707E+04  0.77000000000E+02 0.  0.
<mgrwt>
<rscale>  0 0.17799863E+03</rscale>
<asrwt>0</asrwt>
<pdfrwt beam="1">  1        2 0.53574506E+00 0.17799863E+03</pdfrwt>
<pdfrwt beam="2">  1       -2 0.34993586E-03 0.17799863E+03</pdfrwt>
<totfact> 0.10120952E+04</totfact>
</mgrwt>
</event>
<event>
 4    1  0.5980424E-004  0.2655102E+03  0.7818608E-02  0.1103877E+00
         -2   -1    0    0    0  501 -0.00000000000E+00  0.00000000000E+00  0.21853543153E+03  0.21853543154E+03  0.25500000000E-02 0. -1.
          2   -1    0    0  501    0  0.00000000000E+00 -0.00000000000E+00 -0.80645593528E+02  0.80645593568E+02  0.25500000000E-02 0.  1.
    5000001    1    1    2    0    0  0.84489005537E+02 -0.66083272906E+02  0.53432120590E+02  0.14244080358E+03  0.77000000000E+02 0.  0.
   -5000001    1    1    2    0    0 -0.84489005537E+02  0.66083272906E+02  0.84457717409E+02  0.15674022153E+03  0.77000000000E+02 0.  0.
<mgrwt>
<rscale>  0 0.26551022E+03</rscale>
<asrwt>0</asrwt>
<pdfrwt beam="1">  1        2 0.12407014E-01 0.26551022E+03</pdfrwt>
<pdfrwt beam="2">  1       -2 0.33620836E-01 0.26551022E+03</pdfrwt>
<totfact> 0.40331608E+03</totfact>
</mgrwt>
</event>
<event>
 4    1  0.5980424E-004  0.3581495E+03  0.7818608E-02  0.1059319E+00
         -2   -1    0    0    0  501 -0.00000000000E+00  0.00000000000E+00  0.31378834496E+02  0.31378834599E+02  0.25500000000E-02 0. -1.
          2   -1    0    0  501    0  0.00000000000E+00 -0.00000000000E+00 -0.10219550184E+04  0.10219550184E+04  0.25500000000E-02 0.  1.
    5000001    1    1    2    0    0  0.40738749179E+02  0.14894044479E+03 -0.35436763530E+03  0.39414251576E+03  0.77000000000E+02 0.  0.
   -5000001    1    1    2    0    0 -0.40738749179E+02 -0.14894044479E+03 -0.63620854856E+03  0.65919133720E+03  0.77000000000E+02 0.  0.
<mgrwt>
<rscale>  0 0.35814945E+03</rscale>
<asrwt>0</asrwt>
<pdfrwt beam="1">  1        2 0.15722382E+00 0.35814945E+03</pdfrwt>
<pdfrwt beam="2">  1       -2 0.48275138E-02 0.35814945E+03</pdfrwt>
<totfact> 0.52803612E+03</totfact>
</mgrwt>
</event>
<event>
 4    1  0.5980424E-004  0.2935366E+03  0.7818608E-02  0.1088517E+00
          2   -1    0    0  501    0  0.00000000000E+00  0.00000000000E+00  0.53749351408E+03  0.53749351408E+03  0.25500000000E-02 0.  1.
         -2   -1    0    0    0  501 -0.00000000000E+00 -0.00000000000E+00 -0.40076633002E+02  0.40076633083E+02  0.25500000000E-02 0. -1.
    5000001    1    1    2    0    0  0.94316175115E+02 -0.81879406848E+02  0.25556757846E+03  0.29469232314E+03  0.77000000000E+02 0.  0.
   -5000001    1    1    2    0    0 -0.94316175115E+02  0.81879406848E+02  0.24184930261E+03  0.28287782403E+03  0.77000000000E+02 0.  0.
<mgrwt>
<rscale>  0 0.29353658E+03</rscale>
<asrwt>0</asrwt>
<pdfrwt beam="1">  1        2 0.82691309E-01 0.29353658E+03</pdfrwt>
<pdfrwt beam="2">  1       -2 0.61656359E-02 0.29353658E+03</pdfrwt>
<totfact> 0.81175440E+03</totfact>
</mgrwt>
</event>
<event>
 4    1  0.5980424E-004  0.2557401E+03  0.7818608E-02  0.1109730E+00
         -2   -1    0    0    0  501 -0.00000000000E+00  0.00000000000E+00  0.28586171498E+03  0.28586171499E+03  0.25500000000E-02 0. -1.
          2   -1    0    0  501    0  0.00000000000E+00 -0.00000000000E+00 -0.57198088781E+02  0.57198088837E+02  0.25500000000E-02 0.  1.
    5000001    1    1    2    0    0  0.70435390639E+02 -0.56661452056E+02  0.50700629597E+02  0.12911707186E+03  0.77000000000E+02 0.  0.
   -5000001    1    1    2    0    0 -0.70435390639E+02  0.56661452056E+02  0.17796299660E+03  0.21394273197E+03  0.77000000000E+02 0.  0.
<mgrwt>
<rscale>  0 0.25574005E+03</rscale>
<asrwt>0</asrwt>
<pdfrwt beam="1">  1        2 0.87997059E-02 0.25574005E+03</pdfrwt>
<pdfrwt beam="2">  1       -2 0.43978726E-01 0.25574005E+03</pdfrwt>
<totfact> 0.37007060E+03</totfact>
</mgrwt>
</event>
<event>
 4    1  0.5980424E-004  0.1900995E+03  0.7818608E-02  0.1158372E+00
         -2   -1    0    0    0  501 -0.00000000000E+00  0.00000000000E+00  0.73735342770E+02  0.73735342814E+02  0.25500000000E-02 0. -1.
          2   -1    0    0  501    0  0.00000000000E+00 -0.00000000000E+00 -0.12252547436E+03  0.12252547439E+03  0.25500000000E-02 0.  1.
    5000001    1    1    2    0    0  0.48211825161E+02 -0.89935404234E+01  0.29237426027E+01  0.91338995645E+02  0.77000000000E+02 0.  0.
   -5000001    1    1    2    0    0 -0.48211825161E+02  0.89935404234E+01 -0.51713874194E+02  0.10492182156E+03  0.77000000000E+02 0.  0.
<mgrwt>
<rscale>  0 0.19009953E+03</rscale>
<asrwt>0</asrwt>
<pdfrwt beam="1">  1        2 0.18850073E-01 0.19009953E+03</pdfrwt>
<pdfrwt beam="2">  1       -2 0.11343899E-01 0.19009953E+03</pdfrwt>
<totfact> 0.15472009E+04</totfact>
</mgrwt>
</event>
<event>
 4    1  0.5980424E-004  0.2980231E+03  0.7818608E-02  0.1086233E+00
         -2   -1    0    0    0  501 -0.00000000000E+00  0.00000000000E+00  0.66438049109E+01  0.66438054002E+01  0.25500000000E-02 0. -1.
          2   -1    0    0  501    0  0.00000000000E+00 -0.00000000000E+00 -0.33421278472E+04  0.33421278472E+04  0.25500000000E-02 0.  1.
    5000001    1    1    2    0    0 -0.10925404356E+03 -0.63346736415E+02 -0.18706838970E+04  0.18765224479E+04  0.77000000000E+02 0.  0.
   -5000001    1    1    2    0    0  0.10925404356E+03  0.63346736415E+02 -0.14648001454E+04  0.14722492048E+04  0.77000000000E+02 0.  0.
<mgrwt>
<rscale>  0 0.29802313E+03</rscale>
<asrwt>0</asrwt>
<pdfrwt beam="1">  1        2 0.51417217E+00 0.29802313E+03</pdfrwt>
<pdfrwt beam="2">  1       -2 0.10221265E-02 0.29802313E+03</pdfrwt>
<totfact> 0.26451568E+03</totfact>
</mgrwt>
</event>
<event>
 4    1  0.5980424E-004  0.2064738E+03  0.7818608E-02  0.1144389E+00
          2   -1    0    0  501    0  0.00000000000E+00  0.00000000000E+00  0.35090300726E+04  0.35090300726E+04  0.25500000000E-02 0.  1.
         -2   -1    0    0    0  501 -0.00000000000E+00 -0.00000000000E+00 -0.30372664342E+01  0.30372675047E+01  0.25500000000E-02 0. -1.
    5000001    1    1    2    0    0 -0.64045781983E+02 -0.10976108519E+02  0.21358192244E+04  0.21381943542E+04  0.77000000000E+02 0.  0.
   -5000001    1    1    2    0    0  0.64045781983E+02  0.10976108519E+02  0.13701735818E+04  0.13738729860E+04  0.77000000000E+02 0.  0.
<mgrwt>
<rscale>  0 0.20647384E+03</rscale>
<asrwt>0</asrwt>
<pdfrwt beam="1">  1        2 0.53985614E+00 0.20647384E+03</pdfrwt>
<pdfrwt beam="2">  1       -2 0.46726720E-03 0.20647384E+03</pdfrwt>
<totfact> 0.64344222E+03</totfact>
</mgrwt>
</event>
<event>
 4    1  0.5980424E-004  0.4257559E+03  0.7818608E-02  0.1035209E+00
          2   -1    0    0  501    0  0.00000000000E+00  0.00000000000E+00  0.60857986353E+03  0.60857986354E+03  0.25500000000E-02 0. -1.
         -2   -1    0    0    0  501 -0.00000000000E+00 -0.00000000000E+00 -0.74463568815E+02  0.74463568859E+02  0.25500000000E-02 0.  1.
    5000001    1    1    2    0    0 -0.55005938215E+02  0.18553494498E+03  0.19641104083E+03  0.28627812702E+03  0.77000000000E+02 0.  0.
   -5000001    1    1    2    0    0  0.55005938215E+02 -0.18553494498E+03  0.33770525389E+03  0.39676530538E+03  0.77000000000E+02 0.  0.
<mgrwt>
<rscale>  0 0.42575593E+03</rscale>
<asrwt>0</asrwt>
<pdfrwt beam="1">  1        2 0.93627672E-01 0.42575593E+03</pdfrwt>
<pdfrwt beam="2">  1       -2 0.11455934E-01 0.42575593E+03</pdfrwt>
<totfact> 0.26605162E+03</totfact>
</mgrwt>
</event>
<event>
 4    1  0.5980424E-004  0.2616094E+03  0.7818608E-02  0.1106180E+00
          2   -1    0    0  501    0  0.00000000000E+00  0.00000000000E+00  0.89379278145E+03  0.89379278146E+03  0.25500000000E-02 0.  1.
         -2   -1    0    0    0  501 -0.00000000000E+00 -0.00000000000E+00 -0.19142989624E+02  0.19142989794E+02  0.25500000000E-02 0. -1.
    5000001    1    1    2    0    0  0.37778409320E+01 -0.93910994906E+02  0.26825239419E+03  0.29448581296E+03  0.77000000000E+02 0.  0.
   -5000001    1    1    2    0    0 -0.37778409320E+01  0.93910994906E+02  0.60639739764E+03  0.61844995829E+03  0.77000000000E+02 0.  0.
<mgrwt>
<rscale>  0 0.26160937E+03</rscale>
<asrwt>0</asrwt>
<pdfrwt beam="1">  1        2 0.13750659E+00 0.26160937E+03</pdfrwt>
<pdfrwt beam="2">  1       -2 0.29450752E-02 0.26160937E+03</pdfrwt>
<totfact> 0.13278607E+04</totfact>
</mgrwt>
</event>
<event>
 4    1  0.5980424E-004  0.2792906E+03  0.7818608E-02  0.1096077E+00
         -2   -1    0    0    0  501 -0.00000000000E+00  0.00000000000E+00  0.26073864811E+02  0.26073864935E+02  0.25500000000E-02 0. -1.
          2   -1    0    0  501    0  0.00000000000E+00 -0.00000000000E+00 -0.74790659741E+03  0.74790659742E+03  0.25500000000E-02 0.  1.
    5000001    1    1    2    0    0  0.21973379819E+02 -0.10381047298E+03 -0.22765555565E+03  0.26270800471E+03  0.77000000000E+02 0.  0.
   -5000001    1    1    2    0    0 -0.21973379819E+02  0.10381047298E+03 -0.49417717695E+03  0.51127245764E+03  0.77000000000E+02 0.  0.
<mgrwt>
<rscale>  0 0.27929064E+03</rscale>
<asrwt>0</asrwt>
<pdfrwt beam="1">  1        2 0.11506254E+00 0.27929064E+03</pdfrwt>
<pdfrwt beam="2">  1       -2 0.40113644E-02 0.27929064E+03</pdfrwt>
<totfact> 0.10542991E+04</totfact>
</mgrwt>
</event>
<event>
 4    1  0.5980424E-004  0.4165351E+03  0.7818608E-02  0.1038200E+00
         -2   -1    0    0    0  501 -0.00000000000E+00  0.00000000000E+00  0.81674166602E+02  0.81674166642E+02  0.25500000000E-02 0. -1.
          2   -1    0    0  501    0  0.00000000000E+00 -0.00000000000E+00 -0.53107826750E+03  0.53107826750E+03  0.25500000000E-02 0.  1.
    5000001    1    1    2    0    0  0.36835236758E+02  0.18827056726E+03 -0.18737818906E+03  0.27900219874E+03  0.77000000000E+02 0.  0.
   -5000001    1    1    2    0    0 -0.36835236758E+02 -0.18827056726E+03 -0.26202591183E+03  0.33375023541E+03  0.77000000000E+02 0.  0.
<mgrwt>
<rscale>  0 0.41653511E+03</rscale>
<asrwt>0</asrwt>
<pdfrwt beam="1">  1        2 0.81704347E-01 0.41653511E+03</pdfrwt>
<pdfrwt beam="2">  1       -2 0.12565257E-01 0.41653511E+03</pdfrwt>
<totfact> 0.26816588E+03</totfact>
</mgrwt>
</event>
<event>
 4    1  0.5980424E-004  0.3609654E+03  0.7818608E-02  0.1058202E+00
         -2   -1    0    0    0  501 -0.00000000000E+00  0.00000000000E+00  0.25598276611E+02  0.25598276738E+02  0.25500000000E-02 0. -1.
          2   -1    0    0  501    0  0.00000000000E+00 -0.00000000000E+00 -0.12725080338E+04  0.12725080338E+04  0.25500000000E-02 0.  1.
    5000001    1    1    2    0    0  0.12217672509E+03  0.10812017715E+03 -0.64244607179E+03  0.66729534691E+03  0.77000000000E+02 0.  0.
   -5000001    1    1    2    0    0 -0.12217672509E+03 -0.10812017715E+03 -0.60446368535E+03  0.63081096358E+03  0.77000000000E+02 0.  0.
<mgrwt>
<rscale>  0 0.36096544E+03</rscale>
<asrwt>0</asrwt>
<pdfrwt beam="1">  1        2 0.19577042E+00 0.36096544E+03</pdfrwt>
<pdfrwt beam="2">  1       -2 0.39381974E-02 0.36096544E+03</pdfrwt>
<totfact> 0.51340167E+03</totfact>
</mgrwt>
</event>
<event>
 4    1  0.5980424E-004  0.2045485E+03  0.7818608E-02  0.1145957E+00
          2   -1    0    0  501    0  0.00000000000E+00  0.00000000000E+00  0.64797322118E+02  0.64797322168E+02  0.25500000000E-02 0.  1.
         -2   -1    0    0    0  501 -0.00000000000E+00 -0.00000000000E+00 -0.16142674546E+03  0.16142674548E+03  0.25500000000E-02 0. -1.
    5000001    1    1    2    0    0  0.62926535703E+02 -0.75033510944E+01 -0.23216995654E+02  0.10239178708E+03  0.77000000000E+02 0.  0.
   -5000001    1    1    2    0    0 -0.62926535703E+02  0.75033510944E+01 -0.73412427690E+02  0.12383228058E+03  0.77000000000E+02 0.  0.
<mgrwt>
<rscale>  0 0.20454849E+03</rscale>
<asrwt>0</asrwt>
<pdfrwt beam="1">  1        2 0.99688188E-02 0.20454849E+03</pdfrwt>
<pdfrwt beam="2">  1       -2 0.24834884E-01 0.20454849E+03</pdfrwt>
<totfact> 0.89848891E+03</totfact>
</mgrwt>
</event>
<event>
 4    1  0.5980424E-004  0.2483993E+03  0.7818608E-02  0.1114321E+00
          2   -1    0    0  501    0  0.00000000000E+00  0.00000000000E+00  0.72161127579E+03  0.72161127580E+03  0.25500000000E-02 0.  1.
         -2   -1    0    0    0  501 -0.00000000000E+00 -0.00000000000E+00 -0.21376546676E+02  0.21376546828E+02  0.25500000000E-02 0. -1.
    5000001    1    1    2    0    0  0.46265380559E+02 -0.38175663882E+02  0.12039193496E+03  0.15498736966E+03  0.77000000000E+02 0.  0.
   -5000001    1    1    2    0    0 -0.46265380559E+02  0.38175663882E+02  0.57984279415E+03  0.58800045296E+03  0.77000000000E+02 0.  0.
<mgrwt>
<rscale>  0 0.24839933E+03</rscale>
<asrwt>0</asrwt>
<pdfrwt beam="1">  1        2 0.11101710E+00 0.24839933E+03</pdfrwt>
<pdfrwt beam="2">  1       -2 0.32887001E-02 0.24839933E+03</pdfrwt>
<totfact> 0.14765267E+04</totfact>
</mgrwt>
</event>
<event>
 4    1  0.5980424E-004  0.2623777E+03  0.7818608E-02  0.1105723E+00
          2   -1    0    0  501    0  0.00000000000E+00  0.00000000000E+00  0.47218566495E+01  0.47218573381E+01  0.25500000000E-02 0.  1.
         -2   -1    0    0    0  501 -0.00000000000E+00 -0.00000000000E+00 -0.36448605875E+04  0.36448605875E+04  0.25500000000E-02 0. -1.
    5000001    1    1    2    0    0  0.91134912150E+02  0.37648872630E+02 -0.12709461568E+04  0.12770889332E+04  0.77000000000E+02 0.  0.
   -5000001    1    1    2    0    0 -0.91134912150E+02 -0.37648872630E+02 -0.23691925740E+04  0.23724935116E+04  0.77000000000E+02 0.  0.
<mgrwt>
<rscale>  0 0.26237767E+03</rscale>
<asrwt>0</asrwt>
<pdfrwt beam="1">  1        2 0.72644245E-03 0.26237767E+03</pdfrwt>
<pdfrwt beam="2">  1       -2 0.56074553E+00 0.26237767E+03</pdfrwt>
<totfact> 0.20154048E+01</totfact>
</mgrwt>
</event>
<event>
 4    1  0.5980424E-004  0.2689779E+03  0.7818608E-02  0.1101866E+00
         -2   -1    0    0    0  501 -0.00000000000E+00  0.00000000000E+00  0.92823075472E+03  0.92823075472E+03  0.25500000000E-02 0. -1.
          2   -1    0    0  501    0  0.00000000000E+00 -0.00000000000E+00 -0.19485759131E+02  0.19485759297E+02  0.25500000000E-02 0.  1.
    5000001    1    1    2    0    0 -0.93842962065E+02  0.44269033752E+02  0.58583032083E+03  0.59991033804E+03  0.77000000000E+02 0.  0.
   -5000001    1    1    2    0    0  0.93842962065E+02 -0.44269033752E+02  0.32291467475E+03  0.34780617598E+03  0.77000000000E+02 0.  0.
<mgrwt>
<rscale>  0 0.26897792E+03</rscale>
<asrwt>0</asrwt>
<pdfrwt beam="1">  1        2 0.29978084E-02 0.26897792E+03</pdfrwt>
<pdfrwt beam="2">  1       -2 0.14280476E+00 0.26897792E+03</pdfrwt>
<totfact> 0.11278257E+03</totfact>
</mgrwt>
</event>
<event>
 4    1  0.5980424E-004  0.1965038E+03  0.7818608E-02  0.1152723E+00
          2   -1    0    0  501    0  0.00000000000E+00  0.00000000000E+00  0.59278123021E+03  0.59278123022E+03  0.25500000000E-02 0.  1.
         -2   -1    0    0    0  501 -0.00000000000E+00 -0.00000000000E+00 -0.16284987167E+02  0.16284987367E+02  0.25500000000E-02 0. -1.
    5000001    1    1    2    0    0 -0.51111024202E+02 -0.62886467806E+01  0.38975665219E+03  0.40061344436E+03  0.77000000000E+02 0.  0.
   -5000001    1    1    2    0    0  0.51111024202E+02  0.62886467806E+01  0.18673959085E+03  0.20845277323E+03  0.77000000000E+02 0.  0.
<mgrwt>
<rscale>  0 0.19650379E+03</rscale>
<asrwt>0</asrwt>
<pdfrwt beam="1">  1        2 0.91197122E-01 0.19650379E+03</pdfrwt>
<pdfrwt beam="2">  1       -2 0.25053824E-02 0.19650379E+03</pdfrwt>
<totfact> 0.27480720E+04</totfact>
</mgrwt>
</event>
<event>
 4    1  0.5980424E-004  0.2939547E+03  0.7818608E-02  0.1088302E+00
          2   -1    0    0  501    0  0.00000000000E+00  0.00000000000E+00  0.21006051169E+04  0.21006051169E+04  0.25500000000E-02 0.  1.
         -2   -1    0    0    0  501 -0.00000000000E+00 -0.00000000000E+00 -0.10283862719E+02  0.10283863035E+02  0.25500000000E-02 0. -1.
    5000001    1    1    2    0    0  0.87853816979E+02  0.85427527980E+02  0.12292492646E+04  0.12377394355E+04  0.77000000000E+02 0.  0.
   -5000001    1    1    2    0    0 -0.87853816979E+02 -0.85427527980E+02  0.86107198963E+03  0.87314954447E+03  0.77000000000E+02 0.  0.
<mgrwt>
<rscale>  0 0.29395466E+03</rscale>
<asrwt>0</asrwt>
<pdfrwt beam="1">  1        2 0.32316992E+00 0.29395466E+03</pdfrwt>
<pdfrwt beam="2">  1       -2 0.15821333E-02 0.29395466E+03</pdfrwt>
<totfact> 0.71764829E+03</totfact>
</mgrwt>
</event>
<event>
 4    1  0.5980424E-004  0.2905299E+03  0.7818608E-02  0.1090073E+00
         -2   -1    0    0    0  501 -0.00000000000E+00  0.00000000000E+00  0.11343193532E+02  0.11343193819E+02  0.25500000000E-02 0. -1.
          2   -1    0    0  501    0  0.00000000000E+00 -0.00000000000E+00 -0.18603149098E+04  0.18603149098E+04  0.25500000000E-02 0.  1.
    5000001    1    1    2    0    0 -0.38280004119E+02  0.11056375293E+03 -0.11725916826E+04  0.11809275830E+04  0.77000000000E+02 0.  0.
   -5000001    1    1    2    0    0  0.38280004119E+02 -0.11056375293E+03 -0.67638003368E+03  0.69073052064E+03  0.77000000000E+02 0.  0.
<mgrwt>
<rscale>  0 0.29052995E+03</rscale>
<asrwt>0</asrwt>
<pdfrwt beam="1">  1        2 0.28620205E+00 0.29052995E+03</pdfrwt>
<pdfrwt beam="2">  1       -2 0.17451082E-02 0.29052995E+03</pdfrwt>
<totfact> 0.83190539E+03</totfact>
</mgrwt>
</event>
<event>
 4    1  0.5980424E-004  0.1854122E+03  0.7818608E-02  0.1162666E+00
          2   -1    0    0  501    0  0.00000000000E+00  0.00000000000E+00  0.15961135798E+04  0.15961135798E+04  0.25500000000E-02 0.  1.
         -2   -1    0    0    0  501 -0.00000000000E+00 -0.00000000000E+00 -0.53845922965E+01  0.53845929003E+01  0.25500000000E-02 0. -1.
    5000001    1    1    2    0    0  0.34158077444E+02  0.26841952925E+02  0.10363115671E+04  0.10400759245E+04  0.77000000000E+02 0.  0.
   -5000001    1    1    2    0    0 -0.34158077444E+02 -0.26841952925E+02  0.55441742046E+03  0.56142224823E+03  0.77000000000E+02 0.  0.
<mgrwt>
<rscale>  0 0.18541220E+03</rscale>
<asrwt>0</asrwt>
<pdfrwt beam="1">  1        2 0.24555605E+00 0.18541220E+03</pdfrwt>
<pdfrwt beam="2">  1       -2 0.82839848E-03 0.18541220E+03</pdfrwt>
<totfact> 0.33232550E+04</totfact>
</mgrwt>
</event>
<event>
 4    1  0.5980424E-004  0.1922217E+03  0.7818608E-02  0.1156473E+00
          2   -1    0    0  501    0  0.00000000000E+00  0.00000000000E+00  0.44611481965E+02  0.44611482038E+02  0.25500000000E-02 0.  1.
         -2   -1    0    0    0  501 -0.00000000000E+00 -0.00000000000E+00 -0.20706100417E+03  0.20706100419E+03  0.25500000000E-02 0. -1.
    5000001    1    1    2    0    0  0.82502446775E+01 -0.51737085134E+02 -0.11230486315E+03  0.14589782316E+03  0.77000000000E+02 0.  0.
   -5000001    1    1    2    0    0 -0.82502446775E+01  0.51737085134E+02 -0.50144659063E+02  0.10577466307E+03  0.77000000000E+02 0.  0.
<mgrwt>
<rscale>  0 0.19222173E+03</rscale>
<asrwt>0</asrwt>
<pdfrwt beam="1">  1        2 0.68633050E-02 0.19222173E+03</pdfrwt>
<pdfrwt beam="2">  1       -2 0.31855539E-01 0.19222173E+03</pdfrwt>
<totfact> 0.91729791E+03</totfact>
</mgrwt>
</event>
<event>
 4    1  0.5980424E-004  0.1800620E+03  0.7818608E-02  0.1167743E+00
          2   -1    0    0  501    0  0.00000000000E+00  0.00000000000E+00  0.17337747596E+04  0.17337747596E+04  0.25500000000E-02 0.  1.
         -2   -1    0    0    0  501 -0.00000000000E+00 -0.00000000000E+00 -0.46751081461E+01  0.46751088416E+01  0.25500000000E-02 0. -1.
    5000001    1    1    2    0    0 -0.14537463638E+02 -0.44142519468E+02  0.90398703232E+03  0.90845002860E+03  0.77000000000E+02 0.  0.
   -5000001    1    1    2    0    0  0.14537463638E+02  0.44142519468E+02  0.82511261915E+03  0.82999983985E+03  0.77000000000E+02 0.  0.
<mgrwt>
<rscale>  0 0.18006205E+03</rscale>
<asrwt>0</asrwt>
<pdfrwt beam="1">  1        2 0.26673499E+00 0.18006205E+03</pdfrwt>
<pdfrwt beam="2">  1       -2 0.71924635E-03 0.18006205E+03</pdfrwt>
<totfact> 0.34453957E+04</totfact>
</mgrwt>
</event>
<event>
 4    1  0.5980424E-004  0.2516661E+03  0.7818608E-02  0.1112256E+00
          2   -1    0    0  501    0  0.00000000000E+00  0.00000000000E+00  0.90527910346E+02  0.90527910382E+02  0.25500000000E-02 0.  1.
         -2   -1    0    0    0  501 -0.00000000000E+00 -0.00000000000E+00 -0.17490683722E+03  0.17490683724E+03  0.25500000000E-02 0. -1.
    5000001    1    1    2    0    0 -0.18894301498E+02  0.95818532830E+02 -0.21990603513E+02  0.12629636775E+03  0.77000000000E+02 0.  0.
   -5000001    1    1    2    0    0  0.18894301498E+02 -0.95818532830E+02 -0.62388323364E+02  0.13913837988E+03  0.77000000000E+02 0.  0.
<mgrwt>
<rscale>  0 0.25166605E+03</rscale>
<asrwt>0</asrwt>
<pdfrwt beam="1">  1        2 0.13927371E-01 0.25166605E+03</pdfrwt>
<pdfrwt beam="2">  1       -2 0.26908744E-01 0.25166605E+03</pdfrwt>
<totfact> 0.52479404E+03</totfact>
</mgrwt>
</event>
<event>
 4    1  0.5980424E-004  0.1878369E+03  0.7818608E-02  0.1160427E+00
          2   -1    0    0  501    0  0.00000000000E+00  0.00000000000E+00  0.22576784593E+04  0.22576784593E+04  0.25500000000E-02 0.  1.
         -2   -1    0    0    0  501 -0.00000000000E+00 -0.00000000000E+00 -0.39069671636E+01  0.39069679958E+01  0.25500000000E-02 0. -1.
    5000001    1    1    2    0    0 -0.33276277502E+02  0.29853269659E+02  0.14867128021E+04  0.14893765421E+04  0.77000000000E+02 0.  0.
   -5000001    1    1    2    0    0  0.33276277502E+02 -0.29853269659E+02  0.76705869011E+03  0.77220888523E+03  0.77000000000E+02 0.  0.
<mgrwt>
<rscale>  0 0.18783691E+03</rscale>
<asrwt>0</asrwt>
<pdfrwt beam="1">  1        2 0.34733451E+00 0.18783691E+03</pdfrwt>
<pdfrwt beam="2">  1       -2 0.60107304E-03 0.18783691E+03</pdfrwt>
<totfact> 0.23847671E+04</totfact>
</mgrwt>
</event>
<event>
 4    1  0.5980424E-004  0.2009625E+03  0.7818608E-02  0.1148929E+00
          2   -1    0    0  501    0  0.00000000000E+00  0.00000000000E+00  0.90987903383E+03  0.90987903383E+03  0.25500000000E-02 0.  1.
         -2   -1    0    0    0  501 -0.00000000000E+00 -0.00000000000E+00 -0.11096512484E+02  0.11096512777E+02  0.25500000000E-02 0. -1.
    5000001    1    1    2    0    0  0.57905750400E+02  0.14020581315E+02  0.33547963108E+03  0.34932110657E+03  0.77000000000E+02 0.  0.
   -5000001    1    1    2    0    0 -0.57905750400E+02 -0.14020581315E+02  0.56330289027E+03  0.57165444004E+03  0.77000000000E+02 0.  0.
<mgrwt>
<rscale>  0 0.20096253E+03</rscale>
<asrwt>0</asrwt>
<pdfrwt beam="1">  1        2 0.13998140E+00 0.20096253E+03</pdfrwt>
<pdfrwt beam="2">  1       -2 0.17071557E-02 0.20096253E+03</pdfrwt>
<totfact> 0.28518591E+04</totfact>
</mgrwt>
</event>
<event>
 4    1  0.5980424E-004  0.2257852E+03  0.7818608E-02  0.1129642E+00
          2   -1    0    0  501    0  0.00000000000E+00  0.00000000000E+00  0.12526079749E+04  0.12526079749E+04  0.25500000000E-02 0.  1.
         -2   -1    0    0    0  501 -0.00000000000E+00 -0.00000000000E+00 -0.10174561049E+02  0.10174561368E+02  0.25500000000E-02 0. -1.
    5000001    1    1    2    0    0 -0.79097529871E+02 -0.15093412346E+01  0.48921607538E+03  0.50151776215E+03  0.77000000000E+02 0.  0.
   -5000001    1    1    2    0    0  0.79097529871E+02  0.15093412346E+01  0.75321733850E+03  0.76126477415E+03  0.77000000000E+02 0.  0.
<mgrwt>
<rscale>  0 0.22578518E+03</rscale>
<asrwt>0</asrwt>
<pdfrwt beam="1">  1        2 0.19270886E+00 0.22578518E+03</pdfrwt>
<pdfrwt beam="2">  1       -2 0.15653176E-02 0.22578518E+03</pdfrwt>
<totfact> 0.20455321E+04</totfact>
</mgrwt>
</event>
<event>
 4    1  0.5980424E-004  0.1713404E+03  0.7818608E-02  0.1176457E+00
         -2   -1    0    0    0  501 -0.00000000000E+00  0.00000000000E+00  0.18572654306E+02  0.18572654481E+02  0.25500000000E-02 0. -1.
          2   -1    0    0  501    0  0.00000000000E+00 -0.00000000000E+00 -0.39517168733E+03  0.39517168734E+03  0.25500000000E-02 0.  1.
    5000001    1    1    2    0    0 -0.11964732062E+02  0.21075735145E+02 -0.11902329987E+03  0.14381546279E+03  0.77000000000E+02 0.  0.
   -5000001    1    1    2    0    0  0.11964732062E+02 -0.21075735145E+02 -0.25757573316E+03  0.26992887903E+03  0.77000000000E+02 0.  0.
<mgrwt>
<rscale>  0 0.17134045E+03</rscale>
<asrwt>0</asrwt>
<pdfrwt beam="1">  1        2 0.60795638E-01 0.17134045E+03</pdfrwt>
<pdfrwt beam="2">  1       -2 0.28573317E-02 0.17134045E+03</pdfrwt>
<totfact> 0.35039550E+04</totfact>
</mgrwt>
</event>
<event>
 4    1  0.5980424E-004  0.2881335E+03  0.7818608E-02  0.1091328E+00
          2   -1    0    0  501    0  0.00000000000E+00  0.00000000000E+00  0.95614748673E+03  0.95614748674E+03  0.25500000000E-02 0.  1.
         -2   -1    0    0    0  501 -0.00000000000E+00 -0.00000000000E+00 -0.21707147123E+02  0.21707147273E+02  0.25500000000E-02 0. -1.
    5000001    1    1    2    0    0  0.31469561689E+01 -0.11819972276E+03  0.36855836909E+03  0.39464585291E+03  0.77000000000E+02 0.  0.
   -5000001    1    1    2    0    0 -0.31469561689E+01  0.11819972276E+03  0.56588197052E+03  0.58320878110E+03  0.77000000000E+02 0.  0.
<mgrwt>
<rscale>  0 0.28813354E+03</rscale>
<asrwt>0</asrwt>
<pdfrwt beam="1">  1        2 0.14709960E+00 0.28813354E+03</pdfrwt>
<pdfrwt beam="2">  1       -2 0.33395614E-02 0.28813354E+03</pdfrwt>
<totfact> 0.10079468E+04</totfact>
</mgrwt>
</event>
<event>
 4    1  0.5980424E-004  0.2442717E+03  0.7818608E-02  0.1116979E+00
         -2   -1    0    0    0  501 -0.00000000000E+00  0.00000000000E+00  0.10369882631E+02  0.10369882945E+02  0.25500000000E-02 0. -1.
          2   -1    0    0  501    0  0.00000000000E+00 -0.00000000000E+00 -0.14385082962E+04  0.14385082962E+04  0.25500000000E-02 0.  1.
    5000001    1    1    2    0    0 -0.29163012936E+02 -0.86548081697E+02 -0.56318352055E+03  0.57571323555E+03  0.77000000000E+02 0.  0.
   -5000001    1    1    2    0    0  0.29163012936E+02  0.86548081697E+02 -0.86495489305E+03  0.87316494362E+03  0.77000000000E+02 0.  0.
<mgrwt>
<rscale>  0 0.24427167E+03</rscale>
<asrwt>0</asrwt>
<pdfrwt beam="1">  1        2 0.22130881E+00 0.24427167E+03</pdfrwt>
<pdfrwt beam="2">  1       -2 0.15953677E-02 0.24427167E+03</pdfrwt>
<totfact> 0.15799884E+04</totfact>
</mgrwt>
</event>
<event>
 4    1  0.5980424E-004  0.2933405E+03  0.7818608E-02  0.1088618E+00
          2   -1    0    0  501    0  0.00000000000E+00  0.00000000000E+00  0.31296887022E+03  0.31296887023E+03  0.25500000000E-02 0.  1.
         -2   -1    0    0    0  501 -0.00000000000E+00 -0.00000000000E+00 -0.68735797596E+02  0.68735797644E+02  0.25500000000E-02 0. -1.
    5000001    1    1    2    0    0 -0.77556207091E+02 -0.66578933613E+02  0.28867475056E+02  0.13118708311E+03  0.77000000000E+02 0.  0.
   -5000001    1    1    2    0    0  0.77556207091E+02  0.66578933613E+02  0.21536559757E+03  0.25051758476E+03  0.77000000000E+02 0.  0.
<mgrwt>
<rscale>  0 0.29334052E+03</rscale>
<asrwt>0</asrwt>
<pdfrwt beam="1">  1        2 0.48149057E-01 0.29334052E+03</pdfrwt>
<pdfrwt beam="2">  1       -2 0.10574738E-01 0.29334052E+03</pdfrwt>
<totfact> 0.63099419E+03</totfact>
</mgrwt>
</event>
<event>
 4    1  0.5980424E-004  0.3031653E+03  0.7818608E-02  0.1083669E+00
         -2   -1    0    0    0  501 -0.00000000000E+00  0.00000000000E+00  0.22798675398E+03  0.22798675399E+03  0.25500000000E-02 0. -1.
          2   -1    0    0  501    0  0.00000000000E+00 -0.00000000000E+00 -0.10078349499E+03  0.10078349502E+03  0.25500000000E-02 0.  1.
    5000001    1    1    2    0    0  0.82831918305E+02 -0.83082159994E+02  0.14504165573E+01  0.14033843275E+03  0.77000000000E+02 0.  0.
   -5000001    1    1    2    0    0 -0.82831918305E+02  0.83082159994E+02  0.12575284243E+03  0.18843181626E+03  0.77000000000E+02 0.  0.
<mgrwt>
<rscale>  0 0.30316531E+03</rscale>
<asrwt>0</asrwt>
<pdfrwt beam="1">  1        2 0.15505153E-01 0.30316531E+03</pdfrwt>
<pdfrwt beam="2">  1       -2 0.35074885E-01 0.30316531E+03</pdfrwt>
<totfact> 0.28651424E+03</totfact>
</mgrwt>
</event>
<event>
 4    1  0.5980424E-004  0.2227167E+03  0.7818608E-02  0.1131874E+00
          2   -1    0    0  501    0  0.00000000000E+00  0.00000000000E+00  0.57379860934E+03  0.57379860935E+03  0.25500000000E-02 0.  1.
         -2   -1    0    0    0  501 -0.00000000000E+00 -0.00000000000E+00 -0.21611558211E+02  0.21611558362E+02  0.25500000000E-02 0. -1.
    5000001    1    1    2    0    0 -0.17556414421E+02  0.78092058647E+02  0.25452585735E+03  0.27770309571E+03  0.77000000000E+02 0.  0.
   -5000001    1    1    2    0    0  0.17556414421E+02 -0.78092058647E+02  0.29766119378E+03  0.31770707199E+03  0.77000000000E+02 0.  0.
<mgrwt>
<rscale>  0 0.22271670E+03</rscale>
<asrwt>0</asrwt>
<pdfrwt beam="1">  1        2 0.88276705E-01 0.22271670E+03</pdfrwt>
<pdfrwt beam="2">  1       -2 0.33248553E-02 0.22271670E+03</pdfrwt>
<totfact> 0.18926039E+04</totfact>
</mgrwt>
</event>
<event>
 4    1  0.5980424E-004  0.4036569E+03  0.7818608E-02  0.1042521E+00
          2   -1    0    0  501    0  0.00000000000E+00  0.00000000000E+00  0.20673046245E+03  0.20673046247E+03  0.25500000000E-02 0.  1.
         -2   -1    0    0    0  501 -0.00000000000E+00 -0.00000000000E+00 -0.19704266930E+03  0.19704266932E+03  0.25500000000E-02 0. -1.
    5000001    1    1    2    0    0 -0.66468786310E+02 -0.16892247253E+03 -0.38212904345E+02  0.20085349720E+03  0.77000000000E+02 0.  0.
   -5000001    1    1    2    0    0  0.66468786310E+02  0.16892247253E+03  0.47900697498E+02  0.20291963459E+03  0.77000000000E+02 0.  0.
<mgrwt>
<rscale>  0 0.40365689E+03</rscale>
<asrwt>0</asrwt>
<pdfrwt beam="1">  1        2 0.31804686E-01 0.40365689E+03</pdfrwt>
<pdfrwt beam="2">  1       -2 0.30314257E-01 0.40365689E+03</pdfrwt>
<totfact> 0.16607395E+03</totfact>
</mgrwt>
</event>
<event>
 4    1  0.5980424E-004  0.4644131E+03  0.7818608E-02  0.1023509E+00
         -2   -1    0    0    0  501 -0.00000000000E+00  0.00000000000E+00  0.19672423435E+02  0.19672423601E+02  0.25500000000E-02 0. -1.
          2   -1    0    0  501    0  0.00000000000E+00 -0.00000000000E+00 -0.27408865774E+04  0.27408865774E+04  0.25500000000E-02 0.  1.
    5000001    1    1    2    0    0 -0.15456388651E+03  0.76360760981E+02 -0.55715328495E+03  0.58827692778E+03  0.77000000000E+02 0.  0.
   -5000001    1    1    2    0    0  0.15456388651E+03 -0.76360760981E+02 -0.21640608690E+04  0.21722820733E+04  0.77000000000E+02 0.  0.
<mgrwt>
<rscale>  0 0.46441310E+03</rscale>
<asrwt>0</asrwt>
<pdfrwt beam="1">  1        2 0.42167456E+00 0.46441310E+03</pdfrwt>
<pdfrwt beam="2">  1       -2 0.30265289E-02 0.46441310E+03</pdfrwt>
<totfact> 0.12018275E+03</totfact>
</mgrwt>
</event>
<event>
 4    1  0.5980424E-004  0.4098729E+03  0.7818608E-02  0.1040414E+00
          2   -1    0    0  501    0  0.00000000000E+00  0.00000000000E+00  0.13496691667E+04  0.13496691667E+04  0.25500000000E-02 0.  1.
         -2   -1    0    0    0  501 -0.00000000000E+00 -0.00000000000E+00 -0.31117959976E+02  0.31117960080E+02  0.25500000000E-02 0. -1.
    5000001    1    1    2    0    0  0.13214790636E+03  0.12114068786E+03  0.87051459783E+03  0.89211142827E+03  0.77000000000E+02 0.  0.
   -5000001    1    1    2    0    0 -0.13214790636E+03 -0.12114068786E+03  0.44803660889E+03  0.48867569851E+03  0.77000000000E+02 0.  0.
<mgrwt>
<rscale>  0 0.40987291E+03</rscale>
<asrwt>0</asrwt>
<pdfrwt beam="1">  1        2 0.20764139E+00 0.40987291E+03</pdfrwt>
<pdfrwt beam="2">  1       -2 0.47873789E-02 0.40987291E+03</pdfrwt>
<totfact> 0.34521870E+03</totfact>
</mgrwt>
</event>
<event>
 4    1  0.5980424E-004  0.2632567E+03  0.7818608E-02  0.1105202E+00
         -2   -1    0    0    0  501 -0.00000000000E+00  0.00000000000E+00  0.30354099763E+03  0.30354099765E+03  0.25500000000E-02 0. -1.
          2   -1    0    0  501    0  0.00000000000E+00 -0.00000000000E+00 -0.57079660832E+02  0.57079660889E+02  0.25500000000E-02 0.  1.
    5000001    1    1    2    0    0 -0.69832864393E+02  0.57393978770E+02  0.45422548862E+02  0.12713341690E+03  0.77000000000E+02 0.  0.
   -5000001    1    1    2    0    0  0.69832864393E+02 -0.57393978770E+02  0.20103878794E+03  0.23348724163E+03  0.77000000000E+02 0.  0.
<mgrwt>
<rscale>  0 0.26325666E+03</rscale>
<asrwt>0</asrwt>
<pdfrwt beam="1">  1        2 0.87814861E-02 0.26325666E+03</pdfrwt>
<pdfrwt beam="2">  1       -2 0.46698616E-01 0.26325666E+03</pdfrwt>
<totfact> 0.33030349E+03</totfact>
</mgrwt>
</event>
<event>
 4    1  0.5980424E-004  0.2882759E+03  0.7818608E-02  0.1091253E+00
          2   -1    0    0  501    0  0.00000000000E+00  0.00000000000E+00  0.86803666475E+03  0.86803666475E+03  0.25500000000E-02 0.  1.
         -2   -1    0    0    0  501 -0.00000000000E+00 -0.00000000000E+00 -0.23934179871E+02  0.23934180007E+02  0.25500000000E-02 0. -1.
    5000001    1    1    2    0    0  0.11558691881E+03  0.16686165095E+02  0.31451061830E+03  0.34421605560E+03  0.77000000000E+02 0.  0.
   -5000001    1    1    2    0    0 -0.11558691881E+03 -0.16686165095E+02  0.52959186658E+03  0.54775478916E+03  0.77000000000E+02 0.  0.
<mgrwt>
<rscale>  0 0.28827588E+03</rscale>
<asrwt>0</asrwt>
<pdfrwt beam="1">  1        2 0.13354410E+00 0.28827588E+03</pdfrwt>
<pdfrwt beam="2">  1       -2 0.36821816E-02 0.28827588E+03</pdfrwt>
<totfact> 0.99208075E+03</totfact>
</mgrwt>
</event>
<event>
 4    1  0.5980424E-004  0.7085305E+03  0.7818608E-02  0.9702754E-01
         -2   -1    0    0    0  501 -0.00000000000E+00  0.00000000000E+00  0.56814366803E+02  0.56814366860E+02  0.25500000000E-02 0. -1.
          2   -1    0    0  501    0  0.00000000000E+00 -0.00000000000E+00 -0.22090164174E+04  0.22090164174E+04  0.25500000000E-02 0.  1.
    5000001    1    1    2    0    0 -0.39537947162E+02  0.20463037448E+03 -0.19369241571E+03  0.29475853055E+03  0.77000000000E+02 0.  0.
   -5000001    1    1    2    0    0  0.39537947162E+02 -0.20463037448E+03 -0.19585096349E+04  0.19710722537E+04  0.77000000000E+02 0.  0.
<mgrwt>
<rscale>  0 0.70853050E+03</rscale>
<asrwt>0</asrwt>
<pdfrwt beam="1">  1        2 0.33984861E+00 0.70853050E+03</pdfrwt>
<pdfrwt beam="2">  1       -2 0.87406735E-02 0.70853050E+03</pdfrwt>
<totfact> 0.44982833E+02</totfact>
</mgrwt>
</event>
<event>
 4    1  0.5980424E-004  0.1969739E+03  0.7818608E-02  0.1152318E+00
          2   -1    0    0  501    0  0.00000000000E+00  0.00000000000E+00  0.19212311279E+03  0.19212311281E+03  0.25500000000E-02 0.  1.
         -2   -1    0    0    0  501 -0.00000000000E+00 -0.00000000000E+00 -0.50486786501E+02  0.50486786565E+02  0.25500000000E-02 0. -1.
    5000001    1    1    2    0    0  0.18854520840E+02  0.45204268083E+02  0.11643644063E+03  0.14793702551E+03  0.77000000000E+02 0.  0.
   -5000001    1    1    2    0    0 -0.18854520840E+02 -0.45204268083E+02  0.25199885661E+02  0.94672873867E+02  0.77000000000E+02 0.  0.
<mgrwt>
<rscale>  0 0.19697389E+03</rscale>
<asrwt>0</asrwt>
<pdfrwt beam="1">  1        2 0.29557401E-01 0.19697389E+03</pdfrwt>
<pdfrwt beam="2">  1       -2 0.77671981E-02 0.19697389E+03</pdfrwt>
<totfact> 0.17024368E+04</totfact>
</mgrwt>
</event>
<event>
 4    1  0.5980424E-004  0.2511410E+03  0.7818608E-02  0.1112586E+00
          2   -1    0    0  501    0  0.00000000000E+00  0.00000000000E+00  0.70468014470E+03  0.70468014471E+03  0.25500000000E-02 0.  1.
         -2   -1    0    0    0  501 -0.00000000000E+00 -0.00000000000E+00 -0.22376036623E+02  0.22376036769E+02  0.25500000000E-02 0. -1.
    5000001    1    1    2    0    0 -0.54477139884E+02 -0.73281777949E+02  0.45331167436E+03  0.46878401408E+03  0.77000000000E+02 0.  0.
   -5000001    1    1    2    0    0  0.54477139884E+02  0.73281777949E+02  0.22899243373E+03  0.25827216740E+03  0.77000000000E+02 0.  0.
<mgrwt>
<rscale>  0 0.25114099E+03</rscale>
<asrwt>0</asrwt>
<pdfrwt beam="1">  1        2 0.10841231E+00 0.25114099E+03</pdfrwt>
<pdfrwt beam="2">  1       -2 0.34424679E-02 0.25114099E+03</pdfrwt>
<totfact> 0.14203917E+04</totfact>
</mgrwt>
</event>
<event>
 4    1  0.5980424E-004  0.1963790E+03  0.7818608E-02  0.1152831E+00
          2   -1    0    0  501    0  0.00000000000E+00  0.00000000000E+00  0.84830448317E+03  0.84830448318E+03  0.25500000000E-02 0.  1.
         -2   -1    0    0    0  501 -0.00000000000E+00 -0.00000000000E+00 -0.11365227790E+02  0.11365228076E+02  0.25500000000E-02 0. -1.
    5000001    1    1    2    0    0  0.52792939283E+02  0.29882182403E+02  0.39365414267E+03  0.40567551479E+03  0.77000000000E+02 0.  0.
   -5000001    1    1    2    0    0 -0.52792939283E+02 -0.29882182403E+02  0.44328511271E+03  0.45399419646E+03  0.77000000000E+02 0.  0.
<mgrwt>
<rscale>  0 0.19637896E+03</rscale>
<asrwt>0</asrwt>
<pdfrwt beam="1">  1        2 0.13050841E+00 0.19637896E+03</pdfrwt>
<pdfrwt beam="2">  1       -2 0.17484962E-02 0.19637896E+03</pdfrwt>
<totfact> 0.30143287E+04</totfact>
</mgrwt>
</event>
<event>
 4    1  0.5980424E-004  0.2801425E+03  0.7818608E-02  0.1095611E+00
          2   -1    0    0  501    0  0.00000000000E+00  0.00000000000E+00  0.42927429105E+04  0.42927429105E+04  0.25500000000E-02 0.  1.
         -2   -1    0    0    0  501 -0.00000000000E+00 -0.00000000000E+00 -0.45704932431E+01  0.45704939545E+01  0.25500000000E-02 0. -1.
    5000001    1    1    2    0    0 -0.61764234687E+02  0.99180232267E+02  0.20477814133E+04  0.20525567607E+04  0.77000000000E+02 0.  0.
   -5000001    1    1    2    0    0  0.61764234687E+02 -0.99180232267E+02  0.22403910039E+04  0.22447566437E+04  0.77000000000E+02 0.  0.
<mgrwt>
<rscale>  0 0.28014249E+03</rscale>
<asrwt>0</asrwt>
<pdfrwt beam="1">  1        2 0.66041786E+00 0.28014249E+03</pdfrwt>
<pdfrwt beam="2">  1       -2 0.70315726E-03 0.28014249E+03</pdfrwt>
<totfact> 0.92059130E+02</totfact>
</mgrwt>
</event>
<event>
 4    1  0.5980424E-004  0.2720948E+03  0.7818608E-02  0.1100087E+00
         -2   -1    0    0    0  501 -0.00000000000E+00  0.00000000000E+00  0.17533169898E+03  0.17533169900E+03  0.25500000000E-02 0. -1.
          2   -1    0    0  501    0  0.00000000000E+00 -0.00000000000E+00 -0.10556505251E+03  0.10556505254E+03  0.25500000000E-02 0.  1.
    5000001    1    1    2    0    0 -0.88728790595E+02  0.30738369263E+02  0.98204721344E+02  0.15617558362E+03  0.77000000000E+02 0.  0.
   -5000001    1    1    2    0    0  0.88728790595E+02 -0.30738369263E+02 -0.28438074869E+02  0.12472116792E+03  0.77000000000E+02 0.  0.
<mgrwt>
<rscale>  0 0.27209484E+03</rscale>
<asrwt>0</asrwt>
<pdfrwt beam="1">  1        2 0.16240778E-01 0.27209484E+03</pdfrwt>
<pdfrwt beam="2">  1       -2 0.26974107E-01 0.27209484E+03</pdfrwt>
<totfact> 0.43685923E+03</totfact>
</mgrwt>
</event>
<event>
 4    1  0.5980424E-004  0.2092587E+03  0.7818608E-02  0.1142154E+00
         -2   -1    0    0    0  501 -0.00000000000E+00  0.00000000000E+00  0.15027998883E+02  0.15027999099E+02  0.25500000000E-02 0. -1.
          2   -1    0    0  501    0  0.00000000000E+00 -0.00000000000E+00 -0.72845997543E+03  0.72845997543E+03  0.25500000000E-02 0.  1.
    5000001    1    1    2    0    0  0.50611571143E+02 -0.43278277911E+02 -0.44255919792E+03  0.45411692782E+03  0.77000000000E+02 0.  0.
   -5000001    1    1    2    0    0 -0.50611571143E+02  0.43278277911E+02 -0.27087277863E+03  0.28937104671E+03  0.77000000000E+02 0.  0.
<mgrwt>
<rscale>  0 0.20925865E+03</rscale>
<asrwt>0</asrwt>
<pdfrwt beam="1">  1        2 0.11207074E+00 0.20925865E+03</pdfrwt>
<pdfrwt beam="2">  1       -2 0.23120004E-02 0.20925865E+03</pdfrwt>
<totfact> 0.24348449E+04</totfact>
</mgrwt>
</event>
<event>
 4    1  0.5980424E-004  0.2658273E+03  0.7818608E-02  0.1103692E+00
         -2   -1    0    0    0  501 -0.00000000000E+00  0.00000000000E+00  0.14367040525E+02  0.14367040752E+02  0.25500000000E-02 0. -1.
          2   -1    0    0  501    0  0.00000000000E+00 -0.00000000000E+00 -0.12296227066E+04  0.12296227066E+04  0.25500000000E-02 0.  1.
    5000001    1    1    2    0    0  0.27140084716E+02  0.10453886382E+03 -0.64735870248E+03  0.66080802653E+03  0.77000000000E+02 0.  0.
   -5000001    1    1    2    0    0 -0.27140084716E+02 -0.10453886382E+03 -0.56789696357E+03  0.58318172080E+03  0.77000000000E+02 0.  0.
<mgrwt>
<rscale>  0 0.26582731E+03</rscale>
<asrwt>0</asrwt>
<pdfrwt beam="1">  1        2 0.18917264E+00 0.26582731E+03</pdfrwt>
<pdfrwt beam="2">  1       -2 0.22103149E-02 0.26582731E+03</pdfrwt>
<totfact> 0.12787851E+04</totfact>
</mgrwt>
</event>
<event>
 4    1  0.5980424E-004  0.1827422E+03  0.7818608E-02  0.1165175E+00
          2   -1    0    0  501    0  0.00000000000E+00  0.00000000000E+00  0.21781432657E+04  0.21781432657E+04  0.25500000000E-02 0. -1.
         -2   -1    0    0    0  501 -0.00000000000E+00 -0.00000000000E+00 -0.38329318523E+01  0.38329327005E+01  0.25500000000E-02 0.  1.
    5000001    1    1    2    0    0  0.14945945633E+02  0.45837153406E+02  0.12036865875E+04  0.12071101138E+04  0.77000000000E+02 0.  0.
   -5000001    1    1    2    0    0 -0.14945945633E+02 -0.45837153406E+02  0.97062374635E+03  0.97486608460E+03  0.77000000000E+02 0.  0.
<mgrwt>
<rscale>  0 0.18274217E+03</rscale>
<asrwt>0</asrwt>
<pdfrwt beam="1">  1        2 0.33509993E+00 0.18274217E+03</pdfrwt>
<pdfrwt beam="2">  1       -2 0.58968019E-03 0.18274217E+03</pdfrwt>
<totfact> 0.26952146E+04</totfact>
</mgrwt>
</event>
<event>
 4    1  0.5980424E-004  0.2034884E+03  0.7818608E-02  0.1146829E+00
          2   -1    0    0  501    0  0.00000000000E+00  0.00000000000E+00  0.13858481785E+04  0.13858481785E+04  0.25500000000E-02 0.  1.
         -2   -1    0    0    0  501 -0.00000000000E+00 -0.00000000000E+00 -0.74697116831E+01  0.74697121183E+01  0.25500000000E-02 0. -1.
    5000001    1    1    2    0    0 -0.64374430428E+02  0.16471098415E+02  0.67040970892E+03  0.67808077852E+03  0.77000000000E+02 0.  0.
   -5000001    1    1    2    0    0  0.64374430428E+02 -0.16471098415E+02  0.70796875784E+03  0.71523711205E+03  0.77000000000E+02 0.  0.
<mgrwt>
<rscale>  0 0.20348844E+03</rscale>
<asrwt>0</asrwt>
<pdfrwt beam="1">  1        2 0.21320772E+00 0.20348844E+03</pdfrwt>
<pdfrwt beam="2">  1       -2 0.11491848E-02 0.20348844E+03</pdfrwt>
<totfact> 0.26942634E+04</totfact>
</mgrwt>
</event>
<event>
 4    1  0.5980424E-004  0.3301662E+03  0.7818608E-02  0.1071063E+00
          2   -1    0    0  501    0  0.00000000000E+00  0.00000000000E+00  0.23479742091E+03  0.23479742092E+03  0.25500000000E-02 0. -1.
         -2   -1    0    0    0  501 -0.00000000000E+00 -0.00000000000E+00 -0.11606787173E+03  0.11606787175E+03  0.25500000000E-02 0.  1.
    5000001    1    1    2    0    0  0.17700810121E+02  0.13059500804E+03  0.12619676541E+03  0.19804796996E+03  0.77000000000E+02 0.  0.
   -5000001    1    1    2    0    0 -0.17700810121E+02 -0.13059500804E+03 -0.74672162333E+01  0.15281732272E+03  0.77000000000E+02 0.  0.
<mgrwt>
<rscale>  0 0.33016624E+03</rscale>
<asrwt>0</asrwt>
<pdfrwt beam="1">  1        2 0.36122680E-01 0.33016624E+03</pdfrwt>
<pdfrwt beam="2">  1       -2 0.17856596E-01 0.33016624E+03</pdfrwt>
<totfact> 0.36531469E+03</totfact>
</mgrwt>
</event>
<event>
 4    1  0.5980424E-004  0.2463880E+03  0.7818608E-02  0.1115609E+00
          2   -1    0    0  501    0  0.00000000000E+00  0.00000000000E+00  0.12266315386E+04  0.12266315386E+04  0.25500000000E-02 0.  1.
         -2   -1    0    0    0  501 -0.00000000000E+00 -0.00000000000E+00 -0.12372718724E+02  0.12372718986E+02  0.25500000000E-02 0. -1.
    5000001    1    1    2    0    0 -0.64847027401E+02  0.25419973449E+02  0.94055927073E+03  0.94627271638E+03  0.77000000000E+02 0.  0.
   -5000001    1    1    2    0    0  0.64847027401E+02 -0.25419973449E+02  0.27369954911E+03  0.29273154117E+03  0.77000000000E+02 0.  0.
<mgrwt>
<rscale>  0 0.24638804E+03</rscale>
<asrwt>0</asrwt>
<pdfrwt beam="1">  1        2 0.18871257E+00 0.24638804E+03</pdfrwt>
<pdfrwt beam="2">  1       -2 0.19034949E-02 0.24638804E+03</pdfrwt>
<totfact> 0.15950190E+04</totfact>
</mgrwt>
</event>
<event>
 4    1  0.5980424E-004  0.3546479E+03  0.7818608E-02  0.1060723E+00
         -2   -1    0    0    0  501 -0.00000000000E+00  0.00000000000E+00  0.15522318067E+03  0.15522318069E+03  0.25500000000E-02 0. -1.
          2   -1    0    0  501    0  0.00000000000E+00 -0.00000000000E+00 -0.20257138526E+03  0.20257138527E+03  0.25500000000E-02 0.  1.
    5000001    1    1    2    0    0 -0.98546846421E+01 -0.11535920547E+03  0.87347356516E+02  0.16420542557E+03  0.77000000000E+02 0.  0.
   -5000001    1    1    2    0    0  0.98546846421E+01  0.11535920547E+03 -0.13469556111E+03  0.19358914039E+03  0.77000000000E+02 0.  0.
<mgrwt>
<rscale>  0 0.35464785E+03</rscale>
<asrwt>0</asrwt>
<pdfrwt beam="1">  1        2 0.31164828E-01 0.35464785E+03</pdfrwt>
<pdfrwt beam="2">  1       -2 0.23880489E-01 0.35464785E+03</pdfrwt>
<totfact> 0.26035790E+03</totfact>
</mgrwt>
</event>
<event>
 4    1  0.5980424E-004  0.2148179E+03  0.7818608E-02  0.1137807E+00
          2   -1    0    0  501    0  0.00000000000E+00  0.00000000000E+00  0.10726888769E+03  0.10726888772E+03  0.25500000000E-02 0.  1.
         -2   -1    0    0    0  501 -0.00000000000E+00 -0.00000000000E+00 -0.10754923180E+03  0.10754923183E+03  0.25500000000E-02 0. -1.
    5000001    1    1    2    0    0 -0.30669208848E+02  0.58385527238E+02 -0.35611547190E+02  0.10745535099E+03  0.77000000000E+02 0.  0.
   -5000001    1    1    2    0    0  0.30669208848E+02 -0.58385527238E+02  0.35331203081E+02  0.10736276856E+03  0.77000000000E+02 0.  0.
<mgrwt>
<rscale>  0 0.21481794E+03</rscale>
<asrwt>0</asrwt>
<pdfrwt beam="1">  1        2 0.16502906E-01 0.21481794E+03</pdfrwt>
<pdfrwt beam="2">  1       -2 0.16546036E-01 0.21481794E+03</pdfrwt>
<totfact> 0.98352187E+03</totfact>
</mgrwt>
</event>
<event>
 4    1  0.5980424E-004  0.1871287E+03  0.7818608E-02  0.1161077E+00
          2   -1    0    0  501    0  0.00000000000E+00  0.00000000000E+00  0.63900607600E+03  0.63900607600E+03  0.25500000000E-02 0.  1.
         -2   -1    0    0    0  501 -0.00000000000E+00 -0.00000000000E+00 -0.13699845589E+02  0.13699845827E+02  0.25500000000E-02 0. -1.
    5000001    1    1    2    0    0  0.47497452065E+01 -0.51469323050E+02  0.26941965614E+03  0.28493438264E+03  0.77000000000E+02 0.  0.
   -5000001    1    1    2    0    0 -0.47497452065E+01  0.51469323050E+02  0.35588657426E+03  0.36777153919E+03  0.77000000000E+02 0.  0.
<mgrwt>
<rscale>  0 0.18712867E+03</rscale>
<asrwt>0</asrwt>
<pdfrwt beam="1">  1        2 0.98308629E-01 0.18712867E+03</pdfrwt>
<pdfrwt beam="2">  1       -2 0.21076685E-02 0.18712867E+03</pdfrwt>
<totfact> 0.32340578E+04</totfact>
</mgrwt>
</event>
<event>
 4    1  0.5980424E-004  0.4665335E+03  0.7818608E-02  0.1022903E+00
          2   -1    0    0  501    0  0.00000000000E+00  0.00000000000E+00  0.27420241276E+03  0.27420241277E+03  0.25500000000E-02 0.  1.
         -2   -1    0    0    0  501 -0.00000000000E+00 -0.00000000000E+00 -0.19844234595E+03  0.19844234597E+03  0.25500000000E-02 0. -1.
    5000001    1    1    2    0    0  0.34607710440E+02 -0.21503077635E+03  0.70683834765E+02  0.24158048948E+03  0.77000000000E+02 0.  0.
   -5000001    1    1    2    0    0 -0.34607710440E+02  0.21503077635E+03  0.50762320455E+01  0.23106426927E+03  0.77000000000E+02 0.  0.
<mgrwt>
<rscale>  0 0.46653347E+03</rscale>
<asrwt>0</asrwt>
<pdfrwt beam="1">  1        2 0.42184987E-01 0.46653347E+03</pdfrwt>
<pdfrwt beam="2">  1       -2 0.30529591E-01 0.46653347E+03</pdfrwt>
<totfact> 0.12024398E+03</totfact>
</mgrwt>
</event>
<event>
 4    1  0.5980424E-004  0.3083165E+03  0.7818608E-02  0.1081156E+00
         -2   -1    0    0    0  501 -0.00000000000E+00  0.00000000000E+00  0.49819088422E+01  0.49819094948E+01  0.25500000000E-02 0. -1.
          2   -1    0    0  501    0  0.00000000000E+00 -0.00000000000E+00 -0.47702133249E+04  0.47702133249E+04  0.25500000000E-02 0.  1.
    5000001    1    1    2    0    0  0.54258898865E+02  0.80533879877E+02 -0.96261047200E+03  0.97055533316E+03  0.77000000000E+02 0.  0.
   -5000001    1    1    2    0    0 -0.54258898865E+02 -0.80533879877E+02 -0.38026209441E+04  0.38046399013E+04  0.77000000000E+02 0.  0.
<mgrwt>
<rscale>  0 0.30831652E+03</rscale>
<asrwt>0</asrwt>
<pdfrwt beam="1">  1        2 0.73387532E+00 0.30831652E+03</pdfrwt>
<pdfrwt beam="2">  1       -2 0.76645138E-03 0.30831652E+03</pdfrwt>
<totfact> 0.28443630E+02</totfact>
</mgrwt>
</event>
<event>
 4    1  0.5980424E-004  0.2589567E+03  0.7818608E-02  0.1107772E+00
          2   -1    0    0  501    0  0.00000000000E+00  0.00000000000E+00  0.14523779001E+04  0.14523779001E+04  0.25500000000E-02 0.  1.
         -2   -1    0    0    0  501 -0.00000000000E+00 -0.00000000000E+00 -0.11542894479E+02  0.11542894760E+02  0.25500000000E-02 0. -1.
    5000001    1    1    2    0    0  0.48765452919E+02 -0.91951922228E+02  0.71162390096E+03  0.72330546923E+03  0.77000000000E+02 0.  0.
   -5000001    1    1    2    0    0 -0.48765452919E+02  0.91951922228E+02  0.72921110462E+03  0.74061532559E+03  0.77000000000E+02 0.  0.
<mgrwt>
<rscale>  0 0.25895671E+03</rscale>
<asrwt>0</asrwt>
<pdfrwt beam="1">  1        2 0.22344253E+00 0.25895671E+03</pdfrwt>
<pdfrwt beam="2">  1       -2 0.17758317E-02 0.25895671E+03</pdfrwt>
<totfact> 0.13301672E+04</totfact>
</mgrwt>
</event>
<event>
 4    1  0.5980424E-004  0.2263721E+03  0.7818608E-02  0.1129220E+00
         -2   -1    0    0    0  501 -0.00000000000E+00  0.00000000000E+00  0.86874690757E+01  0.86874694500E+01  0.25500000000E-02 0. -1.
          2   -1    0    0  501    0  0.00000000000E+00 -0.00000000000E+00 -0.14746627575E+04  0.14746627575E+04  0.25500000000E-02 0.  1.
    5000001    1    1    2    0    0  0.21188008796E+02  0.74385068559E+02 -0.53640456904E+03  0.54739467647E+03  0.77000000000E+02 0.  0.
   -5000001    1    1    2    0    0 -0.21188008796E+02 -0.74385068559E+02 -0.92957071941E+03  0.93595555051E+03  0.77000000000E+02 0.  0.
<mgrwt>
<rscale>  0 0.22637215E+03</rscale>
<asrwt>0</asrwt>
<pdfrwt beam="1">  1        2 0.22687099E+00 0.22637215E+03</pdfrwt>
<pdfrwt beam="2">  1       -2 0.13365349E-02 0.22637215E+03</pdfrwt>
<totfact> 0.19499882E+04</totfact>
</mgrwt>
</event>
<event>
 4    1  0.5980424E-004  0.4623064E+03  0.7818608E-02  0.1024114E+00
         -2   -1    0    0    0  501 -0.00000000000E+00  0.00000000000E+00  0.44329772580E+02  0.44329772653E+02  0.25500000000E-02 0. -1.
          2   -1    0    0  501    0  0.00000000000E+00 -0.00000000000E+00 -0.12053253949E+04  0.12053253949E+04  0.25500000000E-02 0.  1.
    5000001    1    1    2    0    0  0.13975595617E+03  0.16073959777E+03 -0.45563222735E+03  0.50882086453E+03  0.77000000000E+02 0.  0.
   -5000001    1    1    2    0    0 -0.13975595617E+03 -0.16073959777E+03 -0.70536339493E+03  0.74083430299E+03  0.77000000000E+02 0.  0.
<mgrwt>
<rscale>  0 0.46230639E+03</rscale>
<asrwt>0</asrwt>
<pdfrwt beam="1">  1        2 0.18543465E+00 0.46230639E+03</pdfrwt>
<pdfrwt beam="2">  1       -2 0.68199659E-02 0.46230639E+03</pdfrwt>
<totfact> 0.24079292E+03</totfact>
</mgrwt>
</event>
<event>
 4    1  0.5980424E-004  0.3083116E+03  0.7818608E-02  0.1081158E+00
         -2   -1    0    0    0  501 -0.00000000000E+00  0.00000000000E+00  0.26412314971E+02  0.26412315094E+02  0.25500000000E-02 0. -1.
          2   -1    0    0  501    0  0.00000000000E+00 -0.00000000000E+00 -0.89973227122E+03  0.89973227123E+03  0.25500000000E-02 0.  1.
    5000001    1    1    2    0    0  0.50546015625E+02  0.12357470062E+03 -0.42744724789E+03  0.45438503063E+03  0.77000000000E+02 0.  0.
   -5000001    1    1    2    0    0 -0.50546015625E+02 -0.12357470062E+03 -0.44587270836E+03  0.47175955570E+03  0.77000000000E+02 0.  0.
<mgrwt>
<rscale>  0 0.30831161E+03</rscale>
<asrwt>0</asrwt>
<pdfrwt beam="1">  1        2 0.13842033E+00 0.30831161E+03</pdfrwt>
<pdfrwt beam="2">  1       -2 0.40634338E-02 0.30831161E+03</pdfrwt>
<totfact> 0.81688417E+03</totfact>
</mgrwt>
</event>
<event>
 4    1  0.5980424E-004  0.3044222E+03  0.7818608E-02  0.1083051E+00
          2   -1    0    0  501    0  0.00000000000E+00  0.00000000000E+00  0.11355049685E+03  0.11355049688E+03  0.25500000000E-02 0.  1.
         -2   -1    0    0    0  501 -0.00000000000E+00 -0.00000000000E+00 -0.20403453751E+03  0.20403453752E+03  0.25500000000E-02 0. -1.
    5000001    1    1    2    0    0 -0.97247760571E+02 -0.61845006747E+02 -0.11086903985E+03  0.17749049494E+03  0.77000000000E+02 0.  0.
   -5000001    1    1    2    0    0  0.97247760571E+02  0.61845006747E+02  0.20384999195E+02  0.14009453946E+03  0.77000000000E+02 0.  0.
<mgrwt>
<rscale>  0 0.30442223E+03</rscale>
<asrwt>0</asrwt>
<pdfrwt beam="1">  1        2 0.17469307E-01 0.30442223E+03</pdfrwt>
<pdfrwt beam="2">  1       -2 0.31389929E-01 0.30442223E+03</pdfrwt>
<totfact> 0.30585853E+03</totfact>
</mgrwt>
</event>
<event>
 4    1  0.5980424E-004  0.2207089E+03  0.7818608E-02  0.1133356E+00
         -2   -1    0    0    0  501 -0.00000000000E+00  0.00000000000E+00  0.12378427581E+03  0.12378427583E+03  0.25500000000E-02 0. -1.
          2   -1    0    0  501    0  0.00000000000E+00 -0.00000000000E+00 -0.98381644969E+02  0.98381645002E+02  0.25500000000E-02 0.  1.
    5000001    1    1    2    0    0  0.62306288579E+02  0.46127182436E+02 -0.28704625539E+01  0.10930247075E+03  0.77000000000E+02 0.  0.
   -5000001    1    1    2    0    0 -0.62306288579E+02 -0.46127182436E+02  0.28273093391E+02  0.11286345009E+03  0.77000000000E+02 0.  0.
<mgrwt>
<rscale>  0 0.22070886E+03</rscale>
<asrwt>0</asrwt>
<pdfrwt beam="1">  1        2 0.15135638E-01 0.22070886E+03</pdfrwt>
<pdfrwt beam="2">  1       -2 0.19043735E-01 0.22070886E+03</pdfrwt>
<totfact> 0.86110021E+03</totfact>
</mgrwt>
</event>
<event>
 4    1  0.5980424E-004  0.1792043E+03  0.7818608E-02  0.1168575E+00
         -2   -1    0    0    0  501 -0.00000000000E+00  0.00000000000E+00  0.38361056853E+01  0.38361065328E+01  0.25500000000E-02 0. -1.
          2   -1    0    0  501    0  0.00000000000E+00 -0.00000000000E+00 -0.20928904161E+04  0.20928904161E+04  0.25500000000E-02 0.  1.
    5000001    1    1    2    0    0  0.22293987763E+02  0.35548639303E+02 -0.82916019081E+03  0.83378435441E+03  0.77000000000E+02 0.  0.
   -5000001    1    1    2    0    0 -0.22293987763E+02 -0.35548639303E+02 -0.12598941196E+04  0.12629421682E+04  0.77000000000E+02 0.  0.
<mgrwt>
<rscale>  0 0.17920435E+03</rscale>
<asrwt>0</asrwt>
<pdfrwt beam="1">  1        2 0.32198223E+00 0.17920435E+03</pdfrwt>
<pdfrwt beam="2">  1       -2 0.59017184E-03 0.17920435E+03</pdfrwt>
<totfact> 0.29795647E+04</totfact>
</mgrwt>
</event>
<event>
 4    1  0.5980424E-004  0.3401175E+03  0.7818608E-02  0.1066746E+00
          2   -1    0    0  501    0  0.00000000000E+00  0.00000000000E+00  0.72685529215E+03  0.72685529215E+03  0.25500000000E-02 0.  1.
         -2   -1    0    0    0  501 -0.00000000000E+00 -0.00000000000E+00 -0.39787800201E+02  0.39787800283E+02  0.25500000000E-02 0. -1.
    5000001    1    1    2    0    0  0.10579196643E+03 -0.82397431240E+01  0.58767118846E+03  0.60211814395E+03  0.77000000000E+02 0.  0.
   -5000001    1    1    2    0    0 -0.10579196643E+03  0.82397431240E+01  0.99396303487E+02  0.16452494849E+03  0.77000000000E+02 0.  0.
<mgrwt>
<rscale>  0 0.34011747E+03</rscale>
<asrwt>0</asrwt>
<pdfrwt beam="1">  1        2 0.11182389E+00 0.34011747E+03</pdfrwt>
<pdfrwt beam="2">  1       -2 0.61212000E-02 0.34011747E+03</pdfrwt>
<totfact> 0.57667016E+03</totfact>
</mgrwt>
</event>
<event>
 4    1  0.5980424E-004  0.3878521E+03  0.7818608E-02  0.1048069E+00
          2   -1    0    0  501    0  0.00000000000E+00  0.00000000000E+00  0.67859832421E+03  0.67859832422E+03  0.25500000000E-02 0. -1.
         -2   -1    0    0    0  501 -0.00000000000E+00 -0.00000000000E+00 -0.55419103300E+02  0.55419103359E+02  0.25500000000E-02 0.  1.
    5000001    1    1    2    0    0  0.15313646915E+03 -0.29333211864E+02  0.14915133261E+03  0.22909896447E+03  0.77000000000E+02 0.  0.
   -5000001    1    1    2    0    0 -0.15313646915E+03  0.29333211864E+02  0.47402788830E+03  0.50491846311E+03  0.77000000000E+02 0.  0.
<mgrwt>
<rscale>  0 0.38785209E+03</rscale>
<asrwt>0</asrwt>
<pdfrwt beam="1">  1        2 0.10439974E+00 0.38785209E+03</pdfrwt>
<pdfrwt beam="2">  1       -2 0.85260158E-02 0.38785209E+03</pdfrwt>
<totfact> 0.37454164E+03</totfact>
</mgrwt>
</event>
<event>
 4    1  0.5980424E-004  0.1901843E+03  0.7818608E-02  0.1158295E+00
         -2   -1    0    0    0  501 -0.00000000000E+00  0.00000000000E+00  0.60170993003E+01  0.60170998406E+01  0.25500000000E-02 0. -1.
          2   -1    0    0  501    0  0.00000000000E+00 -0.00000000000E+00 -0.15028026628E+04  0.15028026628E+04  0.25500000000E-02 0.  1.
    5000001    1    1    2    0    0 -0.72852647522E+01 -0.54860883388E+02 -0.69189134595E+03  0.69835909546E+03  0.77000000000E+02 0.  0.
   -5000001    1    1    2    0    0  0.72852647522E+01  0.54860883388E+02 -0.80489421758E+03  0.81046066721E+03  0.77000000000E+02 0.  0.
<mgrwt>
<rscale>  0 0.19018426E+03</rscale>
<asrwt>0</asrwt>
<pdfrwt beam="1">  1        2 0.23120011E+00 0.19018426E+03</pdfrwt>
<pdfrwt beam="2">  1       -2 0.92570882E-03 0.19018426E+03</pdfrwt>
<totfact> 0.31760690E+04</totfact>
</mgrwt>
</event>
<event>
 4    1  0.5980424E-004  0.3574168E+03  0.7818608E-02  0.1059611E+00
         -2   -1    0    0    0  501 -0.00000000000E+00  0.00000000000E+00  0.26836793810E+02  0.26836793931E+02  0.25500000000E-02 0. -1.
          2   -1    0    0  501    0  0.00000000000E+00 -0.00000000000E+00 -0.11900341213E+04  0.11900341213E+04  0.25500000000E-02 0.  1.
    5000001    1    1    2    0    0 -0.10372309678E+03 -0.11600390565E+03 -0.72573599574E+03  0.74621519848E+03  0.77000000000E+02 0.  0.
   -5000001    1    1    2    0    0  0.10372309678E+03  0.11600390565E+03 -0.43746133171E+03  0.47065571671E+03  0.77000000000E+02 0.  0.
<mgrwt>
<rscale>  0 0.35741685E+03</rscale>
<asrwt>0</asrwt>
<pdfrwt beam="1">  1        2 0.18308213E+00 0.35741685E+03</pdfrwt>
<pdfrwt beam="2">  1       -2 0.41287384E-02 0.35741685E+03</pdfrwt>
<totfact> 0.53249473E+03</totfact>
</mgrwt>
</event>
<event>
 4    1  0.5980424E-004  0.3489081E+03  0.7818608E-02  0.1063064E+00
         -2   -1    0    0    0  501 -0.00000000000E+00  0.00000000000E+00  0.46542515976E+03  0.46542515977E+03  0.25500000000E-02 0. -1.
          2   -1    0    0  501    0  0.00000000000E+00 -0.00000000000E+00 -0.65390122780E+02  0.65390122830E+02  0.25500000000E-02 0.  1.
    5000001    1    1    2    0    0  0.11936972648E+03  0.33047514202E+02  0.34565511467E+03  0.37516360177E+03  0.77000000000E+02 0.  0.
   -5000001    1    1    2    0    0 -0.11936972648E+03 -0.33047514202E+02  0.54379922312E+02  0.15565168083E+03  0.77000000000E+02 0.  0.
<mgrwt>
<rscale>  0 0.34890806E+03</rscale>
<asrwt>0</asrwt>
<pdfrwt beam="1">  1        2 0.10060019E-01 0.34890806E+03</pdfrwt>
<pdfrwt beam="2">  1       -2 0.71603867E-01 0.34890806E+03</pdfrwt>
<totfact> 0.11613475E+03</totfact>
</mgrwt>
</event>
<event>
 4    1  0.5980424E-004  0.4034875E+03  0.7818608E-02  0.1042579E+00
         -2   -1    0    0    0  501 -0.00000000000E+00  0.00000000000E+00  0.15268698725E+03  0.15268698728E+03  0.25500000000E-02 0. -1.
          2   -1    0    0  501    0  0.00000000000E+00 -0.00000000000E+00 -0.26656200255E+03  0.26656200256E+03  0.25500000000E-02 0.  1.
    5000001    1    1    2    0    0 -0.65472952683E+02  0.16306132707E+03  0.79173842222E+01  0.19200882504E+03  0.77000000000E+02 0.  0.
   -5000001    1    1    2    0    0  0.65472952683E+02 -0.16306132707E+03 -0.12179239952E+03  0.22724016480E+03  0.77000000000E+02 0.  0.
<mgrwt>
<rscale>  0 0.40348754E+03</rscale>
<asrwt>0</asrwt>
<pdfrwt beam="1">  1        2 0.41009539E-01 0.40348754E+03</pdfrwt>
<pdfrwt beam="2">  1       -2 0.23490306E-01 0.40348754E+03</pdfrwt>
<totfact> 0.19873163E+03</totfact>
</mgrwt>
</event>
<event>
 4    1  0.5980424E-004  0.3924203E+03  0.7818608E-02  0.1046436E+00
         -2   -1    0    0    0  501 -0.00000000000E+00  0.00000000000E+00  0.17751633992E+02  0.17751634176E+02  0.25500000000E-02 0. -1.
          2   -1    0    0  501    0  0.00000000000E+00 -0.00000000000E+00 -0.21687252247E+04  0.21687252247E+04  0.25500000000E-02 0.  1.
    5000001    1    1    2    0    0  0.46613337843E+02 -0.11153512659E+03 -0.32885814702E+03  0.35873328336E+03  0.77000000000E+02 0.  0.
   -5000001    1    1    2    0    0 -0.46613337843E+02  0.11153512659E+03 -0.18221154437E+04  0.18277435755E+04  0.77000000000E+02 0.  0.
<mgrwt>
<rscale>  0 0.39242027E+03</rscale>
<asrwt>0</asrwt>
<pdfrwt beam="1">  1        2 0.33364983E+00 0.39242027E+03</pdfrwt>
<pdfrwt beam="2">  1       -2 0.27310223E-02 0.39242027E+03</pdfrwt>
<totfact> 0.29303894E+03</totfact>
</mgrwt>
</event>
<event>
 4    1  0.5980424E-004  0.1976325E+03  0.7818608E-02  0.1151752E+00
         -2   -1    0    0    0  501 -0.00000000000E+00  0.00000000000E+00  0.22346470113E+02  0.22346470258E+02  0.25500000000E-02 0. -1.
          2   -1    0    0  501    0  0.00000000000E+00 -0.00000000000E+00 -0.43696629257E+03  0.43696629257E+03  0.25500000000E-02 0.  1.
    5000001    1    1    2    0    0  0.58989045238E+02 -0.17344391487E+02 -0.22456432421E+03  0.24523187208E+03  0.77000000000E+02 0.  0.
   -5000001    1    1    2    0    0 -0.58989045238E+02  0.17344391487E+02 -0.19005549824E+03  0.21408089075E+03  0.77000000000E+02 0.  0.
<mgrwt>
<rscale>  0 0.19763253E+03</rscale>
<asrwt>0</asrwt>
<pdfrwt beam="1">  1        2 0.67225577E-01 0.19763253E+03</pdfrwt>
<pdfrwt beam="2">  1       -2 0.34379188E-02 0.19763253E+03</pdfrwt>
<totfact> 0.24189478E+04</totfact>
</mgrwt>
</event>
<event>
 4    1  0.5980424E-004  0.2500691E+03  0.7818608E-02  0.1113261E+00
          2   -1    0    0  501    0  0.00000000000E+00  0.00000000000E+00  0.11762350139E+04  0.11762350139E+04  0.25500000000E-02 0.  1.
         -2   -1    0    0    0  501 -0.00000000000E+00 -0.00000000000E+00 -0.13291252321E+02  0.13291252566E+02  0.25500000000E-02 0. -1.
    5000001    1    1    2    0    0 -0.51601039487E+02 -0.65279793627E+02  0.33064338517E+03  0.34953993604E+03  0.77000000000E+02 0.  0.
   -5000001    1    1    2    0    0  0.51601039487E+02  0.65279793627E+02  0.83230037640E+03  0.83998633042E+03  0.77000000000E+02 0.  0.
<mgrwt>
<rscale>  0 0.25006908E+03</rscale>
<asrwt>0</asrwt>
<pdfrwt beam="1">  1        2 0.18095932E+00 0.25006908E+03</pdfrwt>
<pdfrwt beam="2">  1       -2 0.20448071E-02 0.25006908E+03</pdfrwt>
<totfact> 0.15342314E+04</totfact>
</mgrwt>
</event>
<event>
 4    1  0.5980424E-004  0.2509319E+03  0.7818608E-02  0.1112717E+00
          2   -1    0    0  501    0  0.00000000000E+00  0.00000000000E+00  0.17042940065E+04  0.17042940065E+04  0.25500000000E-02 0.  1.
         -2   -1    0    0    0  501 -0.00000000000E+00 -0.00000000000E+00 -0.92364963553E+01  0.92364967073E+01  0.25500000000E-02 0. -1.
    5000001    1    1    2    0    0 -0.72888621555E+02 -0.61821159674E+02  0.66970801186E+03  0.68086153371E+03  0.77000000000E+02 0.  0.
   -5000001    1    1    2    0    0  0.72888621555E+02  0.61821159674E+02  0.10253494983E+04  0.10326689695E+04  0.77000000000E+02 0.  0.
<mgrwt>
<rscale>  0 0.25093191E+03</rscale>
<asrwt>0</asrwt>
<pdfrwt beam="1">  1        2 0.26219927E+00 0.25093191E+03</pdfrwt>
<pdfrwt beam="2">  1       -2 0.14209984E-02 0.25093191E+03</pdfrwt>
<totfact> 0.13536769E+04</totfact>
</mgrwt>
</event>
<event>
 4    1  0.5980424E-004  0.1170463E+04  0.7818608E-02  0.9139110E-01
         -2   -1    0    0    0  501 -0.00000000000E+00  0.00000000000E+00  0.49869538268E+03  0.49869538269E+03  0.25500000000E-02 0. -1.
          2   -1    0    0  501    0  0.00000000000E+00 -0.00000000000E+00 -0.68678420926E+03  0.68678420926E+03  0.25500000000E-02 0.  1.
    5000001    1    1    2    0    0 -0.36670675855E+03  0.43204948926E+03  0.31752518909E+02  0.57278078738E+03  0.77000000000E+02 0.  0.
   -5000001    1    1    2    0    0  0.36670675855E+03 -0.43204948926E+03 -0.21984134549E+03  0.61269880457E+03  0.77000000000E+02 0.  0.
<mgrwt>
<rscale>  0 0.11704634E+04</rscale>
<asrwt>0</asrwt>
<pdfrwt beam="1">  1        2 0.10565911E+00 0.11704634E+04</pdfrwt>
<pdfrwt beam="2">  1       -2 0.76722366E-01 0.11704634E+04</pdfrwt>
<totfact> 0.63029155E+01</totfact>
</mgrwt>
</event>
<event>
 4    1  0.5980424E-004  0.2934259E+03  0.7818608E-02  0.1088574E+00
         -2   -1    0    0    0  501 -0.00000000000E+00  0.00000000000E+00  0.36785286707E+03  0.36785286708E+03  0.25500000000E-02 0. -1.
          2   -1    0    0  501    0  0.00000000000E+00 -0.00000000000E+00 -0.58514382681E+02  0.58514382736E+02  0.25500000000E-02 0.  1.
    5000001    1    1    2    0    0  0.60799386617E+02 -0.89619924362E+02  0.24503300007E+03  0.27874444816E+03  0.77000000000E+02 0.  0.
   -5000001    1    1    2    0    0 -0.60799386617E+02  0.89619924362E+02  0.64305484319E+02  0.14762280166E+03  0.77000000000E+02 0.  0.
<mgrwt>
<rscale>  0 0.29342586E+03</rscale>
<asrwt>0</asrwt>
<pdfrwt beam="1">  1        2 0.90022127E-02 0.29342586E+03</pdfrwt>
<pdfrwt beam="2">  1       -2 0.56592749E-01 0.29342586E+03</pdfrwt>
<totfact> 0.21835275E+03</totfact>
</mgrwt>
</event>
<event>
 4    1  0.5980424E-004  0.2331688E+03  0.7818608E-02  0.1124429E+00
         -2   -1    0    0    0  501 -0.00000000000E+00  0.00000000000E+00  0.26169074785E+02  0.26169074910E+02  0.25500000000E-02 0. -1.
          2   -1    0    0  501    0  0.00000000000E+00 -0.00000000000E+00 -0.51938884034E+03  0.51938884035E+03  0.25500000000E-02 0.  1.
    5000001    1    1    2    0    0  0.79583316695E+01 -0.86540064815E+02 -0.27119486050E+03  0.29500537321E+03  0.77000000000E+02 0.  0.
   -5000001    1    1    2    0    0 -0.79583316695E+01  0.86540064815E+02 -0.22202490505E+03  0.25055254204E+03  0.77000000000E+02 0.  0.
<mgrwt>
<rscale>  0 0.23316883E+03</rscale>
<asrwt>0</asrwt>
<pdfrwt beam="1">  1        2 0.79905968E-01 0.23316883E+03</pdfrwt>
<pdfrwt beam="2">  1       -2 0.40260119E-02 0.23316883E+03</pdfrwt>
<totfact> 0.15959996E+04</totfact>
</mgrwt>
</event>
<event>
 4    1  0.5980424E-004  0.3639577E+03  0.7818608E-02  0.1057028E+00
         -2   -1    0    0    0  501 -0.00000000000E+00  0.00000000000E+00  0.32125259772E+02  0.32125259873E+02  0.25500000000E-02 0. -1.
          2   -1    0    0  501    0  0.00000000000E+00 -0.00000000000E+00 -0.10308492817E+04  0.10308492817E+04  0.25500000000E-02 0.  1.
    5000001    1    1    2    0    0 -0.10765473318E+03  0.93214108476E+02 -0.74212142338E+03  0.75957331353E+03  0.77000000000E+02 0.  0.
   -5000001    1    1    2    0    0  0.10765473318E+03 -0.93214108476E+02 -0.25660259856E+03  0.30340122805E+03  0.77000000000E+02 0.  0.
<mgrwt>
<rscale>  0 0.36395770E+03</rscale>
<asrwt>0</asrwt>
<pdfrwt beam="1">  1        2 0.15859217E+00 0.36395770E+03</pdfrwt>
<pdfrwt beam="2">  1       -2 0.49423485E-02 0.36395770E+03</pdfrwt>
<totfact> 0.50313367E+03</totfact>
</mgrwt>
</event>
<event>
 4    1  0.5980424E-004  0.2113889E+03  0.7818608E-02  0.1140471E+00
          2   -1    0    0  501    0  0.00000000000E+00  0.00000000000E+00  0.17163762665E+04  0.17163762665E+04  0.25500000000E-02 0.  1.
         -2   -1    0    0    0  501 -0.00000000000E+00 -0.00000000000E+00 -0.65086633983E+01  0.65086638979E+01  0.25500000000E-02 0. -1.
    5000001    1    1    2    0    0 -0.67773513736E+02 -0.50342928803E+01  0.65138439824E+03  0.65943098770E+03  0.77000000000E+02 0.  0.
   -5000001    1    1    2    0    0  0.67773513736E+02  0.50342928803E+01  0.10584832049E+04  0.10634539427E+04  0.77000000000E+02 0.  0.
<mgrwt>
<rscale>  0 0.21138889E+03</rscale>
<asrwt>0</asrwt>
<pdfrwt beam="1">  1        2 0.26405764E+00 0.21138889E+03</pdfrwt>
<pdfrwt beam="2">  1       -2 0.10013338E-02 0.21138889E+03</pdfrwt>
<totfact> 0.22039377E+04</totfact>
</mgrwt>
</event>
<event>
 4    1  0.5980424E-004  0.3728468E+03  0.7818608E-02  0.1053610E+00
         -2   -1    0    0    0  501 -0.00000000000E+00  0.00000000000E+00  0.25798152974E+02  0.25798153100E+02  0.25500000000E-02 0. -1.
          2   -1    0    0  501    0  0.00000000000E+00 -0.00000000000E+00 -0.13471387039E+04  0.13471387039E+04  0.25500000000E-02 0.  1.
    5000001    1    1    2    0    0  0.13565820565E+03 -0.10116194246E+03 -0.71113308961E+03  0.73503480088E+03  0.77000000000E+02 0.  0.
   -5000001    1    1    2    0    0 -0.13565820565E+03  0.10116194246E+03 -0.61020746135E+03  0.63790205615E+03  0.77000000000E+02 0.  0.
<mgrwt>
<rscale>  0 0.37284683E+03</rscale>
<asrwt>0</asrwt>
<pdfrwt beam="1">  1        2 0.20725205E+00 0.37284683E+03</pdfrwt>
<pdfrwt beam="2">  1       -2 0.39689477E-02 0.37284683E+03</pdfrwt>
<totfact> 0.46094713E+03</totfact>
</mgrwt>
</event>
<event>
 4    1  0.5980424E-004  0.3156631E+03  0.7818608E-02  0.1077663E+00
         -2   -1    0    0    0  501 -0.00000000000E+00  0.00000000000E+00  0.21829361952E+02  0.21829362101E+02  0.25500000000E-02 0. -1.
          2   -1    0    0  501    0  0.00000000000E+00 -0.00000000000E+00 -0.11411599357E+04  0.11411599357E+04  0.25500000000E-02 0.  1.
    5000001    1    1    2    0    0 -0.10924514137E+03  0.79662444855E+02 -0.65722465408E+03  0.67539162859E+03  0.77000000000E+02 0.  0.
   -5000001    1    1    2    0    0  0.10924514137E+03 -0.79662444855E+02 -0.46210591962E+03  0.48759766917E+03  0.77000000000E+02 0.  0.
<mgrwt>
<rscale>  0 0.31566307E+03</rscale>
<asrwt>0</asrwt>
<pdfrwt beam="1">  1        2 0.17556302E+00 0.31566307E+03</pdfrwt>
<pdfrwt beam="2">  1       -2 0.33583643E-02 0.31566307E+03</pdfrwt>
<totfact> 0.77477401E+03</totfact>
</mgrwt>
</event>
<event>
 4    1  0.5980424E-004  0.2687619E+03  0.7818608E-02  0.1101990E+00
         -2   -1    0    0    0  501 -0.00000000000E+00  0.00000000000E+00  0.29948378247E+02  0.29948378356E+02  0.25500000000E-02 0. -1.
          2   -1    0    0  501    0  0.00000000000E+00 -0.00000000000E+00 -0.60297894480E+03  0.60297894481E+03  0.25500000000E-02 0.  1.
    5000001    1    1    2    0    0  0.18693279622E+02 -0.10514402602E+03 -0.22312593361E+03  0.25907313091E+03  0.77000000000E+02 0.  0.
   -5000001    1    1    2    0    0 -0.18693279622E+02  0.10514402602E+03 -0.34990463294E+03  0.37385419225E+03  0.77000000000E+02 0.  0.
<mgrwt>
<rscale>  0 0.26876191E+03</rscale>
<asrwt>0</asrwt>
<pdfrwt beam="1">  1        2 0.92765982E-01 0.26876191E+03</pdfrwt>
<pdfrwt beam="2">  1       -2 0.46074433E-02 0.26876191E+03</pdfrwt>
<totfact> 0.11059470E+04</totfact>
</mgrwt>
</event>
<event>
 4    1  0.5980424E-004  0.4590826E+03  0.7818608E-02  0.1025048E+00
          2   -1    0    0  501    0  0.00000000000E+00  0.00000000000E+00  0.10163275592E+04  0.10163275592E+04  0.25500000000E-02 0.  1.
         -2   -1    0    0    0  501 -0.00000000000E+00 -0.00000000000E+00 -0.51842743111E+02  0.51842743174E+02  0.25500000000E-02 0. -1.
    5000001    1    1    2    0    0 -0.53937388414E+02 -0.16761961118E+03  0.19019469682E+03  0.27038601780E+03  0.77000000000E+02 0.  0.
   -5000001    1    1    2    0    0  0.53937388414E+02  0.16761961118E+03  0.77429011929E+03  0.79778428460E+03  0.77000000000E+02 0.  0.
<mgrwt>
<rscale>  0 0.45908260E+03</rscale>
<asrwt>0</asrwt>
<pdfrwt beam="1">  1        2 0.15635808E+00 0.45908260E+03</pdfrwt>
<pdfrwt beam="2">  1       -2 0.79758068E-02 0.45908260E+03</pdfrwt>
<totfact> 0.24419203E+03</totfact>
</mgrwt>
</event>
<event>
 4    1  0.5980424E-004  0.1845638E+03  0.7818608E-02  0.1163458E+00
         -2   -1    0    0    0  501 -0.00000000000E+00  0.00000000000E+00  0.42156108711E+02  0.42156108788E+02  0.25500000000E-02 0. -1.
          2   -1    0    0  501    0  0.00000000000E+00 -0.00000000000E+00 -0.20200993453E+03  0.20200993454E+03  0.25500000000E-02 0.  1.
    5000001    1    1    2    0    0 -0.31582204003E+01  0.44454352443E+02 -0.47500446786E+02  0.10085363777E+03  0.77000000000E+02 0.  0.
   -5000001    1    1    2    0    0  0.31582204003E+01 -0.44454352443E+02 -0.11235337903E+03  0.14331240556E+03  0.77000000000E+02 0.  0.
<mgrwt>
<rscale>  0 0.18456384E+03</rscale>
<asrwt>0</asrwt>
<pdfrwt beam="1">  1        2 0.31078451E-01 0.18456384E+03</pdfrwt>
<pdfrwt beam="2">  1       -2 0.64855553E-02 0.18456384E+03</pdfrwt>
<totfact> 0.21175469E+04</totfact>
</mgrwt>
</event>
<event>
 4    1  0.5980424E-004  0.3604873E+03  0.7818608E-02  0.1058391E+00
         -2   -1    0    0    0  501 -0.00000000000E+00  0.00000000000E+00  0.11216964392E+02  0.11216964682E+02  0.25500000000E-02 0. -1.
          2   -1    0    0  501    0  0.00000000000E+00 -0.00000000000E+00 -0.28963075361E+04  0.28963075361E+04  0.25500000000E-02 0.  1.
    5000001    1    1    2    0    0  0.14691691336E+03  0.56112244958E+02 -0.17871633425E+04  0.17957212969E+04  0.77000000000E+02 0.  0.
   -5000001    1    1    2    0    0 -0.14691691336E+03 -0.56112244958E+02 -0.10979272292E+04  0.11118032038E+04  0.77000000000E+02 0.  0.
<mgrwt>
<rscale>  0 0.36048733E+03</rscale>
<asrwt>0</asrwt>
<pdfrwt beam="1">  1        2 0.44558518E+00 0.36048733E+03</pdfrwt>
<pdfrwt beam="2">  1       -2 0.17256891E-02 0.36048733E+03</pdfrwt>
<totfact> 0.22821892E+03</totfact>
</mgrwt>
</event>
<event>
 4    1  0.5980424E-004  0.2458991E+03  0.7818608E-02  0.1115924E+00
          2   -1    0    0  501    0  0.00000000000E+00  0.00000000000E+00  0.18862241068E+04  0.18862241068E+04  0.25500000000E-02 0.  1.
         -2   -1    0    0    0  501 -0.00000000000E+00 -0.00000000000E+00 -0.80142072704E+01  0.80142076761E+01  0.25500000000E-02 0. -1.
    5000001    1    1    2    0    0  0.55888371089E+01 -0.68724454503E+02  0.42619453326E+03  0.43854881818E+03  0.77000000000E+02 0.  0.
   -5000001    1    1    2    0    0 -0.55888371089E+01  0.68724454503E+02  0.14520153663E+04  0.14556894963E+04  0.77000000000E+02 0.  0.
<mgrwt>
<rscale>  0 0.24589910E+03</rscale>
<asrwt>0</asrwt>
<pdfrwt beam="1">  1        2 0.29018880E+00 0.24589910E+03</pdfrwt>
<pdfrwt beam="2">  1       -2 0.12329530E-02 0.24589910E+03</pdfrwt>
<totfact> 0.13360753E+04</totfact>
</mgrwt>
</event>
<event>
 4    1  0.5980424E-004  0.1742539E+03  0.7818608E-02  0.1173483E+00
         -2   -1    0    0    0  501 -0.00000000000E+00  0.00000000000E+00  0.12185436981E+03  0.12185436984E+03  0.25500000000E-02 0. -1.
          2   -1    0    0  501    0  0.00000000000E+00 -0.00000000000E+00 -0.62296560163E+02  0.62296560215E+02  0.25500000000E-02 0.  1.
    5000001    1    1    2    0    0  0.13440433037E+02  0.32082155576E+02  0.52251628906E+02  0.99343558774E+02  0.77000000000E+02 0.  0.
   -5000001    1    1    2    0    0 -0.13440433037E+02 -0.32082155576E+02  0.73061807448E+01  0.84807371282E+02  0.77000000000E+02 0.  0.
<mgrwt>
<rscale>  0 0.17425393E+03</rscale>
<asrwt>0</asrwt>
<pdfrwt beam="1">  1        2 0.95840861E-02 0.17425393E+03</pdfrwt>
<pdfrwt beam="2">  1       -2 0.18746826E-01 0.17425393E+03</pdfrwt>
<totfact> 0.15120126E+04</totfact>
</mgrwt>
</event>
<event>
 4    1  0.5980424E-004  0.3506897E+03  0.7818608E-02  0.1062332E+00
         -2   -1    0    0    0  501 -0.00000000000E+00  0.00000000000E+00  0.30148200489E+03  0.30148200490E+03  0.25500000000E-02 0. -1.
          2   -1    0    0  501    0  0.00000000000E+00 -0.00000000000E+00 -0.10198227902E+03  0.10198227906E+03  0.25500000000E-02 0.  1.
    5000001    1    1    2    0    0 -0.91660323602E+02 -0.11388123978E+03  0.32210538587E+02  0.16833618296E+03  0.77000000000E+02 0.  0.
   -5000001    1    1    2    0    0  0.91660323602E+02  0.11388123978E+03  0.16728918728E+03  0.23512810100E+03  0.77000000000E+02 0.  0.
<mgrwt>
<rscale>  0 0.35068973E+03</rscale>
<asrwt>0</asrwt>
<pdfrwt beam="1">  1        2 0.15689581E-01 0.35068973E+03</pdfrwt>
<pdfrwt beam="2">  1       -2 0.46381847E-01 0.35068973E+03</pdfrwt>
<totfact> 0.16565051E+03</totfact>
</mgrwt>
</event>
<event>
 4    1  0.5980424E-004  0.2116632E+03  0.7818608E-02  0.1140256E+00
         -2   -1    0    0    0  501 -0.00000000000E+00  0.00000000000E+00  0.11811891140E+02  0.11811891415E+02  0.25500000000E-02 0. -1.
          2   -1    0    0  501    0  0.00000000000E+00 -0.00000000000E+00 -0.94822483969E+03  0.94822483970E+03  0.25500000000E-02 0.  1.
    5000001    1    1    2    0    0  0.70036915638E+02 -0.12338243642E+02 -0.40186651872E+03  0.41531084825E+03  0.77000000000E+02 0.  0.
   -5000001    1    1    2    0    0 -0.70036915638E+02  0.12338243642E+02 -0.53454642984E+03  0.54472588286E+03  0.77000000000E+02 0.  0.
<mgrwt>
<rscale>  0 0.21166321E+03</rscale>
<asrwt>0</asrwt>
<pdfrwt beam="1">  1        2 0.14588068E+00 0.21166321E+03</pdfrwt>
<pdfrwt beam="2">  1       -2 0.18172148E-02 0.21166321E+03</pdfrwt>
<totfact> 0.24708411E+04</totfact>
</mgrwt>
</event>
<event>
 4    1  0.5980424E-004  0.2315238E+03  0.7818608E-02  0.1125572E+00
          2   -1    0    0  501    0  0.00000000000E+00  0.00000000000E+00  0.21088153760E+04  0.21088153760E+04  0.25500000000E-02 0.  1.
         -2   -1    0    0    0  501 -0.00000000000E+00 -0.00000000000E+00 -0.63546680327E+01  0.63546685443E+01  0.25500000000E-02 0. -1.
    5000001    1    1    2    0    0 -0.85730510144E+02  0.10716956153E+02  0.10758271796E+04  0.10820340539E+04  0.77000000000E+02 0.  0.
   -5000001    1    1    2    0    0  0.85730510144E+02 -0.10716956153E+02  0.10266335284E+04  0.10331359907E+04  0.77000000000E+02 0.  0.
<mgrwt>
<rscale>  0 0.23152384E+03</rscale>
<asrwt>0</asrwt>
<pdfrwt beam="1">  1        2 0.32443358E+00 0.23152384E+03</pdfrwt>
<pdfrwt beam="2">  1       -2 0.97763992E-03 0.23152384E+03</pdfrwt>
<totfact> 0.14281670E+04</totfact>
</mgrwt>
</event>
<event>
 4    1  0.5980424E-004  0.2491941E+03  0.7818608E-02  0.1113815E+00
         -2   -1    0    0    0  501 -0.00000000000E+00  0.00000000000E+00  0.23250768303E+02  0.23250768443E+02  0.25500000000E-02 0. -1.
          2   -1    0    0  501    0  0.00000000000E+00 -0.00000000000E+00 -0.66769507344E+03  0.66769507344E+03  0.25500000000E-02 0.  1.
    5000001    1    1    2    0    0  0.82137644049E+02 -0.40452091607E+02 -0.22567491764E+03  0.25542343811E+03  0.77000000000E+02 0.  0.
   -5000001    1    1    2    0    0 -0.82137644049E+02  0.40452091607E+02 -0.41876938750E+03  0.43552240378E+03  0.77000000000E+02 0.  0.
<mgrwt>
<rscale>  0 0.24919409E+03</rscale>
<asrwt>0</asrwt>
<pdfrwt beam="1">  1        2 0.10272230E+00 0.24919409E+03</pdfrwt>
<pdfrwt beam="2">  1       -2 0.35770418E-02 0.24919409E+03</pdfrwt>
<totfact> 0.14306355E+04</totfact>
</mgrwt>
</event>
<event>
 4    1  0.5980424E-004  0.2729811E+03  0.7818608E-02  0.1099585E+00
          2   -1    0    0  501    0  0.00000000000E+00  0.00000000000E+00  0.18523156497E+04  0.18523156497E+04  0.25500000000E-02 0.  1.
         -2   -1    0    0    0  501 -0.00000000000E+00 -0.00000000000E+00 -0.10057505412E+02  0.10057505736E+02  0.25500000000E-02 0. -1.
    5000001    1    1    2    0    0  0.10122214983E+03 -0.34495786401E+02  0.11637585910E+04  0.11711955178E+04  0.77000000000E+02 0.  0.
   -5000001    1    1    2    0    0 -0.10122214983E+03  0.34495786401E+02  0.67849955331E+03  0.69117763761E+03  0.77000000000E+02 0.  0.
<mgrwt>
<rscale>  0 0.27298113E+03</rscale>
<asrwt>0</asrwt>
<pdfrwt beam="1">  1        2 0.28497158E+00 0.27298113E+03</pdfrwt>
<pdfrwt beam="2">  1       -2 0.15473089E-02 0.27298113E+03</pdfrwt>
<totfact> 0.10013365E+04</totfact>
</mgrwt>
</event>
<event>
 4    1  0.5980424E-004  0.3092716E+03  0.7818608E-02  0.1080696E+00
          2   -1    0    0  501    0  0.00000000000E+00  0.00000000000E+00  0.18216322886E+04  0.18216322886E+04  0.25500000000E-02 0.  1.
         -2   -1    0    0    0  501 -0.00000000000E+00 -0.00000000000E+00 -0.13126813779E+02  0.13126814027E+02  0.25500000000E-02 0. -1.
    5000001    1    1    2    0    0  0.12828003217E+03  0.36754141497E+02  0.98308928570E+03  0.99508802487E+03  0.77000000000E+02 0.  0.
   -5000001    1    1    2    0    0 -0.12828003217E+03 -0.36754141497E+02  0.82541618912E+03  0.83967107776E+03  0.77000000000E+02 0.  0.
<mgrwt>
<rscale>  0 0.30927158E+03</rscale>
<asrwt>0</asrwt>
<pdfrwt beam="1">  1        2 0.28025119E+00 0.30927158E+03</pdfrwt>
<pdfrwt beam="2">  1       -2 0.20195093E-02 0.30927158E+03</pdfrwt>
<totfact> 0.70340361E+03</totfact>
</mgrwt>
</event>
<event>
 4    1  0.5980424E-004  0.2757936E+03  0.7818608E-02  0.1098009E+00
          2   -1    0    0  501    0  0.00000000000E+00  0.00000000000E+00  0.11226990678E+04  0.11226990678E+04  0.25500000000E-02 0.  1.
         -2   -1    0    0    0  501 -0.00000000000E+00 -0.00000000000E+00 -0.16937329091E+02  0.16937329283E+02  0.25500000000E-02 0. -1.
    5000001    1    1    2    0    0  0.81789454405E+02  0.79961750716E+02  0.54557344458E+03  0.56272798034E+03  0.77000000000E+02 0.  0.
   -5000001    1    1    2    0    0 -0.81789454405E+02 -0.79961750716E+02  0.56018829409E+03  0.57690841670E+03  0.77000000000E+02 0.  0.
<mgrwt>
<rscale>  0 0.27579357E+03</rscale>
<asrwt>0</asrwt>
<pdfrwt beam="1">  1        2 0.17272289E+00 0.27579357E+03</pdfrwt>
<pdfrwt beam="2">  1       -2 0.26057436E-02 0.27579357E+03</pdfrwt>
<totfact> 0.11556607E+04</totfact>
</mgrwt>
</event>
<event>
 4    1  0.5980424E-004  0.4919613E+03  0.7818608E-02  0.1015899E+00
          2   -1    0    0  501    0  0.00000000000E+00  0.00000000000E+00  0.12606610441E+04  0.12606610441E+04  0.25500000000E-02 0.  1.
         -2   -1    0    0    0  501 -0.00000000000E+00 -0.00000000000E+00 -0.47995839379E+02  0.47995839447E+02  0.25500000000E-02 0. -1.
    5000001    1    1    2    0    0 -0.22074983982E+03 -0.39910760385E+02  0.77983278318E+03  0.81510215942E+03  0.77000000000E+02 0.  0.
   -5000001    1    1    2    0    0  0.22074983982E+03  0.39910760385E+02  0.43283242158E+03  0.49355472416E+03  0.77000000000E+02 0.  0.
<mgrwt>
<rscale>  0 0.49196132E+03</rscale>
<asrwt>0</asrwt>
<pdfrwt beam="1">  1        2 0.19394783E+00 0.49196132E+03</pdfrwt>
<pdfrwt beam="2">  1       -2 0.73839763E-02 0.49196132E+03</pdfrwt>
<totfact> 0.19734564E+03</totfact>
</mgrwt>
</event>
<event>
 4    1  0.5980424E-004  0.2426919E+03  0.7818608E-02  0.1118012E+00
          2   -1    0    0  501    0  0.00000000000E+00  0.00000000000E+00  0.55442655632E+03  0.55442655632E+03  0.25500000000E-02 0.  1.
         -2   -1    0    0    0  501 -0.00000000000E+00 -0.00000000000E+00 -0.26558676260E+02  0.26558676382E+02  0.25500000000E-02 0. -1.
    5000001    1    1    2    0    0  0.54284088931E+02 -0.44117221409E+02  0.41348686135E+03  0.42637246164E+03  0.77000000000E+02 0.  0.
   -5000001    1    1    2    0    0 -0.54284088931E+02  0.44117221409E+02  0.11438101871E+03  0.15461277106E+03  0.77000000000E+02 0.  0.
<mgrwt>
<rscale>  0 0.24269187E+03</rscale>
<asrwt>0</asrwt>
<pdfrwt beam="1">  1        2 0.85296394E-01 0.24269187E+03</pdfrwt>
<pdfrwt beam="2">  1       -2 0.40859502E-02 0.24269187E+03</pdfrwt>
<totfact> 0.14530869E+04</totfact>
</mgrwt>
</event>
<event>
 4    1  0.5980424E-004  0.7159036E+03  0.7818608E-02  0.9690415E-01
          2   -1    0    0  501    0  0.00000000000E+00  0.00000000000E+00  0.12626708536E+04  0.12626708537E+04  0.25500000000E-02 0.  1.
         -2   -1    0    0    0  501 -0.00000000000E+00 -0.00000000000E+00 -0.10147496339E+03  0.10147496342E+03  0.25500000000E-02 0. -1.
    5000001    1    1    2    0    0  0.31521837545E+03  0.98462110348E+02  0.79904924630E+03  0.86802425624E+03  0.77000000000E+02 0.  0.
   -5000001    1    1    2    0    0 -0.31521837545E+03 -0.98462110348E+02  0.36214664395E+03  0.49612156083E+03  0.77000000000E+02 0.  0.
<mgrwt>
<rscale>  0 0.71590357E+03</rscale>
<asrwt>0</asrwt>
<pdfrwt beam="1">  1        2 0.19425706E+00 0.71590357E+03</pdfrwt>
<pdfrwt beam="2">  1       -2 0.15611532E-01 0.71590357E+03</pdfrwt>
<totfact> 0.57480479E+02</totfact>
</mgrwt>
</event>
<event>
 4    1  0.5980424E-004  0.2846955E+03  0.7818608E-02  0.1093152E+00
         -2   -1    0    0    0  501 -0.00000000000E+00  0.00000000000E+00  0.10475071912E+02  0.10475072222E+02  0.25500000000E-02 0. -1.
          2   -1    0    0  501    0  0.00000000000E+00 -0.00000000000E+00 -0.19343900769E+04  0.19343900769E+04  0.25500000000E-02 0.  1.
    5000001    1    1    2    0    0 -0.98552339746E+02  0.56078944965E+02 -0.12244520893E+04  0.12320995620E+04  0.77000000000E+02 0.  0.
   -5000001    1    1    2    0    0  0.98552339746E+02 -0.56078944965E+02 -0.69946291574E+03  0.71276558716E+03  0.77000000000E+02 0.  0.
<mgrwt>
<rscale>  0 0.28469545E+03</rscale>
<asrwt>0</asrwt>
<pdfrwt beam="1">  1        2 0.29759819E+00 0.28469545E+03</pdfrwt>
<pdfrwt beam="2">  1       -2 0.16115511E-02 0.28469545E+03</pdfrwt>
<totfact> 0.85466668E+03</totfact>
</mgrwt>
</event>
<event>
 4    1  0.5980424E-004  0.2875857E+03  0.7818608E-02  0.1091616E+00
         -2   -1    0    0    0  501 -0.00000000000E+00  0.00000000000E+00  0.25554739389E+02  0.25554739517E+02  0.25500000000E-02 0. -1.
          2   -1    0    0  501    0  0.00000000000E+00 -0.00000000000E+00 -0.80910188171E+03  0.80910188172E+03  0.25500000000E-02 0.  1.
    5000001    1    1    2    0    0 -0.54076791026E+02  0.99817750284E+02 -0.51692597897E+03  0.53481711858E+03  0.77000000000E+02 0.  0.
   -5000001    1    1    2    0    0  0.54076791026E+02 -0.99817750284E+02 -0.26662116336E+03  0.29983950265E+03  0.77000000000E+02 0.  0.
<mgrwt>
<rscale>  0 0.28758573E+03</rscale>
<asrwt>0</asrwt>
<pdfrwt beam="1">  1        2 0.12447719E+00 0.28758573E+03</pdfrwt>
<pdfrwt beam="2">  1       -2 0.39314990E-02 0.28758573E+03</pdfrwt>
<totfact> 0.98501771E+03</totfact>
</mgrwt>
</event>
<event>
 4    1  0.5980424E-004  0.2740446E+03  0.7818608E-02  0.1098987E+00
         -2   -1    0    0    0  501 -0.00000000000E+00  0.00000000000E+00  0.75655288629E+03  0.75655288630E+03  0.25500000000E-02 0. -1.
          2   -1    0    0  501    0  0.00000000000E+00 -0.00000000000E+00 -0.24816651124E+02  0.24816651255E+02  0.25500000000E-02 0.  1.
    5000001    1    1    2    0    0  0.56286038088E+02 -0.90769743809E+02  0.47402201977E+03  0.49196863690E+03  0.77000000000E+02 0.  0.
   -5000001    1    1    2    0    0 -0.56286038088E+02  0.90769743809E+02  0.25771421540E+03  0.28940090065E+03  0.77000000000E+02 0.  0.
<mgrwt>
<rscale>  0 0.27404459E+03</rscale>
<asrwt>0</asrwt>
<pdfrwt beam="1">  1        2 0.38179464E-02 0.27404459E+03</pdfrwt>
<pdfrwt beam="2">  1       -2 0.11639275E+00 0.27404459E+03</pdfrwt>
<totfact> 0.13492179E+03</totfact>
</mgrwt>
</event>
<event>
 4    1  0.5980424E-004  0.2633512E+03  0.7818608E-02  0.1105146E+00
         -2   -1    0    0    0  501 -0.00000000000E+00  0.00000000000E+00  0.76880022493E+01  0.76880026722E+01  0.25500000000E-02 0. -1.
          2   -1    0    0  501    0  0.00000000000E+00 -0.00000000000E+00 -0.22552631340E+04  0.22552631340E+04  0.25500000000E-02 0.  1.
    5000001    1    1    2    0    0  0.25992754554E+02  0.61601777316E+02 -0.18395853195E+04  0.18424097128E+04  0.77000000000E+02 0.  0.
   -5000001    1    1    2    0    0 -0.25992754554E+02 -0.61601777316E+02 -0.40798981228E+03  0.42054142386E+03  0.77000000000E+02 0.  0.
<mgrwt>
<rscale>  0 0.26335124E+03</rscale>
<asrwt>0</asrwt>
<pdfrwt beam="1">  1        2 0.34696303E+00 0.26335124E+03</pdfrwt>
<pdfrwt beam="2">  1       -2 0.11827714E-02 0.26335124E+03</pdfrwt>
<totfact> 0.90803553E+03</totfact>
</mgrwt>
</event>
<event>
 4    1  0.5980424E-004  0.2854604E+03  0.7818608E-02  0.1092743E+00
          2   -1    0    0  501    0  0.00000000000E+00  0.00000000000E+00  0.19323717955E+03  0.19323717957E+03  0.25500000000E-02 0.  1.
         -2   -1    0    0    0  501 -0.00000000000E+00 -0.00000000000E+00 -0.10542435070E+03  0.10542435073E+03  0.25500000000E-02 0. -1.
    5000001    1    1    2    0    0 -0.51723505545E+02 -0.10711596500E+03  0.61838251650E+02  0.15460310589E+03  0.77000000000E+02 0.  0.
   -5000001    1    1    2    0    0  0.51723505545E+02  0.10711596500E+03  0.25974577208E+02  0.14405842441E+03  0.77000000000E+02 0.  0.
<mgrwt>
<rscale>  0 0.28546036E+03</rscale>
<asrwt>0</asrwt>
<pdfrwt beam="1">  1        2 0.29728796E-01 0.28546036E+03</pdfrwt>
<pdfrwt beam="2">  1       -2 0.16219131E-01 0.28546036E+03</pdfrwt>
<totfact> 0.52931330E+03</totfact>
</mgrwt>
</event>
<event>
 4    1  0.5980424E-004  0.2769952E+03  0.7818608E-02  0.1097341E+00
         -2   -1    0    0    0  501 -0.00000000000E+00  0.00000000000E+00  0.14848701234E+02  0.14848701453E+02  0.25500000000E-02 0. -1.
          2   -1    0    0  501    0  0.00000000000E+00 -0.00000000000E+00 -0.12918023469E+04  0.12918023469E+04  0.25500000000E-02 0.  1.
    5000001    1    1    2    0    0  0.10071523162E+03 -0.50619715853E+02 -0.74877071410E+03  0.76111266959E+03  0.77000000000E+02 0.  0.
   -5000001    1    1    2    0    0 -0.10071523162E+03  0.50619715853E+02 -0.52818293160E+03  0.54553837880E+03  0.77000000000E+02 0.  0.
<mgrwt>
<rscale>  0 0.27699521E+03</rscale>
<asrwt>0</asrwt>
<pdfrwt beam="1">  1        2 0.19873873E+00 0.27699521E+03</pdfrwt>
<pdfrwt beam="2">  1       -2 0.22844166E-02 0.27699521E+03</pdfrwt>
<totfact> 0.11256855E+04</totfact>
</mgrwt>
</event>
<event>
 4    1  0.5980424E-004  0.2836568E+03  0.7818608E-02  0.1093708E+00
          2   -1    0    0  501    0  0.00000000000E+00  0.00000000000E+00  0.26557528830E+04  0.26557528830E+04  0.25500000000E-02 0.  1.
         -2   -1    0    0    0  501 -0.00000000000E+00 -0.00000000000E+00 -0.75742342430E+01  0.75742346722E+01  0.25500000000E-02 0. -1.
    5000001    1    1    2    0    0  0.10526595212E+03 -0.23459195401E+02  0.17986920244E+04  0.18035668142E+04  0.77000000000E+02 0.  0.
   -5000001    1    1    2    0    0 -0.10526595212E+03  0.23459195401E+02  0.84948662435E+03  0.85976030350E+03  0.77000000000E+02 0.  0.
<mgrwt>
<rscale>  0 0.28365680E+03</rscale>
<asrwt>0</asrwt>
<pdfrwt beam="1">  1        2 0.40857767E+00 0.28365680E+03</pdfrwt>
<pdfrwt beam="2">  1       -2 0.11652660E-02 0.28365680E+03</pdfrwt>
<totfact> 0.56093644E+03</totfact>
</mgrwt>
</event>
<event>
 4    1  0.5980424E-004  0.1850160E+03  0.7818608E-02  0.1163035E+00
          2   -1    0    0  501    0  0.00000000000E+00  0.00000000000E+00  0.19123488350E+04  0.19123488350E+04  0.25500000000E-02 0.  1.
         -2   -1    0    0    0  501 -0.00000000000E+00 -0.00000000000E+00 -0.44749834425E+01  0.44749841691E+01  0.25500000000E-02 0. -1.
    5000001    1    1    2    0    0  0.29667278873E+02 -0.40777643030E+02  0.85798986773E+03  0.86291284423E+03  0.77000000000E+02 0.  0.
   -5000001    1    1    2    0    0 -0.29667278873E+02  0.40777643030E+02  0.10498839838E+04  0.10539109749E+04  0.77000000000E+02 0.  0.
<mgrwt>
<rscale>  0 0.18501600E+03</rscale>
<asrwt>0</asrwt>
<pdfrwt beam="1">  1        2 0.29420874E+00 0.18501600E+03</pdfrwt>
<pdfrwt beam="2">  1       -2 0.68845617E-03 0.18501600E+03</pdfrwt>
<totfact> 0.29699420E+04</totfact>
</mgrwt>
</event>
<event>
 4    1  0.5980424E-004  0.4160675E+03  0.7818608E-02  0.1038354E+00
         -2   -1    0    0    0  501 -0.00000000000E+00  0.00000000000E+00  0.10456088402E+03  0.10456088406E+03  0.25500000000E-02 0. -1.
          2   -1    0    0  501    0  0.00000000000E+00 -0.00000000000E+00 -0.41390287482E+03  0.41390287482E+03  0.25500000000E-02 0.  1.
    5000001    1    1    2    0    0  0.83997187235E+02 -0.16912961694E+03 -0.10346388561E+03  0.22867909921E+03  0.77000000000E+02 0.  0.
   -5000001    1    1    2    0    0 -0.83997187235E+02  0.16912961694E+03 -0.20587810518E+03  0.28978465967E+03  0.77000000000E+02 0.  0.
<mgrwt>
<rscale>  0 0.41606755E+03</rscale>
<asrwt>0</asrwt>
<pdfrwt beam="1">  1        2 0.63677365E-01 0.41606755E+03</pdfrwt>
<pdfrwt beam="2">  1       -2 0.16086290E-01 0.41606755E+03</pdfrwt>
<totfact> 0.23563425E+03</totfact>
</mgrwt>
</event>
<event>
 4    1  0.5980424E-004  0.3226314E+03  0.7818608E-02  0.1074445E+00
         -2   -1    0    0    0  501 -0.00000000000E+00  0.00000000000E+00  0.16058897237E+03  0.16058897239E+03  0.25500000000E-02 0. -1.
          2   -1    0    0  501    0  0.00000000000E+00 -0.00000000000E+00 -0.16204569307E+03  0.16204569309E+03  0.25500000000E-02 0.  1.
    5000001    1    1    2    0    0  0.86567969694E+02  0.55007732434E+02  0.97118880314E+02  0.16087554481E+03  0.77000000000E+02 0.  0.
   -5000001    1    1    2    0    0 -0.86567969694E+02 -0.55007732434E+02 -0.98575601020E+02  0.16175912067E+03  0.77000000000E+02 0.  0.
<mgrwt>
<rscale>  0 0.32263138E+03</rscale>
<asrwt>0</asrwt>
<pdfrwt beam="1">  1        2 0.24930107E-01 0.32263138E+03</pdfrwt>
<pdfrwt beam="2">  1       -2 0.24705996E-01 0.32263138E+03</pdfrwt>
<totfact> 0.31371911E+03</totfact>
</mgrwt>
</event>
<event>
 4    1  0.5980424E-004  0.5039187E+03  0.7818608E-02  0.1012761E+00
         -2   -1    0    0    0  501 -0.00000000000E+00  0.00000000000E+00  0.45092362015E+02  0.45092362087E+02  0.25500000000E-02 0.  1.
          2   -1    0    0  501    0  0.00000000000E+00 -0.00000000000E+00 -0.14078549258E+04  0.14078549258E+04  0.25500000000E-02 0. -1.
    5000001    1    1    2    0    0  0.53693508507E+02 -0.18282545241E+03 -0.11016545221E+04  0.11206604414E+04  0.77000000000E+02 0.  0.
   -5000001    1    1    2    0    0 -0.53693508507E+02  0.18282545241E+03 -0.26110804169E+03  0.33228684647E+03  0.77000000000E+02 0.  0.
<mgrwt>
<rscale>  0 0.50391866E+03</rscale>
<asrwt>0</asrwt>
<pdfrwt beam="1">  1        2 0.21659303E+00 0.50391866E+03</pdfrwt>
<pdfrwt beam="2">  1       -2 0.69372875E-02 0.50391866E+03</pdfrwt>
<totfact> 0.17979469E+03</totfact>
</mgrwt>
</event>
<event>
 4    1  0.5980424E-004  0.1618284E+03  0.7818608E-02  0.1186648E+00
         -2   -1    0    0    0  501 -0.00000000000E+00  0.00000000000E+00  0.60429647208E+03  0.60429647209E+03  0.25500000000E-02 0. -1.
          2   -1    0    0  501    0  0.00000000000E+00 -0.00000000000E+00 -0.10834267869E+02  0.10834268169E+02  0.25500000000E-02 0.  1.
    5000001    1    1    2    0    0  0.22485390688E+02  0.43082389608E+00  0.25644423681E+03  0.26869764606E+03  0.77000000000E+02 0.  0.
   -5000001    1    1    2    0    0 -0.22485390688E+02 -0.43082389608E+00  0.33701796740E+03  0.34643309420E+03  0.77000000000E+02 0.  0.
<mgrwt>
<rscale>  0 0.16182843E+03</rscale>
<asrwt>0</asrwt>
<pdfrwt beam="1">  1        2 0.16668105E-02 0.16182843E+03</pdfrwt>
<pdfrwt beam="2">  1       -2 0.92968687E-01 0.16182843E+03</pdfrwt>
<totfact> 0.68528549E+03</totfact>
</mgrwt>
</event>
<event>
 4    1  0.5980424E-004  0.2343606E+03  0.7818608E-02  0.1123608E+00
          2   -1    0    0  501    0  0.00000000000E+00  0.00000000000E+00  0.14509575616E+03  0.14509575618E+03  0.25500000000E-02 0.  1.
         -2   -1    0    0    0  501 -0.00000000000E+00 -0.00000000000E+00 -0.94635562836E+02  0.94635562870E+02  0.25500000000E-02 0. -1.
    5000001    1    1    2    0    0 -0.53404439585E+02 -0.57676855783E+02 -0.15986776228E+02  0.11119006644E+03  0.77000000000E+02 0.  0.
   -5000001    1    1    2    0    0  0.53404439585E+02  0.57676855783E+02  0.66446969548E+02  0.12854125261E+03  0.77000000000E+02 0.  0.
<mgrwt>
<rscale>  0 0.23436056E+03</rscale>
<asrwt>0</asrwt>
<pdfrwt beam="1">  1        2 0.22322424E-01 0.23436056E+03</pdfrwt>
<pdfrwt beam="2">  1       -2 0.14559317E-01 0.23436056E+03</pdfrwt>
<totfact> 0.86354442E+03</totfact>
</mgrwt>
</event>
<event>
 4    1  0.5980424E-004  0.2382338E+03  0.7818608E-02  0.1120975E+00
          2   -1    0    0  501    0  0.00000000000E+00  0.00000000000E+00  0.33214581019E+03  0.33214581020E+03  0.25500000000E-02 0.  1.
         -2   -1    0    0    0  501 -0.00000000000E+00 -0.00000000000E+00 -0.42718687609E+02  0.42718687685E+02  0.25500000000E-02 0. -1.
    5000001    1    1    2    0    0  0.48090097180E+02  0.66240045484E+02  0.20685112245E+03  0.23540770576E+03  0.77000000000E+02 0.  0.
   -5000001    1    1    2    0    0 -0.48090097180E+02 -0.66240045484E+02  0.82576000134E+02  0.13945679213E+03  0.77000000000E+02 0.  0.
<mgrwt>
<rscale>  0 0.23823378E+03</rscale>
<asrwt>0</asrwt>
<pdfrwt beam="1">  1        2 0.51099353E-01 0.23823378E+03</pdfrwt>
<pdfrwt beam="2">  1       -2 0.65721062E-02 0.23823378E+03</pdfrwt>
<totfact> 0.12364227E+04</totfact>
</mgrwt>
</event>
<event>
 4    1  0.5980424E-004  0.6241206E+03  0.7818608E-02  0.9856590E-01
          2   -1    0    0  501    0  0.00000000000E+00  0.00000000000E+00  0.70564633096E+03  0.70564633096E+03  0.25500000000E-02 0.  1.
         -2   -1    0    0    0  501 -0.00000000000E+00 -0.00000000000E+00 -0.13800345692E+03  0.13800345694E+03  0.25500000000E-02 0. -1.
    5000001    1    1    2    0    0 -0.23723909651E+03 -0.16946421539E+03  0.39240023424E+03  0.49488125146E+03  0.77000000000E+02 0.  0.
   -5000001    1    1    2    0    0  0.23723909651E+03  0.16946421539E+03  0.17524263979E+03  0.34876853644E+03  0.77000000000E+02 0.  0.
<mgrwt>
<rscale>  0 0.62412061E+03</rscale>
<asrwt>0</asrwt>
<pdfrwt beam="1">  1        2 0.10856098E+00 0.62412061E+03</pdfrwt>
<pdfrwt beam="2">  1       -2 0.21231301E-01 0.62412061E+03</pdfrwt>
<totfact> 0.78307118E+02</totfact>
</mgrwt>
</event>
<event>
 4    1  0.5980424E-004  0.5439070E+03  0.7818608E-02  0.1002914E+00
          2   -1    0    0  501    0  0.00000000000E+00  0.00000000000E+00  0.15980294675E+04  0.15980294675E+04  0.25500000000E-02 0.  1.
         -2   -1    0    0    0  501 -0.00000000000E+00 -0.00000000000E+00 -0.46281183154E+02  0.46281183224E+02  0.25500000000E-02 0. -1.
    5000001    1    1    2    0    0 -0.22874343800E+03 -0.35542622206E+02  0.11391912079E+04  0.11650203632E+04  0.77000000000E+02 0.  0.
   -5000001    1    1    2    0    0  0.22874343800E+03  0.35542622206E+02  0.41255707639E+03  0.47929028751E+03  0.77000000000E+02 0.  0.
<mgrwt>
<rscale>  0 0.54390696E+03</rscale>
<asrwt>0</asrwt>
<pdfrwt beam="1">  1        2 0.24585066E+00 0.54390696E+03</pdfrwt>
<pdfrwt beam="2">  1       -2 0.71201828E-02 0.54390696E+03</pdfrwt>
<totfact> 0.13543601E+03</totfact>
</mgrwt>
</event>
<event>
 4    1  0.5980424E-004  0.2112941E+03  0.7818608E-02  0.1140545E+00
          2   -1    0    0  501    0  0.00000000000E+00  0.00000000000E+00  0.27366484343E+04  0.27366484343E+04  0.25500000000E-02 0.  1.
         -2   -1    0    0    0  501 -0.00000000000E+00 -0.00000000000E+00 -0.40784563580E+01  0.40784571551E+01  0.25500000000E-02 0. -1.
    5000001    1    1    2    0    0  0.58638711252E+02 -0.25100019221E+02  0.92378203168E+03  0.92917745963E+03  0.77000000000E+02 0.  0.
   -5000001    1    1    2    0    0 -0.58638711252E+02  0.25100019221E+02  0.18087879463E+04  0.18115494318E+04  0.77000000000E+02 0.  0.
<mgrwt>
<rscale>  0 0.21129413E+03</rscale>
<asrwt>0</asrwt>
<pdfrwt beam="1">  1        2 0.42102393E+00 0.21129413E+03</pdfrwt>
<pdfrwt beam="2">  1       -2 0.62745326E-03 0.21129413E+03</pdfrwt>
<totfact> 0.12364910E+04</totfact>
</mgrwt>
</event>
<event>
 4    1  0.5980424E-004  0.1680296E+03  0.7818608E-02  0.1179918E+00
         -2   -1    0    0    0  501 -0.00000000000E+00  0.00000000000E+00  0.10492230805E+02  0.10492231115E+02  0.25500000000E-02 0. -1.
          2   -1    0    0  501    0  0.00000000000E+00 -0.00000000000E+00 -0.67273450654E+03  0.67273450654E+03  0.25500000000E-02 0.  1.
    5000001    1    1    2    0    0  0.81869892599E+01 -0.17995913187E+02 -0.22061521890E+03  0.23450150212E+03  0.77000000000E+02 0.  0.
   -5000001    1    1    2    0    0 -0.81869892599E+01  0.17995913187E+02 -0.44162705683E+03  0.44872523554E+03  0.77000000000E+02 0.  0.
<mgrwt>
<rscale>  0 0.16802959E+03</rscale>
<asrwt>0</asrwt>
<pdfrwt beam="1">  1        2 0.10349758E+00 0.16802959E+03</pdfrwt>
<pdfrwt beam="2">  1       -2 0.16141899E-02 0.16802959E+03</pdfrwt>
<totfact> 0.44482680E+04</totfact>
</mgrwt>
</event>
<event>
 4    1  0.5980424E-004  0.1828788E+03  0.7818608E-02  0.1165046E+00
         -2   -1    0    0    0  501 -0.00000000000E+00  0.00000000000E+00  0.52820888932E+01  0.52820895087E+01  0.25500000000E-02 0. -1.
          2   -1    0    0  501    0  0.00000000000E+00 -0.00000000000E+00 -0.15829269646E+04  0.15829269646E+04  0.25500000000E-02 0.  1.
    5000001    1    1    2    0    0  0.78787551013E+01 -0.42746750954E+02 -0.58649021203E+03  0.59311814026E+03  0.77000000000E+02 0.  0.
   -5000001    1    1    2    0    0 -0.78787551013E+01  0.42746750954E+02 -0.99115466368E+03  0.99509091385E+03  0.77000000000E+02 0.  0.
<mgrwt>
<rscale>  0 0.18287877E+03</rscale>
<asrwt>0</asrwt>
<pdfrwt beam="1">  1        2 0.24352685E+00 0.18287877E+03</pdfrwt>
<pdfrwt beam="2">  1       -2 0.81263037E-03 0.18287877E+03</pdfrwt>
<totfact> 0.34679638E+04</totfact>
</mgrwt>
</event>
<event>
 4    1  0.5980424E-004  0.2121268E+03  0.7818608E-02  0.1139893E+00
         -2   -1    0    0    0  501 -0.00000000000E+00  0.00000000000E+00  0.39921444179E+01  0.39921452323E+01  0.25500000000E-02 0. -1.
          2   -1    0    0  501    0  0.00000000000E+00 -0.00000000000E+00 -0.28178942946E+04  0.28178942946E+04  0.25500000000E-02 0.  1.
    5000001    1    1    2    0    0  0.31190917936E+02  0.61658378666E+02 -0.10961617993E+04  0.11010332961E+04  0.77000000000E+02 0.  0.
   -5000001    1    1    2    0    0 -0.31190917936E+02 -0.61658378666E+02 -0.17177403509E+04  0.17208531437E+04  0.77000000000E+02 0.  0.
<mgrwt>
<rscale>  0 0.21212677E+03</rscale>
<asrwt>0</asrwt>
<pdfrwt beam="1">  1        2 0.43352061E+00 0.21212677E+03</pdfrwt>
<pdfrwt beam="2">  1       -2 0.61417838E-03 0.21212677E+03</pdfrwt>
<totfact> 0.11471727E+04</totfact>
</mgrwt>
</event>
<event>
 4    1  0.5980424E-004  0.3595216E+03  0.7818608E-02  0.1058773E+00
         -2   -1    0    0    0  501 -0.00000000000E+00  0.00000000000E+00  0.30076839212E+02  0.30076839320E+02  0.25500000000E-02 0. -1.
          2   -1    0    0  501    0  0.00000000000E+00 -0.00000000000E+00 -0.10743798628E+04  0.10743798628E+04  0.25500000000E-02 0.  1.
    5000001    1    1    2    0    0  0.11417845573E+03 -0.83657595673E+02 -0.76694402665E+03  0.78368836478E+03  0.77000000000E+02 0.  0.
   -5000001    1    1    2    0    0 -0.11417845573E+03  0.83657595673E+02 -0.27735899695E+03  0.32076833737E+03  0.77000000000E+02 0.  0.
<mgrwt>
<rscale>  0 0.35952163E+03</rscale>
<asrwt>0</asrwt>
<pdfrwt beam="1">  1        2 0.16528918E+00 0.35952163E+03</pdfrwt>
<pdfrwt beam="2">  1       -2 0.46272069E-02 0.35952163E+03</pdfrwt>
<totfact> 0.52358334E+03</totfact>
</mgrwt>
</event>
<event>
 4    1  0.5980424E-004  0.2688127E+03  0.7818608E-02  0.1101961E+00
          2   -1    0    0  501    0  0.00000000000E+00  0.00000000000E+00  0.76331799454E+02  0.76331799497E+02  0.25500000000E-02 0.  1.
         -2   -1    0    0    0  501 -0.00000000000E+00 -0.00000000000E+00 -0.23666509347E+03  0.23666509348E+03  0.25500000000E-02 0. -1.
    5000001    1    1    2    0    0  0.66827535447E+02 -0.22074911710E+02  0.18515505255E+02  0.10594831361E+03  0.77000000000E+02 0.  0.
   -5000001    1    1    2    0    0 -0.66827535447E+02  0.22074911710E+02 -0.17884879927E+03  0.20704857937E+03  0.77000000000E+02 0.  0.
<mgrwt>
<rscale>  0 0.26881274E+03</rscale>
<asrwt>0</asrwt>
<pdfrwt beam="1">  1        2 0.11743354E-01 0.26881274E+03</pdfrwt>
<pdfrwt beam="2">  1       -2 0.36410014E-01 0.26881274E+03</pdfrwt>
<totfact> 0.37184341E+03</totfact>
</mgrwt>
</event>
<event>
 4    1  0.5980424E-004  0.2760842E+03  0.7818608E-02  0.1097847E+00
         -2   -1    0    0    0  501 -0.00000000000E+00  0.00000000000E+00  0.31101965122E+02  0.31101965226E+02  0.25500000000E-02 0. -1.
          2   -1    0    0  501    0  0.00000000000E+00 -0.00000000000E+00 -0.61268229550E+03  0.61268229551E+03  0.25500000000E-02 0.  1.
    5000001    1    1    2    0    0  0.10091251572E+03 -0.49330019081E+02 -0.23813822592E+03  0.27432754374E+03  0.77000000000E+02 0.  0.
   -5000001    1    1    2    0    0 -0.10091251572E+03  0.49330019081E+02 -0.34344210446E+03  0.36945671699E+03  0.77000000000E+02 0.  0.
<mgrwt>
<rscale>  0 0.27608421E+03</rscale>
<asrwt>0</asrwt>
<pdfrwt beam="1">  1        2 0.94258805E-01 0.27608421E+03</pdfrwt>
<pdfrwt beam="2">  1       -2 0.47849182E-02 0.27608421E+03</pdfrwt>
<totfact> 0.10262225E+04</totfact>
</mgrwt>
</event>
<event>
 4    1  0.5980424E-004  0.1804950E+03  0.7818608E-02  0.1167325E+00
         -2   -1    0    0    0  501 -0.00000000000E+00  0.00000000000E+00  0.60157683848E+01  0.60157689252E+01  0.25500000000E-02 0. -1.
          2   -1    0    0  501    0  0.00000000000E+00 -0.00000000000E+00 -0.13538768241E+04  0.13538768241E+04  0.25500000000E-02 0.  1.
    5000001    1    1    2    0    0 -0.30168729567E+02 -0.33919892424E+02 -0.76770032246E+03  0.77288647061E+03  0.77000000000E+02 0.  0.
   -5000001    1    1    2    0    0  0.30168729567E+02  0.33919892424E+02 -0.58016073329E+03  0.58700612246E+03  0.77000000000E+02 0.  0.
<mgrwt>
<rscale>  0 0.18049498E+03</rscale>
<asrwt>0</asrwt>
<pdfrwt beam="1">  1        2 0.20828850E+00 0.18049498E+03</pdfrwt>
<pdfrwt beam="2">  1       -2 0.92550395E-03 0.18049498E+03</pdfrwt>
<totfact> 0.38015698E+04</totfact>
</mgrwt>
</event>
<event>
 4    1  0.5980424E-004  0.2845990E+03  0.7818608E-02  0.1093203E+00
         -2   -1    0    0    0  501 -0.00000000000E+00  0.00000000000E+00  0.62264990976E+01  0.62264996197E+01  0.25500000000E-02 0. -1.
          2   -1    0    0  501    0  0.00000000000E+00 -0.00000000000E+00 -0.32520922408E+04  0.32520922408E+04  0.25500000000E-02 0.  1.
    5000001    1    1    2    0    0 -0.10134995327E+02 -0.10504017389E+03 -0.97691238656E+03  0.98560791762E+03  0.77000000000E+02 0.  0.
   -5000001    1    1    2    0    0  0.10134995327E+02  0.10504017389E+03 -0.22689533551E+04  0.22727108228E+04  0.77000000000E+02 0.  0.
<mgrwt>
<rscale>  0 0.28459902E+03</rscale>
<asrwt>0</asrwt>
<pdfrwt beam="1">  1        2 0.50032053E+00 0.28459902E+03</pdfrwt>
<pdfrwt beam="2">  1       -2 0.95792558E-03 0.28459902E+03</pdfrwt>
<totfact> 0.33188197E+03</totfact>
</mgrwt>
</event>
<event>
 4    1  0.5980424E-004  0.1973771E+03  0.7818608E-02  0.1151971E+00
          2   -1    0    0  501    0  0.00000000000E+00  0.00000000000E+00  0.20958371582E+02  0.20958371737E+02  0.25500000000E-02 0.  1.
         -2   -1    0    0    0  501 -0.00000000000E+00 -0.00000000000E+00 -0.46470362105E+03  0.46470362106E+03  0.25500000000E-02 0. -1.
    5000001    1    1    2    0    0 -0.12486015977E+01 -0.61709028404E+02 -0.22416507693E+03  0.24492559056E+03  0.77000000000E+02 0.  0.
   -5000001    1    1    2    0    0  0.12486015977E+01  0.61709028404E+02 -0.21958017253E+03  0.24073640224E+03  0.77000000000E+02 0.  0.
<mgrwt>
<rscale>  0 0.19737711E+03</rscale>
<asrwt>0</asrwt>
<pdfrwt beam="1">  1        2 0.32243652E-02 0.19737711E+03</pdfrwt>
<pdfrwt beam="2">  1       -2 0.71492857E-01 0.19737711E+03</pdfrwt>
<totfact> 0.50467568E+03</totfact>
</mgrwt>
</event>
<event>
 4    1  0.5980424E-004  0.4054976E+03  0.7818608E-02  0.1041893E+00
         -2   -1    0    0    0  501 -0.00000000000E+00  0.00000000000E+00  0.42287293148E+02  0.42287293224E+02  0.25500000000E-02 0. -1.
          2   -1    0    0  501    0  0.00000000000E+00 -0.00000000000E+00 -0.97209038996E+03  0.97209038996E+03  0.25500000000E-02 0.  1.
    5000001    1    1    2    0    0  0.14866098732E+03 -0.67875557385E+02 -0.69513899798E+03  0.71823005155E+03  0.77000000000E+02 0.  0.
   -5000001    1    1    2    0    0 -0.14866098732E+03  0.67875557385E+02 -0.23466409883E+03  0.29614763164E+03  0.77000000000E+02 0.  0.
<mgrwt>
<rscale>  0 0.40549758E+03</rscale>
<asrwt>0</asrwt>
<pdfrwt beam="1">  1        2 0.14955235E+00 0.40549758E+03</pdfrwt>
<pdfrwt beam="2">  1       -2 0.65057381E-02 0.40549758E+03</pdfrwt>
<totfact> 0.35835564E+03</totfact>
</mgrwt>
</event>
<event>
 4    1  0.5980424E-004  0.3372673E+03  0.7818608E-02  0.1067966E+00
          2   -1    0    0  501    0  0.00000000000E+00  0.00000000000E+00  0.10254223822E+04  0.10254223822E+04  0.25500000000E-02 0.  1.
         -2   -1    0    0    0  501 -0.00000000000E+00 -0.00000000000E+00 -0.27732294296E+02  0.27732294413E+02  0.25500000000E-02 0. -1.
    5000001    1    1    2    0    0 -0.28458723709E+02  0.13941646145E+03  0.35034965674E+03  0.38590248853E+03  0.77000000000E+02 0.  0.
   -5000001    1    1    2    0    0  0.28458723709E+02 -0.13941646145E+03  0.64734043115E+03  0.66725218807E+03  0.77000000000E+02 0.  0.
<mgrwt>
<rscale>  0 0.33726734E+03</rscale>
<asrwt>0</asrwt>
<pdfrwt beam="1">  1        2 0.15775727E+00 0.33726734E+03</pdfrwt>
<pdfrwt beam="2">  1       -2 0.42665074E-02 0.33726734E+03</pdfrwt>
<totfact> 0.63367922E+03</totfact>
</mgrwt>
</event>
<event>
 4    1  0.5980424E-004  0.5016846E+03  0.7818608E-02  0.1013340E+00
         -2   -1    0    0    0  501 -0.00000000000E+00  0.00000000000E+00  0.85537741349E+02  0.85537741387E+02  0.25500000000E-02 0. -1.
          2   -1    0    0  501    0  0.00000000000E+00 -0.00000000000E+00 -0.73560352161E+03  0.73560352161E+03  0.25500000000E-02 0.  1.
    5000001    1    1    2    0    0  0.16671118078E+03  0.81096643941E+02 -0.78844391668E+02  0.21567271861E+03  0.77000000000E+02 0.  0.
   -5000001    1    1    2    0    0 -0.16671118078E+03 -0.81096643941E+02 -0.57122138859E+03  0.60546854439E+03  0.77000000000E+02 0.  0.
<mgrwt>
<rscale>  0 0.50168462E+03</rscale>
<asrwt>0</asrwt>
<pdfrwt beam="1">  1        2 0.11316977E+00 0.50168462E+03</pdfrwt>
<pdfrwt beam="2">  1       -2 0.13159653E-01 0.50168462E+03</pdfrwt>
<totfact> 0.16813931E+03</totfact>
</mgrwt>
</event>
<event>
 4    1  0.5980424E-004  0.1862394E+03  0.7818608E-02  0.1161898E+00
         -2   -1    0    0    0  501 -0.00000000000E+00  0.00000000000E+00  0.52259374221E+01  0.52259380443E+01  0.25500000000E-02 0. -1.
          2   -1    0    0  501    0  0.00000000000E+00 -0.00000000000E+00 -0.16592776766E+04  0.16592776766E+04  0.25500000000E-02 0.  1.
    5000001    1    1    2    0    0 -0.30647733421E+02  0.25367849764E+02 -0.11313545901E+04  0.11346695642E+04  0.77000000000E+02 0.  0.
   -5000001    1    1    2    0    0  0.30647733421E+02 -0.25367849764E+02 -0.52269714907E+03  0.52983405045E+03  0.77000000000E+02 0.  0.
<mgrwt>
<rscale>  0 0.18623944E+03</rscale>
<asrwt>0</asrwt>
<pdfrwt beam="1">  1        2 0.25527307E+00 0.18623944E+03</pdfrwt>
<pdfrwt beam="2">  1       -2 0.80399174E-03 0.18623944E+03</pdfrwt>
<totfact> 0.32166000E+04</totfact>
</mgrwt>
</event>
<event>
 4    1  0.5980424E-004  0.2929165E+03  0.7818608E-02  0.1088836E+00
          2   -1    0    0  501    0  0.00000000000E+00  0.00000000000E+00  0.21588541761E+04  0.21588541761E+04  0.25500000000E-02 0.  1.
         -2   -1    0    0    0  501 -0.00000000000E+00 -0.00000000000E+00 -0.99358325134E+01  0.99358328407E+01  0.25500000000E-02 0. -1.
    5000001    1    1    2    0    0  0.10444939939E+03 -0.36611801073E+02  0.65100325379E+03  0.66481902609E+03  0.77000000000E+02 0.  0.
   -5000001    1    1    2    0    0 -0.10444939939E+03  0.36611801073E+02  0.14979150898E+04  0.15039709828E+04  0.77000000000E+02 0.  0.
<mgrwt>
<rscale>  0 0.29291647E+03</rscale>
<asrwt>0</asrwt>
<pdfrwt beam="1">  1        2 0.33213157E+00 0.29291647E+03</pdfrwt>
<pdfrwt beam="2">  1       -2 0.15285889E-02 0.29291647E+03</pdfrwt>
<totfact> 0.70294842E+03</totfact>
</mgrwt>
</event>
<event>
 4    1  0.5980424E-004  0.2018806E+03  0.7818608E-02  0.1148162E+00
          2   -1    0    0  501    0  0.00000000000E+00  0.00000000000E+00  0.46678883823E+03  0.46678883823E+03  0.25500000000E-02 0.  1.
         -2   -1    0    0    0  501 -0.00000000000E+00 -0.00000000000E+00 -0.21827735435E+02  0.21827735584E+02  0.25500000000E-02 0. -1.
    5000001    1    1    2    0    0  0.22755243830E+02 -0.38220169538E+02  0.10687714929E+03  0.13903347626E+03  0.77000000000E+02 0.  0.
   -5000001    1    1    2    0    0 -0.22755243830E+02  0.38220169538E+02  0.33808395350E+03  0.34958309756E+03  0.77000000000E+02 0.  0.
<mgrwt>
<rscale>  0 0.20188059E+03</rscale>
<asrwt>0</asrwt>
<pdfrwt beam="1">  1        2 0.71813656E-01 0.20188059E+03</pdfrwt>
<pdfrwt beam="2">  1       -2 0.33581137E-02 0.20188059E+03</pdfrwt>
<totfact> 0.23340410E+04</totfact>
</mgrwt>
</event>
<event>
 4    1  0.5980424E-004  0.1596949E+03  0.7818608E-02  0.1189042E+00
          2   -1    0    0  501    0  0.00000000000E+00  0.00000000000E+00  0.10570833907E+03  0.10570833910E+03  0.25500000000E-02 0.  1.
         -2   -1    0    0    0  501 -0.00000000000E+00 -0.00000000000E+00 -0.60313296891E+02  0.60313296945E+02  0.25500000000E-02 0. -1.
    5000001    1    1    2    0    0 -0.18490824341E+02 -0.89249989185E+01  0.17494004508E+02  0.81588028437E+02  0.77000000000E+02 0.  0.
   -5000001    1    1    2    0    0  0.18490824341E+02  0.89249989185E+01  0.27901037670E+02  0.84433607607E+02  0.77000000000E+02 0.  0.
<mgrwt>
<rscale>  0 0.15969494E+03</rscale>
<asrwt>0</asrwt>
<pdfrwt beam="1">  1        2 0.16262821E-01 0.15969494E+03</pdfrwt>
<pdfrwt beam="2">  1       -2 0.92789688E-02 0.15969494E+03</pdfrwt>
<totfact> 0.24841689E+04</totfact>
</mgrwt>
</event>
<event>
 4    1  0.5980424E-004  0.2653302E+03  0.7818608E-02  0.1103982E+00
         -2   -1    0    0    0  501 -0.00000000000E+00  0.00000000000E+00  0.41410867790E+02  0.41410867868E+02  0.25500000000E-02 0.  1.
          2   -1    0    0  501    0  0.00000000000E+00 -0.00000000000E+00 -0.42500980850E+03  0.42500980850E+03  0.25500000000E-02 0. -1.
    5000001    1    1    2    0    0 -0.77670984460E+02  0.73059581182E+02 -0.22227441045E+03  0.25827388131E+03  0.77000000000E+02 0.  0.
   -5000001    1    1    2    0    0  0.77670984460E+02 -0.73059581182E+02 -0.16132453026E+03  0.20814679506E+03  0.77000000000E+02 0.  0.
<mgrwt>
<rscale>  0 0.26533017E+03</rscale>
<asrwt>0</asrwt>
<pdfrwt beam="1">  1        2 0.65386122E-01 0.26533017E+03</pdfrwt>
<pdfrwt beam="2">  1       -2 0.63709030E-02 0.26533017E+03</pdfrwt>
<totfact> 0.99852090E+03</totfact>
</mgrwt>
</event>
<event>
 4    1  0.5980424E-004  0.2733015E+03  0.7818608E-02  0.1099405E+00
          2   -1    0    0  501    0  0.00000000000E+00  0.00000000000E+00  0.16176601090E+03  0.16176601092E+03  0.25500000000E-02 0.  1.
         -2   -1    0    0    0  501 -0.00000000000E+00 -0.00000000000E+00 -0.11543482927E+03  0.11543482930E+03  0.25500000000E-02 0. -1.
    5000001    1    1    2    0    0 -0.38761745377E+02  0.74062980119E+01  0.13044375842E+03  0.15653082849E+03  0.77000000000E+02 0.  0.
   -5000001    1    1    2    0    0  0.38761745377E+02 -0.74062980119E+01 -0.84112576797E+02  0.12067001173E+03  0.77000000000E+02 0.  0.
<mgrwt>
<rscale>  0 0.27330153E+03</rscale>
<asrwt>0</asrwt>
<pdfrwt beam="1">  1        2 0.24887079E-01 0.27330153E+03</pdfrwt>
<pdfrwt beam="2">  1       -2 0.17759205E-01 0.27330153E+03</pdfrwt>
<totfact> 0.55286226E+03</totfact>
</mgrwt>
</event>
<event>
 4    1  0.5980424E-004  0.3203343E+03  0.7818608E-02  0.1075496E+00
          2   -1    0    0  501    0  0.00000000000E+00  0.00000000000E+00  0.14138964670E+04  0.14138964670E+04  0.25500000000E-02 0.  1.
         -2   -1    0    0    0  501 -0.00000000000E+00 -0.00000000000E+00 -0.18143840562E+02  0.18143840742E+02  0.25500000000E-02 0. -1.
    5000001    1    1    2    0    0  0.11914890387E+03 -0.70035464406E+02  0.80946633163E+03  0.82478249837E+03  0.77000000000E+02 0.  0.
   -5000001    1    1    2    0    0 -0.11914890387E+03  0.70035464406E+02  0.58628629477E+03  0.60725780934E+03  0.77000000000E+02 0.  0.
<mgrwt>
<rscale>  0 0.32033428E+03</rscale>
<asrwt>0</asrwt>
<pdfrwt beam="1">  1        2 0.21752258E+00 0.32033428E+03</pdfrwt>
<pdfrwt beam="2">  1       -2 0.27913595E-02 0.32033428E+03</pdfrwt>
<totfact> 0.71825853E+03</totfact>
</mgrwt>
</event>
<event>
 4    1  0.5980424E-004  0.2720114E+03  0.7818608E-02  0.1100134E+00
         -2   -1    0    0    0  501 -0.00000000000E+00  0.00000000000E+00  0.77411917107E+02  0.77411917149E+02  0.25500000000E-02 0. -1.
          2   -1    0    0  501    0  0.00000000000E+00 -0.00000000000E+00 -0.23894965722E+03  0.23894965723E+03  0.25500000000E-02 0.  1.
    5000001    1    1    2    0    0  0.41985690136E+02 -0.91032407507E+02 -0.22397742255E+02  0.12837583982E+03  0.77000000000E+02 0.  0.
   -5000001    1    1    2    0    0 -0.41985690136E+02  0.91032407507E+02 -0.13913999785E+03  0.18798573455E+03  0.77000000000E+02 0.  0.
<mgrwt>
<rscale>  0 0.27201140E+03</rscale>
<asrwt>0</asrwt>
<pdfrwt beam="1">  1        2 0.36761486E-01 0.27201140E+03</pdfrwt>
<pdfrwt beam="2">  1       -2 0.11909526E-01 0.27201140E+03</pdfrwt>
<totfact> 0.69559358E+03</totfact>
</mgrwt>
</event>
<event>
 4    1  0.5980424E-004  0.3072224E+03  0.7818608E-02  0.1081685E+00
         -2   -1    0    0    0  501 -0.00000000000E+00  0.00000000000E+00  0.35133906056E+02  0.35133906149E+02  0.25500000000E-02 0. -1.
          2   -1    0    0  501    0  0.00000000000E+00 -0.00000000000E+00 -0.67161356956E+03  0.67161356957E+03  0.25500000000E-02 0.  1.
    5000001    1    1    2    0    0 -0.97325024995E+02 -0.22976128495E+02 -0.51967431889E+03  0.53478075945E+03  0.77000000000E+02 0.  0.
   -5000001    1    1    2    0    0  0.97325024995E+02  0.22976128495E+02 -0.11680534462E+03  0.17196671627E+03  0.77000000000E+02 0.  0.
<mgrwt>
<rscale>  0 0.30722245E+03</rscale>
<asrwt>0</asrwt>
<pdfrwt beam="1">  1        2 0.10332516E+00 0.30722245E+03</pdfrwt>
<pdfrwt beam="2">  1       -2 0.54052168E-02 0.30722245E+03</pdfrwt>
<totfact> 0.76702446E+03</totfact>
</mgrwt>
</event>
<event>
 4    1  0.5980424E-004  0.2808185E+03  0.7818608E-02  0.1095243E+00
          2   -1    0    0  501    0  0.00000000000E+00  0.00000000000E+00  0.12870112737E+04  0.12870112737E+04  0.25500000000E-02 0.  1.
         -2   -1    0    0    0  501 -0.00000000000E+00 -0.00000000000E+00 -0.15318252966E+02  0.15318253178E+02  0.25500000000E-02 0. -1.
    5000001    1    1    2    0    0 -0.25989707638E+02 -0.52181109710E+02  0.16318615437E+03  0.18962345344E+03  0.77000000000E+02 0.  0.
   -5000001    1    1    2    0    0  0.25989707638E+02  0.52181109710E+02  0.11085068663E+04  0.11127060734E+04  0.77000000000E+02 0.  0.
<mgrwt>
<rscale>  0 0.28081855E+03</rscale>
<asrwt>0</asrwt>
<pdfrwt beam="1">  1        2 0.19800180E+00 0.28081855E+03</pdfrwt>
<pdfrwt beam="2">  1       -2 0.23566536E-02 0.28081855E+03</pdfrwt>
<totfact> 0.10820525E+04</totfact>
</mgrwt>
</event>
<event>
 4    1  0.5980424E-004  0.2907285E+03  0.7818608E-02  0.1089969E+00
          2   -1    0    0  501    0  0.00000000000E+00  0.00000000000E+00  0.24658499587E+03  0.24658499588E+03  0.25500000000E-02 0.  1.
         -2   -1    0    0    0  501 -0.00000000000E+00 -0.00000000000E+00 -0.85693656052E+02  0.85693656090E+02  0.25500000000E-02 0. -1.
    5000001    1    1    2    0    0  0.12008563285E+03  0.17911228193E+02  0.10496912987E+03  0.17801373413E+03  0.77000000000E+02 0.  0.
   -5000001    1    1    2    0    0 -0.12008563285E+03 -0.17911228193E+02  0.55922209952E+02  0.15426491785E+03  0.77000000000E+02 0.  0.
<mgrwt>
<rscale>  0 0.29072853E+03</rscale>
<asrwt>0</asrwt>
<pdfrwt beam="1">  1        2 0.37936153E-01 0.29072853E+03</pdfrwt>
<pdfrwt beam="2">  1       -2 0.13183640E-01 0.29072853E+03</pdfrwt>
<totfact> 0.57140603E+03</totfact>
</mgrwt>
</event>
<event>
 4    1  0.5980424E-004  0.1884888E+03  0.7818608E-02  0.1159831E+00
          2   -1    0    0  501    0  0.00000000000E+00  0.00000000000E+00  0.25716698204E+04  0.25716698204E+04  0.25500000000E-02 0.  1.
         -2   -1    0    0    0  501 -0.00000000000E+00 -0.00000000000E+00 -0.34537877520E+01  0.34537886934E+01  0.25500000000E-02 0. -1.
    5000001    1    1    2    0    0  0.50536154187E+02 -0.15385393619E+02  0.14582052624E+04  0.14611920478E+04  0.77000000000E+02 0.  0.
   -5000001    1    1    2    0    0 -0.50536154187E+02  0.15385393619E+02  0.11100107702E+04  0.11139315613E+04  0.77000000000E+02 0.  0.
<mgrwt>
<rscale>  0 0.18848876E+03</rscale>
<asrwt>0</asrwt>
<pdfrwt beam="1">  1        2 0.39564090E+00 0.18848876E+03</pdfrwt>
<pdfrwt beam="2">  1       -2 0.53135285E-03 0.18848876E+03</pdfrwt>
<totfact> 0.19310751E+04</totfact>
</mgrwt>
</event>
<event>
 4    1  0.5980424E-004  0.2037559E+03  0.7818608E-02  0.1146608E+00
         -2   -1    0    0    0  501 -0.00000000000E+00  0.00000000000E+00  0.36464649181E+03  0.36464649182E+03  0.25500000000E-02 0. -1.
          2   -1    0    0  501    0  0.00000000000E+00 -0.00000000000E+00 -0.28463502604E+02  0.28463502718E+02  0.25500000000E-02 0.  1.
    5000001    1    1    2    0    0 -0.34476351562E+02  0.43065956203E+02  0.24045562023E+03  0.25843993635E+03  0.77000000000E+02 0.  0.
   -5000001    1    1    2    0    0  0.34476351562E+02 -0.43065956203E+02  0.95727368973E+02  0.13467005818E+03  0.77000000000E+02 0.  0.
<mgrwt>
<rscale>  0 0.20375590E+03</rscale>
<asrwt>0</asrwt>
<pdfrwt beam="1">  1        2 0.43790005E-02 0.20375590E+03</pdfrwt>
<pdfrwt beam="2">  1       -2 0.56099459E-01 0.20375590E+03</pdfrwt>
<totfact> 0.55696001E+03</totfact>
</mgrwt>
</event>
<event>
 4    1  0.5980424E-004  0.4843301E+03  0.7818608E-02  0.1017952E+00
         -2   -1    0    0    0  501 -0.00000000000E+00  0.00000000000E+00  0.11098255644E+03  0.11098255647E+03  0.25500000000E-02 0. -1.
          2   -1    0    0  501    0  0.00000000000E+00 -0.00000000000E+00 -0.52840666472E+03  0.52840666473E+03  0.25500000000E-02 0.  1.
    5000001    1    1    2    0    0 -0.21849335908E+03 -0.63713971043E+01 -0.30145192799E+03  0.38023967120E+03  0.77000000000E+02 0.  0.
   -5000001    1    1    2    0    0  0.21849335908E+03  0.63713971043E+01 -0.11597218029E+03  0.25914955000E+03  0.77000000000E+02 0.  0.
<mgrwt>
<rscale>  0 0.48433015E+03</rscale>
<asrwt>0</asrwt>
<pdfrwt beam="1">  1        2 0.81293331E-01 0.48433015E+03</pdfrwt>
<pdfrwt beam="2">  1       -2 0.17074240E-01 0.48433015E+03</pdfrwt>
<totfact> 0.16183319E+03</totfact>
</mgrwt>
</event>
<event>
 4    1  0.5980424E-004  0.2195270E+03  0.7818608E-02  0.1134236E+00
         -2   -1    0    0    0  501 -0.00000000000E+00  0.00000000000E+00  0.15177398257E+03  0.15177398259E+03  0.25500000000E-02 0. -1.
          2   -1    0    0  501    0  0.00000000000E+00 -0.00000000000E+00 -0.79381396872E+02  0.79381396913E+02  0.25500000000E-02 0.  1.
    5000001    1    1    2    0    0  0.14237437876E+02  0.76832297728E+02  0.32381671596E+02  0.11438303750E+03  0.77000000000E+02 0.  0.
   -5000001    1    1    2    0    0 -0.14237437876E+02 -0.76832297728E+02  0.40010914104E+02  0.11677234201E+03  0.77000000000E+02 0.  0.
<mgrwt>
<rscale>  0 0.21952704E+03</rscale>
<asrwt>0</asrwt>
<pdfrwt beam="1">  1        2 0.12212523E-01 0.21952704E+03</pdfrwt>
<pdfrwt beam="2">  1       -2 0.23349843E-01 0.21952704E+03</pdfrwt>
<totfact> 0.78390545E+03</totfact>
</mgrwt>
</event>
<event>
 4    1  0.5980424E-004  0.2065723E+03  0.7818608E-02  0.1144309E+00
          2   -1    0    0  501    0  0.00000000000E+00  0.00000000000E+00  0.68693864422E+03  0.68693864422E+03  0.25500000000E-02 0.  1.
         -2   -1    0    0    0  501 -0.00000000000E+00 -0.00000000000E+00 -0.15529813079E+02  0.15529813289E+02  0.25500000000E-02 0. -1.
    5000001    1    1    2    0    0  0.99357950797E+01 -0.53017443673E+02  0.19025360781E+03  0.21221452505E+03  0.77000000000E+02 0.  0.
   -5000001    1    1    2    0    0 -0.99357950797E+01  0.53017443673E+02  0.48115522333E+03  0.49025393246E+03  0.77000000000E+02 0.  0.
<mgrwt>
<rscale>  0 0.20657230E+03</rscale>
<asrwt>0</asrwt>
<pdfrwt beam="1">  1        2 0.10568286E+00 0.20657230E+03</pdfrwt>
<pdfrwt beam="2">  1       -2 0.23892023E-02 0.20657230E+03</pdfrwt>
<totfact> 0.24883950E+04</totfact>
</mgrwt>
</event>
<event>
 4    1  0.5980424E-004  0.4028954E+03  0.7818608E-02  0.1042782E+00
          2   -1    0    0  501    0  0.00000000000E+00  0.00000000000E+00  0.90748686264E+03  0.90748686265E+03  0.25500000000E-02 0.  1.
         -2   -1    0    0    0  501 -0.00000000000E+00 -0.00000000000E+00 -0.44718198056E+02  0.44718198129E+02  0.25500000000E-02 0. -1.
    5000001    1    1    2    0    0 -0.15777533525E+03 -0.98573618117E+02  0.41600172558E+03  0.46216474367E+03  0.77000000000E+02 0.  0.
   -5000001    1    1    2    0    0  0.15777533525E+03  0.98573618117E+02  0.44676693900E+03  0.49004031711E+03  0.77000000000E+02 0.  0.
<mgrwt>
<rscale>  0 0.40289541E+03</rscale>
<asrwt>0</asrwt>
<pdfrwt beam="1">  1        2 0.13961336E+00 0.40289541E+03</pdfrwt>
<pdfrwt beam="2">  1       -2 0.68797228E-02 0.40289541E+03</pdfrwt>
<totfact> 0.36133065E+03</totfact>
</mgrwt>
</event>
<event>
 4    1  0.5980424E-004  0.2480387E+03  0.7818608E-02  0.1114551E+00
         -2   -1    0    0    0  501 -0.00000000000E+00  0.00000000000E+00  0.40316778955E+03  0.40316778955E+03  0.25500000000E-02 0. -1.
          2   -1    0    0  501    0  0.00000000000E+00 -0.00000000000E+00 -0.38149874170E+02  0.38149874255E+02  0.25500000000E-02 0.  1.
    5000001    1    1    2    0    0  0.61862827607E+02 -0.72786886256E+02  0.15034178622E+03  0.19405306732E+03  0.77000000000E+02 0.  0.
   -5000001    1    1    2    0    0 -0.61862827607E+02  0.72786886256E+02  0.21467612915E+03  0.24726459649E+03  0.77000000000E+02 0.  0.
<mgrwt>
<rscale>  0 0.24803871E+03</rscale>
<asrwt>0</asrwt>
<pdfrwt beam="1">  1        2 0.58692114E-02 0.24803871E+03</pdfrwt>
<pdfrwt beam="2">  1       -2 0.62025814E-01 0.24803871E+03</pdfrwt>
<totfact> 0.31107937E+03</totfact>
</mgrwt>
</event>
<event>
 4    1  0.5980424E-004  0.3109569E+03  0.7818608E-02  0.1079888E+00
         -2   -1    0    0    0  501 -0.00000000000E+00  0.00000000000E+00  0.23992154335E+02  0.23992154471E+02  0.25500000000E-02 0. -1.
          2   -1    0    0  501    0  0.00000000000E+00 -0.00000000000E+00 -0.10075603609E+04  0.10075603609E+04  0.25500000000E-02 0.  1.
    5000001    1    1    2    0    0 -0.98886824835E+02  0.48684279133E+02 -0.75078773250E+03  0.76273192042E+03  0.77000000000E+02 0.  0.
   -5000001    1    1    2    0    0  0.98886824835E+02 -0.48684279133E+02 -0.23278047402E+03  0.26882059491E+03  0.77000000000E+02 0.  0.
<mgrwt>
<rscale>  0 0.31095687E+03</rscale>
<asrwt>0</asrwt>
<pdfrwt beam="1">  1        2 0.15500925E+00 0.31095687E+03</pdfrwt>
<pdfrwt beam="2">  1       -2 0.36911015E-02 0.31095687E+03</pdfrwt>
<totfact> 0.80754078E+03</totfact>
</mgrwt>
</event>
<event>
 4    1  0.5980424E-004  0.1998047E+03  0.7818608E-02  0.1149904E+00
          2   -1    0    0  501    0  0.00000000000E+00  0.00000000000E+00  0.19984408065E+04  0.19984408065E+04  0.25500000000E-02 0.  1.
         -2   -1    0    0    0  501 -0.00000000000E+00 -0.00000000000E+00 -0.49941348560E+01  0.49941355070E+01  0.25500000000E-02 0. -1.
    5000001    1    1    2    0    0 -0.38725980303E+02  0.46735352375E+02  0.11889663691E+04  0.11930020627E+04  0.77000000000E+02 0.  0.
   -5000001    1    1    2    0    0  0.38725980303E+02 -0.46735352375E+02  0.80448030248E+03  0.81043287926E+03  0.77000000000E+02 0.  0.
<mgrwt>
<rscale>  0 0.19980474E+03</rscale>
<asrwt>0</asrwt>
<pdfrwt beam="1">  1        2 0.30745270E+00 0.19980474E+03</pdfrwt>
<pdfrwt beam="2">  1       -2 0.76832782E-03 0.19980474E+03</pdfrwt>
<totfact> 0.22975129E+04</totfact>
</mgrwt>
</event>
<event>
 4    1  0.5980424E-004  0.7446591E+03  0.7818608E-02  0.9643767E-01
         -2   -1    0    0    0  501 -0.00000000000E+00  0.00000000000E+00  0.21639537825E+03  0.21639537827E+03  0.25500000000E-02 0. -1.
          2   -1    0    0  501    0  0.00000000000E+00 -0.00000000000E+00 -0.64062955908E+03  0.64062955909E+03  0.25500000000E-02 0.  1.
    5000001    1    1    2    0    0  0.30527798288E+03  0.32163513516E+02  0.13620299399E+02  0.31677065992E+03  0.77000000000E+02 0.  0.
   -5000001    1    1    2    0    0 -0.30527798288E+03 -0.32163513516E+02 -0.43785448023E+03  0.54025427743E+03  0.77000000000E+02 0.  0.
<mgrwt>
<rscale>  0 0.74465905E+03</rscale>
<asrwt>0</asrwt>
<pdfrwt beam="1">  1        2 0.98558393E-01 0.74465905E+03</pdfrwt>
<pdfrwt beam="2">  1       -2 0.33291597E-01 0.74465905E+03</pdfrwt>
<totfact> 0.38817831E+02</totfact>
</mgrwt>
</event>
<event>
 4    1  0.5980424E-004  0.2347822E+03  0.7818608E-02  0.1123318E+00
          2   -1    0    0  501    0  0.00000000000E+00  0.00000000000E+00  0.15204475495E+04  0.15204475495E+04  0.25500000000E-02 0.  1.
         -2   -1    0    0    0  501 -0.00000000000E+00 -0.00000000000E+00 -0.90635639823E+01  0.90635643410E+01  0.25500000000E-02 0. -1.
    5000001    1    1    2    0    0 -0.40797323112E+02  0.50351780044E+02  0.11493778921E+04  0.11537756551E+04  0.77000000000E+02 0.  0.
   -5000001    1    1    2    0    0  0.40797323112E+02 -0.50351780044E+02  0.36200609342E+03  0.37573545880E+03  0.77000000000E+02 0.  0.
<mgrwt>
<rscale>  0 0.23478223E+03</rscale>
<asrwt>0</asrwt>
<pdfrwt beam="1">  1        2 0.23391524E+00 0.23478223E+03</pdfrwt>
<pdfrwt beam="2">  1       -2 0.13943931E-02 0.23478223E+03</pdfrwt>
<totfact> 0.17359052E+04</totfact>
</mgrwt>
</event>
<event>
 4    1  0.5980424E-004  0.1837792E+03  0.7818608E-02  0.1164195E+00
          2   -1    0    0  501    0  0.00000000000E+00  0.00000000000E+00  0.25311396266E+03  0.25311396267E+03  0.25500000000E-02 0.  1.
         -2   -1    0    0    0  501 -0.00000000000E+00 -0.00000000000E+00 -0.33359269295E+02  0.33359269392E+02  0.25500000000E-02 0. -1.
    5000001    1    1    2    0    0  0.18018834353E+02 -0.42649260168E+02  0.13990416138E+03  0.16627029848E+03  0.77000000000E+02 0.  0.
   -5000001    1    1    2    0    0 -0.18018834353E+02  0.42649260168E+02  0.79850531978E+02  0.12020293358E+03  0.77000000000E+02 0.  0.
<mgrwt>
<rscale>  0 0.18377918E+03</rscale>
<asrwt>0</asrwt>
<pdfrwt beam="1">  1        2 0.38940608E-01 0.18377918E+03</pdfrwt>
<pdfrwt beam="2">  1       -2 0.51321955E-02 0.18377918E+03</pdfrwt>
<totfact> 0.23694324E+04</totfact>
</mgrwt>
</event>
<event>
 4    1  0.5980424E-004  0.2302323E+03  0.7818608E-02  0.1126476E+00
          2   -1    0    0  501    0  0.00000000000E+00  0.00000000000E+00  0.10246875009E+03  0.10246875012E+03  0.25500000000E-02 0.  1.
         -2   -1    0    0    0  501 -0.00000000000E+00 -0.00000000000E+00 -0.12932453892E+03  0.12932453894E+03  0.25500000000E-02 0. -1.
    5000001    1    1    2    0    0  0.52299717527E+02 -0.31673042159E+02  0.46846901395E+02  0.10891314991E+03  0.77000000000E+02 0.  0.
   -5000001    1    1    2    0    0 -0.52299717527E+02  0.31673042159E+02 -0.73702690224E+02  0.12288013916E+03  0.77000000000E+02 0.  0.
<mgrwt>
<rscale>  0 0.23023226E+03</rscale>
<asrwt>0</asrwt>
<pdfrwt beam="1">  1        2 0.15764423E-01 0.23023226E+03</pdfrwt>
<pdfrwt beam="2">  1       -2 0.19896083E-01 0.23023226E+03</pdfrwt>
<totfact> 0.76370698E+03</totfact>
</mgrwt>
</event>
<event>
 4    1  0.5980424E-004  0.3260149E+03  0.7818608E-02  0.1072914E+00
         -2   -1    0    0    0  501 -0.00000000000E+00  0.00000000000E+00  0.63371081146E+02  0.63371081197E+02  0.25500000000E-02 0. -1.
          2   -1    0    0  501    0  0.00000000000E+00 -0.00000000000E+00 -0.41929894154E+03  0.41929894155E+03  0.25500000000E-02 0.  1.
    5000001    1    1    2    0    0 -0.94961160405E+02 -0.73189922626E+02 -0.60750119091E+02  0.15489985064E+03  0.77000000000E+02 0.  0.
   -5000001    1    1    2    0    0  0.94961160405E+02  0.73189922626E+02 -0.29517774131E+03  0.32777017210E+03  0.77000000000E+02 0.  0.
<mgrwt>
<rscale>  0 0.32601489E+03</rscale>
<asrwt>0</asrwt>
<pdfrwt beam="1">  1        2 0.64507528E-01 0.32601489E+03</pdfrwt>
<pdfrwt beam="2">  1       -2 0.97493974E-02 0.32601489E+03</pdfrwt>
<totfact> 0.52445193E+03</totfact>
</mgrwt>
</event>
<event>
 4    1  0.5980424E-004  0.2160236E+03  0.7818608E-02  0.1136883E+00
          2   -1    0    0  501    0  0.00000000000E+00  0.00000000000E+00  0.68047945548E+02  0.68047945596E+02  0.25500000000E-02 0.  1.
         -2   -1    0    0    0  501 -0.00000000000E+00 -0.00000000000E+00 -0.17144606142E+03  0.17144606144E+03  0.25500000000E-02 0. -1.
    5000001    1    1    2    0    0  0.52793284986E+01 -0.55026269636E+02  0.57133578548E+01  0.94960013255E+02  0.77000000000E+02 0.  0.
   -5000001    1    1    2    0    0 -0.52793284986E+01  0.55026269636E+02 -0.10911147373E+03  0.14453399378E+03  0.77000000000E+02 0.  0.
<mgrwt>
<rscale>  0 0.21602363E+03</rscale>
<asrwt>0</asrwt>
<pdfrwt beam="1">  1        2 0.10468915E-01 0.21602363E+03</pdfrwt>
<pdfrwt beam="2">  1       -2 0.26376317E-01 0.21602363E+03</pdfrwt>
<totfact> 0.76307440E+03</totfact>
</mgrwt>
</event>
<event>
 4    1  0.5980424E-004  0.2339671E+03  0.7818608E-02  0.1123878E+00
         -2   -1    0    0    0  501 -0.00000000000E+00  0.00000000000E+00  0.11449670082E+02  0.11449670366E+02  0.25500000000E-02 0.  1.
          2   -1    0    0  501    0  0.00000000000E+00 -0.00000000000E+00 -0.11952442849E+04  0.11952442849E+04  0.25500000000E-02 0. -1.
    5000001    1    1    2    0    0 -0.50516688109E+02 -0.38066745805E+02 -0.27584760887E+03  0.29329493045E+03  0.77000000000E+02 0.  0.
   -5000001    1    1    2    0    0  0.50516688109E+02  0.38066745805E+02 -0.90794700595E+03  0.91339902481E+03  0.77000000000E+02 0.  0.
<mgrwt>
<rscale>  0 0.23396712E+03</rscale>
<asrwt>0</asrwt>
<pdfrwt beam="1">  1        2 0.18388364E+00 0.23396712E+03</pdfrwt>
<pdfrwt beam="2">  1       -2 0.17614887E-02 0.23396712E+03</pdfrwt>
<totfact> 0.18571427E+04</totfact>
</mgrwt>
</event>
<event>
 4    1  0.5980424E-004  0.2134921E+03  0.7818608E-02  0.1138830E+00
          2   -1    0    0  501    0  0.00000000000E+00  0.00000000000E+00  0.62370506404E+03  0.62370506405E+03  0.25500000000E-02 0.  1.
         -2   -1    0    0    0  501 -0.00000000000E+00 -0.00000000000E+00 -0.18269406468E+02  0.18269406646E+02  0.25500000000E-02 0. -1.
    5000001    1    1    2    0    0  0.39202555905E+02  0.62596389644E+02  0.31249549254E+03  0.33020839063E+03  0.77000000000E+02 0.  0.
   -5000001    1    1    2    0    0 -0.39202555905E+02 -0.62596389644E+02  0.29294016503E+03  0.31176608006E+03  0.77000000000E+02 0.  0.
<mgrwt>
<rscale>  0 0.21349212E+03</rscale>
<asrwt>0</asrwt>
<pdfrwt beam="1">  1        2 0.95954606E-01 0.21349212E+03</pdfrwt>
<pdfrwt beam="2">  1       -2 0.28106785E-02 0.21349212E+03</pdfrwt>
<totfact> 0.21995973E+04</totfact>
</mgrwt>
</event>
<event>
 4    1  0.5980424E-004  0.1713504E+03  0.7818608E-02  0.1176447E+00
         -2   -1    0    0    0  501 -0.00000000000E+00  0.00000000000E+00  0.20066447018E+01  0.20066463221E+01  0.25500000000E-02 0. -1.
          2   -1    0    0  501    0  0.00000000000E+00 -0.00000000000E+00 -0.36579668370E+04  0.36579668370E+04  0.25500000000E-02 0.  1.
    5000001    1    1    2    0    0 -0.18179050870E+02  0.29268631400E+02 -0.15082192011E+04  0.15105764758E+04  0.77000000000E+02 0.  0.
   -5000001    1    1    2    0    0  0.18179050870E+02 -0.29268631400E+02 -0.21477409912E+04  0.21493970075E+04  0.77000000000E+02 0.  0.
<mgrwt>
<rscale>  0 0.17135043E+03</rscale>
<asrwt>0</asrwt>
<pdfrwt beam="1">  1        2 0.56275879E+00 0.17135043E+03</pdfrwt>
<pdfrwt beam="2">  1       -2 0.30871762E-03 0.17135043E+03</pdfrwt>
<totfact> 0.92380526E+03</totfact>
</mgrwt>
</event>
<event>
 4    1  0.5980424E-004  0.2246148E+03  0.7818608E-02  0.1130489E+00
         -2   -1    0    0    0  501 -0.00000000000E+00  0.00000000000E+00  0.42523868726E+02  0.42523868802E+02  0.25500000000E-02 0. -1.
          2   -1    0    0  501    0  0.00000000000E+00 -0.00000000000E+00 -0.29660887728E+03  0.29660887729E+03  0.25500000000E-02 0.  1.
    5000001    1    1    2    0    0  0.59423362461E+02  0.33847804120E+02 -0.59399813121E+02  0.11888712146E+03  0.77000000000E+02 0.  0.
   -5000001    1    1    2    0    0 -0.59423362461E+02 -0.33847804120E+02 -0.19468519544E+03  0.22024562464E+03  0.77000000000E+02 0.  0.
<mgrwt>
<rscale>  0 0.22461484E+03</rscale>
<asrwt>0</asrwt>
<pdfrwt beam="1">  1        2 0.45632134E-01 0.22461484E+03</pdfrwt>
<pdfrwt beam="2">  1       -2 0.65421338E-02 0.22461484E+03</pdfrwt>
<totfact> 0.14010994E+04</totfact>
</mgrwt>
</event>
<event>
 4    1  0.5980424E-004  0.2809362E+03  0.7818608E-02  0.1095179E+00
         -2   -1    0    0    0  501 -0.00000000000E+00  0.00000000000E+00  0.84335425056E+01  0.84335428911E+01  0.25500000000E-02 0. -1.
          2   -1    0    0  501    0  0.00000000000E+00 -0.00000000000E+00 -0.23396196615E+04  0.23396196615E+04  0.25500000000E-02 0.  1.
    5000001    1    1    2    0    0 -0.34213753750E+02  0.87241617990E+02 -0.57337975966E+03  0.58606742755E+03  0.77000000000E+02 0.  0.
   -5000001    1    1    2    0    0  0.34213753750E+02 -0.87241617990E+02 -0.17578063593E+04  0.17619857768E+04  0.77000000000E+02 0.  0.
<mgrwt>
<rscale>  0 0.28093617E+03</rscale>
<asrwt>0</asrwt>
<pdfrwt beam="1">  1        2 0.35994097E+00 0.28093617E+03</pdfrwt>
<pdfrwt beam="2">  1       -2 0.12974700E-02 0.28093617E+03</pdfrwt>
<totfact> 0.71508248E+03</totfact>
</mgrwt>
</event>
<event>
 4    1  0.5980424E-004  0.2356644E+03  0.7818608E-02  0.1122715E+00
         -2   -1    0    0    0  501 -0.00000000000E+00  0.00000000000E+00  0.29516855815E+02  0.29516855925E+02  0.25500000000E-02 0. -1.
          2   -1    0    0  501    0  0.00000000000E+00 -0.00000000000E+00 -0.47038976853E+03  0.47038976854E+03  0.25500000000E-02 0.  1.
    5000001    1    1    2    0    0 -0.79185674787E+02  0.18569384106E+01 -0.30742403817E+03  0.32666857602E+03  0.77000000000E+02 0.  0.
   -5000001    1    1    2    0    0  0.79185674787E+02 -0.18569384106E+01 -0.13344887454E+03  0.17323804844E+03  0.77000000000E+02 0.  0.
<mgrwt>
<rscale>  0 0.23566440E+03</rscale>
<asrwt>0</asrwt>
<pdfrwt beam="1">  1        2 0.72367651E-01 0.23566440E+03</pdfrwt>
<pdfrwt beam="2">  1       -2 0.45410551E-02 0.23566440E+03</pdfrwt>
<totfact> 0.14876272E+04</totfact>
</mgrwt>
</event>
<event>
 4    1  0.5980424E-004  0.3390361E+03  0.7818608E-02  0.1067207E+00
          2   -1    0    0  501    0  0.00000000000E+00  0.00000000000E+00  0.64423623005E+03  0.64423623006E+03  0.25500000000E-02 0.  1.
         -2   -1    0    0    0  501 -0.00000000000E+00 -0.00000000000E+00 -0.44605326738E+02  0.44605326811E+02  0.25500000000E-02 0. -1.
    5000001    1    1    2    0    0  0.13562844273E+03  0.53987342331E+02  0.22118694672E+03  0.27597531231E+03  0.77000000000E+02 0.  0.
   -5000001    1    1    2    0    0 -0.13562844273E+03 -0.53987342331E+02  0.37844395660E+03  0.41286624456E+03  0.77000000000E+02 0.  0.
<mgrwt>
<rscale>  0 0.33903609E+03</rscale>
<asrwt>0</asrwt>
<pdfrwt beam="1">  1        2 0.99113257E-01 0.33903609E+03</pdfrwt>
<pdfrwt beam="2">  1       -2 0.68623586E-02 0.33903609E+03</pdfrwt>
<totfact> 0.55933238E+03</totfact>
</mgrwt>
</event>
<event>
 4    1  0.5980424E-004  0.1755732E+03  0.7818608E-02  0.1172157E+00
          2   -1    0    0  501    0  0.00000000000E+00  0.00000000000E+00  0.84088385504E+02  0.84088385543E+02  0.25500000000E-02 0.  1.
         -2   -1    0    0    0  501 -0.00000000000E+00 -0.00000000000E+00 -0.91647476854E+02  0.91647476889E+02  0.25500000000E-02 0. -1.
    5000001    1    1    2    0    0 -0.29144380642E+02  0.21413295604E+02  0.17909959082E+02  0.86934980221E+02  0.77000000000E+02 0.  0.
   -5000001    1    1    2    0    0  0.29144380642E+02 -0.21413295604E+02 -0.25469050431E+02  0.88800882211E+02  0.77000000000E+02 0.  0.
<mgrwt>
<rscale>  0 0.17557321E+03</rscale>
<asrwt>0</asrwt>
<pdfrwt beam="1">  1        2 0.12936675E-01 0.17557321E+03</pdfrwt>
<pdfrwt beam="2">  1       -2 0.14099612E-01 0.17557321E+03</pdfrwt>
<totfact> 0.16827192E+04</totfact>
</mgrwt>
</event>
<event>
 4    1  0.5980424E-004  0.1682926E+03  0.7818608E-02  0.1179640E+00
         -2   -1    0    0    0  501 -0.00000000000E+00  0.00000000000E+00  0.26992263684E+02  0.26992263805E+02  0.25500000000E-02 0. -1.
          2   -1    0    0  501    0  0.00000000000E+00 -0.00000000000E+00 -0.26231949377E+03  0.26231949378E+03  0.25500000000E-02 0.  1.
    5000001    1    1    2    0    0  0.23677711174E+02 -0.23281086039E+02 -0.12969166442E+03  0.15443953766E+03  0.77000000000E+02 0.  0.
   -5000001    1    1    2    0    0 -0.23677711174E+02  0.23281086039E+02 -0.10563556566E+03  0.13487221992E+03  0.77000000000E+02 0.  0.
<mgrwt>
<rscale>  0 0.16829257E+03</rscale>
<asrwt>0</asrwt>
<pdfrwt beam="1">  1        2 0.40356844E-01 0.16829257E+03</pdfrwt>
<pdfrwt beam="2">  1       -2 0.41526561E-02 0.16829257E+03</pdfrwt>
<totfact> 0.31111127E+04</totfact>
</mgrwt>
</event>
<event>
 4    1  0.5980424E-004  0.3051126E+03  0.7818608E-02  0.1082712E+00
         -2   -1    0    0    0  501 -0.00000000000E+00  0.00000000000E+00  0.18929473690E+03  0.18929473692E+03  0.25500000000E-02 0. -1.
          2   -1    0    0  501    0  0.00000000000E+00 -0.00000000000E+00 -0.12294807111E+03  0.12294807114E+03  0.25500000000E-02 0.  1.
    5000001    1    1    2    0    0 -0.54742710570E+02 -0.10889094081E+03 -0.17897006160E+02  0.14526976348E+03  0.77000000000E+02 0.  0.
   -5000001    1    1    2    0    0  0.54742710570E+02  0.10889094081E+03  0.84243671949E+02  0.16697304458E+03  0.77000000000E+02 0.  0.
<mgrwt>
<rscale>  0 0.30511259E+03</rscale>
<asrwt>0</asrwt>
<pdfrwt beam="1">  1        2 0.18915088E-01 0.30511259E+03</pdfrwt>
<pdfrwt beam="2">  1       -2 0.29122267E-01 0.30511259E+03</pdfrwt>
<totfact> 0.31972192E+03</totfact>
</mgrwt>
</event>
<event>
 4    1  0.5980424E-004  0.4713781E+03  0.7818608E-02  0.1021532E+00
          2   -1    0    0  501    0  0.00000000000E+00  0.00000000000E+00  0.29085681143E+04  0.29085681143E+04  0.25500000000E-02 0.  1.
         -2   -1    0    0    0  501 -0.00000000000E+00 -0.00000000000E+00 -0.19098517512E+02  0.19098517682E+02  0.25500000000E-02 0. -1.
    5000001    1    1    2    0    0 -0.59983036040E+02 -0.16029586515E+03  0.55922098233E+03  0.58987272871E+03  0.77000000000E+02 0.  0.
   -5000001    1    1    2    0    0  0.59983036040E+02  0.16029586515E+03  0.23302486145E+04  0.23377939033E+04  0.77000000000E+02 0.  0.
<mgrwt>
<rscale>  0 0.47137815E+03</rscale>
<asrwt>0</asrwt>
<pdfrwt beam="1">  1        2 0.44747187E+00 0.47137815E+03</pdfrwt>
<pdfrwt beam="2">  1       -2 0.29382344E-02 0.47137815E+03</pdfrwt>
<totfact> 0.10019610E+03</totfact>
</mgrwt>
</event>
<event>
 4    1  0.5980424E-004  0.1718595E+03  0.7818608E-02  0.1175922E+00
         -2   -1    0    0    0  501 -0.00000000000E+00  0.00000000000E+00  0.25901214668E+02  0.25901214794E+02  0.25500000000E-02 0. -1.
          2   -1    0    0  501    0  0.00000000000E+00 -0.00000000000E+00 -0.28508020847E+03  0.28508020849E+03  0.25500000000E-02 0.  1.
    5000001    1    1    2    0    0 -0.45565245549E+01 -0.37552957194E+02 -0.13844263874E+03  0.16286912148E+03  0.77000000000E+02 0.  0.
   -5000001    1    1    2    0    0  0.45565245549E+01  0.37552957194E+02 -0.12073635507E+03  0.14811230180E+03  0.77000000000E+02 0.  0.
<mgrwt>
<rscale>  0 0.17185952E+03</rscale>
<asrwt>0</asrwt>
<pdfrwt beam="1">  1        2 0.43858491E-01 0.17185952E+03</pdfrwt>
<pdfrwt beam="2">  1       -2 0.39848025E-02 0.17185952E+03</pdfrwt>
<totfact> 0.30337527E+04</totfact>
</mgrwt>
</event>
<event>
 4    1  0.5980424E-004  0.2556432E+03  0.7818608E-02  0.1109789E+00
          2   -1    0    0  501    0  0.00000000000E+00  0.00000000000E+00  0.83960389640E+02  0.83960389679E+02  0.25500000000E-02 0.  1.
         -2   -1    0    0    0  501 -0.00000000000E+00 -0.00000000000E+00 -0.19459605506E+03  0.19459605508E+03  0.25500000000E-02 0. -1.
    5000001    1    1    2    0    0  0.93964025497E+01 -0.88477211805E+02 -0.91429312636E+00  0.11767049469E+03  0.77000000000E+02 0.  0.
   -5000001    1    1    2    0    0 -0.93964025497E+01  0.88477211805E+02 -0.10972137230E+03  0.16088595006E+03  0.77000000000E+02 0.  0.
<mgrwt>
<rscale>  0 0.25564319E+03</rscale>
<asrwt>0</asrwt>
<pdfrwt beam="1">  1        2 0.12916983E-01 0.25564319E+03</pdfrwt>
<pdfrwt beam="2">  1       -2 0.29937855E-01 0.25564319E+03</pdfrwt>
<totfact> 0.47446156E+03</totfact>
</mgrwt>
</event>
<event>
 4    1  0.5980424E-004  0.3028120E+03  0.7818608E-02  0.1083843E+00
         -2   -1    0    0    0  501 -0.00000000000E+00  0.00000000000E+00  0.28652630922E+02  0.28652631036E+02  0.25500000000E-02 0. -1.
          2   -1    0    0  501    0  0.00000000000E+00 -0.00000000000E+00 -0.80005825901E+03  0.80005825901E+03  0.25500000000E-02 0.  1.
    5000001    1    1    2    0    0  0.80304803756E+02  0.92957392191E+02 -0.50514528024E+03  0.52553847853E+03  0.77000000000E+02 0.  0.
   -5000001    1    1    2    0    0 -0.80304803756E+02 -0.92957392191E+02 -0.26626034785E+03  0.30317241152E+03  0.77000000000E+02 0.  0.
<mgrwt>
<rscale>  0 0.30281198E+03</rscale>
<asrwt>0</asrwt>
<pdfrwt beam="1">  1        2 0.12308587E+00 0.30281198E+03</pdfrwt>
<pdfrwt beam="2">  1       -2 0.44080977E-02 0.30281198E+03</pdfrwt>
<totfact> 0.84199170E+03</totfact>
</mgrwt>
</event>
<event>
 4    1  0.5980424E-004  0.2082896E+03  0.7818608E-02  0.1142928E+00
          2   -1    0    0  501    0  0.00000000000E+00  0.00000000000E+00  0.24707553035E+04  0.24707553035E+04  0.25500000000E-02 0.  1.
         -2   -1    0    0    0  501 -0.00000000000E+00 -0.00000000000E+00 -0.43898057699E+01  0.43898065105E+01  0.25500000000E-02 0. -1.
    5000001    1    1    2    0    0 -0.25404354047E+02 -0.15390878740E+02  0.19880111826E+04  0.19897235291E+04  0.77000000000E+02 0.  0.
   -5000001    1    1    2    0    0  0.25404354047E+02  0.15390878740E+02  0.47835431517E+03  0.48542158089E+03  0.77000000000E+02 0.  0.
<mgrwt>
<rscale>  0 0.20828958E+03</rscale>
<asrwt>0</asrwt>
<pdfrwt beam="1">  1        2 0.38011569E+00 0.20828958E+03</pdfrwt>
<pdfrwt beam="2">  1       -2 0.67535569E-03 0.20828958E+03</pdfrwt>
<totfact> 0.15582304E+04</totfact>
</mgrwt>
</event>
<event>
 4    1  0.5980424E-004  0.2478568E+03  0.7818608E-02  0.1114667E+00
          2   -1    0    0  501    0  0.00000000000E+00  0.00000000000E+00  0.53160026385E+03  0.53160026386E+03  0.25500000000E-02 0.  1.
         -2   -1    0    0    0  501 -0.00000000000E+00 -0.00000000000E+00 -0.28890584621E+02  0.28890584733E+02  0.25500000000E-02 0. -1.
    5000001    1    1    2    0    0  0.32371334956E+02  0.81864453972E+02  0.15867948063E+03  0.19712399581E+03  0.77000000000E+02 0.  0.
   -5000001    1    1    2    0    0 -0.32371334956E+02 -0.81864453972E+02  0.34403019859E+03  0.36336685278E+03  0.77000000000E+02 0.  0.
<mgrwt>
<rscale>  0 0.24785675E+03</rscale>
<asrwt>0</asrwt>
<pdfrwt beam="1">  1        2 0.81784649E-01 0.24785675E+03</pdfrwt>
<pdfrwt beam="2">  1       -2 0.44447057E-02 0.24785675E+03</pdfrwt>
<totfact> 0.13439748E+04</totfact>
</mgrwt>
</event>
<event>
 4    1  0.5980424E-004  0.2274565E+03  0.7818608E-02  0.1128443E+00
          2   -1    0    0  501    0  0.00000000000E+00  0.00000000000E+00  0.19862025445E+04  0.19862025445E+04  0.25500000000E-02 0.  1.
         -2   -1    0    0    0  501 -0.00000000000E+00 -0.00000000000E+00 -0.65119797961E+01  0.65119802953E+01  0.25500000000E-02 0. -1.
    5000001    1    1    2    0    0  0.51270760166E+01  0.33899011194E+02  0.16587576197E+04  0.16608977304E+04  0.77000000000E+02 0.  0.
   -5000001    1    1    2    0    0 -0.51270760166E+01 -0.33899011194E+02  0.32093294501E+03  0.33181679442E+03  0.77000000000E+02 0.  0.
<mgrwt>
<rscale>  0 0.22745647E+03</rscale>
<asrwt>0</asrwt>
<pdfrwt beam="1">  1        2 0.30556994E+00 0.22745647E+03</pdfrwt>
<pdfrwt beam="2">  1       -2 0.10018420E-02 0.22745647E+03</pdfrwt>
<totfact> 0.15975143E+04</totfact>
</mgrwt>
</event>
<event>
 4    1  0.5980424E-004  0.4669123E+03  0.7818608E-02  0.1022795E+00
         -2   -1    0    0    0  501 -0.00000000000E+00  0.00000000000E+00  0.35548814154E+02  0.35548814245E+02  0.25500000000E-02 0. -1.
          2   -1    0    0  501    0  0.00000000000E+00 -0.00000000000E+00 -0.15331530940E+04  0.15331530940E+04  0.25500000000E-02 0.  1.
    5000001    1    1    2    0    0 -0.13887839536E+03 -0.16926480818E+03 -0.66414010173E+03  0.70352601850E+03  0.77000000000E+02 0.  0.
   -5000001    1    1    2    0    0  0.13887839536E+03  0.16926480818E+03 -0.83346417808E+03  0.86517588971E+03  0.77000000000E+02 0.  0.
<mgrwt>
<rscale>  0 0.46691230E+03</rscale>
<asrwt>0</asrwt>
<pdfrwt beam="1">  1        2 0.23586966E+00 0.46691230E+03</pdfrwt>
<pdfrwt beam="2">  1       -2 0.54690495E-02 0.46691230E+03</pdfrwt>
<totfact> 0.22259280E+03</totfact>
</mgrwt>
</event>
<event>
 4    1  0.5980424E-004  0.4347114E+03  0.7818608E-02  0.1032382E+00
          2   -1    0    0  501    0  0.00000000000E+00  0.00000000000E+00  0.18617551999E+04  0.18617551999E+04  0.25500000000E-02 0.  1.
         -2   -1    0    0    0  501 -0.00000000000E+00 -0.00000000000E+00 -0.25375785755E+02  0.25375785883E+02  0.25500000000E-02 0. -1.
    5000001    1    1    2    0    0  0.12622489312E+03  0.87751834794E+02  0.34094594112E+03  0.38184583658E+03  0.77000000000E+02 0.  0.
   -5000001    1    1    2    0    0 -0.12622489312E+03 -0.87751834794E+02  0.14954334730E+04  0.15052851492E+04  0.77000000000E+02 0.  0.
<mgrwt>
<rscale>  0 0.43471140E+03</rscale>
<asrwt>0</asrwt>
<pdfrwt beam="1">  1        2 0.28642385E+00 0.43471140E+03</pdfrwt>
<pdfrwt beam="2">  1       -2 0.39039674E-02 0.43471140E+03</pdfrwt>
<totfact> 0.24886461E+03</totfact>
</mgrwt>
</event>
<event>
 4    1  0.5980424E-004  0.2282047E+03  0.7818608E-02  0.1127910E+00
          2   -1    0    0  501    0  0.00000000000E+00  0.00000000000E+00  0.55456966767E+03  0.55456966767E+03  0.25500000000E-02 0.  1.
         -2   -1    0    0    0  501 -0.00000000000E+00 -0.00000000000E+00 -0.23476479563E+02  0.23476479701E+02  0.25500000000E-02 0. -1.
    5000001    1    1    2    0    0 -0.61897874501E+02 -0.40076736973E+02  0.16256610985E+03  0.19440738614E+03  0.77000000000E+02 0.  0.
   -5000001    1    1    2    0    0  0.61897874501E+02  0.40076736973E+02  0.36852707826E+03  0.38363876124E+03  0.77000000000E+02 0.  0.
<mgrwt>
<rscale>  0 0.22820468E+03</rscale>
<asrwt>0</asrwt>
<pdfrwt beam="1">  1        2 0.85318413E-01 0.22820468E+03</pdfrwt>
<pdfrwt beam="2">  1       -2 0.36117660E-02 0.22820468E+03</pdfrwt>
<totfact> 0.17416595E+04</totfact>
</mgrwt>
</event>
<event>
 4    1  0.5980424E-004  0.2621505E+03  0.7818608E-02  0.1105858E+00
          2   -1    0    0  501    0  0.00000000000E+00  0.00000000000E+00  0.82539459523E+03  0.82539459524E+03  0.25500000000E-02 0.  1.
         -2   -1    0    0    0  501 -0.00000000000E+00 -0.00000000000E+00 -0.20815167627E+02  0.20815167783E+02  0.25500000000E-02 0. -1.
    5000001    1    1    2    0    0  0.40525104746E+02  0.87701589699E+02  0.54365321775E+03  0.55751383312E+03  0.77000000000E+02 0.  0.
   -5000001    1    1    2    0    0 -0.40525104746E+02 -0.87701589699E+02  0.26092620985E+03  0.28869592990E+03  0.77000000000E+02 0.  0.
<mgrwt>
<rscale>  0 0.26215054E+03</rscale>
<asrwt>0</asrwt>
<pdfrwt beam="1">  1        2 0.12698376E+00 0.26215054E+03</pdfrwt>
<pdfrwt beam="2">  1       -2 0.32023340E-02 0.26215054E+03</pdfrwt>
<totfact> 0.13011492E+04</totfact>
</mgrwt>
</event>
<event>
 4    1  0.5980424E-004  0.3544774E+03  0.7818608E-02  0.1060792E+00
          2   -1    0    0  501    0  0.00000000000E+00  0.00000000000E+00  0.13510469248E+03  0.13510469250E+03  0.25500000000E-02 0.  1.
         -2   -1    0    0    0  501 -0.00000000000E+00 -0.00000000000E+00 -0.23251264846E+03  0.23251264848E+03  0.25500000000E-02 0. -1.
    5000001    1    1    2    0    0 -0.13028942829E+03 -0.90960451070E+02 -0.32792118082E+02  0.17959248812E+03  0.77000000000E+02 0.  0.
   -5000001    1    1    2    0    0  0.13028942829E+03  0.90960451070E+02 -0.64615837905E+02  0.18802485285E+03  0.77000000000E+02 0.  0.
<mgrwt>
<rscale>  0 0.35447736E+03</rscale>
<asrwt>0</asrwt>
<pdfrwt beam="1">  1        2 0.20785337E-01 0.35447736E+03</pdfrwt>
<pdfrwt beam="2">  1       -2 0.35771177E-01 0.35447736E+03</pdfrwt>
<totfact> 0.19679883E+03</totfact>
</mgrwt>
</event>
<event>
 4    1  0.5980424E-004  0.2417736E+03  0.7818608E-02  0.1118617E+00
          2   -1    0    0  501    0  0.00000000000E+00  0.00000000000E+00  0.73304542180E+02  0.73304542225E+02  0.25500000000E-02 0.  1.
         -2   -1    0    0    0  501 -0.00000000000E+00 -0.00000000000E+00 -0.19935483196E+03  0.19935483197E+03  0.25500000000E-02 0. -1.
    5000001    1    1    2    0    0  0.34210008726E+02 -0.80040201633E+02 -0.25488686620E+02  0.11897660157E+03  0.77000000000E+02 0.  0.
   -5000001    1    1    2    0    0 -0.34210008726E+02  0.80040201633E+02 -0.10056160316E+03  0.15368277263E+03  0.77000000000E+02 0.  0.
<mgrwt>
<rscale>  0 0.24177357E+03</rscale>
<asrwt>0</asrwt>
<pdfrwt beam="1">  1        2 0.11277622E-01 0.24177357E+03</pdfrwt>
<pdfrwt beam="2">  1       -2 0.30669974E-01 0.24177357E+03</pdfrwt>
<totfact> 0.53424702E+03</totfact>
</mgrwt>
</event>
<event>
 4    1  0.5980424E-004  0.1896654E+03  0.7818608E-02  0.1158763E+00
          2   -1    0    0  501    0  0.00000000000E+00  0.00000000000E+00  0.27358102682E+04  0.27358102682E+04  0.25500000000E-02 0.  1.
         -2   -1    0    0    0  501 -0.00000000000E+00 -0.00000000000E+00 -0.32872311668E+01  0.32872321559E+01  0.25500000000E-02 0. -1.
    5000001    1    1    2    0    0 -0.55237744581E+02  0.34435989623E+01  0.13506048120E+04  0.13539296233E+04  0.77000000000E+02 0.  0.
   -5000001    1    1    2    0    0  0.55237744581E+02 -0.34435989623E+01  0.13819182251E+04  0.13851678771E+04  0.77000000000E+02 0.  0.
<mgrwt>
<rscale>  0 0.18966541E+03</rscale>
<asrwt>0</asrwt>
<pdfrwt beam="1">  1        2 0.42089457E+00 0.18966541E+03</pdfrwt>
<pdfrwt beam="2">  1       -2 0.50572713E-03 0.18966541E+03</pdfrwt>
<totfact> 0.16820849E+04</totfact>
</mgrwt>
</event>
<event>
 4    1  0.5980424E-004  0.1576431E+03  0.7818608E-02  0.1191384E+00
         -2   -1    0    0    0  501 -0.00000000000E+00  0.00000000000E+00  0.65668449750E+01  0.65668454701E+01  0.25500000000E-02 0. -1.
          2   -1    0    0  501    0  0.00000000000E+00 -0.00000000000E+00 -0.94609194218E+03  0.94609194218E+03  0.25500000000E-02 0.  1.
    5000001    1    1    2    0    0  0.55036088597E+01 -0.15067997386E+02 -0.43865061322E+03  0.44564637857E+03  0.77000000000E+02 0.  0.
   -5000001    1    1    2    0    0 -0.55036088597E+01  0.15067997386E+02 -0.50087448398E+03  0.50701240908E+03  0.77000000000E+02 0.  0.
<mgrwt>
<rscale>  0 0.15764313E+03</rscale>
<asrwt>0</asrwt>
<pdfrwt beam="1">  1        2 0.14555250E+00 0.15764313E+03</pdfrwt>
<pdfrwt beam="2">  1       -2 0.10102846E-02 0.15764313E+03</pdfrwt>
<totfact> 0.56667010E+04</totfact>
</mgrwt>
</event>
<event>
 4    1  0.5980424E-004  0.3420042E+03  0.7818608E-02  0.1065946E+00
         -2   -1    0    0    0  501 -0.00000000000E+00  0.00000000000E+00  0.19807948699E+03  0.19807948700E+03  0.25500000000E-02 0. -1.
          2   -1    0    0  501    0  0.00000000000E+00 -0.00000000000E+00 -0.14762615818E+03  0.14762615820E+03  0.25500000000E-02 0.  1.
    5000001    1    1    2    0    0 -0.30618163093E+02  0.60918511889E+02 -0.11286882198E+03  0.15269874910E+03  0.77000000000E+02 0.  0.
   -5000001    1    1    2    0    0  0.30618163093E+02 -0.60918511889E+02  0.16332215079E+03  0.19300689610E+03  0.77000000000E+02 0.  0.
<mgrwt>
<rscale>  0 0.34200417E+03</rscale>
<asrwt>0</asrwt>
<pdfrwt beam="1">  1        2 0.22711717E-01 0.34200417E+03</pdfrwt>
<pdfrwt beam="2">  1       -2 0.30473767E-01 0.34200417E+03</pdfrwt>
<totfact> 0.23930415E+03</totfact>
</mgrwt>
</event>
<event>
 4    1  0.5980424E-004  0.2833029E+03  0.7818608E-02  0.1093899E+00
          2   -1    0    0  501    0  0.00000000000E+00  0.00000000000E+00  0.69862716049E+03  0.69862716050E+03  0.25500000000E-02 0.  1.
         -2   -1    0    0    0  501 -0.00000000000E+00 -0.00000000000E+00 -0.28720798705E+02  0.28720798818E+02  0.25500000000E-02 0. -1.
    5000001    1    1    2    0    0 -0.18521195516E+02 -0.66142095985E+02  0.85793407831E+02  0.13419135729E+03  0.77000000000E+02 0.  0.
   -5000001    1    1    2    0    0  0.18521195516E+02  0.66142095985E+02  0.58411295396E+03  0.59315660202E+03  0.77000000000E+02 0.  0.
<mgrwt>
<rscale>  0 0.28330288E+03</rscale>
<asrwt>0</asrwt>
<pdfrwt beam="1">  1        2 0.10748109E+00 0.28330288E+03</pdfrwt>
<pdfrwt beam="2">  1       -2 0.44185849E-02 0.28330288E+03</pdfrwt>
<totfact> 0.99122242E+03</totfact>
</mgrwt>
</event>
<event>
 4    1  0.5980424E-004  0.1926553E+03  0.7818608E-02  0.1156088E+00
         -2   -1    0    0    0  501 -0.00000000000E+00  0.00000000000E+00  0.85487550431E+01  0.85487554234E+01  0.25500000000E-02 0. -1.
          2   -1    0    0  501    0  0.00000000000E+00 -0.00000000000E+00 -0.10854228789E+04  0.10854228789E+04  0.25500000000E-02 0.  1.
    5000001    1    1    2    0    0 -0.19950672377E+02  0.12461114084E+02 -0.83873235998E+03  0.84258784727E+03  0.77000000000E+02 0.  0.
   -5000001    1    1    2    0    0  0.19950672377E+02 -0.12461114084E+02 -0.23814176392E+03  0.25138378709E+03  0.77000000000E+02 0.  0.
<mgrwt>
<rscale>  0 0.19265528E+03</rscale>
<asrwt>0</asrwt>
<pdfrwt beam="1">  1        2 0.16698803E+00 0.19265528E+03</pdfrwt>
<pdfrwt beam="2">  1       -2 0.13151940E-02 0.19265528E+03</pdfrwt>
<totfact> 0.32491601E+04</totfact>
</mgrwt>
</event>
<event>
 4    1  0.5980424E-004  0.2273408E+03  0.7818608E-02  0.1128526E+00
          2   -1    0    0  501    0  0.00000000000E+00  0.00000000000E+00  0.15668505752E+03  0.15668505754E+03  0.25500000000E-02 0.  1.
         -2   -1    0    0    0  501 -0.00000000000E+00 -0.00000000000E+00 -0.82464535769E+02  0.82464535808E+02  0.25500000000E-02 0. -1.
    5000001    1    1    2    0    0  0.68661676407E+01 -0.77593308382E+02  0.51323190508E+01  0.10965038287E+03  0.77000000000E+02 0.  0.
   -5000001    1    1    2    0    0 -0.68661676407E+01  0.77593308382E+02  0.69088202703E+02  0.12949921049E+03  0.77000000000E+02 0.  0.
<mgrwt>
<rscale>  0 0.22734081E+03</rscale>
<asrwt>0</asrwt>
<pdfrwt beam="1">  1        2 0.24105393E-01 0.22734081E+03</pdfrwt>
<pdfrwt beam="2">  1       -2 0.12686852E-01 0.22734081E+03</pdfrwt>
<totfact> 0.98991959E+03</totfact>
</mgrwt>
</event>
<event>
 4    1  0.5980424E-004  0.2552340E+03  0.7818608E-02  0.1110041E+00
         -2   -1    0    0    0  501 -0.00000000000E+00  0.00000000000E+00  0.30566445197E+02  0.30566445303E+02  0.25500000000E-02 0. -1.
          2   -1    0    0  501    0  0.00000000000E+00 -0.00000000000E+00 -0.53280958385E+03  0.53280958386E+03  0.25500000000E-02 0.  1.
    5000001    1    1    2    0    0 -0.39014024351E+02 -0.93369131158E+02 -0.27501812075E+03  0.30299151059E+03  0.77000000000E+02 0.  0.
   -5000001    1    1    2    0    0  0.39014024351E+02  0.93369131158E+02 -0.22722501790E+03  0.26038451857E+03  0.77000000000E+02 0.  0.
<mgrwt>
<rscale>  0 0.25523397E+03</rscale>
<asrwt>0</asrwt>
<pdfrwt beam="1">  1        2 0.81970698E-01 0.25523397E+03</pdfrwt>
<pdfrwt beam="2">  1       -2 0.47025304E-02 0.25523397E+03</pdfrwt>
<totfact> 0.12327387E+04</totfact>
</mgrwt>
</event>
<event>
 4    1  0.5980424E-004  0.1705506E+03  0.7818608E-02  0.1177275E+00
          2   -1    0    0  501    0  0.00000000000E+00  0.00000000000E+00  0.18903786048E+02  0.18903786220E+02  0.25500000000E-02 0.  1.
         -2   -1    0    0    0  501 -0.00000000000E+00 -0.00000000000E+00 -0.38467830100E+03  0.38467830100E+03  0.25500000000E-02 0. -1.
    5000001    1    1    2    0    0  0.33362346022E+01  0.35897478513E+02 -0.19842552029E+03  0.21587368188E+03  0.77000000000E+02 0.  0.
   -5000001    1    1    2    0    0 -0.33362346022E+01 -0.35897478513E+02 -0.16734899465E+03  0.18770840534E+03  0.77000000000E+02 0.  0.
<mgrwt>
<rscale>  0 0.17055059E+03</rscale>
<asrwt>0</asrwt>
<pdfrwt beam="1">  1        2 0.29082751E-02 0.17055059E+03</pdfrwt>
<pdfrwt beam="2">  1       -2 0.59181271E-01 0.17055059E+03</pdfrwt>
<totfact> 0.85308937E+03</totfact>
</mgrwt>
</event>
<event>
 4    1  0.5980424E-004  0.2038659E+03  0.7818608E-02  0.1146518E+00
         -2   -1    0    0    0  501 -0.00000000000E+00  0.00000000000E+00  0.27735080563E+02  0.27735080680E+02  0.25500000000E-02 0. -1.
          2   -1    0    0  501    0  0.00000000000E+00 -0.00000000000E+00 -0.37462775648E+03  0.37462775649E+03  0.25500000000E-02 0.  1.
    5000001    1    1    2    0    0  0.39162762966E-01  0.43276533032E+02 -0.27386047068E+03  0.28775235403E+03  0.77000000000E+02 0.  0.
   -5000001    1    1    2    0    0 -0.39162762966E-01 -0.43276533032E+02 -0.73032205238E+02  0.11461048315E+03  0.77000000000E+02 0.  0.
<mgrwt>
<rscale>  0 0.20386595E+03</rscale>
<asrwt>0</asrwt>
<pdfrwt beam="1">  1        2 0.57635036E-01 0.20386595E+03</pdfrwt>
<pdfrwt beam="2">  1       -2 0.42669358E-02 0.20386595E+03</pdfrwt>
<totfact> 0.20735356E+04</totfact>
</mgrwt>
</event>
<event>
 4    1  0.5980424E-004  0.7456344E+03  0.7818608E-02  0.9642224E-01
         -2   -1    0    0    0  501 -0.00000000000E+00  0.00000000000E+00  0.33694236324E+03  0.33694236325E+03  0.25500000000E-02 0. -1.
          2   -1    0    0  501    0  0.00000000000E+00 -0.00000000000E+00 -0.41251164268E+03  0.41251164269E+03  0.25500000000E-02 0.  1.
    5000001    1    1    2    0    0  0.16573199919E+03  0.29238471469E+03 -0.18031277620E+03  0.38909846338E+03  0.77000000000E+02 0.  0.
   -5000001    1    1    2    0    0 -0.16573199919E+03 -0.29238471469E+03  0.10474349676E+03  0.36035554256E+03  0.77000000000E+02 0.  0.
<mgrwt>
<rscale>  0 0.74563435E+03</rscale>
<asrwt>0</asrwt>
<pdfrwt beam="1">  1        2 0.63463330E-01 0.74563435E+03</pdfrwt>
<pdfrwt beam="2">  1       -2 0.51837286E-01 0.74563435E+03</pdfrwt>
<totfact> 0.27221127E+02</totfact>
</mgrwt>
</event>
<event>
 4    1  0.5980424E-004  0.2208114E+03  0.7818608E-02  0.1133280E+00
          2   -1    0    0  501    0  0.00000000000E+00  0.00000000000E+00  0.37797565020E+04  0.37797565020E+04  0.25500000000E-02 0.  1.
         -2   -1    0    0    0  501 -0.00000000000E+00 -0.00000000000E+00 -0.32249219096E+01  0.32249229178E+01  0.25500000000E-02 0. -1.
    5000001    1    1    2    0    0 -0.71178909317E+02 -0.24447085069E+01  0.24787690511E+04  0.24809871870E+04  0.77000000000E+02 0.  0.
   -5000001    1    1    2    0    0  0.71178909317E+02  0.24447085069E+01  0.12977625291E+04  0.13019942379E+04  0.77000000000E+02 0.  0.
<mgrwt>
<rscale>  0 0.22081143E+03</rscale>
<asrwt>0</asrwt>
<pdfrwt beam="1">  1        2 0.58150271E+00 0.22081143E+03</pdfrwt>
<pdfrwt beam="2">  1       -2 0.49614045E-03 0.22081143E+03</pdfrwt>
<totfact> 0.38512927E+03</totfact>
</mgrwt>
</event>
<event>
 4    1  0.5980424E-004  0.2424297E+03  0.7818608E-02  0.1118185E+00
          2   -1    0    0  501    0  0.00000000000E+00  0.00000000000E+00  0.10384102218E+04  0.10384102218E+04  0.25500000000E-02 0. -1.
         -2   -1    0    0    0  501 -0.00000000000E+00 -0.00000000000E+00 -0.14149548194E+02  0.14149548424E+02  0.25500000000E-02 0.  1.
    5000001    1    1    2    0    0 -0.65454199062E+02  0.60677413902E+02  0.63478157577E+03  0.64563352582E+03  0.77000000000E+02 0.  0.
   -5000001    1    1    2    0    0  0.65454199062E+02 -0.60677413902E+02  0.38947909785E+03  0.40692624441E+03  0.77000000000E+02 0.  0.
<mgrwt>
<rscale>  0 0.24242966E+03</rscale>
<asrwt>0</asrwt>
<pdfrwt beam="1">  1        2 0.15975546E+00 0.24242966E+03</pdfrwt>
<pdfrwt beam="2">  1       -2 0.21768530E-02 0.24242966E+03</pdfrwt>
<totfact> 0.16822630E+04</totfact>
</mgrwt>
</event>
<event>
 4    1  0.5980424E-004  0.2298664E+03  0.7818608E-02  0.1126734E+00
          2   -1    0    0  501    0  0.00000000000E+00  0.00000000000E+00  0.34663422363E+03  0.34663422364E+03  0.25500000000E-02 0.  1.
         -2   -1    0    0    0  501 -0.00000000000E+00 -0.00000000000E+00 -0.38108282149E+02  0.38108282235E+02  0.25500000000E-02 0. -1.
    5000001    1    1    2    0    0  0.53146587266E+02  0.39746496615E+02  0.24402882854E+03  0.26435471036E+03  0.77000000000E+02 0.  0.
   -5000001    1    1    2    0    0 -0.53146587266E+02 -0.39746496615E+02  0.64497112944E+02  0.12038779552E+03  0.77000000000E+02 0.  0.
<mgrwt>
<rscale>  0 0.22986635E+03</rscale>
<asrwt>0</asrwt>
<pdfrwt beam="1">  1        2 0.53328340E-01 0.22986635E+03</pdfrwt>
<pdfrwt beam="2">  1       -2 0.58628129E-02 0.22986635E+03</pdfrwt>
<totfact> 0.14042482E+04</totfact>
</mgrwt>
</event>
<event>
 4    1  0.5980424E-004  0.2950635E+03  0.7818608E-02  0.1087735E+00
         -2   -1    0    0    0  501 -0.00000000000E+00  0.00000000000E+00  0.18158646552E+03  0.18158646554E+03  0.25500000000E-02 0. -1.
          2   -1    0    0  501    0  0.00000000000E+00 -0.00000000000E+00 -0.11986364934E+03  0.11986364937E+03  0.25500000000E-02 0.  1.
    5000001    1    1    2    0    0 -0.10546991111E+03  0.18804982668E+02 -0.36591043110E+02  0.13691396553E+03  0.77000000000E+02 0.  0.
   -5000001    1    1    2    0    0  0.10546991111E+03 -0.18804982668E+02  0.98313859289E+02  0.16453614937E+03  0.77000000000E+02 0.  0.
<mgrwt>
<rscale>  0 0.29506349E+03</rscale>
<asrwt>0</asrwt>
<pdfrwt beam="1">  1        2 0.18440561E-01 0.29506349E+03</pdfrwt>
<pdfrwt beam="2">  1       -2 0.27936379E-01 0.29506349E+03</pdfrwt>
<totfact> 0.35462008E+03</totfact>
</mgrwt>
</event>
<event>
 4    1  0.5980424E-004  0.2288908E+03  0.7818608E-02  0.1127423E+00
         -2   -1    0    0    0  501 -0.00000000000E+00  0.00000000000E+00  0.91917827522E+03  0.91917827522E+03  0.25500000000E-02 0. -1.
          2   -1    0    0  501    0  0.00000000000E+00 -0.00000000000E+00 -0.14249409755E+02  0.14249409983E+02  0.25500000000E-02 0.  1.
    5000001    1    1    2    0    0 -0.65100345375E+02 -0.23559858328E+02  0.65123011824E+03  0.65941094076E+03  0.77000000000E+02 0.  0.
   -5000001    1    1    2    0    0  0.65100345375E+02  0.23559858328E+02  0.25369874722E+03  0.27401674444E+03  0.77000000000E+02 0.  0.
<mgrwt>
<rscale>  0 0.22889079E+03</rscale>
<asrwt>0</asrwt>
<pdfrwt beam="1">  1        2 0.21922164E-02 0.22889079E+03</pdfrwt>
<pdfrwt beam="2">  1       -2 0.14141207E+00 0.22889079E+03</pdfrwt>
<totfact> 0.17643675E+03</totfact>
</mgrwt>
</event>
<event>
 4    1  0.5980424E-004  0.3294528E+03  0.7818608E-02  0.1071379E+00
         -2   -1    0    0    0  501 -0.00000000000E+00  0.00000000000E+00  0.85088664076E+02  0.85088664114E+02  0.25500000000E-02 0. -1.
          2   -1    0    0  501    0  0.00000000000E+00 -0.00000000000E+00 -0.31890005262E+03  0.31890005263E+03  0.25500000000E-02 0.  1.
    5000001    1    1    2    0    0  0.14410025961E+03 -0.16401455309E+02 -0.13298241569E+03  0.21129887704E+03  0.77000000000E+02 0.  0.
   -5000001    1    1    2    0    0 -0.14410025961E+03  0.16401455309E+02 -0.10082897286E+03  0.19268983970E+03  0.77000000000E+02 0.  0.
<mgrwt>
<rscale>  0 0.32945276E+03</rscale>
<asrwt>0</asrwt>
<pdfrwt beam="1">  1        2 0.49061546E-01 0.32945276E+03</pdfrwt>
<pdfrwt beam="2">  1       -2 0.13090564E-01 0.32945276E+03</pdfrwt>
<totfact> 0.43930451E+03</totfact>
</mgrwt>
</event>
<event>
 4    1  0.5980424E-004  0.1650435E+03  0.7818608E-02  0.1183118E+00
         -2   -1    0    0    0  501 -0.00000000000E+00  0.00000000000E+00  0.93204439440E+03  0.93204439440E+03  0.25500000000E-02 0. -1.
          2   -1    0    0  501    0  0.00000000000E+00 -0.00000000000E+00 -0.73063441022E+01  0.73063445472E+01  0.25500000000E-02 0.  1.
    5000001    1    1    2    0    0 -0.89071038061E+01  0.16157734590E+02  0.33005725004E+03  0.33942185727E+03  0.77000000000E+02 0.  0.
   -5000001    1    1    2    0    0  0.89071038061E+01 -0.16157734590E+02  0.59468080025E+03  0.59992888168E+03  0.77000000000E+02 0.  0.
<mgrwt>
<rscale>  0 0.16504348E+03</rscale>
<asrwt>0</asrwt>
<pdfrwt beam="1">  1        2 0.11240539E-02 0.16504348E+03</pdfrwt>
<pdfrwt beam="2">  1       -2 0.14339132E+00 0.16504348E+03</pdfrwt>
<totfact> 0.41996646E+03</totfact>
</mgrwt>
</event>
<event>
 4    1  0.5980424E-004  0.3150460E+03  0.7818608E-02  0.1077952E+00
         -2   -1    0    0    0  501 -0.00000000000E+00  0.00000000000E+00  0.33019281526E+02  0.33019281625E+02  0.25500000000E-02 0. -1.
          2   -1    0    0  501    0  0.00000000000E+00 -0.00000000000E+00 -0.75148513131E+03  0.75148513132E+03  0.25500000000E-02 0.  1.
    5000001    1    1    2    0    0  0.12601067365E+03  0.24222978309E+02 -0.48170706653E+03  0.50441663384E+03  0.77000000000E+02 0.  0.
   -5000001    1    1    2    0    0 -0.12601067365E+03 -0.24222978309E+02 -0.23675878326E+03  0.28008777910E+03  0.77000000000E+02 0.  0.
<mgrwt>
<rscale>  0 0.31504602E+03</rscale>
<asrwt>0</asrwt>
<pdfrwt beam="1">  1        2 0.11561308E+00 0.31504602E+03</pdfrwt>
<pdfrwt beam="2">  1       -2 0.50798900E-02 0.31504602E+03</pdfrwt>
<totfact> 0.73531176E+03</totfact>
</mgrwt>
</event>
<event>
 4    1  0.5980424E-004  0.2031876E+03  0.7818608E-02  0.1147077E+00
         -2   -1    0    0    0  501 -0.00000000000E+00  0.00000000000E+00  0.32110068343E+03  0.32110068344E+03  0.25500000000E-02 0. -1.
          2   -1    0    0  501    0  0.00000000000E+00 -0.00000000000E+00 -0.32143501403E+02  0.32143501504E+02  0.25500000000E-02 0.  1.
    5000001    1    1    2    0    0 -0.55835948681E+02  0.33044231620E+02  0.12097805060E+03  0.15739842165E+03  0.77000000000E+02 0.  0.
   -5000001    1    1    2    0    0  0.55835948681E+02 -0.33044231620E+02  0.16797913142E+03  0.19584576330E+03  0.77000000000E+02 0.  0.
<mgrwt>
<rscale>  0 0.20318760E+03</rscale>
<asrwt>0</asrwt>
<pdfrwt beam="1">  1        2 0.49451539E-02 0.20318760E+03</pdfrwt>
<pdfrwt beam="2">  1       -2 0.49400107E-01 0.20318760E+03</pdfrwt>
<totfact> 0.61221769E+03</totfact>
</mgrwt>
</event>
<event>
 4    1  0.5980424E-004  0.2296068E+03  0.7818608E-02  0.1126917E+00
         -2   -1    0    0    0  501 -0.00000000000E+00  0.00000000000E+00  0.17048309026E+02  0.17048309216E+02  0.25500000000E-02 0. -1.
          2   -1    0    0  501    0  0.00000000000E+00 -0.00000000000E+00 -0.77308674847E+03  0.77308674847E+03  0.25500000000E-02 0.  1.
    5000001    1    1    2    0    0  0.28947389998E+02  0.79731574951E+02 -0.35232561009E+03  0.37048267295E+03  0.77000000000E+02 0.  0.
   -5000001    1    1    2    0    0 -0.28947389998E+02 -0.79731574951E+02 -0.40371282935E+03  0.41965238473E+03  0.77000000000E+02 0.  0.
<mgrwt>
<rscale>  0 0.22960681E+03</rscale>
<asrwt>0</asrwt>
<pdfrwt beam="1">  1        2 0.11893639E+00 0.22960681E+03</pdfrwt>
<pdfrwt beam="2">  1       -2 0.26228174E-02 0.22960681E+03</pdfrwt>
<totfact> 0.18894348E+04</totfact>
</mgrwt>
</event>
<event>
 4    1  0.5980424E-004  0.2090986E+03  0.7818608E-02  0.1142282E+00
         -2   -1    0    0    0  501 -0.00000000000E+00  0.00000000000E+00  0.13699306029E+02  0.13699306267E+02  0.25500000000E-02 0. -1.
          2   -1    0    0  501    0  0.00000000000E+00 -0.00000000000E+00 -0.79789104748E+03  0.79789104749E+03  0.25500000000E-02 0.  1.
    5000001    1    1    2    0    0 -0.67521862568E+02 -0.20841965786E+02 -0.38114222052E+03  0.39521131275E+03  0.77000000000E+02 0.  0.
   -5000001    1    1    2    0    0  0.67521862568E+02  0.20841965786E+02 -0.40304952094E+03  0.41637904101E+03  0.77000000000E+02 0.  0.
<mgrwt>
<rscale>  0 0.20909858E+03</rscale>
<asrwt>0</asrwt>
<pdfrwt beam="1">  1        2 0.12275243E+00 0.20909858E+03</pdfrwt>
<pdfrwt beam="2">  1       -2 0.21075862E-02 0.20909858E+03</pdfrwt>
<totfact> 0.24912946E+04</totfact>
</mgrwt>
</event>
<event>
 4    1  0.5980424E-004  0.2660944E+03  0.7818608E-02  0.1103536E+00
          2   -1    0    0  501    0  0.00000000000E+00  0.00000000000E+00  0.32590361347E+03  0.32590361348E+03  0.25500000000E-02 0.  1.
         -2   -1    0    0    0  501 -0.00000000000E+00 -0.00000000000E+00 -0.54315313764E+02  0.54315313824E+02  0.25500000000E-02 0. -1.
    5000001    1    1    2    0    0 -0.52099535451E+02 -0.48662178046E+02  0.18920351419E+02  0.10662714881E+03  0.77000000000E+02 0.  0.
   -5000001    1    1    2    0    0  0.52099535451E+02  0.48662178046E+02  0.25266794829E+03  0.27359177849E+03  0.77000000000E+02 0.  0.
<mgrwt>
<rscale>  0 0.26609440E+03</rscale>
<asrwt>0</asrwt>
<pdfrwt beam="1">  1        2 0.50139018E-01 0.26609440E+03</pdfrwt>
<pdfrwt beam="2">  1       -2 0.83562021E-02 0.26609440E+03</pdfrwt>
<totfact> 0.87368454E+03</totfact>
</mgrwt>
</event>
<event>
 4    1  0.5980424E-004  0.2807562E+03  0.7818608E-02  0.1095277E+00
         -2   -1    0    0    0  501 -0.00000000000E+00  0.00000000000E+00  0.64477467742E+03  0.64477467742E+03  0.25500000000E-02 0. -1.
          2   -1    0    0  501    0  0.00000000000E+00 -0.00000000000E+00 -0.30562626339E+02  0.30562626445E+02  0.25500000000E-02 0.  1.
    5000001    1    1    2    0    0 -0.80196192889E+02  0.47513676658E+02  0.13552620876E+03  0.18161864465E+03  0.77000000000E+02 0.  0.
   -5000001    1    1    2    0    0  0.80196192889E+02 -0.47513676658E+02  0.47868584232E+03  0.49371865922E+03  0.77000000000E+02 0.  0.
<mgrwt>
<rscale>  0 0.28075618E+03</rscale>
<asrwt>0</asrwt>
<pdfrwt beam="1">  1        2 0.47019430E-02 0.28075618E+03</pdfrwt>
<pdfrwt beam="2">  1       -2 0.99196095E-01 0.28075618E+03</pdfrwt>
<totfact> 0.14910539E+03</totfact>
</mgrwt>
</event>
<event>
 4    1  0.5980424E-004  0.1658694E+03  0.7818608E-02  0.1182225E+00
         -2   -1    0    0    0  501 -0.00000000000E+00  0.00000000000E+00  0.83839787130E+02  0.83839787169E+02  0.25500000000E-02 0. -1.
          2   -1    0    0  501    0  0.00000000000E+00 -0.00000000000E+00 -0.82039406775E+02  0.82039406814E+02  0.25500000000E-02 0.  1.
    5000001    1    1    2    0    0  0.30344752638E+02  0.35538096272E+01 -0.30665067883E+01  0.82896544195E+02  0.77000000000E+02 0.  0.
   -5000001    1    1    2    0    0 -0.30344752638E+02 -0.35538096272E+01  0.48668871436E+01  0.82982649789E+02  0.77000000000E+02 0.  0.
<mgrwt>
<rscale>  0 0.16586942E+03</rscale>
<asrwt>0</asrwt>
<pdfrwt beam="1">  1        2 0.12621447E-01 0.16586942E+03</pdfrwt>
<pdfrwt beam="2">  1       -2 0.12898429E-01 0.16586942E+03</pdfrwt>
<totfact> 0.19928176E+04</totfact>
</mgrwt>
</event>
<event>
 4    1  0.5980424E-004  0.3437130E+03  0.7818608E-02  0.1065225E+00
          2   -1    0    0  501    0  0.00000000000E+00  0.00000000000E+00  0.20114700018E+03  0.20114700020E+03  0.25500000000E-02 0.  1.
         -2   -1    0    0    0  501 -0.00000000000E+00 -0.00000000000E+00 -0.14683121389E+03  0.14683121391E+03  0.25500000000E-02 0. -1.
    5000001    1    1    2    0    0  0.10112172554E+03 -0.18740215387E+02 -0.88402571491E+02  0.15595131835E+03  0.77000000000E+02 0.  0.
   -5000001    1    1    2    0    0 -0.10112172554E+03  0.18740215387E+02  0.14271835778E+03  0.19202689576E+03  0.77000000000E+02 0.  0.
<mgrwt>
<rscale>  0 0.34371301E+03</rscale>
<asrwt>0</asrwt>
<pdfrwt beam="1">  1        2 0.30945693E-01 0.34371301E+03</pdfrwt>
<pdfrwt beam="2">  1       -2 0.22589417E-01 0.34371301E+03</pdfrwt>
<totfact> 0.28912365E+03</totfact>
</mgrwt>
</event>
<event>
 4    1  0.5980424E-004  0.2452171E+03  0.7818608E-02  0.1116365E+00
         -2   -1    0    0    0  501 -0.00000000000E+00  0.00000000000E+00  0.15080799551E+02  0.15080799767E+02  0.25500000000E-02 0. -1.
          2   -1    0    0  501    0  0.00000000000E+00 -0.00000000000E+00 -0.99682106471E+03  0.99682106472E+03  0.25500000000E-02 0.  1.
    5000001    1    1    2    0    0  0.14723428131E+02 -0.75768784642E+02 -0.72233162750E+03  0.73051329088E+03  0.77000000000E+02 0.  0.
   -5000001    1    1    2    0    0 -0.14723428131E+02  0.75768784642E+02 -0.25940863766E+03  0.28138857361E+03  0.77000000000E+02 0.  0.
<mgrwt>
<rscale>  0 0.24521712E+03</rscale>
<asrwt>0</asrwt>
<pdfrwt beam="1">  1        2 0.15335704E+00 0.24521712E+03</pdfrwt>
<pdfrwt beam="2">  1       -2 0.23201238E-02 0.24521712E+03</pdfrwt>
<totfact> 0.16237783E+04</totfact>
</mgrwt>
</event>
<event>
 4    1  0.5980424E-004  0.2559537E+03  0.7818608E-02  0.1109599E+00
         -2   -1    0    0    0  501 -0.00000000000E+00  0.00000000000E+00  0.39559244804E+02  0.39559244886E+02  0.25500000000E-02 0. -1.
          2   -1    0    0  501    0  0.00000000000E+00 -0.00000000000E+00 -0.41401376996E+03  0.41401376997E+03  0.25500000000E-02 0.  1.
    5000001    1    1    2    0    0  0.86302072385E+02  0.52867101043E+02 -0.21266734575E+03  0.24778897881E+03  0.77000000000E+02 0.  0.
   -5000001    1    1    2    0    0 -0.86302072385E+02 -0.52867101043E+02 -0.16178717940E+03  0.20578403604E+03  0.77000000000E+02 0.  0.
<mgrwt>
<rscale>  0 0.25595368E+03</rscale>
<asrwt>0</asrwt>
<pdfrwt beam="1">  1        2 0.63694423E-01 0.25595368E+03</pdfrwt>
<pdfrwt beam="2">  1       -2 0.60860380E-02 0.25595368E+03</pdfrwt>
<totfact> 0.11005545E+04</totfact>
</mgrwt>
</event>
<event>
 4    1  0.5980424E-004  0.2318816E+03  0.7818608E-02  0.1125322E+00
         -2   -1    0    0    0  501 -0.00000000000E+00  0.00000000000E+00  0.13383209965E+02  0.13383210208E+02  0.25500000000E-02 0. -1.
          2   -1    0    0  501    0  0.00000000000E+00 -0.00000000000E+00 -0.10044132222E+04  0.10044132222E+04  0.25500000000E-02 0.  1.
    5000001    1    1    2    0    0 -0.67567429905E+02  0.20957396703E+02 -0.27566868416E+03  0.29483350130E+03  0.77000000000E+02 0.  0.
   -5000001    1    1    2    0    0  0.67567429905E+02 -0.20957396703E+02 -0.71536132810E+03  0.72296293114E+03  0.77000000000E+02 0.  0.
<mgrwt>
<rscale>  0 0.23188164E+03</rscale>
<asrwt>0</asrwt>
<pdfrwt beam="1">  1        2 0.15452505E+00 0.23188164E+03</pdfrwt>
<pdfrwt beam="2">  1       -2 0.20589562E-02 0.23188164E+03</pdfrwt>
<totfact> 0.19100900E+04</totfact>
</mgrwt>
</event>
<event>
 4    1  0.5980424E-004  0.1927349E+03  0.7818608E-02  0.1156017E+00
         -2   -1    0    0    0  501 -0.00000000000E+00  0.00000000000E+00  0.22729367610E+02  0.22729367753E+02  0.25500000000E-02 0. -1.
          2   -1    0    0  501    0  0.00000000000E+00 -0.00000000000E+00 -0.40857665116E+03  0.40857665117E+03  0.25500000000E-02 0.  1.
    5000001    1    1    2    0    0 -0.50088953000E+02 -0.11148540357E+02 -0.13268946204E+03  0.16176738392E+03  0.77000000000E+02 0.  0.
   -5000001    1    1    2    0    0  0.50088953000E+02  0.11148540357E+02 -0.25315782151E+03  0.26953863500E+03  0.77000000000E+02 0.  0.
<mgrwt>
<rscale>  0 0.19273494E+03</rscale>
<asrwt>0</asrwt>
<pdfrwt beam="1">  1        2 0.62857941E-01 0.19273494E+03</pdfrwt>
<pdfrwt beam="2">  1       -2 0.34968261E-02 0.19273494E+03</pdfrwt>
<totfact> 0.25320375E+04</totfact>
</mgrwt>
</event>
<event>
 4    1  0.5980424E-004  0.2172031E+03  0.7818608E-02  0.1135986E+00
         -2   -1    0    0    0  501 -0.00000000000E+00  0.00000000000E+00  0.11310800863E+02  0.11310801150E+02  0.25500000000E-02 0. -1.
          2   -1    0    0  501    0  0.00000000000E+00 -0.00000000000E+00 -0.10427465937E+04  0.10427465937E+04  0.25500000000E-02 0.  1.
    5000001    1    1    2    0    0 -0.43853743468E+02  0.27993033989E+02 -0.24298264334E+03  0.26014673884E+03  0.77000000000E+02 0.  0.
   -5000001    1    1    2    0    0  0.43853743468E+02 -0.27993033989E+02 -0.78845314949E+03  0.79391065600E+03  0.77000000000E+02 0.  0.
<mgrwt>
<rscale>  0 0.21720312E+03</rscale>
<asrwt>0</asrwt>
<pdfrwt beam="1">  1        2 0.16042248E+00 0.21720312E+03</pdfrwt>
<pdfrwt beam="2">  1       -2 0.17401241E-02 0.21720312E+03</pdfrwt>
<totfact> 0.23088943E+04</totfact>
</mgrwt>
</event>
<event>
 4    1  0.5980424E-004  0.4782813E+03  0.7818608E-02  0.1019609E+00
         -2   -1    0    0    0  501 -0.00000000000E+00  0.00000000000E+00  0.75810111322E+03  0.75810111322E+03  0.25500000000E-02 0. -1.
          2   -1    0    0  501    0  0.00000000000E+00 -0.00000000000E+00 -0.75436175943E+02  0.75436175986E+02  0.25500000000E-02 0.  1.
    5000001    1    1    2    0    0 -0.16744638285E+03  0.97124608062E+02  0.54597157337E+03  0.58436755518E+03  0.77000000000E+02 0.  0.
   -5000001    1    1    2    0    0  0.16744638285E+03 -0.97124608062E+02  0.13669336391E+03  0.24916973403E+03  0.77000000000E+02 0.  0.
<mgrwt>
<rscale>  0 0.47828129E+03</rscale>
<asrwt>0</asrwt>
<pdfrwt beam="1">  1        2 0.11605565E-01 0.47828129E+03</pdfrwt>
<pdfrwt beam="2">  1       -2 0.11663095E+00 0.47828129E+03</pdfrwt>
<totfact> 0.31762350E+02</totfact>
</mgrwt>
</event>
<event>
 4    1  0.5980424E-004  0.2546724E+03  0.7818608E-02  0.1110387E+00
          2   -1    0    0  501    0  0.00000000000E+00  0.00000000000E+00  0.71631991645E+03  0.71631991645E+03  0.25500000000E-02 0.  1.
         -2   -1    0    0    0  501 -0.00000000000E+00 -0.00000000000E+00 -0.22635848448E+02  0.22635848592E+02  0.25500000000E-02 0. -1.
    5000001    1    1    2    0    0  0.96253754756E+02 -0.10423985023E+02  0.25921274561E+03  0.28721715174E+03  0.77000000000E+02 0.  0.
   -5000001    1    1    2    0    0 -0.96253754756E+02  0.10423985023E+02  0.43447132239E+03  0.45173861330E+03  0.77000000000E+02 0.  0.
<mgrwt>
<rscale>  0 0.25467241E+03</rscale>
<asrwt>0</asrwt>
<pdfrwt beam="1">  1        2 0.11020306E+00 0.25467241E+03</pdfrwt>
<pdfrwt beam="2">  1       -2 0.34824383E-02 0.25467241E+03</pdfrwt>
<totfact> 0.13694126E+04</totfact>
</mgrwt>
</event>
<event>
 4    1  0.5980424E-004  0.5228170E+03  0.7818608E-02  0.1007989E+00
          2   -1    0    0  501    0  0.00000000000E+00  0.00000000000E+00  0.97211569123E+03  0.97211569124E+03  0.25500000000E-02 0.  1.
         -2   -1    0    0    0  501 -0.00000000000E+00 -0.00000000000E+00 -0.70294507395E+02  0.70294507441E+02  0.25500000000E-02 0. -1.
    5000001    1    1    2    0    0  0.56654874582E+02  0.24068164154E+03  0.37991312788E+03  0.45978300547E+03  0.77000000000E+02 0.  0.
   -5000001    1    1    2    0    0 -0.56654874582E+02 -0.24068164154E+03  0.52190805596E+03  0.58262719320E+03  0.77000000000E+02 0.  0.
<mgrwt>
<rscale>  0 0.52281696E+03</rscale>
<asrwt>0</asrwt>
<pdfrwt beam="1">  1        2 0.14955625E+00 0.52281696E+03</pdfrwt>
<pdfrwt beam="2">  1       -2 0.10814540E-01 0.52281696E+03</pdfrwt>
<totfact> 0.15962537E+03</totfact>
</mgrwt>
</event>
<event>
 4    1  0.5980424E-004  0.4410504E+03  0.7818608E-02  0.1030425E+00
          2   -1    0    0  501    0  0.00000000000E+00  0.00000000000E+00  0.11710317451E+04  0.11710317451E+04  0.25500000000E-02 0.  1.
         -2   -1    0    0    0  501 -0.00000000000E+00 -0.00000000000E+00 -0.41528638515E+02  0.41528638594E+02  0.25500000000E-02 0. -1.
    5000001    1    1    2    0    0 -0.17052896173E+03 -0.72179593054E+02  0.81690995476E+03  0.84116638938E+03  0.77000000000E+02 0.  0.
   -5000001    1    1    2    0    0  0.17052896173E+03  0.72179593054E+02  0.31259315179E+03  0.37139399428E+03  0.77000000000E+02 0.  0.
<mgrwt>
<rscale>  0 0.44105036E+03</rscale>
<asrwt>0</asrwt>
<pdfrwt beam="1">  1        2 0.18015874E+00 0.44105036E+03</pdfrwt>
<pdfrwt beam="2">  1       -2 0.63890209E-02 0.44105036E+03</pdfrwt>
<totfact> 0.27928762E+03</totfact>
</mgrwt>
</event>
<event>
 4    1  0.5980424E-004  0.2735243E+03  0.7818608E-02  0.1099279E+00
         -2   -1    0    0    0  501 -0.00000000000E+00  0.00000000000E+00  0.10377662560E+02  0.10377662873E+02  0.25500000000E-02 0. -1.
          2   -1    0    0  501    0  0.00000000000E+00 -0.00000000000E+00 -0.18023215253E+04  0.18023215254E+04  0.25500000000E-02 0.  1.
    5000001    1    1    2    0    0  0.42308845387E+02 -0.72430391433E+02 -0.13980092756E+04  0.14026386330E+04  0.77000000000E+02 0.  0.
   -5000001    1    1    2    0    0 -0.42308845387E+02  0.72430391433E+02 -0.39393458717E+03  0.41006055525E+03  0.77000000000E+02 0.  0.
<mgrwt>
<rscale>  0 0.27352429E+03</rscale>
<asrwt>0</asrwt>
<pdfrwt beam="1">  1        2 0.27727999E+00 0.27352429E+03</pdfrwt>
<pdfrwt beam="2">  1       -2 0.15965649E-02 0.27352429E+03</pdfrwt>
<totfact> 0.10160313E+04</totfact>
</mgrwt>
</event>
<event>
 4    1  0.5980424E-004  0.3683292E+03  0.7818608E-02  0.1055334E+00
         -2   -1    0    0    0  501 -0.00000000000E+00  0.00000000000E+00  0.16517222010E+03  0.16517222012E+03  0.25500000000E-02 0. -1.
          2   -1    0    0  501    0  0.00000000000E+00 -0.00000000000E+00 -0.20534079361E+03  0.20534079362E+03  0.25500000000E-02 0.  1.
    5000001    1    1    2    0    0 -0.10239599571E+03 -0.85797693499E+02  0.81217366545E+02  0.17427405078E+03  0.77000000000E+02 0.  0.
   -5000001    1    1    2    0    0  0.10239599571E+03  0.85797693499E+02 -0.12138594005E+03  0.19623896297E+03  0.77000000000E+02 0.  0.
<mgrwt>
<rscale>  0 0.36832917E+03</rscale>
<asrwt>0</asrwt>
<pdfrwt beam="1">  1        2 0.31590891E-01 0.36832917E+03</pdfrwt>
<pdfrwt beam="2">  1       -2 0.25411111E-01 0.36832917E+03</pdfrwt>
<totfact> 0.22989191E+03</totfact>
</mgrwt>
</event>
<event>
 4    1  0.5980424E-004  0.1729850E+03  0.7818608E-02  0.1174770E+00
         -2   -1    0    0    0  501 -0.00000000000E+00  0.00000000000E+00  0.26554250319E+02  0.26554250441E+02  0.25500000000E-02 0. -1.
          2   -1    0    0  501    0  0.00000000000E+00 -0.00000000000E+00 -0.28172320188E+03  0.28172320189E+03  0.25500000000E-02 0.  1.
    5000001    1    1    2    0    0 -0.30290584931E+02  0.25050498925E+02 -0.13226616316E+03  0.15801387581E+03  0.77000000000E+02 0.  0.
   -5000001    1    1    2    0    0  0.30290584931E+02 -0.25050498925E+02 -0.12290278840E+03  0.15026357652E+03  0.77000000000E+02 0.  0.
<mgrwt>
<rscale>  0 0.17298495E+03</rscale>
<asrwt>0</asrwt>
<pdfrwt beam="1">  1        2 0.43342029E-01 0.17298495E+03</pdfrwt>
<pdfrwt beam="2">  1       -2 0.40852695E-02 0.17298495E+03</pdfrwt>
<totfact> 0.29619199E+04</totfact>
</mgrwt>
</event>
<event>
 4    1  0.5980424E-004  0.2686249E+03  0.7818608E-02  0.1102069E+00
         -2   -1    0    0    0  501 -0.00000000000E+00  0.00000000000E+00  0.71369754789E+03  0.71369754789E+03  0.25500000000E-02 0. -1.
          2   -1    0    0  501    0  0.00000000000E+00 -0.00000000000E+00 -0.25276588046E+02  0.25276588175E+02  0.25500000000E-02 0.  1.
    5000001    1    1    2    0    0 -0.21156555081E+02  0.10271503495E+03  0.43598102756E+03  0.45497959802E+03  0.77000000000E+02 0.  0.
   -5000001    1    1    2    0    0  0.21156555081E+02 -0.10271503495E+03  0.25243993229E+03  0.28399453805E+03  0.77000000000E+02 0.  0.
<mgrwt>
<rscale>  0 0.26862494E+03</rscale>
<asrwt>0</asrwt>
<pdfrwt beam="1">  1        2 0.38887058E-02 0.26862494E+03</pdfrwt>
<pdfrwt beam="2">  1       -2 0.10979962E+00 0.26862494E+03</pdfrwt>
<totfact> 0.15119519E+03</totfact>
</mgrwt>
</event>
<event>
 4    1  0.5980424E-004  0.2784703E+03  0.7818608E-02  0.1096527E+00
          2   -1    0    0  501    0  0.00000000000E+00  0.00000000000E+00  0.17265151153E+04  0.17265151153E+04  0.25500000000E-02 0.  1.
         -2   -1    0    0    0  501 -0.00000000000E+00 -0.00000000000E+00 -0.11228645392E+02  0.11228645682E+02  0.25500000000E-02 0. -1.
    5000001    1    1    2    0    0  0.10531429086E+02 -0.11338002780E+03  0.71929876740E+03  0.73231527261E+03  0.77000000000E+02 0.  0.
   -5000001    1    1    2    0    0 -0.10531429086E+02  0.11338002780E+03  0.99598770253E+03  0.10054284884E+04  0.77000000000E+02 0.  0.
<mgrwt>
<rscale>  0 0.27847029E+03</rscale>
<asrwt>0</asrwt>
<pdfrwt beam="1">  1        2 0.26561758E+00 0.27847029E+03</pdfrwt>
<pdfrwt beam="2">  1       -2 0.17274847E-02 0.27847029E+03</pdfrwt>
<totfact> 0.99241355E+03</totfact>
</mgrwt>
</event>
<event>
 4    1  0.5980424E-004  0.2148685E+03  0.7818608E-02  0.1137768E+00
         -2   -1    0    0    0  501 -0.00000000000E+00  0.00000000000E+00  0.10116833654E+02  0.10116833975E+02  0.25500000000E-02 0. -1.
          2   -1    0    0  501    0  0.00000000000E+00 -0.00000000000E+00 -0.11408828561E+04  0.11408828561E+04  0.25500000000E-02 0.  1.
    5000001    1    1    2    0    0  0.20361222349E+02 -0.71814962973E+02 -0.59974737295E+03  0.60926010836E+03  0.77000000000E+02 0.  0.
   -5000001    1    1    2    0    0 -0.20361222349E+02  0.71814962973E+02 -0.53101864945E+03  0.54173958167E+03  0.77000000000E+02 0.  0.
<mgrwt>
<rscale>  0 0.21486854E+03</rscale>
<asrwt>0</asrwt>
<pdfrwt beam="1">  1        2 0.17552034E+00 0.21486854E+03</pdfrwt>
<pdfrwt beam="2">  1       -2 0.15564369E-02 0.21486854E+03</pdfrwt>
<totfact> 0.23790111E+04</totfact>
</mgrwt>
</event>
<event>
 4    1  0.5980424E-004  0.1872951E+03  0.7818608E-02  0.1160924E+00
         -2   -1    0    0    0  501 -0.00000000000E+00  0.00000000000E+00  0.76060790147E+01  0.76060794421E+01  0.25500000000E-02 0. -1.
          2   -1    0    0  501    0  0.00000000000E+00 -0.00000000000E+00 -0.11530074037E+04  0.11530074037E+04  0.25500000000E-02 0.  1.
    5000001    1    1    2    0    0 -0.12036824115E+02 -0.48183369199E+02 -0.69259433746E+03  0.69862897054E+03  0.77000000000E+02 0.  0.
   -5000001    1    1    2    0    0  0.12036824115E+02  0.48183369199E+02 -0.45280698719E+03  0.46198451257E+03  0.77000000000E+02 0.  0.
<mgrwt>
<rscale>  0 0.18729512E+03</rscale>
<asrwt>0</asrwt>
<pdfrwt beam="1">  1        2 0.17738562E+00 0.18729512E+03</pdfrwt>
<pdfrwt beam="2">  1       -2 0.11701670E-02 0.18729512E+03</pdfrwt>
<totfact> 0.35104017E+04</totfact>
</mgrwt>
</event>
<event>
 4    1  0.5980424E-004  0.2384274E+03  0.7818608E-02  0.1120845E+00
          2   -1    0    0  501    0  0.00000000000E+00  0.00000000000E+00  0.21667217879E+02  0.21667218029E+02  0.25500000000E-02 0.  1.
         -2   -1    0    0    0  501 -0.00000000000E+00 -0.00000000000E+00 -0.65591740121E+03  0.65591740121E+03  0.25500000000E-02 0. -1.
    5000001    1    1    2    0    0  0.21373903534E+02 -0.87345553838E+02 -0.27725590877E+03  0.30147293158E+03  0.77000000000E+02 0.  0.
   -5000001    1    1    2    0    0 -0.21373903534E+02  0.87345553838E+02 -0.35699427456E+03  0.37611168766E+03  0.77000000000E+02 0.  0.
<mgrwt>
<rscale>  0 0.23842739E+03</rscale>
<asrwt>0</asrwt>
<pdfrwt beam="1">  1        2 0.33334186E-02 0.23842739E+03</pdfrwt>
<pdfrwt beam="2">  1       -2 0.10091035E+00 0.23842739E+03</pdfrwt>
<totfact> 0.22600123E+03</totfact>
</mgrwt>
</event>
<event>
 4    1  0.5980424E-004  0.2163541E+03  0.7818608E-02  0.1136631E+00
         -2   -1    0    0    0  501 -0.00000000000E+00  0.00000000000E+00  0.45787850772E+01  0.45787857873E+01  0.25500000000E-02 0. -1.
          2   -1    0    0  501    0  0.00000000000E+00 -0.00000000000E+00 -0.25557603686E+04  0.25557603686E+04  0.25500000000E-02 0.  1.
    5000001    1    1    2    0    0 -0.63947615234E+02 -0.16225445127E+01 -0.17608358510E+04  0.17636790593E+04  0.77000000000E+02 0.  0.
   -5000001    1    1    2    0    0  0.63947615234E+02  0.16225445127E+01 -0.79034573251E+03  0.79666009505E+03  0.77000000000E+02 0.  0.
<mgrwt>
<rscale>  0 0.21635414E+03</rscale>
<asrwt>0</asrwt>
<pdfrwt beam="1">  1        2 0.39319276E+00 0.21635414E+03</pdfrwt>
<pdfrwt beam="2">  1       -2 0.70443057E-03 0.21635414E+03</pdfrwt>
<totfact> 0.13194893E+04</totfact>
</mgrwt>
</event>
<event>
 4    1  0.5980424E-004  0.1997477E+03  0.7818608E-02  0.1149952E+00
          2   -1    0    0  501    0  0.00000000000E+00  0.00000000000E+00  0.45382400201E+03  0.45382400202E+03  0.25500000000E-02 0.  1.
         -2   -1    0    0    0  501 -0.00000000000E+00 -0.00000000000E+00 -0.21979405807E+02  0.21979405955E+02  0.25500000000E-02 0. -1.
    5000001    1    1    2    0    0 -0.48746515393E+02 -0.74789392930E+01  0.12023658301E+03  0.15105625836E+03  0.77000000000E+02 0.  0.
   -5000001    1    1    2    0    0  0.48746515393E+02  0.74789392930E+01  0.31160801319E+03  0.32474714961E+03  0.77000000000E+02 0.  0.
<mgrwt>
<rscale>  0 0.19974766E+03</rscale>
<asrwt>0</asrwt>
<pdfrwt beam="1">  1        2 0.69819078E-01 0.19974766E+03</pdfrwt>
<pdfrwt beam="2">  1       -2 0.33814470E-02 0.19974766E+03</pdfrwt>
<totfact> 0.23807698E+04</totfact>
</mgrwt>
</event>
<event>
 4    1  0.5980424E-004  0.1740511E+03  0.7818608E-02  0.1173688E+00
          2   -1    0    0  501    0  0.00000000000E+00  0.00000000000E+00  0.60427213295E+03  0.60427213295E+03  0.25500000000E-02 0.  1.
         -2   -1    0    0    0  501 -0.00000000000E+00 -0.00000000000E+00 -0.12533175969E+02  0.12533176228E+02  0.25500000000E-02 0. -1.
    5000001    1    1    2    0    0 -0.19785536152E+02 -0.24456947397E+02  0.20518381507E+03  0.22140236603E+03  0.77000000000E+02 0.  0.
   -5000001    1    1    2    0    0  0.19785536152E+02  0.24456947397E+02  0.38655514190E+03  0.39540294315E+03  0.77000000000E+02 0.  0.
<mgrwt>
<rscale>  0 0.17405113E+03</rscale>
<asrwt>0</asrwt>
<pdfrwt beam="1">  1        2 0.92964922E-01 0.17405113E+03</pdfrwt>
<pdfrwt beam="2">  1       -2 0.19281814E-02 0.17405113E+03</pdfrwt>
<totfact> 0.39051525E+04</totfact>
</mgrwt>
</event>
<event>
 4    1  0.5980424E-004  0.2239199E+03  0.7818608E-02  0.1130994E+00
         -2   -1    0    0    0  501 -0.00000000000E+00  0.00000000000E+00  0.61363660791E+03  0.61363660792E+03  0.25500000000E-02 0. -1.
          2   -1    0    0  501    0  0.00000000000E+00 -0.00000000000E+00 -0.20427439944E+02  0.20427440103E+02  0.25500000000E-02 0.  1.
    5000001    1    1    2    0    0  0.44650744475E+02 -0.50411454100E+02  0.16774022553E+03  0.19647082976E+03  0.77000000000E+02 0.  0.
   -5000001    1    1    2    0    0 -0.44650744475E+02  0.50411454100E+02  0.42546894244E+03  0.43759321826E+03  0.77000000000E+02 0.  0.
<mgrwt>
<rscale>  0 0.22391985E+03</rscale>
<asrwt>0</asrwt>
<pdfrwt beam="1">  1        2 0.31426831E-02 0.22391985E+03</pdfrwt>
<pdfrwt beam="2">  1       -2 0.94405630E-01 0.22391985E+03</pdfrwt>
<totfact> 0.28453019E+03</totfact>
</mgrwt>
</event>
<event>
 4    1  0.5980424E-004  0.2744937E+03  0.7818608E-02  0.1098735E+00
         -2   -1    0    0    0  501 -0.00000000000E+00  0.00000000000E+00  0.19855127835E+03  0.19855127836E+03  0.25500000000E-02 0. -1.
          2   -1    0    0  501    0  0.00000000000E+00 -0.00000000000E+00 -0.94870703415E+02  0.94870703449E+02  0.25500000000E-02 0.  1.
    5000001    1    1    2    0    0  0.11128754501E+03 -0.16307071583E+02  0.34708231213E+02  0.14065738364E+03  0.77000000000E+02 0.  0.
   -5000001    1    1    2    0    0 -0.11128754501E+03  0.16307071583E+02  0.68972343720E+02  0.15276459818E+03  0.77000000000E+02 0.  0.
<mgrwt>
<rscale>  0 0.27449371E+03</rscale>
<asrwt>0</asrwt>
<pdfrwt beam="1">  1        2 0.14595493E-01 0.27449371E+03</pdfrwt>
<pdfrwt beam="2">  1       -2 0.30546350E-01 0.27449371E+03</pdfrwt>
<totfact> 0.39617729E+03</totfact>
</mgrwt>
</event>
<event>
 4    1  0.5980424E-004  0.2684422E+03  0.7818608E-02  0.1102175E+00
         -2   -1    0    0    0  501 -0.00000000000E+00  0.00000000000E+00  0.10508980532E+02  0.10508980842E+02  0.25500000000E-02 0.  1.
          2   -1    0    0  501    0  0.00000000000E+00 -0.00000000000E+00 -0.17142766399E+04  0.17142766399E+04  0.25500000000E-02 0. -1.
    5000001    1    1    2    0    0  0.18164134173E+02  0.10400277899E+03 -0.65491435318E+03  0.66782357237E+03  0.77000000000E+02 0.  0.
   -5000001    1    1    2    0    0 -0.18164134173E+02 -0.10400277899E+03 -0.10488533061E+04  0.10569620483E+04  0.77000000000E+02 0.  0.
<mgrwt>
<rscale>  0 0.26844217E+03</rscale>
<asrwt>0</asrwt>
<pdfrwt beam="1">  1        2 0.26373465E+00 0.26844217E+03</pdfrwt>
<pdfrwt beam="2">  1       -2 0.16167676E-02 0.26844217E+03</pdfrwt>
<totfact> 0.11092382E+04</totfact>
</mgrwt>
</event>
<event>
 4    1  0.5980424E-004  0.3703084E+03  0.7818608E-02  0.1054575E+00
          2   -1    0    0  501    0  0.00000000000E+00  0.00000000000E+00  0.45349484994E+03  0.45349484995E+03  0.25500000000E-02 0.  1.
         -2   -1    0    0    0  501 -0.00000000000E+00 -0.00000000000E+00 -0.75595313971E+02  0.75595314014E+02  0.25500000000E-02 0. -1.
    5000001    1    1    2    0    0  0.65461249375E+02  0.10234452186E+03  0.22366311763E+02  0.14556382870E+03  0.77000000000E+02 0.  0.
   -5000001    1    1    2    0    0 -0.65461249375E+02 -0.10234452186E+03  0.35553322421E+03  0.38352633526E+03  0.77000000000E+02 0.  0.
<mgrwt>
<rscale>  0 0.37030844E+03</rscale>
<asrwt>0</asrwt>
<pdfrwt beam="1">  1        2 0.69768435E-01 0.37030844E+03</pdfrwt>
<pdfrwt beam="2">  1       -2 0.11630049E-01 0.37030844E+03</pdfrwt>
<totfact> 0.36313118E+03</totfact>
</mgrwt>
</event>
<event>
 4    1  0.5980424E-004  0.2712910E+03  0.7818608E-02  0.1100543E+00
          2   -1    0    0  501    0  0.00000000000E+00  0.00000000000E+00  0.17449663968E+03  0.17449663969E+03  0.25500000000E-02 0.  1.
         -2   -1    0    0    0  501 -0.00000000000E+00 -0.00000000000E+00 -0.10544445651E+03  0.10544445654E+03  0.25500000000E-02 0. -1.
    5000001    1    1    2    0    0 -0.81881336424E+02 -0.72594015464E+02  0.11538924498E+02  0.13430037645E+03  0.77000000000E+02 0.  0.
   -5000001    1    1    2    0    0  0.81881336424E+02  0.72594015464E+02  0.57513258671E+02  0.14564071978E+03  0.77000000000E+02 0.  0.
<mgrwt>
<rscale>  0 0.27129101E+03</rscale>
<asrwt>0</asrwt>
<pdfrwt beam="1">  1        2 0.26845637E-01 0.27129101E+03</pdfrwt>
<pdfrwt beam="2">  1       -2 0.16222224E-01 0.27129101E+03</pdfrwt>
<totfact> 0.59117293E+03</totfact>
</mgrwt>
</event>
<event>
 4    1  0.5980424E-004  0.2599559E+03  0.7818608E-02  0.1107170E+00
         -2   -1    0    0    0  501 -0.00000000000E+00  0.00000000000E+00  0.24955519464E+02  0.24955519594E+02  0.25500000000E-02 0. -1.
          2   -1    0    0  501    0  0.00000000000E+00 -0.00000000000E+00 -0.67697504409E+03  0.67697504410E+03  0.25500000000E-02 0.  1.
    5000001    1    1    2    0    0 -0.86819897614E+02  0.18750728666E+02 -0.47576645406E+03  0.49007346720E+03  0.77000000000E+02 0.  0.
   -5000001    1    1    2    0    0  0.86819897614E+02 -0.18750728666E+02 -0.17625307057E+03  0.21185709648E+03  0.77000000000E+02 0.  0.
<mgrwt>
<rscale>  0 0.25995587E+03</rscale>
<asrwt>0</asrwt>
<pdfrwt beam="1">  1        2 0.10414999E+00 0.25995587E+03</pdfrwt>
<pdfrwt beam="2">  1       -2 0.38393112E-02 0.25995587E+03</pdfrwt>
<totfact> 0.12680991E+04</totfact>
</mgrwt>
</event>
<event>
 4    1  0.5980424E-004  0.2107661E+03  0.7818608E-02  0.1140961E+00
          2   -1    0    0  501    0  0.00000000000E+00  0.00000000000E+00  0.83633640272E+03  0.83633640272E+03  0.25500000000E-02 0.  1.
         -2   -1    0    0    0  501 -0.00000000000E+00 -0.00000000000E+00 -0.13278851743E+02  0.13278851988E+02  0.25500000000E-02 0. -1.
    5000001    1    1    2    0    0  0.12074604067E+02 -0.70916449905E+02  0.40635346638E+03  0.41979409068E+03  0.77000000000E+02 0.  0.
   -5000001    1    1    2    0    0 -0.12074604067E+02  0.70916449905E+02  0.41670408459E+03  0.42982116403E+03  0.77000000000E+02 0.  0.
<mgrwt>
<rscale>  0 0.21076610E+03</rscale>
<asrwt>0</asrwt>
<pdfrwt beam="1">  1        2 0.12866719E+00 0.21076610E+03</pdfrwt>
<pdfrwt beam="2">  1       -2 0.20428995E-02 0.21076610E+03</pdfrwt>
<totfact> 0.24573171E+04</totfact>
</mgrwt>
</event>
<event>
 4    1  0.5980424E-004  0.1753046E+03  0.7818608E-02  0.1172426E+00
          2   -1    0    0  501    0  0.00000000000E+00  0.00000000000E+00  0.13988754891E+03  0.13988754893E+03  0.25500000000E-02 0.  1.
         -2   -1    0    0    0  501 -0.00000000000E+00 -0.00000000000E+00 -0.54922157140E+02  0.54922157199E+02  0.25500000000E-02 0. -1.
    5000001    1    1    2    0    0  0.30641057214E+02  0.76947438835E+01  0.11931168985E+02  0.84079939724E+02  0.77000000000E+02 0.  0.
   -5000001    1    1    2    0    0 -0.30641057214E+02 -0.76947438835E+01  0.73034222783E+02  0.11072976641E+03  0.77000000000E+02 0.  0.
<mgrwt>
<rscale>  0 0.17530460E+03</rscale>
<asrwt>0</asrwt>
<pdfrwt beam="1">  1        2 0.21521161E-01 0.17530460E+03</pdfrwt>
<pdfrwt beam="2">  1       -2 0.84495628E-02 0.17530460E+03</pdfrwt>
<totfact> 0.21039418E+04</totfact>
</mgrwt>
</event>
<event>
 4    1  0.5980424E-004  0.2335680E+03  0.7818608E-02  0.1124153E+00
         -2   -1    0    0    0  501 -0.00000000000E+00  0.00000000000E+00  0.17914435341E+02  0.17914435522E+02  0.25500000000E-02 0. -1.
          2   -1    0    0  501    0  0.00000000000E+00 -0.00000000000E+00 -0.76131348420E+03  0.76131348421E+03  0.25500000000E-02 0.  1.
    5000001    1    1    2    0    0 -0.34797582870E+02 -0.60197329659E+02 -0.19281886528E+03  0.21895822679E+03  0.77000000000E+02 0.  0.
   -5000001    1    1    2    0    0  0.34797582870E+02  0.60197329659E+02 -0.55058018358E+03  0.56026969294E+03  0.77000000000E+02 0.  0.
<mgrwt>
<rscale>  0 0.23356799E+03</rscale>
<asrwt>0</asrwt>
<pdfrwt beam="1">  1        2 0.11712513E+00 0.23356799E+03</pdfrwt>
<pdfrwt beam="2">  1       -2 0.27560676E-02 0.23356799E+03</pdfrwt>
<totfact> 0.17915244E+04</totfact>
</mgrwt>
</event>
<event>
 4    1  0.5980424E-004  0.3068155E+03  0.7818608E-02  0.1081882E+00
         -2   -1    0    0    0  501 -0.00000000000E+00  0.00000000000E+00  0.19059812987E+02  0.19059813157E+02  0.25500000000E-02 0. -1.
          2   -1    0    0  501    0  0.00000000000E+00 -0.00000000000E+00 -0.12347409294E+04  0.12347409294E+04  0.25500000000E-02 0.  1.
    5000001    1    1    2    0    0  0.11184902314E+03  0.67181085744E+02 -0.50930348686E+03  0.53135914784E+03  0.77000000000E+02 0.  0.
   -5000001    1    1    2    0    0 -0.11184902314E+03 -0.67181085744E+02 -0.70637762957E+03  0.72244159474E+03  0.77000000000E+02 0.  0.
<mgrwt>
<rscale>  0 0.30681546E+03</rscale>
<asrwt>0</asrwt>
<pdfrwt beam="1">  1        2 0.18996008E+00 0.30681546E+03</pdfrwt>
<pdfrwt beam="2">  1       -2 0.29322799E-02 0.30681546E+03</pdfrwt>
<totfact> 0.83834713E+03</totfact>
</mgrwt>
</event>
<event>
 4    1  0.5980424E-004  0.2655585E+03  0.7818608E-02  0.1103849E+00
          2   -1    0    0  501    0  0.00000000000E+00  0.00000000000E+00  0.68456439545E+03  0.68456439546E+03  0.25500000000E-02 0.  1.
         -2   -1    0    0    0  501 -0.00000000000E+00 -0.00000000000E+00 -0.25754075709E+02  0.25754075836E+02  0.25500000000E-02 0. -1.
    5000001    1    1    2    0    0 -0.51605625071E+02 -0.75968677925E+01  0.58288447006E+03  0.59025770506E+03  0.77000000000E+02 0.  0.
   -5000001    1    1    2    0    0  0.51605625071E+02  0.75968677925E+01  0.75925849679E+02  0.12006076623E+03  0.77000000000E+02 0.  0.
<mgrwt>
<rscale>  0 0.26555846E+03</rscale>
<asrwt>0</asrwt>
<pdfrwt beam="1">  1        2 0.10531759E+00 0.26555846E+03</pdfrwt>
<pdfrwt beam="2">  1       -2 0.39621658E-02 0.26555846E+03</pdfrwt>
<totfact> 0.11944785E+04</totfact>
</mgrwt>
</event>
<event>
 4    1  0.5980424E-004  0.2395251E+03  0.7818608E-02  0.1120110E+00
          2   -1    0    0  501    0  0.00000000000E+00  0.00000000000E+00  0.33808814017E+02  0.33808814113E+02  0.25500000000E-02 0.  1.
         -2   -1    0    0    0  501 -0.00000000000E+00 -0.00000000000E+00 -0.42424053038E+03  0.42424053039E+03  0.25500000000E-02 0. -1.
    5000001    1    1    2    0    0 -0.67468383994E+02  0.60533888067E+02 -0.22210659767E+03  0.25194577823E+03  0.77000000000E+02 0.  0.
   -5000001    1    1    2    0    0  0.67468383994E+02 -0.60533888067E+02 -0.16832511870E+03  0.20610356627E+03  0.77000000000E+02 0.  0.
<mgrwt>
<rscale>  0 0.23952511E+03</rscale>
<asrwt>0</asrwt>
<pdfrwt beam="1">  1        2 0.52013563E-02 0.23952511E+03</pdfrwt>
<pdfrwt beam="2">  1       -2 0.65267770E-01 0.23952511E+03</pdfrwt>
<totfact> 0.32707358E+03</totfact>
</mgrwt>
</event>
<event>
 4    1  0.5980424E-004  0.2109632E+03  0.7818608E-02  0.1140805E+00
         -2   -1    0    0    0  501 -0.00000000000E+00  0.00000000000E+00  0.12064286200E+02  0.12064286469E+02  0.25500000000E-02 0. -1.
          2   -1    0    0  501    0  0.00000000000E+00 -0.00000000000E+00 -0.92225703179E+03  0.92225703179E+03  0.25500000000E-02 0.  1.
    5000001    1    1    2    0    0 -0.65596044273E+02 -0.28763399851E+02 -0.49140166492E+03  0.50252837779E+03  0.77000000000E+02 0.  0.
   -5000001    1    1    2    0    0  0.65596044273E+02  0.28763399851E+02 -0.41879108067E+03  0.43179294047E+03  0.77000000000E+02 0.  0.
<mgrwt>
<rscale>  0 0.21096325E+03</rscale>
<asrwt>0</asrwt>
<pdfrwt beam="1">  1        2 0.14188564E+00 0.21096325E+03</pdfrwt>
<pdfrwt beam="2">  1       -2 0.18560448E-02 0.21096325E+03</pdfrwt>
<totfact> 0.24868337E+04</totfact>
</mgrwt>
</event>
<event>
 4    1  0.5980424E-004  0.3126002E+03  0.7818608E-02  0.1079106E+00
         -2   -1    0    0    0  501 -0.00000000000E+00  0.00000000000E+00  0.13157148791E+02  0.13157149039E+02  0.25500000000E-02 0. -1.
          2   -1    0    0  501    0  0.00000000000E+00 -0.00000000000E+00 -0.18567637290E+04  0.18567637290E+04  0.25500000000E-02 0.  1.
    5000001    1    1    2    0    0  0.31672693952E+02  0.11854751639E+03 -0.57075380153E+03  0.58885106363E+03  0.77000000000E+02 0.  0.
   -5000001    1    1    2    0    0 -0.31672693952E+02 -0.11854751639E+03 -0.12728527787E+04  0.12810698144E+04  0.77000000000E+02 0.  0.
<mgrwt>
<rscale>  0 0.31260017E+03</rscale>
<asrwt>0</asrwt>
<pdfrwt beam="1">  1        2 0.28565575E+00 0.31260017E+03</pdfrwt>
<pdfrwt beam="2">  1       -2 0.20241782E-02 0.31260017E+03</pdfrwt>
<totfact> 0.67176228E+03</totfact>
</mgrwt>
</event>
<event>
 4    1  0.5980424E-004  0.2869075E+03  0.7818608E-02  0.1091975E+00
          2   -1    0    0  501    0  0.00000000000E+00  0.00000000000E+00  0.22289653223E+03  0.22289653224E+03  0.25500000000E-02 0.  1.
         -2   -1    0    0    0  501 -0.00000000000E+00 -0.00000000000E+00 -0.92325268233E+02  0.92325268268E+02  0.25500000000E-02 0. -1.
    5000001    1    1    2    0    0 -0.11631926779E+03  0.88969123899E+01  0.29842858660E+02  0.14292978459E+03  0.77000000000E+02 0.  0.
   -5000001    1    1    2    0    0  0.11631926779E+03 -0.88969123899E+01  0.10072840533E+03  0.17229201592E+03  0.77000000000E+02 0.  0.
<mgrwt>
<rscale>  0 0.28690753E+03</rscale>
<asrwt>0</asrwt>
<pdfrwt beam="1">  1        2 0.34291774E-01 0.28690753E+03</pdfrwt>
<pdfrwt beam="2">  1       -2 0.14203888E-01 0.28690753E+03</pdfrwt>
<totfact> 0.56410954E+03</totfact>
</mgrwt>
</event>
<event>
 4    1  0.5980424E-004  0.2058365E+03  0.7818608E-02  0.1144906E+00
          2   -1    0    0  501    0  0.00000000000E+00  0.00000000000E+00  0.26091877875E+03  0.26091877876E+03  0.25500000000E-02 0.  1.
         -2   -1    0    0    0  501 -0.00000000000E+00 -0.00000000000E+00 -0.40595627386E+02  0.40595627466E+02  0.25500000000E-02 0. -1.
    5000001    1    1    2    0    0 -0.18142747085E+02  0.44662338455E+02  0.18100942520E+03  0.20252727165E+03  0.77000000000E+02 0.  0.
   -5000001    1    1    2    0    0  0.18142747085E+02 -0.44662338455E+02  0.39313726158E+02  0.98987134580E+02  0.77000000000E+02 0.  0.
<mgrwt>
<rscale>  0 0.20583645E+03</rscale>
<asrwt>0</asrwt>
<pdfrwt beam="1">  1        2 0.40141352E-01 0.20583645E+03</pdfrwt>
<pdfrwt beam="2">  1       -2 0.62454809E-02 0.20583645E+03</pdfrwt>
<totfact> 0.17161862E+04</totfact>
</mgrwt>
</event>
<event>
 4    1  0.5980424E-004  0.2257865E+03  0.7818608E-02  0.1129641E+00
         -2   -1    0    0    0  501 -0.00000000000E+00  0.00000000000E+00  0.91886974795E+02  0.91886974830E+02  0.25500000000E-02 0. -1.
          2   -1    0    0  501    0  0.00000000000E+00 -0.00000000000E+00 -0.13870175579E+03  0.13870175582E+03  0.25500000000E-02 0.  1.
    5000001    1    1    2    0    0 -0.75133096078E+02  0.13373758279E+02  0.87592613571E+01  0.10876380003E+03  0.77000000000E+02 0.  0.
   -5000001    1    1    2    0    0  0.75133096078E+02 -0.13373758279E+02 -0.55574042355E+02  0.12182493062E+03  0.77000000000E+02 0.  0.
<mgrwt>
<rscale>  0 0.22578649E+03</rscale>
<asrwt>0</asrwt>
<pdfrwt beam="1">  1        2 0.21338732E-01 0.22578649E+03</pdfrwt>
<pdfrwt beam="2">  1       -2 0.14136458E-01 0.22578649E+03</pdfrwt>
<totfact> 0.95174782E+03</totfact>
</mgrwt>
</event>
<event>
 4    1  0.5980424E-004  0.2281723E+03  0.7818608E-02  0.1127933E+00
          2   -1    0    0  501    0  0.00000000000E+00  0.00000000000E+00  0.38139772731E+02  0.38139772816E+02  0.25500000000E-02 0.  1.
         -2   -1    0    0    0  501 -0.00000000000E+00 -0.00000000000E+00 -0.34126199961E+03  0.34126199962E+03  0.25500000000E-02 0. -1.
    5000001    1    1    2    0    0  0.83991786003E+02 -0.43507145619E+01 -0.14554139390E+03  0.18489144429E+03  0.77000000000E+02 0.  0.
   -5000001    1    1    2    0    0 -0.83991786003E+02  0.43507145619E+01 -0.15758083298E+03  0.19451032815E+03  0.77000000000E+02 0.  0.
<mgrwt>
<rscale>  0 0.22817235E+03</rscale>
<asrwt>0</asrwt>
<pdfrwt beam="1">  1        2 0.58676576E-02 0.22817235E+03</pdfrwt>
<pdfrwt beam="2">  1       -2 0.52501844E-01 0.22817235E+03</pdfrwt>
<totfact> 0.43612734E+03</totfact>
</mgrwt>
</event>
<event>
 4    1  0.5980424E-004  0.8417488E+03  0.7818608E-02  0.9501479E-01
          2   -1    0    0  501    0  0.00000000000E+00  0.00000000000E+00  0.87483425701E+03  0.87483425702E+03  0.25500000000E-02 0.  1.
         -2   -1    0    0    0  501 -0.00000000000E+00 -0.00000000000E+00 -0.20247864254E+03  0.20247864256E+03  0.25500000000E-02 0. -1.
    5000001    1    1    2    0    0  0.24266531143E+03 -0.30898459462E+03  0.17005178686E+03  0.43497648591E+03  0.77000000000E+02 0.  0.
   -5000001    1    1    2    0    0 -0.24266531143E+03  0.30898459462E+03  0.50230382762E+03  0.64233641367E+03  0.77000000000E+02 0.  0.
<mgrwt>
<rscale>  0 0.84174878E+03</rscale>
<asrwt>0</asrwt>
<pdfrwt beam="1">  1        2 0.13458988E+00 0.84174878E+03</pdfrwt>
<pdfrwt beam="2">  1       -2 0.31150561E-01 0.84174878E+03</pdfrwt>
<totfact> 0.29246206E+02</totfact>
</mgrwt>
</event>
<event>
 4    1  0.5980424E-004  0.2203356E+03  0.7818608E-02  0.1133633E+00
          2   -1    0    0  501    0  0.00000000000E+00  0.00000000000E+00  0.10488744153E+04  0.10488744153E+04  0.25500000000E-02 0.  1.
         -2   -1    0    0    0  501 -0.00000000000E+00 -0.00000000000E+00 -0.11571402937E+02  0.11571403218E+02  0.25500000000E-02 0. -1.
    5000001    1    1    2    0    0  0.64148502619E+02 -0.30655228834E+02  0.35521413146E+03  0.37035233580E+03  0.77000000000E+02 0.  0.
   -5000001    1    1    2    0    0 -0.64148502619E+02  0.30655228834E+02  0.68208888089E+03  0.69009348271E+03  0.77000000000E+02 0.  0.
<mgrwt>
<rscale>  0 0.22033564E+03</rscale>
<asrwt>0</asrwt>
<pdfrwt beam="1">  1        2 0.16136522E+00 0.22033564E+03</pdfrwt>
<pdfrwt beam="2">  1       -2 0.17802167E-02 0.22033564E+03</pdfrwt>
<totfact> 0.22164178E+04</totfact>
</mgrwt>
</event>
<event>
 4    1  0.5980424E-004  0.2944919E+03  0.7818608E-02  0.1088027E+00
          2   -1    0    0  501    0  0.00000000000E+00  0.00000000000E+00  0.53207217190E+03  0.53207217191E+03  0.25500000000E-02 0.  1.
         -2   -1    0    0    0  501 -0.00000000000E+00 -0.00000000000E+00 -0.40748915418E+02  0.40748915498E+02  0.25500000000E-02 0. -1.
    5000001    1    1    2    0    0 -0.55186019643E+02 -0.89244914022E+02  0.37960962033E+03  0.40130115287E+03  0.77000000000E+02 0.  0.
   -5000001    1    1    2    0    0  0.55186019643E+02  0.89244914022E+02  0.11171363615E+03  0.17151993454E+03  0.77000000000E+02 0.  0.
<mgrwt>
<rscale>  0 0.29449186E+03</rscale>
<asrwt>0</asrwt>
<pdfrwt beam="1">  1        2 0.81857247E-01 0.29449186E+03</pdfrwt>
<pdfrwt beam="2">  1       -2 0.62690647E-02 0.29449186E+03</pdfrwt>
<totfact> 0.80046151E+03</totfact>
</mgrwt>
</event>
<event>
 4    1  0.5980424E-004  0.2066745E+03  0.7818608E-02  0.1144227E+00
         -2   -1    0    0    0  501 -0.00000000000E+00  0.00000000000E+00  0.73851713805E+01  0.73851718208E+01  0.25500000000E-02 0. -1.
          2   -1    0    0  501    0  0.00000000000E+00 -0.00000000000E+00 -0.14459502798E+04  0.14459502798E+04  0.25500000000E-02 0.  1.
    5000001    1    1    2    0    0 -0.68691398884E+02 -0.11413360741E+01 -0.75765693382E+03  0.76465210409E+03  0.77000000000E+02 0.  0.
   -5000001    1    1    2    0    0  0.68691398884E+02  0.11413360741E+01 -0.68090817461E+03  0.68868334754E+03  0.77000000000E+02 0.  0.
<mgrwt>
<rscale>  0 0.20667454E+03</rscale>
<asrwt>0</asrwt>
<pdfrwt beam="1">  1        2 0.22245366E+00 0.20667454E+03</pdfrwt>
<pdfrwt beam="2">  1       -2 0.11361814E-02 0.20667454E+03</pdfrwt>
<totfact> 0.25452759E+04</totfact>
</mgrwt>
</event>
<event>
 4    1  0.5980424E-004  0.4648431E+03  0.7818608E-02  0.1023386E+00
         -2   -1    0    0    0  501 -0.00000000000E+00  0.00000000000E+00  0.16405717146E+02  0.16405717344E+02  0.25500000000E-02 0. -1.
          2   -1    0    0  501    0  0.00000000000E+00 -0.00000000000E+00 -0.32927413763E+04  0.32927413763E+04  0.25500000000E-02 0.  1.
    5000001    1    1    2    0    0 -0.10604967958E+03 -0.19185079026E+03 -0.16817754713E+04  0.16977488025E+04  0.77000000000E+02 0.  0.
   -5000001    1    1    2    0    0  0.10604967958E+03  0.19185079026E+03 -0.15945601878E+04  0.16113982912E+04  0.77000000000E+02 0.  0.
<mgrwt>
<rscale>  0 0.46484313E+03</rscale>
<asrwt>0</asrwt>
<pdfrwt beam="1">  1        2 0.50657507E+00 0.46484313E+03</pdfrwt>
<pdfrwt beam="2">  1       -2 0.25239591E-02 0.46484313E+03</pdfrwt>
<totfact> 0.73125007E+02</totfact>
</mgrwt>
</event>
<event>
 4    1  0.5980424E-004  0.3285487E+03  0.7818608E-02  0.1071781E+00
          2   -1    0    0  501    0  0.00000000000E+00  0.00000000000E+00  0.59367026315E+03  0.59367026316E+03  0.25500000000E-02 0.  1.
         -2   -1    0    0    0  501 -0.00000000000E+00 -0.00000000000E+00 -0.45456307072E+02  0.45456307144E+02  0.25500000000E-02 0. -1.
    5000001    1    1    2    0    0  0.93875145413E+02 -0.88559933057E+02  0.40316798876E+03  0.43026600125E+03  0.77000000000E+02 0.  0.
   -5000001    1    1    2    0    0 -0.93875145413E+02  0.88559933057E+02  0.14504596732E+03  0.20886056905E+03  0.77000000000E+02 0.  0.
<mgrwt>
<rscale>  0 0.32854867E+03</rscale>
<asrwt>0</asrwt>
<pdfrwt beam="1">  1        2 0.91333877E-01 0.32854867E+03</pdfrwt>
<pdfrwt beam="2">  1       -2 0.69932788E-02 0.32854867E+03</pdfrwt>
<totfact> 0.59767601E+03</totfact>
</mgrwt>
</event>
<event>
 4    1  0.5980424E-004  0.3278065E+03  0.7818608E-02  0.1072112E+00
          2   -1    0    0  501    0  0.00000000000E+00  0.00000000000E+00  0.11825806726E+04  0.11825806726E+04  0.25500000000E-02 0.  1.
         -2   -1    0    0    0  501 -0.00000000000E+00 -0.00000000000E+00 -0.22716651438E+02  0.22716651581E+02  0.25500000000E-02 0. -1.
    5000001    1    1    2    0    0 -0.11915046975E+03 -0.47308040107E+02  0.33327036431E+03  0.36528484889E+03  0.77000000000E+02 0.  0.
   -5000001    1    1    2    0    0  0.11915046975E+03  0.47308040107E+02  0.82659365685E+03  0.84001247529E+03  0.77000000000E+02 0.  0.
<mgrwt>
<rscale>  0 0.32780649E+03</rscale>
<asrwt>0</asrwt>
<pdfrwt beam="1">  1        2 0.18193546E+00 0.32780649E+03</pdfrwt>
<pdfrwt beam="2">  1       -2 0.34948700E-02 0.32780649E+03</pdfrwt>
<totfact> 0.69101831E+03</totfact>
</mgrwt>
</event>
<event>
 4    1  0.5980424E-004  0.1738265E+03  0.7818608E-02  0.1173915E+00
         -2   -1    0    0    0  501 -0.00000000000E+00  0.00000000000E+00  0.17460235994E+02  0.17460236180E+02  0.25500000000E-02 0. -1.
          2   -1    0    0  501    0  0.00000000000E+00 -0.00000000000E+00 -0.43263499211E+03  0.43263499212E+03  0.25500000000E-02 0.  1.
    5000001    1    1    2    0    0  0.13503637641E+02  0.23304910096E+02 -0.28524339785E+03  0.29667872031E+03  0.77000000000E+02 0.  0.
   -5000001    1    1    2    0    0 -0.13503637641E+02 -0.23304910096E+02 -0.12993135826E+03  0.15341650799E+03  0.77000000000E+02 0.  0.
<mgrwt>
<rscale>  0 0.17382645E+03</rscale>
<asrwt>0</asrwt>
<pdfrwt beam="1">  1        2 0.66559222E-01 0.17382645E+03</pdfrwt>
<pdfrwt beam="2">  1       -2 0.26861905E-02 0.17382645E+03</pdfrwt>
<totfact> 0.34848081E+04</totfact>
</mgrwt>
</event>
<event>
 4    1  0.5980424E-004  0.3894049E+03  0.7818608E-02  0.1047511E+00
          2   -1    0    0  501    0  0.00000000000E+00  0.00000000000E+00  0.14798374509E+04  0.14798374509E+04  0.25500000000E-02 0.  1.
         -2   -1    0    0    0  501 -0.00000000000E+00 -0.00000000000E+00 -0.25617037599E+02  0.25617037726E+02  0.25500000000E-02 0. -1.
    5000001    1    1    2    0    0 -0.80780014951E+02 -0.14701397096E+03  0.48749273975E+03  0.52126451038E+03  0.77000000000E+02 0.  0.
   -5000001    1    1    2    0    0  0.80780014951E+02  0.14701397096E+03  0.96672767354E+03  0.98418997823E+03  0.77000000000E+02 0.  0.
<mgrwt>
<rscale>  0 0.38940494E+03</rscale>
<asrwt>0</asrwt>
<pdfrwt beam="1">  1        2 0.22766740E+00 0.38940494E+03</pdfrwt>
<pdfrwt beam="2">  1       -2 0.39410810E-02 0.38940494E+03</pdfrwt>
<totfact> 0.39389126E+03</totfact>
</mgrwt>
</event>
<event>
 4    1  0.5980424E-004  0.1682882E+03  0.7818608E-02  0.1179645E+00
          2   -1    0    0  501    0  0.00000000000E+00  0.00000000000E+00  0.10882989969E+04  0.10882989969E+04  0.25500000000E-02 0.  1.
         -2   -1    0    0    0  501 -0.00000000000E+00 -0.00000000000E+00 -0.65057765832E+01  0.65057770830E+01  0.25500000000E-02 0. -1.
    5000001    1    1    2    0    0 -0.15853731981E+02 -0.28781142731E+02  0.59591951670E+03  0.60177135640E+03  0.77000000000E+02 0.  0.
   -5000001    1    1    2    0    0  0.15853731981E+02  0.28781142731E+02  0.48587370364E+03  0.49303341762E+03  0.77000000000E+02 0.  0.
<mgrwt>
<rscale>  0 0.16828821E+03</rscale>
<asrwt>0</asrwt>
<pdfrwt beam="1">  1        2 0.16743073E+00 0.16828821E+03</pdfrwt>
<pdfrwt beam="2">  1       -2 0.10008881E-02 0.16828821E+03</pdfrwt>
<totfact> 0.47500961E+04</totfact>
</mgrwt>
</event>
<event>
 4    1  0.5980424E-004  0.2079094E+03  0.7818608E-02  0.1143232E+00
         -2   -1    0    0    0  501 -0.00000000000E+00  0.00000000000E+00  0.58621624466E+01  0.58621630012E+01  0.25500000000E-02 0. -1.
          2   -1    0    0  501    0  0.00000000000E+00 -0.00000000000E+00 -0.18434461572E+04  0.18434461572E+04  0.25500000000E-02 0.  1.
    5000001    1    1    2    0    0 -0.40404557187E+02  0.49143309543E+02 -0.11750462803E+04  0.11792838309E+04  0.77000000000E+02 0.  0.
   -5000001    1    1    2    0    0  0.40404557187E+02 -0.49143309543E+02 -0.66253771450E+03  0.67002448930E+03  0.77000000000E+02 0.  0.
<mgrwt>
<rscale>  0 0.20790942E+03</rscale>
<asrwt>0</asrwt>
<pdfrwt beam="1">  1        2 0.28360664E+00 0.20790942E+03</pdfrwt>
<pdfrwt beam="2">  1       -2 0.90187266E-03 0.20790942E+03</pdfrwt>
<totfact> 0.21995944E+04</totfact>
</mgrwt>
</event>
<event>
 4    1  0.5980424E-004  0.1857324E+03  0.7818608E-02  0.1162368E+00
          2   -1    0    0  501    0  0.00000000000E+00  0.00000000000E+00  0.98215571375E+02  0.98215571408E+02  0.25500000000E-02 0.  1.
         -2   -1    0    0    0  501 -0.00000000000E+00 -0.00000000000E+00 -0.87808165009E+02  0.87808165046E+02  0.25500000000E-02 0. -1.
    5000001    1    1    2    0    0  0.13716253348E+02  0.50000601586E+02  0.78409572576E+01  0.93159413779E+02  0.77000000000E+02 0.  0.
   -5000001    1    1    2    0    0 -0.13716253348E+02 -0.50000601586E+02  0.25664491083E+01  0.92864322675E+02  0.77000000000E+02 0.  0.
<mgrwt>
<rscale>  0 0.18573238E+03</rscale>
<asrwt>0</asrwt>
<pdfrwt beam="1">  1        2 0.15110088E-01 0.18573238E+03</pdfrwt>
<pdfrwt beam="2">  1       -2 0.13508948E-01 0.18573238E+03</pdfrwt>
<totfact> 0.15071530E+04</totfact>
</mgrwt>
</event>
<event>
 4    1  0.5980424E-004  0.4612421E+03  0.7818608E-02  0.1024422E+00
         -2   -1    0    0    0  501 -0.00000000000E+00  0.00000000000E+00  0.12100330041E+03  0.12100330044E+03  0.25500000000E-02 0. -1.
          2   -1    0    0  501    0  0.00000000000E+00 -0.00000000000E+00 -0.43954224282E+03  0.43954224283E+03  0.25500000000E-02 0.  1.
    5000001    1    1    2    0    0 -0.20164849924E+03 -0.17088413291E+02 -0.25575301907E+03  0.33510108606E+03  0.77000000000E+02 0.  0.
   -5000001    1    1    2    0    0  0.20164849924E+03  0.17088413291E+02 -0.62785923333E+02  0.22544445720E+03  0.77000000000E+02 0.  0.
<mgrwt>
<rscale>  0 0.46124207E+03</rscale>
<asrwt>0</asrwt>
<pdfrwt beam="1">  1        2 0.67621883E-01 0.46124207E+03</pdfrwt>
<pdfrwt beam="2">  1       -2 0.18615893E-01 0.46124207E+03</pdfrwt>
<totfact> 0.17209043E+03</totfact>
</mgrwt>
</event>
<event>
 4    1  0.5980424E-004  0.1884385E+03  0.7818608E-02  0.1159877E+00
          2   -1    0    0  501    0  0.00000000000E+00  0.00000000000E+00  0.12112991204E+03  0.12112991207E+03  0.25500000000E-02 0.  1.
         -2   -1    0    0    0  501 -0.00000000000E+00 -0.00000000000E+00 -0.73287120676E+02  0.73287120720E+02  0.25500000000E-02 0. -1.
    5000001    1    1    2    0    0  0.45114733633E+02 -0.70048503097E+01  0.54245312920E+02  0.10467072701E+03  0.77000000000E+02 0.  0.
   -5000001    1    1    2    0    0 -0.45114733633E+02  0.70048503097E+01 -0.64025215564E+01  0.89746305779E+02  0.77000000000E+02 0.  0.
<mgrwt>
<rscale>  0 0.18843845E+03</rscale>
<asrwt>0</asrwt>
<pdfrwt beam="1">  1        2 0.18635371E-01 0.18843845E+03</pdfrwt>
<pdfrwt beam="2">  1       -2 0.11274942E-01 0.18843845E+03</pdfrwt>
<totfact> 0.15819321E+04</totfact>
</mgrwt>
</event>
<event>
 4    1  0.5980424E-004  0.2872611E+03  0.7818608E-02  0.1091788E+00
          2   -1    0    0  501    0  0.00000000000E+00  0.00000000000E+00  0.18405866620E+04  0.18405866620E+04  0.25500000000E-02 0.  1.
         -2   -1    0    0    0  501 -0.00000000000E+00 -0.00000000000E+00 -0.11208236489E+02  0.11208236779E+02  0.25500000000E-02 0. -1.
    5000001    1    1    2    0    0 -0.11277877483E+03  0.13366695420E+01  0.12015273348E+04  0.12092633191E+04  0.77000000000E+02 0.  0.
   -5000001    1    1    2    0    0  0.11277877483E+03 -0.13366695420E+01  0.62785109080E+03  0.64253157974E+03  0.77000000000E+02 0.  0.
<mgrwt>
<rscale>  0 0.28726107E+03</rscale>
<asrwt>0</asrwt>
<pdfrwt beam="1">  1        2 0.28316731E+00 0.28726107E+03</pdfrwt>
<pdfrwt beam="2">  1       -2 0.17243433E-02 0.28726107E+03</pdfrwt>
<totfact> 0.86703276E+03</totfact>
</mgrwt>
</event>
<event>
 4    1  0.5980424E-004  0.2727125E+03  0.7818608E-02  0.1099737E+00
         -2   -1    0    0    0  501 -0.00000000000E+00  0.00000000000E+00  0.11625974902E+02  0.11625975182E+02  0.25500000000E-02 0. -1.
          2   -1    0    0  501    0  0.00000000000E+00 -0.00000000000E+00 -0.15992657234E+04  0.15992657234E+04  0.25500000000E-02 0.  1.
    5000001    1    1    2    0    0  0.49038556905E+02  0.92865498696E+02 -0.10326848199E+04  0.10408629680E+04  0.77000000000E+02 0.  0.
   -5000001    1    1    2    0    0 -0.49038556905E+02 -0.92865498696E+02 -0.55495492865E+03  0.57002873064E+03  0.77000000000E+02 0.  0.
<mgrwt>
<rscale>  0 0.27271247E+03</rscale>
<asrwt>0</asrwt>
<pdfrwt beam="1">  1        2 0.24604071E+00 0.27271247E+03</pdfrwt>
<pdfrwt beam="2">  1       -2 0.17886128E-02 0.27271247E+03</pdfrwt>
<totfact> 0.11003857E+04</totfact>
</mgrwt>
</event>
<event>
 4    1  0.5980424E-004  0.2636857E+03  0.7818608E-02  0.1104949E+00
          2   -1    0    0  501    0  0.00000000000E+00  0.00000000000E+00  0.14392604532E+04  0.14392604532E+04  0.25500000000E-02 0. -1.
         -2   -1    0    0    0  501 -0.00000000000E+00 -0.00000000000E+00 -0.12077409235E+02  0.12077409504E+02  0.25500000000E-02 0.  1.
    5000001    1    1    2    0    0  0.48483820707E+02  0.63040220305E+02  0.11077667159E+04  0.11132838125E+04  0.77000000000E+02 0.  0.
   -5000001    1    1    2    0    0 -0.48483820707E+02 -0.63040220305E+02  0.31941632802E+03  0.33805405019E+03  0.77000000000E+02 0.  0.
<mgrwt>
<rscale>  0 0.26368570E+03</rscale>
<asrwt>0</asrwt>
<pdfrwt beam="1">  1        2 0.22142473E+00 0.26368570E+03</pdfrwt>
<pdfrwt beam="2">  1       -2 0.18580626E-02 0.26368570E+03</pdfrwt>
<totfact> 0.12657623E+04</totfact>
</mgrwt>
</event>
<event>
 4    1  0.5980424E-004  0.2151860E+03  0.7818608E-02  0.1137524E+00
         -2   -1    0    0    0  501 -0.00000000000E+00  0.00000000000E+00  0.11316187625E+03  0.11316187628E+03  0.25500000000E-02 0. -1.
          2   -1    0    0  501    0  0.00000000000E+00 -0.00000000000E+00 -0.10229821308E+03  0.10229821311E+03  0.25500000000E-02 0.  1.
    5000001    1    1    2    0    0 -0.21112148270E+02  0.61855138908E+02  0.42566484479E+02  0.10960240241E+03  0.77000000000E+02 0.  0.
   -5000001    1    1    2    0    0  0.21112148270E+02 -0.61855138908E+02 -0.31702821306E+02  0.10585768698E+03  0.77000000000E+02 0.  0.
<mgrwt>
<rscale>  0 0.21518604E+03</rscale>
<asrwt>0</asrwt>
<pdfrwt beam="1">  1        2 0.15738187E-01 0.21518604E+03</pdfrwt>
<pdfrwt beam="2">  1       -2 0.17409519E-01 0.21518604E+03</pdfrwt>
<totfact> 0.95515242E+03</totfact>
</mgrwt>
</event>
<event>
 4    1  0.5980424E-004  0.2254269E+03  0.7818608E-02  0.1129901E+00
         -2   -1    0    0    0  501 -0.00000000000E+00  0.00000000000E+00  0.64221068383E+01  0.64221073445E+01  0.25500000000E-02 0. -1.
          2   -1    0    0  501    0  0.00000000000E+00 -0.00000000000E+00 -0.19782163534E+04  0.19782163534E+04  0.25500000000E-02 0.  1.
    5000001    1    1    2    0    0 -0.67881187874E+02 -0.43710160982E+02 -0.11270025744E+04  0.11325114730E+04  0.77000000000E+02 0.  0.
   -5000001    1    1    2    0    0  0.67881187874E+02  0.43710160982E+02 -0.84479167217E+03  0.85212698772E+03  0.77000000000E+02 0.  0.
<mgrwt>
<rscale>  0 0.22542686E+03</rscale>
<asrwt>0</asrwt>
<pdfrwt beam="1">  1        2 0.30434049E+00 0.22542686E+03</pdfrwt>
<pdfrwt beam="2">  1       -2 0.98801805E-03 0.22542686E+03</pdfrwt>
<totfact> 0.16452570E+04</totfact>
</mgrwt>
</event>
<event>
 4    1  0.5980424E-004  0.2899598E+03  0.7818608E-02  0.1090370E+00
          2   -1    0    0  501    0  0.00000000000E+00  0.00000000000E+00  0.13399707708E+04  0.13399707708E+04  0.25500000000E-02 0.  1.
         -2   -1    0    0    0  501 -0.00000000000E+00 -0.00000000000E+00 -0.15686291979E+02  0.15686292186E+02  0.25500000000E-02 0. -1.
    5000001    1    1    2    0    0 -0.64744799790E+02 -0.10380126278E+03  0.71411658291E+03  0.72860008595E+03  0.77000000000E+02 0.  0.
   -5000001    1    1    2    0    0  0.64744799790E+02  0.10380126278E+03  0.61016789593E+03  0.62705697706E+03  0.77000000000E+02 0.  0.
<mgrwt>
<rscale>  0 0.28995981E+03</rscale>
<asrwt>0</asrwt>
<pdfrwt beam="1">  1        2 0.20614936E+00 0.28995981E+03</pdfrwt>
<pdfrwt beam="2">  1       -2 0.24132756E-02 0.28995981E+03</pdfrwt>
<totfact> 0.97724782E+03</totfact>
</mgrwt>
</event>
<event>
 4    1  0.5980424E-004  0.2359580E+03  0.7818608E-02  0.1122515E+00
          2   -1    0    0  501    0  0.00000000000E+00  0.00000000000E+00  0.31939486393E+04  0.31939486393E+04  0.25500000000E-02 0.  1.
         -2   -1    0    0    0  501 -0.00000000000E+00 -0.00000000000E+00 -0.43579421326E+01  0.43579428786E+01  0.25500000000E-02 0. -1.
    5000001    1    1    2    0    0  0.77324516185E+02  0.41707514646E+02  0.13714752178E+04  0.13764417426E+04  0.77000000000E+02 0.  0.
   -5000001    1    1    2    0    0 -0.77324516185E+02 -0.41707514646E+02  0.18181154794E+04  0.18218648396E+04  0.77000000000E+02 0.  0.
<mgrwt>
<rscale>  0 0.23595800E+03</rscale>
<asrwt>0</asrwt>
<pdfrwt beam="1">  1        2 0.49137456E+00 0.23595800E+03</pdfrwt>
<pdfrwt beam="2">  1       -2 0.67045564E-03 0.23595800E+03</pdfrwt>
<totfact> 0.60658238E+03</totfact>
</mgrwt>
</event>
<event>
 4    1  0.5980424E-004  0.1798636E+03  0.7818608E-02  0.1167935E+00
         -2   -1    0    0    0  501 -0.00000000000E+00  0.00000000000E+00  0.32776147686E+03  0.32776147687E+03  0.25500000000E-02 0. -1.
          2   -1    0    0  501    0  0.00000000000E+00 -0.00000000000E+00 -0.24675656704E+02  0.24675656836E+02  0.25500000000E-02 0.  1.
    5000001    1    1    2    0    0 -0.38249563788E+02  0.12679647918E+02  0.10622335331E+03  0.13724504869E+03  0.77000000000E+02 0.  0.
   -5000001    1    1    2    0    0  0.38249563788E+02 -0.12679647918E+02  0.19686246684E+03  0.21519208501E+03  0.77000000000E+02 0.  0.
<mgrwt>
<rscale>  0 0.17986361E+03</rscale>
<asrwt>0</asrwt>
<pdfrwt beam="1">  1        2 0.37962554E-02 0.17986361E+03</pdfrwt>
<pdfrwt beam="2">  1       -2 0.50424835E-01 0.17986361E+03</pdfrwt>
<totfact> 0.82760694E+03</totfact>
</mgrwt>
</event>
<event>
 4    1  0.5980424E-004  0.2895210E+03  0.7818608E-02  0.1090599E+00
         -2   -1    0    0    0  501 -0.00000000000E+00  0.00000000000E+00  0.11328057413E+03  0.11328057416E+03  0.25500000000E-02 0. -1.
          2   -1    0    0  501    0  0.00000000000E+00 -0.00000000000E+00 -0.18498850340E+03  0.18498850342E+03  0.25500000000E-02 0.  1.
    5000001    1    1    2    0    0 -0.85647165206E+02  0.49484130015E+02 -0.11044675637E+03  0.16706765702E+03  0.77000000000E+02 0.  0.
   -5000001    1    1    2    0    0  0.85647165206E+02 -0.49484130015E+02  0.38738827092E+02  0.13120142055E+03  0.77000000000E+02 0.  0.
<mgrwt>
<rscale>  0 0.28952101E+03</rscale>
<asrwt>0</asrwt>
<pdfrwt beam="1">  1        2 0.28459770E-01 0.28952101E+03</pdfrwt>
<pdfrwt beam="2">  1       -2 0.17427781E-01 0.28952101E+03</pdfrwt>
<totfact> 0.49259185E+03</totfact>
</mgrwt>
</event>
<event>
 4    1  0.5980424E-004  0.1680778E+03  0.7818608E-02  0.1179867E+00
         -2   -1    0    0    0  501 -0.00000000000E+00  0.00000000000E+00  0.23921552704E+02  0.23921552840E+02  0.25500000000E-02 0. -1.
          2   -1    0    0  501    0  0.00000000000E+00 -0.00000000000E+00 -0.29523729612E+03  0.29523729613E+03  0.25500000000E-02 0.  1.
    5000001    1    1    2    0    0  0.10570018972E+02  0.31776331644E+02 -0.14225602422E+03  0.16518848925E+03  0.77000000000E+02 0.  0.
   -5000001    1    1    2    0    0 -0.10570018972E+02 -0.31776331644E+02 -0.12905971920E+03  0.15397035973E+03  0.77000000000E+02 0.  0.
<mgrwt>
<rscale>  0 0.16807777E+03</rscale>
<asrwt>0</asrwt>
<pdfrwt beam="1">  1        2 0.45421120E-01 0.16807777E+03</pdfrwt>
<pdfrwt beam="2">  1       -2 0.36802391E-02 0.16807777E+03</pdfrwt>
<totfact> 0.32834441E+04</totfact>
</mgrwt>
</event>
<event>
 4    1  0.5980424E-004  0.2786291E+03  0.7818608E-02  0.1096440E+00
          2   -1    0    0  501    0  0.00000000000E+00  0.00000000000E+00  0.14616708858E+04  0.14616708858E+04  0.25500000000E-02 0.  1.
         -2   -1    0    0    0  501 -0.00000000000E+00 -0.00000000000E+00 -0.13278323584E+02  0.13278323828E+02  0.25500000000E-02 0. -1.
    5000001    1    1    2    0    0 -0.11545095119E+03 -0.26350374847E+01  0.78764738282E+03  0.79978326140E+03  0.77000000000E+02 0.  0.
   -5000001    1    1    2    0    0  0.11545095119E+03  0.26350374847E+01  0.66074517940E+03  0.67516594823E+03  0.77000000000E+02 0.  0.
<mgrwt>
<rscale>  0 0.27862907E+03</rscale>
<asrwt>0</asrwt>
<pdfrwt beam="1">  1        2 0.22487249E+00 0.27862907E+03</pdfrwt>
<pdfrwt beam="2">  1       -2 0.20428186E-02 0.27862907E+03</pdfrwt>
<totfact> 0.10723365E+04</totfact>
</mgrwt>
</event>
<event>
 4    1  0.5980424E-004  0.1973585E+03  0.7818608E-02  0.1151987E+00
         -2   -1    0    0    0  501 -0.00000000000E+00  0.00000000000E+00  0.51686200199E+01  0.51686206490E+01  0.25500000000E-02 0. -1.
          2   -1    0    0  501    0  0.00000000000E+00 -0.00000000000E+00 -0.18839836207E+04  0.18839836207E+04  0.25500000000E-02 0.  1.
    5000001    1    1    2    0    0 -0.37183895845E+02 -0.20829834282E+02 -0.13666393239E+04  0.13694701770E+04  0.77000000000E+02 0.  0.
   -5000001    1    1    2    0    0  0.37183895845E+02  0.20829834282E+02 -0.51217567681E+03  0.51968206436E+03  0.77000000000E+02 0.  0.
<mgrwt>
<rscale>  0 0.19735852E+03</rscale>
<asrwt>0</asrwt>
<pdfrwt beam="1">  1        2 0.28984309E+00 0.19735852E+03</pdfrwt>
<pdfrwt beam="2">  1       -2 0.79517386E-03 0.19735852E+03</pdfrwt>
<totfact> 0.25061763E+04</totfact>
</mgrwt>
</event>
<event>
 4    1  0.5980424E-004  0.1865575E+03  0.7818608E-02  0.1161603E+00
         -2   -1    0    0    0  501 -0.00000000000E+00  0.00000000000E+00  0.10735893436E+03  0.10735893439E+03  0.25500000000E-02 0. -1.
          2   -1    0    0  501    0  0.00000000000E+00 -0.00000000000E+00 -0.81045164208E+02  0.81045164248E+02  0.25500000000E-02 0.  1.
    5000001    1    1    2    0    0  0.46938787435E+02  0.19505474932E+02 -0.69784508101E+00  0.92267005511E+02  0.77000000000E+02 0.  0.
   -5000001    1    1    2    0    0 -0.46938787435E+02 -0.19505474932E+02  0.27011615237E+02  0.96137093132E+02  0.77000000000E+02 0.  0.
<mgrwt>
<rscale>  0 0.18655747E+03</rscale>
<asrwt>0</asrwt>
<pdfrwt beam="1">  1        2 0.12468487E-01 0.18655747E+03</pdfrwt>
<pdfrwt beam="2">  1       -2 0.16516759E-01 0.18655747E+03</pdfrwt>
<totfact> 0.13623719E+04</totfact>
</mgrwt>
</event>
<event>
 4    1  0.5980424E-004  0.2783080E+03  0.7818608E-02  0.1096617E+00
         -2   -1    0    0    0  501 -0.00000000000E+00  0.00000000000E+00  0.10651356599E+02  0.10651356904E+02  0.25500000000E-02 0. -1.
          2   -1    0    0  501    0  0.00000000000E+00 -0.00000000000E+00 -0.18179695396E+04  0.18179695396E+04  0.25500000000E-02 0.  1.
    5000001    1    1    2    0    0 -0.68073819354E+01 -0.91821650501E+02 -0.44104387704E+03  0.45708451890E+03  0.77000000000E+02 0.  0.
   -5000001    1    1    2    0    0  0.68073819354E+01  0.91821650501E+02 -0.13662743060E+04  0.13715363776E+04  0.77000000000E+02 0.  0.
<mgrwt>
<rscale>  0 0.27830805E+03</rscale>
<asrwt>0</asrwt>
<pdfrwt beam="1">  1        2 0.27968738E+00 0.27830805E+03</pdfrwt>
<pdfrwt beam="2">  1       -2 0.16386717E-02 0.27830805E+03</pdfrwt>
<totfact> 0.95991269E+03</totfact>
</mgrwt>
</event>
<event>
 4    1  0.5980424E-004  0.1935741E+03  0.7818608E-02  0.1155277E+00
         -2   -1    0    0    0  501 -0.00000000000E+00  0.00000000000E+00  0.95016198981E+02  0.95016199015E+02  0.25500000000E-02 0. -1.
          2   -1    0    0  501    0  0.00000000000E+00 -0.00000000000E+00 -0.98590911871E+02  0.98590911904E+02  0.25500000000E-02 0.  1.
    5000001    1    1    2    0    0 -0.44335206918E+02 -0.38364618159E+02 -0.65614295364E+00  0.96782669019E+02  0.77000000000E+02 0.  0.
   -5000001    1    1    2    0    0  0.44335206918E+02  0.38364618159E+02 -0.29185699364E+01  0.96824441901E+02  0.77000000000E+02 0.  0.
<mgrwt>
<rscale>  0 0.19357411E+03</rscale>
<asrwt>0</asrwt>
<pdfrwt beam="1">  1        2 0.15167833E-01 0.19357411E+03</pdfrwt>
<pdfrwt beam="2">  1       -2 0.14617877E-01 0.19357411E+03</pdfrwt>
<totfact> 0.13233015E+04</totfact>
</mgrwt>
</event>
<event>
 4    1  0.5980424E-004  0.2225583E+03  0.7818608E-02  0.1131990E+00
         -2   -1    0    0    0  501 -0.00000000000E+00  0.00000000000E+00  0.43733550104E+02  0.43733550179E+02  0.25500000000E-02 0. -1.
          2   -1    0    0  501    0  0.00000000000E+00 -0.00000000000E+00 -0.28314760695E+03  0.28314760696E+03  0.25500000000E-02 0.  1.
    5000001    1    1    2    0    0 -0.69114160079E+02 -0.75240495406E+01 -0.60578973764E+02  0.12013405224E+03  0.77000000000E+02 0.  0.
   -5000001    1    1    2    0    0  0.69114160079E+02  0.75240495406E+01 -0.17883508308E+03  0.20674710491E+03  0.77000000000E+02 0.  0.
<mgrwt>
<rscale>  0 0.22255831E+03</rscale>
<asrwt>0</asrwt>
<pdfrwt beam="1">  1        2 0.43561169E-01 0.22255831E+03</pdfrwt>
<pdfrwt beam="2">  1       -2 0.67282386E-02 0.22255831E+03</pdfrwt>
<totfact> 0.14095761E+04</totfact>
</mgrwt>
</event>
<event>
 4    1  0.5980424E-004  0.1764877E+03  0.7818608E-02  0.1171246E+00
          2   -1    0    0  501    0  0.00000000000E+00  0.00000000000E+00  0.15661597341E+04  0.15661597341E+04  0.25500000000E-02 0.  1.
         -2   -1    0    0    0  501 -0.00000000000E+00 -0.00000000000E+00 -0.49720173973E+01  0.49720180512E+01  0.25500000000E-02 0. -1.
    5000001    1    1    2    0    0 -0.26240594885E+02  0.16024145473E+02  0.10495280815E+04  0.10527979559E+04  0.77000000000E+02 0.  0.
   -5000001    1    1    2    0    0  0.26240594885E+02 -0.16024145473E+02  0.51165963518E+03  0.51833379624E+03  0.77000000000E+02 0.  0.
<mgrwt>
<rscale>  0 0.17648766E+03</rscale>
<asrwt>0</asrwt>
<pdfrwt beam="1">  1        2 0.24094772E+00 0.17648766E+03</pdfrwt>
<pdfrwt beam="2">  1       -2 0.76492558E-03 0.17648766E+03</pdfrwt>
<totfact> 0.38505720E+04</totfact>
</mgrwt>
</event>
<event>
 4    1  0.5980424E-004  0.2071589E+03  0.7818608E-02  0.1143836E+00
         -2   -1    0    0    0  501 -0.00000000000E+00  0.00000000000E+00  0.19438909160E+02  0.19438909327E+02  0.25500000000E-02 0. -1.
          2   -1    0    0  501    0  0.00000000000E+00 -0.00000000000E+00 -0.55191917738E+03  0.55191917739E+03  0.25500000000E-02 0.  1.
    5000001    1    1    2    0    0 -0.57401244743E+02  0.15627723013E+02 -0.36416423366E+03  0.37693993912E+03  0.77000000000E+02 0.  0.
   -5000001    1    1    2    0    0  0.57401244743E+02 -0.15627723013E+02 -0.16831603456E+03  0.19441814760E+03  0.77000000000E+02 0.  0.
<mgrwt>
<rscale>  0 0.20715894E+03</rscale>
<asrwt>0</asrwt>
<pdfrwt beam="1">  1        2 0.84910631E-01 0.20715894E+03</pdfrwt>
<pdfrwt beam="2">  1       -2 0.29906018E-02 0.20715894E+03</pdfrwt>
<totfact> 0.23042261E+04</totfact>
</mgrwt>
</event>
<event>
 4    1  0.5980424E-004  0.2500909E+03  0.7818608E-02  0.1113247E+00
         -2   -1    0    0    0  501 -0.00000000000E+00  0.00000000000E+00  0.88169150830E+01  0.88169154517E+01  0.25500000000E-02 0. -1.
          2   -1    0    0  501    0  0.00000000000E+00 -0.00000000000E+00 -0.17734509533E+04  0.17734509533E+04  0.25500000000E-02 0.  1.
    5000001    1    1    2    0    0 -0.62802115262E+02  0.66529039344E+02 -0.62172278521E+03  0.63311803039E+03  0.77000000000E+02 0.  0.
   -5000001    1    1    2    0    0  0.62802115262E+02 -0.66529039344E+02 -0.11429112530E+04  0.11491498384E+04  0.77000000000E+02 0.  0.
<mgrwt>
<rscale>  0 0.25009092E+03</rscale>
<asrwt>0</asrwt>
<pdfrwt beam="1">  1        2 0.27283832E+00 0.25009092E+03</pdfrwt>
<pdfrwt beam="2">  1       -2 0.13564499E-02 0.25009092E+03</pdfrwt>
<totfact> 0.13324776E+04</totfact>
</mgrwt>
</event>
<event>
 4    1  0.5980424E-004  0.3369550E+03  0.7818608E-02  0.1068100E+00
          2   -1    0    0  501    0  0.00000000000E+00  0.00000000000E+00  0.87869306125E+03  0.87869306125E+03  0.25500000000E-02 0.  1.
         -2   -1    0    0    0  501 -0.00000000000E+00 -0.00000000000E+00 -0.32303274724E+02  0.32303274825E+02  0.25500000000E-02 0. -1.
    5000001    1    1    2    0    0  0.12372037980E+03 -0.59807273158E+02  0.58478016328E+03  0.60562404317E+03  0.77000000000E+02 0.  0.
   -5000001    1    1    2    0    0 -0.12372037980E+03  0.59807273158E+02  0.26160962324E+03  0.30537229290E+03  0.77000000000E+02 0.  0.
<mgrwt>
<rscale>  0 0.33695497E+03</rscale>
<asrwt>0</asrwt>
<pdfrwt beam="1">  1        2 0.13518352E+00 0.33695497E+03</pdfrwt>
<pdfrwt beam="2">  1       -2 0.49697355E-02 0.33695497E+03</pdfrwt>
<totfact> 0.62227924E+03</totfact>
</mgrwt>
</event>
<event>
 4    1  0.5980424E-004  0.2506495E+03  0.7818608E-02  0.1112895E+00
          2   -1    0    0  501    0  0.00000000000E+00  0.00000000000E+00  0.15284524955E+04  0.15284524955E+04  0.25500000000E-02 0.  1.
         -2   -1    0    0    0  501 -0.00000000000E+00 -0.00000000000E+00 -0.10275945465E+02  0.10275945781E+02  0.25500000000E-02 0. -1.
    5000001    1    1    2    0    0  0.34935138866E+02  0.79474345946E+02  0.10496798452E+04  0.10560745301E+04  0.77000000000E+02 0.  0.
   -5000001    1    1    2    0    0 -0.34935138866E+02 -0.79474345946E+02  0.46849670480E+03  0.48265391121E+03  0.77000000000E+02 0.  0.
<mgrwt>
<rscale>  0 0.25064951E+03</rscale>
<asrwt>0</asrwt>
<pdfrwt beam="1">  1        2 0.23514660E+00 0.25064951E+03</pdfrwt>
<pdfrwt beam="2">  1       -2 0.15809143E-02 0.25064951E+03</pdfrwt>
<totfact> 0.14345386E+04</totfact>
</mgrwt>
</event>
<event>
 4    1  0.5980424E-004  0.1918410E+03  0.7818608E-02  0.1156811E+00
         -2   -1    0    0    0  501 -0.00000000000E+00  0.00000000000E+00  0.34332846791E+02  0.34332846886E+02  0.25500000000E-02 0. -1.
          2   -1    0    0  501    0  0.00000000000E+00 -0.00000000000E+00 -0.26798650087E+03  0.26798650089E+03  0.25500000000E-02 0.  1.
    5000001    1    1    2    0    0 -0.23845845301E+02  0.46143594503E+02 -0.79075121471E+02  0.12198250074E+03  0.77000000000E+02 0.  0.
   -5000001    1    1    2    0    0  0.23845845301E+02 -0.46143594503E+02 -0.15457853261E+03  0.18033684703E+03  0.77000000000E+02 0.  0.
<mgrwt>
<rscale>  0 0.19184097E+03</rscale>
<asrwt>0</asrwt>
<pdfrwt beam="1">  1        2 0.41228691E-01 0.19184097E+03</pdfrwt>
<pdfrwt beam="2">  1       -2 0.52819766E-02 0.19184097E+03</pdfrwt>
<totfact> 0.21415069E+04</totfact>
</mgrwt>
</event>
<event>
 4    1  0.5980424E-004  0.5734577E+03  0.7818608E-02  0.9962056E-01
          2   -1    0    0  501    0  0.00000000000E+00  0.00000000000E+00  0.67579551126E+03  0.67579551127E+03  0.25500000000E-02 0.  1.
         -2   -1    0    0    0  501 -0.00000000000E+00 -0.00000000000E+00 -0.12165429243E+03  0.12165429246E+03  0.25500000000E-02 0. -1.
    5000001    1    1    2    0    0  0.16180376488E+03  0.18607974572E+03  0.10406366140E+03  0.27850381635E+03  0.77000000000E+02 0.  0.
   -5000001    1    1    2    0    0 -0.16180376488E+03 -0.18607974572E+03  0.45007755744E+03  0.51894598737E+03  0.77000000000E+02 0.  0.
<mgrwt>
<rscale>  0 0.57345767E+03</rscale>
<asrwt>0</asrwt>
<pdfrwt beam="1">  1        2 0.10396854E+00 0.57345767E+03</pdfrwt>
<pdfrwt beam="2">  1       -2 0.18716045E-01 0.57345767E+03</pdfrwt>
<totfact> 0.10304848E+03</totfact>
</mgrwt>
</event>
<event>
 4    1  0.5980424E-004  0.2611019E+03  0.7818608E-02  0.1106483E+00
         -2   -1    0    0    0  501 -0.00000000000E+00  0.00000000000E+00  0.99667096391E+01  0.99667099653E+01  0.25500000000E-02 0.  1.
          2   -1    0    0  501    0  0.00000000000E+00 -0.00000000000E+00 -0.17100479561E+04  0.17100479561E+04  0.25500000000E-02 0. -1.
    5000001    1    1    2    0    0  0.44416603109E+02  0.88271119373E+02 -0.60800617778E+03  0.62077784864E+03  0.77000000000E+02 0.  0.
   -5000001    1    1    2    0    0 -0.44416603109E+02 -0.88271119373E+02 -0.10920750687E+04  0.10992368174E+04  0.77000000000E+02 0.  0.
<mgrwt>
<rscale>  0 0.26110191E+03</rscale>
<asrwt>0</asrwt>
<pdfrwt beam="1">  1        2 0.26308407E+00 0.26110191E+03</pdfrwt>
<pdfrwt beam="2">  1       -2 0.15333413E-02 0.26110191E+03</pdfrwt>
<totfact> 0.12040979E+04</totfact>
</mgrwt>
</event>
<event>
 4    1  0.5980424E-004  0.3070281E+03  0.7818608E-02  0.1081779E+00
         -2   -1    0    0    0  501 -0.00000000000E+00  0.00000000000E+00  0.14619489184E+02  0.14619489406E+02  0.25500000000E-02 0. -1.
          2   -1    0    0  501    0  0.00000000000E+00 -0.00000000000E+00 -0.16119966089E+04  0.16119966089E+04  0.25500000000E-02 0.  1.
    5000001    1    1    2    0    0 -0.92605036887E+02  0.78125727440E+02 -0.10868421131E+04  0.10962819440E+04  0.77000000000E+02 0.  0.
   -5000001    1    1    2    0    0  0.92605036887E+02 -0.78125727440E+02 -0.51053500668E+03  0.53033415427E+03  0.77000000000E+02 0.  0.
<mgrwt>
<rscale>  0 0.30702812E+03</rscale>
<asrwt>0</asrwt>
<pdfrwt beam="1">  1        2 0.24799934E+00 0.30702812E+03</pdfrwt>
<pdfrwt beam="2">  1       -2 0.22491535E-02 0.30702812E+03</pdfrwt>
<totfact> 0.77429068E+03</totfact>
</mgrwt>
</event>
<event>
 4    1  0.5980424E-004  0.3540389E+03  0.7818608E-02  0.1060969E+00
         -2   -1    0    0    0  501 -0.00000000000E+00  0.00000000000E+00  0.41339343706E+03  0.41339343707E+03  0.25500000000E-02 0. -1.
          2   -1    0    0  501    0  0.00000000000E+00 -0.00000000000E+00 -0.75801595796E+02  0.75801595839E+02  0.25500000000E-02 0.  1.
    5000001    1    1    2    0    0  0.46748683451E+01  0.12009319007E+03  0.24122441910E+02  0.14475883703E+03  0.77000000000E+02 0.  0.
   -5000001    1    1    2    0    0 -0.46748683451E+01 -0.12009319007E+03  0.31346939935E+03  0.34443619587E+03  0.77000000000E+02 0.  0.
<mgrwt>
<rscale>  0 0.35403888E+03</rscale>
<asrwt>0</asrwt>
<pdfrwt beam="1">  1        2 0.11661784E-01 0.35403888E+03</pdfrwt>
<pdfrwt beam="2">  1       -2 0.63598990E-01 0.35403888E+03</pdfrwt>
<totfact> 0.12455074E+03</totfact>
</mgrwt>
</event>
<event>
 4    1  0.5980424E-004  0.1710300E+03  0.7818608E-02  0.1176778E+00
         -2   -1    0    0    0  501 -0.00000000000E+00  0.00000000000E+00  0.28480051915E+01  0.28480063331E+01  0.25500000000E-02 0. -1.
          2   -1    0    0  501    0  0.00000000000E+00 -0.00000000000E+00 -0.25676972622E+04  0.25676972622E+04  0.25500000000E-02 0.  1.
    5000001    1    1    2    0    0  0.68473776091E+01 -0.33266547503E+02 -0.15104948684E+04  0.15128374987E+04  0.77000000000E+02 0.  0.
   -5000001    1    1    2    0    0 -0.68473776091E+01  0.33266547503E+02 -0.10543543886E+04  0.10577077699E+04  0.77000000000E+02 0.  0.
<mgrwt>
<rscale>  0 0.17103002E+03</rscale>
<asrwt>0</asrwt>
<pdfrwt beam="1">  1        2 0.39502850E+00 0.17103002E+03</pdfrwt>
<pdfrwt beam="2">  1       -2 0.43815679E-03 0.17103002E+03</pdfrwt>
<totfact> 0.25462870E+04</totfact>
</mgrwt>
</event>
<event>
 4    1  0.5980424E-004  0.2174170E+03  0.7818608E-02  0.1135824E+00
          2   -1    0    0  501    0  0.00000000000E+00  0.00000000000E+00  0.73539049289E+03  0.73539049290E+03  0.25500000000E-02 0.  1.
         -2   -1    0    0    0  501 -0.00000000000E+00 -0.00000000000E+00 -0.16069743428E+02  0.16069743630E+02  0.25500000000E-02 0. -1.
    5000001    1    1    2    0    0  0.47840917030E+02  0.48691484376E+02  0.23849604039E+03  0.25974790716E+03  0.77000000000E+02 0.  0.
   -5000001    1    1    2    0    0 -0.47840917030E+02 -0.48691484376E+02  0.48082470908E+03  0.49171232937E+03  0.77000000000E+02 0.  0.
<mgrwt>
<rscale>  0 0.21741699E+03</rscale>
<asrwt>0</asrwt>
<pdfrwt beam="1">  1        2 0.11313701E+00 0.21741699E+03</pdfrwt>
<pdfrwt beam="2">  1       -2 0.24722681E-02 0.21741699E+03</pdfrwt>
<totfact> 0.21861241E+04</totfact>
</mgrwt>
</event>
<event>
 4    1  0.5980424E-004  0.2901493E+03  0.7818608E-02  0.1090271E+00
         -2   -1    0    0    0  501 -0.00000000000E+00  0.00000000000E+00  0.18731799861E+02  0.18731800035E+02  0.25500000000E-02 0. -1.
          2   -1    0    0  501    0  0.00000000000E+00 -0.00000000000E+00 -0.11235786213E+04  0.11235786213E+04  0.25500000000E-02 0.  1.
    5000001    1    1    2    0    0  0.68414201455E+02  0.85034130565E+02 -0.77535298534E+03  0.78677351137E+03  0.77000000000E+02 0.  0.
   -5000001    1    1    2    0    0 -0.68414201455E+02 -0.85034130565E+02 -0.32949383612E+03  0.35553690999E+03  0.77000000000E+02 0.  0.
<mgrwt>
<rscale>  0 0.29014927E+03</rscale>
<asrwt>0</asrwt>
<pdfrwt beam="1">  1        2 0.17285820E+00 0.29014927E+03</pdfrwt>
<pdfrwt beam="2">  1       -2 0.28818162E-02 0.29014927E+03</pdfrwt>
<totfact> 0.99529697E+03</totfact>
</mgrwt>
</event>
<event>
 4    1  0.5980424E-004  0.1751860E+03  0.7818608E-02  0.1172545E+00
         -2   -1    0    0    0  501 -0.00000000000E+00  0.00000000000E+00  0.72374539217E+01  0.72374543709E+01  0.25500000000E-02 0. -1.
          2   -1    0    0  501    0  0.00000000000E+00 -0.00000000000E+00 -0.10601155207E+04  0.10601155207E+04  0.25500000000E-02 0.  1.
    5000001    1    1    2    0    0  0.35332762257E+02 -0.13671299557E+02 -0.41947315146E+03  0.42816122351E+03  0.77000000000E+02 0.  0.
   -5000001    1    1    2    0    0 -0.35332762257E+02  0.13671299557E+02 -0.63340491531E+03  0.63919175156E+03  0.77000000000E+02 0.  0.
<mgrwt>
<rscale>  0 0.17518604E+03</rscale>
<asrwt>0</asrwt>
<pdfrwt beam="1">  1        2 0.16309457E+00 0.17518604E+03</pdfrwt>
<pdfrwt beam="2">  1       -2 0.11134553E-02 0.17518604E+03</pdfrwt>
<totfact> 0.42458834E+04</totfact>
</mgrwt>
</event>
<event>
 4    1  0.5980424E-004  0.4563998E+03  0.7818608E-02  0.1025831E+00
          2   -1    0    0  501    0  0.00000000000E+00  0.00000000000E+00  0.26402489600E+02  0.26402489723E+02  0.25500000000E-02 0.  1.
         -2   -1    0    0    0  501 -0.00000000000E+00 -0.00000000000E+00 -0.19723588899E+04  0.19723588899E+04  0.25500000000E-02 0. -1.
    5000001    1    1    2    0    0 -0.12455971583E+03 -0.17216834751E+03 -0.83524438254E+03  0.86528564143E+03  0.77000000000E+02 0.  0.
   -5000001    1    1    2    0    0  0.12455971583E+03  0.17216834751E+03 -0.11107120178E+04  0.11334757382E+04  0.77000000000E+02 0.  0.
<mgrwt>
<rscale>  0 0.45639976E+03</rscale>
<asrwt>0</asrwt>
<pdfrwt beam="1">  1        2 0.40619230E-02 0.45639976E+03</pdfrwt>
<pdfrwt beam="2">  1       -2 0.30343971E+00 0.45639976E+03</pdfrwt>
<totfact> 0.71079218E+01</totfact>
</mgrwt>
</event>
<event>
 4    1  0.5980424E-004  0.2568620E+03  0.7818608E-02  0.1109043E+00
         -2   -1    0    0    0  501 -0.00000000000E+00  0.00000000000E+00  0.76046080980E+02  0.76046081022E+02  0.25500000000E-02 0. -1.
          2   -1    0    0  501    0  0.00000000000E+00 -0.00000000000E+00 -0.21690168929E+03  0.21690168930E+03  0.25500000000E-02 0.  1.
    5000001    1    1    2    0    0  0.40060608150E+02  0.78742834722E+02 -0.13034665957E+03  0.17528416359E+03  0.77000000000E+02 0.  0.
   -5000001    1    1    2    0    0 -0.40060608150E+02 -0.78742834722E+02 -0.10508948738E+02  0.11766360673E+03  0.77000000000E+02 0.  0.
<mgrwt>
<rscale>  0 0.25686201E+03</rscale>
<asrwt>0</asrwt>
<pdfrwt beam="1">  1        2 0.33369490E-01 0.25686201E+03</pdfrwt>
<pdfrwt beam="2">  1       -2 0.11699397E-01 0.25686201E+03</pdfrwt>
<totfact> 0.79326889E+03</totfact>
</mgrwt>
</event>
<event>
 4    1  0.5980424E-004  0.2109656E+03  0.7818608E-02  0.1140804E+00
         -2   -1    0    0    0  501 -0.00000000000E+00  0.00000000000E+00  0.11161779918E+02  0.11161780209E+02  0.25500000000E-02 0. -1.
          2   -1    0    0  501    0  0.00000000000E+00 -0.00000000000E+00 -0.99685050247E+03  0.99685050247E+03  0.25500000000E-02 0.  1.
    5000001    1    1    2    0    0  0.48238602470E+02  0.19112913234E+02 -0.73200468813E+03  0.73786999510E+03  0.77000000000E+02 0.  0.
   -5000001    1    1    2    0    0 -0.48238602470E+02 -0.19112913234E+02 -0.25368403442E+03  0.27014228758E+03  0.77000000000E+02 0.  0.
<mgrwt>
<rscale>  0 0.21096565E+03</rscale>
<asrwt>0</asrwt>
<pdfrwt beam="1">  1        2 0.15336155E+00 0.21096565E+03</pdfrwt>
<pdfrwt beam="2">  1       -2 0.17171977E-02 0.21096565E+03</pdfrwt>
<totfact> 0.25044160E+04</totfact>
</mgrwt>
</event>
<event>
 4    1  0.5980424E-004  0.3313597E+03  0.7818608E-02  0.1070537E+00
         -2   -1    0    0    0  501 -0.00000000000E+00  0.00000000000E+00  0.38290899096E+02  0.38290899181E+02  0.25500000000E-02 0. -1.
          2   -1    0    0  501    0  0.00000000000E+00 -0.00000000000E+00 -0.71687556066E+03  0.71687556067E+03  0.25500000000E-02 0.  1.
    5000001    1    1    2    0    0  0.21117426809E+02  0.14212553353E+03 -0.40671343904E+03  0.43816713077E+03  0.77000000000E+02 0.  0.
   -5000001    1    1    2    0    0 -0.21117426809E+02 -0.14212553353E+03 -0.27187122253E+03  0.31699932907E+03  0.77000000000E+02 0.  0.
<mgrwt>
<rscale>  0 0.33135968E+03</rscale>
<asrwt>0</asrwt>
<pdfrwt beam="1">  1        2 0.11028854E+00 0.33135968E+03</pdfrwt>
<pdfrwt beam="2">  1       -2 0.58909081E-02 0.33135968E+03</pdfrwt>
<totfact> 0.62199647E+03</totfact>
</mgrwt>
</event>
<event>
 4    1  0.5980424E-004  0.3069738E+03  0.7818608E-02  0.1081806E+00
          2   -1    0    0  501    0  0.00000000000E+00  0.00000000000E+00  0.21290419923E+03  0.21290419924E+03  0.25500000000E-02 0.  1.
         -2   -1    0    0    0  501 -0.00000000000E+00 -0.00000000000E+00 -0.11065178855E+03  0.11065178858E+03  0.25500000000E-02 0. -1.
    5000001    1    1    2    0    0  0.11006099985E+03 -0.66882541535E+02  0.85158629992E+02  0.17253315714E+03  0.77000000000E+02 0.  0.
   -5000001    1    1    2    0    0 -0.11006099985E+03  0.66882541535E+02  0.17093780687E+02  0.15102283069E+03  0.77000000000E+02 0.  0.
<mgrwt>
<rscale>  0 0.30697381E+03</rscale>
<asrwt>0</asrwt>
<pdfrwt beam="1">  1        2 0.32754492E-01 0.30697381E+03</pdfrwt>
<pdfrwt beam="2">  1       -2 0.17023352E-01 0.30697381E+03</pdfrwt>
<totfact> 0.43982955E+03</totfact>
</mgrwt>
</event>
<event>
 4    1  0.5980424E-004  0.2784958E+03  0.7818608E-02  0.1096513E+00
          2   -1    0    0  501    0  0.00000000000E+00  0.00000000000E+00  0.12174996759E+04  0.12174996759E+04  0.25500000000E-02 0.  1.
         -2   -1    0    0    0  501 -0.00000000000E+00 -0.00000000000E+00 -0.15926061954E+02  0.15926062158E+02  0.25500000000E-02 0. -1.
    5000001    1    1    2    0    0  0.55007257174E+02  0.10185407956E+03  0.56621779911E+03  0.58303657509E+03  0.77000000000E+02 0.  0.
   -5000001    1    1    2    0    0 -0.55007257174E+02 -0.10185407956E+03  0.63535581487E+03  0.65038916300E+03  0.77000000000E+02 0.  0.
<mgrwt>
<rscale>  0 0.27849578E+03</rscale>
<asrwt>0</asrwt>
<pdfrwt beam="1">  1        2 0.18730771E+00 0.27849578E+03</pdfrwt>
<pdfrwt beam="2">  1       -2 0.24501625E-02 0.27849578E+03</pdfrwt>
<totfact> 0.11172185E+04</totfact>
</mgrwt>
</event>
<event>
 4    1  0.5980424E-004  0.2999521E+03  0.7818608E-02  0.1085265E+00
          2   -1    0    0  501    0  0.00000000000E+00  0.00000000000E+00  0.78629517365E+03  0.78629517366E+03  0.25500000000E-02 0.  1.
         -2   -1    0    0    0  501 -0.00000000000E+00 -0.00000000000E+00 -0.28606072169E+02  0.28606072283E+02  0.25500000000E-02 0. -1.
    5000001    1    1    2    0    0 -0.12031497268E+03 -0.30312314907E+02  0.47174412190E+03  0.49382795145E+03  0.77000000000E+02 0.  0.
   -5000001    1    1    2    0    0  0.12031497268E+03  0.30312314907E+02  0.28594497958E+03  0.32107329449E+03  0.77000000000E+02 0.  0.
<mgrwt>
<rscale>  0 0.29995211E+03</rscale>
<asrwt>0</asrwt>
<pdfrwt beam="1">  1        2 0.12096848E+00 0.29995211E+03</pdfrwt>
<pdfrwt beam="2">  1       -2 0.44009345E-02 0.29995211E+03</pdfrwt>
<totfact> 0.86270390E+03</totfact>
</mgrwt>
</event>
<event>
 4    1  0.5980424E-004  0.2392896E+03  0.7818608E-02  0.1120267E+00
          2   -1    0    0  501    0  0.00000000000E+00  0.00000000000E+00  0.29386193781E+04  0.29386193781E+04  0.25500000000E-02 0.  1.
         -2   -1    0    0    0  501 -0.00000000000E+00 -0.00000000000E+00 -0.48712936365E+01  0.48712943039E+01  0.25500000000E-02 0. -1.
    5000001    1    1    2    0    0  0.18075911196E+02 -0.86861406282E+02  0.17458201041E+04  0.17497681213E+04  0.77000000000E+02 0.  0.
   -5000001    1    1    2    0    0 -0.18075911196E+02  0.86861406282E+02  0.11879279804E+04  0.11937225511E+04  0.77000000000E+02 0.  0.
<mgrwt>
<rscale>  0 0.23928961E+03</rscale>
<asrwt>0</asrwt>
<pdfrwt beam="1">  1        2 0.45209663E+00 0.23928961E+03</pdfrwt>
<pdfrwt beam="2">  1       -2 0.74942762E-03 0.23928961E+03</pdfrwt>
<totfact> 0.73422609E+03</totfact>
</mgrwt>
</event>
<event>
 4    1  0.5980424E-004  0.2311130E+03  0.7818608E-02  0.1125859E+00
         -2   -1    0    0    0  501 -0.00000000000E+00  0.00000000000E+00  0.11835649377E+02  0.11835649652E+02  0.25500000000E-02 0. -1.
          2   -1    0    0  501    0  0.00000000000E+00 -0.00000000000E+00 -0.11282275836E+04  0.11282275836E+04  0.25500000000E-02 0.  1.
    5000001    1    1    2    0    0  0.53078167494E+02 -0.64904709308E+02 -0.65616057262E+03  0.66596216876E+03  0.77000000000E+02 0.  0.
   -5000001    1    1    2    0    0 -0.53078167494E+02  0.64904709308E+02 -0.46023136159E+03  0.47410106449E+03  0.77000000000E+02 0.  0.
<mgrwt>
<rscale>  0 0.23111301E+03</rscale>
<asrwt>0</asrwt>
<pdfrwt beam="1">  1        2 0.17357339E+00 0.23111301E+03</pdfrwt>
<pdfrwt beam="2">  1       -2 0.18208700E-02 0.23111301E+03</pdfrwt>
<totfact> 0.19313438E+04</totfact>
</mgrwt>
</event>
<event>
 4    1  0.5980424E-004  0.2789306E+03  0.7818608E-02  0.1096274E+00
          2   -1    0    0  501    0  0.00000000000E+00  0.00000000000E+00  0.62774316365E+03  0.62774316365E+03  0.25500000000E-02 0.  1.
         -2   -1    0    0    0  501 -0.00000000000E+00 -0.00000000000E+00 -0.30984913650E+02  0.30984913755E+02  0.25500000000E-02 0. -1.
    5000001    1    1    2    0    0  0.10316408885E+03  0.44301733045E+02  0.22689982531E+03  0.26460915235E+03  0.77000000000E+02 0.  0.
   -5000001    1    1    2    0    0 -0.10316408885E+03 -0.44301733045E+02  0.36985842468E+03  0.39411892506E+03  0.77000000000E+02 0.  0.
<mgrwt>
<rscale>  0 0.27893058E+03</rscale>
<asrwt>0</asrwt>
<pdfrwt beam="1">  1        2 0.96575878E-01 0.27893058E+03</pdfrwt>
<pdfrwt beam="2">  1       -2 0.47669095E-02 0.27893058E+03</pdfrwt>
<totfact> 0.10035305E+04</totfact>
</mgrwt>
</event>
<event>
 4    1  0.5980424E-004  0.2465706E+03  0.7818608E-02  0.1115492E+00
          2   -1    0    0  501    0  0.00000000000E+00  0.00000000000E+00  0.12758799333E+04  0.12758799333E+04  0.25500000000E-02 0.  1.
         -2   -1    0    0    0  501 -0.00000000000E+00 -0.00000000000E+00 -0.11912768406E+02  0.11912768679E+02  0.25500000000E-02 0. -1.
    5000001    1    1    2    0    0 -0.31987155160E+02  0.80441620312E+02  0.85210094692E+03  0.85994130969E+03  0.77000000000E+02 0.  0.
   -5000001    1    1    2    0    0  0.31987155160E+02 -0.80441620312E+02  0.41186621792E+03  0.42785139224E+03  0.77000000000E+02 0.  0.
<mgrwt>
<rscale>  0 0.24657058E+03</rscale>
<asrwt>0</asrwt>
<pdfrwt beam="1">  1        2 0.19628922E+00 0.24657058E+03</pdfrwt>
<pdfrwt beam="2">  1       -2 0.18327336E-02 0.24657058E+03</pdfrwt>
<totfact> 0.15826924E+04</totfact>
</mgrwt>
</event>
<event>
 4    1  0.5980424E-004  0.1928886E+03  0.7818608E-02  0.1155882E+00
         -2   -1    0    0    0  501 -0.00000000000E+00  0.00000000000E+00  0.36828721525E+02  0.36828721613E+02  0.25500000000E-02 0. -1.
          2   -1    0    0  501    0  0.00000000000E+00 -0.00000000000E+00 -0.25256110747E+03  0.25256110748E+03  0.25500000000E-02 0.  1.
    5000001    1    1    2    0    0  0.51817010425E+02 -0.26167692856E+02 -0.10537733451E+03  0.14283953706E+03  0.77000000000E+02 0.  0.
   -5000001    1    1    2    0    0 -0.51817010425E+02  0.26167692856E+02 -0.11035505144E+03  0.14655029204E+03  0.77000000000E+02 0.  0.
<mgrwt>
<rscale>  0 0.19288860E+03</rscale>
<asrwt>0</asrwt>
<pdfrwt beam="1">  1        2 0.38855554E-01 0.19288860E+03</pdfrwt>
<pdfrwt beam="2">  1       -2 0.56659573E-02 0.19288860E+03</pdfrwt>
<totfact> 0.20522018E+04</totfact>
</mgrwt>
</event>
<event>
 4    1  0.5980424E-004  0.3996995E+03  0.7818608E-02  0.1043884E+00
         -2   -1    0    0    0  501 -0.00000000000E+00  0.00000000000E+00  0.31271081421E+02  0.31271081525E+02  0.25500000000E-02 0. -1.
          2   -1    0    0  501    0  0.00000000000E+00 -0.00000000000E+00 -0.12772160674E+04  0.12772160674E+04  0.25500000000E-02 0.  1.
    5000001    1    1    2    0    0 -0.14474044978E+03  0.34030698074E+02 -0.98013412808E+03  0.99433384496E+03  0.77000000000E+02 0.  0.
   -5000001    1    1    2    0    0  0.14474044978E+03 -0.34030698074E+02 -0.26581085789E+03  0.31415330395E+03  0.77000000000E+02 0.  0.
<mgrwt>
<rscale>  0 0.39969953E+03</rscale>
<asrwt>0</asrwt>
<pdfrwt beam="1">  1        2 0.19649474E+00 0.39969953E+03</pdfrwt>
<pdfrwt beam="2">  1       -2 0.48109366E-02 0.39969953E+03</pdfrwt>
<totfact> 0.37627973E+03</totfact>
</mgrwt>
</event>
<event>
 4    1  0.5980424E-004  0.1803307E+03  0.7818608E-02  0.1167483E+00
          2   -1    0    0  501    0  0.00000000000E+00  0.00000000000E+00  0.55902625066E+03  0.55902625067E+03  0.25500000000E-02 0.  1.
         -2   -1    0    0    0  501 -0.00000000000E+00 -0.00000000000E+00 -0.14542771395E+02  0.14542771619E+02  0.25500000000E-02 0. -1.
    5000001    1    1    2    0    0 -0.22315785796E+02  0.34006046219E+02  0.34658910899E+03  0.35736174382E+03  0.77000000000E+02 0.  0.
   -5000001    1    1    2    0    0  0.22315785796E+02 -0.34006046219E+02  0.19789437028E+03  0.21620727847E+03  0.77000000000E+02 0.  0.
<mgrwt>
<rscale>  0 0.18033071E+03</rscale>
<asrwt>0</asrwt>
<pdfrwt beam="1">  1        2 0.86004033E-01 0.18033071E+03</pdfrwt>
<pdfrwt beam="2">  1       -2 0.22373496E-02 0.18033071E+03</pdfrwt>
<totfact> 0.34445973E+04</totfact>
</mgrwt>
</event>
<event>
 4    1  0.5980424E-004  0.1682021E+03  0.7818608E-02  0.1179736E+00
         -2   -1    0    0    0  501 -0.00000000000E+00  0.00000000000E+00  0.29622180888E+02  0.29622180998E+02  0.25500000000E-02 0. -1.
          2   -1    0    0  501    0  0.00000000000E+00 -0.00000000000E+00 -0.23877326761E+03  0.23877326762E+03  0.25500000000E-02 0.  1.
    5000001    1    1    2    0    0  0.14596056207E+02  0.30450158067E+02 -0.10765645525E+03  0.13659857005E+03  0.77000000000E+02 0.  0.
   -5000001    1    1    2    0    0 -0.14596056207E+02 -0.30450158067E+02 -0.10149463147E+03  0.13179687857E+03  0.77000000000E+02 0.  0.
<mgrwt>
<rscale>  0 0.16820208E+03</rscale>
<asrwt>0</asrwt>
<pdfrwt beam="1">  1        2 0.36734347E-01 0.16820208E+03</pdfrwt>
<pdfrwt beam="2">  1       -2 0.45572588E-02 0.16820208E+03</pdfrwt>
<totfact> 0.29933113E+04</totfact>
</mgrwt>
</event>
<event>
 4    1  0.5980424E-004  0.2519175E+03  0.7818608E-02  0.1112099E+00
         -2   -1    0    0    0  501 -0.00000000000E+00  0.00000000000E+00  0.11212213190E+02  0.11212213480E+02  0.25500000000E-02 0. -1.
          2   -1    0    0  501    0  0.00000000000E+00 -0.00000000000E+00 -0.14150292047E+04  0.14150292047E+04  0.25500000000E-02 0.  1.
    5000001    1    1    2    0    0  0.33340682619E+02 -0.93823214025E+02 -0.72859154647E+03  0.73938422907E+03  0.77000000000E+02 0.  0.
   -5000001    1    1    2    0    0 -0.33340682619E+02  0.93823214025E+02 -0.67522544504E+03  0.68685718912E+03  0.77000000000E+02 0.  0.
<mgrwt>
<rscale>  0 0.25191752E+03</rscale>
<asrwt>0</asrwt>
<pdfrwt beam="1">  1        2 0.21769666E+00 0.25191752E+03</pdfrwt>
<pdfrwt beam="2">  1       -2 0.17249570E-02 0.25191752E+03</pdfrwt>
<totfact> 0.14526385E+04</totfact>
</mgrwt>
</event>
<event>
 4    1  0.5980424E-004  0.3347156E+03  0.7818608E-02  0.1069069E+00
          2   -1    0    0  501    0  0.00000000000E+00  0.00000000000E+00  0.34926001023E+04  0.34926001023E+04  0.25500000000E-02 0.  1.
         -2   -1    0    0    0  501 -0.00000000000E+00 -0.00000000000E+00 -0.80194216665E+01  0.80194220719E+01  0.25500000000E-02 0. -1.
    5000001    1    1    2    0    0 -0.14501435920E+03 -0.10024246010E+02  0.14199408080E+04  0.14294371438E+04  0.77000000000E+02 0.  0.
   -5000001    1    1    2    0    0  0.14501435920E+03  0.10024246010E+02  0.20646398727E+04  0.20711823806E+04  0.77000000000E+02 0.  0.
<mgrwt>
<rscale>  0 0.33471560E+03</rscale>
<asrwt>0</asrwt>
<pdfrwt beam="1">  1        2 0.53732387E+00 0.33471560E+03</pdfrwt>
<pdfrwt beam="2">  1       -2 0.12337554E-02 0.33471560E+03</pdfrwt>
<totfact> 0.15948448E+03</totfact>
</mgrwt>
</event>
<event>
 4    1  0.5980424E-004  0.4493873E+03  0.7818608E-02  0.1027905E+00
          2   -1    0    0  501    0  0.00000000000E+00  0.00000000000E+00  0.65837987178E+03  0.65837987178E+03  0.25500000000E-02 0.  1.
         -2   -1    0    0    0  501 -0.00000000000E+00 -0.00000000000E+00 -0.76684046348E+02  0.76684046391E+02  0.25500000000E-02 0. -1.
    5000001    1    1    2    0    0 -0.57297444154E+02  0.19257906583E+03  0.18498700732E+03  0.28375850045E+03  0.77000000000E+02 0.  0.
   -5000001    1    1    2    0    0  0.57297444154E+02 -0.19257906583E+03  0.39670881811E+03  0.45130541772E+03  0.77000000000E+02 0.  0.
<mgrwt>
<rscale>  0 0.44938728E+03</rscale>
<asrwt>0</asrwt>
<pdfrwt beam="1">  1        2 0.10128921E+00 0.44938728E+03</pdfrwt>
<pdfrwt beam="2">  1       -2 0.11797546E-01 0.44938728E+03</pdfrwt>
<totfact> 0.23083418E+03</totfact>
</mgrwt>
</event>
<event>
 4    1  0.5980424E-004  0.1790630E+03  0.7818608E-02  0.1168713E+00
         -2   -1    0    0    0  501 -0.00000000000E+00  0.00000000000E+00  0.11505743239E+03  0.11505743241E+03  0.25500000000E-02 0. -1.
          2   -1    0    0  501    0  0.00000000000E+00 -0.00000000000E+00 -0.69668586315E+02  0.69668586362E+02  0.25500000000E-02 0.  1.
    5000001    1    1    2    0    0  0.40830800876E+02  0.15905993905E+02  0.93735109668E+01  0.89089941352E+02  0.77000000000E+02 0.  0.
   -5000001    1    1    2    0    0 -0.40830800876E+02 -0.15905993905E+02  0.36015335104E+02  0.95636077423E+02  0.77000000000E+02 0.  0.
<mgrwt>
<rscale>  0 0.17906299E+03</rscale>
<asrwt>0</asrwt>
<pdfrwt beam="1">  1        2 0.10718244E-01 0.17906299E+03</pdfrwt>
<pdfrwt beam="2">  1       -2 0.17701143E-01 0.17906299E+03</pdfrwt>
<totfact> 0.14539280E+04</totfact>
</mgrwt>
</event>
<event>
 4    1  0.5980424E-004  0.2520509E+03  0.7818608E-02  0.1112016E+00
         -2   -1    0    0    0  501 -0.00000000000E+00  0.00000000000E+00  0.29025905167E+02  0.29025905279E+02  0.25500000000E-02 0. -1.
          2   -1    0    0  501    0  0.00000000000E+00 -0.00000000000E+00 -0.54718064994E+03  0.54718064994E+03  0.25500000000E-02 0.  1.
    5000001    1    1    2    0    0 -0.54316979614E+02  0.31644856968E+02 -0.43618059075E+03  0.44736365408E+03  0.77000000000E+02 0.  0.
   -5000001    1    1    2    0    0  0.54316979614E+02 -0.31644856968E+02 -0.81974154024E+02  0.12884290114E+03  0.77000000000E+02 0.  0.
<mgrwt>
<rscale>  0 0.25205090E+03</rscale>
<asrwt>0</asrwt>
<pdfrwt beam="1">  1        2 0.84181631E-01 0.25205090E+03</pdfrwt>
<pdfrwt beam="2">  1       -2 0.44655243E-02 0.25205090E+03</pdfrwt>
<totfact> 0.12926416E+04</totfact>
</mgrwt>
</event>
<event>
 4    1  0.5980424E-004  0.5899281E+03  0.7818608E-02  0.9926525E-01
          2   -1    0    0  501    0  0.00000000000E+00  0.00000000000E+00  0.43415405172E+03  0.43415405173E+03  0.25500000000E-02 0. -1.
         -2   -1    0    0    0  501 -0.00000000000E+00 -0.00000000000E+00 -0.20039840333E+03  0.20039840334E+03  0.25500000000E-02 0.  1.
    5000001    1    1    2    0    0  0.22697652707E+02  0.28364674692E+03  0.12785351831E+03  0.32131944015E+03  0.77000000000E+02 0.  0.
   -5000001    1    1    2    0    0 -0.22697652707E+02 -0.28364674692E+03  0.10590213008E+03  0.31323301491E+03  0.77000000000E+02 0.  0.
<mgrwt>
<rscale>  0 0.58992806E+03</rscale>
<asrwt>0</asrwt>
<pdfrwt beam="1">  1        2 0.66792930E-01 0.58992806E+03</pdfrwt>
<pdfrwt beam="2">  1       -2 0.30830524E-01 0.58992806E+03</pdfrwt>
<totfact> 0.70970912E+02</totfact>
</mgrwt>
</event>
<event>
 4    1  0.5980424E-004  0.3406516E+03  0.7818608E-02  0.1066519E+00
          2   -1    0    0  501    0  0.00000000000E+00  0.00000000000E+00  0.16329240271E+04  0.16329240271E+04  0.25500000000E-02 0.  1.
         -2   -1    0    0    0  501 -0.00000000000E+00 -0.00000000000E+00 -0.17766212430E+02  0.17766212613E+02  0.25500000000E-02 0. -1.
    5000001    1    1    2    0    0  0.34898420677E+02 -0.14199520759E+03  0.10074501388E+04  0.10209139636E+04  0.77000000000E+02 0.  0.
   -5000001    1    1    2    0    0 -0.34898420677E+02  0.14199520759E+03  0.60770767584E+03  0.62977627617E+03  0.77000000000E+02 0.  0.
<mgrwt>
<rscale>  0 0.34065158E+03</rscale>
<asrwt>0</asrwt>
<pdfrwt beam="1">  1        2 0.25121911E+00 0.34065158E+03</pdfrwt>
<pdfrwt beam="2">  1       -2 0.27332632E-02 0.34065158E+03</pdfrwt>
<totfact> 0.56516964E+03</totfact>
</mgrwt>
</event>
<event>
 4    1  0.5980424E-004  0.2864969E+03  0.7818608E-02  0.1092192E+00
         -2   -1    0    0    0  501 -0.00000000000E+00  0.00000000000E+00  0.37141992500E+02  0.37141992588E+02  0.25500000000E-02 0. -1.
          2   -1    0    0  501    0  0.00000000000E+00 -0.00000000000E+00 -0.55247764251E+03  0.55247764252E+03  0.25500000000E-02 0.  1.
    5000001    1    1    2    0    0  0.11014157445E+03 -0.15946735975E+02 -0.16101359925E+03  0.21033269825E+03  0.77000000000E+02 0.  0.
   -5000001    1    1    2    0    0 -0.11014157445E+03  0.15946735975E+02 -0.35432205077E+03  0.37928693686E+03  0.77000000000E+02 0.  0.
<mgrwt>
<rscale>  0 0.28649691E+03</rscale>
<asrwt>0</asrwt>
<pdfrwt beam="1">  1        2 0.84996554E-01 0.28649691E+03</pdfrwt>
<pdfrwt beam="2">  1       -2 0.57141531E-02 0.28649691E+03</pdfrwt>
<totfact> 0.88346806E+03</totfact>
</mgrwt>
</event>
<event>
 4    1  0.5980424E-004  0.1796101E+03  0.7818608E-02  0.1168181E+00
         -2   -1    0    0    0  501 -0.00000000000E+00  0.00000000000E+00  0.30560648518E+01  0.30560659156E+01  0.25500000000E-02 0. -1.
          2   -1    0    0  501    0  0.00000000000E+00 -0.00000000000E+00 -0.26389964098E+04  0.26389964098E+04  0.25500000000E-02 0.  1.
    5000001    1    1    2    0    0 -0.33110986960E+02 -0.11959353195E+01 -0.17919355349E+04  0.17938951276E+04  0.77000000000E+02 0.  0.
   -5000001    1    1    2    0    0  0.33110986960E+02  0.11959353195E+01 -0.84400481002E+03  0.84815734805E+03  0.77000000000E+02 0.  0.
<mgrwt>
<rscale>  0 0.17961008E+03</rscale>
<asrwt>0</asrwt>
<pdfrwt beam="1">  1        2 0.40599763E+00 0.17961008E+03</pdfrwt>
<pdfrwt beam="2">  1       -2 0.47016602E-03 0.17961008E+03</pdfrwt>
<totfact> 0.21090554E+04</totfact>
</mgrwt>
</event>
<event>
 4    1  0.5980424E-004  0.3429509E+03  0.7818608E-02  0.1065546E+00
         -2   -1    0    0    0  501 -0.00000000000E+00  0.00000000000E+00  0.17030585552E+03  0.17030585554E+03  0.25500000000E-02 0. -1.
          2   -1    0    0  501    0  0.00000000000E+00 -0.00000000000E+00 -0.17265306808E+03  0.17265306810E+03  0.25500000000E-02 0.  1.
    5000001    1    1    2    0    0 -0.13601413403E+02 -0.13398819470E+03 -0.74230048207E+02  0.17197946047E+03  0.77000000000E+02 0.  0.
   -5000001    1    1    2    0    0  0.13601413403E+02  0.13398819470E+03  0.71882835653E+02  0.17097946317E+03  0.77000000000E+02 0.  0.
<mgrwt>
<rscale>  0 0.34295089E+03</rscale>
<asrwt>0</asrwt>
<pdfrwt beam="1">  1        2 0.26562011E-01 0.34295089E+03</pdfrwt>
<pdfrwt beam="2">  1       -2 0.26200901E-01 0.34295089E+03</pdfrwt>
<totfact> 0.26357815E+03</totfact>
</mgrwt>
</event>
<event>
 4    1  0.5980424E-004  0.4334054E+03  0.7818608E-02  0.1032790E+00
          2   -1    0    0  501    0  0.00000000000E+00  0.00000000000E+00  0.89467451927E+02  0.89467451964E+02  0.25500000000E-02 0.  1.
         -2   -1    0    0    0  501 -0.00000000000E+00 -0.00000000000E+00 -0.52488421615E+03  0.52488421616E+03  0.25500000000E-02 0. -1.
    5000001    1    1    2    0    0 -0.15514844801E+02  0.16367812031E+03 -0.38542802062E+03  0.42604576815E+03  0.77000000000E+02 0.  0.
   -5000001    1    1    2    0    0  0.15514844801E+02 -0.16367812031E+03 -0.49988743598E+02  0.18830589997E+03  0.77000000000E+02 0.  0.
<mgrwt>
<rscale>  0 0.43340537E+03</rscale>
<asrwt>0</asrwt>
<pdfrwt beam="1">  1        2 0.13764224E-01 0.43340537E+03</pdfrwt>
<pdfrwt beam="2">  1       -2 0.80751417E-01 0.43340537E+03</pdfrwt>
<totfact> 0.60676248E+02</totfact>
</mgrwt>
</event>
<event>
 4    1  0.5980424E-004  0.1787309E+03  0.7818608E-02  0.1169037E+00
         -2   -1    0    0    0  501 -0.00000000000E+00  0.00000000000E+00  0.14984513308E+02  0.14984513525E+02  0.25500000000E-02 0. -1.
          2   -1    0    0  501    0  0.00000000000E+00 -0.00000000000E+00 -0.53296223443E+03  0.53296223444E+03  0.25500000000E-02 0.  1.
    5000001    1    1    2    0    0 -0.24559469935E+02 -0.38056502903E+02 -0.26631775630E+03  0.28090142808E+03  0.77000000000E+02 0.  0.
   -5000001    1    1    2    0    0  0.24559469935E+02  0.38056502903E+02 -0.25165996482E+03  0.26704531988E+03  0.77000000000E+02 0.  0.
<mgrwt>
<rscale>  0 0.17873086E+03</rscale>
<asrwt>0</asrwt>
<pdfrwt beam="1">  1        2 0.81994175E-01 0.17873086E+03</pdfrwt>
<pdfrwt beam="2">  1       -2 0.23053102E-02 0.17873086E+03</pdfrwt>
<totfact> 0.34760390E+04</totfact>
</mgrwt>
</event>
<event>
 4    1  0.5980424E-004  0.2164225E+03  0.7818608E-02  0.1136579E+00
         -2   -1    0    0    0  501 -0.00000000000E+00  0.00000000000E+00  0.25967913013E+02  0.25967913139E+02  0.25500000000E-02 0. -1.
          2   -1    0    0  501    0  0.00000000000E+00 -0.00000000000E+00 -0.45092858104E+03  0.45092858105E+03  0.25500000000E-02 0.  1.
    5000001    1    1    2    0    0 -0.40344568939E+02  0.74065065498E+01 -0.35354387631E+03  0.36414943781E+03  0.77000000000E+02 0.  0.
   -5000001    1    1    2    0    0  0.40344568939E+02 -0.74065065498E+01 -0.71416791718E+02  0.11274705638E+03  0.77000000000E+02 0.  0.
<mgrwt>
<rscale>  0 0.21642250E+03</rscale>
<asrwt>0</asrwt>
<pdfrwt beam="1">  1        2 0.69373622E-01 0.21642250E+03</pdfrwt>
<pdfrwt beam="2">  1       -2 0.39950639E-02 0.21642250E+03</pdfrwt>
<totfact> 0.18797092E+04</totfact>
</mgrwt>
</event>
<event>
 4    1  0.5980424E-004  0.2610206E+03  0.7818608E-02  0.1106532E+00
          2   -1    0    0  501    0  0.00000000000E+00  0.00000000000E+00  0.93559048429E+03  0.93559048429E+03  0.25500000000E-02 0.  1.
         -2   -1    0    0    0  501 -0.00000000000E+00 -0.00000000000E+00 -0.18205548622E+02  0.18205548800E+02  0.25500000000E-02 0. -1.
    5000001    1    1    2    0    0 -0.45694212430E+02  0.84332761282E+02  0.29924782844E+03  0.32354016520E+03  0.77000000000E+02 0.  0.
   -5000001    1    1    2    0    0  0.45694212430E+02 -0.84332761282E+02  0.61813710723E+03  0.63025586789E+03  0.77000000000E+02 0.  0.
<mgrwt>
<rscale>  0 0.26102060E+03</rscale>
<asrwt>0</asrwt>
<pdfrwt beam="1">  1        2 0.14393701E+00 0.26102060E+03</pdfrwt>
<pdfrwt beam="2">  1       -2 0.28008534E-02 0.26102060E+03</pdfrwt>
<totfact> 0.13451155E+04</totfact>
</mgrwt>
</event>
<event>
 4    1  0.5980424E-004  0.1685904E+03  0.7818608E-02  0.1179326E+00
         -2   -1    0    0    0  501 -0.00000000000E+00  0.00000000000E+00  0.10157534372E+02  0.10157534692E+02  0.25500000000E-02 0. -1.
          2   -1    0    0  501    0  0.00000000000E+00 -0.00000000000E+00 -0.69954810907E+03  0.69954810908E+03  0.25500000000E-02 0.  1.
    5000001    1    1    2    0    0 -0.23173227668E+02  0.22476110637E+02 -0.39351808698E+03  0.40227808642E+03  0.77000000000E+02 0.  0.
   -5000001    1    1    2    0    0  0.23173227668E+02 -0.22476110637E+02 -0.29587248772E+03  0.30742755735E+03  0.77000000000E+02 0.  0.
<mgrwt>
<rscale>  0 0.16859044E+03</rscale>
<asrwt>0</asrwt>
<pdfrwt beam="1">  1        2 0.10762275E+00 0.16859044E+03</pdfrwt>
<pdfrwt beam="2">  1       -2 0.15626982E-02 0.16859044E+03</pdfrwt>
<totfact> 0.44520560E+04</totfact>
</mgrwt>
</event>
<event>
 4    1  0.5980424E-004  0.5745842E+03  0.7818608E-02  0.9959585E-01
         -2   -1    0    0    0  501 -0.00000000000E+00  0.00000000000E+00  0.57924804194E+02  0.57924804250E+02  0.25500000000E-02 0. -1.
          2   -1    0    0  501    0  0.00000000000E+00 -0.00000000000E+00 -0.14248947946E+04  0.14248947946E+04  0.25500000000E-02 0.  1.
    5000001    1    1    2    0    0  0.22161125818E+03  0.28056092181E+02 -0.11052435690E+04  0.11302172538E+04  0.77000000000E+02 0.  0.
   -5000001    1    1    2    0    0 -0.22161125818E+03 -0.28056092181E+02 -0.26172642148E+03  0.35260234509E+03  0.77000000000E+02 0.  0.
<mgrwt>
<rscale>  0 0.57458420E+03</rscale>
<asrwt>0</asrwt>
<pdfrwt beam="1">  1        2 0.21921456E+00 0.57458420E+03</pdfrwt>
<pdfrwt beam="2">  1       -2 0.89115094E-02 0.57458420E+03</pdfrwt>
<totfact> 0.11786390E+03</totfact>
</mgrwt>
</event>
<event>
 4    1  0.5980424E-004  0.1630504E+03  0.7818608E-02  0.1185295E+00
          2   -1    0    0  501    0  0.00000000000E+00  0.00000000000E+00  0.43069476501E+03  0.43069476501E+03  0.25500000000E-02 0.  1.
         -2   -1    0    0    0  501 -0.00000000000E+00 -0.00000000000E+00 -0.15431712279E+02  0.15431712489E+02  0.25500000000E-02 0. -1.
    5000001    1    1    2    0    0 -0.17389176791E+02 -0.20366448647E+02  0.20646411972E+03  0.22197659433E+03  0.77000000000E+02 0.  0.
   -5000001    1    1    2    0    0  0.17389176791E+02  0.20366448647E+02  0.20879893301E+03  0.22414988317E+03  0.77000000000E+02 0.  0.
<mgrwt>
<rscale>  0 0.16305039E+03</rscale>
<asrwt>0</asrwt>
<pdfrwt beam="1">  1        2 0.66260734E-01 0.16305039E+03</pdfrwt>
<pdfrwt beam="2">  1       -2 0.23741095E-02 0.16305039E+03</pdfrwt>
<totfact> 0.41725507E+04</totfact>
</mgrwt>
</event>
<event>
 4    1  0.5980424E-004  0.2524900E+03  0.7818608E-02  0.1111741E+00
         -2   -1    0    0    0  501 -0.00000000000E+00  0.00000000000E+00  0.12222949016E+02  0.12222949282E+02  0.25500000000E-02 0. -1.
          2   -1    0    0  501    0  0.00000000000E+00 -0.00000000000E+00 -0.13039243642E+04  0.13039243642E+04  0.25500000000E-02 0.  1.
    5000001    1    1    2    0    0 -0.95785325281E+02  0.28876371205E+02 -0.64398687745E+03  0.65624444507E+03  0.77000000000E+02 0.  0.
   -5000001    1    1    2    0    0  0.95785325281E+02 -0.28876371205E+02 -0.64771453772E+03  0.65990286840E+03  0.77000000000E+02 0.  0.
<mgrwt>
<rscale>  0 0.25249001E+03</rscale>
<asrwt>0</asrwt>
<pdfrwt beam="1">  1        2 0.20060364E+00 0.25249001E+03</pdfrwt>
<pdfrwt beam="2">  1       -2 0.18804547E-02 0.25249001E+03</pdfrwt>
<totfact> 0.14719197E+04</totfact>
</mgrwt>
</event>
<event>
 4    1  0.5980424E-004  0.3313972E+03  0.7818608E-02  0.1070520E+00
          2   -1    0    0  501    0  0.00000000000E+00  0.00000000000E+00  0.81247897997E+03  0.81247897997E+03  0.25500000000E-02 0.  1.
         -2   -1    0    0    0  501 -0.00000000000E+00 -0.00000000000E+00 -0.33792900493E+02  0.33792900589E+02  0.25500000000E-02 0. -1.
    5000001    1    1    2    0    0  0.10829333988E+03 -0.97742361116E+02  0.42939583740E+03  0.45999000185E+03  0.77000000000E+02 0.  0.
   -5000001    1    1    2    0    0 -0.10829333988E+03  0.97742361116E+02  0.34929024207E+03  0.38628187872E+03  0.77000000000E+02 0.  0.
<mgrwt>
<rscale>  0 0.33139717E+03</rscale>
<asrwt>0</asrwt>
<pdfrwt beam="1">  1        2 0.12499676E+00 0.33139717E+03</pdfrwt>
<pdfrwt beam="2">  1       -2 0.51989082E-02 0.33139717E+03</pdfrwt>
<totfact> 0.64353155E+03</totfact>
</mgrwt>
</event>
<event>
 4    1  0.5980424E-004  0.1990336E+03  0.7818608E-02  0.1150557E+00
         -2   -1    0    0    0  501 -0.00000000000E+00  0.00000000000E+00  0.89527744123E+01  0.89527747755E+01  0.25500000000E-02 0. -1.
          2   -1    0    0  501    0  0.00000000000E+00 -0.00000000000E+00 -0.11062033757E+04  0.11062033757E+04  0.25500000000E-02 0.  1.
    5000001    1    1    2    0    0 -0.40858085944E+02  0.44192960547E+02 -0.65377232309E+03  0.66103680032E+03  0.77000000000E+02 0.  0.
   -5000001    1    1    2    0    0  0.40858085944E+02 -0.44192960547E+02 -0.44347827823E+03  0.45411935018E+03  0.77000000000E+02 0.  0.
<mgrwt>
<rscale>  0 0.19903356E+03</rscale>
<asrwt>0</asrwt>
<pdfrwt beam="1">  1        2 0.17018503E+00 0.19903356E+03</pdfrwt>
<pdfrwt beam="2">  1       -2 0.13773508E-02 0.19903356E+03</pdfrwt>
<totfact> 0.29618313E+04</totfact>
</mgrwt>
</event>
<event>
 4    1  0.5980424E-004  0.3211876E+03  0.7818608E-02  0.1075104E+00
          2   -1    0    0  501    0  0.00000000000E+00  0.00000000000E+00  0.70961699342E+03  0.70961699342E+03  0.25500000000E-02 0.  1.
         -2   -1    0    0    0  501 -0.00000000000E+00 -0.00000000000E+00 -0.36344072273E+02  0.36344072362E+02  0.25500000000E-02 0. -1.
    5000001    1    1    2    0    0 -0.13147843997E+03 -0.48919125481E+02  0.36794387194E+03  0.40123727882E+03  0.77000000000E+02 0.  0.
   -5000001    1    1    2    0    0  0.13147843997E+03  0.48919125481E+02  0.30532904921E+03  0.34472378697E+03  0.77000000000E+02 0.  0.
<mgrwt>
<rscale>  0 0.32118762E+03</rscale>
<asrwt>0</asrwt>
<pdfrwt beam="1">  1        2 0.10917184E+00 0.32118762E+03</pdfrwt>
<pdfrwt beam="2">  1       -2 0.55913963E-02 0.32118762E+03</pdfrwt>
<totfact> 0.68193025E+03</totfact>
</mgrwt>
</event>
<event>
 4    1  0.5980424E-004  0.4572477E+03  0.7818608E-02  0.1025583E+00
          2   -1    0    0  501    0  0.00000000000E+00  0.00000000000E+00  0.13260287553E+04  0.13260287553E+04  0.25500000000E-02 0. -1.
         -2   -1    0    0    0  501 -0.00000000000E+00 -0.00000000000E+00 -0.39417586898E+02  0.39417586981E+02  0.25500000000E-02 0.  1.
    5000001    1    1    2    0    0 -0.13390815276E+03 -0.67336260281E+02  0.11047170399E+04  0.11174946548E+04  0.77000000000E+02 0.  0.
   -5000001    1    1    2    0    0  0.13390815276E+03  0.67336260281E+02  0.18189412848E+03  0.24795168743E+03  0.77000000000E+02 0.  0.
<mgrwt>
<rscale>  0 0.45724765E+03</rscale>
<asrwt>0</asrwt>
<pdfrwt beam="1">  1        2 0.20400441E+00 0.45724765E+03</pdfrwt>
<pdfrwt beam="2">  1       -2 0.60642444E-02 0.45724765E+03</pdfrwt>
<totfact> 0.24686645E+03</totfact>
</mgrwt>
</event>
<event>
 4    1  0.5980424E-004  0.1791418E+03  0.7818608E-02  0.1168636E+00
         -2   -1    0    0    0  501 -0.00000000000E+00  0.00000000000E+00  0.27450081969E+02  0.27450082088E+02  0.25500000000E-02 0. -1.
          2   -1    0    0  501    0  0.00000000000E+00 -0.00000000000E+00 -0.29227397469E+03  0.29227397470E+03  0.25500000000E-02 0.  1.
    5000001    1    1    2    0    0 -0.20534854032E+02 -0.40788868420E+02 -0.12719857982E+03  0.15554385467E+03  0.77000000000E+02 0.  0.
   -5000001    1    1    2    0    0  0.20534854032E+02  0.40788868420E+02 -0.13762531290E+03  0.16418020212E+03  0.77000000000E+02 0.  0.
<mgrwt>
<rscale>  0 0.17914178E+03</rscale>
<asrwt>0</asrwt>
<pdfrwt beam="1">  1        2 0.44965225E-01 0.17914178E+03</pdfrwt>
<pdfrwt beam="2">  1       -2 0.42230898E-02 0.17914178E+03</pdfrwt>
<totfact> 0.27185964E+04</totfact>
</mgrwt>
</event>
<event>
 4    1  0.5980424E-004  0.3346236E+03  0.7818608E-02  0.1069109E+00
         -2   -1    0    0    0  501 -0.00000000000E+00  0.00000000000E+00  0.83905397874E+01  0.83905401749E+01  0.25500000000E-02 0. -1.
          2   -1    0    0  501    0  0.00000000000E+00 -0.00000000000E+00 -0.33362850849E+04  0.33362850849E+04  0.25500000000E-02 0.  1.
    5000001    1    1    2    0    0  0.12432114094E+03 -0.24885505433E+02 -0.24374856162E+04  0.24419951195E+04  0.77000000000E+02 0.  0.
   -5000001    1    1    2    0    0 -0.12432114094E+03  0.24885505433E+02 -0.89040892894E+03  0.90268050561E+03  0.77000000000E+02 0.  0.
<mgrwt>
<rscale>  0 0.33462357E+03</rscale>
<asrwt>0</asrwt>
<pdfrwt beam="1">  1        2 0.51327357E+00 0.33462357E+03</pdfrwt>
<pdfrwt beam="2">  1       -2 0.12908550E-02 0.33462357E+03</pdfrwt>
<totfact> 0.18877628E+03</totfact>
</mgrwt>
</event>
<event>
 4    1  0.5980424E-004  0.3161480E+03  0.7818608E-02  0.1077436E+00
          2   -1    0    0  501    0  0.00000000000E+00  0.00000000000E+00  0.10488029281E+03  0.10488029284E+03  0.25500000000E-02 0.  1.
         -2   -1    0    0    0  501 -0.00000000000E+00 -0.00000000000E+00 -0.23824676259E+03  0.23824676260E+03  0.25500000000E-02 0. -1.
    5000001    1    1    2    0    0  0.13186670748E+03  0.96333154294E+01 -0.10978027480E+03  0.18831446584E+03  0.77000000000E+02 0.  0.
   -5000001    1    1    2    0    0 -0.13186670748E+03 -0.96333154294E+01 -0.23586194976E+02  0.15481258961E+03  0.77000000000E+02 0.  0.
<mgrwt>
<rscale>  0 0.31614800E+03</rscale>
<asrwt>0</asrwt>
<pdfrwt beam="1">  1        2 0.16135430E-01 0.31614800E+03</pdfrwt>
<pdfrwt beam="2">  1       -2 0.36653348E-01 0.31614800E+03</pdfrwt>
<totfact> 0.25189575E+03</totfact>
</mgrwt>
</event>
<event>
 4    1  0.5980424E-004  0.3366341E+03  0.7818608E-02  0.1068239E+00
         -2   -1    0    0    0  501 -0.00000000000E+00  0.00000000000E+00  0.65437259826E+02  0.65437259875E+02  0.25500000000E-02 0. -1.
          2   -1    0    0  501    0  0.00000000000E+00 -0.00000000000E+00 -0.43294329408E+03  0.43294329409E+03  0.25500000000E-02 0.  1.
    5000001    1    1    2    0    0  0.22851637826E+02 -0.12300351576E+03 -0.62122996052E+02  0.15950024727E+03  0.77000000000E+02 0.  0.
   -5000001    1    1    2    0    0 -0.22851637826E+02  0.12300351576E+03 -0.30538303820E+03  0.33888030669E+03  0.77000000000E+02 0.  0.
<mgrwt>
<rscale>  0 0.33663406E+03</rscale>
<asrwt>0</asrwt>
<pdfrwt beam="1">  1        2 0.66606659E-01 0.33663406E+03</pdfrwt>
<pdfrwt beam="2">  1       -2 0.10067271E-01 0.33663406E+03</pdfrwt>
<totfact> 0.48139722E+03</totfact>
</mgrwt>
</event>
<event>
 4    1  0.5980424E-004  0.1985333E+03  0.7818608E-02  0.1150982E+00
          2   -1    0    0  501    0  0.00000000000E+00  0.00000000000E+00  0.14771225455E+04  0.14771225455E+04  0.25500000000E-02 0.  1.
         -2   -1    0    0    0  501 -0.00000000000E+00 -0.00000000000E+00 -0.66709871566E+01  0.66709876440E+01  0.25500000000E-02 0. -1.
    5000001    1    1    2    0    0 -0.36918360282E+02  0.50519439118E+02  0.75848692931E+03  0.76494875710E+03  0.77000000000E+02 0.  0.
   -5000001    1    1    2    0    0  0.36918360282E+02 -0.50519439118E+02  0.71196462907E+03  0.71884477608E+03  0.77000000000E+02 0.  0.
<mgrwt>
<rscale>  0 0.19853328E+03</rscale>
<asrwt>0</asrwt>
<pdfrwt beam="1">  1        2 0.22724971E+00 0.19853328E+03</pdfrwt>
<pdfrwt beam="2">  1       -2 0.10263053E-02 0.19853328E+03</pdfrwt>
<totfact> 0.28314353E+04</totfact>
</mgrwt>
</event>
<event>
 4    1  0.5980424E-004  0.3451712E+03  0.7818608E-02  0.1064615E+00
          2   -1    0    0  501    0  0.00000000000E+00  0.00000000000E+00  0.19409031831E+03  0.19409031833E+03  0.25500000000E-02 0.  1.
         -2   -1    0    0    0  501 -0.00000000000E+00 -0.00000000000E+00 -0.15346355135E+03  0.15346355137E+03  0.25500000000E-02 0. -1.
    5000001    1    1    2    0    0  0.12462146691E+03  0.38056742798E+02  0.10381935229E+03  0.18353823470E+03  0.77000000000E+02 0.  0.
   -5000001    1    1    2    0    0 -0.12462146691E+03 -0.38056742798E+02 -0.63192585322E+02  0.16401563500E+03  0.77000000000E+02 0.  0.
<mgrwt>
<rscale>  0 0.34517120E+03</rscale>
<asrwt>0</asrwt>
<pdfrwt beam="1">  1        2 0.29860049E-01 0.34517120E+03</pdfrwt>
<pdfrwt beam="2">  1       -2 0.23609777E-01 0.34517120E+03</pdfrwt>
<totfact> 0.27835679E+03</totfact>
</mgrwt>
</event>
<event>
 4    1  0.5980424E-004  0.2181800E+03  0.7818608E-02  0.1135247E+00
         -2   -1    0    0    0  501 -0.00000000000E+00  0.00000000000E+00  0.62846051768E+02  0.62846051819E+02  0.25500000000E-02 0. -1.
          2   -1    0    0  501    0  0.00000000000E+00 -0.00000000000E+00 -0.18936151635E+03  0.18936151637E+03  0.25500000000E-02 0.  1.
    5000001    1    1    2    0    0  0.98268908286E+01 -0.64018423811E+02 -0.14532941960E+02  0.10166185505E+03  0.77000000000E+02 0.  0.
   -5000001    1    1    2    0    0 -0.98268908286E+01  0.64018423811E+02 -0.11198252263E+03  0.15054571314E+03  0.77000000000E+02 0.  0.
<mgrwt>
<rscale>  0 0.21817996E+03</rscale>
<asrwt>0</asrwt>
<pdfrwt beam="1">  1        2 0.29132541E-01 0.21817996E+03</pdfrwt>
<pdfrwt beam="2">  1       -2 0.96686235E-02 0.21817996E+03</pdfrwt>
<totfact> 0.12362087E+04</totfact>
</mgrwt>
</event>
<event>
 4    1  0.5980424E-004  0.2211463E+03  0.7818608E-02  0.1133031E+00
          2   -1    0    0  501    0  0.00000000000E+00  0.00000000000E+00  0.32118561600E+03  0.32118561601E+03  0.25500000000E-02 0.  1.
         -2   -1    0    0    0  501 -0.00000000000E+00 -0.00000000000E+00 -0.38066524652E+02  0.38066524737E+02  0.25500000000E-02 0. -1.
    5000001    1    1    2    0    0  0.57276414718E+02  0.48193549707E+02  0.18436178380E+03  0.21335761819E+03  0.77000000000E+02 0.  0.
   -5000001    1    1    2    0    0 -0.57276414718E+02 -0.48193549707E+02  0.98757307551E+02  0.14589452255E+03  0.77000000000E+02 0.  0.
<mgrwt>
<rscale>  0 0.22114629E+03</rscale>
<asrwt>0</asrwt>
<pdfrwt beam="1">  1        2 0.49413172E-01 0.22114629E+03</pdfrwt>
<pdfrwt beam="2">  1       -2 0.58563884E-02 0.22114629E+03</pdfrwt>
<totfact> 0.15229736E+04</totfact>
</mgrwt>
</event>
<event>
 4    1  0.5980424E-004  0.2478288E+03  0.7818608E-02  0.1114685E+00
          2   -1    0    0  501    0  0.00000000000E+00  0.00000000000E+00  0.14747817382E+03  0.14747817384E+03  0.25500000000E-02 0.  1.
         -2   -1    0    0    0  501 -0.00000000000E+00 -0.00000000000E+00 -0.10411556559E+03  0.10411556562E+03  0.25500000000E-02 0. -1.
    5000001    1    1    2    0    0  0.31570226962E+02 -0.82313990035E+02 -0.19599713818E+02  0.11868201619E+03  0.77000000000E+02 0.  0.
   -5000001    1    1    2    0    0 -0.31570226962E+02  0.82313990035E+02  0.62962322042E+02  0.13291172327E+03  0.77000000000E+02 0.  0.
<mgrwt>
<rscale>  0 0.24782876E+03</rscale>
<asrwt>0</asrwt>
<pdfrwt beam="1">  1        2 0.22688950E-01 0.24782876E+03</pdfrwt>
<pdfrwt beam="2">  1       -2 0.16017780E-01 0.24782876E+03</pdfrwt>
<totfact> 0.72602538E+03</totfact>
</mgrwt>
</event>
<event>
 4    1  0.5980424E-004  0.2030880E+03  0.7818608E-02  0.1147159E+00
          2   -1    0    0  501    0  0.00000000000E+00  0.00000000000E+00  0.13489153125E+04  0.13489153125E+04  0.25500000000E-02 0.  1.
         -2   -1    0    0    0  501 -0.00000000000E+00 -0.00000000000E+00 -0.76440580098E+01  0.76440584352E+01  0.25500000000E-02 0. -1.
    5000001    1    1    2    0    0  0.39938968615E+02  0.52344181425E+02  0.71650338505E+03  0.72363052405E+03  0.77000000000E+02 0.  0.
   -5000001    1    1    2    0    0 -0.39938968615E+02 -0.52344181425E+02  0.62476786947E+03  0.63292884692E+03  0.77000000000E+02 0.  0.
<mgrwt>
<rscale>  0 0.20308803E+03</rscale>
<asrwt>0</asrwt>
<pdfrwt beam="1">  1        2 0.20752549E+00 0.20308803E+03</pdfrwt>
<pdfrwt beam="2">  1       -2 0.11760086E-02 0.20308803E+03</pdfrwt>
<totfact> 0.27280907E+04</totfact>
</mgrwt>
</event>
<event>
 4    1  0.5980424E-004  0.2992095E+03  0.7818608E-02  0.1085636E+00
          2   -1    0    0  501    0  0.00000000000E+00  0.00000000000E+00  0.24284459642E+04  0.24284459642E+04  0.25500000000E-02 0.  1.
         -2   -1    0    0    0  501 -0.00000000000E+00 -0.00000000000E+00 -0.92164210484E+01  0.92164214012E+01  0.25500000000E-02 0. -1.
    5000001    1    1    2    0    0 -0.11029727913E+03 -0.59634123919E+02  0.98936473258E+03  0.10002466159E+04  0.77000000000E+02 0.  0.
   -5000001    1    1    2    0    0  0.11029727913E+03  0.59634123919E+02  0.14298648105E+04  0.14374157697E+04  0.77000000000E+02 0.  0.
<mgrwt>
<rscale>  0 0.29920950E+03</rscale>
<asrwt>0</asrwt>
<pdfrwt beam="1">  1        2 0.37360709E+00 0.29920950E+03</pdfrwt>
<pdfrwt beam="2">  1       -2 0.14179109E-02 0.29920950E+03</pdfrwt>
<totfact> 0.56199984E+03</totfact>
</mgrwt>
</event>
<event>
 4    1  0.5980424E-004  0.2339822E+03  0.7818608E-02  0.1123868E+00
         -2   -1    0    0    0  501 -0.00000000000E+00  0.00000000000E+00  0.27724020175E+02  0.27724020293E+02  0.25500000000E-02 0. -1.
          2   -1    0    0  501    0  0.00000000000E+00 -0.00000000000E+00 -0.49368433700E+03  0.49368433700E+03  0.25500000000E-02 0.  1.
    5000001    1    1    2    0    0 -0.58976480468E+02 -0.53366204604E+02 -0.31729944351E+03  0.33605671232E+03  0.77000000000E+02 0.  0.
   -5000001    1    1    2    0    0  0.58976480468E+02  0.53366204604E+02 -0.14866087331E+03  0.18535164498E+03  0.77000000000E+02 0.  0.
<mgrwt>
<rscale>  0 0.23398217E+03</rscale>
<asrwt>0</asrwt>
<pdfrwt beam="1">  1        2 0.75951430E-01 0.23398217E+03</pdfrwt>
<pdfrwt beam="2">  1       -2 0.42652342E-02 0.23398217E+03</pdfrwt>
<totfact> 0.15490770E+04</totfact>
</mgrwt>
</event>
<event>
 4    1  0.5980424E-004  0.3105070E+03  0.7818608E-02  0.1080103E+00
          2   -1    0    0  501    0  0.00000000000E+00  0.00000000000E+00  0.21748072106E+03  0.21748072108E+03  0.25500000000E-02 0.  1.
         -2   -1    0    0    0  501 -0.00000000000E+00 -0.00000000000E+00 -0.11083119093E+03  0.11083119096E+03  0.25500000000E-02 0. -1.
    5000001    1    1    2    0    0  0.41234855294E+01 -0.13439115851E+03  0.42929387985E+02  0.16077909992E+03  0.77000000000E+02 0.  0.
   -5000001    1    1    2    0    0 -0.41234855294E+01  0.13439115851E+03  0.63720142145E+02  0.16753281211E+03  0.77000000000E+02 0.  0.
<mgrwt>
<rscale>  0 0.31050699E+03</rscale>
<asrwt>0</asrwt>
<pdfrwt beam="1">  1        2 0.33458572E-01 0.31050699E+03</pdfrwt>
<pdfrwt beam="2">  1       -2 0.17050953E-01 0.31050699E+03</pdfrwt>
<totfact> 0.42868222E+03</totfact>
</mgrwt>
</event>
<event>
 4    1  0.5980424E-004  0.5559584E+03  0.7818608E-02  0.1000124E+00
         -2   -1    0    0    0  501 -0.00000000000E+00  0.00000000000E+00  0.23531375986E+02  0.23531376124E+02  0.25500000000E-02 0. -1.
          2   -1    0    0  501    0  0.00000000000E+00 -0.00000000000E+00 -0.32838045711E+04  0.32838045711E+04  0.25500000000E-02 0.  1.
    5000001    1    1    2    0    0 -0.15497853418E+02  0.26646677384E+03 -0.16892421255E+04  0.17119324413E+04  0.77000000000E+02 0.  0.
   -5000001    1    1    2    0    0  0.15497853418E+02 -0.26646677384E+03 -0.15710310697E+04  0.15954035060E+04  0.77000000000E+02 0.  0.
<mgrwt>
<rscale>  0 0.55595842E+03</rscale>
<asrwt>0</asrwt>
<pdfrwt beam="1">  1        2 0.50520034E+00 0.55595842E+03</pdfrwt>
<pdfrwt beam="2">  1       -2 0.36202143E-02 0.55595842E+03</pdfrwt>
<totfact> 0.42386491E+02</totfact>
</mgrwt>
</event>
<event>
 4    1  0.5980424E-004  0.4174612E+03  0.7818608E-02  0.1037896E+00
          2   -1    0    0  501    0  0.00000000000E+00  0.00000000000E+00  0.19199924717E+03  0.19199924719E+03  0.25500000000E-02 0.  1.
         -2   -1    0    0    0  501 -0.00000000000E+00 -0.00000000000E+00 -0.22691994542E+03  0.22691994543E+03  0.25500000000E-02 0. -1.
    5000001    1    1    2    0    0  0.17960983594E+03 -0.56475390811E+02  0.29503701259E+02  0.20554471854E+03  0.77000000000E+02 0.  0.
   -5000001    1    1    2    0    0 -0.17960983594E+03  0.56475390811E+02 -0.64424399506E+02  0.21337447407E+03  0.77000000000E+02 0.  0.
<mgrwt>
<rscale>  0 0.41746118E+03</rscale>
<asrwt>0</asrwt>
<pdfrwt beam="1">  1        2 0.29538346E-01 0.41746118E+03</pdfrwt>
<pdfrwt beam="2">  1       -2 0.34910761E-01 0.41746118E+03</pdfrwt>
<totfact> 0.13872809E+03</totfact>
</mgrwt>
</event>
<event>
 4    1  0.5980424E-004  0.2167862E+03  0.7818608E-02  0.1136302E+00
         -2   -1    0    0    0  501 -0.00000000000E+00  0.00000000000E+00  0.51934626947E+01  0.51934633207E+01  0.25500000000E-02 0. -1.
          2   -1    0    0  501    0  0.00000000000E+00 -0.00000000000E+00 -0.22622803472E+04  0.22622803472E+04  0.25500000000E-02 0.  1.
    5000001    1    1    2    0    0 -0.73326730921E+02  0.16055437510E+02 -0.12709933998E+04  0.12755343229E+04  0.77000000000E+02 0.  0.
   -5000001    1    1    2    0    0  0.73326730921E+02 -0.16055437510E+02 -0.98609348474E+03  0.99193948766E+03  0.77000000000E+02 0.  0.
<mgrwt>
<rscale>  0 0.21678625E+03</rscale>
<asrwt>0</asrwt>
<pdfrwt beam="1">  1        2 0.34804234E+00 0.21678625E+03</pdfrwt>
<pdfrwt beam="2">  1       -2 0.79899611E-03 0.21678625E+03</pdfrwt>
<totfact> 0.15835112E+04</totfact>
</mgrwt>
</event>
<event>
 4    1  0.5980424E-004  0.3988595E+03  0.7818608E-02  0.1044175E+00
          2   -1    0    0  501    0  0.00000000000E+00  0.00000000000E+00  0.16988394794E+04  0.16988394794E+04  0.25500000000E-02 0.  1.
         -2   -1    0    0    0  501 -0.00000000000E+00 -0.00000000000E+00 -0.23411412558E+02  0.23411412697E+02  0.25500000000E-02 0. -1.
    5000001    1    1    2    0    0 -0.80464842314E+02 -0.93046169599E+02  0.24707038550E+03  0.28653962364E+03  0.77000000000E+02 0.  0.
   -5000001    1    1    2    0    0  0.80464842314E+02  0.93046169599E+02  0.14283576813E+04  0.14357112685E+04  0.77000000000E+02 0.  0.
<mgrwt>
<rscale>  0 0.39885953E+03</rscale>
<asrwt>0</asrwt>
<pdfrwt beam="1">  1        2 0.26135993E+00 0.39885953E+03</pdfrwt>
<pdfrwt beam="2">  1       -2 0.36017557E-02 0.39885953E+03</pdfrwt>
<totfact> 0.34404153E+03</totfact>
</mgrwt>
</event>
<event>
 4    1  0.5980424E-004  0.2671622E+03  0.7818608E-02  0.1102915E+00
         -2   -1    0    0    0  501 -0.00000000000E+00  0.00000000000E+00  0.15280702916E+02  0.15280703129E+02  0.25500000000E-02 0. -1.
          2   -1    0    0  501    0  0.00000000000E+00 -0.00000000000E+00 -0.11677416505E+04  0.11677416505E+04  0.25500000000E-02 0.  1.
    5000001    1    1    2    0    0 -0.86862576849E+02 -0.17748175418E+00 -0.86894712017E+03  0.87666597768E+03  0.77000000000E+02 0.  0.
   -5000001    1    1    2    0    0  0.86862576849E+02  0.17748175418E+00 -0.28351382742E+03  0.30635637597E+03  0.77000000000E+02 0.  0.
<mgrwt>
<rscale>  0 0.26716222E+03</rscale>
<asrwt>0</asrwt>
<pdfrwt beam="1">  1        2 0.17965249E+00 0.26716222E+03</pdfrwt>
<pdfrwt beam="2">  1       -2 0.23508783E-02 0.26716222E+03</pdfrwt>
<totfact> 0.12662139E+04</totfact>
</mgrwt>
</event>
<event>
 4    1  0.5980424E-004  0.3188739E+03  0.7818608E-02  0.1076169E+00
         -2   -1    0    0    0  501 -0.00000000000E+00  0.00000000000E+00  0.13380706337E+03  0.13380706339E+03  0.25500000000E-02 0. -1.
          2   -1    0    0  501    0  0.00000000000E+00 -0.00000000000E+00 -0.18997601919E+03  0.18997601920E+03  0.25500000000E-02 0.  1.
    5000001    1    1    2    0    0  0.13177161171E+03  0.33729786988E+02 -0.60027941065E+02  0.16743300120E+03  0.77000000000E+02 0.  0.
   -5000001    1    1    2    0    0 -0.13177161171E+03 -0.33729786988E+02  0.38589852471E+01  0.15635008139E+03  0.77000000000E+02 0.  0.
<mgrwt>
<rscale>  0 0.31887385E+03</rscale>
<asrwt>0</asrwt>
<pdfrwt beam="1">  1        2 0.29227080E-01 0.31887385E+03</pdfrwt>
<pdfrwt beam="2">  1       -2 0.20585702E-01 0.31887385E+03</pdfrwt>
<totfact> 0.36119979E+03</totfact>
</mgrwt>
</event>
<event>
 4    1  0.5980424E-004  0.2505821E+03  0.7818608E-02  0.1112937E+00
         -2   -1    0    0    0  501 -0.00000000000E+00  0.00000000000E+00  0.15276663082E+02  0.15276663295E+02  0.25500000000E-02 0. -1.
          2   -1    0    0  501    0  0.00000000000E+00 -0.00000000000E+00 -0.10275705422E+04  0.10275705422E+04  0.25500000000E-02 0.  1.
    5000001    1    1    2    0    0  0.39605788431E+02 -0.74685678962E+02 -0.29303384306E+03  0.31455429150E+03  0.77000000000E+02 0.  0.
   -5000001    1    1    2    0    0 -0.39605788431E+02  0.74685678962E+02 -0.71926003608E+03  0.72829291403E+03  0.77000000000E+02 0.  0.
<mgrwt>
<rscale>  0 0.25058211E+03</rscale>
<asrwt>0</asrwt>
<pdfrwt beam="1">  1        2 0.15808772E+00 0.25058211E+03</pdfrwt>
<pdfrwt beam="2">  1       -2 0.23502567E-02 0.25058211E+03</pdfrwt>
<totfact> 0.15275284E+04</totfact>
</mgrwt>
</event>
<event>
 4    1  0.5980424E-004  0.2248484E+03  0.7818608E-02  0.1130319E+00
          2   -1    0    0  501    0  0.00000000000E+00  0.00000000000E+00  0.22966198613E+04  0.22966198613E+04  0.25500000000E-02 0.  1.
         -2   -1    0    0    0  501 -0.00000000000E+00 -0.00000000000E+00 -0.55033935090E+01  0.55033940998E+01  0.25500000000E-02 0. -1.
    5000001    1    1    2    0    0 -0.56412123529E+02 -0.53286664879E+02  0.14141925067E+04  0.14184115208E+04  0.77000000000E+02 0.  0.
   -5000001    1    1    2    0    0  0.56412123529E+02  0.53286664879E+02  0.87692396116E+03  0.88371173467E+03  0.77000000000E+02 0.  0.
<mgrwt>
<rscale>  0 0.22484842E+03</rscale>
<asrwt>0</asrwt>
<pdfrwt beam="1">  1        2 0.35332551E+00 0.22484842E+03</pdfrwt>
<pdfrwt beam="2">  1       -2 0.84667745E-03 0.22484842E+03</pdfrwt>
<totfact> 0.13978127E+04</totfact>
</mgrwt>
</event>
<event>
 4    1  0.5980424E-004  0.5030186E+03  0.7818608E-02  0.1012994E+00
          2   -1    0    0  501    0  0.00000000000E+00  0.00000000000E+00  0.10109405701E+04  0.10109405701E+04  0.25500000000E-02 0.  1.
         -2   -1    0    0    0  501 -0.00000000000E+00 -0.00000000000E+00 -0.62572349270E+02  0.62572349322E+02  0.25500000000E-02 0. -1.
    5000001    1    1    2    0    0 -0.16534560594E+03  0.17294781564E+03  0.45535883574E+03  0.52012574021E+03  0.77000000000E+02 0.  0.
   -5000001    1    1    2    0    0  0.16534560594E+03 -0.17294781564E+03  0.49300938512E+03  0.55338717925E+03  0.77000000000E+02 0.  0.
<mgrwt>
<rscale>  0 0.50301859E+03</rscale>
<asrwt>0</asrwt>
<pdfrwt beam="1">  1        2 0.15552932E+00 0.50301859E+03</pdfrwt>
<pdfrwt beam="2">  1       -2 0.96265152E-02 0.50301859E+03</pdfrwt>
<totfact> 0.18217768E+03</totfact>
</mgrwt>
</event>
<event>
 4    1  0.5980424E-004  0.2506875E+03  0.7818608E-02  0.1112871E+00
         -2   -1    0    0    0  501 -0.00000000000E+00  0.00000000000E+00  0.18000425120E+03  0.18000425122E+03  0.25500000000E-02 0. -1.
          2   -1    0    0  501    0  0.00000000000E+00 -0.00000000000E+00 -0.87281606332E+02  0.87281606369E+02  0.25500000000E-02 0.  1.
    5000001    1    1    2    0    0  0.81465117207E+02  0.55997052775E+02  0.49703338890E+02  0.13480228907E+03  0.77000000000E+02 0.  0.
   -5000001    1    1    2    0    0 -0.81465117207E+02 -0.55997052775E+02  0.43019305979E+02  0.13248356852E+03  0.77000000000E+02 0.  0.
<mgrwt>
<rscale>  0 0.25068754E+03</rscale>
<asrwt>0</asrwt>
<pdfrwt beam="1">  1        2 0.13427940E-01 0.25068754E+03</pdfrwt>
<pdfrwt beam="2">  1       -2 0.27692962E-01 0.25068754E+03</pdfrwt>
<totfact> 0.52073176E+03</totfact>
</mgrwt>
</event>
<event>
 4    1  0.5980424E-004  0.3136253E+03  0.7818608E-02  0.1078621E+00
          2   -1    0    0  501    0  0.00000000000E+00  0.00000000000E+00  0.36697054140E+02  0.36697054229E+02  0.25500000000E-02 0.  1.
         -2   -1    0    0    0  501 -0.00000000000E+00 -0.00000000000E+00 -0.67008675710E+03  0.67008675711E+03  0.25500000000E-02 0. -1.
    5000001    1    1    2    0    0  0.54989777192E+02  0.12493295251E+03 -0.32885001807E+03  0.36428485091E+03  0.77000000000E+02 0.  0.
   -5000001    1    1    2    0    0 -0.54989777192E+02 -0.12493295251E+03 -0.30453968489E+03  0.34249896042E+03  0.77000000000E+02 0.  0.
<mgrwt>
<rscale>  0 0.31362532E+03</rscale>
<asrwt>0</asrwt>
<pdfrwt beam="1">  1        2 0.56457011E-02 0.31362532E+03</pdfrwt>
<pdfrwt beam="2">  1       -2 0.10309026E+00 0.31362532E+03</pdfrwt>
<totfact> 0.10723617E+03</totfact>
</mgrwt>
</event>
<event>
 4    1  0.5980424E-004  0.3052381E+03  0.7818608E-02  0.1082651E+00
         -2   -1    0    0    0  501 -0.00000000000E+00  0.00000000000E+00  0.75998826176E+02  0.75998826218E+02  0.25500000000E-02 0. -1.
          2   -1    0    0  501    0  0.00000000000E+00 -0.00000000000E+00 -0.30648601861E+03  0.30648601862E+03  0.25500000000E-02 0.  1.
    5000001    1    1    2    0    0 -0.12463658082E+03  0.33045229050E+02 -0.81218334735E+02  0.17073863751E+03  0.77000000000E+02 0.  0.
   -5000001    1    1    2    0    0  0.12463658082E+03 -0.33045229050E+02 -0.14926885770E+03  0.21174620733E+03  0.77000000000E+02 0.  0.
<mgrwt>
<rscale>  0 0.30523812E+03</rscale>
<asrwt>0</asrwt>
<pdfrwt beam="1">  1        2 0.47151695E-01 0.30523812E+03</pdfrwt>
<pdfrwt beam="2">  1       -2 0.11692127E-01 0.30523812E+03</pdfrwt>
<totfact> 0.54985555E+03</totfact>
</mgrwt>
</event>
<event>
 4    1  0.5980424E-004  0.1750053E+03  0.7818608E-02  0.1172726E+00
          2   -1    0    0  501    0  0.00000000000E+00  0.00000000000E+00  0.45677800255E+03  0.45677800256E+03  0.25500000000E-02 0.  1.
         -2   -1    0    0    0  501 -0.00000000000E+00 -0.00000000000E+00 -0.16762436784E+02  0.16762436978E+02  0.25500000000E-02 0. -1.
    5000001    1    1    2    0    0  0.25703456357E+00  0.40869196725E+02  0.24050014637E+03  0.25581180135E+03  0.77000000000E+02 0.  0.
   -5000001    1    1    2    0    0 -0.25703456357E+00 -0.40869196725E+02  0.19951541940E+03  0.21772863819E+03  0.77000000000E+02 0.  0.
<mgrwt>
<rscale>  0 0.17500528E+03</rscale>
<asrwt>0</asrwt>
<pdfrwt beam="1">  1        2 0.70273549E-01 0.17500528E+03</pdfrwt>
<pdfrwt beam="2">  1       -2 0.25788361E-02 0.17500528E+03</pdfrwt>
<totfact> 0.34900552E+04</totfact>
</mgrwt>
</event>
<event>
 4    1  0.5980424E-004  0.2580397E+03  0.7818608E-02  0.1108327E+00
          2   -1    0    0  501    0  0.00000000000E+00  0.00000000000E+00  0.10990481463E+04  0.10990481463E+04  0.25500000000E-02 0.  1.
         -2   -1    0    0    0  501 -0.00000000000E+00 -0.00000000000E+00 -0.15145939053E+02  0.15145939267E+02  0.25500000000E-02 0. -1.
    5000001    1    1    2    0    0  0.42188662779E+02  0.32300743928E+02  0.92558773040E+03  0.93030364289E+03  0.77000000000E+02 0.  0.
   -5000001    1    1    2    0    0 -0.42188662779E+02 -0.32300743928E+02  0.15831447683E+03  0.18389044265E+03  0.77000000000E+02 0.  0.
<mgrwt>
<rscale>  0 0.25803966E+03</rscale>
<asrwt>0</asrwt>
<pdfrwt beam="1">  1        2 0.16908429E+00 0.25803966E+03</pdfrwt>
<pdfrwt beam="2">  1       -2 0.23301450E-02 0.25803966E+03</pdfrwt>
<totfact> 0.14044067E+04</totfact>
</mgrwt>
</event>
<event>
 4    1  0.5980424E-004  0.3139214E+03  0.7818608E-02  0.1078481E+00
         -2   -1    0    0    0  501 -0.00000000000E+00  0.00000000000E+00  0.47636587901E+02  0.47636587969E+02  0.25500000000E-02 0. -1.
          2   -1    0    0  501    0  0.00000000000E+00 -0.00000000000E+00 -0.51717932837E+03  0.51717932838E+03  0.25500000000E-02 0.  1.
    5000001    1    1    2    0    0  0.11199337428E+03  0.16098777346E+02 -0.96500173412E+02  0.16746035347E+03  0.77000000000E+02 0.  0.
   -5000001    1    1    2    0    0 -0.11199337428E+03 -0.16098777346E+02 -0.37304256706E+03  0.39735556288E+03  0.77000000000E+02 0.  0.
<mgrwt>
<rscale>  0 0.31392138E+03</rscale>
<asrwt>0</asrwt>
<pdfrwt beam="1">  1        2 0.79566047E-01 0.31392138E+03</pdfrwt>
<pdfrwt beam="2">  1       -2 0.73287062E-02 0.31392138E+03</pdfrwt>
<totfact> 0.65017125E+03</totfact>
</mgrwt>
</event>
<event>
 4    1  0.5980424E-004  0.3064523E+03  0.7818608E-02  0.1082059E+00
          2   -1    0    0  501    0  0.00000000000E+00  0.00000000000E+00  0.10077895094E+04  0.10077895094E+04  0.25500000000E-02 0.  1.
         -2   -1    0    0    0  501 -0.00000000000E+00 -0.00000000000E+00 -0.23296775130E+02  0.23296775270E+02  0.25500000000E-02 0. -1.
    5000001    1    1    2    0    0  0.11791195580E+03 -0.47875903404E+02  0.61604839696E+03  0.63375070718E+03  0.77000000000E+02 0.  0.
   -5000001    1    1    2    0    0 -0.11791195580E+03  0.47875903404E+02  0.36844433729E+03  0.39733557748E+03  0.77000000000E+02 0.  0.
<mgrwt>
<rscale>  0 0.30645225E+03</rscale>
<asrwt>0</asrwt>
<pdfrwt beam="1">  1        2 0.15504457E+00 0.30645225E+03</pdfrwt>
<pdfrwt beam="2">  1       -2 0.35841186E-02 0.30645225E+03</pdfrwt>
<totfact> 0.84350015E+03</totfact>
</mgrwt>
</event>
<event>
 4    1  0.5980424E-004  0.3290049E+03  0.7818608E-02  0.1071578E+00
         -2   -1    0    0    0  501 -0.00000000000E+00  0.00000000000E+00  0.14770861687E+03  0.14770861690E+03  0.25500000000E-02 0. -1.
          2   -1    0    0  501    0  0.00000000000E+00 -0.00000000000E+00 -0.18320563911E+03  0.18320563913E+03  0.25500000000E-02 0.  1.
    5000001    1    1    2    0    0 -0.14323511786E+03 -0.20048281821E+02 -0.32455923370E+02  0.16703478546E+03  0.77000000000E+02 0.  0.
   -5000001    1    1    2    0    0  0.14323511786E+03  0.20048281821E+02 -0.30410988689E+01  0.16387947057E+03  0.77000000000E+02 0.  0.
<mgrwt>
<rscale>  0 0.32900487E+03</rscale>
<asrwt>0</asrwt>
<pdfrwt beam="1">  1        2 0.28185483E-01 0.32900487E+03</pdfrwt>
<pdfrwt beam="2">  1       -2 0.22724403E-01 0.32900487E+03</pdfrwt>
<totfact> 0.31698444E+03</totfact>
</mgrwt>
</event>
<event>
 4    1  0.5980424E-004  0.3294672E+03  0.7818608E-02  0.1071373E+00
         -2   -1    0    0    0  501 -0.00000000000E+00  0.00000000000E+00  0.13119062862E+03  0.13119062865E+03  0.25500000000E-02 0. -1.
          2   -1    0    0  501    0  0.00000000000E+00 -0.00000000000E+00 -0.20685292260E+03  0.20685292262E+03  0.25500000000E-02 0.  1.
    5000001    1    1    2    0    0  0.13283905552E+01 -0.14321039723E+03 -0.64922684221E+02  0.17508551460E+03  0.77000000000E+02 0.  0.
   -5000001    1    1    2    0    0 -0.13283905552E+01  0.14321039723E+03 -0.10739609759E+02  0.16295803666E+03  0.77000000000E+02 0.  0.
<mgrwt>
<rscale>  0 0.32946724E+03</rscale>
<asrwt>0</asrwt>
<pdfrwt beam="1">  1        2 0.31823527E-01 0.32946724E+03</pdfrwt>
<pdfrwt beam="2">  1       -2 0.20183174E-01 0.32946724E+03</pdfrwt>
<totfact> 0.34050507E+03</totfact>
</mgrwt>
</event>
<event>
 4    1  0.5980424E-004  0.2095968E+03  0.7818608E-02  0.1141886E+00
          2   -1    0    0  501    0  0.00000000000E+00  0.00000000000E+00  0.18636846027E+04  0.18636846027E+04  0.25500000000E-02 0.  1.
         -2   -1    0    0    0  501 -0.00000000000E+00 -0.00000000000E+00 -0.58930082061E+01  0.58930087578E+01  0.25500000000E-02 0. -1.
    5000001    1    1    2    0    0  0.49704438554E+02  0.59376519444E+01  0.13791438539E+04  0.13821984506E+04  0.77000000000E+02 0.  0.
   -5000001    1    1    2    0    0 -0.49704438554E+02 -0.59376519444E+01  0.47864774051E+03  0.48737916084E+03  0.77000000000E+02 0.  0.
<mgrwt>
<rscale>  0 0.20959684E+03</rscale>
<asrwt>0</asrwt>
<pdfrwt beam="1">  1        2 0.28672106E+00 0.20959684E+03</pdfrwt>
<pdfrwt beam="2">  1       -2 0.90661557E-03 0.20959684E+03</pdfrwt>
<totfact> 0.21314976E+04</totfact>
</mgrwt>
</event>
<event>
 4    1  0.5980424E-004  0.2314691E+03  0.7818608E-02  0.1125610E+00
          2   -1    0    0  501    0  0.00000000000E+00  0.00000000000E+00  0.18572701752E+03  0.18572701753E+03  0.25500000000E-02 0.  1.
         -2   -1    0    0    0  501 -0.00000000000E+00 -0.00000000000E+00 -0.72119211343E+02  0.72119211388E+02  0.25500000000E-02 0. -1.
    5000001    1    1    2    0    0  0.80181034708E+02  0.24260215619E+02  0.33227765040E+02  0.11853539876E+03  0.77000000000E+02 0.  0.
   -5000001    1    1    2    0    0 -0.80181034708E+02 -0.24260215619E+02  0.80380041134E+02  0.13931083017E+03  0.77000000000E+02 0.  0.
<mgrwt>
<rscale>  0 0.23146910E+03</rscale>
<asrwt>0</asrwt>
<pdfrwt beam="1">  1        2 0.28573387E-01 0.23146910E+03</pdfrwt>
<pdfrwt beam="2">  1       -2 0.11095263E-01 0.23146910E+03</pdfrwt>
<totfact> 0.10182195E+04</totfact>
</mgrwt>
</event>
<event>
 4    1  0.5980424E-004  0.2486814E+03  0.7818608E-02  0.1114141E+00
          2   -1    0    0  501    0  0.00000000000E+00  0.00000000000E+00  0.44062319973E+02  0.44062320047E+02  0.25500000000E-02 0.  1.
         -2   -1    0    0    0  501 -0.00000000000E+00 -0.00000000000E+00 -0.35088049255E+03  0.35088049256E+03  0.25500000000E-02 0. -1.
    5000001    1    1    2    0    0 -0.29932955481E+02 -0.85899879373E+02 -0.97106222739E+02  0.15373155042E+03  0.77000000000E+02 0.  0.
   -5000001    1    1    2    0    0  0.29932955481E+02  0.85899879373E+02 -0.20971194983E+03  0.24121126218E+03  0.77000000000E+02 0.  0.
<mgrwt>
<rscale>  0 0.24868139E+03</rscale>
<asrwt>0</asrwt>
<pdfrwt beam="1">  1        2 0.67788187E-02 0.24868139E+03</pdfrwt>
<pdfrwt beam="2">  1       -2 0.53981613E-01 0.24868139E+03</pdfrwt>
<totfact> 0.34328514E+03</totfact>
</mgrwt>
</event>
<event>
 4    1  0.5980424E-004  0.2633558E+03  0.7818608E-02  0.1105144E+00
         -2   -1    0    0    0  501 -0.00000000000E+00  0.00000000000E+00  0.70162853134E+01  0.70162857768E+01  0.25500000000E-02 0. -1.
          2   -1    0    0  501    0  0.00000000000E+00 -0.00000000000E+00 -0.24712608528E+04  0.24712608528E+04  0.25500000000E-02 0.  1.
    5000001    1    1    2    0    0  0.70622311901E+02 -0.69097195093E+02 -0.16141578569E+04  0.16190109698E+04  0.77000000000E+02 0.  0.
   -5000001    1    1    2    0    0 -0.70622311901E+02  0.69097195093E+02 -0.85008671057E+03  0.85926616877E+03  0.77000000000E+02 0.  0.
<mgrwt>
<rscale>  0 0.26335582E+03</rscale>
<asrwt>0</asrwt>
<pdfrwt beam="1">  1        2 0.38019328E+00 0.26335582E+03</pdfrwt>
<pdfrwt beam="2">  1       -2 0.10794305E-02 0.26335582E+03</pdfrwt>
<totfact> 0.79324690E+03</totfact>
</mgrwt>
</event>
<event>
 4    1  0.5980424E-004  0.2366823E+03  0.7818608E-02  0.1122023E+00
          2   -1    0    0  501    0  0.00000000000E+00  0.00000000000E+00  0.11152400410E+03  0.11152400413E+03  0.25500000000E-02 0.  1.
         -2   -1    0    0    0  501 -0.00000000000E+00 -0.00000000000E+00 -0.12557499648E+03  0.12557499651E+03  0.25500000000E-02 0. -1.
    5000001    1    1    2    0    0  0.18580437150E+02  0.87874356021E+02 -0.41063755452E+01  0.11837650701E+03  0.77000000000E+02 0.  0.
   -5000001    1    1    2    0    0 -0.18580437150E+02 -0.87874356021E+02 -0.99446168384E+01  0.11872249363E+03  0.77000000000E+02 0.  0.
<mgrwt>
<rscale>  0 0.23668229E+03</rscale>
<asrwt>0</asrwt>
<pdfrwt beam="1">  1        2 0.17157539E-01 0.23668229E+03</pdfrwt>
<pdfrwt beam="2">  1       -2 0.19319230E-01 0.23668229E+03</pdfrwt>
<totfact> 0.72822833E+03</totfact>
</mgrwt>
</event>
<event>
 4    1  0.5980424E-004  0.2595068E+03  0.7818608E-02  0.1107440E+00
          2   -1    0    0  501    0  0.00000000000E+00  0.00000000000E+00  0.15107631277E+04  0.15107631277E+04  0.25500000000E-02 0.  1.
         -2   -1    0    0    0  501 -0.00000000000E+00 -0.00000000000E+00 -0.11144003206E+02  0.11144003498E+02  0.25500000000E-02 0. -1.
    5000001    1    1    2    0    0 -0.70217238655E+02 -0.39234687049E+02  0.11404618157E+04  0.11458847998E+04  0.77000000000E+02 0.  0.
   -5000001    1    1    2    0    0  0.70217238655E+02  0.39234687049E+02  0.35915730873E+03  0.37602233137E+03  0.77000000000E+02 0.  0.
<mgrwt>
<rscale>  0 0.25950684E+03</rscale>
<asrwt>0</asrwt>
<pdfrwt beam="1">  1        2 0.23242510E+00 0.25950684E+03</pdfrwt>
<pdfrwt beam="2">  1       -2 0.17144620E-02 0.25950684E+03</pdfrwt>
<totfact> 0.13032988E+04</totfact>
</mgrwt>
</event>
<event>
 4    1  0.5980424E-004  0.2038323E+03  0.7818608E-02  0.1146545E+00
          2   -1    0    0  501    0  0.00000000000E+00  0.00000000000E+00  0.31032749590E+04  0.31032749590E+04  0.25500000000E-02 0.  1.
         -2   -1    0    0    0  501 -0.00000000000E+00 -0.00000000000E+00 -0.33470753489E+01  0.33470763203E+01  0.25500000000E-02 0. -1.
    5000001    1    1    2    0    0  0.31603895392E+01  0.58926111079E+02  0.20260180420E+04  0.20283393160E+04  0.77000000000E+02 0.  0.
   -5000001    1    1    2    0    0 -0.31603895392E+01 -0.58926111079E+02  0.10739098417E+04  0.10782827193E+04  0.77000000000E+02 0.  0.
<mgrwt>
<rscale>  0 0.20383225E+03</rscale>
<asrwt>0</asrwt>
<pdfrwt beam="1">  1        2 0.47742698E+00 0.20383225E+03</pdfrwt>
<pdfrwt beam="2">  1       -2 0.51493468E-03 0.20383225E+03</pdfrwt>
<totfact> 0.10061204E+04</totfact>
</mgrwt>
</event>
<event>
 4    1  0.5980424E-004  0.2160703E+03  0.7818608E-02  0.1136847E+00
         -2   -1    0    0    0  501 -0.00000000000E+00  0.00000000000E+00  0.40281783910E+02  0.40281783990E+02  0.25500000000E-02 0. -1.
          2   -1    0    0  501    0  0.00000000000E+00 -0.00000000000E+00 -0.28974876335E+03  0.28974876336E+03  0.25500000000E-02 0.  1.
    5000001    1    1    2    0    0 -0.72173030932E+02 -0.18051560954E+02 -0.10271572398E+03  0.14837225212E+03  0.77000000000E+02 0.  0.
   -5000001    1    1    2    0    0  0.72173030932E+02  0.18051560954E+02 -0.14675125546E+03  0.18165829523E+03  0.77000000000E+02 0.  0.
<mgrwt>
<rscale>  0 0.21607033E+03</rscale>
<asrwt>0</asrwt>
<pdfrwt beam="1">  1        2 0.44576732E-01 0.21607033E+03</pdfrwt>
<pdfrwt beam="2">  1       -2 0.61971977E-02 0.21607033E+03</pdfrwt>
<totfact> 0.15573718E+04</totfact>
</mgrwt>
</event>
<event>
 4    1  0.5980424E-004  0.1711724E+03  0.7818608E-02  0.1176631E+00
          2   -1    0    0  501    0  0.00000000000E+00  0.00000000000E+00  0.13351186187E+03  0.13351186189E+03  0.25500000000E-02 0.  1.
         -2   -1    0    0    0  501 -0.00000000000E+00 -0.00000000000E+00 -0.54864046445E+02  0.54864046505E+02  0.25500000000E-02 0. -1.
    5000001    1    1    2    0    0 -0.25811437596E+02 -0.17077568100E+02  0.62359092738E+02  0.10380525078E+03  0.77000000000E+02 0.  0.
   -5000001    1    1    2    0    0  0.25811437596E+02  0.17077568100E+02  0.16288722687E+02  0.84570657617E+02  0.77000000000E+02 0.  0.
<mgrwt>
<rscale>  0 0.17117244E+03</rscale>
<asrwt>0</asrwt>
<pdfrwt beam="1">  1        2 0.20540286E-01 0.17117244E+03</pdfrwt>
<pdfrwt beam="2">  1       -2 0.84406226E-02 0.17117244E+03</pdfrwt>
<totfact> 0.22168538E+04</totfact>
</mgrwt>
</event>
<event>
 4    1  0.5980424E-004  0.2078935E+03  0.7818608E-02  0.1143245E+00
          2   -1    0    0  501    0  0.00000000000E+00  0.00000000000E+00  0.89915310942E+03  0.89915310943E+03  0.25500000000E-02 0.  1.
         -2   -1    0    0    0  501 -0.00000000000E+00 -0.00000000000E+00 -0.12016779719E+02  0.12016779989E+02  0.25500000000E-02 0. -1.
    5000001    1    1    2    0    0  0.66312661153E+02  0.17685158485E+02  0.50000194108E+03  0.51053019004E+03  0.77000000000E+02 0.  0.
   -5000001    1    1    2    0    0 -0.66312661153E+02 -0.17685158485E+02  0.38713438862E+03  0.40063969938E+03  0.77000000000E+02 0.  0.
<mgrwt>
<rscale>  0 0.20789348E+03</rscale>
<asrwt>0</asrwt>
<pdfrwt beam="1">  1        2 0.13833122E+00 0.20789348E+03</pdfrwt>
<pdfrwt beam="2">  1       -2 0.18487357E-02 0.20789348E+03</pdfrwt>
<totfact> 0.25849768E+04</totfact>
</mgrwt>
</event>
<event>
 4    1  0.5980424E-004  0.4669763E+03  0.7818608E-02  0.1022777E+00
         -2   -1    0    0    0  501 -0.00000000000E+00  0.00000000000E+00  0.32470558126E+02  0.32470558226E+02  0.25500000000E-02 0. -1.
          2   -1    0    0  501    0  0.00000000000E+00 -0.00000000000E+00 -0.16789583965E+04  0.16789583965E+04  0.25500000000E-02 0.  1.
    5000001    1    1    2    0    0 -0.39400479232E+02  0.11997771576E+03 -0.16111349680E+03  0.21870895933E+03  0.77000000000E+02 0.  0.
   -5000001    1    1    2    0    0  0.39400479232E+02 -0.11997771576E+03 -0.14853743416E+04  0.14927199954E+04  0.77000000000E+02 0.  0.
<mgrwt>
<rscale>  0 0.46697630E+03</rscale>
<asrwt>0</asrwt>
<pdfrwt beam="1">  1        2 0.25830122E+00 0.46697630E+03</pdfrwt>
<pdfrwt beam="2">  1       -2 0.49954718E-02 0.46697630E+03</pdfrwt>
<totfact> 0.21347858E+03</totfact>
</mgrwt>
</event>
<event>
 4    1  0.5980424E-004  0.5806024E+03  0.7818608E-02  0.9946488E-01
         -2   -1    0    0    0  501 -0.00000000000E+00  0.00000000000E+00  0.40659763818E+02  0.40659763898E+02  0.25500000000E-02 0. -1.
          2   -1    0    0  501    0  0.00000000000E+00 -0.00000000000E+00 -0.20726828993E+04  0.20726828993E+04  0.25500000000E-02 0.  1.
    5000001    1    1    2    0    0 -0.20255263753E+03  0.15034623190E+03 -0.14575412833E+04  0.14812113802E+04  0.77000000000E+02 0.  0.
   -5000001    1    1    2    0    0  0.20255263753E+03 -0.15034623190E+03 -0.57448185220E+03  0.63213128298E+03  0.77000000000E+02 0.  0.
<mgrwt>
<rscale>  0 0.58060244E+03</rscale>
<asrwt>0</asrwt>
<pdfrwt beam="1">  1        2 0.31887421E+00 0.58060244E+03</pdfrwt>
<pdfrwt beam="2">  1       -2 0.62553499E-02 0.58060244E+03</pdfrwt>
<totfact> 0.91736246E+02</totfact>
</mgrwt>
</event>
<event>
 4    1  0.5980424E-004  0.2876551E+03  0.7818608E-02  0.1091580E+00
          2   -1    0    0  501    0  0.00000000000E+00  0.00000000000E+00  0.80691219189E+03  0.80691219190E+03  0.25500000000E-02 0.  1.
         -2   -1    0    0    0  501 -0.00000000000E+00 -0.00000000000E+00 -0.25636446125E+02  0.25636446252E+02  0.25500000000E-02 0. -1.
    5000001    1    1    2    0    0 -0.72011546212E+02 -0.94417733513E+02  0.31645273931E+03  0.34665791122E+03  0.77000000000E+02 0.  0.
   -5000001    1    1    2    0    0  0.72011546212E+02  0.94417733513E+02  0.46482300646E+03  0.48589072693E+03  0.77000000000E+02 0.  0.
<mgrwt>
<rscale>  0 0.28765508E+03</rscale>
<asrwt>0</asrwt>
<pdfrwt beam="1">  1        2 0.12414033E+00 0.28765508E+03</pdfrwt>
<pdfrwt beam="2">  1       -2 0.39440689E-02 0.28765508E+03</pdfrwt>
<totfact> 0.98371114E+03</totfact>
</mgrwt>
</event>
<event>
 4    1  0.5980424E-004  0.5299056E+03  0.7818608E-02  0.1006255E+00
         -2   -1    0    0    0  501 -0.00000000000E+00  0.00000000000E+00  0.78837160920E+02  0.78837160962E+02  0.25500000000E-02 0. -1.
          2   -1    0    0  501    0  0.00000000000E+00 -0.00000000000E+00 -0.89044275899E+03  0.89044275900E+03  0.25500000000E-02 0.  1.
    5000001    1    1    2    0    0 -0.90210943779E+02 -0.21189153148E+03 -0.59968421250E+03  0.64698237242E+03  0.77000000000E+02 0.  0.
   -5000001    1    1    2    0    0  0.90210943779E+02  0.21189153148E+03 -0.21192138557E+03  0.32229754754E+03  0.77000000000E+02 0.  0.
<mgrwt>
<rscale>  0 0.52990557E+03</rscale>
<asrwt>0</asrwt>
<pdfrwt beam="1">  1        2 0.13699119E+00 0.52990557E+03</pdfrwt>
<pdfrwt beam="2">  1       -2 0.12128795E-01 0.52990557E+03</pdfrwt>
<totfact> 0.14959066E+03</totfact>
</mgrwt>
</event>
<event>
 4    1  0.5980424E-004  0.2591827E+03  0.7818608E-02  0.1107635E+00
          2   -1    0    0  501    0  0.00000000000E+00  0.00000000000E+00  0.35929465041E+04  0.35929465041E+04  0.25500000000E-02 0.  1.
         -2   -1    0    0    0  501 -0.00000000000E+00 -0.00000000000E+00 -0.46741335428E+01  0.46741342384E+01  0.25500000000E-02 0. -1.
    5000001    1    1    2    0    0 -0.92598108778E+02  0.37614095011E+02  0.13833811343E+04  0.13891225981E+04  0.77000000000E+02 0.  0.
   -5000001    1    1    2    0    0  0.92598108778E+02 -0.37614095011E+02  0.22048912363E+04  0.22084980402E+04  0.77000000000E+02 0.  0.
<mgrwt>
<rscale>  0 0.25918266E+03</rscale>
<asrwt>0</asrwt>
<pdfrwt beam="1">  1        2 0.55276141E+00 0.25918266E+03</pdfrwt>
<pdfrwt beam="2">  1       -2 0.71909699E-03 0.25918266E+03</pdfrwt>
<totfact> 0.30280509E+03</totfact>
</mgrwt>
</event>
<event>
 4    1  0.5980424E-004  0.1895545E+03  0.7818608E-02  0.1158864E+00
         -2   -1    0    0    0  501 -0.00000000000E+00  0.00000000000E+00  0.90481230892E+01  0.90481234485E+01  0.25500000000E-02 0. -1.
          2   -1    0    0  501    0  0.00000000000E+00 -0.00000000000E+00 -0.99277269219E+03  0.99277269220E+03  0.25500000000E-02 0.  1.
    5000001    1    1    2    0    0 -0.43765543337E+02 -0.31398105616E+02 -0.55712155624E+03  0.56499087803E+03  0.77000000000E+02 0.  0.
   -5000001    1    1    2    0    0  0.43765543337E+02  0.31398105616E+02 -0.42660301286E+03  0.43682993762E+03  0.77000000000E+02 0.  0.
<mgrwt>
<rscale>  0 0.18955453E+03</rscale>
<asrwt>0</asrwt>
<pdfrwt beam="1">  1        2 0.15273417E+00 0.18955453E+03</pdfrwt>
<pdfrwt beam="2">  1       -2 0.13920197E-02 0.18955453E+03</pdfrwt>
<totfact> 0.33936632E+04</totfact>
</mgrwt>
</event>
<event>
 4    1  0.5980424E-004  0.3023016E+03  0.7818608E-02  0.1084096E+00
         -2   -1    0    0    0  501 -0.00000000000E+00  0.00000000000E+00  0.34751854643E+02  0.34751854736E+02  0.25500000000E-02 0. -1.
          2   -1    0    0  501    0  0.00000000000E+00 -0.00000000000E+00 -0.65741987966E+03  0.65741987967E+03  0.25500000000E-02 0.  1.
    5000001    1    1    2    0    0 -0.99302887088E+02 -0.69871609016E+02 -0.20456415406E+03  0.25003719375E+03  0.77000000000E+02 0.  0.
   -5000001    1    1    2    0    0  0.99302887088E+02  0.69871609016E+02 -0.41810387096E+03  0.44213454065E+03  0.77000000000E+02 0.  0.
<mgrwt>
<rscale>  0 0.30230157E+03</rscale>
<asrwt>0</asrwt>
<pdfrwt beam="1">  1        2 0.10114151E+00 0.30230157E+03</pdfrwt>
<pdfrwt beam="2">  1       -2 0.53464397E-02 0.30230157E+03</pdfrwt>
<totfact> 0.79982842E+03</totfact>
</mgrwt>
</event>
<event>
 4    1  0.5980424E-004  0.2219896E+03  0.7818608E-02  0.1132408E+00
          2   -1    0    0  501    0  0.00000000000E+00  0.00000000000E+00  0.10178615449E+04  0.10178615449E+04  0.25500000000E-02 0.  1.
         -2   -1    0    0    0  501 -0.00000000000E+00 -0.00000000000E+00 -0.12103650904E+02  0.12103651173E+02  0.25500000000E-02 0. -1.
    5000001    1    1    2    0    0  0.21583898823E+02 -0.71468754784E+02  0.37024569589E+03  0.38546663011E+03  0.77000000000E+02 0.  0.
   -5000001    1    1    2    0    0 -0.21583898823E+02  0.71468754784E+02  0.63551219813E+03  0.64449856599E+03  0.77000000000E+02 0.  0.
<mgrwt>
<rscale>  0 0.22198956E+03</rscale>
<asrwt>0</asrwt>
<pdfrwt beam="1">  1        2 0.15659413E+00 0.22198956E+03</pdfrwt>
<pdfrwt beam="2">  1       -2 0.18620996E-02 0.22198956E+03</pdfrwt>
<totfact> 0.21670009E+04</totfact>
</mgrwt>
</event>
<event>
 4    1  0.5980424E-004  0.1851435E+03  0.7818608E-02  0.1162916E+00
         -2   -1    0    0    0  501 -0.00000000000E+00  0.00000000000E+00  0.73330619843E+03  0.73330619843E+03  0.25500000000E-02 0. -1.
          2   -1    0    0  501    0  0.00000000000E+00 -0.00000000000E+00 -0.11686152669E+02  0.11686152947E+02  0.25500000000E-02 0.  1.
    5000001    1    1    2    0    0 -0.37941044959E+02  0.22114556123E+02  0.46817648889E+03  0.47649428247E+03  0.77000000000E+02 0.  0.
   -5000001    1    1    2    0    0  0.37941044959E+02 -0.22114556123E+02  0.25344355688E+03  0.26849806891E+03  0.77000000000E+02 0.  0.
<mgrwt>
<rscale>  0 0.18514349E+03</rscale>
<asrwt>0</asrwt>
<pdfrwt beam="1">  1        2 0.17978697E-02 0.18514349E+03</pdfrwt>
<pdfrwt beam="2">  1       -2 0.11281634E+00 0.18514349E+03</pdfrwt>
<totfact> 0.39822169E+03</totfact>
</mgrwt>
</event>
<event>
 4    1  0.5980424E-004  0.2259848E+03  0.7818608E-02  0.1129498E+00
          2   -1    0    0  501    0  0.00000000000E+00  0.00000000000E+00  0.37727754729E+04  0.37727754729E+04  0.25500000000E-02 0.  1.
         -2   -1    0    0    0  501 -0.00000000000E+00 -0.00000000000E+00 -0.33840567305E+01  0.33840576913E+01  0.25500000000E-02 0. -1.
    5000001    1    1    2    0    0  0.17723583072E+02  0.23311070304E+02  0.59243816616E+03  0.59813837205E+03  0.77000000000E+02 0.  0.
   -5000001    1    1    2    0    0 -0.17723583072E+02 -0.23311070304E+02  0.31769532500E+04  0.31780211586E+04  0.77000000000E+02 0.  0.
<mgrwt>
<rscale>  0 0.22598485E+03</rscale>
<asrwt>0</asrwt>
<pdfrwt beam="1">  1        2 0.58042528E+00 0.22598485E+03</pdfrwt>
<pdfrwt beam="2">  1       -2 0.52062573E-03 0.22598485E+03</pdfrwt>
<totfact> 0.36330501E+03</totfact>
</mgrwt>
</event>
<event>
 4    1  0.5980424E-004  0.3980343E+03  0.7818608E-02  0.1044462E+00
          2   -1    0    0  501    0  0.00000000000E+00  0.00000000000E+00  0.74989218772E+02  0.74989218815E+02  0.25500000000E-02 0.  1.
         -2   -1    0    0    0  501 -0.00000000000E+00 -0.00000000000E+00 -0.52818018939E+03  0.52818018940E+03  0.25500000000E-02 0. -1.
    5000001    1    1    2    0    0  0.14916695329E+03  0.54856667240E+02 -0.36563670690E+03  0.40605324199E+03  0.77000000000E+02 0.  0.
   -5000001    1    1    2    0    0 -0.14916695329E+03 -0.54856667240E+02 -0.87554263719E+02  0.19711616623E+03  0.77000000000E+02 0.  0.
<mgrwt>
<rscale>  0 0.39803427E+03</rscale>
<asrwt>0</asrwt>
<pdfrwt beam="1">  1        2 0.11536803E-01 0.39803427E+03</pdfrwt>
<pdfrwt beam="2">  1       -2 0.81258488E-01 0.39803427E+03</pdfrwt>
<totfact> 0.74272244E+02</totfact>
</mgrwt>
</event>
<event>
 4    1  0.5980424E-004  0.2293881E+03  0.7818608E-02  0.1127071E+00
         -2   -1    0    0    0  501 -0.00000000000E+00  0.00000000000E+00  0.10749681495E+03  0.10749681498E+03  0.25500000000E-02 0. -1.
          2   -1    0    0  501    0  0.00000000000E+00 -0.00000000000E+00 -0.12237315233E+03  0.12237315236E+03  0.25500000000E-02 0.  1.
    5000001    1    1    2    0    0 -0.11456724345E+02 -0.73645183321E+02 -0.48400125018E+02  0.11758589057E+03  0.77000000000E+02 0.  0.
   -5000001    1    1    2    0    0  0.11456724345E+02  0.73645183321E+02  0.33523787638E+02  0.11228407677E+03  0.77000000000E+02 0.  0.
<mgrwt>
<rscale>  0 0.22938809E+03</rscale>
<asrwt>0</asrwt>
<pdfrwt beam="1">  1        2 0.18826639E-01 0.22938809E+03</pdfrwt>
<pdfrwt beam="2">  1       -2 0.16537972E-01 0.22938809E+03</pdfrwt>
<totfact> 0.84814136E+03</totfact>
</mgrwt>
</event>
<event>
 4    1  0.5980424E-004  0.3653050E+03  0.7818608E-02  0.1056503E+00
          2   -1    0    0  501    0  0.00000000000E+00  0.00000000000E+00  0.20673830288E+04  0.20673830288E+04  0.25500000000E-02 0.  1.
         -2   -1    0    0    0  501 -0.00000000000E+00 -0.00000000000E+00 -0.16137274286E+02  0.16137274488E+02  0.25500000000E-02 0. -1.
    5000001    1    1    2    0    0 -0.12244748109E+03 -0.86134923028E+02  0.14297404443E+04  0.14396177786E+04  0.77000000000E+02 0.  0.
   -5000001    1    1    2    0    0  0.12244748109E+03  0.86134923028E+02  0.62150531024E+03  0.64390252464E+03  0.77000000000E+02 0.  0.
<mgrwt>
<rscale>  0 0.36530495E+03</rscale>
<asrwt>0</asrwt>
<pdfrwt beam="1">  1        2 0.31805894E+00 0.36530495E+03</pdfrwt>
<pdfrwt beam="2">  1       -2 0.24826575E-02 0.36530495E+03</pdfrwt>
<totfact> 0.38338022E+03</totfact>
</mgrwt>
</event>
<event>
 4    1  0.5980424E-004  0.2542015E+03  0.7818608E-02  0.1110678E+00
         -2   -1    0    0    0  501 -0.00000000000E+00  0.00000000000E+00  0.10537650124E+03  0.10537650127E+03  0.25500000000E-02 0. -1.
          2   -1    0    0  501    0  0.00000000000E+00 -0.00000000000E+00 -0.15330362330E+03  0.15330362333E+03  0.25500000000E-02 0.  1.
    5000001    1    1    2    0    0  0.91079193163E+02  0.40339366626E+01  0.20555441754E+02  0.12109177618E+03  0.77000000000E+02 0.  0.
   -5000001    1    1    2    0    0 -0.91079193163E+02 -0.40339366626E+01 -0.68482563821E+02  0.13758834842E+03  0.77000000000E+02 0.  0.
<mgrwt>
<rscale>  0 0.25420149E+03</rscale>
<asrwt>0</asrwt>
<pdfrwt beam="1">  1        2 0.23585173E-01 0.25420149E+03</pdfrwt>
<pdfrwt beam="2">  1       -2 0.16211769E-01 0.25420149E+03</pdfrwt>
<totfact> 0.68204283E+03</totfact>
</mgrwt>
</event>
<event>
 4    1  0.5980424E-004  0.2191813E+03  0.7818608E-02  0.1134495E+00
         -2   -1    0    0    0  501 -0.00000000000E+00  0.00000000000E+00  0.30302178959E+03  0.30302178960E+03  0.25500000000E-02 0. -1.
          2   -1    0    0  501    0  0.00000000000E+00 -0.00000000000E+00 -0.39634463428E+02  0.39634463510E+02  0.25500000000E-02 0.  1.
    5000001    1    1    2    0    0  0.51764463786E+02 -0.54005368412E+02  0.97265716062E+02  0.14486462318E+03  0.77000000000E+02 0.  0.
   -5000001    1    1    2    0    0 -0.51764463786E+02  0.54005368412E+02  0.16612161010E+03  0.19779162993E+03  0.77000000000E+02 0.  0.
<mgrwt>
<rscale>  0 0.21918126E+03</rscale>
<asrwt>0</asrwt>
<pdfrwt beam="1">  1        2 0.60976097E-02 0.21918126E+03</pdfrwt>
<pdfrwt beam="2">  1       -2 0.46618737E-01 0.21918126E+03</pdfrwt>
<totfact> 0.52420944E+03</totfact>
</mgrwt>
</event>
<event>
 4    1  0.5980424E-004  0.1950084E+03  0.7818608E-02  0.1154020E+00
         -2   -1    0    0    0  501 -0.00000000000E+00  0.00000000000E+00  0.57888989407E+02  0.57888989463E+02  0.25500000000E-02 0. -1.
          2   -1    0    0  501    0  0.00000000000E+00 -0.00000000000E+00 -0.16422937748E+03  0.16422937750E+03  0.25500000000E-02 0.  1.
    5000001    1    1    2    0    0 -0.40441725714E+02 -0.34954060637E+02 -0.83749269355E+02  0.12569908373E+03  0.77000000000E+02 0.  0.
   -5000001    1    1    2    0    0  0.40441725714E+02  0.34954060637E+02 -0.22591118719E+02  0.96419283231E+02  0.77000000000E+02 0.  0.
<mgrwt>
<rscale>  0 0.19500844E+03</rscale>
<asrwt>0</asrwt>
<pdfrwt beam="1">  1        2 0.25266058E-01 0.19500844E+03</pdfrwt>
<pdfrwt beam="2">  1       -2 0.89059984E-02 0.19500844E+03</pdfrwt>
<totfact> 0.16336399E+04</totfact>
</mgrwt>
</event>
<event>
 4    1  0.5980424E-004  0.1716136E+03  0.7818608E-02  0.1176176E+00
          2   -1    0    0  501    0  0.00000000000E+00  0.00000000000E+00  0.31963677249E+03  0.31963677250E+03  0.25500000000E-02 0.  1.
         -2   -1    0    0    0  501 -0.00000000000E+00 -0.00000000000E+00 -0.23034905886E+02  0.23034906027E+02  0.25500000000E-02 0. -1.
    5000001    1    1    2    0    0 -0.26238731166E+02  0.23187915923E+02  0.17707460272E+03  0.19624108995E+03  0.77000000000E+02 0.  0.
   -5000001    1    1    2    0    0  0.26238731166E+02 -0.23187915923E+02  0.11952726388E+03  0.14643058857E+03  0.77000000000E+02 0.  0.
<mgrwt>
<rscale>  0 0.17161355E+03</rscale>
<asrwt>0</asrwt>
<pdfrwt beam="1">  1        2 0.49174888E-01 0.17161355E+03</pdfrwt>
<pdfrwt beam="2">  1       -2 0.35438317E-02 0.17161355E+03</pdfrwt>
<totfact> 0.31974665E+04</totfact>
</mgrwt>
</event>
<event>
 4    1  0.5980424E-004  0.2284906E+03  0.7818608E-02  0.1127707E+00
         -2   -1    0    0    0  501 -0.00000000000E+00  0.00000000000E+00  0.33457526175E+01  0.33457535892E+01  0.25500000000E-02 0. -1.
          2   -1    0    0  501    0  0.00000000000E+00 -0.00000000000E+00 -0.39010598454E+04  0.39010598454E+04  0.25500000000E-02 0.  1.
    5000001    1    1    2    0    0  0.74187710319E+02 -0.21104206071E+01 -0.26355053173E+04  0.26376742687E+04  0.77000000000E+02 0.  0.
   -5000001    1    1    2    0    0 -0.74187710319E+02  0.21104206071E+01 -0.12622087755E+04  0.12667313303E+04  0.77000000000E+02 0.  0.
<mgrwt>
<rscale>  0 0.22849055E+03</rscale>
<asrwt>0</asrwt>
<pdfrwt beam="1">  1        2 0.60015941E+00 0.22849055E+03</pdfrwt>
<pdfrwt beam="2">  1       -2 0.51473437E-03 0.22849055E+03</pdfrwt>
<totfact> 0.29807283E+03</totfact>
</mgrwt>
</event>
<event>
 4    1  0.5980424E-004  0.9691758E+03  0.7818608E-02  0.9343014E-01
         -2   -1    0    0    0  501 -0.00000000000E+00  0.00000000000E+00  0.14331305145E+03  0.14331305148E+03  0.25500000000E-02 0. -1.
          2   -1    0    0  501    0  0.00000000000E+00 -0.00000000000E+00 -0.16385489306E+04  0.16385489306E+04  0.25500000000E-02 0.  1.
    5000001    1    1    2    0    0 -0.76459742737E+02 -0.47227716125E+03 -0.74365850501E+03  0.88760846175E+03  0.77000000000E+02 0.  0.
   -5000001    1    1    2    0    0  0.76459742737E+02  0.47227716125E+03 -0.75157737409E+03  0.89425352028E+03  0.77000000000E+02 0.  0.
<mgrwt>
<rscale>  0 0.96917583E+03</rscale>
<asrwt>0</asrwt>
<pdfrwt beam="1">  1        2 0.25208444E+00 0.96917583E+03</pdfrwt>
<pdfrwt beam="2">  1       -2 0.22048163E-01 0.96917583E+03</pdfrwt>
<totfact> 0.19087888E+02</totfact>
</mgrwt>
</event>
<event>
 4    1  0.5980424E-004  0.1959174E+03  0.7818608E-02  0.1153230E+00
          2   -1    0    0  501    0  0.00000000000E+00  0.00000000000E+00  0.43334564635E+02  0.43334564710E+02  0.25500000000E-02 0.  1.
         -2   -1    0    0    0  501 -0.00000000000E+00 -0.00000000000E+00 -0.22143763334E+03  0.22143763336E+03  0.25500000000E-02 0. -1.
    5000001    1    1    2    0    0 -0.28443003304E+02 -0.50653633731E+02 -0.65953688806E+02  0.11684897995E+03  0.77000000000E+02 0.  0.
   -5000001    1    1    2    0    0  0.28443003304E+02  0.50653633731E+02 -0.11214937990E+03  0.14792321812E+03  0.77000000000E+02 0.  0.
<mgrwt>
<rscale>  0 0.19591736E+03</rscale>
<asrwt>0</asrwt>
<pdfrwt beam="1">  1        2 0.66668563E-02 0.19591736E+03</pdfrwt>
<pdfrwt beam="2">  1       -2 0.34067327E-01 0.19591736E+03</pdfrwt>
<totfact> 0.84279648E+03</totfact>
</mgrwt>
</event>
<event>
 4    1  0.5980424E-004  0.1882653E+03  0.7818608E-02  0.1160035E+00
         -2   -1    0    0    0  501 -0.00000000000E+00  0.00000000000E+00  0.64455833875E+02  0.64455833925E+02  0.25500000000E-02 0. -1.
          2   -1    0    0  501    0  0.00000000000E+00 -0.00000000000E+00 -0.13747323552E+03  0.13747323555E+03  0.25500000000E-02 0.  1.
    5000001    1    1    2    0    0  0.57160043669E+01  0.33079465206E+02  0.90604215798E+01  0.84486773897E+02  0.77000000000E+02 0.  0.
   -5000001    1    1    2    0    0 -0.57160043669E+01 -0.33079465206E+02 -0.82077823230E+02  0.11744229558E+03  0.77000000000E+02 0.  0.
<mgrwt>
<rscale>  0 0.18826526E+03</rscale>
<asrwt>0</asrwt>
<pdfrwt beam="1">  1        2 0.21149728E-01 0.18826526E+03</pdfrwt>
<pdfrwt beam="2">  1       -2 0.99162822E-02 0.18826526E+03</pdfrwt>
<totfact> 0.16791747E+04</totfact>
</mgrwt>
</event>
<event>
 4    1  0.5980424E-004  0.1809518E+03  0.7818608E-02  0.1166885E+00
         -2   -1    0    0    0  501 -0.00000000000E+00  0.00000000000E+00  0.31645336008E+03  0.31645336009E+03  0.25500000000E-02 0. -1.
          2   -1    0    0  501    0  0.00000000000E+00 -0.00000000000E+00 -0.25867591827E+02  0.25867591952E+02  0.25500000000E-02 0.  1.
    5000001    1    1    2    0    0 -0.11649311414E+02  0.45418779389E+02  0.13084652116E+03  0.15889740110E+03  0.77000000000E+02 0.  0.
   -5000001    1    1    2    0    0  0.11649311414E+02 -0.45418779389E+02  0.15973924710E+03  0.18342355094E+03  0.77000000000E+02 0.  0.
<mgrwt>
<rscale>  0 0.18095178E+03</rscale>
<asrwt>0</asrwt>
<pdfrwt beam="1">  1        2 0.39796299E-02 0.18095178E+03</pdfrwt>
<pdfrwt beam="2">  1       -2 0.48685127E-01 0.18095178E+03</pdfrwt>
<totfact> 0.83350878E+03</totfact>
</mgrwt>
</event>
<event>
 4    1  0.5980424E-004  0.5594724E+03  0.7818608E-02  0.9993249E-01
          2   -1    0    0  501    0  0.00000000000E+00  0.00000000000E+00  0.37820845911E+03  0.37820845912E+03  0.25500000000E-02 0.  1.
         -2   -1    0    0    0  501 -0.00000000000E+00 -0.00000000000E+00 -0.20690267903E+03  0.20690267905E+03  0.25500000000E-02 0. -1.
    5000001    1    1    2    0    0  0.24469928111E+03 -0.10767828197E+03  0.55144264094E+02  0.28362341308E+03  0.77000000000E+02 0.  0.
   -5000001    1    1    2    0    0 -0.24469928111E+03  0.10767828197E+03  0.11616151599E+03  0.30148772509E+03  0.77000000000E+02 0.  0.
<mgrwt>
<rscale>  0 0.55947241E+03</rscale>
<asrwt>0</asrwt>
<pdfrwt beam="1">  1        2 0.58185916E-01 0.55947241E+03</pdfrwt>
<pdfrwt beam="2">  1       -2 0.31831182E-01 0.55947241E+03</pdfrwt>
<totfact> 0.78069442E+02</totfact>
</mgrwt>
</event>
<event>
 4    1  0.5980424E-004  0.2204782E+03  0.7818608E-02  0.1133527E+00
          2   -1    0    0  501    0  0.00000000000E+00  0.00000000000E+00  0.36837053622E+03  0.36837053623E+03  0.25500000000E-02 0.  1.
         -2   -1    0    0    0  501 -0.00000000000E+00 -0.00000000000E+00 -0.32990319407E+02  0.32990319505E+02  0.25500000000E-02 0. -1.
    5000001    1    1    2    0    0 -0.42196160723E+02 -0.65927514484E+02  0.14978810249E+03  0.18572137409E+03  0.77000000000E+02 0.  0.
   -5000001    1    1    2    0    0  0.42196160723E+02  0.65927514484E+02  0.18559211433E+03  0.21563948165E+03  0.77000000000E+02 0.  0.
<mgrwt>
<rscale>  0 0.22047822E+03</rscale>
<asrwt>0</asrwt>
<pdfrwt beam="1">  1        2 0.56672392E-01 0.22047822E+03</pdfrwt>
<pdfrwt beam="2">  1       -2 0.50754336E-02 0.22047822E+03</pdfrwt>
<totfact> 0.16338436E+04</totfact>
</mgrwt>
</event>
<event>
 4    1  0.5980424E-004  0.2020520E+03  0.7818608E-02  0.1148019E+00
         -2   -1    0    0    0  501 -0.00000000000E+00  0.00000000000E+00  0.67782565771E+03  0.67782565771E+03  0.25500000000E-02 0. -1.
          2   -1    0    0  501    0  0.00000000000E+00 -0.00000000000E+00 -0.15057344492E+02  0.15057344708E+02  0.25500000000E-02 0.  1.
    5000001    1    1    2    0    0 -0.60166955117E+02  0.14749126773E+02  0.40328812540E+03  0.41522031660E+03  0.77000000000E+02 0.  0.
   -5000001    1    1    2    0    0  0.60166955117E+02 -0.14749126773E+02  0.25948018782E+03  0.27766268582E+03  0.77000000000E+02 0.  0.
<mgrwt>
<rscale>  0 0.20205202E+03</rscale>
<asrwt>0</asrwt>
<pdfrwt beam="1">  1        2 0.23165142E-02 0.20205202E+03</pdfrwt>
<pdfrwt beam="2">  1       -2 0.10428089E+00 0.20205202E+03</pdfrwt>
<totfact> 0.34047100E+03</totfact>
</mgrwt>
</event>
<event>
 4    1  0.5980424E-004  0.2451028E+03  0.7818608E-02  0.1116439E+00
          2   -1    0    0  501    0  0.00000000000E+00  0.00000000000E+00  0.29694282356E+03  0.29694282358E+03  0.25500000000E-02 0.  1.
         -2   -1    0    0    0  501 -0.00000000000E+00 -0.00000000000E+00 -0.50578243314E+02  0.50578243379E+02  0.25500000000E-02 0. -1.
    5000001    1    1    2    0    0 -0.87324646315E+02  0.38168763516E+02  0.12703876887E+03  0.17649446778E+03  0.77000000000E+02 0.  0.
   -5000001    1    1    2    0    0  0.87324646315E+02 -0.38168763516E+02  0.11932581138E+03  0.17102659917E+03  0.77000000000E+02 0.  0.
<mgrwt>
<rscale>  0 0.24510281E+03</rscale>
<asrwt>0</asrwt>
<pdfrwt beam="1">  1        2 0.45683512E-01 0.24510281E+03</pdfrwt>
<pdfrwt beam="2">  1       -2 0.77812681E-02 0.24510281E+03</pdfrwt>
<totfact> 0.10752109E+04</totfact>
</mgrwt>
</event>
<event>
 4    1  0.5980424E-004  0.5146390E+03  0.7818608E-02  0.1010027E+00
          2   -1    0    0  501    0  0.00000000000E+00  0.00000000000E+00  0.27640386737E+03  0.27640386738E+03  0.25500000000E-02 0.  1.
         -2   -1    0    0    0  501 -0.00000000000E+00 -0.00000000000E+00 -0.23955284295E+03  0.23955284296E+03  0.25500000000E-02 0. -1.
    5000001    1    1    2    0    0 -0.81547845142E+02  0.21288965198E+03 -0.72979615083E+02  0.25144995364E+03  0.77000000000E+02 0.  0.
   -5000001    1    1    2    0    0  0.81547845142E+02 -0.21288965198E+03  0.10983063950E+03  0.26450675670E+03  0.77000000000E+02 0.  0.
<mgrwt>
<rscale>  0 0.51463903E+03</rscale>
<asrwt>0</asrwt>
<pdfrwt beam="1">  1        2 0.42523672E-01 0.51463903E+03</pdfrwt>
<pdfrwt beam="2">  1       -2 0.36854284E-01 0.51463903E+03</pdfrwt>
<totfact> 0.83744028E+02</totfact>
</mgrwt>
</event>
<event>
 4    1  0.5980424E-004  0.2330120E+03  0.7818608E-02  0.1124538E+00
         -2   -1    0    0    0  501 -0.00000000000E+00  0.00000000000E+00  0.19191625911E+02  0.19191626080E+02  0.25500000000E-02 0. -1.
          2   -1    0    0  501    0  0.00000000000E+00 -0.00000000000E+00 -0.70726943805E+03  0.70726943806E+03  0.25500000000E-02 0.  1.
    5000001    1    1    2    0    0 -0.29626621506E+02  0.82241230834E+02 -0.33838066188E+03  0.35787124652E+03  0.77000000000E+02 0.  0.
   -5000001    1    1    2    0    0  0.29626621506E+02 -0.82241230834E+02 -0.34969715026E+03  0.36858981762E+03  0.77000000000E+02 0.  0.
<mgrwt>
<rscale>  0 0.23301202E+03</rscale>
<asrwt>0</asrwt>
<pdfrwt beam="1">  1        2 0.10881066E+00 0.23301202E+03</pdfrwt>
<pdfrwt beam="2">  1       -2 0.29525584E-02 0.23301202E+03</pdfrwt>
<totfact> 0.17705197E+04</totfact>
</mgrwt>
</event>
<event>
 4    1  0.5980424E-004  0.3264174E+03  0.7818608E-02  0.1072733E+00
         -2   -1    0    0    0  501 -0.00000000000E+00  0.00000000000E+00  0.35430485223E+02  0.35430485315E+02  0.25500000000E-02 0. -1.
          2   -1    0    0  501    0  0.00000000000E+00 -0.00000000000E+00 -0.75181221976E+03  0.75181221976E+03  0.25500000000E-02 0.  1.
    5000001    1    1    2    0    0  0.11312431094E+03  0.80137104541E+02 -0.45125529480E+03  0.47830890263E+03  0.77000000000E+02 0.  0.
   -5000001    1    1    2    0    0 -0.11312431094E+03 -0.80137104541E+02 -0.26512643974E+03  0.30893380245E+03  0.77000000000E+02 0.  0.
<mgrwt>
<rscale>  0 0.32641735E+03</rscale>
<asrwt>0</asrwt>
<pdfrwt beam="1">  1        2 0.11566341E+00 0.32641735E+03</pdfrwt>
<pdfrwt beam="2">  1       -2 0.54508445E-02 0.32641735E+03</pdfrwt>
<totfact> 0.66036371E+03</totfact>
</mgrwt>
</event>
<event>
 4    1  0.5980424E-004  0.3009379E+03  0.7818608E-02  0.1084773E+00
          2   -1    0    0  501    0  0.00000000000E+00  0.00000000000E+00  0.12860969634E+04  0.12860969635E+04  0.25500000000E-02 0.  1.
         -2   -1    0    0    0  501 -0.00000000000E+00 -0.00000000000E+00 -0.17604356974E+02  0.17604357159E+02  0.25500000000E-02 0. -1.
    5000001    1    1    2    0    0  0.12038676692E+03  0.43655511251E+02  0.71090571633E+03  0.72643975306E+03  0.77000000000E+02 0.  0.
   -5000001    1    1    2    0    0 -0.12038676692E+03 -0.43655511251E+02  0.55758689015E+03  0.57726156755E+03  0.77000000000E+02 0.  0.
<mgrwt>
<rscale>  0 0.30093793E+03</rscale>
<asrwt>0</asrwt>
<pdfrwt beam="1">  1        2 0.19786110E+00 0.30093793E+03</pdfrwt>
<pdfrwt beam="2">  1       -2 0.27083622E-02 0.30093793E+03</pdfrwt>
<totfact> 0.88270773E+03</totfact>
</mgrwt>
</event>
<event>
 4    1  0.5980424E-004  0.1670500E+03  0.7818608E-02  0.1180960E+00
         -2   -1    0    0    0  501 -0.00000000000E+00  0.00000000000E+00  0.26096844456E+02  0.26096844581E+02  0.25500000000E-02 0. -1.
          2   -1    0    0  501    0  0.00000000000E+00 -0.00000000000E+00 -0.26732831385E+03  0.26732831386E+03  0.25500000000E-02 0.  1.
    5000001    1    1    2    0    0  0.22456748508E+01 -0.29888744906E+02 -0.14205994423E+03  0.16434234963E+03  0.77000000000E+02 0.  0.
   -5000001    1    1    2    0    0 -0.22456748508E+01  0.29888744906E+02 -0.99171525167E+02  0.12908280881E+03  0.77000000000E+02 0.  0.
<mgrwt>
<rscale>  0 0.16705000E+03</rscale>
<asrwt>0</asrwt>
<pdfrwt beam="1">  1        2 0.41127431E-01 0.16705000E+03</pdfrwt>
<pdfrwt beam="2">  1       -2 0.40148993E-02 0.16705000E+03</pdfrwt>
<totfact> 0.32042724E+04</totfact>
</mgrwt>
</event>
<event>
 4    1  0.5980424E-004  0.4145899E+03  0.7818608E-02  0.1038842E+00
          2   -1    0    0  501    0  0.00000000000E+00  0.00000000000E+00  0.74001223086E+03  0.74001223087E+03  0.25500000000E-02 0.  1.
         -2   -1    0    0    0  501 -0.00000000000E+00 -0.00000000000E+00 -0.58068230590E+02  0.58068230646E+02  0.25500000000E-02 0. -1.
    5000001    1    1    2    0    0  0.99181968916E+02 -0.10627024593E+03  0.58379354703E+03  0.60652644928E+03  0.77000000000E+02 0.  0.
   -5000001    1    1    2    0    0 -0.99181968916E+02  0.10627024593E+03  0.98150453245E+02  0.19155401223E+03  0.77000000000E+02 0.  0.
<mgrwt>
<rscale>  0 0.41458992E+03</rscale>
<asrwt>0</asrwt>
<pdfrwt beam="1">  1        2 0.11384803E+00 0.41458992E+03</pdfrwt>
<pdfrwt beam="2">  1       -2 0.89335744E-02 0.41458992E+03</pdfrwt>
<totfact> 0.31263355E+03</totfact>
</mgrwt>
</event>
<event>
 4    1  0.5980424E-004  0.2289536E+03  0.7818608E-02  0.1127378E+00
          2   -1    0    0  501    0  0.00000000000E+00  0.00000000000E+00  0.51898616178E+03  0.51898616178E+03  0.25500000000E-02 0.  1.
         -2   -1    0    0    0  501 -0.00000000000E+00 -0.00000000000E+00 -0.25251023997E+02  0.25251024126E+02  0.25500000000E-02 0. -1.
    5000001    1    1    2    0    0 -0.81564008865E+02  0.22864743076E+02  0.24845868200E+03  0.27356206001E+03  0.77000000000E+02 0.  0.
   -5000001    1    1    2    0    0  0.81564008865E+02 -0.22864743076E+02  0.24527645578E+03  0.27067512590E+03  0.77000000000E+02 0.  0.
<mgrwt>
<rscale>  0 0.22895355E+03</rscale>
<asrwt>0</asrwt>
<pdfrwt beam="1">  1        2 0.79844027E-01 0.22895355E+03</pdfrwt>
<pdfrwt beam="2">  1       -2 0.38847728E-02 0.22895355E+03</pdfrwt>
<totfact> 0.16834603E+04</totfact>
</mgrwt>
</event>
<event>
 4    1  0.5980424E-004  0.1763353E+03  0.7818608E-02  0.1171398E+00
         -2   -1    0    0    0  501 -0.00000000000E+00  0.00000000000E+00  0.63611823435E+01  0.63611828546E+01  0.25500000000E-02 0. -1.
          2   -1    0    0  501    0  0.00000000000E+00 -0.00000000000E+00 -0.12220267740E+04  0.12220267740E+04  0.25500000000E-02 0.  1.
    5000001    1    1    2    0    0 -0.31473787956E+02  0.18683008995E+02 -0.45130520340E+03  0.45928753605E+03  0.77000000000E+02 0.  0.
   -5000001    1    1    2    0    0  0.31473787956E+02 -0.18683008995E+02 -0.76436038830E+03  0.76910042085E+03  0.77000000000E+02 0.  0.
<mgrwt>
<rscale>  0 0.17633531E+03</rscale>
<asrwt>0</asrwt>
<pdfrwt beam="1">  1        2 0.18800393E+00 0.17633531E+03</pdfrwt>
<pdfrwt beam="2">  1       -2 0.97864445E-03 0.17633531E+03</pdfrwt>
<totfact> 0.41352532E+04</totfact>
</mgrwt>
</event>
<event>
 4    1  0.5980424E-004  0.3244663E+03  0.7818608E-02  0.1073612E+00
          2   -1    0    0  501    0  0.00000000000E+00  0.00000000000E+00  0.76894109628E+02  0.76894109671E+02  0.25500000000E-02 0.  1.
         -2   -1    0    0    0  501 -0.00000000000E+00 -0.00000000000E+00 -0.34228362580E+03  0.34228362581E+03  0.25500000000E-02 0. -1.
    5000001    1    1    2    0    0 -0.25739506443E+02  0.14045322636E+03 -0.13396297214E+03  0.21039179854E+03  0.77000000000E+02 0.  0.
   -5000001    1    1    2    0    0  0.25739506443E+02 -0.14045322636E+03 -0.13142654402E+03  0.20878593694E+03  0.77000000000E+02 0.  0.
<mgrwt>
<rscale>  0 0.32446630E+03</rscale>
<asrwt>0</asrwt>
<pdfrwt beam="1">  1        2 0.11829863E-01 0.32446630E+03</pdfrwt>
<pdfrwt beam="2">  1       -2 0.52659019E-01 0.32446630E+03</pdfrwt>
<totfact> 0.18047202E+03</totfact>
</mgrwt>
</event>
<event>
 4    1  0.5980424E-004  0.2834249E+03  0.7818608E-02  0.1093833E+00
          2   -1    0    0  501    0  0.00000000000E+00  0.00000000000E+00  0.19680854978E+03  0.19680854980E+03  0.25500000000E-02 0.  1.
         -2   -1    0    0    0  501 -0.00000000000E+00 -0.00000000000E+00 -0.10204036912E+03  0.10204036915E+03  0.25500000000E-02 0. -1.
    5000001    1    1    2    0    0  0.11082031145E+03  0.41787874805E+02  0.35545944476E+02  0.14567045712E+03  0.77000000000E+02 0.  0.
   -5000001    1    1    2    0    0 -0.11082031145E+03 -0.41787874805E+02  0.59222236183E+02  0.15317846183E+03  0.77000000000E+02 0.  0.
<mgrwt>
<rscale>  0 0.28342489E+03</rscale>
<asrwt>0</asrwt>
<pdfrwt beam="1">  1        2 0.30278238E-01 0.28342489E+03</pdfrwt>
<pdfrwt beam="2">  1       -2 0.15698518E-01 0.28342489E+03</pdfrwt>
<totfact> 0.54760196E+03</totfact>
</mgrwt>
</event>
<event>
 4    1  0.5980424E-004  0.4940251E+03  0.7818608E-02  0.1015350E+00
          2   -1    0    0  501    0  0.00000000000E+00  0.00000000000E+00  0.25002335314E+03  0.25002335316E+03  0.25500000000E-02 0.  1.
         -2   -1    0    0    0  501 -0.00000000000E+00 -0.00000000000E+00 -0.24403802703E+03  0.24403802704E+03  0.25500000000E-02 0. -1.
    5000001    1    1    2    0    0 -0.25922573594E+02 -0.23246529270E+03 -0.16350775097E+02  0.24679635325E+03  0.77000000000E+02 0.  0.
   -5000001    1    1    2    0    0  0.25922573594E+02  0.23246529270E+03  0.22336101210E+02  0.24726502695E+03  0.77000000000E+02 0.  0.
<mgrwt>
<rscale>  0 0.49402512E+03</rscale>
<asrwt>0</asrwt>
<pdfrwt beam="1">  1        2 0.38465132E-01 0.49402512E+03</pdfrwt>
<pdfrwt beam="2">  1       -2 0.37544311E-01 0.49402512E+03</pdfrwt>
<totfact> 0.90270547E+02</totfact>
</mgrwt>
</event>
<event>
 4    1  0.5980424E-004  0.1865157E+03  0.7818608E-02  0.1161642E+00
         -2   -1    0    0    0  501 -0.00000000000E+00  0.00000000000E+00  0.49644141397E+01  0.49644147947E+01  0.25500000000E-02 0. -1.
          2   -1    0    0  501    0  0.00000000000E+00 -0.00000000000E+00 -0.17518735283E+04  0.17518735283E+04  0.25500000000E-02 0.  1.
    5000001    1    1    2    0    0  0.10660888126E+02  0.49638352369E+02 -0.74348060567E+03  0.74917957232E+03  0.77000000000E+02 0.  0.
   -5000001    1    1    2    0    0 -0.10660888126E+02 -0.49638352369E+02 -0.10034285084E+04  0.10076583707E+04  0.77000000000E+02 0.  0.
<mgrwt>
<rscale>  0 0.18651570E+03</rscale>
<asrwt>0</asrwt>
<pdfrwt beam="1">  1        2 0.26951851E+00 0.18651570E+03</pdfrwt>
<pdfrwt beam="2">  1       -2 0.76375747E-03 0.18651570E+03</pdfrwt>
<totfact> 0.31000078E+04</totfact>
</mgrwt>
</event>
<event>
 4    1  0.5980424E-004  0.2453440E+03  0.7818608E-02  0.1116283E+00
          2   -1    0    0  501    0  0.00000000000E+00  0.00000000000E+00  0.35827093247E+02  0.35827093338E+02  0.25500000000E-02 0.  1.
         -2   -1    0    0    0  501 -0.00000000000E+00 -0.00000000000E+00 -0.42002893113E+03  0.42002893113E+03  0.25500000000E-02 0. -1.
    5000001    1    1    2    0    0 -0.33368575141E+02 -0.88857143902E+02 -0.17258172638E+03  0.21147696354E+03  0.77000000000E+02 0.  0.
   -5000001    1    1    2    0    0  0.33368575141E+02  0.88857143902E+02 -0.21162011150E+03  0.24437906093E+03  0.77000000000E+02 0.  0.
<mgrwt>
<rscale>  0 0.24534397E+03</rscale>
<asrwt>0</asrwt>
<pdfrwt beam="1">  1        2 0.55118608E-02 0.24534397E+03</pdfrwt>
<pdfrwt beam="2">  1       -2 0.64619832E-01 0.24534397E+03</pdfrwt>
<totfact> 0.30982798E+03</totfact>
</mgrwt>
</event>
<event>
 4    1  0.5980424E-004  0.3728943E+03  0.7818608E-02  0.1053592E+00
         -2   -1    0    0    0  501 -0.00000000000E+00  0.00000000000E+00  0.11231181475E+03  0.11231181478E+03  0.25500000000E-02 0. -1.
          2   -1    0    0  501    0  0.00000000000E+00 -0.00000000000E+00 -0.30951810488E+03  0.30951810489E+03  0.25500000000E-02 0.  1.
    5000001    1    1    2    0    0 -0.12115772876E+03  0.96986616647E+01 -0.23274015780E+03  0.27362426853E+03  0.77000000000E+02 0.  0.
   -5000001    1    1    2    0    0  0.12115772876E+03 -0.96986616647E+01  0.35533867672E+02  0.14820565114E+03  0.77000000000E+02 0.  0.
<mgrwt>
<rscale>  0 0.37289430E+03</rscale>
<asrwt>0</asrwt>
<pdfrwt beam="1">  1        2 0.47618170E-01 0.37289430E+03</pdfrwt>
<pdfrwt beam="2">  1       -2 0.17278741E-01 0.37289430E+03</pdfrwt>
<totfact> 0.28671238E+03</totfact>
</mgrwt>
</event>
<event>
 4    1  0.5980424E-004  0.2469890E+03  0.7818608E-02  0.1115223E+00
          2   -1    0    0  501    0  0.00000000000E+00  0.00000000000E+00  0.89413298139E+03  0.89413298139E+03  0.25500000000E-02 0.  1.
         -2   -1    0    0    0  501 -0.00000000000E+00 -0.00000000000E+00 -0.17056621094E+02  0.17056621285E+02  0.25500000000E-02 0. -1.
    5000001    1    1    2    0    0 -0.63297101087E+02  0.10572641389E+02  0.70466122088E+03  0.71175469086E+03  0.77000000000E+02 0.  0.
   -5000001    1    1    2    0    0  0.63297101087E+02 -0.10572641389E+02  0.17241513942E+03  0.19943491182E+03  0.77000000000E+02 0.  0.
<mgrwt>
<rscale>  0 0.24698897E+03</rscale>
<asrwt>0</asrwt>
<pdfrwt beam="1">  1        2 0.13755891E+00 0.24698897E+03</pdfrwt>
<pdfrwt beam="2">  1       -2 0.26240957E-02 0.24698897E+03</pdfrwt>
<totfact> 0.15710745E+04</totfact>
</mgrwt>
</event>
<event>
 4    1  0.5980424E-004  0.2793228E+03  0.7818608E-02  0.1096059E+00
          2   -1    0    0  501    0  0.00000000000E+00  0.00000000000E+00  0.44305061251E+02  0.44305061324E+02  0.25500000000E-02 0.  1.
         -2   -1    0    0    0  501 -0.00000000000E+00 -0.00000000000E+00 -0.44025004538E+03  0.44025004539E+03  0.25500000000E-02 0. -1.
    5000001    1    1    2    0    0  0.78954384814E+01 -0.11594348553E+03 -0.21259751794E+03  0.25422811493E+03  0.77000000000E+02 0.  0.
   -5000001    1    1    2    0    0 -0.78954384814E+01  0.11594348553E+03 -0.18334746619E+03  0.23032699178E+03  0.77000000000E+02 0.  0.
<mgrwt>
<rscale>  0 0.27932279E+03</rscale>
<asrwt>0</asrwt>
<pdfrwt beam="1">  1        2 0.68161636E-02 0.27932279E+03</pdfrwt>
<pdfrwt beam="2">  1       -2 0.67730773E-01 0.27932279E+03</pdfrwt>
<totfact> 0.21372190E+03</totfact>
</mgrwt>
</event>
<event>
 4    1  0.5980424E-004  0.1905150E+03  0.7818608E-02  0.1157998E+00
          2   -1    0    0  501    0  0.00000000000E+00  0.00000000000E+00  0.84324417580E+03  0.84324417580E+03  0.25500000000E-02 0.  1.
         -2   -1    0    0    0  501 -0.00000000000E+00 -0.00000000000E+00 -0.10760815618E+02  0.10760815920E+02  0.25500000000E-02 0. -1.
    5000001    1    1    2    0    0 -0.17141911845E+02  0.53368924245E+02  0.40859753136E+03  0.41955098599E+03  0.77000000000E+02 0.  0.
   -5000001    1    1    2    0    0  0.17141911845E+02 -0.53368924245E+02  0.42388582882E+03  0.43445400573E+03  0.77000000000E+02 0.  0.
<mgrwt>
<rscale>  0 0.19051504E+03</rscale>
<asrwt>0</asrwt>
<pdfrwt beam="1">  1        2 0.12972989E+00 0.19051504E+03</pdfrwt>
<pdfrwt beam="2">  1       -2 0.16555098E-02 0.19051504E+03</pdfrwt>
<totfact> 0.32819483E+04</totfact>
</mgrwt>
</event>
<event>
 4    1  0.5980424E-004  0.2879140E+03  0.7818608E-02  0.1091443E+00
          2   -1    0    0  501    0  0.00000000000E+00  0.00000000000E+00  0.32042271507E+03  0.32042271508E+03  0.25500000000E-02 0.  1.
         -2   -1    0    0    0  501 -0.00000000000E+00 -0.00000000000E+00 -0.64675871981E+02  0.64675872031E+02  0.25500000000E-02 0. -1.
    5000001    1    1    2    0    0 -0.90125462869E+02  0.52339058709E+02  0.21175205822E+03  0.24825372159E+03  0.77000000000E+02 0.  0.
   -5000001    1    1    2    0    0  0.90125462869E+02 -0.52339058709E+02  0.43994784871E+02  0.13684486552E+03  0.77000000000E+02 0.  0.
<mgrwt>
<rscale>  0 0.28791400E+03</rscale>
<asrwt>0</asrwt>
<pdfrwt beam="1">  1        2 0.49295802E-01 0.28791400E+03</pdfrwt>
<pdfrwt beam="2">  1       -2 0.99501342E-02 0.28791400E+03</pdfrwt>
<totfact> 0.67750902E+03</totfact>
</mgrwt>
</event>
<event>
 4    1  0.5980424E-004  0.3476026E+03  0.7818608E-02  0.1063603E+00
          2   -1    0    0  501    0  0.00000000000E+00  0.00000000000E+00  0.45810179522E+03  0.45810179522E+03  0.25500000000E-02 0. -1.
         -2   -1    0    0    0  501 -0.00000000000E+00 -0.00000000000E+00 -0.65939268859E+02  0.65939268909E+02  0.25500000000E-02 0.  1.
    5000001    1    1    2    0    0 -0.97627441185E+02  0.11744389299E+03  0.14952362631E+03  0.22717944471E+03  0.77000000000E+02 0.  0.
   -5000001    1    1    2    0    0  0.97627441185E+02 -0.11744389299E+03  0.24263890005E+03  0.29686161943E+03  0.77000000000E+02 0.  0.
<mgrwt>
<rscale>  0 0.34760263E+03</rscale>
<asrwt>0</asrwt>
<pdfrwt beam="1">  1        2 0.70477196E-01 0.34760263E+03</pdfrwt>
<pdfrwt beam="2">  1       -2 0.10144503E-01 0.34760263E+03</pdfrwt>
<totfact> 0.44698887E+03</totfact>
</mgrwt>
</event>
<event>
 4    1  0.5980424E-004  0.3914593E+03  0.7818608E-02  0.1046778E+00
         -2   -1    0    0    0  501 -0.00000000000E+00  0.00000000000E+00  0.82239827514E+03  0.82239827514E+03  0.25500000000E-02 0. -1.
          2   -1    0    0  501    0  0.00000000000E+00 -0.00000000000E+00 -0.46583392341E+02  0.46583392411E+02  0.25500000000E-02 0.  1.
    5000001    1    1    2    0    0  0.10417152504E+03 -0.52538719186E+02  0.83787123576E+02  0.16297639620E+03  0.77000000000E+02 0.  0.
   -5000001    1    1    2    0    0 -0.10417152504E+03  0.52538719186E+02  0.69202775922E+03  0.70600527135E+03  0.77000000000E+02 0.  0.
<mgrwt>
<rscale>  0 0.39145933E+03</rscale>
<asrwt>0</asrwt>
<pdfrwt beam="1">  1        2 0.71666759E-02 0.39145933E+03</pdfrwt>
<pdfrwt beam="2">  1       -2 0.12652281E+00 0.39145933E+03</pdfrwt>
<totfact> 0.48017366E+02</totfact>
</mgrwt>
</event>
<event>
 4    1  0.5980424E-004  0.2344185E+03  0.7818608E-02  0.1123568E+00
          2   -1    0    0  501    0  0.00000000000E+00  0.00000000000E+00  0.13992104475E+04  0.13992104475E+04  0.25500000000E-02 0.  1.
         -2   -1    0    0    0  501 -0.00000000000E+00 -0.00000000000E+00 -0.98184004240E+01  0.98184007551E+01  0.25500000000E-02 0. -1.
    5000001    1    1    2    0    0  0.63409762673E+02 -0.87769594835E+00  0.32478191486E+03  0.33975558946E+03  0.77000000000E+02 0.  0.
   -5000001    1    1    2    0    0 -0.63409762673E+02  0.87769594835E+00  0.10646101323E+04  0.10692732588E+04  0.77000000000E+02 0.  0.
<mgrwt>
<rscale>  0 0.23441850E+03</rscale>
<asrwt>0</asrwt>
<pdfrwt beam="1">  1        2 0.21526308E+00 0.23441850E+03</pdfrwt>
<pdfrwt beam="2">  1       -2 0.15105236E-02 0.23441850E+03</pdfrwt>
<totfact> 0.17938728E+04</totfact>
</mgrwt>
</event>
<event>
 4    1  0.5980424E-004  0.3433939E+03  0.7818608E-02  0.1065360E+00
          2   -1    0    0  501    0  0.00000000000E+00  0.00000000000E+00  0.10319539809E+04  0.10319539809E+04  0.25500000000E-02 0.  1.
         -2   -1    0    0    0  501 -0.00000000000E+00 -0.00000000000E+00 -0.28567014274E+02  0.28567014388E+02  0.25500000000E-02 0. -1.
    5000001    1    1    2    0    0 -0.27241462664E+02 -0.15059740373E+03  0.46659360524E+03  0.49705157454E+03  0.77000000000E+02 0.  0.
   -5000001    1    1    2    0    0  0.27241462664E+02  0.15059740373E+03  0.53679336140E+03  0.56346942077E+03  0.77000000000E+02 0.  0.
<mgrwt>
<rscale>  0 0.34339391E+03</rscale>
<asrwt>0</asrwt>
<pdfrwt beam="1">  1        2 0.15876215E+00 0.34339391E+03</pdfrwt>
<pdfrwt beam="2">  1       -2 0.43949253E-02 0.34339391E+03</pdfrwt>
<totfact> 0.60040786E+03</totfact>
</mgrwt>
</event>
<event>
 4    1  0.5980424E-004  0.2313261E+03  0.7818608E-02  0.1125710E+00
         -2   -1    0    0    0  501 -0.00000000000E+00  0.00000000000E+00  0.18857392205E+02  0.18857392378E+02  0.25500000000E-02 0. -1.
          2   -1    0    0  501    0  0.00000000000E+00 -0.00000000000E+00 -0.70942689056E+03  0.70942689057E+03  0.25500000000E-02 0.  1.
    5000001    1    1    2    0    0  0.51697288428E+02  0.60588814447E+02 -0.24061487248E+03  0.26489267813E+03  0.77000000000E+02 0.  0.
   -5000001    1    1    2    0    0 -0.51697288428E+02 -0.60588814447E+02 -0.44995462587E+03  0.46339160481E+03  0.77000000000E+02 0.  0.
<mgrwt>
<rscale>  0 0.23132610E+03</rscale>
<asrwt>0</asrwt>
<pdfrwt beam="1">  1        2 0.10914258E+00 0.23132610E+03</pdfrwt>
<pdfrwt beam="2">  1       -2 0.29011378E-02 0.23132610E+03</pdfrwt>
<totfact> 0.18098224E+04</totfact>
</mgrwt>
</event>
<event>
 4    1  0.5980424E-004  0.2688366E+03  0.7818608E-02  0.1101947E+00
         -2   -1    0    0    0  501 -0.00000000000E+00  0.00000000000E+00  0.15868539797E+02  0.15868540002E+02  0.25500000000E-02 0. -1.
          2   -1    0    0  501    0  0.00000000000E+00 -0.00000000000E+00 -0.11386229214E+04  0.11386229214E+04  0.25500000000E-02 0.  1.
    5000001    1    1    2    0    0  0.46597721299E+02  0.93286710954E+02 -0.71414705108E+03  0.72581593302E+03  0.77000000000E+02 0.  0.
   -5000001    1    1    2    0    0 -0.46597721299E+02 -0.93286710954E+02 -0.40860733050E+03  0.42867552835E+03  0.77000000000E+02 0.  0.
<mgrwt>
<rscale>  0 0.26883663E+03</rscale>
<asrwt>0</asrwt>
<pdfrwt beam="1">  1        2 0.17517269E+00 0.26883663E+03</pdfrwt>
<pdfrwt beam="2">  1       -2 0.24413147E-02 0.26883663E+03</pdfrwt>
<totfact> 0.12449304E+04</totfact>
</mgrwt>
</event>
<event>
 4    1  0.5980424E-004  0.3801986E+03  0.7818608E-02  0.1050860E+00
         -2   -1    0    0    0  501 -0.00000000000E+00  0.00000000000E+00  0.19009376200E+03  0.19009376201E+03  0.25500000000E-02 0. -1.
          2   -1    0    0  501    0  0.00000000000E+00 -0.00000000000E+00 -0.19010484368E+03  0.19010484370E+03  0.25500000000E-02 0.  1.
    5000001    1    1    2    0    0  0.42029411818E+02  0.15210563541E+03  0.72837778262E+02  0.19009717968E+03  0.77000000000E+02 0.  0.
   -5000001    1    1    2    0    0 -0.42029411818E+02 -0.15210563541E+03 -0.72848859948E+02  0.19010142603E+03  0.77000000000E+02 0.  0.
<mgrwt>
<rscale>  0 0.38019861E+03</rscale>
<asrwt>0</asrwt>
<pdfrwt beam="1">  1        2 0.29246899E-01 0.38019861E+03</pdfrwt>
<pdfrwt beam="2">  1       -2 0.29245194E-01 0.38019861E+03</pdfrwt>
<totfact> 0.19448107E+03</totfact>
</mgrwt>
</event>
<event>
 4    1  0.5980424E-004  0.1667251E+03  0.7818608E-02  0.1181307E+00
         -2   -1    0    0    0  501 -0.00000000000E+00  0.00000000000E+00  0.16456801550E+02  0.16456801748E+02  0.25500000000E-02 0. -1.
          2   -1    0    0  501    0  0.00000000000E+00 -0.00000000000E+00 -0.42227635535E+03  0.42227635536E+03  0.25500000000E-02 0.  1.
    5000001    1    1    2    0    0  0.48523330546E+01  0.16572039484E+02 -0.13219498921E+03  0.15395678874E+03  0.77000000000E+02 0.  0.
   -5000001    1    1    2    0    0 -0.48523330546E+01 -0.16572039484E+02 -0.27362456460E+03  0.28477636837E+03  0.77000000000E+02 0.  0.
<mgrwt>
<rscale>  0 0.16672514E+03</rscale>
<asrwt>0</asrwt>
<pdfrwt beam="1">  1        2 0.64965585E-01 0.16672514E+03</pdfrwt>
<pdfrwt beam="2">  1       -2 0.25318160E-02 0.16672514E+03</pdfrwt>
<totfact> 0.38873968E+04</totfact>
</mgrwt>
</event>
<event>
 4    1  0.5980424E-004  0.2260545E+03  0.7818608E-02  0.1129448E+00
          2   -1    0    0  501    0  0.00000000000E+00  0.00000000000E+00  0.18914089104E+03  0.18914089106E+03  0.25500000000E-02 0.  1.
         -2   -1    0    0    0  501 -0.00000000000E+00 -0.00000000000E+00 -0.67543108200E+02  0.67543108249E+02  0.25500000000E-02 0. -1.
    5000001    1    1    2    0    0  0.69117784117E+02  0.20689297200E+02  0.14802917671E+02  0.10655252917E+03  0.77000000000E+02 0.  0.
   -5000001    1    1    2    0    0 -0.69117784117E+02 -0.20689297200E+02  0.10679486517E+03  0.15013147014E+03  0.77000000000E+02 0.  0.
<mgrwt>
<rscale>  0 0.22605454E+03</rscale>
<asrwt>0</asrwt>
<pdfrwt beam="1">  1        2 0.29098598E-01 0.22605454E+03</pdfrwt>
<pdfrwt beam="2">  1       -2 0.10391248E-01 0.22605454E+03</pdfrwt>
<totfact> 0.11065391E+04</totfact>
</mgrwt>
</event>
<event>
 4    1  0.5980424E-004  0.3684902E+03  0.7818608E-02  0.1055272E+00
         -2   -1    0    0    0  501 -0.00000000000E+00  0.00000000000E+00  0.40345190815E+02  0.40345190895E+02  0.25500000000E-02 0. -1.
          2   -1    0    0  501    0  0.00000000000E+00 -0.00000000000E+00 -0.84139544860E+03  0.84139544860E+03  0.25500000000E-02 0.  1.
    5000001    1    1    2    0    0  0.43762993255E+01  0.16684012273E+03 -0.37002394194E+03  0.41316037583E+03  0.77000000000E+02 0.  0.
   -5000001    1    1    2    0    0 -0.43762993255E+01 -0.16684012273E+03 -0.43102631584E+03  0.46858026367E+03  0.77000000000E+02 0.  0.
<mgrwt>
<rscale>  0 0.36849022E+03</rscale>
<asrwt>0</asrwt>
<pdfrwt beam="1">  1        2 0.12944544E+00 0.36849022E+03</pdfrwt>
<pdfrwt beam="2">  1       -2 0.62069531E-02 0.36849022E+03</pdfrwt>
<totfact> 0.46888118E+03</totfact>
</mgrwt>
</event>
<event>
 4    1  0.5980424E-004  0.4213748E+03  0.7818608E-02  0.1036620E+00
          2   -1    0    0  501    0  0.00000000000E+00  0.00000000000E+00  0.73765913770E+03  0.73765913771E+03  0.25500000000E-02 0.  1.
         -2   -1    0    0    0  501 -0.00000000000E+00 -0.00000000000E+00 -0.60175723342E+02  0.60175723396E+02  0.25500000000E-02 0. -1.
    5000001    1    1    2    0    0 -0.14013749320E+03 -0.20230075899E+02  0.81820661118E+02  0.18075229890E+03  0.77000000000E+02 0.  0.
   -5000001    1    1    2    0    0  0.14013749320E+03  0.20230075899E+02  0.59566275324E+03  0.61708256220E+03  0.77000000000E+02 0.  0.
<mgrwt>
<rscale>  0 0.42137476E+03</rscale>
<asrwt>0</asrwt>
<pdfrwt beam="1">  1        2 0.11348602E+00 0.42137476E+03</pdfrwt>
<pdfrwt beam="2">  1       -2 0.92578034E-02 0.42137476E+03</pdfrwt>
<totfact> 0.29657122E+03</totfact>
</mgrwt>
</event>
<event>
 4    1  0.5980424E-004  0.2621202E+03  0.7818608E-02  0.1105876E+00
         -2   -1    0    0    0  501 -0.00000000000E+00  0.00000000000E+00  0.14435550553E+02  0.14435550778E+02  0.25500000000E-02 0. -1.
          2   -1    0    0  501    0  0.00000000000E+00 -0.00000000000E+00 -0.11898926759E+04  0.11898926759E+04  0.25500000000E-02 0.  1.
    5000001    1    1    2    0    0 -0.12103554651E+02 -0.90195443125E+02 -0.33750226754E+03  0.35793643931E+03  0.77000000000E+02 0.  0.
   -5000001    1    1    2    0    0  0.12103554651E+02  0.90195443125E+02 -0.83795485777E+03  0.84639178733E+03  0.77000000000E+02 0.  0.
<mgrwt>
<rscale>  0 0.26212025E+03</rscale>
<asrwt>0</asrwt>
<pdfrwt beam="1">  1        2 0.18306033E+00 0.26212025E+03</pdfrwt>
<pdfrwt beam="2">  1       -2 0.22208549E-02 0.26212025E+03</pdfrwt>
<totfact> 0.13367315E+04</totfact>
</mgrwt>
</event>
<event>
 4    1  0.5980424E-004  0.2102655E+03  0.7818608E-02  0.1141356E+00
          2   -1    0    0  501    0  0.00000000000E+00  0.00000000000E+00  0.26677425711E+03  0.26677425712E+03  0.25500000000E-02 0.  1.
         -2   -1    0    0    0  501 -0.00000000000E+00 -0.00000000000E+00 -0.41431649637E+02  0.41431649716E+02  0.25500000000E-02 0. -1.
    5000001    1    1    2    0    0  0.55489416519E+02  0.25645607233E+02  0.58079091065E+02  0.11418823641E+03  0.77000000000E+02 0.  0.
   -5000001    1    1    2    0    0 -0.55489416519E+02 -0.25645607233E+02  0.16726351640E+03  0.19401767042E+03  0.77000000000E+02 0.  0.
<mgrwt>
<rscale>  0 0.21026552E+03</rscale>
<asrwt>0</asrwt>
<pdfrwt beam="1">  1        2 0.41042195E-01 0.21026552E+03</pdfrwt>
<pdfrwt beam="2">  1       -2 0.63740997E-02 0.21026552E+03</pdfrwt>
<totfact> 0.16266696E+04</totfact>
</mgrwt>
</event>
<event>
 4    1  0.5980424E-004  0.3236571E+03  0.7818608E-02  0.1073978E+00
         -2   -1    0    0    0  501 -0.00000000000E+00  0.00000000000E+00  0.17871997265E+02  0.17871997447E+02  0.25500000000E-02 0. -1.
          2   -1    0    0  501    0  0.00000000000E+00 -0.00000000000E+00 -0.14653357056E+04  0.14653357056E+04  0.25500000000E-02 0.  1.
    5000001    1    1    2    0    0 -0.11818773567E+03  0.42525986831E+02 -0.10305531591E+04  0.10410310342E+04  0.77000000000E+02 0.  0.
   -5000001    1    1    2    0    0  0.11818773567E+03 -0.42525986831E+02 -0.41691054925E+03  0.44217666887E+03  0.77000000000E+02 0.  0.
<mgrwt>
<rscale>  0 0.32365708E+03</rscale>
<asrwt>0</asrwt>
<pdfrwt beam="1">  1        2 0.22543617E+00 0.32365708E+03</pdfrwt>
<pdfrwt beam="2">  1       -2 0.27495392E-02 0.32365708E+03</pdfrwt>
<totfact> 0.68890540E+03</totfact>
</mgrwt>
</event>
<event>
 4    1  0.5980424E-004  0.7136344E+03  0.7818608E-02  0.9694196E-01
          2   -1    0    0  501    0  0.00000000000E+00  0.00000000000E+00  0.13437251144E+03  0.13437251147E+03  0.25500000000E-02 0.  1.
         -2   -1    0    0    0  501 -0.00000000000E+00 -0.00000000000E+00 -0.94750404034E+03  0.94750404034E+03  0.25500000000E-02 0. -1.
    5000001    1    1    2    0    0  0.30543715743E+03 -0.16611145262E+03 -0.44062121546E+03  0.56653413608E+03  0.77000000000E+02 0.  0.
   -5000001    1    1    2    0    0 -0.30543715743E+03  0.16611145262E+03 -0.37251031344E+03  0.51534241573E+03  0.77000000000E+02 0.  0.
<mgrwt>
<rscale>  0 0.71363435E+03</rscale>
<asrwt>0</asrwt>
<pdfrwt beam="1">  1        2 0.20672695E-01 0.71363435E+03</pdfrwt>
<pdfrwt beam="2">  1       -2 0.14576985E+00 0.71363435E+03</pdfrwt>
<totfact> 0.89396040E+01</totfact>
</mgrwt>
</event>
<event>
 4    1  0.5980424E-004  0.2419357E+03  0.7818608E-02  0.1118510E+00
         -2   -1    0    0    0  501 -0.00000000000E+00  0.00000000000E+00  0.28533883684E+02  0.28533883798E+02  0.25500000000E-02 0. -1.
          2   -1    0    0  501    0  0.00000000000E+00 -0.00000000000E+00 -0.51283664576E+03  0.51283664577E+03  0.25500000000E-02 0.  1.
    5000001    1    1    2    0    0  0.80853077152E+01  0.71297658046E+02 -0.10872412375E+03  0.15132304295E+03  0.77000000000E+02 0.  0.
   -5000001    1    1    2    0    0 -0.80853077152E+01 -0.71297658046E+02 -0.37557863833E+03  0.39004748662E+03  0.77000000000E+02 0.  0.
<mgrwt>
<rscale>  0 0.24193570E+03</rscale>
<asrwt>0</asrwt>
<pdfrwt beam="1">  1        2 0.78897939E-01 0.24193570E+03</pdfrwt>
<pdfrwt beam="2">  1       -2 0.43898286E-02 0.24193570E+03</pdfrwt>
<totfact> 0.14241428E+04</totfact>
</mgrwt>
</event>
<event>
 4    1  0.5980424E-004  0.1993245E+03  0.7818608E-02  0.1150310E+00
          2   -1    0    0  501    0  0.00000000000E+00  0.00000000000E+00  0.17619154028E+04  0.17619154028E+04  0.25500000000E-02 0.  1.
         -2   -1    0    0    0  501 -0.00000000000E+00 -0.00000000000E+00 -0.56373644195E+01  0.56373649962E+01  0.25500000000E-02 0. -1.
    5000001    1    1    2    0    0 -0.46791438286E+02  0.32802993191E+02  0.11190545997E+04  0.11231552307E+04  0.77000000000E+02 0.  0.
   -5000001    1    1    2    0    0  0.46791438286E+02 -0.32802993191E+02  0.63722343861E+03  0.64439753706E+03  0.77000000000E+02 0.  0.
<mgrwt>
<rscale>  0 0.19932446E+03</rscale>
<asrwt>0</asrwt>
<pdfrwt beam="1">  1        2 0.27106376E+00 0.19932446E+03</pdfrwt>
<pdfrwt beam="2">  1       -2 0.86728736E-03 0.19932446E+03</pdfrwt>
<totfact> 0.25604629E+04</totfact>
</mgrwt>
</event>
<event>
 4    1  0.5980424E-004  0.7230148E+03  0.7818608E-02  0.9678664E-01
         -2   -1    0    0    0  501 -0.00000000000E+00  0.00000000000E+00  0.28980601310E+03  0.28980601311E+03  0.25500000000E-02 0. -1.
          2   -1    0    0  501    0  0.00000000000E+00 -0.00000000000E+00 -0.45094858300E+03  0.45094858301E+03  0.25500000000E-02 0.  1.
    5000001    1    1    2    0    0 -0.25178441283E+03 -0.24644924253E+03 -0.10620498444E+03  0.37595361205E+03  0.77000000000E+02 0.  0.
   -5000001    1    1    2    0    0  0.25178441283E+03  0.24644924253E+03 -0.54937585461E+02  0.36480098408E+03  0.77000000000E+02 0.  0.
<mgrwt>
<rscale>  0 0.72301483E+03</rscale>
<asrwt>0</asrwt>
<pdfrwt beam="1">  1        2 0.69376705E-01 0.72301483E+03</pdfrwt>
<pdfrwt beam="2">  1       -2 0.44585541E-01 0.72301483E+03</pdfrwt>
<totfact> 0.33375606E+02</totfact>
</mgrwt>
</event>
<event>
 4    1  0.5980424E-004  0.1999129E+03  0.7818608E-02  0.1149813E+00
         -2   -1    0    0    0  501 -0.00000000000E+00  0.00000000000E+00  0.47063269957E+01  0.47063276865E+01  0.25500000000E-02 0. -1.
          2   -1    0    0  501    0  0.00000000000E+00 -0.00000000000E+00 -0.21229487197E+04  0.21229487197E+04  0.25500000000E-02 0.  1.
    5000001    1    1    2    0    0 -0.53204321336E+02 -0.30658009272E+02 -0.12408871081E+04  0.12447893108E+04  0.77000000000E+02 0.  0.
   -5000001    1    1    2    0    0  0.53204321336E+02  0.30658009272E+02 -0.87735528463E+03  0.88286573657E+03  0.77000000000E+02 0.  0.
<mgrwt>
<rscale>  0 0.19991290E+03</rscale>
<asrwt>0</asrwt>
<pdfrwt beam="1">  1        2 0.32660673E+00 0.19991290E+03</pdfrwt>
<pdfrwt beam="2">  1       -2 0.72405206E-03 0.19991290E+03</pdfrwt>
<totfact> 0.21546270E+04</totfact>
</mgrwt>
</event>
<event>
 4    1  0.5980424E-004  0.2044451E+03  0.7818608E-02  0.1146042E+00
          2   -1    0    0  501    0  0.00000000000E+00  0.00000000000E+00  0.14840203824E+03  0.14840203826E+03  0.25500000000E-02 0.  1.
         -2   -1    0    0    0  501 -0.00000000000E+00 -0.00000000000E+00 -0.70413113224E+02  0.70413113270E+02  0.25500000000E-02 0. -1.
    5000001    1    1    2    0    0 -0.14051239927E+02 -0.65736920235E+02  0.37611551172E+02  0.10891468591E+03  0.77000000000E+02 0.  0.
   -5000001    1    1    2    0    0  0.14051239927E+02  0.65736920235E+02  0.40377373846E+02  0.10990046562E+03  0.77000000000E+02 0.  0.
<mgrwt>
<rscale>  0 0.20444510E+03</rscale>
<asrwt>0</asrwt>
<pdfrwt beam="1">  1        2 0.22831083E-01 0.20444510E+03</pdfrwt>
<pdfrwt beam="2">  1       -2 0.10832787E-01 0.20444510E+03</pdfrwt>
<totfact> 0.13469472E+04</totfact>
</mgrwt>
</event>
<event>
 4    1  0.5980424E-004  0.4351360E+03  0.7818608E-02  0.1032250E+00
          2   -1    0    0  501    0  0.00000000000E+00  0.00000000000E+00  0.17975625580E+04  0.17975625580E+04  0.25500000000E-02 0.  1.
         -2   -1    0    0    0  501 -0.00000000000E+00 -0.00000000000E+00 -0.26333341396E+02  0.26333341519E+02  0.25500000000E-02 0. -1.
    5000001    1    1    2    0    0 -0.82047849788E+02 -0.13544047122E+03  0.34996652276E+03  0.39176719866E+03  0.77000000000E+02 0.  0.
   -5000001    1    1    2    0    0  0.82047849788E+02  0.13544047122E+03  0.14212626938E+04  0.14321287009E+04  0.77000000000E+02 0.  0.
<mgrwt>
<rscale>  0 0.43513597E+03</rscale>
<asrwt>0</asrwt>
<pdfrwt beam="1">  1        2 0.27654810E+00 0.43513597E+03</pdfrwt>
<pdfrwt beam="2">  1       -2 0.40512831E-02 0.43513597E+03</pdfrwt>
<totfact> 0.25454070E+03</totfact>
</mgrwt>
</event>
<event>
 4    1  0.5980424E-004  0.1755349E+03  0.7818608E-02  0.1172196E+00
         -2   -1    0    0    0  501 -0.00000000000E+00  0.00000000000E+00  0.93302732717E+02  0.93302732752E+02  0.25500000000E-02 0. -1.
          2   -1    0    0  501    0  0.00000000000E+00 -0.00000000000E+00 -0.82560559214E+02  0.82560559253E+02  0.25500000000E-02 0.  1.
    5000001    1    1    2    0    0 -0.39763289445E+02  0.42825555045E+01 -0.78697765280E+01  0.87122860672E+02  0.77000000000E+02 0.  0.
   -5000001    1    1    2    0    0  0.39763289445E+02 -0.42825555045E+01  0.18611950031E+02  0.88740431332E+02  0.77000000000E+02 0.  0.
<mgrwt>
<rscale>  0 0.17553491E+03</rscale>
<asrwt>0</asrwt>
<pdfrwt beam="1">  1        2 0.12701625E-01 0.17553491E+03</pdfrwt>
<pdfrwt beam="2">  1       -2 0.14354267E-01 0.17553491E+03</pdfrwt>
<totfact> 0.16705796E+04</totfact>
</mgrwt>
</event>
<event>
 4    1  0.5980424E-004  0.1842916E+03  0.7818608E-02  0.1163713E+00
          2   -1    0    0  501    0  0.00000000000E+00  0.00000000000E+00  0.71086310263E+03  0.71086310264E+03  0.25500000000E-02 0.  1.
         -2   -1    0    0    0  501 -0.00000000000E+00 -0.00000000000E+00 -0.11944417375E+02  0.11944417647E+02  0.25500000000E-02 0. -1.
    5000001    1    1    2    0    0 -0.33420347899E+02 -0.21709188082E+01  0.49830308429E+03  0.50532820657E+03  0.77000000000E+02 0.  0.
   -5000001    1    1    2    0    0  0.33420347899E+02  0.21709188082E+01  0.20061560096E+03  0.21747931371E+03  0.77000000000E+02 0.  0.
<mgrwt>
<rscale>  0 0.18429157E+03</rscale>
<asrwt>0</asrwt>
<pdfrwt beam="1">  1        2 0.10936361E+00 0.18429157E+03</pdfrwt>
<pdfrwt beam="2">  1       -2 0.18376017E-02 0.18429157E+03</pdfrwt>
<totfact> 0.34773403E+04</totfact>
</mgrwt>
</event>
<event>
 4    1  0.5980424E-004  0.1706670E+03  0.7818608E-02  0.1177154E+00
         -2   -1    0    0    0  501 -0.00000000000E+00  0.00000000000E+00  0.24019096270E+02  0.24019096406E+02  0.25500000000E-02 0. -1.
          2   -1    0    0  501    0  0.00000000000E+00 -0.00000000000E+00 -0.30316724516E+03  0.30316724517E+03  0.25500000000E-02 0.  1.
    5000001    1    1    2    0    0 -0.13967850905E+01  0.31998479975E+02 -0.10490948460E+03  0.13401810955E+03  0.77000000000E+02 0.  0.
   -5000001    1    1    2    0    0  0.13967850905E+01 -0.31998479975E+02 -0.17423866429E+03  0.19316823203E+03  0.77000000000E+02 0.  0.
<mgrwt>
<rscale>  0 0.17066697E+03</rscale>
<asrwt>0</asrwt>
<pdfrwt beam="1">  1        2 0.46641112E-01 0.17066697E+03</pdfrwt>
<pdfrwt beam="2">  1       -2 0.36952458E-02 0.17066697E+03</pdfrwt>
<totfact> 0.31772896E+04</totfact>
</mgrwt>
</event>
<event>
 4    1  0.5980424E-004  0.2475171E+03  0.7818608E-02  0.1114884E+00
          2   -1    0    0  501    0  0.00000000000E+00  0.00000000000E+00  0.89064257059E+03  0.89064257060E+03  0.25500000000E-02 0.  1.
         -2   -1    0    0    0  501 -0.00000000000E+00 -0.00000000000E+00 -0.17196779447E+02  0.17196779636E+02  0.25500000000E-02 0. -1.
    5000001    1    1    2    0    0  0.46310939590E+02 -0.84428658380E+02  0.47593259449E+03  0.49164391177E+03  0.77000000000E+02 0.  0.
   -5000001    1    1    2    0    0 -0.46310939590E+02  0.84428658380E+02  0.39751319665E+03  0.41619543846E+03  0.77000000000E+02 0.  0.
<mgrwt>
<rscale>  0 0.24751714E+03</rscale>
<asrwt>0</asrwt>
<pdfrwt beam="1">  1        2 0.13702193E+00 0.24751714E+03</pdfrwt>
<pdfrwt beam="2">  1       -2 0.26456584E-02 0.24751714E+03</pdfrwt>
<totfact> 0.15604074E+04</totfact>
</mgrwt>
</event>
<event>
 4    1  0.5980424E-004  0.4623692E+03  0.7818608E-02  0.1024096E+00
          2   -1    0    0  501    0  0.00000000000E+00  0.00000000000E+00  0.80783824421E+03  0.80783824421E+03  0.25500000000E-02 0.  1.
         -2   -1    0    0    0  501 -0.00000000000E+00 -0.00000000000E+00 -0.66159671948E+02  0.66159671997E+02  0.25500000000E-02 0. -1.
    5000001    1    1    2    0    0  0.83579078087E+02 -0.16915826858E+03  0.57719240076E+03  0.61211114155E+03  0.77000000000E+02 0.  0.
   -5000001    1    1    2    0    0 -0.83579078087E+02  0.16915826858E+03  0.16448617150E+03  0.26188677465E+03  0.77000000000E+02 0.  0.
<mgrwt>
<rscale>  0 0.46236917E+03</rscale>
<asrwt>0</asrwt>
<pdfrwt beam="1">  1        2 0.12428279E+00 0.46236917E+03</pdfrwt>
<pdfrwt beam="2">  1       -2 0.10178412E-01 0.46236917E+03</pdfrwt>
<totfact> 0.22679015E+03</totfact>
</mgrwt>
</event>
<event>
 4    1  0.5980424E-004  0.3038040E+03  0.7818608E-02  0.1083354E+00
          2   -1    0    0  501    0  0.00000000000E+00  0.00000000000E+00  0.42201911873E+02  0.42201911950E+02  0.25500000000E-02 0.  1.
         -2   -1    0    0    0  501 -0.00000000000E+00 -0.00000000000E+00 -0.54675777225E+03  0.54675777226E+03  0.25500000000E-02 0. -1.
    5000001    1    1    2    0    0  0.44958494274E+02  0.11878030027E+03 -0.31404646147E+03  0.34739632396E+03  0.77000000000E+02 0.  0.
   -5000001    1    1    2    0    0 -0.44958494274E+02 -0.11878030027E+03 -0.19050939891E+03  0.24156336025E+03  0.77000000000E+02 0.  0.
<mgrwt>
<rscale>  0 0.30380404E+03</rscale>
<asrwt>0</asrwt>
<pdfrwt beam="1">  1        2 0.64926022E-02 0.30380404E+03</pdfrwt>
<pdfrwt beam="2">  1       -2 0.84116575E-01 0.30380404E+03</pdfrwt>
<totfact> 0.14219002E+03</totfact>
</mgrwt>
</event>
<event>
 4    1  0.5980424E-004  0.3114052E+03  0.7818608E-02  0.1079674E+00
         -2   -1    0    0    0  501 -0.00000000000E+00  0.00000000000E+00  0.32892824358E+02  0.32892824457E+02  0.25500000000E-02 0. -1.
          2   -1    0    0  501    0  0.00000000000E+00 -0.00000000000E+00 -0.73703937125E+03  0.73703937126E+03  0.25500000000E-02 0.  1.
    5000001    1    1    2    0    0  0.47418243114E+02  0.11175237748E+03 -0.49994990970E+03  0.52020764687E+03  0.77000000000E+02 0.  0.
   -5000001    1    1    2    0    0 -0.47418243114E+02 -0.11175237748E+03 -0.20419663719E+03  0.24972454884E+03  0.77000000000E+02 0.  0.
<mgrwt>
<rscale>  0 0.31140524E+03</rscale>
<asrwt>0</asrwt>
<pdfrwt beam="1">  1        2 0.11339066E+00 0.31140524E+03</pdfrwt>
<pdfrwt beam="2">  1       -2 0.50604351E-02 0.31140524E+03</pdfrwt>
<totfact> 0.75750098E+03</totfact>
</mgrwt>
</event>
<event>
 4    1  0.5980424E-004  0.1896002E+03  0.7818608E-02  0.1158822E+00
          2   -1    0    0  501    0  0.00000000000E+00  0.00000000000E+00  0.69712731668E+03  0.69712731668E+03  0.25500000000E-02 0.  1.
         -2   -1    0    0    0  501 -0.00000000000E+00 -0.00000000000E+00 -0.12891558563E+02  0.12891558815E+02  0.25500000000E-02 0. -1.
    5000001    1    1    2    0    0  0.23480880466E+01  0.54463326058E+02  0.37690449368E+03  0.38853283614E+03  0.77000000000E+02 0.  0.
   -5000001    1    1    2    0    0 -0.23480880466E+01 -0.54463326058E+02  0.30733126443E+03  0.32148603936E+03  0.77000000000E+02 0.  0.
<mgrwt>
<rscale>  0 0.18960019E+03</rscale>
<asrwt>0</asrwt>
<pdfrwt beam="1">  1        2 0.10725036E+00 0.18960019E+03</pdfrwt>
<pdfrwt beam="2">  1       -2 0.19833167E-02 0.18960019E+03</pdfrwt>
<totfact> 0.31920658E+04</totfact>
</mgrwt>
</event>
<event>
 4    1  0.5980424E-004  0.1912904E+03  0.7818608E-02  0.1157303E+00
          2   -1    0    0  501    0  0.00000000000E+00  0.00000000000E+00  0.21803932488E+03  0.21803932490E+03  0.25500000000E-02 0.  1.
         -2   -1    0    0    0  501 -0.00000000000E+00 -0.00000000000E+00 -0.41955772127E+02  0.41955772205E+02  0.25500000000E-02 0. -1.
    5000001    1    1    2    0    0 -0.12389651782E+02 -0.35155491412E+02  0.14617836081E+03  0.16937096923E+03  0.77000000000E+02 0.  0.
   -5000001    1    1    2    0    0  0.12389651782E+02  0.35155491412E+02  0.29905191943E+02  0.90624127873E+02  0.77000000000E+02 0.  0.
<mgrwt>
<rscale>  0 0.19129044E+03</rscale>
<asrwt>0</asrwt>
<pdfrwt beam="1">  1        2 0.33544512E-01 0.19129044E+03</pdfrwt>
<pdfrwt beam="2">  1       -2 0.64547342E-02 0.19129044E+03</pdfrwt>
<totfact> 0.19692531E+04</totfact>
</mgrwt>
</event>
<event>
 4    1  0.5980424E-004  0.1694063E+03  0.7818608E-02  0.1178468E+00
         -2   -1    0    0    0  501 -0.00000000000E+00  0.00000000000E+00  0.84340255829E+02  0.84340255868E+02  0.25500000000E-02 0. -1.
          2   -1    0    0  501    0  0.00000000000E+00 -0.00000000000E+00 -0.85067605710E+02  0.85067605748E+02  0.25500000000E-02 0.  1.
    5000001    1    1    2    0    0  0.22752627008E+02 -0.21003374466E+02 -0.17298997410E+02  0.84776642338E+02  0.77000000000E+02 0.  0.
   -5000001    1    1    2    0    0 -0.22752627008E+02  0.21003374466E+02  0.16571647529E+02  0.84631219278E+02  0.77000000000E+02 0.  0.
<mgrwt>
<rscale>  0 0.16940630E+03</rscale>
<asrwt>0</asrwt>
<pdfrwt beam="1">  1        2 0.13087324E-01 0.16940630E+03</pdfrwt>
<pdfrwt beam="2">  1       -2 0.12975424E-01 0.16940630E+03</pdfrwt>
<totfact> 0.18934056E+04</totfact>
</mgrwt>
</event>
<event>
 4    1  0.5980424E-004  0.4713601E+03  0.7818608E-02  0.1021537E+00
          2   -1    0    0  501    0  0.00000000000E+00  0.00000000000E+00  0.20458499255E+03  0.20458499257E+03  0.25500000000E-02 0.  1.
         -2   -1    0    0    0  501 -0.00000000000E+00 -0.00000000000E+00 -0.27150123333E+03  0.27150123334E+03  0.25500000000E-02 0. -1.
    5000001    1    1    2    0    0  0.10020072101E+03 -0.17410065082E+03 -0.13067735206E+03  0.25170775007E+03  0.77000000000E+02 0.  0.
   -5000001    1    1    2    0    0 -0.10020072101E+03  0.17410065082E+03  0.63761111279E+02  0.22437847584E+03  0.77000000000E+02 0.  0.
<mgrwt>
<rscale>  0 0.47136007E+03</rscale>
<asrwt>0</asrwt>
<pdfrwt beam="1">  1        2 0.31474614E-01 0.47136007E+03</pdfrwt>
<pdfrwt beam="2">  1       -2 0.41769421E-01 0.47136007E+03</pdfrwt>
<totfact> 0.91743726E+02</totfact>
</mgrwt>
</event>
<event>
 4    1  0.5980424E-004  0.2526723E+03  0.7818608E-02  0.1111628E+00
          2   -1    0    0  501    0  0.00000000000E+00  0.00000000000E+00  0.85003814007E+03  0.85003814007E+03  0.25500000000E-02 0.  1.
         -2   -1    0    0    0  501 -0.00000000000E+00 -0.00000000000E+00 -0.18776602465E+02  0.18776602638E+02  0.25500000000E-02 0. -1.
    5000001    1    1    2    0    0 -0.79224070690E+02  0.45739881225E+02  0.27539890739E+03  0.30023682036E+03  0.77000000000E+02 0.  0.
   -5000001    1    1    2    0    0  0.79224070690E+02 -0.45739881225E+02  0.55586263022E+03  0.56857792235E+03  0.77000000000E+02 0.  0.
<mgrwt>
<rscale>  0 0.25267234E+03</rscale>
<asrwt>0</asrwt>
<pdfrwt beam="1">  1        2 0.13077509E+00 0.25267234E+03</pdfrwt>
<pdfrwt beam="2">  1       -2 0.28887083E-02 0.25267234E+03</pdfrwt>
<totfact> 0.14578402E+04</totfact>
</mgrwt>
</event>
<event>
 4    1  0.5980424E-004  0.2225899E+03  0.7818608E-02  0.1131967E+00
          2   -1    0    0  501    0  0.00000000000E+00  0.00000000000E+00  0.32340207596E+03  0.32340207597E+03  0.25500000000E-02 0.  1.
         -2   -1    0    0    0  501 -0.00000000000E+00 -0.00000000000E+00 -0.38300818632E+02  0.38300818717E+02  0.25500000000E-02 0. -1.
    5000001    1    1    2    0    0  0.55223888696E+02 -0.58209992317E+02  0.14972322748E+03  0.18650502925E+03  0.77000000000E+02 0.  0.
   -5000001    1    1    2    0    0 -0.55223888696E+02  0.58209992317E+02  0.13537802985E+03  0.17519786544E+03  0.77000000000E+02 0.  0.
<mgrwt>
<rscale>  0 0.22258989E+03</rscale>
<asrwt>0</asrwt>
<pdfrwt beam="1">  1        2 0.49754167E-01 0.22258989E+03</pdfrwt>
<pdfrwt beam="2">  1       -2 0.58924334E-02 0.22258989E+03</pdfrwt>
<totfact> 0.14982948E+04</totfact>
</mgrwt>
</event>
<event>
 4    1  0.5980424E-004  0.2153214E+03  0.7818608E-02  0.1137420E+00
         -2   -1    0    0    0  501 -0.00000000000E+00  0.00000000000E+00  0.18069791630E+02  0.18069791810E+02  0.25500000000E-02 0. -1.
          2   -1    0    0  501    0  0.00000000000E+00 -0.00000000000E+00 -0.64144776933E+03  0.64144776933E+03  0.25500000000E-02 0.  1.
    5000001    1    1    2    0    0  0.40779226858E+02  0.20187998308E+02 -0.12813381972E+03  0.15626188395E+03  0.77000000000E+02 0.  0.
   -5000001    1    1    2    0    0 -0.40779226858E+02 -0.20187998308E+02 -0.49524415797E+03  0.50325567719E+03  0.77000000000E+02 0.  0.
<mgrwt>
<rscale>  0 0.21532141E+03</rscale>
<asrwt>0</asrwt>
<pdfrwt beam="1">  1        2 0.98684255E-01 0.21532141E+03</pdfrwt>
<pdfrwt beam="2">  1       -2 0.27799685E-02 0.21532141E+03</pdfrwt>
<totfact> 0.21646424E+04</totfact>
</mgrwt>
</event>
<event>
 4    1  0.5980424E-004  0.2626210E+03  0.7818608E-02  0.1105579E+00
          2   -1    0    0  501    0  0.00000000000E+00  0.00000000000E+00  0.10718163955E+04  0.10718163955E+04  0.25500000000E-02 0.  1.
         -2   -1    0    0    0  501 -0.00000000000E+00 -0.00000000000E+00 -0.16087131929E+02  0.16087132131E+02  0.25500000000E-02 0. -1.
    5000001    1    1    2    0    0 -0.17994303842E+02 -0.64607464851E+02  0.18587670768E+03  0.21207798080E+03  0.77000000000E+02 0.  0.
   -5000001    1    1    2    0    0  0.17994303842E+02  0.64607464851E+02  0.86985255591E+03  0.87582554685E+03  0.77000000000E+02 0.  0.
<mgrwt>
<rscale>  0 0.26262103E+03</rscale>
<asrwt>0</asrwt>
<pdfrwt beam="1">  1        2 0.16489479E+00 0.26262103E+03</pdfrwt>
<pdfrwt beam="2">  1       -2 0.24749440E-02 0.26262103E+03</pdfrwt>
<totfact> 0.13339962E+04</totfact>
</mgrwt>
</event>
<event>
 4    1  0.5980424E-004  0.1909390E+03  0.7818608E-02  0.1157617E+00
          2   -1    0    0  501    0  0.00000000000E+00  0.00000000000E+00  0.80535787842E+02  0.80535787883E+02  0.25500000000E-02 0.  1.
         -2   -1    0    0    0  501 -0.00000000000E+00 -0.00000000000E+00 -0.11317234888E+03  0.11317234891E+03  0.25500000000E-02 0. -1.
    5000001    1    1    2    0    0 -0.53906400459E+02 -0.47879303737E+00 -0.33272775309E+02  0.99710615433E+02  0.77000000000E+02 0.  0.
   -5000001    1    1    2    0    0  0.53906400459E+02  0.47879303737E+00  0.63621427043E+00  0.93997521360E+02  0.77000000000E+02 0.  0.
<mgrwt>
<rscale>  0 0.19093899E+03</rscale>
<asrwt>0</asrwt>
<pdfrwt beam="1">  1        2 0.12390121E-01 0.19093899E+03</pdfrwt>
<pdfrwt beam="2">  1       -2 0.17411131E-01 0.19093899E+03</pdfrwt>
<totfact> 0.12595177E+04</totfact>
</mgrwt>
</event>
<event>
 4    1  0.5980424E-004  0.2283831E+03  0.7818608E-02  0.1127783E+00
          2   -1    0    0  501    0  0.00000000000E+00  0.00000000000E+00  0.53193617721E+03  0.53193617722E+03  0.25500000000E-02 0.  1.
         -2   -1    0    0    0  501 -0.00000000000E+00 -0.00000000000E+00 -0.24513665611E+02  0.24513665743E+02  0.25500000000E-02 0. -1.
    5000001    1    1    2    0    0 -0.63338983587E+02  0.19156425518E+02  0.12636231429E+03  0.16209636008E+03  0.77000000000E+02 0.  0.
   -5000001    1    1    2    0    0  0.63338983587E+02 -0.19156425518E+02  0.38106019731E+03  0.39435348288E+03  0.77000000000E+02 0.  0.
<mgrwt>
<rscale>  0 0.22838306E+03</rscale>
<asrwt>0</asrwt>
<pdfrwt beam="1">  1        2 0.81836340E-01 0.22838306E+03</pdfrwt>
<pdfrwt beam="2">  1       -2 0.37713329E-02 0.22838306E+03</pdfrwt>
<totfact> 0.17115018E+04</totfact>
</mgrwt>
</event>
<event>
 4    1  0.5980424E-004  0.2939123E+03  0.7818608E-02  0.1088324E+00
          2   -1    0    0  501    0  0.00000000000E+00  0.00000000000E+00  0.94779977863E+03  0.94779977863E+03  0.25500000000E-02 0.  1.
         -2   -1    0    0    0  501 -0.00000000000E+00 -0.00000000000E+00 -0.22785516686E+02  0.22785516828E+02  0.25500000000E-02 0. -1.
    5000001    1    1    2    0    0 -0.11148035900E+03  0.55823552382E+02  0.42588761931E+03  0.45039249963E+03  0.77000000000E+02 0.  0.
   -5000001    1    1    2    0    0  0.11148035900E+03 -0.55823552382E+02  0.49912664264E+03  0.52019279583E+03  0.77000000000E+02 0.  0.
<mgrwt>
<rscale>  0 0.29391228E+03</rscale>
<asrwt>0</asrwt>
<pdfrwt beam="1">  1        2 0.14581533E+00 0.29391228E+03</pdfrwt>
<pdfrwt beam="2">  1       -2 0.35054647E-02 0.29391228E+03</pdfrwt>
<totfact> 0.94927117E+03</totfact>
</mgrwt>
</event>
<event>
 4    1  0.5980424E-004  0.4525307E+03  0.7818608E-02  0.1026970E+00
         -2   -1    0    0    0  501 -0.00000000000E+00  0.00000000000E+00  0.60084347877E+02  0.60084347931E+02  0.25500000000E-02 0. -1.
          2   -1    0    0  501    0  0.00000000000E+00 -0.00000000000E+00 -0.85206894461E+03  0.85206894461E+03  0.25500000000E-02 0.  1.
    5000001    1    1    2    0    0 -0.12274092998E+03 -0.98381071192E+02 -0.68475325750E+03  0.70679572348E+03  0.77000000000E+02 0.  0.
   -5000001    1    1    2    0    0  0.12274092998E+03  0.98381071192E+02 -0.10723133923E+03  0.20535756907E+03  0.77000000000E+02 0.  0.
<mgrwt>
<rscale>  0 0.45253069E+03</rscale>
<asrwt>0</asrwt>
<pdfrwt beam="1">  1        2 0.13108752E+00 0.45253069E+03</pdfrwt>
<pdfrwt beam="2">  1       -2 0.92437465E-02 0.45253069E+03</pdfrwt>
<totfact> 0.24675677E+03</totfact>
</mgrwt>
</event>
<event>
 4    1  0.5980424E-004  0.2907539E+03  0.7818608E-02  0.1089956E+00
          2   -1    0    0  501    0  0.00000000000E+00  0.00000000000E+00  0.11498318233E+04  0.11498318233E+04  0.25500000000E-02 0.  1.
         -2   -1    0    0    0  501 -0.00000000000E+00 -0.00000000000E+00 -0.18380482183E+02  0.18380482359E+02  0.25500000000E-02 0. -1.
    5000001    1    1    2    0    0  0.59868789882E+02  0.95990622014E+02  0.76284693886E+03  0.77502446648E+03  0.77000000000E+02 0.  0.
   -5000001    1    1    2    0    0 -0.59868789882E+02 -0.95990622014E+02  0.36860440226E+03  0.39318783918E+03  0.77000000000E+02 0.  0.
<mgrwt>
<rscale>  0 0.29075394E+03</rscale>
<asrwt>0</asrwt>
<pdfrwt beam="1">  1        2 0.17689728E+00 0.29075394E+03</pdfrwt>
<pdfrwt beam="2">  1       -2 0.28277654E-02 0.29075394E+03</pdfrwt>
<totfact> 0.98844982E+03</totfact>
</mgrwt>
</event>
<event>
 4    1  0.5980424E-004  0.2729535E+03  0.7818608E-02  0.1099601E+00
          2   -1    0    0  501    0  0.00000000000E+00  0.00000000000E+00  0.10093558863E+04  0.10093558863E+04  0.25500000000E-02 0.  1.
         -2   -1    0    0    0  501 -0.00000000000E+00 -0.00000000000E+00 -0.18453255374E+02  0.18453255551E+02  0.25500000000E-02 0. -1.
    5000001    1    1    2    0    0 -0.65470542353E+02  0.55124657527E+02  0.21946787582E+03  0.24783112859E+03  0.77000000000E+02 0.  0.
   -5000001    1    1    2    0    0  0.65470542353E+02 -0.55124657527E+02  0.77143475514E+03  0.77997801330E+03  0.77000000000E+02 0.  0.
<mgrwt>
<rscale>  0 0.27295349E+03</rscale>
<asrwt>0</asrwt>
<pdfrwt beam="1">  1        2 0.15528558E+00 0.27295349E+03</pdfrwt>
<pdfrwt beam="2">  1       -2 0.28389613E-02 0.27295349E+03</pdfrwt>
<totfact> 0.11883914E+04</totfact>
</mgrwt>
</event>
<event>
 4    1  0.5980424E-004  0.2142239E+03  0.7818608E-02  0.1138264E+00
          2   -1    0    0  501    0  0.00000000000E+00  0.00000000000E+00  0.69979056844E+03  0.69979056844E+03  0.25500000000E-02 0.  1.
         -2   -1    0    0    0  501 -0.00000000000E+00 -0.00000000000E+00 -0.16394864576E+02  0.16394864774E+02  0.25500000000E-02 0. -1.
    5000001    1    1    2    0    0 -0.45993976755E+02 -0.47482130157E+02  0.45624561129E+03  0.46739603807E+03  0.77000000000E+02 0.  0.
   -5000001    1    1    2    0    0  0.45993976755E+02  0.47482130157E+02  0.22715009256E+03  0.24878939514E+03  0.77000000000E+02 0.  0.
<mgrwt>
<rscale>  0 0.21422392E+03</rscale>
<asrwt>0</asrwt>
<pdfrwt beam="1">  1        2 0.10766008E+00 0.21422392E+03</pdfrwt>
<pdfrwt beam="2">  1       -2 0.25222870E-02 0.21422392E+03</pdfrwt>
<totfact> 0.22523490E+04</totfact>
</mgrwt>
</event>
<event>
 4    1  0.5980424E-004  0.2237067E+03  0.7818608E-02  0.1131149E+00
          2   -1    0    0  501    0  0.00000000000E+00  0.00000000000E+00  0.59784737840E+03  0.59784737841E+03  0.25500000000E-02 0.  1.
         -2   -1    0    0    0  501 -0.00000000000E+00 -0.00000000000E+00 -0.20927040841E+02  0.20927040997E+02  0.25500000000E-02 0. -1.
    5000001    1    1    2    0    0 -0.15993664143E+02 -0.66683294083E+02  0.40838236615E+03  0.42119783473E+03  0.77000000000E+02 0.  0.
   -5000001    1    1    2    0    0  0.15993664143E+02  0.66683294083E+02  0.16853797141E+03  0.19757658467E+03  0.77000000000E+02 0.  0.
<mgrwt>
<rscale>  0 0.22370674E+03</rscale>
<asrwt>0</asrwt>
<pdfrwt beam="1">  1        2 0.91976511E-01 0.22370674E+03</pdfrwt>
<pdfrwt beam="2">  1       -2 0.32195451E-02 0.22370674E+03</pdfrwt>
<totfact> 0.18944879E+04</totfact>
</mgrwt>
</event>
<event>
 4    1  0.5980424E-004  0.3828983E+03  0.7818608E-02  0.1049868E+00
          2   -1    0    0  501    0  0.00000000000E+00  0.00000000000E+00  0.11251403516E+03  0.11251403519E+03  0.25500000000E-02 0.  1.
         -2   -1    0    0    0  501 -0.00000000000E+00 -0.00000000000E+00 -0.32576175813E+03  0.32576175814E+03  0.25500000000E-02 0. -1.
    5000001    1    1    2    0    0  0.16154220792E+03 -0.22157248157E+02 -0.33002512747E+02  0.18331665073E+03  0.77000000000E+02 0.  0.
   -5000001    1    1    2    0    0 -0.16154220792E+03  0.22157248157E+02 -0.18024521022E+03  0.25495914260E+03  0.77000000000E+02 0.  0.
<mgrwt>
<rscale>  0 0.38289826E+03</rscale>
<asrwt>0</asrwt>
<pdfrwt beam="1">  1        2 0.17309852E-01 0.38289826E+03</pdfrwt>
<pdfrwt beam="2">  1       -2 0.50117193E-01 0.38289826E+03</pdfrwt>
<totfact> 0.12651453E+03</totfact>
</mgrwt>
</event>
<event>
 4    1  0.5980424E-004  0.2938324E+03  0.7818608E-02  0.1088365E+00
          2   -1    0    0  501    0  0.00000000000E+00  0.00000000000E+00  0.13581244431E+04  0.13581244431E+04  0.25500000000E-02 0.  1.
         -2   -1    0    0    0  501 -0.00000000000E+00 -0.00000000000E+00 -0.15892773696E+02  0.15892773900E+02  0.25500000000E-02 0. -1.
    5000001    1    1    2    0    0 -0.11069227598E+03  0.33679980753E+02  0.44840703221E+03  0.46945179476E+03  0.77000000000E+02 0.  0.
   -5000001    1    1    2    0    0  0.11069227598E+03 -0.33679980753E+02  0.89382463716E+03  0.90456542221E+03  0.77000000000E+02 0.  0.
<mgrwt>
<rscale>  0 0.29383236E+03</rscale>
<asrwt>0</asrwt>
<pdfrwt beam="1">  1        2 0.20894224E+00 0.29383236E+03</pdfrwt>
<pdfrwt beam="2">  1       -2 0.24450419E-02 0.29383236E+03</pdfrwt>
<totfact> 0.93697488E+03</totfact>
</mgrwt>
</event>
<event>
 4    1  0.5980424E-004  0.1742925E+03  0.7818608E-02  0.1173444E+00
          2   -1    0    0  501    0  0.00000000000E+00  0.00000000000E+00  0.60921027685E+03  0.60921027685E+03  0.25500000000E-02 0.  1.
         -2   -1    0    0    0  501 -0.00000000000E+00 -0.00000000000E+00 -0.12466084487E+02  0.12466084748E+02  0.25500000000E-02 0. -1.
    5000001    1    1    2    0    0  0.37186539022E+02  0.72636947145E+01  0.35245051068E+03  0.36274779451E+03  0.77000000000E+02 0.  0.
   -5000001    1    1    2    0    0 -0.37186539022E+02 -0.72636947145E+01  0.24429368168E+03  0.25892856709E+03  0.77000000000E+02 0.  0.
<mgrwt>
<rscale>  0 0.17429248E+03</rscale>
<asrwt>0</asrwt>
<pdfrwt beam="1">  1        2 0.93724685E-01 0.17429248E+03</pdfrwt>
<pdfrwt beam="2">  1       -2 0.19178586E-02 0.17429248E+03</pdfrwt>
<totfact> 0.38996253E+04</totfact>
</mgrwt>
</event>
<event>
 4    1  0.5980424E-004  0.1693727E+03  0.7818608E-02  0.1178504E+00
          2   -1    0    0  501    0  0.00000000000E+00  0.00000000000E+00  0.99292603931E+02  0.99292603964E+02  0.25500000000E-02 0.  1.
         -2   -1    0    0    0  501 -0.00000000000E+00 -0.00000000000E+00 -0.72228750061E+02  0.72228750106E+02  0.25500000000E-02 0. -1.
    5000001    1    1    2    0    0 -0.29508126571E+02  0.11424412301E+02 -0.22065894929E+01  0.83277342461E+02  0.77000000000E+02 0.  0.
   -5000001    1    1    2    0    0  0.29508126571E+02 -0.11424412301E+02  0.29270443363E+02  0.88244011609E+02  0.77000000000E+02 0.  0.
<mgrwt>
<rscale>  0 0.16937273E+03</rscale>
<asrwt>0</asrwt>
<pdfrwt beam="1">  1        2 0.15275785E-01 0.16937273E+03</pdfrwt>
<pdfrwt beam="2">  1       -2 0.11112115E-01 0.16937273E+03</pdfrwt>
<totfact> 0.20213618E+04</totfact>
</mgrwt>
</event>
<event>
 4    1  0.5980424E-004  0.2524455E+03  0.7818608E-02  0.1111769E+00
         -2   -1    0    0    0  501 -0.00000000000E+00  0.00000000000E+00  0.12588534878E+03  0.12588534881E+03  0.25500000000E-02 0. -1.
          2   -1    0    0  501    0  0.00000000000E+00 -0.00000000000E+00 -0.12656109053E+03  0.12656109056E+03  0.25500000000E-02 0.  1.
    5000001    1    1    2    0    0  0.89076671546E+02  0.36934155252E+02 -0.26878534770E+02  0.12629426301E+03  0.77000000000E+02 0.  0.
   -5000001    1    1    2    0    0 -0.89076671546E+02 -0.36934155252E+02  0.26202793023E+02  0.12615217636E+03  0.77000000000E+02 0.  0.
<mgrwt>
<rscale>  0 0.25244553E+03</rscale>
<asrwt>0</asrwt>
<pdfrwt beam="1">  1        2 0.19470937E-01 0.25244553E+03</pdfrwt>
<pdfrwt beam="2">  1       -2 0.19366977E-01 0.25244553E+03</pdfrwt>
<totfact> 0.62838170E+03</totfact>
</mgrwt>
</event>
<event>
 4    1  0.5980424E-004  0.2492195E+03  0.7818608E-02  0.1113799E+00
         -2   -1    0    0    0  501 -0.00000000000E+00  0.00000000000E+00  0.21278558384E+03  0.21278558385E+03  0.25500000000E-02 0. -1.
          2   -1    0    0  501    0  0.00000000000E+00 -0.00000000000E+00 -0.72972922261E+02  0.72972922306E+02  0.25500000000E-02 0.  1.
    5000001    1    1    2    0    0  0.51927259518E+02 -0.75074084055E+02  0.11070432112E+03  0.16284042831E+03  0.77000000000E+02 0.  0.
   -5000001    1    1    2    0    0 -0.51927259518E+02  0.75074084055E+02  0.29108340457E+02  0.12291807785E+03  0.77000000000E+02 0.  0.
<mgrwt>
<rscale>  0 0.24921947E+03</rscale>
<asrwt>0</asrwt>
<pdfrwt beam="1">  1        2 0.11226603E-01 0.24921947E+03</pdfrwt>
<pdfrwt beam="2">  1       -2 0.32736243E-01 0.24921947E+03</pdfrwt>
<totfact> 0.47740321E+03</totfact>
</mgrwt>
</event>
<event>
 4    1  0.5980424E-004  0.2245924E+03  0.7818608E-02  0.1130505E+00
         -2   -1    0    0    0  501 -0.00000000000E+00  0.00000000000E+00  0.36823803907E+02  0.36823803995E+02  0.25500000000E-02 0. -1.
          2   -1    0    0  501    0  0.00000000000E+00 -0.00000000000E+00 -0.34245326940E+03  0.34245326941E+03  0.25500000000E-02 0.  1.
    5000001    1    1    2    0    0  0.78350219158E+02 -0.44161663484E+00 -0.11348205135E+03  0.15794343242E+03  0.77000000000E+02 0.  0.
   -5000001    1    1    2    0    0 -0.78350219158E+02  0.44161663484E+00 -0.19214741414E+03  0.22133364098E+03  0.77000000000E+02 0.  0.
<mgrwt>
<rscale>  0 0.22459236E+03</rscale>
<asrwt>0</asrwt>
<pdfrwt beam="1">  1        2 0.52685116E-01 0.22459236E+03</pdfrwt>
<pdfrwt beam="2">  1       -2 0.56652008E-02 0.22459236E+03</pdfrwt>
<totfact> 0.14970191E+04</totfact>
</mgrwt>
</event>
<event>
 4    1  0.5980424E-004  0.2715319E+03  0.7818608E-02  0.1100406E+00
          2   -1    0    0  501    0  0.00000000000E+00  0.00000000000E+00  0.25160589922E+03  0.25160589923E+03  0.25500000000E-02 0.  1.
         -2   -1    0    0    0  501 -0.00000000000E+00 -0.00000000000E+00 -0.73258989979E+02  0.73258990023E+02  0.25500000000E-02 0. -1.
    5000001    1    1    2    0    0  0.97545639036E+01 -0.11099836181E+03  0.10037168427E+03  0.16858013775E+03  0.77000000000E+02 0.  0.
   -5000001    1    1    2    0    0 -0.97545639036E+01  0.11099836181E+03  0.77975224970E+02  0.15628475150E+03  0.77000000000E+02 0.  0.
<mgrwt>
<rscale>  0 0.27153191E+03</rscale>
<asrwt>0</asrwt>
<pdfrwt beam="1">  1        2 0.38708601E-01 0.27153191E+03</pdfrwt>
<pdfrwt beam="2">  1       -2 0.11270614E-01 0.27153191E+03</pdfrwt>
<totfact> 0.71882100E+03</totfact>
</mgrwt>
</event>
<event>
 4    1  0.5980424E-004  0.3673499E+03  0.7818608E-02  0.1055711E+00
          2   -1    0    0  501    0  0.00000000000E+00  0.00000000000E+00  0.10166364402E+03  0.10166364405E+03  0.25500000000E-02 0.  1.
         -2   -1    0    0    0  501 -0.00000000000E+00 -0.00000000000E+00 -0.33184410635E+03  0.33184410636E+03  0.25500000000E-02 0. -1.
    5000001    1    1    2    0    0 -0.17953781819E+02 -0.14334039836E+03 -0.16789852420E+02  0.16455912988E+03  0.77000000000E+02 0.  0.
   -5000001    1    1    2    0    0  0.17953781819E+02  0.14334039836E+03 -0.21339060992E+03  0.26894862053E+03  0.77000000000E+02 0.  0.
<mgrwt>
<rscale>  0 0.36734987E+03</rscale>
<asrwt>0</asrwt>
<pdfrwt beam="1">  1        2 0.15640561E-01 0.36734987E+03</pdfrwt>
<pdfrwt beam="2">  1       -2 0.51052939E-01 0.36734987E+03</pdfrwt>
<totfact> 0.13737441E+03</totfact>
</mgrwt>
</event>
<event>
 4    1  0.5980424E-004  0.3605079E+03  0.7818608E-02  0.1058383E+00
          2   -1    0    0  501    0  0.00000000000E+00  0.00000000000E+00  0.30151468771E+03  0.30151468773E+03  0.25500000000E-02 0.  1.
         -2   -1    0    0    0  501 -0.00000000000E+00 -0.00000000000E+00 -0.10776084520E+03  0.10776084523E+03  0.25500000000E-02 0. -1.
    5000001    1    1    2    0    0  0.15119854631E+03 -0.57426592386E+02  0.11968616532E+03  0.21543581896E+03  0.77000000000E+02 0.  0.
   -5000001    1    1    2    0    0 -0.15119854631E+03  0.57426592386E+02  0.74067677191E+02  0.19383971400E+03  0.77000000000E+02 0.  0.
<mgrwt>
<rscale>  0 0.36050785E+03</rscale>
<asrwt>0</asrwt>
<pdfrwt beam="1">  1        2 0.46386875E-01 0.36050785E+03</pdfrwt>
<pdfrwt beam="2">  1       -2 0.16578592E-01 0.36050785E+03</pdfrwt>
<totfact> 0.31611991E+03</totfact>
</mgrwt>
</event>
<event>
 4    1  0.5980424E-004  0.2404307E+03  0.7818608E-02  0.1119506E+00
          2   -1    0    0  501    0  0.00000000000E+00  0.00000000000E+00  0.11731797428E+04  0.11731797428E+04  0.25500000000E-02 0.  1.
         -2   -1    0    0    0  501 -0.00000000000E+00 -0.00000000000E+00 -0.12318428746E+02  0.12318429010E+02  0.25500000000E-02 0. -1.
    5000001    1    1    2    0    0 -0.51379856348E+02 -0.60157085990E+02  0.34582095822E+03  0.36301501316E+03  0.77000000000E+02 0.  0.
   -5000001    1    1    2    0    0  0.51379856348E+02  0.60157085990E+02  0.81504035579E+03  0.82248315861E+03  0.77000000000E+02 0.  0.
<mgrwt>
<rscale>  0 0.24043071E+03</rscale>
<asrwt>0</asrwt>
<pdfrwt beam="1">  1        2 0.18048918E+00 0.24043071E+03</pdfrwt>
<pdfrwt beam="2">  1       -2 0.18951430E-02 0.24043071E+03</pdfrwt>
<totfact> 0.17194672E+04</totfact>
</mgrwt>
</event>
<event>
 4    1  0.5980424E-004  0.2596507E+03  0.7818608E-02  0.1107353E+00
         -2   -1    0    0    0  501 -0.00000000000E+00  0.00000000000E+00  0.23020998007E+02  0.23020998149E+02  0.25500000000E-02 0. -1.
          2   -1    0    0  501    0  0.00000000000E+00 -0.00000000000E+00 -0.73214138943E+03  0.73214138944E+03  0.25500000000E-02 0.  1.
    5000001    1    1    2    0    0  0.10014957206E+03  0.15838787979E+02 -0.42841360825E+03  0.44693178866E+03  0.77000000000E+02 0.  0.
   -5000001    1    1    2    0    0 -0.10014957206E+03 -0.15838787979E+02 -0.28070678318E+03  0.30823059892E+03  0.77000000000E+02 0.  0.
<mgrwt>
<rscale>  0 0.25965073E+03</rscale>
<asrwt>0</asrwt>
<pdfrwt beam="1">  1        2 0.11263712E+00 0.25965073E+03</pdfrwt>
<pdfrwt beam="2">  1       -2 0.35416926E-02 0.25965073E+03</pdfrwt>
<totfact> 0.13011253E+04</totfact>
</mgrwt>
</event>
<event>
 4    1  0.5980424E-004  0.3566584E+03  0.7818608E-02  0.1059915E+00
         -2   -1    0    0    0  501 -0.00000000000E+00  0.00000000000E+00  0.26744751627E+02  0.26744751748E+02  0.25500000000E-02 0. -1.
          2   -1    0    0  501    0  0.00000000000E+00 -0.00000000000E+00 -0.11890670358E+04  0.11890670358E+04  0.25500000000E-02 0.  1.
    5000001    1    1    2    0    0  0.15054321846E+03  0.56648362432E+02 -0.58091947524E+03  0.60767485904E+03  0.77000000000E+02 0.  0.
   -5000001    1    1    2    0    0 -0.15054321846E+03 -0.56648362432E+02 -0.58140280897E+03  0.60813692855E+03  0.77000000000E+02 0.  0.
<mgrwt>
<rscale>  0 0.35665839E+03</rscale>
<asrwt>0</asrwt>
<pdfrwt beam="1">  1        2 0.18293335E+00 0.35665839E+03</pdfrwt>
<pdfrwt beam="2">  1       -2 0.41145781E-02 0.35665839E+03</pdfrwt>
<totfact> 0.53595462E+03</totfact>
</mgrwt>
</event>
<event>
 4    1  0.5980424E-004  0.1663484E+03  0.7818608E-02  0.1181710E+00
         -2   -1    0    0    0  501 -0.00000000000E+00  0.00000000000E+00  0.32558294169E+02  0.32558294269E+02  0.25500000000E-02 0. -1.
          2   -1    0    0  501    0  0.00000000000E+00 -0.00000000000E+00 -0.21247879066E+03  0.21247879068E+03  0.25500000000E-02 0.  1.
    5000001    1    1    2    0    0 -0.30737700104E+02 -0.55345058040E+01 -0.84545961523E+02  0.11854305788E+03  0.77000000000E+02 0.  0.
   -5000001    1    1    2    0    0  0.30737700104E+02  0.55345058040E+01 -0.95374534968E+02  0.12649402706E+03  0.77000000000E+02 0.  0.
<mgrwt>
<rscale>  0 0.16634839E+03</rscale>
<asrwt>0</asrwt>
<pdfrwt beam="1">  1        2 0.32689044E-01 0.16634839E+03</pdfrwt>
<pdfrwt beam="2">  1       -2 0.50089685E-02 0.16634839E+03</pdfrwt>
<totfact> 0.29412730E+04</totfact>
</mgrwt>
</event>
<event>
 4    1  0.5980424E-004  0.1822390E+03  0.7818608E-02  0.1165654E+00
         -2   -1    0    0    0  501 -0.00000000000E+00  0.00000000000E+00  0.12124477638E+02  0.12124477906E+02  0.25500000000E-02 0. -1.
          2   -1    0    0  501    0  0.00000000000E+00 -0.00000000000E+00 -0.68479356445E+03  0.68479356445E+03  0.25500000000E-02 0.  1.
    5000001    1    1    2    0    0 -0.21333353822E+02  0.43267632050E+02 -0.36243014388E+03  0.37364663676E+03  0.77000000000E+02 0.  0.
   -5000001    1    1    2    0    0  0.21333353822E+02 -0.43267632050E+02 -0.31023894293E+03  0.32327140560E+03  0.77000000000E+02 0.  0.
<mgrwt>
<rscale>  0 0.18223901E+03</rscale>
<asrwt>0</asrwt>
<pdfrwt beam="1">  1        2 0.10535283E+00 0.18223901E+03</pdfrwt>
<pdfrwt beam="2">  1       -2 0.18653048E-02 0.18223901E+03</pdfrwt>
<totfact> 0.35548298E+04</totfact>
</mgrwt>
</event>
<event>
 4    1  0.5980424E-004  0.4355539E+03  0.7818608E-02  0.1032120E+00
          2   -1    0    0  501    0  0.00000000000E+00  0.00000000000E+00  0.44246881080E+03  0.44246881081E+03  0.25500000000E-02 0.  1.
         -2   -1    0    0    0  501 -0.00000000000E+00 -0.00000000000E+00 -0.10718678202E+03  0.10718678205E+03  0.25500000000E-02 0. -1.
    5000001    1    1    2    0    0  0.20290935824E+03 -0.14430725669E+02  0.18131195956E+03  0.28316687692E+03  0.77000000000E+02 0.  0.
   -5000001    1    1    2    0    0 -0.20290935824E+03  0.14430725669E+02  0.15397006922E+03  0.26648871594E+03  0.77000000000E+02 0.  0.
<mgrwt>
<rscale>  0 0.43555394E+03</rscale>
<asrwt>0</asrwt>
<pdfrwt beam="1">  1        2 0.68072126E-01 0.43555394E+03</pdfrwt>
<pdfrwt beam="2">  1       -2 0.16490274E-01 0.43555394E+03</pdfrwt>
<totfact> 0.20989258E+03</totfact>
</mgrwt>
</event>
<event>
 4    1  0.5980424E-004  0.2317634E+03  0.7818608E-02  0.1125405E+00
         -2   -1    0    0    0  501 -0.00000000000E+00  0.00000000000E+00  0.12628409365E+02  0.12628409622E+02  0.25500000000E-02 0. -1.
          2   -1    0    0  501    0  0.00000000000E+00 -0.00000000000E+00 -0.10633614735E+04  0.10633614735E+04  0.25500000000E-02 0.  1.
    5000001    1    1    2    0    0 -0.10683722991E+01 -0.82234075007E+02 -0.39941707571E+03  0.41500190949E+03  0.77000000000E+02 0.  0.
   -5000001    1    1    2    0    0  0.10683722991E+01  0.82234075007E+02 -0.65131598841E+03  0.66098797362E+03  0.77000000000E+02 0.  0.
<mgrwt>
<rscale>  0 0.23176336E+03</rscale>
<asrwt>0</asrwt>
<pdfrwt beam="1">  1        2 0.16359400E+00 0.23176336E+03</pdfrwt>
<pdfrwt beam="2">  1       -2 0.19428331E-02 0.23176336E+03</pdfrwt>
<totfact> 0.19171012E+04</totfact>
</mgrwt>
</event>
<event>
 4    1  0.5980424E-004  0.3003684E+03  0.7818608E-02  0.1085057E+00
          2   -1    0    0  501    0  0.00000000000E+00  0.00000000000E+00  0.20328282845E+04  0.20328282845E+04  0.25500000000E-02 0.  1.
         -2   -1    0    0    0  501 -0.00000000000E+00 -0.00000000000E+00 -0.11095520119E+02  0.11095520412E+02  0.25500000000E-02 0. -1.
    5000001    1    1    2    0    0 -0.79183320957E+02 -0.10174340779E+03  0.99632259301E+03  0.10075760163E+04  0.77000000000E+02 0.  0.
   -5000001    1    1    2    0    0  0.79183320957E+02  0.10174340779E+03  0.10254101714E+04  0.10363477886E+04  0.77000000000E+02 0.  0.
<mgrwt>
<rscale>  0 0.30036836E+03</rscale>
<asrwt>0</asrwt>
<pdfrwt beam="1">  1        2 0.31274260E+00 0.30036836E+03</pdfrwt>
<pdfrwt beam="2">  1       -2 0.17070043E-02 0.30036836E+03</pdfrwt>
<totfact> 0.69717797E+03</totfact>
</mgrwt>
</event>
<event>
 4    1  0.5980424E-004  0.5693010E+03  0.7818608E-02  0.9971227E-01
          2   -1    0    0  501    0  0.00000000000E+00  0.00000000000E+00  0.83381685379E+03  0.83381685379E+03  0.25500000000E-02 0.  1.
         -2   -1    0    0    0  501 -0.00000000000E+00 -0.00000000000E+00 -0.97174690082E+02  0.97174690116E+02  0.25500000000E-02 0. -1.
    5000001    1    1    2    0    0 -0.25915665701E+03 -0.84590404456E+02  0.32267283459E+03  0.42937683634E+03  0.77000000000E+02 0.  0.
   -5000001    1    1    2    0    0  0.25915665701E+03  0.84590404456E+02  0.41396932911E+03  0.50161470757E+03  0.77000000000E+02 0.  0.
<mgrwt>
<rscale>  0 0.56930096E+03</rscale>
<asrwt>0</asrwt>
<pdfrwt beam="1">  1        2 0.12827951E+00 0.56930096E+03</pdfrwt>
<pdfrwt beam="2">  1       -2 0.14949953E-01 0.56930096E+03</pdfrwt>
<totfact> 0.11539922E+03</totfact>
</mgrwt>
</event>
<event>
 4    1  0.5980424E-004  0.1110856E+04  0.7818608E-02  0.9194675E-01
          2   -1    0    0  501    0  0.00000000000E+00  0.00000000000E+00  0.27498769728E+03  0.27498769729E+03  0.25500000000E-02 0.  1.
         -2   -1    0    0    0  501 -0.00000000000E+00 -0.00000000000E+00 -0.11218699118E+04  0.11218699118E+04  0.25500000000E-02 0. -1.
    5000001    1    1    2    0    0  0.39298129429E+03 -0.27440913878E+03 -0.76280805406E+03  0.90417907543E+03  0.77000000000E+02 0.  0.
   -5000001    1    1    2    0    0 -0.39298129429E+03  0.27440913878E+03 -0.84074160506E+02  0.49267853370E+03  0.77000000000E+02 0.  0.
<mgrwt>
<rscale>  0 0.11108563E+04</rscale>
<asrwt>0</asrwt>
<pdfrwt beam="1">  1        2 0.42305800E-01 0.11108563E+04</pdfrwt>
<pdfrwt beam="2">  1       -2 0.17259537E+00 0.11108563E+04</pdfrwt>
<totfact> 0.24500779E+01</totfact>
</mgrwt>
</event>
<event>
 4    1  0.5980424E-004  0.1798163E+03  0.7818608E-02  0.1167981E+00
          2   -1    0    0  501    0  0.00000000000E+00  0.00000000000E+00  0.21314218031E+04  0.21314218031E+04  0.25500000000E-02 0.  1.
         -2   -1    0    0    0  501 -0.00000000000E+00 -0.00000000000E+00 -0.37925268003E+01  0.37925276575E+01  0.25500000000E-02 0. -1.
    5000001    1    1    2    0    0 -0.36974720990E+01  0.46223032536E+02  0.10393775794E+04  0.10432569159E+04  0.77000000000E+02 0.  0.
   -5000001    1    1    2    0    0  0.36974720990E+01 -0.46223032536E+02  0.10882516969E+04  0.10919574149E+04  0.77000000000E+02 0.  0.
<mgrwt>
<rscale>  0 0.17981630E+03</rscale>
<asrwt>0</asrwt>
<pdfrwt beam="1">  1        2 0.32791099E+00 0.17981630E+03</pdfrwt>
<pdfrwt beam="2">  1       -2 0.58346583E-03 0.17981630E+03</pdfrwt>
<totfact> 0.28923410E+04</totfact>
</mgrwt>
</event>
<event>
 4    1  0.5980424E-004  0.4357318E+03  0.7818608E-02  0.1032064E+00
          2   -1    0    0  501    0  0.00000000000E+00  0.00000000000E+00  0.63391574777E+03  0.63391574777E+03  0.25500000000E-02 0.  1.
         -2   -1    0    0    0  501 -0.00000000000E+00 -0.00000000000E+00 -0.74876735731E+02  0.74876735774E+02  0.25500000000E-02 0. -1.
    5000001    1    1    2    0    0  0.17690315644E+03  0.87537233946E+02  0.36212892848E+03  0.41955196928E+03  0.77000000000E+02 0.  0.
   -5000001    1    1    2    0    0 -0.17690315644E+03 -0.87537233946E+02  0.19691008355E+03  0.28924051426E+03  0.77000000000E+02 0.  0.
<mgrwt>
<rscale>  0 0.43573176E+03</rscale>
<asrwt>0</asrwt>
<pdfrwt beam="1">  1        2 0.97525502E-01 0.43573176E+03</pdfrwt>
<pdfrwt beam="2">  1       -2 0.11519498E-01 0.43573176E+03</pdfrwt>
<totfact> 0.25117794E+03</totfact>
</mgrwt>
</event>
<event>
 4    1  0.5980424E-004  0.6798678E+03  0.7818608E-02  0.9752294E-01
          2   -1    0    0  501    0  0.00000000000E+00  0.00000000000E+00  0.25698498382E+04  0.25698498382E+04  0.25500000000E-02 0.  1.
         -2   -1    0    0    0  501 -0.00000000000E+00 -0.00000000000E+00 -0.44965681614E+02  0.44965681686E+02  0.25500000000E-02 0. -1.
    5000001    1    1    2    0    0  0.20959326374E+03  0.25576076451E+03  0.11977246984E+04  0.12449162052E+04  0.77000000000E+02 0.  0.
   -5000001    1    1    2    0    0 -0.20959326374E+03 -0.25576076451E+03  0.13271594582E+04  0.13698993147E+04  0.77000000000E+02 0.  0.
<mgrwt>
<rscale>  0 0.67986778E+03</rscale>
<asrwt>0</asrwt>
<pdfrwt beam="1">  1        2 0.39536161E+00 0.67986778E+03</pdfrwt>
<pdfrwt beam="2">  1       -2 0.69177956E-02 0.67986778E+03</pdfrwt>
<totfact> 0.41156591E+02</totfact>
</mgrwt>
</event>
<event>
 4    1  0.5980424E-004  0.2314340E+03  0.7818608E-02  0.1125635E+00
         -2   -1    0    0    0  501 -0.00000000000E+00  0.00000000000E+00  0.68363771534E+01  0.68363776290E+01  0.25500000000E-02 0. -1.
          2   -1    0    0  501    0  0.00000000000E+00 -0.00000000000E+00 -0.19587013884E+04  0.19587013884E+04  0.25500000000E-02 0.  1.
    5000001    1    1    2    0    0 -0.19762098841E+02 -0.75646645470E+02 -0.12878030273E+04  0.12924699581E+04  0.77000000000E+02 0.  0.
   -5000001    1    1    2    0    0  0.19762098841E+02  0.75646645470E+02 -0.66406198396E+03  0.67306780792E+03  0.77000000000E+02 0.  0.
<mgrwt>
<rscale>  0 0.23143398E+03</rscale>
<asrwt>0</asrwt>
<pdfrwt beam="1">  1        2 0.30133823E+00 0.23143398E+03</pdfrwt>
<pdfrwt beam="2">  1       -2 0.10517519E-02 0.23143398E+03</pdfrwt>
<totfact> 0.15397719E+04</totfact>
</mgrwt>
</event>
<event>
 4    1  0.5980424E-004  0.1944876E+03  0.7818608E-02  0.1154475E+00
          2   -1    0    0  501    0  0.00000000000E+00  0.00000000000E+00  0.32224207791E+02  0.32224207892E+02  0.25500000000E-02 0.  1.
         -2   -1    0    0    0  501 -0.00000000000E+00 -0.00000000000E+00 -0.29345496659E+03  0.29345496660E+03  0.25500000000E-02 0. -1.
    5000001    1    1    2    0    0 -0.16822194684E+02  0.55934796581E+02 -0.11260589621E+03  0.14839398763E+03  0.77000000000E+02 0.  0.
   -5000001    1    1    2    0    0  0.16822194684E+02 -0.55934796581E+02 -0.14862486259E+03  0.17728518687E+03  0.77000000000E+02 0.  0.
<mgrwt>
<rscale>  0 0.19448757E+03</rscale>
<asrwt>0</asrwt>
<pdfrwt beam="1">  1        2 0.49575706E-02 0.19448757E+03</pdfrwt>
<pdfrwt beam="2">  1       -2 0.45146916E-01 0.19448757E+03</pdfrwt>
<totfact> 0.72623781E+03</totfact>
</mgrwt>
</event>
<event>
 4    1  0.5980424E-004  0.3045604E+03  0.7818608E-02  0.1082983E+00
         -2   -1    0    0    0  501 -0.00000000000E+00  0.00000000000E+00  0.53104403383E+02  0.53104403444E+02  0.25500000000E-02 0.  1.
          2   -1    0    0  501    0  0.00000000000E+00 -0.00000000000E+00 -0.43667294263E+03  0.43667294264E+03  0.25500000000E-02 0. -1.
    5000001    1    1    2    0    0 -0.65150848000E+02 -0.16778904864E+02 -0.37325612182E+03  0.38700813573E+03  0.77000000000E+02 0.  0.
   -5000001    1    1    2    0    0  0.65150848000E+02  0.16778904864E+02 -0.10312417427E+02  0.10276921035E+03  0.77000000000E+02 0.  0.
<mgrwt>
<rscale>  0 0.30456038E+03</rscale>
<asrwt>0</asrwt>
<pdfrwt beam="1">  1        2 0.67180450E-01 0.30456038E+03</pdfrwt>
<pdfrwt beam="2">  1       -2 0.81699085E-02 0.30456038E+03</pdfrwt>
<totfact> 0.66192526E+03</totfact>
</mgrwt>
</event>
<event>
 4    1  0.5980424E-004  0.3604310E+03  0.7818608E-02  0.1058413E+00
         -2   -1    0    0    0  501 -0.00000000000E+00  0.00000000000E+00  0.17069157810E+02  0.17069158001E+02  0.25500000000E-02 0. -1.
          2   -1    0    0  501    0  0.00000000000E+00 -0.00000000000E+00 -0.19027076703E+04  0.19027076703E+04  0.25500000000E-02 0.  1.
    5000001    1    1    2    0    0 -0.15758296255E+03  0.14882122161E+02 -0.11487460951E+04  0.11621533714E+04  0.77000000000E+02 0.  0.
   -5000001    1    1    2    0    0  0.15758296255E+03 -0.14882122161E+02 -0.73689241740E+03  0.75762345691E+03  0.77000000000E+02 0.  0.
<mgrwt>
<rscale>  0 0.36043095E+03</rscale>
<asrwt>0</asrwt>
<pdfrwt beam="1">  1        2 0.29272409E+00 0.36043095E+03</pdfrwt>
<pdfrwt beam="2">  1       -2 0.26260258E-02 0.36043095E+03</pdfrwt>
<totfact> 0.43135545E+03</totfact>
</mgrwt>
</event>
<event>
 4    1  0.5980424E-004  0.2076288E+03  0.7818608E-02  0.1143458E+00
          2   -1    0    0  501    0  0.00000000000E+00  0.00000000000E+00  0.82078524780E+03  0.82078524780E+03  0.25500000000E-02 0.  1.
         -2   -1    0    0    0  501 -0.00000000000E+00 -0.00000000000E+00 -0.13130638524E+02  0.13130638772E+02  0.25500000000E-02 0. -1.
    5000001    1    1    2    0    0 -0.29680895583E+02  0.47731348006E+02  0.56889981354E+03  0.57683206827E+03  0.77000000000E+02 0.  0.
   -5000001    1    1    2    0    0  0.29680895583E+02 -0.47731348006E+02  0.23875479574E+03  0.25708381830E+03  0.77000000000E+02 0.  0.
<mgrwt>
<rscale>  0 0.20762885E+03</rscale>
<asrwt>0</asrwt>
<pdfrwt beam="1">  1        2 0.12627462E+00 0.20762885E+03</pdfrwt>
<pdfrwt beam="2">  1       -2 0.20200987E-02 0.20762885E+03</pdfrwt>
<totfact> 0.25563395E+04</totfact>
</mgrwt>
</event>
<event>
 4    1  0.5980424E-004  0.1979807E+03  0.7818608E-02  0.1151454E+00
         -2   -1    0    0    0  501 -0.00000000000E+00  0.00000000000E+00  0.99772037160E+03  0.99772037160E+03  0.25500000000E-02 0. -1.
          2   -1    0    0  501    0  0.00000000000E+00 -0.00000000000E+00 -0.98214753757E+01  0.98214757068E+01  0.25500000000E-02 0.  1.
    5000001    1    1    2    0    0 -0.23630728297E+02  0.57122383126E+02  0.45843201279E+03  0.46894593327E+03  0.77000000000E+02 0.  0.
   -5000001    1    1    2    0    0  0.23630728297E+02 -0.57122383126E+02  0.52946688343E+03  0.53859591404E+03  0.77000000000E+02 0.  0.
<mgrwt>
<rscale>  0 0.19798067E+03</rscale>
<asrwt>0</asrwt>
<pdfrwt beam="1">  1        2 0.15109962E-02 0.19798067E+03</pdfrwt>
<pdfrwt beam="2">  1       -2 0.15349545E+00 0.19798067E+03</pdfrwt>
<totfact> 0.23720801E+03</totfact>
</mgrwt>
</event>
<event>
 4    1  0.5980424E-004  0.2521762E+03  0.7818608E-02  0.1111937E+00
          2   -1    0    0  501    0  0.00000000000E+00  0.00000000000E+00  0.51120782651E+02  0.51120782715E+02  0.25500000000E-02 0.  1.
         -2   -1    0    0    0  501 -0.00000000000E+00 -0.00000000000E+00 -0.31099316554E+03  0.31099316555E+03  0.25500000000E-02 0. -1.
    5000001    1    1    2    0    0  0.20971920786E+02  0.78845746000E+02 -0.21258466252E+03  0.24036994792E+03  0.77000000000E+02 0.  0.
   -5000001    1    1    2    0    0 -0.20971920786E+02 -0.78845746000E+02 -0.47287720376E+02  0.12174400035E+03  0.77000000000E+02 0.  0.
<mgrwt>
<rscale>  0 0.25217624E+03</rscale>
<asrwt>0</asrwt>
<pdfrwt beam="1">  1        2 0.78647360E-02 0.25217624E+03</pdfrwt>
<pdfrwt beam="2">  1       -2 0.47845101E-01 0.25217624E+03</pdfrwt>
<totfact> 0.36146299E+03</totfact>
</mgrwt>
</event>
<event>
 4    1  0.5980424E-004  0.1886730E+03  0.7818608E-02  0.1159664E+00
          2   -1    0    0  501    0  0.00000000000E+00  0.00000000000E+00  0.13145451878E+02  0.13145452125E+02  0.25500000000E-02 0.  1.
         -2   -1    0    0    0  501 -0.00000000000E+00 -0.00000000000E+00 -0.67699287858E+03  0.67699287858E+03  0.25500000000E-02 0. -1.
    5000001    1    1    2    0    0 -0.24128284916E+02  0.39943192742E+02 -0.43491322325E+03  0.44413527729E+03  0.77000000000E+02 0.  0.
   -5000001    1    1    2    0    0  0.24128284916E+02 -0.39943192742E+02 -0.22893420345E+03  0.24600305342E+03  0.77000000000E+02 0.  0.
<mgrwt>
<rscale>  0 0.18867302E+03</rscale>
<asrwt>0</asrwt>
<pdfrwt beam="1">  1        2 0.20223778E-02 0.18867302E+03</pdfrwt>
<pdfrwt beam="2">  1       -2 0.10415272E+00 0.18867302E+03</pdfrwt>
<totfact> 0.40945876E+03</totfact>
</mgrwt>
</event>
<event>
 4    1  0.5980424E-004  0.2202115E+03  0.7818608E-02  0.1133725E+00
          2   -1    0    0  501    0  0.00000000000E+00  0.00000000000E+00  0.15215792852E+04  0.15215792852E+04  0.25500000000E-02 0.  1.
         -2   -1    0    0    0  501 -0.00000000000E+00 -0.00000000000E+00 -0.79675606919E+01  0.79675610999E+01  0.25500000000E-02 0. -1.
    5000001    1    1    2    0    0 -0.73960069002E+02 -0.32422008995E+01  0.57125109811E+03  0.58115180526E+03  0.77000000000E+02 0.  0.
   -5000001    1    1    2    0    0  0.73960069002E+02  0.32422008995E+01  0.94236062636E+03  0.94839504100E+03  0.77000000000E+02 0.  0.
<mgrwt>
<rscale>  0 0.22021149E+03</rscale>
<asrwt>0</asrwt>
<pdfrwt beam="1">  1        2 0.23408923E+00 0.22021149E+03</pdfrwt>
<pdfrwt beam="2">  1       -2 0.12257780E-02 0.22021149E+03</pdfrwt>
<totfact> 0.20850425E+04</totfact>
</mgrwt>
</event>
<event>
 4    1  0.5980424E-004  0.2651286E+03  0.7818608E-02  0.1104100E+00
         -2   -1    0    0    0  501 -0.00000000000E+00  0.00000000000E+00  0.38762445008E+02  0.38762445092E+02  0.25500000000E-02 0. -1.
          2   -1    0    0  501    0  0.00000000000E+00 -0.00000000000E+00 -0.45335863470E+03  0.45335863471E+03  0.25500000000E-02 0.  1.
    5000001    1    1    2    0    0 -0.98211488414E+02 -0.34191984759E+02 -0.15383227594E+03  0.20101730622E+03  0.77000000000E+02 0.  0.
   -5000001    1    1    2    0    0  0.98211488414E+02  0.34191984759E+02 -0.26076391375E+03  0.29110377358E+03  0.77000000000E+02 0.  0.
<mgrwt>
<rscale>  0 0.26512857E+03</rscale>
<asrwt>0</asrwt>
<pdfrwt beam="1">  1        2 0.69747479E-01 0.26512857E+03</pdfrwt>
<pdfrwt beam="2">  1       -2 0.59634534E-02 0.26512857E+03</pdfrwt>
<totfact> 0.10295955E+04</totfact>
</mgrwt>
</event>
<event>
 4    1  0.5980424E-004  0.4319652E+03  0.7818608E-02  0.1033241E+00
         -2   -1    0    0    0  501 -0.00000000000E+00  0.00000000000E+00  0.22540007192E+02  0.22540007336E+02  0.25500000000E-02 0. -1.
          2   -1    0    0  501    0  0.00000000000E+00 -0.00000000000E+00 -0.20695861796E+04  0.20695861796E+04  0.25500000000E-02 0.  1.
    5000001    1    1    2    0    0 -0.17590209241E+03  0.46783459603E+02 -0.14454512410E+04  0.14588997664E+04  0.77000000000E+02 0.  0.
   -5000001    1    1    2    0    0  0.17590209241E+03 -0.46783459603E+02 -0.60159493136E+03  0.63322642052E+03  0.77000000000E+02 0.  0.
<mgrwt>
<rscale>  0 0.43196522E+03</rscale>
<asrwt>0</asrwt>
<pdfrwt beam="1">  1        2 0.31839773E+00 0.43196522E+03</pdfrwt>
<pdfrwt beam="2">  1       -2 0.34676950E-02 0.43196522E+03</pdfrwt>
<totfact> 0.23066213E+03</totfact>
</mgrwt>
</event>
<event>
 4    1  0.5980424E-004  0.1937495E+03  0.7818608E-02  0.1155122E+00
         -2   -1    0    0    0  501 -0.00000000000E+00  0.00000000000E+00  0.34191103132E+02  0.34191103227E+02  0.25500000000E-02 0. -1.
          2   -1    0    0  501    0  0.00000000000E+00 -0.00000000000E+00 -0.27447836230E+03  0.27447836231E+03  0.25500000000E-02 0.  1.
    5000001    1    1    2    0    0 -0.14011815956E+02  0.19055020297E+02 -0.20588182229E+03  0.22107860487E+03  0.77000000000E+02 0.  0.
   -5000001    1    1    2    0    0  0.14011815956E+02 -0.19055020297E+02 -0.34405436882E+02  0.87590860664E+02  0.77000000000E+02 0.  0.
<mgrwt>
<rscale>  0 0.19374951E+03</rscale>
<asrwt>0</asrwt>
<pdfrwt beam="1">  1        2 0.42227439E-01 0.19374951E+03</pdfrwt>
<pdfrwt beam="2">  1       -2 0.52601699E-02 0.19374951E+03</pdfrwt>
<totfact> 0.21021420E+04</totfact>
</mgrwt>
</event>
<event>
 4    1  0.5980424E-004  0.1935979E+03  0.7818608E-02  0.1155256E+00
         -2   -1    0    0    0  501 -0.00000000000E+00  0.00000000000E+00  0.48441293833E+02  0.48441293900E+02  0.25500000000E-02 0. -1.
          2   -1    0    0  501    0  0.00000000000E+00 -0.00000000000E+00 -0.19343072507E+03  0.19343072509E+03  0.25500000000E-02 0.  1.
    5000001    1    1    2    0    0  0.58524129760E+02 -0.33035238052E+01 -0.75301609784E+02  0.12261859349E+03  0.77000000000E+02 0.  0.
   -5000001    1    1    2    0    0 -0.58524129760E+02  0.33035238052E+01 -0.69687821456E+02  0.11925342550E+03  0.77000000000E+02 0.  0.
<mgrwt>
<rscale>  0 0.19359788E+03</rscale>
<asrwt>0</asrwt>
<pdfrwt beam="1">  1        2 0.29758573E-01 0.19359788E+03</pdfrwt>
<pdfrwt beam="2">  1       -2 0.74525069E-02 0.19359788E+03</pdfrwt>
<totfact> 0.17993993E+04</totfact>
</mgrwt>
</event>
<event>
 4    1  0.5980424E-004  0.2222726E+03  0.7818608E-02  0.1132200E+00
          2   -1    0    0  501    0  0.00000000000E+00  0.00000000000E+00  0.51525466897E+03  0.51525466897E+03  0.25500000000E-02 0.  1.
         -2   -1    0    0    0  501 -0.00000000000E+00 -0.00000000000E+00 -0.23971199332E+02  0.23971199467E+02  0.25500000000E-02 0. -1.
    5000001    1    1    2    0    0 -0.34386906129E+02  0.71720588249E+02  0.26940758475E+03  0.29126577007E+03  0.77000000000E+02 0.  0.
   -5000001    1    1    2    0    0  0.34386906129E+02 -0.71720588249E+02  0.22187588488E+03  0.24796009837E+03  0.77000000000E+02 0.  0.
<mgrwt>
<rscale>  0 0.22227256E+03</rscale>
<asrwt>0</asrwt>
<pdfrwt beam="1">  1        2 0.79269948E-01 0.22227256E+03</pdfrwt>
<pdfrwt beam="2">  1       -2 0.36878769E-02 0.22227256E+03</pdfrwt>
<totfact> 0.18311665E+04</totfact>
</mgrwt>
</event>
<event>
 4    1  0.5980424E-004  0.2571209E+03  0.7818608E-02  0.1108886E+00
         -2   -1    0    0    0  501 -0.00000000000E+00  0.00000000000E+00  0.73874309794E+01  0.73874314195E+01  0.25500000000E-02 0. -1.
          2   -1    0    0  501    0  0.00000000000E+00 -0.00000000000E+00 -0.22372843903E+04  0.22372843903E+04  0.25500000000E-02 0.  1.
    5000001    1    1    2    0    0 -0.77346947831E+02  0.59671353082E+01 -0.52409741200E+03  0.53537393876E+03  0.77000000000E+02 0.  0.
   -5000001    1    1    2    0    0  0.77346947831E+02 -0.59671353082E+01 -0.17057995474E+04  0.17092978830E+04  0.77000000000E+02 0.  0.
<mgrwt>
<rscale>  0 0.25712086E+03</rscale>
<asrwt>0</asrwt>
<pdfrwt beam="1">  1        2 0.34419706E+00 0.25712086E+03</pdfrwt>
<pdfrwt beam="2">  1       -2 0.11365297E-02 0.25712086E+03</pdfrwt>
<totfact> 0.98352841E+03</totfact>
</mgrwt>
</event>
<event>
 4    1  0.5980424E-004  0.2793346E+03  0.7818608E-02  0.1096053E+00
         -2   -1    0    0    0  501 -0.00000000000E+00  0.00000000000E+00  0.24666791356E+02  0.24666791488E+02  0.25500000000E-02 0. -1.
          2   -1    0    0  501    0  0.00000000000E+00 -0.00000000000E+00 -0.79081859151E+03  0.79081859151E+03  0.25500000000E-02 0.  1.
    5000001    1    1    2    0    0 -0.98145520947E+02 -0.39249178547E+02 -0.23990941225E+03  0.27323719986E+03  0.77000000000E+02 0.  0.
   -5000001    1    1    2    0    0  0.98145520947E+02  0.39249178547E+02 -0.52624238790E+03  0.54224818314E+03  0.77000000000E+02 0.  0.
<mgrwt>
<rscale>  0 0.27933462E+03</rscale>
<asrwt>0</asrwt>
<pdfrwt beam="1">  1        2 0.12166438E+00 0.27933462E+03</pdfrwt>
<pdfrwt beam="2">  1       -2 0.37948916E-02 0.27933462E+03</pdfrwt>
<totfact> 0.10685243E+04</totfact>
</mgrwt>
</event>
<event>
 4    1  0.5980424E-004  0.2029001E+03  0.7818608E-02  0.1147315E+00
          2   -1    0    0  501    0  0.00000000000E+00  0.00000000000E+00  0.58571418396E+02  0.58571418451E+02  0.25500000000E-02 0.  1.
         -2   -1    0    0    0  501 -0.00000000000E+00 -0.00000000000E+00 -0.17571904982E+03  0.17571904984E+03  0.25500000000E-02 0. -1.
    5000001    1    1    2    0    0 -0.49347900139E+02 -0.13468776355E+01 -0.78969183314E+01  0.91806266925E+02  0.77000000000E+02 0.  0.
   -5000001    1    1    2    0    0  0.49347900139E+02  0.13468776355E+01 -0.10925071309E+03  0.14248420137E+03  0.77000000000E+02 0.  0.
<mgrwt>
<rscale>  0 0.20290011E+03</rscale>
<asrwt>0</asrwt>
<pdfrwt beam="1">  1        2 0.90109875E-02 0.20290011E+03</pdfrwt>
<pdfrwt beam="2">  1       -2 0.27033700E-01 0.20290011E+03</pdfrwt>
<totfact> 0.87651027E+03</totfact>
</mgrwt>
</event>
<event>
 4    1  0.5980424E-004  0.6073424E+03  0.7818608E-02  0.9890289E-01
          2   -1    0    0  501    0  0.00000000000E+00  0.00000000000E+00  0.23766466805E+03  0.23766466806E+03  0.25500000000E-02 0. -1.
         -2   -1    0    0    0  501 -0.00000000000E+00 -0.00000000000E+00 -0.38800973708E+03  0.38800973709E+03  0.25500000000E-02 0.  1.
    5000001    1    1    2    0    0  0.24801157473E+03  0.12701388535E+03 -0.17095713427E+03  0.33585355444E+03  0.77000000000E+02 0.  0.
   -5000001    1    1    2    0    0 -0.24801157473E+03 -0.12701388535E+03  0.20612065241E+02  0.28982085071E+03  0.77000000000E+02 0.  0.
<mgrwt>
<rscale>  0 0.60734243E+03</rscale>
<asrwt>0</asrwt>
<pdfrwt beam="1">  1        2 0.36563795E-01 0.60734243E+03</pdfrwt>
<pdfrwt beam="2">  1       -2 0.59693806E-01 0.60734243E+03</pdfrwt>
<totfact> 0.37651941E+02</totfact>
</mgrwt>
</event>
<event>
 4    1  0.5980424E-004  0.2312011E+03  0.7818608E-02  0.1125797E+00
         -2   -1    0    0    0  501 -0.00000000000E+00  0.00000000000E+00  0.93092273685E+01  0.93092277178E+01  0.25500000000E-02 0. -1.
          2   -1    0    0  501    0  0.00000000000E+00 -0.00000000000E+00 -0.14355093666E+04  0.14355093666E+04  0.25500000000E-02 0.  1.
    5000001    1    1    2    0    0 -0.76748664241E+02 -0.20238876664E+02 -0.92358856776E+03  0.93018536437E+03  0.77000000000E+02 0.  0.
   -5000001    1    1    2    0    0  0.76748664241E+02  0.20238876664E+02 -0.50261157146E+03  0.51463322994E+03  0.77000000000E+02 0.  0.
<mgrwt>
<rscale>  0 0.23120107E+03</rscale>
<asrwt>0</asrwt>
<pdfrwt beam="1">  1        2 0.22084742E+00 0.23120107E+03</pdfrwt>
<pdfrwt beam="2">  1       -2 0.14321900E-02 0.23120107E+03</pdfrwt>
<totfact> 0.18522366E+04</totfact>
</mgrwt>
</event>
<event>
 4    1  0.5980424E-004  0.2235801E+03  0.7818608E-02  0.1131242E+00
          2   -1    0    0  501    0  0.00000000000E+00  0.00000000000E+00  0.10291068150E+04  0.10291068150E+04  0.25500000000E-02 0.  1.
         -2   -1    0    0    0  501 -0.00000000000E+00 -0.00000000000E+00 -0.12143558317E+02  0.12143558584E+02  0.25500000000E-02 0. -1.
    5000001    1    1    2    0    0 -0.98645047938E+01  0.75538994762E+02  0.63725639000E+03  0.64639628308E+03  0.77000000000E+02 0.  0.
   -5000001    1    1    2    0    0  0.98645047938E+01 -0.75538994762E+02  0.37970686671E+03  0.39485409054E+03  0.77000000000E+02 0.  0.
<mgrwt>
<rscale>  0 0.22358013E+03</rscale>
<asrwt>0</asrwt>
<pdfrwt beam="1">  1        2 0.15832416E+00 0.22358013E+03</pdfrwt>
<pdfrwt beam="2">  1       -2 0.18682394E-02 0.22358013E+03</pdfrwt>
<totfact> 0.21240625E+04</totfact>
</mgrwt>
</event>
<event>
 4    1  0.5980424E-004  0.2429117E+03  0.7818608E-02  0.1117868E+00
          2   -1    0    0  501    0  0.00000000000E+00  0.00000000000E+00  0.15380369102E+03  0.15380369104E+03  0.25500000000E-02 0.  1.
         -2   -1    0    0    0  501 -0.00000000000E+00 -0.00000000000E+00 -0.95911380301E+02  0.95911380335E+02  0.25500000000E-02 0. -1.
    5000001    1    1    2    0    0  0.57953772473E+02  0.60474896686E+02 -0.14749262655E+02  0.11472747544E+03  0.77000000000E+02 0.  0.
   -5000001    1    1    2    0    0 -0.57953772473E+02 -0.60474896686E+02  0.72641573375E+02  0.13498759593E+03  0.77000000000E+02 0.  0.
<mgrwt>
<rscale>  0 0.24291171E+03</rscale>
<asrwt>0</asrwt>
<pdfrwt beam="1">  1        2 0.23662106E-01 0.24291171E+03</pdfrwt>
<pdfrwt beam="2">  1       -2 0.14755597E-01 0.24291171E+03</pdfrwt>
<totfact> 0.79250463E+03</totfact>
</mgrwt>
</event>
<event>
 4    1  0.5980424E-004  0.4386964E+03  0.7818608E-02  0.1031148E+00
          2   -1    0    0  501    0  0.00000000000E+00  0.00000000000E+00  0.69230951841E+03  0.69230951842E+03  0.25500000000E-02 0.  1.
         -2   -1    0    0    0  501 -0.00000000000E+00 -0.00000000000E+00 -0.69497283141E+02  0.69497283188E+02  0.25500000000E-02 0. -1.
    5000001    1    1    2    0    0  0.16759892352E+03  0.11739874262E+03  0.34211691164E+03  0.40601089291E+03  0.77000000000E+02 0.  0.
   -5000001    1    1    2    0    0 -0.16759892352E+03 -0.11739874262E+03  0.28069532363E+03  0.35579590869E+03  0.77000000000E+02 0.  0.
<mgrwt>
<rscale>  0 0.43869639E+03</rscale>
<asrwt>0</asrwt>
<pdfrwt beam="1">  1        2 0.10650915E+00 0.43869639E+03</pdfrwt>
<pdfrwt beam="2">  1       -2 0.10691890E-01 0.43869639E+03</pdfrwt>
<totfact> 0.25467789E+03</totfact>
</mgrwt>
</event>
<event>
 4    1  0.5980424E-004  0.4619918E+03  0.7818608E-02  0.1024205E+00
         -2   -1    0    0    0  501 -0.00000000000E+00  0.00000000000E+00  0.20011807782E+02  0.20011807945E+02  0.25500000000E-02 0. -1.
          2   -1    0    0  501    0  0.00000000000E+00 -0.00000000000E+00 -0.26663809800E+04  0.26663809800E+04  0.25500000000E-02 0.  1.
    5000001    1    1    2    0    0  0.11888552043E+03  0.79084159982E+02 -0.36697097992E+03  0.40122907600E+03  0.77000000000E+02 0.  0.
   -5000001    1    1    2    0    0 -0.11888552043E+03 -0.79084159982E+02 -0.22793981923E+04  0.22851637119E+04  0.77000000000E+02 0.  0.
<mgrwt>
<rscale>  0 0.46199179E+03</rscale>
<asrwt>0</asrwt>
<pdfrwt beam="1">  1        2 0.41021218E+00 0.46199179E+03</pdfrwt>
<pdfrwt beam="2">  1       -2 0.30787418E-02 0.46199179E+03</pdfrwt>
<totfact> 0.12925953E+03</totfact>
</mgrwt>
</event>
<event>
 4    1  0.5980424E-004  0.2164821E+03  0.7818608E-02  0.1136533E+00
          2   -1    0    0  501    0  0.00000000000E+00  0.00000000000E+00  0.14540976170E+04  0.14540976170E+04  0.25500000000E-02 0.  1.
         -2   -1    0    0    0  501 -0.00000000000E+00 -0.00000000000E+00 -0.80573185574E+01  0.80573189609E+01  0.25500000000E-02 0. -1.
    5000001    1    1    2    0    0 -0.73879595144E+02 -0.18096659176E+02  0.73113739672E+03  0.73910525403E+03  0.77000000000E+02 0.  0.
   -5000001    1    1    2    0    0  0.73879595144E+02  0.18096659176E+02  0.71490290169E+03  0.72304968190E+03  0.77000000000E+02 0.  0.
<mgrwt>
<rscale>  0 0.21648213E+03</rscale>
<asrwt>0</asrwt>
<pdfrwt beam="1">  1        2 0.22370698E+00 0.21648213E+03</pdfrwt>
<pdfrwt beam="2">  1       -2 0.12395894E-02 0.21648213E+03</pdfrwt>
<totfact> 0.22264251E+04</totfact>
</mgrwt>
</event>
<event>
 4    1  0.5980424E-004  0.3080506E+03  0.7818608E-02  0.1081284E+00
         -2   -1    0    0    0  501 -0.00000000000E+00  0.00000000000E+00  0.10160522231E+02  0.10160522551E+02  0.25500000000E-02 0. -1.
          2   -1    0    0  501    0  0.00000000000E+00 -0.00000000000E+00 -0.23348983366E+04  0.23348983366E+04  0.25500000000E-02 0.  1.
    5000001    1    1    2    0    0 -0.19646113165E+02 -0.12227441984E+03 -0.15397703377E+04  0.15466604981E+04  0.77000000000E+02 0.  0.
   -5000001    1    1    2    0    0  0.19646113165E+02  0.12227441984E+03 -0.78496747666E+03  0.79839836104E+03  0.77000000000E+02 0.  0.
<mgrwt>
<rscale>  0 0.30805056E+03</rscale>
<asrwt>0</asrwt>
<pdfrwt beam="1">  1        2 0.35921470E+00 0.30805056E+03</pdfrwt>
<pdfrwt beam="2">  1       -2 0.15631592E-02 0.30805056E+03</pdfrwt>
<totfact> 0.54736882E+03</totfact>
</mgrwt>
</event>
<event>
 4    1  0.5980424E-004  0.2536103E+03  0.7818608E-02  0.1111044E+00
         -2   -1    0    0    0  501 -0.00000000000E+00  0.00000000000E+00  0.21543670231E+03  0.21543670233E+03  0.25500000000E-02 0. -1.
          2   -1    0    0  501    0  0.00000000000E+00 -0.00000000000E+00 -0.74637006574E+02  0.74637006618E+02  0.25500000000E-02 0.  1.
    5000001    1    1    2    0    0  0.93931795529E+02 -0.14852402797E+02  0.10845127857E+03  0.16350674575E+03  0.77000000000E+02 0.  0.
   -5000001    1    1    2    0    0 -0.93931795529E+02  0.14852402797E+02  0.32348417164E+02  0.12656696320E+03  0.77000000000E+02 0.  0.
<mgrwt>
<rscale>  0 0.25361034E+03</rscale>
<asrwt>0</asrwt>
<pdfrwt beam="1">  1        2 0.11482616E-01 0.25361034E+03</pdfrwt>
<pdfrwt beam="2">  1       -2 0.33144108E-01 0.25361034E+03</pdfrwt>
<totfact> 0.45425188E+03</totfact>
</mgrwt>
</event>
<event>
 4    1  0.5980424E-004  0.2197999E+03  0.7818608E-02  0.1134032E+00
         -2   -1    0    0    0  501 -0.00000000000E+00  0.00000000000E+00  0.87050680574E+02  0.87050680611E+02  0.25500000000E-02 0. -1.
          2   -1    0    0  501    0  0.00000000000E+00 -0.00000000000E+00 -0.13874674172E+03  0.13874674174E+03  0.25500000000E-02 0.  1.
    5000001    1    1    2    0    0 -0.68383429854E+02 -0.24007583571E+02 -0.56603904597E+02  0.11994023330E+03  0.77000000000E+02 0.  0.
   -5000001    1    1    2    0    0  0.68383429854E+02  0.24007583571E+02  0.49078434519E+01  0.10585718906E+03  0.77000000000E+02 0.  0.
<mgrwt>
<rscale>  0 0.21979989E+03</rscale>
<asrwt>0</asrwt>
<pdfrwt beam="1">  1        2 0.21345653E-01 0.21979989E+03</pdfrwt>
<pdfrwt beam="2">  1       -2 0.13392412E-01 0.21979989E+03</pdfrwt>
<totfact> 0.10375567E+04</totfact>
</mgrwt>
</event>
<event>
 4    1  0.5980424E-004  0.1670072E+03  0.7818608E-02  0.1181005E+00
          2   -1    0    0  501    0  0.00000000000E+00  0.00000000000E+00  0.17892368826E+04  0.17892368826E+04  0.25500000000E-02 0.  1.
         -2   -1    0    0    0  501 -0.00000000000E+00 -0.00000000000E+00 -0.38971074670E+01  0.38971083013E+01  0.25500000000E-02 0. -1.
    5000001    1    1    2    0    0 -0.27500702251E+01 -0.29375307157E+02  0.75129439992E+03  0.75580602465E+03  0.77000000000E+02 0.  0.
   -5000001    1    1    2    0    0  0.27500702251E+01  0.29375307157E+02  0.10340453752E+04  0.10373279663E+04  0.77000000000E+02 0.  0.
<mgrwt>
<rscale>  0 0.16700718E+03</rscale>
<asrwt>0</asrwt>
<pdfrwt beam="1">  1        2 0.27526777E+00 0.16700718E+03</pdfrwt>
<pdfrwt beam="2">  1       -2 0.59955384E-03 0.16700718E+03</pdfrwt>
<totfact> 0.41641553E+04</totfact>
</mgrwt>
</event>
<event>
 4    1  0.5980424E-004  0.3093123E+03  0.7818608E-02  0.1080676E+00
          2   -1    0    0  501    0  0.00000000000E+00  0.00000000000E+00  0.25387185453E+03  0.25387185454E+03  0.25500000000E-02 0.  1.
         -2   -1    0    0    0  501 -0.00000000000E+00 -0.00000000000E+00 -0.94214931773E+02  0.94214931808E+02  0.25500000000E-02 0. -1.
    5000001    1    1    2    0    0  0.12735639643E+03 -0.37005654715E+02  0.10234824162E+03  0.18437253796E+03  0.77000000000E+02 0.  0.
   -5000001    1    1    2    0    0 -0.12735639643E+03  0.37005654715E+02  0.57308681134E+02  0.16371424839E+03  0.77000000000E+02 0.  0.
<mgrwt>
<rscale>  0 0.30931227E+03</rscale>
<asrwt>0</asrwt>
<pdfrwt beam="1">  1        2 0.39057208E-01 0.30931227E+03</pdfrwt>
<pdfrwt beam="2">  1       -2 0.14494605E-01 0.30931227E+03</pdfrwt>
<totfact> 0.47473227E+03</totfact>
</mgrwt>
</event>
<event>
 4    1  0.5980424E-004  0.1858019E+03  0.7818608E-02  0.1162303E+00
         -2   -1    0    0    0  501 -0.00000000000E+00  0.00000000000E+00  0.42601362814E+01  0.42601370445E+01  0.25500000000E-02 0. -1.
          2   -1    0    0  501    0  0.00000000000E+00 -0.00000000000E+00 -0.20258940210E+04  0.20258940210E+04  0.25500000000E-02 0.  1.
    5000001    1    1    2    0    0 -0.36569961894E+02  0.36153158101E+02 -0.92819939997E+03  0.93280627091E+03  0.77000000000E+02 0.  0.
   -5000001    1    1    2    0    0  0.36569961894E+02 -0.36153158101E+02 -0.10934344847E+04  0.10973478871E+04  0.77000000000E+02 0.  0.
<mgrwt>
<rscale>  0 0.18580189E+03</rscale>
<asrwt>0</asrwt>
<pdfrwt beam="1">  1        2 0.31167523E+00 0.18580189E+03</pdfrwt>
<pdfrwt beam="2">  1       -2 0.65540726E-03 0.18580189E+03</pdfrwt>
<totfact> 0.27836073E+04</totfact>
</mgrwt>
</event>
<event>
 4    1  0.5980424E-004  0.1788594E+03  0.7818608E-02  0.1168911E+00
          2   -1    0    0  501    0  0.00000000000E+00  0.00000000000E+00  0.62464015643E+03  0.62464015643E+03  0.25500000000E-02 0.  1.
         -2   -1    0    0    0  501 -0.00000000000E+00 -0.00000000000E+00 -0.12803647290E+02  0.12803647544E+02  0.25500000000E-02 0. -1.
    5000001    1    1    2    0    0  0.29705349421E+02 -0.34123717834E+02  0.28926416556E+03  0.30273683849E+03  0.77000000000E+02 0.  0.
   -5000001    1    1    2    0    0 -0.29705349421E+02  0.34123717834E+02  0.32257234358E+03  0.33470696548E+03  0.77000000000E+02 0.  0.
<mgrwt>
<rscale>  0 0.17885941E+03</rscale>
<asrwt>0</asrwt>
<pdfrwt beam="1">  1        2 0.96098511E-01 0.17885941E+03</pdfrwt>
<pdfrwt beam="2">  1       -2 0.19697914E-02 0.17885941E+03</pdfrwt>
<totfact> 0.36520068E+04</totfact>
</mgrwt>
</event>
<event>
 4    1  0.5980424E-004  0.2181122E+03  0.7818608E-02  0.1135298E+00
          2   -1    0    0  501    0  0.00000000000E+00  0.00000000000E+00  0.36396332429E+02  0.36396332518E+02  0.25500000000E-02 0.  1.
         -2   -1    0    0    0  501 -0.00000000000E+00 -0.00000000000E+00 -0.32677020967E+03  0.32677020968E+03  0.25500000000E-02 0. -1.
    5000001    1    1    2    0    0  0.55717959554E+02 -0.52445558943E+02 -0.16258721149E+03  0.19549585420E+03  0.77000000000E+02 0.  0.
   -5000001    1    1    2    0    0 -0.55717959554E+02  0.52445558943E+02 -0.12778666575E+03  0.16767068800E+03  0.77000000000E+02 0.  0.
<mgrwt>
<rscale>  0 0.21811224E+03</rscale>
<asrwt>0</asrwt>
<pdfrwt beam="1">  1        2 0.55994360E-02 0.21811224E+03</pdfrwt>
<pdfrwt beam="2">  1       -2 0.50272338E-01 0.21811224E+03</pdfrwt>
<totfact> 0.50443876E+03</totfact>
</mgrwt>
</event>
<event>
 4    1  0.5980424E-004  0.2143535E+03  0.7818608E-02  0.1138164E+00
         -2   -1    0    0    0  501 -0.00000000000E+00  0.00000000000E+00  0.35560329358E+01  0.35560338501E+01  0.25500000000E-02 0. -1.
          2   -1    0    0  501    0  0.00000000000E+00 -0.00000000000E+00 -0.32302454031E+04  0.32302454031E+04  0.25500000000E-02 0.  1.
    5000001    1    1    2    0    0  0.39280776252E+02 -0.55818658056E+02 -0.11609673684E+04  0.11655183106E+04  0.77000000000E+02 0.  0.
   -5000001    1    1    2    0    0 -0.39280776252E+02  0.55818658056E+02 -0.20657220018E+04  0.20682831263E+04  0.77000000000E+02 0.  0.
<mgrwt>
<rscale>  0 0.21435354E+03</rscale>
<asrwt>0</asrwt>
<pdfrwt beam="1">  1        2 0.49695848E+00 0.21435354E+03</pdfrwt>
<pdfrwt beam="2">  1       -2 0.54708465E-03 0.21435354E+03</pdfrwt>
<totfact> 0.77239422E+03</totfact>
</mgrwt>
</event>
<event>
 4    1  0.5980424E-004  0.5381809E+03  0.7818608E-02  0.1004267E+00
         -2   -1    0    0    0  501 -0.00000000000E+00  0.00000000000E+00  0.46793096609E+03  0.46793096610E+03  0.25500000000E-02 0. -1.
          2   -1    0    0  501    0  0.00000000000E+00 -0.00000000000E+00 -0.15474432488E+03  0.15474432490E+03  0.25500000000E-02 0.  1.
    5000001    1    1    2    0    0  0.16563012386E+03  0.42630655031E+02 -0.66650583681E+02  0.19905278441E+03  0.77000000000E+02 0.  0.
   -5000001    1    1    2    0    0 -0.16563012386E+03 -0.42630655031E+02  0.37983722489E+03  0.42362250659E+03  0.77000000000E+02 0.  0.
<mgrwt>
<rscale>  0 0.53818087E+03</rscale>
<asrwt>0</asrwt>
<pdfrwt beam="1">  1        2 0.23806819E-01 0.53818087E+03</pdfrwt>
<pdfrwt beam="2">  1       -2 0.71989379E-01 0.53818087E+03</pdfrwt>
<totfact> 0.40931460E+02</totfact>
</mgrwt>
</event>
<event>
 4    1  0.5980424E-004  0.2040558E+03  0.7818608E-02  0.1146362E+00
          2   -1    0    0  501    0  0.00000000000E+00  0.00000000000E+00  0.52415481499E+03  0.52415481500E+03  0.25500000000E-02 0.  1.
         -2   -1    0    0    0  501 -0.00000000000E+00 -0.00000000000E+00 -0.19859965309E+02  0.19859965473E+02  0.25500000000E-02 0. -1.
    5000001    1    1    2    0    0 -0.66431613942E+02 -0.81013436388E+01  0.24846737682E+03  0.26859603207E+03  0.77000000000E+02 0.  0.
   -5000001    1    1    2    0    0  0.66431613942E+02  0.81013436388E+01  0.25582747286E+03  0.27541874840E+03  0.77000000000E+02 0.  0.
<mgrwt>
<rscale>  0 0.20405584E+03</rscale>
<asrwt>0</asrwt>
<pdfrwt beam="1">  1        2 0.80639206E-01 0.20405584E+03</pdfrwt>
<pdfrwt beam="2">  1       -2 0.30553791E-02 0.20405584E+03</pdfrwt>
<totfact> 0.23632525E+04</totfact>
</mgrwt>
</event>
<event>
 4    1  0.5980424E-004  0.2421336E+03  0.7818608E-02  0.1118380E+00
         -2   -1    0    0    0  501 -0.00000000000E+00  0.00000000000E+00  0.10158020344E+02  0.10158020665E+02  0.25500000000E-02 0. -1.
          2   -1    0    0  501    0  0.00000000000E+00 -0.00000000000E+00 -0.14429158344E+04  0.14429158344E+04  0.25500000000E-02 0.  1.
    5000001    1    1    2    0    0  0.45425408727E+02 -0.80167346797E+02 -0.62381802498E+03  0.63527017839E+03  0.77000000000E+02 0.  0.
   -5000001    1    1    2    0    0 -0.45425408727E+02  0.80167346797E+02 -0.80893978904E+03  0.81780367665E+03  0.77000000000E+02 0.  0.
<mgrwt>
<rscale>  0 0.24213359E+03</rscale>
<asrwt>0</asrwt>
<pdfrwt beam="1">  1        2 0.22198689E+00 0.24213359E+03</pdfrwt>
<pdfrwt beam="2">  1       -2 0.15627735E-02 0.24213359E+03</pdfrwt>
<totfact> 0.16189796E+04</totfact>
</mgrwt>
</event>
<event>
 4    1  0.5980424E-004  0.2707948E+03  0.7818608E-02  0.1100826E+00
         -2   -1    0    0    0  501 -0.00000000000E+00  0.00000000000E+00  0.15196830445E+02  0.15196830659E+02  0.25500000000E-02 0. -1.
          2   -1    0    0  501    0  0.00000000000E+00 -0.00000000000E+00 -0.12063345722E+04  0.12063345722E+04  0.25500000000E-02 0.  1.
    5000001    1    1    2    0    0  0.10639192886E+02 -0.74965471303E+02 -0.96398763117E+03  0.97001761188E+03  0.77000000000E+02 0.  0.
   -5000001    1    1    2    0    0 -0.10639192886E+02  0.74965471303E+02 -0.22715011056E+03  0.25151379096E+03  0.77000000000E+02 0.  0.
<mgrwt>
<rscale>  0 0.27079485E+03</rscale>
<asrwt>0</asrwt>
<pdfrwt beam="1">  1        2 0.18558986E+00 0.27079485E+03</pdfrwt>
<pdfrwt beam="2">  1       -2 0.23379749E-02 0.27079485E+03</pdfrwt>
<totfact> 0.12139849E+04</totfact>
</mgrwt>
</event>
<event>
 4    1  0.5980424E-004  0.2662259E+03  0.7818608E-02  0.1103459E+00
         -2   -1    0    0    0  501 -0.00000000000E+00  0.00000000000E+00  0.17070025829E+02  0.17070026019E+02  0.25500000000E-02 0. -1.
          2   -1    0    0  501    0  0.00000000000E+00 -0.00000000000E+00 -0.10380219814E+04  0.10380219814E+04  0.25500000000E-02 0.  1.
    5000001    1    1    2    0    0 -0.79147871181E+02  0.72273794052E+02 -0.57936808440E+03  0.59420893972E+03  0.77000000000E+02 0.  0.
   -5000001    1    1    2    0    0  0.79147871181E+02 -0.72273794052E+02 -0.44158387119E+03  0.46088306772E+03  0.77000000000E+02 0.  0.
<mgrwt>
<rscale>  0 0.26622594E+03</rscale>
<asrwt>0</asrwt>
<pdfrwt beam="1">  1        2 0.15969564E+00 0.26622594E+03</pdfrwt>
<pdfrwt beam="2">  1       -2 0.26261586E-02 0.26622594E+03</pdfrwt>
<totfact> 0.12806469E+04</totfact>
</mgrwt>
</event>
<event>
 4    1  0.5980424E-004  0.2789178E+03  0.7818608E-02  0.1096282E+00
         -2   -1    0    0    0  501 -0.00000000000E+00  0.00000000000E+00  0.29443264345E+03  0.29443264346E+03  0.25500000000E-02 0. -1.
          2   -1    0    0  501    0  0.00000000000E+00 -0.00000000000E+00 -0.66055107155E+02  0.66055107204E+02  0.25500000000E-02 0.  1.
    5000001    1    1    2    0    0  0.79800525235E+02 -0.42520345044E+02  0.19709960058E+02  0.12038931056E+03  0.77000000000E+02 0.  0.
   -5000001    1    1    2    0    0 -0.79800525235E+02  0.42520345044E+02  0.20866757624E+03  0.24009844011E+03  0.77000000000E+02 0.  0.
<mgrwt>
<rscale>  0 0.27891776E+03</rscale>
<asrwt>0</asrwt>
<pdfrwt beam="1">  1        2 0.10162324E-01 0.27891776E+03</pdfrwt>
<pdfrwt beam="2">  1       -2 0.45297329E-01 0.27891776E+03</pdfrwt>
<totfact> 0.29268611E+03</totfact>
</mgrwt>
</event>
<event>
 4    1  0.5980424E-004  0.7419163E+03  0.7818608E-02  0.9648118E-01
         -2   -1    0    0    0  501 -0.00000000000E+00  0.00000000000E+00  0.24093051547E+03  0.24093051548E+03  0.25500000000E-02 0. -1.
          2   -1    0    0  501    0  0.00000000000E+00 -0.00000000000E+00 -0.57116037550E+03  0.57116037550E+03  0.25500000000E-02 0.  1.
    5000001    1    1    2    0    0 -0.85994430966E+02  0.30306072509E+03 -0.36226226875E+03  0.48621373552E+03  0.77000000000E+02 0.  0.
   -5000001    1    1    2    0    0  0.85994430966E+02 -0.30306072509E+03  0.32032408725E+02  0.32587715547E+03  0.77000000000E+02 0.  0.
<mgrwt>
<rscale>  0 0.74191634E+03</rscale>
<asrwt>0</asrwt>
<pdfrwt beam="1">  1        2 0.87870827E-01 0.74191634E+03</pdfrwt>
<pdfrwt beam="2">  1       -2 0.37066233E-01 0.74191634E+03</pdfrwt>
<totfact> 0.36350748E+02</totfact>
</mgrwt>
</event>
<event>
 4    1  0.5980424E-004  0.1633861E+03  0.7818608E-02  0.1184926E+00
         -2   -1    0    0    0  501 -0.00000000000E+00  0.00000000000E+00  0.17226892158E+02  0.17226892347E+02  0.25500000000E-02 0. -1.
          2   -1    0    0  501    0  0.00000000000E+00 -0.00000000000E+00 -0.38740340332E+03  0.38740340333E+03  0.25500000000E-02 0.  1.
    5000001    1    1    2    0    0  0.26051528094E+01  0.25252277519E+02 -0.20988970824E+03  0.22500478654E+03  0.77000000000E+02 0.  0.
   -5000001    1    1    2    0    0 -0.26051528094E+01 -0.25252277519E+02 -0.16028680293E+03  0.17962550914E+03  0.77000000000E+02 0.  0.
<mgrwt>
<rscale>  0 0.16338613E+03</rscale>
<asrwt>0</asrwt>
<pdfrwt beam="1">  1        2 0.59600517E-01 0.16338613E+03</pdfrwt>
<pdfrwt beam="2">  1       -2 0.26502914E-02 0.16338613E+03</pdfrwt>
<totfact> 0.39803743E+04</totfact>
</mgrwt>
</event>
<event>
 4    1  0.5980424E-004  0.2897120E+03  0.7818608E-02  0.1090500E+00
          2   -1    0    0  501    0  0.00000000000E+00  0.00000000000E+00  0.50807878666E+03  0.50807878667E+03  0.25500000000E-02 0.  1.
         -2   -1    0    0    0  501 -0.00000000000E+00 -0.00000000000E+00 -0.41299229122E+02  0.41299229200E+02  0.25500000000E-02 0. -1.
    5000001    1    1    2    0    0 -0.51977674012E+02 -0.10999163692E+03  0.20314270596E+03  0.24898955354E+03  0.77000000000E+02 0.  0.
   -5000001    1    1    2    0    0  0.51977674012E+02  0.10999163692E+03  0.26363685158E+03  0.30038846233E+03  0.77000000000E+02 0.  0.
<mgrwt>
<rscale>  0 0.28971201E+03</rscale>
<asrwt>0</asrwt>
<pdfrwt beam="1">  1        2 0.78165963E-01 0.28971201E+03</pdfrwt>
<pdfrwt beam="2">  1       -2 0.63537279E-02 0.28971201E+03</pdfrwt>
<totfact> 0.82558415E+03</totfact>
</mgrwt>
</event>
<event>
 4    1  0.5980424E-004  0.1911760E+03  0.7818608E-02  0.1157405E+00
          2   -1    0    0  501    0  0.00000000000E+00  0.00000000000E+00  0.79671457662E+03  0.79671457662E+03  0.25500000000E-02 0.  1.
         -2   -1    0    0    0  501 -0.00000000000E+00 -0.00000000000E+00 -0.11468427285E+02  0.11468427569E+02  0.25500000000E-02 0. -1.
    5000001    1    1    2    0    0  0.65072804422E+01 -0.56008689929E+02  0.41528827245E+03  0.42611344415E+03  0.77000000000E+02 0.  0.
   -5000001    1    1    2    0    0 -0.65072804422E+01  0.56008689929E+02  0.36995787688E+03  0.38206956005E+03  0.77000000000E+02 0.  0.
<mgrwt>
<rscale>  0 0.19117597E+03</rscale>
<asrwt>0</asrwt>
<pdfrwt beam="1">  1        2 0.12257148E+00 0.19117597E+03</pdfrwt>
<pdfrwt beam="2">  1       -2 0.17643733E-02 0.19117597E+03</pdfrwt>
<totfact> 0.32160122E+04</totfact>
</mgrwt>
</event>
<event>
 4    1  0.5980424E-004  0.9368280E+03  0.7818608E-02  0.9380681E-01
         -2   -1    0    0    0  501 -0.00000000000E+00  0.00000000000E+00  0.34529579645E+03  0.34529579646E+03  0.25500000000E-02 0. -1.
          2   -1    0    0  501    0  0.00000000000E+00 -0.00000000000E+00 -0.63543102316E+03  0.63543102316E+03  0.25500000000E-02 0.  1.
    5000001    1    1    2    0    0 -0.26691511960E+03 -0.26209477601E+03  0.13883258155E+03  0.40637524332E+03  0.77000000000E+02 0.  0.
   -5000001    1    1    2    0    0  0.26691511960E+03  0.26209477601E+03 -0.42896780826E+03  0.57435157631E+03  0.77000000000E+02 0.  0.
<mgrwt>
<rscale>  0 0.93682797E+03</rscale>
<asrwt>0</asrwt>
<pdfrwt beam="1">  1        2 0.97758619E-01 0.93682797E+03</pdfrwt>
<pdfrwt beam="2">  1       -2 0.53122430E-01 0.93682797E+03</pdfrwt>
<totfact> 0.15478286E+02</totfact>
</mgrwt>
</event>
<event>
 4    1  0.5980424E-004  0.4423103E+03  0.7818608E-02  0.1030040E+00
          2   -1    0    0  501    0  0.00000000000E+00  0.00000000000E+00  0.70813060854E+03  0.70813060855E+03  0.25500000000E-02 0.  1.
         -2   -1    0    0    0  501 -0.00000000000E+00 -0.00000000000E+00 -0.69068613661E+02  0.69068613709E+02  0.25500000000E-02 0. -1.
    5000001    1    1    2    0    0 -0.18875420378E+03  0.41247168235E+02  0.45162181133E+03  0.49721297127E+03  0.77000000000E+02 0.  0.
   -5000001    1    1    2    0    0  0.18875420378E+03 -0.41247168235E+02  0.18744018356E+03  0.27998625099E+03  0.77000000000E+02 0.  0.
<mgrwt>
<rscale>  0 0.44231030E+03</rscale>
<asrwt>0</asrwt>
<pdfrwt beam="1">  1        2 0.10894317E+00 0.44231030E+03</pdfrwt>
<pdfrwt beam="2">  1       -2 0.10625941E-01 0.44231030E+03</pdfrwt>
<totfact> 0.25015562E+03</totfact>
</mgrwt>
</event>
<event>
 4    1  0.5980424E-004  0.2619760E+03  0.7818608E-02  0.1105962E+00
         -2   -1    0    0    0  501 -0.00000000000E+00  0.00000000000E+00  0.64162071938E+03  0.64162071939E+03  0.25500000000E-02 0. -1.
          2   -1    0    0  501    0  0.00000000000E+00 -0.00000000000E+00 -0.26741428665E+02  0.26741428787E+02  0.25500000000E-02 0.  1.
    5000001    1    1    2    0    0 -0.88231359294E+02  0.24478368616E+02  0.44351616937E+03  0.45936864911E+03  0.77000000000E+02 0.  0.
   -5000001    1    1    2    0    0  0.88231359294E+02 -0.24478368616E+02  0.17136312135E+03  0.20899349906E+03  0.77000000000E+02 0.  0.
<mgrwt>
<rscale>  0 0.26197599E+03</rscale>
<asrwt>0</asrwt>
<pdfrwt beam="1">  1        2 0.41140660E-02 0.26197599E+03</pdfrwt>
<pdfrwt beam="2">  1       -2 0.98710879E-01 0.26197599E+03</pdfrwt>
<totfact> 0.17984801E+03</totfact>
</mgrwt>
</event>
<event>
 4    1  0.5980424E-004  0.3794961E+03  0.7818608E-02  0.1051120E+00
         -2   -1    0    0    0  501 -0.00000000000E+00  0.00000000000E+00  0.25414631231E+02  0.25414631359E+02  0.25500000000E-02 0. -1.
          2   -1    0    0  501    0  0.00000000000E+00 -0.00000000000E+00 -0.14166768461E+04  0.14166768461E+04  0.25500000000E-02 0.  1.
    5000001    1    1    2    0    0 -0.62467590809E+02  0.15140243510E+03 -0.47898274310E+03  0.51203355891E+03  0.77000000000E+02 0.  0.
   -5000001    1    1    2    0    0  0.62467590809E+02 -0.15140243510E+03 -0.91227947176E+03  0.93005791855E+03  0.77000000000E+02 0.  0.
<mgrwt>
<rscale>  0 0.37949609E+03</rscale>
<asrwt>0</asrwt>
<pdfrwt beam="1">  1        2 0.21795022E+00 0.37949609E+03</pdfrwt>
<pdfrwt beam="2">  1       -2 0.39099444E-02 0.37949609E+03</pdfrwt>
<totfact> 0.43165868E+03</totfact>
</mgrwt>
</event>
<event>
 4    1  0.5980424E-004  0.1535234E+04  0.7818608E-02  0.8861355E-01
          2   -1    0    0  501    0  0.00000000000E+00  0.00000000000E+00  0.11370901003E+04  0.11370901003E+04  0.25500000000E-02 0.  1.
         -2   -1    0    0    0  501 -0.00000000000E+00 -0.00000000000E+00 -0.51819648201E+03  0.51819648201E+03  0.25500000000E-02 0. -1.
    5000001    1    1    2    0    0  0.92805764665E+02 -0.75085871833E+03  0.19685193253E+03  0.78554529353E+03  0.77000000000E+02 0.  0.
   -5000001    1    1    2    0    0 -0.92805764665E+02  0.75085871833E+03  0.42204168573E+03  0.86974128874E+03  0.77000000000E+02 0.  0.
<mgrwt>
<rscale>  0 0.15352343E+04</rscale>
<asrwt>0</asrwt>
<pdfrwt beam="1">  1        2 0.17493694E+00 0.15352343E+04</pdfrwt>
<pdfrwt beam="2">  1       -2 0.79722537E-01 0.15352343E+04</pdfrwt>
<totfact> 0.27758342E+01</totfact>
</mgrwt>
</event>
<event>
 4    1  0.5980424E-004  0.1834406E+03  0.7818608E-02  0.1164514E+00
         -2   -1    0    0    0  501 -0.00000000000E+00  0.00000000000E+00  0.22463869828E+02  0.22463869973E+02  0.25500000000E-02 0. -1.
          2   -1    0    0  501    0  0.00000000000E+00 -0.00000000000E+00 -0.37449510855E+03  0.37449510856E+03  0.25500000000E-02 0.  1.
    5000001    1    1    2    0    0  0.30801399531E+02 -0.23754296600E+02 -0.24343334915E+03  0.25826689354E+03  0.77000000000E+02 0.  0.
   -5000001    1    1    2    0    0 -0.30801399531E+02  0.23754296600E+02 -0.10859788957E+03  0.13869208499E+03  0.77000000000E+02 0.  0.
<mgrwt>
<rscale>  0 0.18344056E+03</rscale>
<asrwt>0</asrwt>
<pdfrwt beam="1">  1        2 0.57614627E-01 0.18344056E+03</pdfrwt>
<pdfrwt beam="2">  1       -2 0.34559803E-02 0.18344056E+03</pdfrwt>
<totfact> 0.28183455E+04</totfact>
</mgrwt>
</event>
<event>
 4    1  0.5980424E-004  0.2283288E+03  0.7818608E-02  0.1127822E+00
         -2   -1    0    0    0  501 -0.00000000000E+00  0.00000000000E+00  0.51731618288E+02  0.51731618351E+02  0.25500000000E-02 0. -1.
          2   -1    0    0  501    0  0.00000000000E+00 -0.00000000000E+00 -0.25194466348E+03  0.25194466350E+03  0.25500000000E-02 0.  1.
    5000001    1    1    2    0    0 -0.35919622027E+02  0.66082338485E+02 -0.49507035137E+02  0.11847802005E+03  0.77000000000E+02 0.  0.
   -5000001    1    1    2    0    0  0.35919622027E+02 -0.66082338485E+02 -0.15070601006E+03  0.18519826180E+03  0.77000000000E+02 0.  0.
<mgrwt>
<rscale>  0 0.22832876E+03</rscale>
<asrwt>0</asrwt>
<pdfrwt beam="1">  1        2 0.38760717E-01 0.22832876E+03</pdfrwt>
<pdfrwt beam="2">  1       -2 0.79587107E-02 0.22832876E+03</pdfrwt>
<totfact> 0.12337744E+04</totfact>
</mgrwt>
</event>
<event>
 4    1  0.5980424E-004  0.3433575E+03  0.7818608E-02  0.1065375E+00
          2   -1    0    0  501    0  0.00000000000E+00  0.00000000000E+00  0.14252573192E+04  0.14252573192E+04  0.25500000000E-02 0.  1.
         -2   -1    0    0    0  501 -0.00000000000E+00 -0.00000000000E+00 -0.20679492372E+02  0.20679492530E+02  0.25500000000E-02 0. -1.
    5000001    1    1    2    0    0  0.82750234383E+02 -0.12897524651E+03  0.66902801043E+03  0.69065888414E+03  0.77000000000E+02 0.  0.
   -5000001    1    1    2    0    0 -0.82750234383E+02  0.12897524651E+03  0.73554981637E+03  0.75527792756E+03  0.77000000000E+02 0.  0.
<mgrwt>
<rscale>  0 0.34335753E+03</rscale>
<asrwt>0</asrwt>
<pdfrwt beam="1">  1        2 0.21927047E+00 0.34335753E+03</pdfrwt>
<pdfrwt beam="2">  1       -2 0.31814587E-02 0.34335753E+03</pdfrwt>
<totfact> 0.58259877E+03</totfact>
</mgrwt>
</event>
<event>
 4    1  0.5980424E-004  0.3353081E+03  0.7818608E-02  0.1068812E+00
          2   -1    0    0  501    0  0.00000000000E+00  0.00000000000E+00  0.44912315393E+03  0.44912315394E+03  0.25500000000E-02 0.  1.
         -2   -1    0    0    0  501 -0.00000000000E+00 -0.00000000000E+00 -0.62583891366E+02  0.62583891418E+02  0.25500000000E-02 0. -1.
    5000001    1    1    2    0    0  0.60260385543E+02 -0.12396260119E+03  0.27933885934E+03  0.32086950447E+03  0.77000000000E+02 0.  0.
   -5000001    1    1    2    0    0 -0.60260385543E+02  0.12396260119E+03  0.10720040323E+03  0.19083754089E+03  0.77000000000E+02 0.  0.
<mgrwt>
<rscale>  0 0.33530807E+03</rscale>
<asrwt>0</asrwt>
<pdfrwt beam="1">  1        2 0.69095874E-01 0.33530807E+03</pdfrwt>
<pdfrwt beam="2">  1       -2 0.96282904E-02 0.33530807E+03</pdfrwt>
<totfact> 0.49627391E+03</totfact>
</mgrwt>
</event>
<event>
 4    1  0.5980424E-004  0.2081911E+03  0.7818608E-02  0.1143007E+00
          2   -1    0    0  501    0  0.00000000000E+00  0.00000000000E+00  0.16707722595E+04  0.16707722595E+04  0.25500000000E-02 0.  1.
         -2   -1    0    0    0  501 -0.00000000000E+00 -0.00000000000E+00 -0.64855506448E+01  0.64855511461E+01  0.25500000000E-02 0. -1.
    5000001    1    1    2    0    0  0.57627026486E+02 -0.31066089339E+02  0.63139617771E+03  0.63943421031E+03  0.77000000000E+02 0.  0.
   -5000001    1    1    2    0    0 -0.57627026486E+02  0.31066089339E+02  0.10328905311E+04  0.10378236003E+04  0.77000000000E+02 0.  0.
<mgrwt>
<rscale>  0 0.20819105E+03</rscale>
<asrwt>0</asrwt>
<pdfrwt beam="1">  1        2 0.25704197E+00 0.20819105E+03</pdfrwt>
<pdfrwt beam="2">  1       -2 0.99777675E-03 0.20819105E+03</pdfrwt>
<totfact> 0.23384359E+04</totfact>
</mgrwt>
</event>
<event>
 4    1  0.5980424E-004  0.2219398E+03  0.7818608E-02  0.1132445E+00
         -2   -1    0    0    0  501 -0.00000000000E+00  0.00000000000E+00  0.11361806386E+03  0.11361806388E+03  0.25500000000E-02 0. -1.
          2   -1    0    0  501    0  0.00000000000E+00 -0.00000000000E+00 -0.10838341423E+03  0.10838341426E+03  0.25500000000E-02 0.  1.
    5000001    1    1    2    0    0  0.61020200046E+02  0.30609212409E+02 -0.38926441910E+02  0.11002116423E+03  0.77000000000E+02 0.  0.
   -5000001    1    1    2    0    0 -0.61020200046E+02 -0.30609212409E+02  0.44161091541E+02  0.11198031391E+03  0.77000000000E+02 0.  0.
<mgrwt>
<rscale>  0 0.22193975E+03</rscale>
<asrwt>0</asrwt>
<pdfrwt beam="1">  1        2 0.16674371E-01 0.22193975E+03</pdfrwt>
<pdfrwt beam="2">  1       -2 0.17479702E-01 0.22193975E+03</pdfrwt>
<totfact> 0.88830200E+03</totfact>
</mgrwt>
</event>
<event>
 4    1  0.5980424E-004  0.4517213E+03  0.7818608E-02  0.1027210E+00
         -2   -1    0    0    0  501 -0.00000000000E+00  0.00000000000E+00  0.69129705331E+02  0.69129705378E+02  0.25500000000E-02 0. -1.
          2   -1    0    0  501    0  0.00000000000E+00 -0.00000000000E+00 -0.73793215816E+03  0.73793215816E+03  0.25500000000E-02 0.  1.
    5000001    1    1    2    0    0  0.12007048806E+03 -0.16867055537E+03 -0.25027066119E+03  0.33381294493E+03  0.77000000000E+02 0.  0.
   -5000001    1    1    2    0    0 -0.12007048806E+03  0.16867055537E+03 -0.41853179164E+03  0.47324891861E+03  0.77000000000E+02 0.  0.
<mgrwt>
<rscale>  0 0.45172130E+03</rscale>
<asrwt>0</asrwt>
<pdfrwt beam="1">  1        2 0.11352802E+00 0.45172130E+03</pdfrwt>
<pdfrwt beam="2">  1       -2 0.10635340E-01 0.45172130E+03</pdfrwt>
<totfact> 0.23725649E+03</totfact>
</mgrwt>
</event>
<event>
 4    1  0.5980424E-004  0.4486449E+03  0.7818608E-02  0.1028127E+00
         -2   -1    0    0    0  501 -0.00000000000E+00  0.00000000000E+00  0.29660413948E+03  0.29660413949E+03  0.25500000000E-02 0. -1.
          2   -1    0    0  501    0  0.00000000000E+00 -0.00000000000E+00 -0.16965564068E+03  0.16965564070E+03  0.25500000000E-02 0.  1.
    5000001    1    1    2    0    0 -0.14312971181E+02  0.20819292004E+03  0.93638152188E+02  0.24134261257E+03  0.77000000000E+02 0.  0.
   -5000001    1    1    2    0    0  0.14312971181E+02 -0.20819292004E+03  0.33310346606E+02  0.22491716762E+03  0.77000000000E+02 0.  0.
<mgrwt>
<rscale>  0 0.44864492E+03</rscale>
<asrwt>0</asrwt>
<pdfrwt beam="1">  1        2 0.26100868E-01 0.44864492E+03</pdfrwt>
<pdfrwt beam="2">  1       -2 0.45631406E-01 0.44864492E+03</pdfrwt>
<totfact> 0.95112414E+02</totfact>
</mgrwt>
</event>
<event>
 4    1  0.5980424E-004  0.1803131E+03  0.7818608E-02  0.1167500E+00
          2   -1    0    0  501    0  0.00000000000E+00  0.00000000000E+00  0.22697917000E+03  0.22697917001E+03  0.25500000000E-02 0.  1.
         -2   -1    0    0    0  501 -0.00000000000E+00 -0.00000000000E+00 -0.35810367794E+02  0.35810367885E+02  0.25500000000E-02 0. -1.
    5000001    1    1    2    0    0  0.45223140522E+02  0.43288212382E+01  0.11253902102E+03  0.14372857192E+03  0.77000000000E+02 0.  0.
   -5000001    1    1    2    0    0 -0.45223140522E+02 -0.43288212382E+01  0.78629781182E+02  0.11906096598E+03  0.77000000000E+02 0.  0.
<mgrwt>
<rscale>  0 0.18031315E+03</rscale>
<asrwt>0</asrwt>
<pdfrwt beam="1">  1        2 0.34919872E-01 0.18031315E+03</pdfrwt>
<pdfrwt beam="2">  1       -2 0.55092873E-02 0.18031315E+03</pdfrwt>
<totfact> 0.23888891E+04</totfact>
</mgrwt>
</event>
<event>
 4    1  0.5980424E-004  0.2369006E+03  0.7818608E-02  0.1121875E+00
          2   -1    0    0  501    0  0.00000000000E+00  0.00000000000E+00  0.15332869462E+04  0.15332869462E+04  0.25500000000E-02 0.  1.
         -2   -1    0    0    0  501 -0.00000000000E+00 -0.00000000000E+00 -0.91505839080E+01  0.91505842633E+01  0.25500000000E-02 0. -1.
    5000001    1    1    2    0    0  0.59193944822E+02 -0.46533900824E+02  0.44097128137E+03  0.45393171075E+03  0.77000000000E+02 0.  0.
   -5000001    1    1    2    0    0 -0.59193944822E+02  0.46533900824E+02  0.10831650809E+04  0.10885058197E+04  0.77000000000E+02 0.  0.
<mgrwt>
<rscale>  0 0.23690058E+03</rscale>
<asrwt>0</asrwt>
<pdfrwt beam="1">  1        2 0.23589066E+00 0.23690058E+03</pdfrwt>
<pdfrwt beam="2">  1       -2 0.14077800E-02 0.23690058E+03</pdfrwt>
<totfact> 0.16858216E+04</totfact>
</mgrwt>
</event>
<event>
 4    1  0.5980424E-004  0.2732228E+03  0.7818608E-02  0.1099449E+00
         -2   -1    0    0    0  501 -0.00000000000E+00  0.00000000000E+00  0.16384599391E+02  0.16384599590E+02  0.25500000000E-02 0. -1.
          2   -1    0    0  501    0  0.00000000000E+00 -0.00000000000E+00 -0.11390376102E+04  0.11390376102E+04  0.25500000000E-02 0.  1.
    5000001    1    1    2    0    0 -0.34796546985E+02  0.10590023351E+03 -0.48710831772E+03  0.50559783656E+03  0.77000000000E+02 0.  0.
   -5000001    1    1    2    0    0  0.34796546985E+02 -0.10590023351E+03 -0.63554469310E+03  0.64982437325E+03  0.77000000000E+02 0.  0.
<mgrwt>
<rscale>  0 0.27322280E+03</rscale>
<asrwt>0</asrwt>
<pdfrwt beam="1">  1        2 0.17523649E+00 0.27322280E+03</pdfrwt>
<pdfrwt beam="2">  1       -2 0.25207085E-02 0.27322280E+03</pdfrwt>
<totfact> 0.11872970E+04</totfact>
</mgrwt>
</event>
<event>
 4    1  0.5980424E-004  0.1616666E+03  0.7818608E-02  0.1186828E+00
         -2   -1    0    0    0  501 -0.00000000000E+00  0.00000000000E+00  0.47406192301E+01  0.47406199159E+01  0.25500000000E-02 0. -1.
          2   -1    0    0  501    0  0.00000000000E+00 -0.00000000000E+00 -0.13783053807E+04  0.13783053807E+04  0.25500000000E-02 0.  1.
    5000001    1    1    2    0    0 -0.22873750866E+02 -0.75849614907E+01 -0.72893773622E+03  0.73338936684E+03  0.77000000000E+02 0.  0.
   -5000001    1    1    2    0    0  0.22873750866E+02  0.75849614907E+01 -0.64462702523E+03  0.64965663375E+03  0.77000000000E+02 0.  0.
<mgrwt>
<rscale>  0 0.16166659E+03</rscale>
<asrwt>0</asrwt>
<pdfrwt beam="1">  1        2 0.21204666E+00 0.16166659E+03</pdfrwt>
<pdfrwt beam="2">  1       -2 0.72932719E-03 0.16166659E+03</pdfrwt>
<totfact> 0.51466437E+04</totfact>
</mgrwt>
</event>
<event>
 4    1  0.5980424E-004  0.3308995E+03  0.7818608E-02  0.1070740E+00
          2   -1    0    0  501    0  0.00000000000E+00  0.00000000000E+00  0.11815041886E+04  0.11815041886E+04  0.25500000000E-02 0.  1.
         -2   -1    0    0    0  501 -0.00000000000E+00 -0.00000000000E+00 -0.23168443160E+02  0.23168443300E+02  0.25500000000E-02 0. -1.
    5000001    1    1    2    0    0  0.14636574117E+03 -0.40692119962E+01  0.58740886650E+03  0.61026032570E+03  0.77000000000E+02 0.  0.
   -5000001    1    1    2    0    0 -0.14636574117E+03  0.40692119962E+01  0.57092687893E+03  0.59441230619E+03  0.77000000000E+02 0.  0.
<mgrwt>
<rscale>  0 0.33089946E+03</rscale>
<asrwt>0</asrwt>
<pdfrwt beam="1">  1        2 0.18176991E+00 0.33089946E+03</pdfrwt>
<pdfrwt beam="2">  1       -2 0.35643753E-02 0.33089946E+03</pdfrwt>
<totfact> 0.67189760E+03</totfact>
</mgrwt>
</event>
<event>
 4    1  0.5980424E-004  0.2698242E+03  0.7818608E-02  0.1101380E+00
         -2   -1    0    0    0  501 -0.00000000000E+00  0.00000000000E+00  0.11509898553E+03  0.11509898556E+03  0.25500000000E-02 0. -1.
          2   -1    0    0  501    0  0.00000000000E+00 -0.00000000000E+00 -0.15813589667E+03  0.15813589669E+03  0.25500000000E-02 0.  1.
    5000001    1    1    2    0    0 -0.47930260985E+01 -0.10060035103E+03  0.25204521616E+02  0.12925815888E+03  0.77000000000E+02 0.  0.
   -5000001    1    1    2    0    0  0.47930260985E+01  0.10060035103E+03 -0.68241432762E+02  0.14397672337E+03  0.77000000000E+02 0.  0.
<mgrwt>
<rscale>  0 0.26982425E+03</rscale>
<asrwt>0</asrwt>
<pdfrwt beam="1">  1        2 0.24328600E-01 0.26982425E+03</pdfrwt>
<pdfrwt beam="2">  1       -2 0.17707536E-01 0.26982425E+03</pdfrwt>
<totfact> 0.56960579E+03</totfact>
</mgrwt>
</event>
<event>
 4    1  0.5980424E-004  0.2025449E+03  0.7818608E-02  0.1147609E+00
          2   -1    0    0  501    0  0.00000000000E+00  0.00000000000E+00  0.20563741436E+03  0.20563741437E+03  0.25500000000E-02 0.  1.
         -2   -1    0    0    0  501 -0.00000000000E+00 -0.00000000000E+00 -0.49874723922E+02  0.49874723988E+02  0.25500000000E-02 0. -1.
    5000001    1    1    2    0    0  0.45341033327E+02 -0.45699060504E+02  0.60820830045E+02  0.11735581282E+03  0.77000000000E+02 0.  0.
   -5000001    1    1    2    0    0 -0.45341033327E+02  0.45699060504E+02  0.94941860391E+02  0.13815632555E+03  0.77000000000E+02 0.  0.
<mgrwt>
<rscale>  0 0.20254490E+03</rscale>
<asrwt>0</asrwt>
<pdfrwt beam="1">  1        2 0.31636525E-01 0.20254490E+03</pdfrwt>
<pdfrwt beam="2">  1       -2 0.76730346E-02 0.20254490E+03</pdfrwt>
<totfact> 0.16142318E+04</totfact>
</mgrwt>
</event>
<event>
 4    1  0.5980424E-004  0.3201618E+03  0.7818608E-02  0.1075575E+00
          2   -1    0    0  501    0  0.00000000000E+00  0.00000000000E+00  0.10704984215E+04  0.10704984215E+04  0.25500000000E-02 0.  1.
         -2   -1    0    0    0  501 -0.00000000000E+00 -0.00000000000E+00 -0.23938290585E+02  0.23938290720E+02  0.25500000000E-02 0. -1.
    5000001    1    1    2    0    0  0.45610291186E+02  0.12736077846E+03  0.65099398721E+03  0.66934538015E+03  0.77000000000E+02 0.  0.
   -5000001    1    1    2    0    0 -0.45610291186E+02 -0.12736077846E+03  0.39556614370E+03  0.42509133206E+03  0.77000000000E+02 0.  0.
<mgrwt>
<rscale>  0 0.32016185E+03</rscale>
<asrwt>0</asrwt>
<pdfrwt beam="1">  1        2 0.16469204E+00 0.32016185E+03</pdfrwt>
<pdfrwt beam="2">  1       -2 0.36828144E-02 0.32016185E+03</pdfrwt>
<totfact> 0.74264510E+03</totfact>
</mgrwt>
</event>
<event>
 4    1  0.5980424E-004  0.2314942E+03  0.7818608E-02  0.1125592E+00
         -2   -1    0    0    0  501 -0.00000000000E+00  0.00000000000E+00  0.23256645935E+03  0.23256645936E+03  0.25500000000E-02 0. -1.
          2   -1    0    0  501    0  0.00000000000E+00 -0.00000000000E+00 -0.57606709730E+02  0.57606709786E+02  0.25500000000E-02 0.  1.
    5000001    1    1    2    0    0  0.29572286116E+02 -0.79758034619E+02  0.68365883424E+02  0.13356181419E+03  0.77000000000E+02 0.  0.
   -5000001    1    1    2    0    0 -0.29572286116E+02  0.79758034619E+02  0.10659386619E+03  0.15661135496E+03  0.77000000000E+02 0.  0.
<mgrwt>
<rscale>  0 0.23149418E+03</rscale>
<asrwt>0</asrwt>
<pdfrwt beam="1">  1        2 0.88625708E-02 0.23149418E+03</pdfrwt>
<pdfrwt beam="2">  1       -2 0.35779455E-01 0.23149418E+03</pdfrwt>
<totfact> 0.54106936E+03</totfact>
</mgrwt>
</event>
<event>
 4    1  0.5980424E-004  0.2206614E+03  0.7818608E-02  0.1133391E+00
          2   -1    0    0  501    0  0.00000000000E+00  0.00000000000E+00  0.45681716668E+03  0.45681716669E+03  0.25500000000E-02 0.  1.
         -2   -1    0    0    0  501 -0.00000000000E+00 -0.00000000000E+00 -0.26647129628E+02  0.26647129750E+02  0.25500000000E-02 0. -1.
    5000001    1    1    2    0    0 -0.74098957204E+02  0.20282658713E+01  0.15511875278E+03  0.18837621078E+03  0.77000000000E+02 0.  0.
   -5000001    1    1    2    0    0  0.74098957204E+02 -0.20282658713E+01  0.27505128427E+03  0.29508808566E+03  0.77000000000E+02 0.  0.
<mgrwt>
<rscale>  0 0.22066143E+03</rscale>
<asrwt>0</asrwt>
<pdfrwt beam="1">  1        2 0.70279562E-01 0.22066143E+03</pdfrwt>
<pdfrwt beam="2">  1       -2 0.40995585E-02 0.22066143E+03</pdfrwt>
<totfact> 0.17850017E+04</totfact>
</mgrwt>
</event>
<event>
 4    1  0.5980424E-004  0.2277606E+03  0.7818608E-02  0.1128226E+00
          2   -1    0    0  501    0  0.00000000000E+00  0.00000000000E+00  0.13433770104E+04  0.13433770104E+04  0.25500000000E-02 0.  1.
         -2   -1    0    0    0  501 -0.00000000000E+00 -0.00000000000E+00 -0.96538205862E+01  0.96538209230E+01  0.25500000000E-02 0. -1.
    5000001    1    1    2    0    0 -0.74700962219E+02  0.24868442059E+02  0.49457977936E+03  0.50669204782E+03  0.77000000000E+02 0.  0.
   -5000001    1    1    2    0    0  0.74700962219E+02 -0.24868442059E+02  0.83914341049E+03  0.84633878354E+03  0.77000000000E+02 0.  0.
<mgrwt>
<rscale>  0 0.22776058E+03</rscale>
<asrwt>0</asrwt>
<pdfrwt beam="1">  1        2 0.20667328E+00 0.22776058E+03</pdfrwt>
<pdfrwt beam="2">  1       -2 0.14852039E-02 0.22776058E+03</pdfrwt>
<totfact> 0.19690362E+04</totfact>
</mgrwt>
</event>
<event>
 4    1  0.5980424E-004  0.3024334E+03  0.7818608E-02  0.1084030E+00
          2   -1    0    0  501    0  0.00000000000E+00  0.00000000000E+00  0.90285069017E+03  0.90285069018E+03  0.25500000000E-02 0.  1.
         -2   -1    0    0    0  501 -0.00000000000E+00 -0.00000000000E+00 -0.25326988459E+02  0.25326988587E+02  0.25500000000E-02 0. -1.
    5000001    1    1    2    0    0  0.34180330780E+02 -0.58893568813E+02  0.98379503973E+02  0.14228237509E+03  0.77000000000E+02 0.  0.
   -5000001    1    1    2    0    0 -0.34180330780E+02  0.58893568813E+02  0.77914419774E+03  0.78589530367E+03  0.77000000000E+02 0.  0.
<mgrwt>
<rscale>  0 0.30243339E+03</rscale>
<asrwt>0</asrwt>
<pdfrwt beam="1">  1        2 0.13890012E+00 0.30243339E+03</pdfrwt>
<pdfrwt beam="2">  1       -2 0.38964594E-02 0.30243339E+03</pdfrwt>
<totfact> 0.86579213E+03</totfact>
</mgrwt>
</event>
<event>
 4    1  0.5980424E-004  0.2450415E+03  0.7818608E-02  0.1116479E+00
          2   -1    0    0  501    0  0.00000000000E+00  0.00000000000E+00  0.46272154235E+04  0.46272154235E+04  0.25500000000E-02 0.  1.
         -2   -1    0    0    0  501 -0.00000000000E+00 -0.00000000000E+00 -0.32441398315E+01  0.32441408336E+01  0.25500000000E-02 0. -1.
    5000001    1    1    2    0    0  0.83463889061E+02  0.33129758331E+01  0.14449741075E+04  0.14494331195E+04  0.77000000000E+02 0.  0.
   -5000001    1    1    2    0    0 -0.83463889061E+02 -0.33129758331E+01  0.31789971763E+04  0.31810264449E+04  0.77000000000E+02 0.  0.
<mgrwt>
<rscale>  0 0.24504152E+03</rscale>
<asrwt>0</asrwt>
<pdfrwt beam="1">  1        2 0.71188134E+00 0.24504152E+03</pdfrwt>
<pdfrwt beam="2">  1       -2 0.49909708E-03 0.24504152E+03</pdfrwt>
<totfact> 0.75454211E+02</totfact>
</mgrwt>
</event>
<event>
 4    1  0.5980424E-004  0.2193739E+03  0.7818608E-02  0.1134351E+00
          2   -1    0    0  501    0  0.00000000000E+00  0.00000000000E+00  0.19298678206E+04  0.19298678206E+04  0.25500000000E-02 0.  1.
         -2   -1    0    0    0  501 -0.00000000000E+00 -0.00000000000E+00 -0.62342241404E+01  0.62342246619E+01  0.25500000000E-02 0. -1.
    5000001    1    1    2    0    0  0.62792209387E+01 -0.76047898439E+02  0.11093697224E+04  0.11146537097E+04  0.77000000000E+02 0.  0.
   -5000001    1    1    2    0    0 -0.62792209387E+01  0.76047898439E+02  0.81426387399E+03  0.82144833554E+03  0.77000000000E+02 0.  0.
<mgrwt>
<rscale>  0 0.21937392E+03</rscale>
<asrwt>0</asrwt>
<pdfrwt beam="1">  1        2 0.29690320E+00 0.21937392E+03</pdfrwt>
<pdfrwt beam="2">  1       -2 0.95910998E-03 0.21937392E+03</pdfrwt>
<totfact> 0.18184843E+04</totfact>
</mgrwt>
</event>
<event>
 4    1  0.5980424E-004  0.1909105E+03  0.7818608E-02  0.1157643E+00
          2   -1    0    0  501    0  0.00000000000E+00  0.00000000000E+00  0.21695935424E+03  0.21695935425E+03  0.25500000000E-02 0.  1.
         -2   -1    0    0    0  501 -0.00000000000E+00 -0.00000000000E+00 -0.41997287578E+02  0.41997287656E+02  0.25500000000E-02 0. -1.
    5000001    1    1    2    0    0 -0.50354610568E+02  0.78443767360E+01  0.54657025405E+02  0.10730103205E+03  0.77000000000E+02 0.  0.
   -5000001    1    1    2    0    0  0.50354610568E+02 -0.78443767360E+01  0.12030504126E+03  0.15165560986E+03  0.77000000000E+02 0.  0.
<mgrwt>
<rscale>  0 0.19091050E+03</rscale>
<asrwt>0</asrwt>
<pdfrwt beam="1">  1        2 0.33378362E-01 0.19091050E+03</pdfrwt>
<pdfrwt beam="2">  1       -2 0.64611211E-02 0.19091050E+03</pdfrwt>
<totfact> 0.19765513E+04</totfact>
</mgrwt>
</event>
<event>
 4    1  0.5980424E-004  0.2508889E+03  0.7818608E-02  0.1112744E+00
          2   -1    0    0  501    0  0.00000000000E+00  0.00000000000E+00  0.23829752768E+03  0.23829752770E+03  0.25500000000E-02 0.  1.
         -2   -1    0    0    0  501 -0.00000000000E+00 -0.00000000000E+00 -0.66036415631E+02  0.66036415681E+02  0.25500000000E-02 0. -1.
    5000001    1    1    2    0    0  0.30054355602E+02  0.58288597055E+02  0.17614377666E+03  0.20311685034E+03  0.77000000000E+02 0.  0.
   -5000001    1    1    2    0    0 -0.30054355602E+02 -0.58288597055E+02 -0.38826646111E+01  0.10121709303E+03  0.77000000000E+02 0.  0.
<mgrwt>
<rscale>  0 0.25088894E+03</rscale>
<asrwt>0</asrwt>
<pdfrwt beam="1">  1        2 0.36661158E-01 0.25088894E+03</pdfrwt>
<pdfrwt beam="2">  1       -2 0.10159449E-01 0.25088894E+03</pdfrwt>
<totfact> 0.89675277E+03</totfact>
</mgrwt>
</event>
<event>
 4    1  0.5980424E-004  0.2331605E+03  0.7818608E-02  0.1124435E+00
          2   -1    0    0  501    0  0.00000000000E+00  0.00000000000E+00  0.46632295969E+02  0.46632296039E+02  0.25500000000E-02 0.  1.
         -2   -1    0    0    0  501 -0.00000000000E+00 -0.00000000000E+00 -0.29144931474E+03  0.29144931475E+03  0.25500000000E-02 0. -1.
    5000001    1    1    2    0    0 -0.77458434378E+02  0.34535018867E+02 -0.90990948215E+02  0.14629022265E+03  0.77000000000E+02 0.  0.
   -5000001    1    1    2    0    0  0.77458434378E+02 -0.34535018867E+02 -0.15382607056E+03  0.19179138815E+03  0.77000000000E+02 0.  0.
<mgrwt>
<rscale>  0 0.23316047E+03</rscale>
<asrwt>0</asrwt>
<pdfrwt beam="1">  1        2 0.71741996E-02 0.23316047E+03</pdfrwt>
<pdfrwt beam="2">  1       -2 0.44838355E-01 0.23316047E+03</pdfrwt>
<totfact> 0.46014154E+03</totfact>
</mgrwt>
</event>
<event>
 4    1  0.5980424E-004  0.2822338E+03  0.7818608E-02  0.1094475E+00
         -2   -1    0    0    0  501 -0.00000000000E+00  0.00000000000E+00  0.60721100424E+02  0.60721100478E+02  0.25500000000E-02 0. -1.
          2   -1    0    0  501    0  0.00000000000E+00 -0.00000000000E+00 -0.32795805471E+03  0.32795805472E+03  0.25500000000E-02 0.  1.
    5000001    1    1    2    0    0 -0.42190404209E+02  0.10523543347E+03 -0.87315656122E+02  0.16250400139E+03  0.77000000000E+02 0.  0.
   -5000001    1    1    2    0    0  0.42190404209E+02 -0.10523543347E+03 -0.17992129816E+03  0.22617515380E+03  0.77000000000E+02 0.  0.
<mgrwt>
<rscale>  0 0.28223376E+03</rscale>
<asrwt>0</asrwt>
<pdfrwt beam="1">  1        2 0.50455084E-01 0.28223376E+03</pdfrwt>
<pdfrwt beam="2">  1       -2 0.93417080E-02 0.28223376E+03</pdfrwt>
<totfact> 0.72980939E+03</totfact>
</mgrwt>
</event>
<event>
 4    1  0.5980424E-004  0.4167426E+03  0.7818608E-02  0.1038132E+00
          2   -1    0    0  501    0  0.00000000000E+00  0.00000000000E+00  0.22341190438E+04  0.22341190438E+04  0.25500000000E-02 0.  1.
         -2   -1    0    0    0  501 -0.00000000000E+00 -0.00000000000E+00 -0.19434329559E+02  0.19434329726E+02  0.25500000000E-02 0. -1.
    5000001    1    1    2    0    0 -0.14009234664E+03  0.13345217473E+03  0.11471741212E+04  0.11659214437E+04  0.77000000000E+02 0.  0.
   -5000001    1    1    2    0    0  0.14009234664E+03 -0.13345217473E+03  0.10675105930E+04  0.10876319298E+04  0.77000000000E+02 0.  0.
<mgrwt>
<rscale>  0 0.41674264E+03</rscale>
<asrwt>0</asrwt>
<pdfrwt beam="1">  1        2 0.34371044E+00 0.41674264E+03</pdfrwt>
<pdfrwt beam="2">  1       -2 0.29898984E-02 0.41674264E+03</pdfrwt>
<totfact> 0.23547184E+03</totfact>
</mgrwt>
</event>
<event>
 4    1  0.5980424E-004  0.2578885E+03  0.7818608E-02  0.1108419E+00
         -2   -1    0    0    0  501 -0.00000000000E+00  0.00000000000E+00  0.63076591219E+01  0.63076596374E+01  0.25500000000E-02 0. -1.
          2   -1    0    0  501    0  0.00000000000E+00 -0.00000000000E+00 -0.26359414393E+04  0.26359414393E+04  0.25500000000E-02 0.  1.
    5000001    1    1    2    0    0  0.49006696586E+01 -0.10264051793E+03 -0.11942269828E+04  0.12011103941E+04  0.77000000000E+02 0.  0.
   -5000001    1    1    2    0    0 -0.49006696586E+01  0.10264051793E+03 -0.14354067974E+04  0.14411387048E+04  0.77000000000E+02 0.  0.
<mgrwt>
<rscale>  0 0.25788851E+03</rscale>
<asrwt>0</asrwt>
<pdfrwt beam="1">  1        2 0.40552857E+00 0.25788851E+03</pdfrwt>
<pdfrwt beam="2">  1       -2 0.97041124E-03 0.25788851E+03</pdfrwt>
<totfact> 0.75130912E+03</totfact>
</mgrwt>
</event>
<event>
 4    1  0.5980424E-004  0.2188913E+03  0.7818608E-02  0.1134712E+00
          2   -1    0    0  501    0  0.00000000000E+00  0.00000000000E+00  0.13455822213E+04  0.13455822213E+04  0.25500000000E-02 0.  1.
         -2   -1    0    0    0  501 -0.00000000000E+00 -0.00000000000E+00 -0.89019847728E+01  0.89019851380E+01  0.25500000000E-02 0. -1.
    5000001    1    1    2    0    0 -0.18317682781E+01 -0.37730188641E+02  0.24763230106E+03  0.26206426509E+03  0.77000000000E+02 0.  0.
   -5000001    1    1    2    0    0  0.18317682781E+01  0.37730188641E+02  0.10890479354E+04  0.10924199413E+04  0.77000000000E+02 0.  0.
<mgrwt>
<rscale>  0 0.21889132E+03</rscale>
<asrwt>0</asrwt>
<pdfrwt beam="1">  1        2 0.20701283E+00 0.21889132E+03</pdfrwt>
<pdfrwt beam="2">  1       -2 0.13695350E-02 0.21889132E+03</pdfrwt>
<totfact> 0.22053060E+04</totfact>
</mgrwt>
</event>
<event>
 4    1  0.5980424E-004  0.2057542E+03  0.7818608E-02  0.1144973E+00
          2   -1    0    0  501    0  0.00000000000E+00  0.00000000000E+00  0.12717997779E+04  0.12717997779E+04  0.25500000000E-02 0.  1.
         -2   -1    0    0    0  501 -0.00000000000E+00 -0.00000000000E+00 -0.83218295822E+01  0.83218299729E+01  0.25500000000E-02 0. -1.
    5000001    1    1    2    0    0 -0.24272488262E+02 -0.44588081649E+02  0.91531387836E+03  0.91994877392E+03  0.77000000000E+02 0.  0.
   -5000001    1    1    2    0    0  0.24272488262E+02  0.44588081649E+02  0.34816406991E+03  0.36017283392E+03  0.77000000000E+02 0.  0.
<mgrwt>
<rscale>  0 0.20575423E+03</rscale>
<asrwt>0</asrwt>
<pdfrwt beam="1">  1        2 0.19566142E+00 0.20575423E+03</pdfrwt>
<pdfrwt beam="2">  1       -2 0.12802821E-02 0.20575423E+03</pdfrwt>
<totfact> 0.26603382E+04</totfact>
</mgrwt>
</event>
<event>
 4    1  0.5980424E-004  0.2795607E+03  0.7818608E-02  0.1095929E+00
         -2   -1    0    0    0  501 -0.00000000000E+00  0.00000000000E+00  0.50288626413E+02  0.50288626478E+02  0.25500000000E-02 0. -1.
          2   -1    0    0  501    0  0.00000000000E+00 -0.00000000000E+00 -0.38852821308E+03  0.38852821309E+03  0.25500000000E-02 0.  1.
    5000001    1    1    2    0    0 -0.11595621201E+03  0.17064755699E+01 -0.18902393297E+03  0.23475051096E+03  0.77000000000E+02 0.  0.
   -5000001    1    1    2    0    0  0.11595621201E+03 -0.17064755699E+01 -0.14921565370E+03  0.20406632860E+03  0.77000000000E+02 0.  0.
<mgrwt>
<rscale>  0 0.27956073E+03</rscale>
<asrwt>0</asrwt>
<pdfrwt beam="1">  1        2 0.59773569E-01 0.27956073E+03</pdfrwt>
<pdfrwt beam="2">  1       -2 0.77367120E-02 0.27956073E+03</pdfrwt>
<totfact> 0.81664392E+03</totfact>
</mgrwt>
</event>
<event>
 4    1  0.5980424E-004  0.2371719E+03  0.7818608E-02  0.1121691E+00
         -2   -1    0    0    0  501 -0.00000000000E+00  0.00000000000E+00  0.25523914832E+03  0.25523914833E+03  0.25500000000E-02 0. -1.
          2   -1    0    0  501    0  0.00000000000E+00 -0.00000000000E+00 -0.55095908009E+02  0.55095908068E+02  0.25500000000E-02 0.  1.
    5000001    1    1    2    0    0 -0.74630403799E+02  0.43396683297E+02  0.65933963118E+02  0.13315125529E+03  0.77000000000E+02 0.  0.
   -5000001    1    1    2    0    0  0.74630403799E+02 -0.43396683297E+02  0.13420927719E+03  0.17718380111E+03  0.77000000000E+02 0.  0.
<mgrwt>
<rscale>  0 0.23717194E+03</rscale>
<asrwt>0</asrwt>
<pdfrwt beam="1">  1        2 0.84762936E-02 0.23717194E+03</pdfrwt>
<pdfrwt beam="2">  1       -2 0.39267561E-01 0.23717194E+03</pdfrwt>
<totfact> 0.48083307E+03</totfact>
</mgrwt>
</event>
<event>
 4    1  0.5980424E-004  0.2881543E+03  0.7818608E-02  0.1091317E+00
          2   -1    0    0  501    0  0.00000000000E+00  0.00000000000E+00  0.25869341380E+03  0.25869341382E+03  0.25500000000E-02 0.  1.
         -2   -1    0    0    0  501 -0.00000000000E+00 -0.00000000000E+00 -0.80242558328E+02  0.80242558368E+02  0.25500000000E-02 0. -1.
    5000001    1    1    2    0    0  0.11340938459E+03  0.43912949586E+02  0.81862400439E+02  0.16559132906E+03  0.77000000000E+02 0.  0.
   -5000001    1    1    2    0    0 -0.11340938459E+03 -0.43912949586E+02  0.96588455037E+02  0.17334464313E+03  0.77000000000E+02 0.  0.
<mgrwt>
<rscale>  0 0.28815427E+03</rscale>
<asrwt>0</asrwt>
<pdfrwt beam="1">  1        2 0.39798986E-01 0.28815427E+03</pdfrwt>
<pdfrwt beam="2">  1       -2 0.12345009E-01 0.28815427E+03</pdfrwt>
<totfact> 0.60356279E+03</totfact>
</mgrwt>
</event>
<event>
 4    1  0.5980424E-004  0.2161151E+03  0.7818608E-02  0.1136813E+00
         -2   -1    0    0    0  501 -0.00000000000E+00  0.00000000000E+00  0.27497983168E+03  0.27497983170E+03  0.25500000000E-02 0. -1.
          2   -1    0    0  501    0  0.00000000000E+00 -0.00000000000E+00 -0.42462868651E+02  0.42462868727E+02  0.25500000000E-02 0.  1.
    5000001    1    1    2    0    0  0.73351914695E+02  0.29803717326E+00  0.14439165776E+03  0.17932803196E+03  0.77000000000E+02 0.  0.
   -5000001    1    1    2    0    0 -0.73351914695E+02 -0.29803717326E+00  0.88125305277E+02  0.13811466847E+03  0.77000000000E+02 0.  0.
<mgrwt>
<rscale>  0 0.21611508E+03</rscale>
<asrwt>0</asrwt>
<pdfrwt beam="1">  1        2 0.65327492E-02 0.21611508E+03</pdfrwt>
<pdfrwt beam="2">  1       -2 0.42304588E-01 0.21611508E+03</pdfrwt>
<totfact> 0.57860670E+03</totfact>
</mgrwt>
</event>
<event>
 4    1  0.5980424E-004  0.6089139E+03  0.7818608E-02  0.9887083E-01
          2   -1    0    0  501    0  0.00000000000E+00  0.00000000000E+00  0.33881581376E+03  0.33881581377E+03  0.25500000000E-02 0.  1.
         -2   -1    0    0    0  501 -0.00000000000E+00 -0.00000000000E+00 -0.27358241307E+03  0.27358241308E+03  0.25500000000E-02 0. -1.
    5000001    1    1    2    0    0  0.85246735476E+02 -0.28082519037E+03  0.72682234488E+01  0.30349896297E+03  0.77000000000E+02 0.  0.
   -5000001    1    1    2    0    0 -0.85246735476E+02  0.28082519037E+03  0.57965177246E+02  0.30889926388E+03  0.77000000000E+02 0.  0.
<mgrwt>
<rscale>  0 0.60891394E+03</rscale>
<asrwt>0</asrwt>
<pdfrwt beam="1">  1        2 0.52125510E-01 0.60891394E+03</pdfrwt>
<pdfrwt beam="2">  1       -2 0.42089602E-01 0.60891394E+03</pdfrwt>
<totfact> 0.51682657E+02</totfact>
</mgrwt>
</event>
<event>
 4    1  0.5980424E-004  0.3843517E+03  0.7818608E-02  0.1049337E+00
         -2   -1    0    0    0  501 -0.00000000000E+00  0.00000000000E+00  0.12144822196E+04  0.12144822196E+04  0.25500000000E-02 0. -1.
          2   -1    0    0  501    0  0.00000000000E+00 -0.00000000000E+00 -0.30409298144E+02  0.30409298251E+02  0.25500000000E-02 0.  1.
    5000001    1    1    2    0    0  0.12613213756E+03  0.71474763758E+02  0.26839217920E+03  0.31461296833E+03  0.77000000000E+02 0.  0.
   -5000001    1    1    2    0    0 -0.12613213756E+03 -0.71474763758E+02  0.91568074222E+03  0.93027854950E+03  0.77000000000E+02 0.  0.
<mgrwt>
<rscale>  0 0.38435167E+03</rscale>
<asrwt>0</asrwt>
<pdfrwt beam="1">  1        2 0.46783541E-02 0.38435167E+03</pdfrwt>
<pdfrwt beam="2">  1       -2 0.18684340E+00 0.38435167E+03</pdfrwt>
<totfact> 0.30141713E+02</totfact>
</mgrwt>
</event>
<event>
 4    1  0.5980424E-004  0.3474940E+03  0.7818608E-02  0.1063648E+00
          2   -1    0    0  501    0  0.00000000000E+00  0.00000000000E+00  0.21969474355E+02  0.21969474503E+02  0.25500000000E-02 0.  1.
         -2   -1    0    0    0  501 -0.00000000000E+00 -0.00000000000E+00 -0.13740894600E+04  0.13740894600E+04  0.25500000000E-02 0. -1.
    5000001    1    1    2    0    0 -0.47960300017E+02 -0.10774509093E+03 -0.26734272130E+03  0.30217598453E+03  0.77000000000E+02 0.  0.
   -5000001    1    1    2    0    0  0.47960300017E+02  0.10774509093E+03 -0.10847772644E+04  0.10938829500E+04  0.77000000000E+02 0.  0.
<mgrwt>
<rscale>  0 0.34749402E+03</rscale>
<asrwt>0</asrwt>
<pdfrwt beam="1">  1        2 0.33799202E-02 0.34749402E+03</pdfrwt>
<pdfrwt beam="2">  1       -2 0.21139831E+00 0.34749402E+03</pdfrwt>
<totfact> 0.32611454E+02</totfact>
</mgrwt>
</event>
<event>
 4    1  0.5980424E-004  0.3462732E+03  0.7818608E-02  0.1064155E+00
          2   -1    0    0  501    0  0.00000000000E+00  0.00000000000E+00  0.77175270921E+03  0.77175270922E+03  0.25500000000E-02 0.  1.
         -2   -1    0    0    0  501 -0.00000000000E+00 -0.00000000000E+00 -0.38841831827E+02  0.38841831911E+02  0.25500000000E-02 0. -1.
    5000001    1    1    2    0    0  0.36418963326E+02 -0.11490551072E+03  0.13807962608E+03  0.19880794858E+03  0.77000000000E+02 0.  0.
   -5000001    1    1    2    0    0 -0.36418963326E+02  0.11490551072E+03  0.59483125131E+03  0.61178659254E+03  0.77000000000E+02 0.  0.
<mgrwt>
<rscale>  0 0.34627324E+03</rscale>
<asrwt>0</asrwt>
<pdfrwt beam="1">  1        2 0.11873117E+00 0.34627324E+03</pdfrwt>
<pdfrwt beam="2">  1       -2 0.59756671E-02 0.34627324E+03</pdfrwt>
<totfact> 0.55537400E+03</totfact>
</mgrwt>
</event>
<event>
 4    1  0.5980424E-004  0.2332501E+03  0.7818608E-02  0.1124373E+00
          2   -1    0    0  501    0  0.00000000000E+00  0.00000000000E+00  0.17050790367E+04  0.17050790367E+04  0.25500000000E-02 0.  1.
         -2   -1    0    0    0  501 -0.00000000000E+00 -0.00000000000E+00 -0.79769903314E+01  0.79769907389E+01  0.25500000000E-02 0. -1.
    5000001    1    1    2    0    0 -0.35578819441E+02  0.74103732365E+02  0.62637154775E+03  0.63641773339E+03  0.77000000000E+02 0.  0.
   -5000001    1    1    2    0    0  0.35578819441E+02 -0.74103732365E+02  0.10707304986E+04  0.10766382940E+04  0.77000000000E+02 0.  0.
<mgrwt>
<rscale>  0 0.23325007E+03</rscale>
<asrwt>0</asrwt>
<pdfrwt beam="1">  1        2 0.26231968E+00 0.23325007E+03</pdfrwt>
<pdfrwt beam="2">  1       -2 0.12272301E-02 0.23325007E+03</pdfrwt>
<totfact> 0.16703166E+04</totfact>
</mgrwt>
</event>
<event>
 4    1  0.5980424E-004  0.2387851E+03  0.7818608E-02  0.1120605E+00
          2   -1    0    0  501    0  0.00000000000E+00  0.00000000000E+00  0.36933948919E+03  0.36933948920E+03  0.25500000000E-02 0.  1.
         -2   -1    0    0    0  501 -0.00000000000E+00 -0.00000000000E+00 -0.38594785921E+02  0.38594786005E+02  0.25500000000E-02 0. -1.
    5000001    1    1    2    0    0  0.14032656373E+01  0.78794875605E+02  0.86806136649E+02  0.14026726965E+03  0.77000000000E+02 0.  0.
   -5000001    1    1    2    0    0 -0.14032656373E+01 -0.78794875605E+02  0.24393856662E+03  0.26766700555E+03  0.77000000000E+02 0.  0.
<mgrwt>
<rscale>  0 0.23878508E+03</rscale>
<asrwt>0</asrwt>
<pdfrwt beam="1">  1        2 0.56821460E-01 0.23878508E+03</pdfrwt>
<pdfrwt beam="2">  1       -2 0.59376594E-02 0.23878508E+03</pdfrwt>
<totfact> 0.12889975E+04</totfact>
</mgrwt>
</event>
<event>
 4    1  0.5980424E-004  0.2197515E+03  0.7818608E-02  0.1134068E+00
          2   -1    0    0  501    0  0.00000000000E+00  0.00000000000E+00  0.16062567393E+03  0.16062567395E+03  0.25500000000E-02 0.  1.
         -2   -1    0    0    0  501 -0.00000000000E+00 -0.00000000000E+00 -0.75160370497E+02  0.75160370540E+02  0.25500000000E-02 0. -1.
    5000001    1    1    2    0    0  0.20517989179E+02 -0.75040984916E+02  0.32466438139E+02  0.11417183060E+03  0.77000000000E+02 0.  0.
   -5000001    1    1    2    0    0 -0.20517989179E+02  0.75040984916E+02  0.52998865289E+02  0.12161421389E+03  0.77000000000E+02 0.  0.
<mgrwt>
<rscale>  0 0.21975154E+03</rscale>
<asrwt>0</asrwt>
<pdfrwt beam="1">  1        2 0.24711642E-01 0.21975154E+03</pdfrwt>
<pdfrwt beam="2">  1       -2 0.11563134E-01 0.21975154E+03</pdfrwt>
<totfact> 0.11158232E+04</totfact>
</mgrwt>
</event>
<event>
 4    1  0.5980424E-004  0.2638446E+03  0.7818608E-02  0.1104855E+00
          2   -1    0    0  501    0  0.00000000000E+00  0.00000000000E+00  0.17252011805E+04  0.17252011805E+04  0.25500000000E-02 0.  1.
         -2   -1    0    0    0  501 -0.00000000000E+00 -0.00000000000E+00 -0.10087804583E+02  0.10087804905E+02  0.25500000000E-02 0. -1.
    5000001    1    1    2    0    0  0.10700661540E+03  0.41426374645E+01  0.87485224457E+03  0.88473895982E+03  0.77000000000E+02 0.  0.
   -5000001    1    1    2    0    0 -0.10700661540E+03 -0.41426374645E+01  0.84026113135E+03  0.85055002560E+03  0.77000000000E+02 0.  0.
<mgrwt>
<rscale>  0 0.26384460E+03</rscale>
<asrwt>0</asrwt>
<pdfrwt beam="1">  1        2 0.26541549E+00 0.26384460E+03</pdfrwt>
<pdfrwt beam="2">  1       -2 0.15519704E-02 0.26384460E+03</pdfrwt>
<totfact> 0.11617896E+04</totfact>
</mgrwt>
</event>
<event>
 4    1  0.5980424E-004  0.2693652E+03  0.7818608E-02  0.1101643E+00
          2   -1    0    0  501    0  0.00000000000E+00  0.00000000000E+00  0.47251670500E+02  0.47251670568E+02  0.25500000000E-02 0.  1.
         -2   -1    0    0    0  501 -0.00000000000E+00 -0.00000000000E+00 -0.38388921276E+03  0.38388921277E+03  0.25500000000E-02 0. -1.
    5000001    1    1    2    0    0 -0.35925420623E+02  0.95435522683E+02 -0.10018905038E+03  0.16237432264E+03  0.77000000000E+02 0.  0.
   -5000001    1    1    2    0    0  0.35925420623E+02 -0.95435522683E+02 -0.23644849188E+03  0.26876656070E+03  0.77000000000E+02 0.  0.
<mgrwt>
<rscale>  0 0.26936523E+03</rscale>
<asrwt>0</asrwt>
<pdfrwt beam="1">  1        2 0.72694880E-02 0.26936523E+03</pdfrwt>
<pdfrwt beam="2">  1       -2 0.59059877E-01 0.26936523E+03</pdfrwt>
<totfact> 0.26183915E+03</totfact>
</mgrwt>
</event>
<event>
 4    1  0.5980424E-004  0.1831711E+03  0.7818608E-02  0.1164769E+00
         -2   -1    0    0    0  501 -0.00000000000E+00  0.00000000000E+00  0.31558475603E+02  0.31558475706E+02  0.25500000000E-02 0. -1.
          2   -1    0    0  501    0  0.00000000000E+00 -0.00000000000E+00 -0.26578940448E+03  0.26578940449E+03  0.25500000000E-02 0.  1.
    5000001    1    1    2    0    0 -0.15832595069E+02  0.45366517681E+02 -0.97226042146E+02  0.13300637302E+03  0.77000000000E+02 0.  0.
   -5000001    1    1    2    0    0  0.15832595069E+02 -0.45366517681E+02 -0.13700488673E+03  0.16434150718E+03  0.77000000000E+02 0.  0.
<mgrwt>
<rscale>  0 0.18317105E+03</rscale>
<asrwt>0</asrwt>
<pdfrwt beam="1">  1        2 0.40890676E-01 0.18317105E+03</pdfrwt>
<pdfrwt beam="2">  1       -2 0.48551503E-02 0.18317105E+03</pdfrwt>
<totfact> 0.24445463E+04</totfact>
</mgrwt>
</event>
<event>
 4    1  0.5980424E-004  0.2438069E+03  0.7818608E-02  0.1117282E+00
         -2   -1    0    0    0  501 -0.00000000000E+00  0.00000000000E+00  0.89664936419E+01  0.89664940045E+01  0.25500000000E-02 0. -1.
          2   -1    0    0  501    0  0.00000000000E+00 -0.00000000000E+00 -0.16573319923E+04  0.16573319923E+04  0.25500000000E-02 0.  1.
    5000001    1    1    2    0    0 -0.85234463999E+02  0.31683415096E+02 -0.10001235877E+04  0.10071965763E+04  0.77000000000E+02 0.  0.
   -5000001    1    1    2    0    0  0.85234463999E+02 -0.31683415096E+02 -0.64824191092E+03  0.65910190997E+03  0.77000000000E+02 0.  0.
<mgrwt>
<rscale>  0 0.24380695E+03</rscale>
<asrwt>0</asrwt>
<pdfrwt beam="1">  1        2 0.25497391E+00 0.24380695E+03</pdfrwt>
<pdfrwt beam="2">  1       -2 0.13794619E-02 0.24380695E+03</pdfrwt>
<totfact> 0.14948826E+04</totfact>
</mgrwt>
</event>
<event>
 4    1  0.5980424E-004  0.1633597E+03  0.7818608E-02  0.1184955E+00
          2   -1    0    0  501    0  0.00000000000E+00  0.00000000000E+00  0.63993612526E+03  0.63993612527E+03  0.25500000000E-02 0.  1.
         -2   -1    0    0    0  501 -0.00000000000E+00 -0.00000000000E+00 -0.10425412761E+02  0.10425413073E+02  0.25500000000E-02 0. -1.
    5000001    1    1    2    0    0  0.24202713021E+02 -0.12234891727E+02  0.32538920203E+03  0.33547369001E+03  0.77000000000E+02 0.  0.
   -5000001    1    1    2    0    0 -0.24202713021E+02  0.12234891727E+02  0.30412151047E+03  0.31488784833E+03  0.77000000000E+02 0.  0.
<mgrwt>
<rscale>  0 0.16335971E+03</rscale>
<asrwt>0</asrwt>
<pdfrwt beam="1">  1        2 0.98451724E-01 0.16335971E+03</pdfrwt>
<pdfrwt beam="2">  1       -2 0.16039095E-02 0.16335971E+03</pdfrwt>
<totfact> 0.47481791E+04</totfact>
</mgrwt>
</event>
<event>
 4    1  0.5980424E-004  0.2157813E+03  0.7818608E-02  0.1137068E+00
          2   -1    0    0  501    0  0.00000000000E+00  0.00000000000E+00  0.39572487404E+03  0.39572487405E+03  0.25500000000E-02 0.  1.
         -2   -1    0    0    0  501 -0.00000000000E+00 -0.00000000000E+00 -0.29415353524E+02  0.29415353634E+02  0.25500000000E-02 0. -1.
    5000001    1    1    2    0    0  0.61837995256E+02 -0.70103882159E+01  0.26762955540E+03  0.28535532608E+03  0.77000000000E+02 0.  0.
   -5000001    1    1    2    0    0 -0.61837995256E+02  0.70103882159E+01  0.98679965121E+02  0.13978490160E+03  0.77000000000E+02 0.  0.
<mgrwt>
<rscale>  0 0.21578125E+03</rscale>
<asrwt>0</asrwt>
<pdfrwt beam="1">  1        2 0.60880748E-01 0.21578125E+03</pdfrwt>
<pdfrwt beam="2">  1       -2 0.45254391E-02 0.21578125E+03</pdfrwt>
<totfact> 0.17961359E+04</totfact>
</mgrwt>
</event>
<event>
 4    1  0.5980424E-004  0.2460274E+03  0.7818608E-02  0.1115841E+00
          2   -1    0    0  501    0  0.00000000000E+00  0.00000000000E+00  0.21842752967E+04  0.21842752967E+04  0.25500000000E-02 0.  1.
         -2   -1    0    0    0  501 -0.00000000000E+00 -0.00000000000E+00 -0.69278702116E+01  0.69278706809E+01  0.25500000000E-02 0. -1.
    5000001    1    1    2    0    0  0.87269480069E+02 -0.31892895454E+02  0.87598985522E+03  0.88426259979E+03  0.77000000000E+02 0.  0.
   -5000001    1    1    2    0    0 -0.87269480069E+02  0.31892895454E+02  0.13013575713E+04  0.13069405676E+04  0.77000000000E+02 0.  0.
<mgrwt>
<rscale>  0 0.24602745E+03</rscale>
<asrwt>0</asrwt>
<pdfrwt beam="1">  1        2 0.33604285E+00 0.24602745E+03</pdfrwt>
<pdfrwt beam="2">  1       -2 0.10658247E-02 0.24602745E+03</pdfrwt>
<totfact> 0.11512666E+04</totfact>
</mgrwt>
</event>
<event>
 4    1  0.5980424E-004  0.1812571E+03  0.7818608E-02  0.1166592E+00
          2   -1    0    0  501    0  0.00000000000E+00  0.00000000000E+00  0.29556418322E+04  0.29556418322E+04  0.25500000000E-02 0.  1.
         -2   -1    0    0    0  501 -0.00000000000E+00 -0.00000000000E+00 -0.27789347565E+01  0.27789359265E+01  0.25500000000E-02 0. -1.
    5000001    1    1    2    0    0  0.25400412350E+02  0.37402125718E+02  0.17295162171E+04  0.17318196918E+04  0.77000000000E+02 0.  0.
   -5000001    1    1    2    0    0 -0.25400412350E+02 -0.37402125718E+02  0.12233466804E+04  0.12266010763E+04  0.77000000000E+02 0.  0.
<mgrwt>
<rscale>  0 0.18125714E+03</rscale>
<asrwt>0</asrwt>
<pdfrwt beam="1">  1        2 0.45471677E+00 0.18125714E+03</pdfrwt>
<pdfrwt beam="2">  1       -2 0.42752603E-03 0.18125714E+03</pdfrwt>
<totfact> 0.16007442E+04</totfact>
</mgrwt>
</event>
<event>
 4    1  0.5980424E-004  0.1841605E+03  0.7818608E-02  0.1163836E+00
          2   -1    0    0  501    0  0.00000000000E+00  0.00000000000E+00  0.21212400793E+02  0.21212400947E+02  0.25500000000E-02 0.  1.
         -2   -1    0    0    0  501 -0.00000000000E+00 -0.00000000000E+00 -0.39970849709E+03  0.39970849710E+03  0.25500000000E-02 0. -1.
    5000001    1    1    2    0    0 -0.21412415203E+01  0.35448378433E+02 -0.10720086061E+03  0.13668283346E+03  0.77000000000E+02 0.  0.
   -5000001    1    1    2    0    0  0.21412415203E+01 -0.35448378433E+02 -0.27129523569E+03  0.28423806458E+03  0.77000000000E+02 0.  0.
<mgrwt>
<rscale>  0 0.18416055E+03</rscale>
<asrwt>0</asrwt>
<pdfrwt beam="1">  1        2 0.32634466E-02 0.18416055E+03</pdfrwt>
<pdfrwt beam="2">  1       -2 0.61493610E-01 0.18416055E+03</pdfrwt>
<totfact> 0.67882169E+03</totfact>
</mgrwt>
</event>
<event>
 4    1  0.5980424E-004  0.6708824E+03  0.7818608E-02  0.9768365E-01
         -2   -1    0    0    0  501 -0.00000000000E+00  0.00000000000E+00  0.53271515411E+02  0.53271515472E+02  0.25500000000E-02 0. -1.
          2   -1    0    0  501    0  0.00000000000E+00 -0.00000000000E+00 -0.21122134449E+04  0.21122134449E+04  0.25500000000E-02 0.  1.
    5000001    1    1    2    0    0 -0.25806248552E+03  0.36108399951E+02 -0.39455254704E+03  0.47906239192E+03  0.77000000000E+02 0.  0.
   -5000001    1    1    2    0    0  0.25806248552E+03 -0.36108399951E+02 -0.16643893824E+04  0.16864225684E+04  0.77000000000E+02 0.  0.
<mgrwt>
<rscale>  0 0.67088244E+03</rscale>
<asrwt>0</asrwt>
<pdfrwt beam="1">  1        2 0.32495585E+00 0.67088244E+03</pdfrwt>
<pdfrwt beam="2">  1       -2 0.81956194E-02 0.67088244E+03</pdfrwt>
<totfact> 0.56530893E+02</totfact>
</mgrwt>
</event>
<event>
 4    1  0.5980424E-004  0.2056897E+03  0.7818608E-02  0.1145026E+00
         -2   -1    0    0    0  501 -0.00000000000E+00  0.00000000000E+00  0.40998931906E+02  0.40998931985E+02  0.25500000000E-02 0. -1.
          2   -1    0    0  501    0  0.00000000000E+00 -0.00000000000E+00 -0.25798376745E+03  0.25798376746E+03  0.25500000000E-02 0.  1.
    5000001    1    1    2    0    0 -0.48212340525E+02 -0.24331442004E+02 -0.48005890130E+02  0.10559362829E+03  0.77000000000E+02 0.  0.
   -5000001    1    1    2    0    0  0.48212340525E+02  0.24331442004E+02 -0.16897894541E+03  0.19338907115E+03  0.77000000000E+02 0.  0.
<mgrwt>
<rscale>  0 0.20568966E+03</rscale>
<asrwt>0</asrwt>
<pdfrwt beam="1">  1        2 0.39689809E-01 0.20568966E+03</pdfrwt>
<pdfrwt beam="2">  1       -2 0.63075281E-02 0.20568966E+03</pdfrwt>
<totfact> 0.17109375E+04</totfact>
</mgrwt>
</event>
<event>
 4    1  0.5980424E-004  0.3258097E+03  0.7818608E-02  0.1073006E+00
          2   -1    0    0  501    0  0.00000000000E+00  0.00000000000E+00  0.81423858502E+03  0.81423858502E+03  0.25500000000E-02 0.  1.
         -2   -1    0    0    0  501 -0.00000000000E+00 -0.00000000000E+00 -0.32592400504E+02  0.32592400604E+02  0.25500000000E-02 0. -1.
    5000001    1    1    2    0    0  0.62489848050E+01  0.13421022411E+03  0.25937771698E+03  0.30208812313E+03  0.77000000000E+02 0.  0.
   -5000001    1    1    2    0    0 -0.62489848050E+01 -0.13421022411E+03  0.52226846753E+03  0.54474286250E+03  0.77000000000E+02 0.  0.
<mgrwt>
<rscale>  0 0.32580970E+03</rscale>
<asrwt>0</asrwt>
<pdfrwt beam="1">  1        2 0.12526746E+00 0.32580970E+03</pdfrwt>
<pdfrwt beam="2">  1       -2 0.50142161E-02 0.32580970E+03</pdfrwt>
<totfact> 0.67796394E+03</totfact>
</mgrwt>
</event>
<event>
 4    1  0.5980424E-004  0.1935530E+03  0.7818608E-02  0.1155295E+00
         -2   -1    0    0    0  501 -0.00000000000E+00  0.00000000000E+00  0.34212447291E+02  0.34212447386E+02  0.25500000000E-02 0. -1.
          2   -1    0    0  501    0  0.00000000000E+00 -0.00000000000E+00 -0.27375102387E+03  0.27375102388E+03  0.25500000000E-02 0.  1.
    5000001    1    1    2    0    0 -0.26976647635E+02 -0.51863147210E+02 -0.11280341450E+03  0.14856357521E+03  0.77000000000E+02 0.  0.
   -5000001    1    1    2    0    0  0.26976647635E+02  0.51863147210E+02 -0.12673516208E+03  0.15939989606E+03  0.77000000000E+02 0.  0.
<mgrwt>
<rscale>  0 0.19355302E+03</rscale>
<asrwt>0</asrwt>
<pdfrwt beam="1">  1        2 0.42115541E-01 0.19355302E+03</pdfrwt>
<pdfrwt beam="2">  1       -2 0.52634536E-02 0.19355302E+03</pdfrwt>
<totfact> 0.21059603E+04</totfact>
</mgrwt>
</event>
<event>
 4    1  0.5980424E-004  0.2784969E+03  0.7818608E-02  0.1096513E+00
         -2   -1    0    0    0  501 -0.00000000000E+00  0.00000000000E+00  0.49344283246E+02  0.49344283311E+02  0.25500000000E-02 0. -1.
          2   -1    0    0  501    0  0.00000000000E+00 -0.00000000000E+00 -0.39295585703E+03  0.39295585704E+03  0.25500000000E-02 0.  1.
    5000001    1    1    2    0    0 -0.84437622933E+02 -0.78405212227E+02 -0.15026072408E+03  0.20441226644E+03  0.77000000000E+02 0.  0.
   -5000001    1    1    2    0    0  0.84437622933E+02  0.78405212227E+02 -0.19335084970E+03  0.23788787390E+03  0.77000000000E+02 0.  0.
<mgrwt>
<rscale>  0 0.27849686E+03</rscale>
<asrwt>0</asrwt>
<pdfrwt beam="1">  1        2 0.60454745E-01 0.27849686E+03</pdfrwt>
<pdfrwt beam="2">  1       -2 0.75914284E-02 0.27849686E+03</pdfrwt>
<totfact> 0.83072616E+03</totfact>
</mgrwt>
</event>
<event>
 4    1  0.5980424E-004  0.7322357E+03  0.7818608E-02  0.9663639E-01
         -2   -1    0    0    0  501 -0.00000000000E+00  0.00000000000E+00  0.90092807962E+02  0.90092807998E+02  0.25500000000E-02 0. -1.
          2   -1    0    0  501    0  0.00000000000E+00 -0.00000000000E+00 -0.14878243278E+04  0.14878243278E+04  0.25500000000E-02 0.  1.
    5000001    1    1    2    0    0  0.19388758433E+03  0.17039000698E+03 -0.12332195826E+04  0.12622934242E+04  0.77000000000E+02 0.  0.
   -5000001    1    1    2    0    0 -0.19388758433E+03 -0.17039000698E+03 -0.16451193722E+03  0.31562371160E+03  0.77000000000E+02 0.  0.
<mgrwt>
<rscale>  0 0.73223568E+03</rscale>
<asrwt>0</asrwt>
<pdfrwt beam="1">  1        2 0.22889603E+00 0.73223568E+03</pdfrwt>
<pdfrwt beam="2">  1       -2 0.13860433E-01 0.73223568E+03</pdfrwt>
<totfact> 0.52299509E+02</totfact>
</mgrwt>
</event>
<event>
 4    1  0.5980424E-004  0.4041436E+03  0.7818608E-02  0.1042354E+00
          2   -1    0    0  501    0  0.00000000000E+00  0.00000000000E+00  0.27641203593E+03  0.27641203594E+03  0.25500000000E-02 0.  1.
         -2   -1    0    0    0  501 -0.00000000000E+00 -0.00000000000E+00 -0.14772516342E+03  0.14772516344E+03  0.25500000000E-02 0. -1.
    5000001    1    1    2    0    0 -0.14841338925E+03 -0.81307241831E+02 -0.18734756394E+02  0.18686196183E+03  0.77000000000E+02 0.  0.
   -5000001    1    1    2    0    0  0.14841338925E+03  0.81307241831E+02  0.14742162890E+03  0.23727523755E+03  0.77000000000E+02 0.  0.
<mgrwt>
<rscale>  0 0.40414360E+03</rscale>
<asrwt>0</asrwt>
<pdfrwt beam="1">  1        2 0.42524928E-01 0.40414360E+03</pdfrwt>
<pdfrwt beam="2">  1       -2 0.22726948E-01 0.40414360E+03</pdfrwt>
<totfact> 0.20246162E+03</totfact>
</mgrwt>
</event>
<event>
 4    1  0.5980424E-004  0.5086760E+03  0.7818608E-02  0.1011539E+00
         -2   -1    0    0    0  501 -0.00000000000E+00  0.00000000000E+00  0.11972540628E+03  0.11972540631E+03  0.25500000000E-02 0. -1.
          2   -1    0    0  501    0  0.00000000000E+00 -0.00000000000E+00 -0.54030144163E+03  0.54030144164E+03  0.25500000000E-02 0.  1.
    5000001    1    1    2    0    0 -0.95408581474E+02  0.20532667111E+03 -0.32263548316E+03  0.40160240821E+03  0.77000000000E+02 0.  0.
   -5000001    1    1    2    0    0  0.95408581474E+02 -0.20532667111E+03 -0.97940552187E+02  0.25842443973E+03  0.77000000000E+02 0.  0.
<mgrwt>
<rscale>  0 0.50867597E+03</rscale>
<asrwt>0</asrwt>
<pdfrwt beam="1">  1        2 0.83123298E-01 0.50867597E+03</pdfrwt>
<pdfrwt beam="2">  1       -2 0.18419294E-01 0.50867597E+03</pdfrwt>
<totfact> 0.13854598E+03</totfact>
</mgrwt>
</event>
<event>
 4    1  0.5980424E-004  0.2089410E+03  0.7818608E-02  0.1142407E+00
         -2   -1    0    0    0  501 -0.00000000000E+00  0.00000000000E+00  0.89835152803E+03  0.89835152803E+03  0.25500000000E-02 0. -1.
          2   -1    0    0  501    0  0.00000000000E+00 -0.00000000000E+00 -0.12149014631E+02  0.12149014898E+02  0.25500000000E-02 0.  1.
    5000001    1    1    2    0    0 -0.13642327762E+02  0.48282078721E+02  0.65957873373E+03  0.66595073258E+03  0.77000000000E+02 0.  0.
   -5000001    1    1    2    0    0  0.13642327762E+02 -0.48282078721E+02  0.22662377967E+03  0.24454981035E+03  0.77000000000E+02 0.  0.
<mgrwt>
<rscale>  0 0.20894101E+03</rscale>
<asrwt>0</asrwt>
<pdfrwt beam="1">  1        2 0.18690794E-02 0.20894101E+03</pdfrwt>
<pdfrwt beam="2">  1       -2 0.13820791E+00 0.20894101E+03</pdfrwt>
<totfact> 0.23178029E+03</totfact>
</mgrwt>
</event>
<event>
 4    1  0.5980424E-004  0.2547830E+03  0.7818608E-02  0.1110319E+00
          2   -1    0    0  501    0  0.00000000000E+00  0.00000000000E+00  0.15247103618E+04  0.15247103618E+04  0.25500000000E-02 0.  1.
         -2   -1    0    0    0  501 -0.00000000000E+00 -0.00000000000E+00 -0.10643721236E+02  0.10643721541E+02  0.25500000000E-02 0. -1.
    5000001    1    1    2    0    0  0.82600576503E+02  0.46703878862E+02  0.54013595289E+03  0.55378692215E+03  0.77000000000E+02 0.  0.
   -5000001    1    1    2    0    0 -0.82600576503E+02 -0.46703878862E+02  0.97393068764E+03  0.98156716116E+03  0.77000000000E+02 0.  0.
<mgrwt>
<rscale>  0 0.25478298E+03</rscale>
<asrwt>0</asrwt>
<pdfrwt beam="1">  1        2 0.23457079E+00 0.25478298E+03</pdfrwt>
<pdfrwt beam="2">  1       -2 0.16374958E-02 0.25478298E+03</pdfrwt>
<totfact> 0.13695754E+04</totfact>
</mgrwt>
</event>
<event>
 4    1  0.5980424E-004  0.2992651E+03  0.7818608E-02  0.1085609E+00
         -2   -1    0    0    0  501 -0.00000000000E+00  0.00000000000E+00  0.69641047089E+02  0.69641047135E+02  0.25500000000E-02 0. -1.
          2   -1    0    0  501    0  0.00000000000E+00 -0.00000000000E+00 -0.32150425742E+03  0.32150425743E+03  0.25500000000E-02 0.  1.
    5000001    1    1    2    0    0  0.87702097865E+02  0.92479427377E+02 -0.10668729171E+03  0.18318100521E+03  0.77000000000E+02 0.  0.
   -5000001    1    1    2    0    0 -0.87702097865E+02 -0.92479427377E+02 -0.14517591861E+03  0.20796429935E+03  0.77000000000E+02 0.  0.
<mgrwt>
<rscale>  0 0.29926505E+03</rscale>
<asrwt>0</asrwt>
<pdfrwt beam="1">  1        2 0.49462193E-01 0.29926505E+03</pdfrwt>
<pdfrwt beam="2">  1       -2 0.10714007E-01 0.29926505E+03</pdfrwt>
<totfact> 0.60061168E+03</totfact>
</mgrwt>
</event>
<event>
 4    1  0.5980424E-004  0.2869935E+03  0.7818608E-02  0.1091929E+00
          2   -1    0    0  501    0  0.00000000000E+00  0.00000000000E+00  0.15002370461E+04  0.15002370461E+04  0.25500000000E-02 0.  1.
         -2   -1    0    0    0  501 -0.00000000000E+00 -0.00000000000E+00 -0.13725379605E+02  0.13725379842E+02  0.25500000000E-02 0. -1.
    5000001    1    1    2    0    0 -0.85052959437E+02 -0.69606618331E+02  0.10113732392E+04  0.10202371862E+04  0.77000000000E+02 0.  0.
   -5000001    1    1    2    0    0  0.85052959437E+02  0.69606618331E+02  0.47513842730E+03  0.49372523971E+03  0.77000000000E+02 0.  0.
<mgrwt>
<rscale>  0 0.28699354E+03</rscale>
<asrwt>0</asrwt>
<pdfrwt beam="1">  1        2 0.23080560E+00 0.28699354E+03</pdfrwt>
<pdfrwt beam="2">  1       -2 0.21115978E-02 0.28699354E+03</pdfrwt>
<totfact> 0.97422827E+03</totfact>
</mgrwt>
</event>
<event>
 4    1  0.5980424E-004  0.2186693E+03  0.7818608E-02  0.1134879E+00
         -2   -1    0    0    0  501 -0.00000000000E+00  0.00000000000E+00  0.37742811581E+01  0.37742820195E+01  0.25500000000E-02 0. -1.
          2   -1    0    0  501    0  0.00000000000E+00 -0.00000000000E+00 -0.31672437979E+04  0.31672437979E+04  0.25500000000E-02 0.  1.
    5000001    1    1    2    0    0  0.74772864744E+02  0.90388750971E+01 -0.18539553708E+04  0.18570816351E+04  0.77000000000E+02 0.  0.
   -5000001    1    1    2    0    0 -0.74772864744E+02 -0.90388750971E+01 -0.13095141459E+04  0.13139364448E+04  0.77000000000E+02 0.  0.
<mgrwt>
<rscale>  0 0.21866934E+03</rscale>
<asrwt>0</asrwt>
<pdfrwt beam="1">  1        2 0.48726615E+00 0.21866934E+03</pdfrwt>
<pdfrwt beam="2">  1       -2 0.58066124E-03 0.21866934E+03</pdfrwt>
<totfact> 0.77496890E+03</totfact>
</mgrwt>
</event>
<event>
 4    1  0.5980424E-004  0.4354816E+03  0.7818608E-02  0.1032142E+00
         -2   -1    0    0    0  501 -0.00000000000E+00  0.00000000000E+00  0.27502562798E+02  0.27502562916E+02  0.25500000000E-02 0. -1.
          2   -1    0    0  501    0  0.00000000000E+00 -0.00000000000E+00 -0.17238780017E+04  0.17238780017E+04  0.25500000000E-02 0.  1.
    5000001    1    1    2    0    0  0.13722228736E+02 -0.19796954888E+03 -0.66380994291E+03  0.69710320768E+03  0.77000000000E+02 0.  0.
   -5000001    1    1    2    0    0 -0.13722228736E+02  0.19796954888E+03 -0.10325654960E+04  0.10542773569E+04  0.77000000000E+02 0.  0.
<mgrwt>
<rscale>  0 0.43548163E+03</rscale>
<asrwt>0</asrwt>
<pdfrwt beam="1">  1        2 0.26521192E+00 0.43548163E+03</pdfrwt>
<pdfrwt beam="2">  1       -2 0.42311649E-02 0.43548163E+03</pdfrwt>
<totfact> 0.26085446E+03</totfact>
</mgrwt>
</event>
<event>
 4    1  0.5980424E-004  0.2694210E+03  0.7818608E-02  0.1101611E+00
          2   -1    0    0  501    0  0.00000000000E+00  0.00000000000E+00  0.24830677190E+04  0.24830677190E+04  0.25500000000E-02 0.  1.
         -2   -1    0    0    0  501 -0.00000000000E+00 -0.00000000000E+00 -0.73082635728E+01  0.73082640177E+01  0.25500000000E-02 0. -1.
    5000001    1    1    2    0    0  0.74665334978E+02 -0.70171449145E+02  0.16211168815E+04  0.16261758478E+04  0.77000000000E+02 0.  0.
   -5000001    1    1    2    0    0 -0.74665334978E+02  0.70171449145E+02  0.85464257390E+03  0.86420013518E+03  0.77000000000E+02 0.  0.
<mgrwt>
<rscale>  0 0.26942096E+03</rscale>
<asrwt>0</asrwt>
<pdfrwt beam="1">  1        2 0.38201021E+00 0.26942096E+03</pdfrwt>
<pdfrwt beam="2">  1       -2 0.11243489E-02 0.26942096E+03</pdfrwt>
<totfact> 0.73655678E+03</totfact>
</mgrwt>
</event>
<event>
 4    1  0.5980424E-004  0.2755670E+03  0.7818608E-02  0.1098135E+00
         -2   -1    0    0    0  501 -0.00000000000E+00  0.00000000000E+00  0.33124359701E+02  0.33124359799E+02  0.25500000000E-02 0. -1.
          2   -1    0    0  501    0  0.00000000000E+00 -0.00000000000E+00 -0.57312194116E+03  0.57312194116E+03  0.25500000000E-02 0.  1.
    5000001    1    1    2    0    0 -0.11077460626E+03  0.70683085741E+01 -0.21038243793E+03  0.25002148821E+03  0.77000000000E+02 0.  0.
   -5000001    1    1    2    0    0  0.11077460626E+03 -0.70683085741E+01 -0.32961514353E+03  0.35622481276E+03  0.77000000000E+02 0.  0.
<mgrwt>
<rscale>  0 0.27556703E+03</rscale>
<asrwt>0</asrwt>
<pdfrwt beam="1">  1        2 0.88172599E-01 0.27556703E+03</pdfrwt>
<pdfrwt beam="2">  1       -2 0.50960558E-02 0.27556703E+03</pdfrwt>
<totfact> 0.10074661E+04</totfact>
</mgrwt>
</event>
<event>
 4    1  0.5980424E-004  0.2032724E+03  0.7818608E-02  0.1147007E+00
          2   -1    0    0  501    0  0.00000000000E+00  0.00000000000E+00  0.98959933529E+03  0.98959933529E+03  0.25500000000E-02 0.  1.
         -2   -1    0    0    0  501 -0.00000000000E+00 -0.00000000000E+00 -0.10438486975E+02  0.10438487287E+02  0.25500000000E-02 0. -1.
    5000001    1    1    2    0    0 -0.40888029726E+02  0.30815229671E+02  0.69711393792E+03  0.70321991709E+03  0.77000000000E+02 0.  0.
   -5000001    1    1    2    0    0  0.40888029726E+02 -0.30815229671E+02  0.28204691040E+03  0.29681790549E+03  0.77000000000E+02 0.  0.
<mgrwt>
<rscale>  0 0.20327243E+03</rscale>
<asrwt>0</asrwt>
<pdfrwt beam="1">  1        2 0.15224606E+00 0.20327243E+03</pdfrwt>
<pdfrwt beam="2">  1       -2 0.16059211E-02 0.20327243E+03</pdfrwt>
<totfact> 0.27829869E+04</totfact>
</mgrwt>
</event>
<event>
 4    1  0.5980424E-004  0.1622188E+03  0.7818608E-02  0.1186214E+00
         -2   -1    0    0    0  501 -0.00000000000E+00  0.00000000000E+00  0.66717242051E+03  0.66717242052E+03  0.25500000000E-02 0. -1.
          2   -1    0    0  501    0  0.00000000000E+00 -0.00000000000E+00 -0.98606242318E+01  0.98606245615E+01  0.25500000000E-02 0.  1.
    5000001    1    1    2    0    0  0.22907588551E+02 -0.92844603632E+01  0.30266625094E+03  0.31328392598E+03  0.77000000000E+02 0.  0.
   -5000001    1    1    2    0    0 -0.22907588551E+02  0.92844603632E+01  0.35464554534E+03  0.36374911910E+03  0.77000000000E+02 0.  0.
<mgrwt>
<rscale>  0 0.16221882E+03</rscale>
<asrwt>0</asrwt>
<pdfrwt beam="1">  1        2 0.15170192E-02 0.16221882E+03</pdfrwt>
<pdfrwt beam="2">  1       -2 0.10264190E+00 0.16221882E+03</pdfrwt>
<totfact> 0.62179951E+03</totfact>
</mgrwt>
</event>
<event>
 4    1  0.5980424E-004  0.2579723E+03  0.7818608E-02  0.1108368E+00
         -2   -1    0    0    0  501 -0.00000000000E+00  0.00000000000E+00  0.27033193060E+02  0.27033193181E+02  0.25500000000E-02 0. -1.
          2   -1    0    0  501    0  0.00000000000E+00 -0.00000000000E+00 -0.61544432600E+03  0.61544432600E+03  0.25500000000E-02 0.  1.
    5000001    1    1    2    0    0 -0.50778611214E+02  0.87715118590E+02 -0.34620948419E+03  0.36886639360E+03  0.77000000000E+02 0.  0.
   -5000001    1    1    2    0    0  0.50778611214E+02 -0.87715118590E+02 -0.24220164875E+03  0.27361112558E+03  0.77000000000E+02 0.  0.
<mgrwt>
<rscale>  0 0.25797229E+03</rscale>
<asrwt>0</asrwt>
<pdfrwt beam="1">  1        2 0.94683732E-01 0.25797229E+03</pdfrwt>
<pdfrwt beam="2">  1       -2 0.41589533E-02 0.25797229E+03</pdfrwt>
<totfact> 0.12582382E+04</totfact>
</mgrwt>
</event>
<event>
 4    1  0.5980424E-004  0.2881866E+03  0.7818608E-02  0.1091300E+00
         -2   -1    0    0    0  501 -0.00000000000E+00  0.00000000000E+00  0.20353663780E+03  0.20353663782E+03  0.25500000000E-02 0. -1.
          2   -1    0    0  501    0  0.00000000000E+00 -0.00000000000E+00 -0.10201049955E+03  0.10201049958E+03  0.25500000000E-02 0.  1.
    5000001    1    1    2    0    0 -0.83271967347E+02 -0.62803806261E+02  0.11744315504E+03  0.17492979533E+03  0.77000000000E+02 0.  0.
   -5000001    1    1    2    0    0  0.83271967347E+02  0.62803806261E+02 -0.15917016784E+02  0.13061734207E+03  0.77000000000E+02 0.  0.
<mgrwt>
<rscale>  0 0.28818657E+03</rscale>
<asrwt>0</asrwt>
<pdfrwt beam="1">  1        2 0.15693923E-01 0.28818657E+03</pdfrwt>
<pdfrwt beam="2">  1       -2 0.31313329E-01 0.28818657E+03</pdfrwt>
<totfact> 0.34794066E+03</totfact>
</mgrwt>
</event>
<event>
 4    1  0.5980424E-004  0.3031512E+03  0.7818608E-02  0.1083676E+00
          2   -1    0    0  501    0  0.00000000000E+00  0.00000000000E+00  0.77128107012E+02  0.77128107054E+02  0.25500000000E-02 0.  1.
         -2   -1    0    0    0  501 -0.00000000000E+00 -0.00000000000E+00 -0.29788311603E+03  0.29788311604E+03  0.25500000000E-02 0. -1.
    5000001    1    1    2    0    0  0.10697973250E+03 -0.51774312955E+02 -0.43520842821E+02  0.14814960819E+03  0.77000000000E+02 0.  0.
   -5000001    1    1    2    0    0 -0.10697973250E+03  0.51774312955E+02 -0.17723416620E+03  0.22686161490E+03  0.77000000000E+02 0.  0.
<mgrwt>
<rscale>  0 0.30315119E+03</rscale>
<asrwt>0</asrwt>
<pdfrwt beam="1">  1        2 0.11865863E-01 0.30315119E+03</pdfrwt>
<pdfrwt beam="2">  1       -2 0.45828171E-01 0.30315119E+03</pdfrwt>
<totfact> 0.23685331E+03</totfact>
</mgrwt>
</event>
<event>
 4    1  0.5980424E-004  0.2353458E+03  0.7818608E-02  0.1122933E+00
         -2   -1    0    0    0  501 -0.00000000000E+00  0.00000000000E+00  0.13598544217E+03  0.13598544220E+03  0.25500000000E-02 0. -1.
          2   -1    0    0  501    0  0.00000000000E+00 -0.00000000000E+00 -0.10182641887E+03  0.10182641890E+03  0.25500000000E-02 0.  1.
    5000001    1    1    2    0    0  0.58300463957E+02 -0.55572079510E+02  0.55300591373E+02  0.12439596266E+03  0.77000000000E+02 0.  0.
   -5000001    1    1    2    0    0 -0.58300463957E+02  0.55572079510E+02 -0.21141568064E+02  0.11341589844E+03  0.77000000000E+02 0.  0.
<mgrwt>
<rscale>  0 0.23534579E+03</rscale>
<asrwt>0</asrwt>
<pdfrwt beam="1">  1        2 0.15665603E-01 0.23534579E+03</pdfrwt>
<pdfrwt beam="2">  1       -2 0.20920837E-01 0.23534579E+03</pdfrwt>
<totfact> 0.70680523E+03</totfact>
</mgrwt>
</event>
<event>
 4    1  0.5980424E-004  0.1656207E+03  0.7818608E-02  0.1182493E+00
         -2   -1    0    0    0  501 -0.00000000000E+00  0.00000000000E+00  0.33536872045E+01  0.33536881740E+01  0.25500000000E-02 0. -1.
          2   -1    0    0  501    0  0.00000000000E+00 -0.00000000000E+00 -0.20447807615E+04  0.20447807615E+04  0.25500000000E-02 0.  1.
    5000001    1    1    2    0    0 -0.19577462441E+02  0.20780506732E+02 -0.11524315648E+04  0.11553538930E+04  0.77000000000E+02 0.  0.
   -5000001    1    1    2    0    0  0.19577462441E+02 -0.20780506732E+02 -0.88899550949E+03  0.89278055668E+03  0.77000000000E+02 0.  0.
<mgrwt>
<rscale>  0 0.16562072E+03</rscale>
<asrwt>0</asrwt>
<pdfrwt beam="1">  1        2 0.31458066E+00 0.16562072E+03</pdfrwt>
<pdfrwt beam="2">  1       -2 0.51595359E-03 0.16562072E+03</pdfrwt>
<totfact> 0.38060435E+04</totfact>
</mgrwt>
</event>
<event>
 4    1  0.5980424E-004  0.2519808E+03  0.7818608E-02  0.1112059E+00
          2   -1    0    0  501    0  0.00000000000E+00  0.00000000000E+00  0.18476849491E+04  0.18476849491E+04  0.25500000000E-02 0. -1.
         -2   -1    0    0    0  501 -0.00000000000E+00 -0.00000000000E+00 -0.85910661362E+01  0.85910665147E+01  0.25500000000E-02 0.  1.
    5000001    1    1    2    0    0 -0.97570500106E+01 -0.49318911913E+02  0.28510768821E+03  0.29957127528E+03  0.77000000000E+02 0.  0.
   -5000001    1    1    2    0    0  0.97570500106E+01  0.49318911913E+02  0.15539861948E+04  0.15567047404E+04  0.77000000000E+02 0.  0.
<mgrwt>
<rscale>  0 0.25198082E+03</rscale>
<asrwt>0</asrwt>
<pdfrwt beam="1">  1        2 0.28425935E+00 0.25198082E+03</pdfrwt>
<pdfrwt beam="2">  1       -2 0.13217019E-02 0.25198082E+03</pdfrwt>
<totfact> 0.12656202E+04</totfact>
</mgrwt>
</event>
<event>
 4    1  0.5980424E-004  0.3582375E+03  0.7818608E-02  0.1059284E+00
         -2   -1    0    0    0  501 -0.00000000000E+00  0.00000000000E+00  0.17717204117E+03  0.17717204118E+03  0.25500000000E-02 0. -1.
          2   -1    0    0  501    0  0.00000000000E+00 -0.00000000000E+00 -0.18108689206E+03  0.18108689207E+03  0.25500000000E-02 0.  1.
    5000001    1    1    2    0    0  0.11277771285E+02  0.11285503460E+03 -0.11725128739E+03  0.18038933271E+03  0.77000000000E+02 0.  0.
   -5000001    1    1    2    0    0 -0.11277771285E+02 -0.11285503460E+03  0.11333643650E+03  0.17786960055E+03  0.77000000000E+02 0.  0.
<mgrwt>
<rscale>  0 0.35823754E+03</rscale>
<asrwt>0</asrwt>
<pdfrwt beam="1">  1        2 0.27859522E-01 0.35823754E+03</pdfrwt>
<pdfrwt beam="2">  1       -2 0.27257237E-01 0.35823754E+03</pdfrwt>
<totfact> 0.23299338E+03</totfact>
</mgrwt>
</event>
<event>
 4    1  0.5980424E-004  0.3032617E+03  0.7818608E-02  0.1083621E+00
         -2   -1    0    0    0  501 -0.00000000000E+00  0.00000000000E+00  0.39925464096E+02  0.39925464178E+02  0.25500000000E-02 0. -1.
          2   -1    0    0  501    0  0.00000000000E+00 -0.00000000000E+00 -0.57587101373E+03  0.57587101373E+03  0.25500000000E-02 0.  1.
    5000001    1    1    2    0    0  0.87126957666E+02  0.92513726456E+02 -0.20661635173E+03  0.25449796293E+03  0.77000000000E+02 0.  0.
   -5000001    1    1    2    0    0 -0.87126957666E+02 -0.92513726456E+02 -0.32932919790E+03  0.36129851497E+03  0.77000000000E+02 0.  0.
<mgrwt>
<rscale>  0 0.30326172E+03</rscale>
<asrwt>0</asrwt>
<pdfrwt beam="1">  1        2 0.88595535E-01 0.30326172E+03</pdfrwt>
<pdfrwt beam="2">  1       -2 0.61423795E-02 0.30326172E+03</pdfrwt>
<totfact> 0.75524627E+03</totfact>
</mgrwt>
</event>
<event>
 4    1  0.5980424E-004  0.1989255E+03  0.7818608E-02  0.1150649E+00
          2   -1    0    0  501    0  0.00000000000E+00  0.00000000000E+00  0.36347317188E+03  0.36347317189E+03  0.25500000000E-02 0.  1.
         -2   -1    0    0    0  501 -0.00000000000E+00 -0.00000000000E+00 -0.27217513838E+02  0.27217513958E+02  0.25500000000E-02 0. -1.
    5000001    1    1    2    0    0  0.52622636062E+01  0.58833616840E+02  0.21092107628E+03  0.23217619669E+03  0.77000000000E+02 0.  0.
   -5000001    1    1    2    0    0 -0.52622636062E+01 -0.58833616840E+02  0.12533458176E+03  0.15851448916E+03  0.77000000000E+02 0.  0.
<mgrwt>
<rscale>  0 0.19892547E+03</rscale>
<asrwt>0</asrwt>
<pdfrwt beam="1">  1        2 0.55918951E-01 0.19892547E+03</pdfrwt>
<pdfrwt beam="2">  1       -2 0.41873097E-02 0.19892547E+03</pdfrwt>
<totfact> 0.21995183E+04</totfact>
</mgrwt>
</event>
<event>
 4    1  0.5980424E-004  0.2429306E+03  0.7818608E-02  0.1117856E+00
          2   -1    0    0  501    0  0.00000000000E+00  0.00000000000E+00  0.77175199790E+03  0.77175199791E+03  0.25500000000E-02 0.  1.
         -2   -1    0    0    0  501 -0.00000000000E+00 -0.00000000000E+00 -0.19117309658E+02  0.19117309828E+02  0.25500000000E-02 0. -1.
    5000001    1    1    2    0    0  0.41758099110E+02  0.67332112535E+02  0.54063225519E+03  0.55180575166E+03  0.77000000000E+02 0.  0.
   -5000001    1    1    2    0    0 -0.41758099110E+02 -0.67332112535E+02  0.21200243306E+03  0.23906355607E+03  0.77000000000E+02 0.  0.
<mgrwt>
<rscale>  0 0.24293062E+03</rscale>
<asrwt>0</asrwt>
<pdfrwt beam="1">  1        2 0.11873107E+00 0.24293062E+03</pdfrwt>
<pdfrwt beam="2">  1       -2 0.29411247E-02 0.24293062E+03</pdfrwt>
<totfact> 0.16027772E+04</totfact>
</mgrwt>
</event>
<event>
 4    1  0.5980424E-004  0.2772186E+03  0.7818608E-02  0.1097218E+00
         -2   -1    0    0    0  501 -0.00000000000E+00  0.00000000000E+00  0.10152061007E+03  0.10152061010E+03  0.25500000000E-02 0. -1.
          2   -1    0    0  501    0  0.00000000000E+00 -0.00000000000E+00 -0.18924767407E+03  0.18924767409E+03  0.25500000000E-02 0.  1.
    5000001    1    1    2    0    0  0.38669627615E+02  0.10584891926E+03 -0.69215255105E+02  0.15303295511E+03  0.77000000000E+02 0.  0.
   -5000001    1    1    2    0    0 -0.38669627615E+02 -0.10584891926E+03 -0.18511808900E+02  0.13773532908E+03  0.77000000000E+02 0.  0.
<mgrwt>
<rscale>  0 0.27721861E+03</rscale>
<asrwt>0</asrwt>
<pdfrwt beam="1">  1        2 0.29115027E-01 0.27721861E+03</pdfrwt>
<pdfrwt beam="2">  1       -2 0.15618555E-01 0.27721861E+03</pdfrwt>
<totfact> 0.57612916E+03</totfact>
</mgrwt>
</event>
<event>
 4    1  0.5980424E-004  0.1891390E+03  0.7818608E-02  0.1159240E+00
          2   -1    0    0  501    0  0.00000000000E+00  0.00000000000E+00  0.18451744044E+03  0.18451744045E+03  0.25500000000E-02 0.  1.
         -2   -1    0    0    0  501 -0.00000000000E+00 -0.00000000000E+00 -0.48469098926E+02  0.48469098993E+02  0.25500000000E-02 0. -1.
    5000001    1    1    2    0    0 -0.38019521368E+02  0.39563483772E+02  0.70374614700E+02  0.11786576962E+03  0.77000000000E+02 0.  0.
   -5000001    1    1    2    0    0  0.38019521368E+02 -0.39563483772E+02  0.65673726811E+02  0.11512076983E+03  0.77000000000E+02 0.  0.
<mgrwt>
<rscale>  0 0.18913904E+03</rscale>
<asrwt>0</asrwt>
<pdfrwt beam="1">  1        2 0.28387298E-01 0.18913904E+03</pdfrwt>
<pdfrwt beam="2">  1       -2 0.74567846E-02 0.18913904E+03</pdfrwt>
<totfact> 0.18895554E+04</totfact>
</mgrwt>
</event>
<event>
 4    1  0.5980424E-004  0.2057886E+03  0.7818608E-02  0.1144945E+00
         -2   -1    0    0    0  501 -0.00000000000E+00  0.00000000000E+00  0.56438685942E+01  0.56438691702E+01  0.25500000000E-02 0. -1.
          2   -1    0    0  501    0  0.00000000000E+00 -0.00000000000E+00 -0.18758821871E+04  0.18758821871E+04  0.25500000000E-02 0.  1.
    5000001    1    1    2    0    0 -0.24182611848E+02 -0.26180164593E+01 -0.35207199937E+03  0.36121371163E+03  0.77000000000E+02 0.  0.
   -5000001    1    1    2    0    0  0.24182611848E+02  0.26180164593E+01 -0.15181663192E+04  0.15203123447E+04  0.77000000000E+02 0.  0.
<mgrwt>
<rscale>  0 0.20578856E+03</rscale>
<asrwt>0</asrwt>
<pdfrwt beam="1">  1        2 0.28859676E+00 0.20578856E+03</pdfrwt>
<pdfrwt beam="2">  1       -2 0.86828902E-03 0.20578856E+03</pdfrwt>
<totfact> 0.22338553E+04</totfact>
</mgrwt>
</event>
<event>
 4    1  0.5980424E-004  0.3110443E+03  0.7818608E-02  0.1079846E+00
          2   -1    0    0  501    0  0.00000000000E+00  0.00000000000E+00  0.12145617500E+04  0.12145617500E+04  0.25500000000E-02 0.  1.
         -2   -1    0    0    0  501 -0.00000000000E+00 -0.00000000000E+00 -0.19914290197E+02  0.19914290360E+02  0.25500000000E-02 0. -1.
    5000001    1    1    2    0    0  0.15535166048E+02 -0.12658533940E+03  0.77450107442E+03  0.78869899443E+03  0.77000000000E+02 0.  0.
   -5000001    1    1    2    0    0 -0.15535166048E+02  0.12658533940E+03  0.42014638543E+03  0.44577704598E+03  0.77000000000E+02 0.  0.
<mgrwt>
<rscale>  0 0.31104428E+03</rscale>
<asrwt>0</asrwt>
<pdfrwt beam="1">  1        2 0.18685572E+00 0.31104428E+03</pdfrwt>
<pdfrwt beam="2">  1       -2 0.30637360E-02 0.31104428E+03</pdfrwt>
<totfact> 0.80637012E+03</totfact>
</mgrwt>
</event>
<event>
 4    1  0.5980424E-004  0.3931973E+03  0.7818608E-02  0.1046161E+00
         -2   -1    0    0    0  501 -0.00000000000E+00  0.00000000000E+00  0.41942665596E+02  0.41942665674E+02  0.25500000000E-02 0. -1.
          2   -1    0    0  501    0  0.00000000000E+00 -0.00000000000E+00 -0.92152048465E+03  0.92152048466E+03  0.25500000000E-02 0.  1.
    5000001    1    1    2    0    0 -0.65655051575E+02  0.13847865232E+03 -0.67526426709E+03  0.69670492560E+03  0.77000000000E+02 0.  0.
   -5000001    1    1    2    0    0  0.65655051575E+02 -0.13847865232E+03 -0.20431355197E+03  0.26675822473E+03  0.77000000000E+02 0.  0.
<mgrwt>
<rscale>  0 0.39319728E+03</rscale>
<asrwt>0</asrwt>
<pdfrwt beam="1">  1        2 0.14177237E+00 0.39319728E+03</pdfrwt>
<pdfrwt beam="2">  1       -2 0.64527185E-02 0.39319728E+03</pdfrwt>
<totfact> 0.39091492E+03</totfact>
</mgrwt>
</event>
<event>
 4    1  0.5980424E-004  0.3529044E+03  0.7818608E-02  0.1061429E+00
          2   -1    0    0  501    0  0.00000000000E+00  0.00000000000E+00  0.57885325794E+03  0.57885325795E+03  0.25500000000E-02 0.  1.
         -2   -1    0    0    0  501 -0.00000000000E+00 -0.00000000000E+00 -0.53788033150E+02  0.53788033210E+02  0.25500000000E-02 0. -1.
    5000001    1    1    2    0    0  0.83445911120E+02  0.69994409360E+02  0.46961469259E+03  0.48818991891E+03  0.77000000000E+02 0.  0.
   -5000001    1    1    2    0    0 -0.83445911120E+02 -0.69994409360E+02  0.55450532203E+02  0.14445137225E+03  0.77000000000E+02 0.  0.
<mgrwt>
<rscale>  0 0.35290440E+03</rscale>
<asrwt>0</asrwt>
<pdfrwt beam="1">  1        2 0.89054341E-01 0.35290440E+03</pdfrwt>
<pdfrwt beam="2">  1       -2 0.82750826E-02 0.35290440E+03</pdfrwt>
<totfact> 0.47367287E+03</totfact>
</mgrwt>
</event>
<event>
 4    1  0.5980424E-004  0.2460457E+03  0.7818608E-02  0.1115830E+00
          2   -1    0    0  501    0  0.00000000000E+00  0.00000000000E+00  0.16715839062E+03  0.16715839064E+03  0.25500000000E-02 0.  1.
         -2   -1    0    0    0  501 -0.00000000000E+00 -0.00000000000E+00 -0.90540618703E+02  0.90540618739E+02  0.25500000000E-02 0. -1.
    5000001    1    1    2    0    0  0.33363657660E+01  0.95758585516E+02  0.33094527961E+02  0.12729919802E+03  0.77000000000E+02 0.  0.
   -5000001    1    1    2    0    0 -0.33363657660E+01 -0.95758585516E+02  0.43523243956E+02  0.13039981135E+03  0.77000000000E+02 0.  0.
<mgrwt>
<rscale>  0 0.24604572E+03</rscale>
<asrwt>0</asrwt>
<pdfrwt beam="1">  1        2 0.25716675E-01 0.24604572E+03</pdfrwt>
<pdfrwt beam="2">  1       -2 0.13929326E-01 0.24604572E+03</pdfrwt>
<totfact> 0.79423987E+03</totfact>
</mgrwt>
</event>
<event>
 4    1  0.5980424E-004  0.3063487E+03  0.7818608E-02  0.1082109E+00
          2   -1    0    0  501    0  0.00000000000E+00  0.00000000000E+00  0.76535973994E+03  0.76535973994E+03  0.25500000000E-02 0.  1.
         -2   -1    0    0    0  501 -0.00000000000E+00 -0.00000000000E+00 -0.30655364343E+02  0.30655364449E+02  0.25500000000E-02 0. -1.
    5000001    1    1    2    0    0  0.12899468628E+03 -0.43720576846E+01  0.44419785283E+03  0.46893440525E+03  0.77000000000E+02 0.  0.
   -5000001    1    1    2    0    0 -0.12899468628E+03  0.43720576846E+01  0.29050652277E+03  0.32708069914E+03  0.77000000000E+02 0.  0.
<mgrwt>
<rscale>  0 0.30634870E+03</rscale>
<asrwt>0</asrwt>
<pdfrwt beam="1">  1        2 0.11774765E+00 0.30634870E+03</pdfrwt>
<pdfrwt beam="2">  1       -2 0.47162101E-02 0.30634870E+03</pdfrwt>
<totfact> 0.80413952E+03</totfact>
</mgrwt>
</event>
<event>
 4    1  0.5980424E-004  0.1946010E+03  0.7818608E-02  0.1154376E+00
         -2   -1    0    0    0  501 -0.00000000000E+00  0.00000000000E+00  0.67085743028E+01  0.67085747874E+01  0.25500000000E-02 0. -1.
          2   -1    0    0  501    0  0.00000000000E+00 -0.00000000000E+00 -0.14112360932E+04  0.14112360932E+04  0.25500000000E-02 0.  1.
    5000001    1    1    2    0    0  0.19411960692E+02 -0.54318936470E+02 -0.80810802771E+03  0.81381506223E+03  0.77000000000E+02 0.  0.
   -5000001    1    1    2    0    0 -0.19411960692E+02  0.54318936470E+02 -0.59641949121E+03  0.60412960577E+03  0.77000000000E+02 0.  0.
<mgrwt>
<rscale>  0 0.19460095E+03</rscale>
<asrwt>0</asrwt>
<pdfrwt beam="1">  1        2 0.21711301E+00 0.19460095E+03</pdfrwt>
<pdfrwt beam="2">  1       -2 0.10320895E-02 0.19460095E+03</pdfrwt>
<totfact> 0.30415579E+04</totfact>
</mgrwt>
</event>
<event>
 4    1  0.5980424E-004  0.3621791E+03  0.7818608E-02  0.1057724E+00
          2   -1    0    0  501    0  0.00000000000E+00  0.00000000000E+00  0.26807908794E+04  0.26807908794E+04  0.25500000000E-02 0.  1.
         -2   -1    0    0    0  501 -0.00000000000E+00 -0.00000000000E+00 -0.12232741789E+02  0.12232742055E+02  0.25500000000E-02 0. -1.
    5000001    1    1    2    0    0 -0.83112132943E+02 -0.13670515255E+03  0.15991056765E+04  0.16089325312E+04  0.77000000000E+02 0.  0.
   -5000001    1    1    2    0    0  0.83112132943E+02  0.13670515255E+03  0.10694524612E+04  0.10840910903E+04  0.77000000000E+02 0.  0.
<mgrwt>
<rscale>  0 0.36217909E+03</rscale>
<asrwt>0</asrwt>
<pdfrwt beam="1">  1        2 0.41242948E+00 0.36217909E+03</pdfrwt>
<pdfrwt beam="2">  1       -2 0.18819598E-02 0.36217909E+03</pdfrwt>
<totfact> 0.26721613E+03</totfact>
</mgrwt>
</event>
<event>
 4    1  0.5980424E-004  0.2342499E+03  0.7818608E-02  0.1123684E+00
         -2   -1    0    0    0  501 -0.00000000000E+00  0.00000000000E+00  0.62786364898E+02  0.62786364950E+02  0.25500000000E-02 0. -1.
          2   -1    0    0  501    0  0.00000000000E+00 -0.00000000000E+00 -0.21849095902E+03  0.21849095904E+03  0.25500000000E-02 0.  1.
    5000001    1    1    2    0    0  0.49659871985E+02  0.71156040810E+02 -0.58491852865E+02  0.12992144504E+03  0.77000000000E+02 0.  0.
   -5000001    1    1    2    0    0 -0.49659871985E+02 -0.71156040810E+02 -0.97212741262E+02  0.15135587895E+03  0.77000000000E+02 0.  0.
<mgrwt>
<rscale>  0 0.23424989E+03</rscale>
<asrwt>0</asrwt>
<pdfrwt beam="1">  1        2 0.33613993E-01 0.23424989E+03</pdfrwt>
<pdfrwt beam="2">  1       -2 0.96594408E-02 0.23424989E+03</pdfrwt>
<totfact> 0.10636143E+04</totfact>
</mgrwt>
</event>
<event>
 4    1  0.5980424E-004  0.2442091E+03  0.7818608E-02  0.1117020E+00
          2   -1    0    0  501    0  0.00000000000E+00  0.00000000000E+00  0.79659993662E+03  0.79659993662E+03  0.25500000000E-02 0.  1.
         -2   -1    0    0    0  501 -0.00000000000E+00 -0.00000000000E+00 -0.18716449949E+02  0.18716450123E+02  0.25500000000E-02 0. -1.
    5000001    1    1    2    0    0 -0.40699408060E+02  0.85000363711E+02  0.42216361971E+03  0.43935478312E+03  0.77000000000E+02 0.  0.
   -5000001    1    1    2    0    0  0.40699408060E+02 -0.85000363711E+02  0.35571986696E+03  0.37596160362E+03  0.77000000000E+02 0.  0.
<mgrwt>
<rscale>  0 0.24420911E+03</rscale>
<asrwt>0</asrwt>
<pdfrwt beam="1">  1        2 0.12255384E+00 0.24420911E+03</pdfrwt>
<pdfrwt beam="2">  1       -2 0.28794538E-02 0.24420911E+03</pdfrwt>
<totfact> 0.15896936E+04</totfact>
</mgrwt>
</event>
<event>
 4    1  0.5980424E-004  0.2935024E+03  0.7818608E-02  0.1088535E+00
         -2   -1    0    0    0  501 -0.00000000000E+00  0.00000000000E+00  0.14448060113E+03  0.14448060115E+03  0.25500000000E-02 0. -1.
          2   -1    0    0  501    0  0.00000000000E+00 -0.00000000000E+00 -0.14905749563E+03  0.14905749565E+03  0.25500000000E-02 0.  1.
    5000001    1    1    2    0    0 -0.38823804384E+02 -0.10551101418E+03 -0.56765747034E+02  0.14761846746E+03  0.77000000000E+02 0.  0.
   -5000001    1    1    2    0    0  0.38823804384E+02  0.10551101418E+03  0.52188852532E+02  0.14591962934E+03  0.77000000000E+02 0.  0.
<mgrwt>
<rscale>  0 0.29350241E+03</rscale>
<asrwt>0</asrwt>
<pdfrwt beam="1">  1        2 0.22931922E-01 0.29350241E+03</pdfrwt>
<pdfrwt beam="2">  1       -2 0.22227785E-01 0.29350241E+03</pdfrwt>
<totfact> 0.41382102E+03</totfact>
</mgrwt>
</event>
<event>
 4    1  0.5980424E-004  0.1933510E+03  0.7818608E-02  0.1155473E+00
         -2   -1    0    0    0  501 -0.00000000000E+00  0.00000000000E+00  0.28825599913E+02  0.28825600026E+02  0.25500000000E-02 0. -1.
          2   -1    0    0  501    0  0.00000000000E+00 -0.00000000000E+00 -0.32423091312E+03  0.32423091313E+03  0.25500000000E-02 0.  1.
    5000001    1    1    2    0    0  0.39067279483E+02 -0.37748779047E+02 -0.18711726624E+03  0.20950678741E+03  0.77000000000E+02 0.  0.
   -5000001    1    1    2    0    0 -0.39067279483E+02  0.37748779047E+02 -0.10828804696E+03  0.14354972574E+03  0.77000000000E+02 0.  0.
<mgrwt>
<rscale>  0 0.19335098E+03</rscale>
<asrwt>0</asrwt>
<pdfrwt beam="1">  1        2 0.49881676E-01 0.19335098E+03</pdfrwt>
<pdfrwt beam="2">  1       -2 0.44347079E-02 0.19335098E+03</pdfrwt>
<totfact> 0.22758519E+04</totfact>
</mgrwt>
</event>
<event>
 4    1  0.5980424E-004  0.2824260E+03  0.7818608E-02  0.1094371E+00
         -2   -1    0    0    0  501 -0.00000000000E+00  0.00000000000E+00  0.12043895041E+03  0.12043895044E+03  0.25500000000E-02 0. -1.
          2   -1    0    0  501    0  0.00000000000E+00 -0.00000000000E+00 -0.16557028858E+03  0.16557028860E+03  0.25500000000E-02 0.  1.
    5000001    1    1    2    0    0 -0.35430213844E+01 -0.11368742774E+03  0.10633298260E+02  0.13776592923E+03  0.77000000000E+02 0.  0.
   -5000001    1    1    2    0    0  0.35430213844E+01  0.11368742774E+03 -0.55764636427E+02  0.14824330980E+03  0.77000000000E+02 0.  0.
<mgrwt>
<rscale>  0 0.28242600E+03</rscale>
<asrwt>0</asrwt>
<pdfrwt beam="1">  1        2 0.25472352E-01 0.28242600E+03</pdfrwt>
<pdfrwt beam="2">  1       -2 0.18529069E-01 0.28242600E+03</pdfrwt>
<totfact> 0.50199912E+03</totfact>
</mgrwt>
</event>
<event>
 4    1  0.5980424E-004  0.3290585E+03  0.7818608E-02  0.1071554E+00
         -2   -1    0    0    0  501 -0.00000000000E+00  0.00000000000E+00  0.31837989118E+02  0.31837989220E+02  0.25500000000E-02 0. -1.
          2   -1    0    0  501    0  0.00000000000E+00 -0.00000000000E+00 -0.85023792908E+03  0.85023792908E+03  0.25500000000E-02 0.  1.
    5000001    1    1    2    0    0  0.85538685389E+02  0.89299338617E+02 -0.20417959704E+03  0.25081775539E+03  0.77000000000E+02 0.  0.
   -5000001    1    1    2    0    0 -0.85538685389E+02 -0.89299338617E+02 -0.61422034293E+03  0.63125816291E+03  0.77000000000E+02 0.  0.
<mgrwt>
<rscale>  0 0.32905845E+03</rscale>
<asrwt>0</asrwt>
<pdfrwt beam="1">  1        2 0.13080582E+00 0.32905845E+03</pdfrwt>
<pdfrwt beam="2">  1       -2 0.48981528E-02 0.32905845E+03</pdfrwt>
<totfact> 0.66426598E+03</totfact>
</mgrwt>
</event>
<event>
 4    1  0.5980424E-004  0.2686707E+03  0.7818608E-02  0.1102043E+00
         -2   -1    0    0    0  501 -0.00000000000E+00  0.00000000000E+00  0.34010640750E+02  0.34010640846E+02  0.25500000000E-02 0. -1.
          2   -1    0    0  501    0  0.00000000000E+00 -0.00000000000E+00 -0.53059813522E+03  0.53059813523E+03  0.25500000000E-02 0.  1.
    5000001    1    1    2    0    0  0.47345409562E+02 -0.84152388125E+02 -0.35937038209E+03  0.37999905758E+03  0.77000000000E+02 0.  0.
   -5000001    1    1    2    0    0 -0.47345409562E+02  0.84152388125E+02 -0.13721711238E+03  0.18460971849E+03  0.77000000000E+02 0.  0.
<mgrwt>
<rscale>  0 0.26867067E+03</rscale>
<asrwt>0</asrwt>
<pdfrwt beam="1">  1        2 0.81630476E-01 0.26867067E+03</pdfrwt>
<pdfrwt beam="2">  1       -2 0.52324067E-02 0.26867067E+03</pdfrwt>
<totfact> 0.10555721E+04</totfact>
</mgrwt>
</event>
<event>
 4    1  0.5980424E-004  0.1654392E+03  0.7818608E-02  0.1182689E+00
          2   -1    0    0  501    0  0.00000000000E+00  0.00000000000E+00  0.33433229628E+04  0.33433229628E+04  0.25500000000E-02 0.  1.
         -2   -1    0    0    0  501 -0.00000000000E+00 -0.00000000000E+00 -0.20466242833E+01  0.20466258719E+01  0.25500000000E-02 0. -1.
    5000001    1    1    2    0    0 -0.68582889261E+01 -0.25755176949E+02  0.13824152681E+04  0.13848145503E+04  0.77000000000E+02 0.  0.
   -5000001    1    1    2    0    0  0.68582889261E+01  0.25755176949E+02  0.19588610704E+04  0.19605550383E+04  0.77000000000E+02 0.  0.
<mgrwt>
<rscale>  0 0.16543916E+03</rscale>
<asrwt>0</asrwt>
<pdfrwt beam="1">  1        2 0.51435056E+00 0.16543916E+03</pdfrwt>
<pdfrwt beam="2">  1       -2 0.31486957E-03 0.16543916E+03</pdfrwt>
<totfact> 0.14413100E+04</totfact>
</mgrwt>
</event>
<event>
 4    1  0.5980424E-004  0.3190654E+03  0.7818608E-02  0.1076080E+00
         -2   -1    0    0    0  501 -0.00000000000E+00  0.00000000000E+00  0.38183594379E+02  0.38183594464E+02  0.25500000000E-02 0. -1.
          2   -1    0    0  501    0  0.00000000000E+00 -0.00000000000E+00 -0.66653440236E+03  0.66653440237E+03  0.25500000000E-02 0.  1.
    5000001    1    1    2    0    0  0.81512641227E+01  0.13308607006E+03 -0.22195521769E+03  0.27013230797E+03  0.77000000000E+02 0.  0.
   -5000001    1    1    2    0    0 -0.81512641227E+01 -0.13308607006E+03 -0.40639559029E+03  0.43458568886E+03  0.77000000000E+02 0.  0.
<mgrwt>
<rscale>  0 0.31906538E+03</rscale>
<asrwt>0</asrwt>
<pdfrwt beam="1">  1        2 0.10254375E+00 0.31906538E+03</pdfrwt>
<pdfrwt beam="2">  1       -2 0.58743996E-02 0.31906538E+03</pdfrwt>
<totfact> 0.68195193E+03</totfact>
</mgrwt>
</event>
<event>
 4    1  0.5980424E-004  0.2697404E+03  0.7818608E-02  0.1101428E+00
         -2   -1    0    0    0  501 -0.00000000000E+00  0.00000000000E+00  0.13085399356E+03  0.13085399359E+03  0.25500000000E-02 0. -1.
          2   -1    0    0  501    0  0.00000000000E+00 -0.00000000000E+00 -0.13900969524E+03  0.13900969526E+03  0.25500000000E-02 0.  1.
    5000001    1    1    2    0    0 -0.31840975415E+02  0.10589500775E+03 -0.98574615136E+01  0.13510651328E+03  0.77000000000E+02 0.  0.
   -5000001    1    1    2    0    0  0.31840975415E+02 -0.10589500775E+03  0.17017598354E+01  0.13475717558E+03  0.77000000000E+02 0.  0.
<mgrwt>
<rscale>  0 0.26974042E+03</rscale>
<asrwt>0</asrwt>
<pdfrwt beam="1">  1        2 0.21386107E-01 0.26974042E+03</pdfrwt>
<pdfrwt beam="2">  1       -2 0.20131384E-01 0.26974042E+03</pdfrwt>
<totfact> 0.52985607E+03</totfact>
</mgrwt>
</event>
<event>
 4    1  0.5980424E-004  0.2844236E+03  0.7818608E-02  0.1093297E+00
         -2   -1    0    0    0  501 -0.00000000000E+00  0.00000000000E+00  0.19628021409E+02  0.19628021575E+02  0.25500000000E-02 0. -1.
          2   -1    0    0  501    0  0.00000000000E+00 -0.00000000000E+00 -0.10303739538E+04  0.10303739538E+04  0.25500000000E-02 0.  1.
    5000001    1    1    2    0    0  0.45021187816E+02 -0.66520356574E+02 -0.17842784755E+03  0.21027924761E+03  0.77000000000E+02 0.  0.
   -5000001    1    1    2    0    0 -0.45021187816E+02  0.66520356574E+02 -0.83231808488E+03  0.83972272781E+03  0.77000000000E+02 0.  0.
<mgrwt>
<rscale>  0 0.28442364E+03</rscale>
<asrwt>0</asrwt>
<pdfrwt beam="1">  1        2 0.15851903E+00 0.28442364E+03</pdfrwt>
<pdfrwt beam="2">  1       -2 0.30196964E-02 0.28442364E+03</pdfrwt>
<totfact> 0.10540357E+04</totfact>
</mgrwt>
</event>
<event>
 4    1  0.5980424E-004  0.4378320E+03  0.7818608E-02  0.1031414E+00
          2   -1    0    0  501    0  0.00000000000E+00  0.00000000000E+00  0.77103447758E+02  0.77103447800E+02  0.25500000000E-02 0.  1.
         -2   -1    0    0    0  501 -0.00000000000E+00 -0.00000000000E+00 -0.62155748857E+03  0.62155748857E+03  0.25500000000E-02 0. -1.
    5000001    1    1    2    0    0 -0.13190564774E+03  0.71243781455E+02 -0.49517514176E+03  0.52306997364E+03  0.77000000000E+02 0.  0.
   -5000001    1    1    2    0    0  0.13190564774E+03 -0.71243781455E+02 -0.49278899045E+02  0.17559096273E+03  0.77000000000E+02 0.  0.
<mgrwt>
<rscale>  0 0.43783205E+03</rscale>
<asrwt>0</asrwt>
<pdfrwt beam="1">  1        2 0.11862069E-01 0.43783205E+03</pdfrwt>
<pdfrwt beam="2">  1       -2 0.95624226E-01 0.43783205E+03</pdfrwt>
<totfact> 0.49581430E+02</totfact>
</mgrwt>
</event>
<event>
 4    1  0.5980424E-004  0.1885260E+03  0.7818608E-02  0.1159797E+00
          2   -1    0    0  501    0  0.00000000000E+00  0.00000000000E+00  0.62325010286E+03  0.62325010287E+03  0.25500000000E-02 0.  1.
         -2   -1    0    0    0  501 -0.00000000000E+00 -0.00000000000E+00 -0.14256744772E+02  0.14256745000E+02  0.25500000000E-02 0. -1.
    5000001    1    1    2    0    0 -0.24322379557E+02  0.48364094338E+02  0.28730267765E+03  0.30232845112E+03  0.77000000000E+02 0.  0.
   -5000001    1    1    2    0    0  0.24322379557E+02 -0.48364094338E+02  0.32169068044E+03  0.33517839675E+03  0.77000000000E+02 0.  0.
<mgrwt>
<rscale>  0 0.18852605E+03</rscale>
<asrwt>0</asrwt>
<pdfrwt beam="1">  1        2 0.95884655E-01 0.18852605E+03</pdfrwt>
<pdfrwt beam="2">  1       -2 0.21933448E-02 0.18852605E+03</pdfrwt>
<totfact> 0.31427242E+04</totfact>
</mgrwt>
</event>
<event>
 4    1  0.5980424E-004  0.3461809E+03  0.7818608E-02  0.1064194E+00
         -2   -1    0    0    0  501 -0.00000000000E+00  0.00000000000E+00  0.58675311654E+02  0.58675311710E+02  0.25500000000E-02 0. -1.
          2   -1    0    0  501    0  0.00000000000E+00 -0.00000000000E+00 -0.51061165524E+03  0.51061165524E+03  0.25500000000E-02 0.  1.
    5000001    1    1    2    0    0  0.73208713946E+02 -0.12404969187E+03 -0.32019917026E+03  0.35945006675E+03  0.77000000000E+02 0.  0.
   -5000001    1    1    2    0    0 -0.73208713946E+02  0.12404969187E+03 -0.13173717332E+03  0.20983690020E+03  0.77000000000E+02 0.  0.
<mgrwt>
<rscale>  0 0.34618087E+03</rscale>
<asrwt>0</asrwt>
<pdfrwt beam="1">  1        2 0.78555636E-01 0.34618087E+03</pdfrwt>
<pdfrwt beam="2">  1       -2 0.90269714E-02 0.34618087E+03</pdfrwt>
<totfact> 0.47654488E+03</totfact>
</mgrwt>
</event>
<event>
 4    1  0.5980424E-004  0.2143612E+03  0.7818608E-02  0.1138158E+00
         -2   -1    0    0    0  501 -0.00000000000E+00  0.00000000000E+00  0.14696642818E+02  0.14696643039E+02  0.25500000000E-02 0. -1.
          2   -1    0    0  501    0  0.00000000000E+00 -0.00000000000E+00 -0.78165311548E+03  0.78165311548E+03  0.25500000000E-02 0.  1.
    5000001    1    1    2    0    0  0.67084374517E+02 -0.17936343000E+02 -0.48430797799E+03  0.49528299309E+03  0.77000000000E+02 0.  0.
   -5000001    1    1    2    0    0 -0.67084374517E+02  0.17936343000E+02 -0.28264849467E+03  0.30106676543E+03  0.77000000000E+02 0.  0.
<mgrwt>
<rscale>  0 0.21436116E+03</rscale>
<asrwt>0</asrwt>
<pdfrwt beam="1">  1        2 0.12025429E+00 0.21436116E+03</pdfrwt>
<pdfrwt beam="2">  1       -2 0.22610226E-02 0.21436116E+03</pdfrwt>
<totfact> 0.23096542E+04</totfact>
</mgrwt>
</event>
<event>
 4    1  0.5980424E-004  0.1907235E+03  0.7818608E-02  0.1157810E+00
          2   -1    0    0  501    0  0.00000000000E+00  0.00000000000E+00  0.25846647242E+04  0.25846647242E+04  0.25500000000E-02 0.  1.
         -2   -1    0    0    0  501 -0.00000000000E+00 -0.00000000000E+00 -0.35183926566E+01  0.35183935807E+01  0.25500000000E-02 0. -1.
    5000001    1    1    2    0    0  0.51994166337E+01 -0.52626013972E+02  0.10301303464E+04  0.10343568349E+04  0.77000000000E+02 0.  0.
   -5000001    1    1    2    0    0 -0.51994166337E+01  0.52626013972E+02  0.15510159851E+04  0.15538262829E+04  0.77000000000E+02 0.  0.
<mgrwt>
<rscale>  0 0.19072353E+03</rscale>
<asrwt>0</asrwt>
<pdfrwt beam="1">  1        2 0.39764176E+00 0.19072353E+03</pdfrwt>
<pdfrwt beam="2">  1       -2 0.54128985E-03 0.19072353E+03</pdfrwt>
<totfact> 0.18506885E+04</totfact>
</mgrwt>
</event>
<event>
 4    1  0.5980424E-004  0.1673578E+03  0.7818608E-02  0.1180632E+00
          2   -1    0    0  501    0  0.00000000000E+00  0.00000000000E+00  0.80855299925E+03  0.80855299926E+03  0.25500000000E-02 0.  1.
         -2   -1    0    0    0  501 -0.00000000000E+00 -0.00000000000E+00 -0.86601064481E+01  0.86601068236E+01  0.25500000000E-02 0. -1.
    5000001    1    1    2    0    0 -0.18047976977E+02  0.23080921294E+02  0.32839766462E+03  0.33857419354E+03  0.77000000000E+02 0.  0.
   -5000001    1    1    2    0    0  0.18047976977E+02 -0.23080921294E+02  0.47149522819E+03  0.47863891255E+03  0.77000000000E+02 0.  0.
<mgrwt>
<rscale>  0 0.16735776E+03</rscale>
<asrwt>0</asrwt>
<pdfrwt beam="1">  1        2 0.12439277E+00 0.16735776E+03</pdfrwt>
<pdfrwt beam="2">  1       -2 0.13323241E-02 0.16735776E+03</pdfrwt>
<totfact> 0.46924915E+04</totfact>
</mgrwt>
</event>
<event>
 4    1  0.5980424E-004  0.4426734E+03  0.7818608E-02  0.1029930E+00
         -2   -1    0    0    0  501 -0.00000000000E+00  0.00000000000E+00  0.27098367376E+03  0.27098367377E+03  0.25500000000E-02 0.  1.
          2   -1    0    0  501    0  0.00000000000E+00 -0.00000000000E+00 -0.18078555616E+03  0.18078555618E+03  0.25500000000E-02 0. -1.
    5000001    1    1    2    0    0  0.35889620441E+01  0.19798858264E+03 -0.18212525741E+02  0.21324412207E+03  0.77000000000E+02 0.  0.
   -5000001    1    1    2    0    0 -0.35889620441E+01 -0.19798858264E+03  0.10841064334E+03  0.23852510788E+03  0.77000000000E+02 0.  0.
<mgrwt>
<rscale>  0 0.44267340E+03</rscale>
<asrwt>0</asrwt>
<pdfrwt beam="1">  1        2 0.27813163E-01 0.44267340E+03</pdfrwt>
<pdfrwt beam="2">  1       -2 0.41689796E-01 0.44267340E+03</pdfrwt>
<totfact> 0.10571240E+03</totfact>
</mgrwt>
</event>
<event>
 4    1  0.5980424E-004  0.4029657E+03  0.7818608E-02  0.1042758E+00
          2   -1    0    0  501    0  0.00000000000E+00  0.00000000000E+00  0.10785114996E+04  0.10785114996E+04  0.25500000000E-02 0.  1.
         -2   -1    0    0    0  501 -0.00000000000E+00 -0.00000000000E+00 -0.37640157443E+02  0.37640157529E+02  0.25500000000E-02 0. -1.
    5000001    1    1    2    0    0  0.84878704337E+02 -0.78069320195E+02  0.11555392453E+03  0.18050186337E+03  0.77000000000E+02 0.  0.
   -5000001    1    1    2    0    0 -0.84878704337E+02  0.78069320195E+02  0.92531741766E+03  0.93564979379E+03  0.77000000000E+02 0.  0.
<mgrwt>
<rscale>  0 0.40296572E+03</rscale>
<asrwt>0</asrwt>
<pdfrwt beam="1">  1        2 0.16592485E+00 0.40296572E+03</pdfrwt>
<pdfrwt beam="2">  1       -2 0.57907934E-02 0.40296572E+03</pdfrwt>
<totfact> 0.36918269E+03</totfact>
</mgrwt>
</event>
<event>
 4    1  0.5980424E-004  0.2306559E+03  0.7818608E-02  0.1126179E+00
          2   -1    0    0  501    0  0.00000000000E+00  0.00000000000E+00  0.41331087318E+03  0.41331087318E+03  0.25500000000E-02 0.  1.
         -2   -1    0    0    0  501 -0.00000000000E+00 -0.00000000000E+00 -0.32180454201E+02  0.32180454302E+02  0.25500000000E-02 0. -1.
    5000001    1    1    2    0    0  0.62237883062E+02  0.57058625884E+02  0.16050145640E+03  0.19702527346E+03  0.77000000000E+02 0.  0.
   -5000001    1    1    2    0    0 -0.62237883062E+02 -0.57058625884E+02  0.22062896258E+03  0.24846605403E+03  0.77000000000E+02 0.  0.
<mgrwt>
<rscale>  0 0.23065586E+03</rscale>
<asrwt>0</asrwt>
<pdfrwt beam="1">  1        2 0.63586281E-01 0.23065586E+03</pdfrwt>
<pdfrwt beam="2">  1       -2 0.49508397E-02 0.23065586E+03</pdfrwt>
<totfact> 0.15022379E+04</totfact>
</mgrwt>
</event>
<event>
 4    1  0.5980424E-004  0.2886308E+03  0.7818608E-02  0.1091066E+00
         -2   -1    0    0    0  501 -0.00000000000E+00  0.00000000000E+00  0.29035924180E+02  0.29035924292E+02  0.25500000000E-02 0. -1.
          2   -1    0    0  501    0  0.00000000000E+00 -0.00000000000E+00 -0.71728166790E+03  0.71728166790E+03  0.25500000000E-02 0.  1.
    5000001    1    1    2    0    0  0.90289291671E+02 -0.64764681808E+02 -0.21351687633E+03  0.25271540649E+03  0.77000000000E+02 0.  0.
   -5000001    1    1    2    0    0 -0.90289291671E+02  0.64764681808E+02 -0.47472886739E+03  0.49360218570E+03  0.77000000000E+02 0.  0.
<mgrwt>
<rscale>  0 0.28863081E+03</rscale>
<asrwt>0</asrwt>
<pdfrwt beam="1">  1        2 0.11035101E+00 0.28863081E+03</pdfrwt>
<pdfrwt beam="2">  1       -2 0.44670658E-02 0.28863081E+03</pdfrwt>
<totfact> 0.94470874E+03</totfact>
</mgrwt>
</event>
<event>
 4    1  0.5980424E-004  0.3967147E+03  0.7818608E-02  0.1044923E+00
         -2   -1    0    0    0  501 -0.00000000000E+00  0.00000000000E+00  0.21138501393E+03  0.21138501394E+03  0.25500000000E-02 0. -1.
          2   -1    0    0  501    0  0.00000000000E+00 -0.00000000000E+00 -0.18613253968E+03  0.18613253970E+03  0.25500000000E-02 0.  1.
    5000001    1    1    2    0    0  0.77378720577E+02 -0.16551900170E+03  0.18349467128E+02  0.19912234748E+03  0.77000000000E+02 0.  0.
   -5000001    1    1    2    0    0 -0.77378720577E+02  0.16551900170E+03  0.69030071142E+01  0.19839520616E+03  0.77000000000E+02 0.  0.
<mgrwt>
<rscale>  0 0.39671466E+03</rscale>
<asrwt>0</asrwt>
<pdfrwt beam="1">  1        2 0.28635775E-01 0.39671466E+03</pdfrwt>
<pdfrwt beam="2">  1       -2 0.32520772E-01 0.39671466E+03</pdfrwt>
<totfact> 0.16387995E+03</totfact>
</mgrwt>
</event>
<event>
 4    1  0.5980424E-004  0.7622692E+03  0.7818608E-02  0.9616296E-01
          2   -1    0    0  501    0  0.00000000000E+00  0.00000000000E+00  0.14246582357E+04  0.14246582357E+04  0.25500000000E-02 0.  1.
         -2   -1    0    0    0  501 -0.00000000000E+00 -0.00000000000E+00 -0.10196381271E+03  0.10196381274E+03  0.25500000000E-02 0. -1.
    5000001    1    1    2    0    0 -0.24649006099E+03 -0.26063888475E+03  0.45471978169E+03  0.58428508304E+03  0.77000000000E+02 0.  0.
   -5000001    1    1    2    0    0  0.24649006099E+03  0.26063888475E+03  0.86797464125E+03  0.94233696535E+03  0.77000000000E+02 0.  0.
<mgrwt>
<rscale>  0 0.76226921E+03</rscale>
<asrwt>0</asrwt>
<pdfrwt beam="1">  1        2 0.21917820E+00 0.76226921E+03</pdfrwt>
<pdfrwt beam="2">  1       -2 0.15686739E-01 0.76226921E+03</pdfrwt>
<totfact> 0.45963642E+02</totfact>
</mgrwt>
</event>
<event>
 4    1  0.5980424E-004  0.1957736E+03  0.7818608E-02  0.1153355E+00
         -2   -1    0    0    0  501 -0.00000000000E+00  0.00000000000E+00  0.97748885343E+01  0.97748888670E+01  0.25500000000E-02 0. -1.
          2   -1    0    0  501    0  0.00000000000E+00 -0.00000000000E+00 -0.98024948132E+03  0.98024948133E+03  0.25500000000E-02 0.  1.
    5000001    1    1    2    0    0  0.49740591411E+02 -0.25771824842E+02 -0.37052996087E+03  0.38256994823E+03  0.77000000000E+02 0.  0.
   -5000001    1    1    2    0    0 -0.49740591411E+02  0.25771824842E+02 -0.59994463192E+03  0.60745442196E+03  0.77000000000E+02 0.  0.
<mgrwt>
<rscale>  0 0.19577364E+03</rscale>
<asrwt>0</asrwt>
<pdfrwt beam="1">  1        2 0.15080753E+00 0.19577364E+03</pdfrwt>
<pdfrwt beam="2">  1       -2 0.15038298E-02 0.19577364E+03</pdfrwt>
<totfact> 0.30946558E+04</totfact>
</mgrwt>
</event>
<event>
 4    1  0.5980424E-004  0.2921121E+03  0.7818608E-02  0.1089252E+00
         -2   -1    0    0    0  501 -0.00000000000E+00  0.00000000000E+00  0.43388188073E+02  0.43388188148E+02  0.25500000000E-02 0. -1.
          2   -1    0    0  501    0  0.00000000000E+00 -0.00000000000E+00 -0.49166299658E+03  0.49166299659E+03  0.25500000000E-02 0.  1.
    5000001    1    1    2    0    0  0.69695226225E+02 -0.68936420847E+02 -0.84717665911E+02  0.15071740973E+03  0.77000000000E+02 0.  0.
   -5000001    1    1    2    0    0 -0.69695226225E+02  0.68936420847E+02 -0.36355714260E+03  0.38433377501E+03  0.77000000000E+02 0.  0.
<mgrwt>
<rscale>  0 0.29211208E+03</rscale>
<asrwt>0</asrwt>
<pdfrwt beam="1">  1        2 0.75640457E-01 0.29211208E+03</pdfrwt>
<pdfrwt beam="2">  1       -2 0.66751062E-02 0.29211208E+03</pdfrwt>
<totfact> 0.79392607E+03</totfact>
</mgrwt>
</event>
<event>
 4    1  0.5980424E-004  0.4170866E+03  0.7818608E-02  0.1038019E+00
         -2   -1    0    0    0  501 -0.00000000000E+00  0.00000000000E+00  0.10402682229E+04  0.10402682229E+04  0.25500000000E-02 0. -1.
          2   -1    0    0  501    0  0.00000000000E+00 -0.00000000000E+00 -0.41806812524E+02  0.41806812602E+02  0.25500000000E-02 0.  1.
    5000001    1    1    2    0    0 -0.12476296247E+03  0.12460903903E+03  0.29058032163E+03  0.34850987466E+03  0.77000000000E+02 0.  0.
   -5000001    1    1    2    0    0  0.12476296247E+03 -0.12460903903E+03  0.70788108874E+03  0.73356516084E+03  0.77000000000E+02 0.  0.
<mgrwt>
<rscale>  0 0.41708656E+03</rscale>
<asrwt>0</asrwt>
<pdfrwt beam="1">  1        2 0.64318183E-02 0.41708656E+03</pdfrwt>
<pdfrwt beam="2">  1       -2 0.16004124E+00 0.41708656E+03</pdfrwt>
<totfact> 0.30233420E+02</totfact>
</mgrwt>
</event>
<event>
 4    1  0.5980424E-004  0.2535615E+03  0.7818608E-02  0.1111074E+00
          2   -1    0    0  501    0  0.00000000000E+00  0.00000000000E+00  0.30146134895E+02  0.30146135003E+02  0.25500000000E-02 0.  1.
         -2   -1    0    0    0  501 -0.00000000000E+00 -0.00000000000E+00 -0.53318150888E+03  0.53318150889E+03  0.25500000000E-02 0. -1.
    5000001    1    1    2    0    0  0.20921783372E+02  0.52203338409E+02 -0.65886649452E+02  0.11590064770E+03  0.77000000000E+02 0.  0.
   -5000001    1    1    2    0    0 -0.20921783372E+02 -0.52203338409E+02 -0.43714872454E+03  0.44742699619E+03  0.77000000000E+02 0.  0.
<mgrwt>
<rscale>  0 0.25356152E+03</rscale>
<asrwt>0</asrwt>
<pdfrwt beam="1">  1        2 0.46378673E-02 0.25356152E+03</pdfrwt>
<pdfrwt beam="2">  1       -2 0.82027917E-01 0.25356152E+03</pdfrwt>
<totfact> 0.23278798E+03</totfact>
</mgrwt>
</event>
<event>
 4    1  0.5980424E-004  0.3743382E+03  0.7818608E-02  0.1053046E+00
         -2   -1    0    0    0  501 -0.00000000000E+00  0.00000000000E+00  0.14323302866E+03  0.14323302869E+03  0.25500000000E-02 0. -1.
          2   -1    0    0  501    0  0.00000000000E+00 -0.00000000000E+00 -0.24458236900E+03  0.24458236902E+03  0.25500000000E-02 0.  1.
    5000001    1    1    2    0    0  0.51180255729E+02  0.14680288336E+02 -0.21858493208E+03  0.23778835543E+03  0.77000000000E+02 0.  0.
   -5000001    1    1    2    0    0 -0.51180255729E+02 -0.14680288336E+02  0.11723559175E+03  0.15002704228E+03  0.77000000000E+02 0.  0.
<mgrwt>
<rscale>  0 0.37433821E+03</rscale>
<asrwt>0</asrwt>
<pdfrwt beam="1">  1        2 0.37628057E-01 0.37433821E+03</pdfrwt>
<pdfrwt beam="2">  1       -2 0.22035851E-01 0.37433821E+03</pdfrwt>
<totfact> 0.24397854E+03</totfact>
</mgrwt>
</event>
<event>
 4    1  0.5980424E-004  0.1982451E+03  0.7818608E-02  0.1151228E+00
         -2   -1    0    0    0  501 -0.00000000000E+00  0.00000000000E+00  0.45716362317E+02  0.45716362388E+02  0.25500000000E-02 0. -1.
          2   -1    0    0  501    0  0.00000000000E+00 -0.00000000000E+00 -0.21491830968E+03  0.21491830969E+03  0.25500000000E-02 0.  1.
    5000001    1    1    2    0    0  0.20498851619E+02  0.52632849457E+02 -0.11953028595E+03  0.15299316658E+03  0.77000000000E+02 0.  0.
   -5000001    1    1    2    0    0 -0.20498851619E+02 -0.52632849457E+02 -0.49671661406E+02  0.10764150550E+03  0.77000000000E+02 0.  0.
<mgrwt>
<rscale>  0 0.19824513E+03</rscale>
<asrwt>0</asrwt>
<pdfrwt beam="1">  1        2 0.33064355E-01 0.19824513E+03</pdfrwt>
<pdfrwt beam="2">  1       -2 0.70332866E-02 0.19824513E+03</pdfrwt>
<totfact> 0.17577119E+04</totfact>
</mgrwt>
</event>
<event>
 4    1  0.5980424E-004  0.1983353E+03  0.7818608E-02  0.1151151E+00
          2   -1    0    0  501    0  0.00000000000E+00  0.00000000000E+00  0.22281850712E+04  0.22281850712E+04  0.25500000000E-02 0.  1.
         -2   -1    0    0    0  501 -0.00000000000E+00 -0.00000000000E+00 -0.44135548862E+01  0.44135556228E+01  0.25500000000E-02 0. -1.
    5000001    1    1    2    0    0 -0.43768477548E+02 -0.36627607806E+02  0.13984247443E+04  0.14017053994E+04  0.77000000000E+02 0.  0.
   -5000001    1    1    2    0    0  0.43768477548E+02  0.36627607806E+02  0.82534677209E+03  0.83089322748E+03  0.77000000000E+02 0.  0.
<mgrwt>
<rscale>  0 0.19833525E+03</rscale>
<asrwt>0</asrwt>
<pdfrwt beam="1">  1        2 0.34279769E+00 0.19833525E+03</pdfrwt>
<pdfrwt beam="2">  1       -2 0.67900852E-03 0.19833525E+03</pdfrwt>
<totfact> 0.20798489E+04</totfact>
</mgrwt>
</event>
<event>
 4    1  0.5980424E-004  0.3280131E+03  0.7818608E-02  0.1072019E+00
          2   -1    0    0  501    0  0.00000000000E+00  0.00000000000E+00  0.16469025075E+03  0.16469025077E+03  0.25500000000E-02 0.  1.
         -2   -1    0    0    0  501 -0.00000000000E+00 -0.00000000000E+00 -0.16332571104E+03  0.16332571106E+03  0.25500000000E-02 0. -1.
    5000001    1    1    2    0    0 -0.15988593053E+02  0.14117113791E+03  0.28686565904E+02  0.16412447822E+03  0.77000000000E+02 0.  0.
   -5000001    1    1    2    0    0  0.15988593053E+02 -0.14117113791E+03 -0.27322026195E+02  0.16389148361E+03  0.77000000000E+02 0.  0.
<mgrwt>
<rscale>  0 0.32801312E+03</rscale>
<asrwt>0</asrwt>
<pdfrwt beam="1">  1        2 0.25336962E-01 0.32801312E+03</pdfrwt>
<pdfrwt beam="2">  1       -2 0.25127032E-01 0.32801312E+03</pdfrwt>
<totfact> 0.29910250E+03</totfact>
</mgrwt>
</event>
<event>
 4    1  0.5980424E-004  0.2340492E+03  0.7818608E-02  0.1123822E+00
         -2   -1    0    0    0  501 -0.00000000000E+00  0.00000000000E+00  0.70594870484E+03  0.70594870484E+03  0.25500000000E-02 0. -1.
          2   -1    0    0  501    0  0.00000000000E+00 -0.00000000000E+00 -0.19399076569E+02  0.19399076736E+02  0.25500000000E-02 0.  1.
    5000001    1    1    2    0    0  0.49417160272E+02  0.68484146277E+01  0.11814948378E+03  0.14959029725E+03  0.77000000000E+02 0.  0.
   -5000001    1    1    2    0    0 -0.49417160272E+02 -0.68484146277E+01  0.56840014449E+03  0.57575748433E+03  0.77000000000E+02 0.  0.
<mgrwt>
<rscale>  0 0.23404917E+03</rscale>
<asrwt>0</asrwt>
<pdfrwt beam="1">  1        2 0.29844733E-02 0.23404917E+03</pdfrwt>
<pdfrwt beam="2">  1       -2 0.10860749E+00 0.23404917E+03</pdfrwt>
<totfact> 0.22075371E+03</totfact>
</mgrwt>
</event>
<event>
 4    1  0.5980424E-004  0.3145426E+03  0.7818608E-02  0.1078189E+00
          2   -1    0    0  501    0  0.00000000000E+00  0.00000000000E+00  0.15501931152E+04  0.15501931152E+04  0.25500000000E-02 0.  1.
         -2   -1    0    0    0  501 -0.00000000000E+00 -0.00000000000E+00 -0.15955595468E+02  0.15955595671E+02  0.25500000000E-02 0. -1.
    5000001    1    1    2    0    0 -0.13679581660E+03  0.92832866383E+01  0.75494322753E+03  0.77114690665E+03  0.77000000000E+02 0.  0.
   -5000001    1    1    2    0    0  0.13679581660E+03 -0.92832866383E+01  0.77929429225E+03  0.79500180426E+03  0.77000000000E+02 0.  0.
<mgrwt>
<rscale>  0 0.31454255E+03</rscale>
<asrwt>0</asrwt>
<pdfrwt beam="1">  1        2 0.23849124E+00 0.31454255E+03</pdfrwt>
<pdfrwt beam="2">  1       -2 0.24547071E-02 0.31454255E+03</pdfrwt>
<totfact> 0.73394981E+03</totfact>
</mgrwt>
</event>
<event>
 4    1  0.5980424E-004  0.1937644E+03  0.7818608E-02  0.1155109E+00
         -2   -1    0    0    0  501 -0.00000000000E+00  0.00000000000E+00  0.33174269582E+02  0.33174269680E+02  0.25500000000E-02 0. -1.
          2   -1    0    0  501    0  0.00000000000E+00 -0.00000000000E+00 -0.28293500452E+03  0.28293500453E+03  0.25500000000E-02 0.  1.
    5000001    1    1    2    0    0  0.27390234041E+02  0.18808028521E+02 -0.20401966661E+03  0.22058329769E+03  0.77000000000E+02 0.  0.
   -5000001    1    1    2    0    0 -0.27390234041E+02 -0.18808028521E+02 -0.45741068327E+02  0.95525976516E+02  0.77000000000E+02 0.  0.
<mgrwt>
<rscale>  0 0.19376442E+03</rscale>
<asrwt>0</asrwt>
<pdfrwt beam="1">  1        2 0.43528461E-01 0.19376442E+03</pdfrwt>
<pdfrwt beam="2">  1       -2 0.51037340E-02 0.19376442E+03</pdfrwt>
<totfact> 0.21302438E+04</totfact>
</mgrwt>
</event>
<event>
 4    1  0.5980424E-004  0.2436958E+03  0.7818608E-02  0.1117355E+00
         -2   -1    0    0    0  501 -0.00000000000E+00  0.00000000000E+00  0.54635515698E+02  0.54635515757E+02  0.25500000000E-02 0. -1.
          2   -1    0    0  501    0  0.00000000000E+00 -0.00000000000E+00 -0.27174472789E+03  0.27174472790E+03  0.25500000000E-02 0.  1.
    5000001    1    1    2    0    0 -0.25317169214E+02  0.89086770399E+02 -0.13326817030E+03  0.17962966607E+03  0.77000000000E+02 0.  0.
   -5000001    1    1    2    0    0  0.25317169214E+02 -0.89086770399E+02 -0.83841041890E+02  0.14675057759E+03  0.77000000000E+02 0.  0.
<mgrwt>
<rscale>  0 0.24369582E+03</rscale>
<asrwt>0</asrwt>
<pdfrwt beam="1">  1        2 0.41806881E-01 0.24369582E+03</pdfrwt>
<pdfrwt beam="2">  1       -2 0.84054641E-02 0.24369582E+03</pdfrwt>
<totfact> 0.10480971E+04</totfact>
</mgrwt>
</event>
<event>
 4    1  0.5980424E-004  0.3483544E+03  0.7818608E-02  0.1063293E+00
         -2   -1    0    0    0  501 -0.00000000000E+00  0.00000000000E+00  0.71860776807E+02  0.71860776852E+02  0.25500000000E-02 0. -1.
          2   -1    0    0  501    0  0.00000000000E+00 -0.00000000000E+00 -0.42217319927E+03  0.42217319927E+03  0.25500000000E-02 0.  1.
    5000001    1    1    2    0    0 -0.24790151317E+02  0.14695303942E+03 -0.10865295874E+03  0.19986048343E+03  0.77000000000E+02 0.  0.
   -5000001    1    1    2    0    0  0.24790151317E+02 -0.14695303942E+03 -0.24165946373E+03  0.29417349269E+03  0.77000000000E+02 0.  0.
<mgrwt>
<rscale>  0 0.34835438E+03</rscale>
<asrwt>0</asrwt>
<pdfrwt beam="1">  1        2 0.64949721E-01 0.34835438E+03</pdfrwt>
<pdfrwt beam="2">  1       -2 0.11055504E-01 0.34835438E+03</pdfrwt>
<totfact> 0.42619549E+03</totfact>
</mgrwt>
</event>
<event>
 4    1  0.5980424E-004  0.2937863E+03  0.7818608E-02  0.1088389E+00
         -2   -1    0    0    0  501 -0.00000000000E+00  0.00000000000E+00  0.36341184724E+02  0.36341184813E+02  0.25500000000E-02 0. -1.
          2   -1    0    0  501    0  0.00000000000E+00 -0.00000000000E+00 -0.59375049632E+03  0.59375049633E+03  0.25500000000E-02 0.  1.
    5000001    1    1    2    0    0 -0.43412447892E+02  0.11551647240E+03 -0.32265329130E+03  0.35392491070E+03  0.77000000000E+02 0.  0.
   -5000001    1    1    2    0    0  0.43412447892E+02 -0.11551647240E+03 -0.23475602030E+03  0.27616677044E+03  0.77000000000E+02 0.  0.
<mgrwt>
<rscale>  0 0.29378629E+03</rscale>
<asrwt>0</asrwt>
<pdfrwt beam="1">  1        2 0.91346223E-01 0.29378629E+03</pdfrwt>
<pdfrwt beam="2">  1       -2 0.55909519E-02 0.29378629E+03</pdfrwt>
<totfact> 0.84142759E+03</totfact>
</mgrwt>
</event>
<event>
 4    1  0.5980424E-004  0.1704228E+03  0.7818608E-02  0.1177408E+00
         -2   -1    0    0    0  501 -0.00000000000E+00  0.00000000000E+00  0.84013880130E+02  0.84013880168E+02  0.25500000000E-02 0. -1.
          2   -1    0    0  501    0  0.00000000000E+00 -0.00000000000E+00 -0.86425987804E+02  0.86425987841E+02  0.25500000000E-02 0.  1.
    5000001    1    1    2    0    0 -0.21305484753E+02 -0.25981727091E+02  0.13043487586E+02  0.85018270928E+02  0.77000000000E+02 0.  0.
   -5000001    1    1    2    0    0  0.21305484753E+02  0.25981727091E+02 -0.15455595260E+02  0.85421597082E+02  0.77000000000E+02 0.  0.
<mgrwt>
<rscale>  0 0.17042280E+03</rscale>
<asrwt>0</asrwt>
<pdfrwt beam="1">  1        2 0.13296306E-01 0.17042280E+03</pdfrwt>
<pdfrwt beam="2">  1       -2 0.12925212E-01 0.17042280E+03</pdfrwt>
<totfact> 0.18705659E+04</totfact>
</mgrwt>
</event>
<event>
 4    1  0.5980424E-004  0.1676999E+03  0.7818608E-02  0.1180268E+00
          2   -1    0    0  501    0  0.00000000000E+00  0.00000000000E+00  0.94177386479E+03  0.94177386479E+03  0.25500000000E-02 0.  1.
         -2   -1    0    0    0  501 -0.00000000000E+00 -0.00000000000E+00 -0.74654984336E+01  0.74654988691E+01  0.25500000000E-02 0. -1.
    5000001    1    1    2    0    0  0.27485909850E+02 -0.44078014962E+01  0.36481180555E+03  0.37388709181E+03  0.77000000000E+02 0.  0.
   -5000001    1    1    2    0    0 -0.27485909850E+02  0.44078014962E+01  0.56949656081E+03  0.57535227186E+03  0.77000000000E+02 0.  0.
<mgrwt>
<rscale>  0 0.16769987E+03</rscale>
<asrwt>0</asrwt>
<pdfrwt beam="1">  1        2 0.14488816E+00 0.16769987E+03</pdfrwt>
<pdfrwt beam="2">  1       -2 0.11485393E-02 0.16769987E+03</pdfrwt>
<totfact> 0.47680691E+04</totfact>
</mgrwt>
</event>
<event>
 4    1  0.5980424E-004  0.2934395E+03  0.7818608E-02  0.1088567E+00
         -2   -1    0    0    0  501 -0.00000000000E+00  0.00000000000E+00  0.36609406352E+03  0.36609406353E+03  0.25500000000E-02 0. -1.
          2   -1    0    0  501    0  0.00000000000E+00 -0.00000000000E+00 -0.58800982752E+02  0.58800982807E+02  0.25500000000E-02 0.  1.
    5000001    1    1    2    0    0  0.64144048025E+02 -0.46101222345E+02  0.29371890117E+03  0.31375081594E+03  0.77000000000E+02 0.  0.
   -5000001    1    1    2    0    0 -0.64144048025E+02  0.46101222345E+02  0.13574179599E+02  0.11114423040E+03  0.77000000000E+02 0.  0.
<mgrwt>
<rscale>  0 0.29343954E+03</rscale>
<asrwt>0</asrwt>
<pdfrwt beam="1">  1        2 0.90463051E-02 0.29343954E+03</pdfrwt>
<pdfrwt beam="2">  1       -2 0.56322163E-01 0.29343954E+03</pdfrwt>
<totfact> 0.21915570E+03</totfact>
</mgrwt>
</event>
<event>
 4    1  0.5980424E-004  0.1984308E+03  0.7818608E-02  0.1151070E+00
         -2   -1    0    0    0  501 -0.00000000000E+00  0.00000000000E+00  0.59702658890E+02  0.59702658945E+02  0.25500000000E-02 0. -1.
          2   -1    0    0  501    0  0.00000000000E+00 -0.00000000000E+00 -0.16487874401E+03  0.16487874403E+03  0.25500000000E-02 0.  1.
    5000001    1    1    2    0    0 -0.35415167875E+02  0.47589558238E+02 -0.75101761359E+02  0.12283433855E+03  0.77000000000E+02 0.  0.
   -5000001    1    1    2    0    0  0.35415167875E+02 -0.47589558238E+02 -0.30074323764E+02  0.10174706442E+03  0.77000000000E+02 0.  0.
<mgrwt>
<rscale>  0 0.19843084E+03</rscale>
<asrwt>0</asrwt>
<pdfrwt beam="1">  1        2 0.25365960E-01 0.19843084E+03</pdfrwt>
<pdfrwt beam="2">  1       -2 0.91850245E-02 0.19843084E+03</pdfrwt>
<totfact> 0.15515767E+04</totfact>
</mgrwt>
</event>
<event>
 4    1  0.5980424E-004  0.2124923E+03  0.7818608E-02  0.1139607E+00
          2   -1    0    0  501    0  0.00000000000E+00  0.00000000000E+00  0.79477683262E+03  0.79477683263E+03  0.25500000000E-02 0.  1.
         -2   -1    0    0    0  501 -0.00000000000E+00 -0.00000000000E+00 -0.14203037678E+02  0.14203037907E+02  0.25500000000E-02 0. -1.
    5000001    1    1    2    0    0 -0.18119711382E+02 -0.69448790916E+02  0.44516556697E+03  0.45744162525E+03  0.77000000000E+02 0.  0.
   -5000001    1    1    2    0    0  0.18119711382E+02  0.69448790916E+02  0.33540822798E+03  0.35153824528E+03  0.77000000000E+02 0.  0.
<mgrwt>
<rscale>  0 0.21249231E+03</rscale>
<asrwt>0</asrwt>
<pdfrwt beam="1">  1        2 0.12227335E+00 0.21249231E+03</pdfrwt>
<pdfrwt beam="2">  1       -2 0.21850830E-02 0.21249231E+03</pdfrwt>
<totfact> 0.23769034E+04</totfact>
</mgrwt>
</event>
<event>
 4    1  0.5980424E-004  0.2469445E+03  0.7818608E-02  0.1115251E+00
          2   -1    0    0  501    0  0.00000000000E+00  0.00000000000E+00  0.23191578619E+03  0.23191578621E+03  0.25500000000E-02 0.  1.
         -2   -1    0    0    0  501 -0.00000000000E+00 -0.00000000000E+00 -0.65736788712E+02  0.65736788761E+02  0.25500000000E-02 0. -1.
    5000001    1    1    2    0    0  0.47341253494E+02 -0.69915173162E+02  0.13945870531E+03  0.18029713311E+03  0.77000000000E+02 0.  0.
   -5000001    1    1    2    0    0 -0.47341253494E+02  0.69915173162E+02  0.26720292176E+02  0.11735544186E+03  0.77000000000E+02 0.  0.
<mgrwt>
<rscale>  0 0.24694452E+03</rscale>
<asrwt>0</asrwt>
<pdfrwt beam="1">  1        2 0.35679352E-01 0.24694452E+03</pdfrwt>
<pdfrwt beam="2">  1       -2 0.10113352E-01 0.24694452E+03</pdfrwt>
<totfact> 0.92949325E+03</totfact>
</mgrwt>
</event>
<event>
 4    1  0.5980424E-004  0.1992519E+03  0.7818608E-02  0.1150372E+00
         -2   -1    0    0    0  501 -0.00000000000E+00  0.00000000000E+00  0.19987294726E+02  0.19987294888E+02  0.25500000000E-02 0. -1.
          2   -1    0    0  501    0  0.00000000000E+00 -0.00000000000E+00 -0.49658192837E+03  0.49658192837E+03  0.25500000000E-02 0.  1.
    5000001    1    1    2    0    0  0.14479360135E+02  0.61019705774E+02 -0.21767509692E+03  0.23925823744E+03  0.77000000000E+02 0.  0.
   -5000001    1    1    2    0    0 -0.14479360135E+02 -0.61019705774E+02 -0.25891953672E+03  0.27731098583E+03  0.77000000000E+02 0.  0.
<mgrwt>
<rscale>  0 0.19925189E+03</rscale>
<asrwt>0</asrwt>
<pdfrwt beam="1">  1        2 0.76397210E-01 0.19925189E+03</pdfrwt>
<pdfrwt beam="2">  1       -2 0.30749688E-02 0.19925189E+03</pdfrwt>
<totfact> 0.24820244E+04</totfact>
</mgrwt>
</event>
<event>
 4    1  0.5980424E-004  0.2815247E+03  0.7818608E-02  0.1094859E+00
         -2   -1    0    0    0  501 -0.00000000000E+00  0.00000000000E+00  0.16795534600E+02  0.16795534793E+02  0.25500000000E-02 0. -1.
          2   -1    0    0  501    0  0.00000000000E+00 -0.00000000000E+00 -0.11797208742E+04  0.11797208742E+04  0.25500000000E-02 0.  1.
    5000001    1    1    2    0    0 -0.41910228214E+02 -0.10477923663E+03 -0.72558448986E+03  0.73833394042E+03  0.77000000000E+02 0.  0.
   -5000001    1    1    2    0    0  0.41910228214E+02  0.10477923663E+03 -0.43734084978E+03  0.45818246861E+03  0.77000000000E+02 0.  0.
<mgrwt>
<rscale>  0 0.28152473E+03</rscale>
<asrwt>0</asrwt>
<pdfrwt beam="1">  1        2 0.18149545E+00 0.28152473E+03</pdfrwt>
<pdfrwt beam="2">  1       -2 0.25839294E-02 0.28152473E+03</pdfrwt>
<totfact> 0.10853467E+04</totfact>
</mgrwt>
</event>
<event>
 4    1  0.5980424E-004  0.2260006E+03  0.7818608E-02  0.1129487E+00
         -2   -1    0    0    0  501 -0.00000000000E+00  0.00000000000E+00  0.54731007377E+01  0.54731013317E+01  0.25500000000E-02 0. -1.
          2   -1    0    0  501    0  0.00000000000E+00 -0.00000000000E+00 -0.23330589483E+04  0.23330589483E+04  0.25500000000E-02 0.  1.
    5000001    1    1    2    0    0  0.34453934091E+02 -0.32512410627E+01 -0.38653247270E+03  0.39564377487E+03  0.77000000000E+02 0.  0.
   -5000001    1    1    2    0    0 -0.34453934091E+02  0.32512410627E+01 -0.19410533748E+04  0.19428882747E+04  0.77000000000E+02 0.  0.
<mgrwt>
<rscale>  0 0.22600060E+03</rscale>
<asrwt>0</asrwt>
<pdfrwt beam="1">  1        2 0.35893135E+00 0.22600060E+03</pdfrwt>
<pdfrwt beam="2">  1       -2 0.84201741E-03 0.22600060E+03</pdfrwt>
<totfact> 0.13474519E+04</totfact>
</mgrwt>
</event>
<event>
 4    1  0.5980424E-004  0.2035031E+03  0.7818608E-02  0.1146817E+00
         -2   -1    0    0    0  501 -0.00000000000E+00  0.00000000000E+00  0.20278618962E+04  0.20278618962E+04  0.25500000000E-02 0. -1.
          2   -1    0    0  501    0  0.00000000000E+00 -0.00000000000E+00 -0.51055611166E+01  0.51055617534E+01  0.25500000000E-02 0.  1.
    5000001    1    1    2    0    0  0.88975396636E+01  0.65228065092E+02  0.11064167861E+04  0.11110449907E+04  0.77000000000E+02 0.  0.
   -5000001    1    1    2    0    0 -0.88975396636E+01 -0.65228065092E+02  0.91633954892E+03  0.92192246724E+03  0.77000000000E+02 0.  0.
<mgrwt>
<rscale>  0 0.20350306E+03</rscale>
<asrwt>0</asrwt>
<pdfrwt beam="1">  1        2 0.78547076E-03 0.20350306E+03</pdfrwt>
<pdfrwt beam="2">  1       -2 0.31197885E+00 0.20350306E+03</pdfrwt>
<totfact> 0.62804192E+02</totfact>
</mgrwt>
</event>
<event>
 4    1  0.5980424E-004  0.1835926E+03  0.7818608E-02  0.1164371E+00
          2   -1    0    0  501    0  0.00000000000E+00  0.00000000000E+00  0.54700264191E+02  0.54700264251E+02  0.25500000000E-02 0.  1.
         -2   -1    0    0    0  501 -0.00000000000E+00 -0.00000000000E+00 -0.15404965706E+03  0.15404965708E+03  0.25500000000E-02 0. -1.
    5000001    1    1    2    0    0 -0.34155767413E+02  0.24349131377E+02 -0.80564643779E+02  0.11907627166E+03  0.77000000000E+02 0.  0.
   -5000001    1    1    2    0    0  0.34155767413E+02 -0.24349131377E+02 -0.18784749092E+02  0.89673649668E+02  0.77000000000E+02 0.  0.
<mgrwt>
<rscale>  0 0.18359256E+03</rscale>
<asrwt>0</asrwt>
<pdfrwt beam="1">  1        2 0.84154253E-02 0.18359256E+03</pdfrwt>
<pdfrwt beam="2">  1       -2 0.23699947E-01 0.18359256E+03</pdfrwt>
<totfact> 0.11953224E+04</totfact>
</mgrwt>
</event>
<event>
 4    1  0.5980424E-004  0.2367796E+03  0.7818608E-02  0.1121957E+00
          2   -1    0    0  501    0  0.00000000000E+00  0.00000000000E+00  0.15959358152E+04  0.15959358152E+04  0.25500000000E-02 0.  1.
         -2   -1    0    0    0  501 -0.00000000000E+00 -0.00000000000E+00 -0.87823948818E+01  0.87823952520E+01  0.25500000000E-02 0. -1.
    5000001    1    1    2    0    0  0.41302296165E+02  0.48972783695E+02  0.36586052144E+03  0.37932457653E+03  0.77000000000E+02 0.  0.
   -5000001    1    1    2    0    0 -0.41302296165E+02 -0.48972783695E+02  0.12212928989E+04  0.12253936339E+04  0.77000000000E+02 0.  0.
<mgrwt>
<rscale>  0 0.23677955E+03</rscale>
<asrwt>0</asrwt>
<pdfrwt beam="1">  1        2 0.24552863E+00 0.23677955E+03</pdfrwt>
<pdfrwt beam="2">  1       -2 0.13511374E-02 0.23677955E+03</pdfrwt>
<totfact> 0.16581762E+04</totfact>
</mgrwt>
</event>
<event>
 4    1  0.5980424E-004  0.4775112E+03  0.7818608E-02  0.1019821E+00
         -2   -1    0    0    0  501 -0.00000000000E+00  0.00000000000E+00  0.12702733878E+03  0.12702733881E+03  0.25500000000E-02 0. -1.
          2   -1    0    0  501    0  0.00000000000E+00 -0.00000000000E+00 -0.44875571366E+03  0.44875571367E+03  0.25500000000E-02 0.  1.
    5000001    1    1    2    0    0  0.15252680240E+03 -0.66113466143E+02  0.23744654921E+02  0.18473825942E+03  0.77000000000E+02 0.  0.
   -5000001    1    1    2    0    0 -0.15252680240E+03  0.66113466143E+02 -0.34547302980E+03  0.39104479305E+03  0.77000000000E+02 0.  0.
<mgrwt>
<rscale>  0 0.47751123E+03</rscale>
<asrwt>0</asrwt>
<pdfrwt beam="1">  1        2 0.69039340E-01 0.47751123E+03</pdfrwt>
<pdfrwt beam="2">  1       -2 0.19542668E-01 0.47751123E+03</pdfrwt>
<totfact> 0.15465646E+03</totfact>
</mgrwt>
</event>
<event>
 4    1  0.5980424E-004  0.2812533E+03  0.7818608E-02  0.1095006E+00
         -2   -1    0    0    0  501 -0.00000000000E+00  0.00000000000E+00  0.66006938967E+02  0.66006939016E+02  0.25500000000E-02 0. -1.
          2   -1    0    0  501    0  0.00000000000E+00 -0.00000000000E+00 -0.29960257619E+03  0.29960257621E+03  0.25500000000E-02 0.  1.
    5000001    1    1    2    0    0  0.48608063752E+01 -0.11417354412E+03 -0.80315769880E+02  0.15949560655E+03  0.77000000000E+02 0.  0.
   -5000001    1    1    2    0    0 -0.48608063752E+01  0.11417354412E+03 -0.15327986735E+03  0.20611390868E+03  0.77000000000E+02 0.  0.
<mgrwt>
<rscale>  0 0.28125326E+03</rscale>
<asrwt>0</asrwt>
<pdfrwt beam="1">  1        2 0.46092704E-01 0.28125326E+03</pdfrwt>
<pdfrwt beam="2">  1       -2 0.10154914E-01 0.28125326E+03</pdfrwt>
<totfact> 0.70456130E+03</totfact>
</mgrwt>
</event>
<event>
 4    1  0.5980424E-004  0.1976618E+03  0.7818608E-02  0.1151727E+00
          2   -1    0    0  501    0  0.00000000000E+00  0.00000000000E+00  0.10320440420E+03  0.10320440423E+03  0.25500000000E-02 0.  1.
         -2   -1    0    0    0  501 -0.00000000000E+00 -0.00000000000E+00 -0.94642735204E+02  0.94642735239E+02  0.25500000000E-02 0. -1.
    5000001    1    1    2    0    0 -0.15521795340E+02 -0.22425081003E+02 -0.51401684822E+02  0.96513955422E+02  0.77000000000E+02 0.  0.
   -5000001    1    1    2    0    0  0.15521795340E+02  0.22425081003E+02  0.59963353821E+02  0.10133318405E+03  0.77000000000E+02 0.  0.
<mgrwt>
<rscale>  0 0.19766180E+03</rscale>
<asrwt>0</asrwt>
<pdfrwt beam="1">  1        2 0.15877601E-01 0.19766180E+03</pdfrwt>
<pdfrwt beam="2">  1       -2 0.14560421E-01 0.19766180E+03</pdfrwt>
<totfact> 0.12640612E+04</totfact>
</mgrwt>
</event>
<event>
 4    1  0.5980424E-004  0.1702971E+03  0.7818608E-02  0.1177538E+00
         -2   -1    0    0    0  501 -0.00000000000E+00  0.00000000000E+00  0.23360346632E+01  0.23360360549E+01  0.25500000000E-02 0. -1.
          2   -1    0    0  501    0  0.00000000000E+00 -0.00000000000E+00 -0.31036661110E+04  0.31036661110E+04  0.25500000000E-02 0.  1.
    5000001    1    1    2    0    0 -0.20770440104E+02 -0.25491739543E+01 -0.10085836738E+04  0.10117351118E+04  0.77000000000E+02 0.  0.
   -5000001    1    1    2    0    0  0.20770440104E+02  0.25491739543E+01 -0.20927464025E+04  0.20942670352E+04  0.77000000000E+02 0.  0.
<mgrwt>
<rscale>  0 0.17029708E+03</rscale>
<asrwt>0</asrwt>
<pdfrwt beam="1">  1        2 0.47748379E+00 0.17029708E+03</pdfrwt>
<pdfrwt beam="2">  1       -2 0.35939254E-03 0.17029708E+03</pdfrwt>
<totfact> 0.16748297E+04</totfact>
</mgrwt>
</event>
<event>
 4    1  0.5980424E-004  0.3345067E+03  0.7818608E-02  0.1069160E+00
          2   -1    0    0  501    0  0.00000000000E+00  0.00000000000E+00  0.22632833513E+03  0.22632833514E+03  0.25500000000E-02 0.  1.
         -2   -1    0    0    0  501 -0.00000000000E+00 -0.00000000000E+00 -0.12359781838E+03  0.12359781841E+03  0.25500000000E-02 0. -1.
    5000001    1    1    2    0    0 -0.68128961356E+02  0.34546286130E+02  0.18455134475E+03  0.21406354222E+03  0.77000000000E+02 0.  0.
   -5000001    1    1    2    0    0  0.68128961356E+02 -0.34546286130E+02 -0.81820828004E+02  0.13586261133E+03  0.77000000000E+02 0.  0.
<mgrwt>
<rscale>  0 0.33450673E+03</rscale>
<asrwt>0</asrwt>
<pdfrwt beam="1">  1        2 0.34819744E-01 0.33450673E+03</pdfrwt>
<pdfrwt beam="2">  1       -2 0.19015049E-01 0.33450673E+03</pdfrwt>
<totfact> 0.34183675E+03</totfact>
</mgrwt>
</event>
<event>
 4    1  0.5980424E-004  0.3568413E+03  0.7818608E-02  0.1059842E+00
          2   -1    0    0  501    0  0.00000000000E+00  0.00000000000E+00  0.37829029967E+03  0.37829029968E+03  0.25500000000E-02 0.  1.
         -2   -1    0    0    0  501 -0.00000000000E+00 -0.00000000000E+00 -0.84152105038E+02  0.84152105077E+02  0.25500000000E-02 0. -1.
    5000001    1    1    2    0    0 -0.21289322388E+02 -0.15772827825E+03  0.11603481453E+03  0.21148173252E+03  0.77000000000E+02 0.  0.
   -5000001    1    1    2    0    0  0.21289322388E+02  0.15772827825E+03  0.17810338011E+03  0.25096067224E+03  0.77000000000E+02 0.  0.
<mgrwt>
<rscale>  0 0.35684128E+03</rscale>
<asrwt>0</asrwt>
<pdfrwt beam="1">  1        2 0.58198508E-01 0.35684128E+03</pdfrwt>
<pdfrwt beam="2">  1       -2 0.12946478E-01 0.35684128E+03</pdfrwt>
<totfact> 0.37214129E+03</totfact>
</mgrwt>
</event>
<event>
 4    1  0.5980424E-004  0.2727405E+03  0.7818608E-02  0.1099721E+00
          2   -1    0    0  501    0  0.00000000000E+00  0.00000000000E+00  0.12829889719E+03  0.12829889721E+03  0.25500000000E-02 0.  1.
         -2   -1    0    0    0  501 -0.00000000000E+00 -0.00000000000E+00 -0.14494932301E+03  0.14494932303E+03  0.25500000000E-02 0. -1.
    5000001    1    1    2    0    0 -0.10316970203E+03 -0.24100700607E+02 -0.46382867853E+02  0.13894315966E+03  0.77000000000E+02 0.  0.
   -5000001    1    1    2    0    0  0.10316970203E+03  0.24100700607E+02  0.29732442037E+02  0.13430506058E+03  0.77000000000E+02 0.  0.
<mgrwt>
<rscale>  0 0.27274045E+03</rscale>
<asrwt>0</asrwt>
<pdfrwt beam="1">  1        2 0.19738292E-01 0.27274045E+03</pdfrwt>
<pdfrwt beam="2">  1       -2 0.22299896E-01 0.27274045E+03</pdfrwt>
<totfact> 0.48696574E+03</totfact>
</mgrwt>
</event>
<event>
 4    1  0.5980424E-004  0.1700300E+03  0.7818608E-02  0.1177817E+00
         -2   -1    0    0    0  501 -0.00000000000E+00  0.00000000000E+00  0.54878959652E+01  0.54878965577E+01  0.25500000000E-02 0. -1.
          2   -1    0    0  501    0  0.00000000000E+00 -0.00000000000E+00 -0.13169983122E+04  0.13169983122E+04  0.25500000000E-02 0.  1.
    5000001    1    1    2    0    0  0.94190207592E+01  0.33011399724E+02 -0.57052367262E+03  0.57671893630E+03  0.77000000000E+02 0.  0.
   -5000001    1    1    2    0    0 -0.94190207592E+01 -0.33011399724E+02 -0.74098674357E+03  0.74576727242E+03  0.77000000000E+02 0.  0.
<mgrwt>
<rscale>  0 0.17003000E+03</rscale>
<asrwt>0</asrwt>
<pdfrwt beam="1">  1        2 0.20261487E+00 0.17003000E+03</pdfrwt>
<pdfrwt beam="2">  1       -2 0.84429278E-03 0.17003000E+03</pdfrwt>
<totfact> 0.45212856E+04</totfact>
</mgrwt>
</event>
<event>
 4    1  0.5980424E-004  0.3554276E+03  0.7818608E-02  0.1060409E+00
         -2   -1    0    0    0  501 -0.00000000000E+00  0.00000000000E+00  0.10823388358E+02  0.10823388658E+02  0.25500000000E-02 0. -1.
          2   -1    0    0  501    0  0.00000000000E+00 -0.00000000000E+00 -0.29179582317E+04  0.29179582317E+04  0.25500000000E-02 0.  1.
    5000001    1    1    2    0    0  0.10252163688E+03 -0.58812388506E+02 -0.23442529748E+04  0.23484932601E+04  0.77000000000E+02 0.  0.
   -5000001    1    1    2    0    0 -0.10252163688E+03  0.58812388506E+02 -0.56288186858E+03  0.58028836025E+03  0.77000000000E+02 0.  0.
<mgrwt>
<rscale>  0 0.35542760E+03</rscale>
<asrwt>0</asrwt>
<pdfrwt beam="1">  1        2 0.44891602E+00 0.35542760E+03</pdfrwt>
<pdfrwt beam="2">  1       -2 0.16651390E-02 0.35542760E+03</pdfrwt>
<totfact> 0.23374757E+03</totfact>
</mgrwt>
</event>
<event>
 4    1  0.5980424E-004  0.1912610E+03  0.7818608E-02  0.1157329E+00
          2   -1    0    0  501    0  0.00000000000E+00  0.00000000000E+00  0.16427055360E+03  0.16427055362E+03  0.25500000000E-02 0.  1.
         -2   -1    0    0    0  501 -0.00000000000E+00 -0.00000000000E+00 -0.55671550736E+02  0.55671550794E+02  0.25500000000E-02 0. -1.
    5000001    1    1    2    0    0 -0.43842605424E+02 -0.31918086767E+02  0.35220661816E+02  0.10055065058E+03  0.77000000000E+02 0.  0.
   -5000001    1    1    2    0    0  0.43842605424E+02  0.31918086767E+02  0.73378341044E+02  0.11939145383E+03  0.77000000000E+02 0.  0.
<mgrwt>
<rscale>  0 0.19126104E+03</rscale>
<asrwt>0</asrwt>
<pdfrwt beam="1">  1        2 0.25272393E-01 0.19126104E+03</pdfrwt>
<pdfrwt beam="2">  1       -2 0.85648540E-02 0.19126104E+03</pdfrwt>
<totfact> 0.17335246E+04</totfact>
</mgrwt>
</event>
<event>
 4    1  0.5980424E-004  0.4654039E+03  0.7818608E-02  0.1023225E+00
          2   -1    0    0  501    0  0.00000000000E+00  0.00000000000E+00  0.13290686300E+04  0.13290686300E+04  0.25500000000E-02 0.  1.
         -2   -1    0    0    0  501 -0.00000000000E+00 -0.00000000000E+00 -0.40742972509E+02  0.40742972589E+02  0.25500000000E-02 0. -1.
    5000001    1    1    2    0    0 -0.45494710921E+02  0.21040044315E+03  0.77188506028E+03  0.80503022396E+03  0.77000000000E+02 0.  0.
   -5000001    1    1    2    0    0  0.45494710921E+02 -0.21040044315E+03  0.51644059717E+03  0.56478137859E+03  0.77000000000E+02 0.  0.
<mgrwt>
<rscale>  0 0.46540394E+03</rscale>
<asrwt>0</asrwt>
<pdfrwt beam="1">  1        2 0.20447209E+00 0.46540394E+03</pdfrwt>
<pdfrwt beam="2">  1       -2 0.62681498E-02 0.46540394E+03</pdfrwt>
<totfact> 0.23350583E+03</totfact>
</mgrwt>
</event>
<event>
 4    1  0.5980424E-004  0.1779734E+03  0.7818608E-02  0.1169779E+00
          2   -1    0    0  501    0  0.00000000000E+00  0.00000000000E+00  0.16561871240E+04  0.16561871240E+04  0.25500000000E-02 0.  1.
         -2   -1    0    0    0  501 -0.00000000000E+00 -0.00000000000E+00 -0.47812430231E+01  0.47812437031E+01  0.25500000000E-02 0. -1.
    5000001    1    1    2    0    0 -0.32179075680E+02 -0.30570999459E+02  0.86697277119E+03  0.87151641688E+03  0.77000000000E+02 0.  0.
   -5000001    1    1    2    0    0  0.32179075680E+02  0.30570999459E+02  0.78443310976E+03  0.78945195079E+03  0.77000000000E+02 0.  0.
<mgrwt>
<rscale>  0 0.17797341E+03</rscale>
<asrwt>0</asrwt>
<pdfrwt beam="1">  1        2 0.25479790E+00 0.17797341E+03</pdfrwt>
<pdfrwt beam="2">  1       -2 0.73557626E-03 0.17797341E+03</pdfrwt>
<totfact> 0.36575971E+04</totfact>
</mgrwt>
</event>
<event>
 4    1  0.5980424E-004  0.4203285E+03  0.7818608E-02  0.1036959E+00
         -2   -1    0    0    0  501 -0.00000000000E+00  0.00000000000E+00  0.17108442813E+03  0.17108442815E+03  0.25500000000E-02 0. -1.
          2   -1    0    0  501    0  0.00000000000E+00 -0.00000000000E+00 -0.25817088885E+03  0.25817088886E+03  0.25500000000E-02 0.  1.
    5000001    1    1    2    0    0  0.98467279715E+02 -0.14518260012E+03 -0.13178564569E+03  0.23253010335E+03  0.77000000000E+02 0.  0.
   -5000001    1    1    2    0    0 -0.98467279715E+02  0.14518260012E+03  0.44699184981E+02  0.19672521366E+03  0.77000000000E+02 0.  0.
<mgrwt>
<rscale>  0 0.42032853E+03</rscale>
<asrwt>0</asrwt>
<pdfrwt beam="1">  1        2 0.39718598E-01 0.42032853E+03</pdfrwt>
<pdfrwt beam="2">  1       -2 0.26320681E-01 0.42032853E+03</pdfrwt>
<totfact> 0.16814111E+03</totfact>
</mgrwt>
</event>
<event>
 4    1  0.5980424E-004  0.2750806E+03  0.7818608E-02  0.1098407E+00
          2   -1    0    0  501    0  0.00000000000E+00  0.00000000000E+00  0.35069028695E+03  0.35069028696E+03  0.25500000000E-02 0.  1.
         -2   -1    0    0    0  501 -0.00000000000E+00 -0.00000000000E+00 -0.53943124513E+02  0.53943124573E+02  0.25500000000E-02 0. -1.
    5000001    1    1    2    0    0  0.10152948838E+03 -0.31221891982E+02  0.87629988394E+02  0.15776900334E+03  0.77000000000E+02 0.  0.
   -5000001    1    1    2    0    0 -0.10152948838E+03  0.31221891982E+02  0.20911717405E+03  0.24686440819E+03  0.77000000000E+02 0.  0.
<mgrwt>
<rscale>  0 0.27508057E+03</rscale>
<asrwt>0</asrwt>
<pdfrwt beam="1">  1        2 0.53952352E-01 0.27508057E+03</pdfrwt>
<pdfrwt beam="2">  1       -2 0.82989423E-02 0.27508057E+03</pdfrwt>
<totfact> 0.81715577E+03</totfact>
</mgrwt>
</event>
<event>
 4    1  0.5980424E-004  0.2293373E+03  0.7818608E-02  0.1127107E+00
         -2   -1    0    0    0  501 -0.00000000000E+00  0.00000000000E+00  0.13475439237E+02  0.13475439478E+02  0.25500000000E-02 0. -1.
          2   -1    0    0  501    0  0.00000000000E+00 -0.00000000000E+00 -0.97576745321E+03  0.97576745321E+03  0.25500000000E-02 0.  1.
    5000001    1    1    2    0    0 -0.39817536051E+02 -0.74247221526E+02 -0.52875271112E+03  0.54093115606E+03  0.77000000000E+02 0.  0.
   -5000001    1    1    2    0    0  0.39817536051E+02  0.74247221526E+02 -0.43353930286E+03  0.44831173664E+03  0.77000000000E+02 0.  0.
<mgrwt>
<rscale>  0 0.22933726E+03</rscale>
<asrwt>0</asrwt>
<pdfrwt beam="1">  1        2 0.15011801E+00 0.22933726E+03</pdfrwt>
<pdfrwt beam="2">  1       -2 0.20731453E-02 0.22933726E+03</pdfrwt>
<totfact> 0.19677243E+04</totfact>
</mgrwt>
</event>
<event>
 4    1  0.5980424E-004  0.2249259E+03  0.7818608E-02  0.1130263E+00
          2   -1    0    0  501    0  0.00000000000E+00  0.00000000000E+00  0.60582819952E+02  0.60582820005E+02  0.25500000000E-02 0.  1.
         -2   -1    0    0    0  501 -0.00000000000E+00 -0.00000000000E+00 -0.20877072033E+03  0.20877072034E+03  0.25500000000E-02 0. -1.
    5000001    1    1    2    0    0 -0.41868330597E+02 -0.64614740850E+02 -0.40416193535E+02  0.11614857099E+03  0.77000000000E+02 0.  0.
   -5000001    1    1    2    0    0  0.41868330597E+02  0.64614740850E+02 -0.10777170684E+03  0.15320496936E+03  0.77000000000E+02 0.  0.
<mgrwt>
<rscale>  0 0.22492593E+03</rscale>
<asrwt>0</asrwt>
<pdfrwt beam="1">  1        2 0.93204340E-02 0.22492593E+03</pdfrwt>
<pdfrwt beam="2">  1       -2 0.32118572E-01 0.22492593E+03</pdfrwt>
<totfact> 0.61935185E+03</totfact>
</mgrwt>
</event>
<event>
 4    1  0.5980424E-004  0.2484742E+03  0.7818608E-02  0.1114273E+00
          2   -1    0    0  501    0  0.00000000000E+00  0.00000000000E+00  0.18699184416E+03  0.18699184417E+03  0.25500000000E-02 0.  1.
         -2   -1    0    0    0  501 -0.00000000000E+00 -0.00000000000E+00 -0.82542932557E+02  0.82542932597E+02  0.25500000000E-02 0. -1.
    5000001    1    1    2    0    0 -0.44530940414E+02  0.86209432326E+02  0.62560133000E+02  0.13877262380E+03  0.77000000000E+02 0.  0.
   -5000001    1    1    2    0    0  0.44530940414E+02 -0.86209432326E+02  0.41888778599E+02  0.13076215297E+03  0.77000000000E+02 0.  0.
<mgrwt>
<rscale>  0 0.24847419E+03</rscale>
<asrwt>0</asrwt>
<pdfrwt beam="1">  1        2 0.28767976E-01 0.24847419E+03</pdfrwt>
<pdfrwt beam="2">  1       -2 0.12698913E-01 0.24847419E+03</pdfrwt>
<totfact> 0.81607154E+03</totfact>
</mgrwt>
</event>
<event>
 4    1  0.5980424E-004  0.3427029E+03  0.7818608E-02  0.1065651E+00
          2   -1    0    0  501    0  0.00000000000E+00  0.00000000000E+00  0.87450968538E+02  0.87450968575E+02  0.25500000000E-02 0.  1.
         -2   -1    0    0    0  501 -0.00000000000E+00 -0.00000000000E+00 -0.33574603094E+03  0.33574603095E+03  0.25500000000E-02 0. -1.
    5000001    1    1    2    0    0  0.13411454059E+02  0.12550219348E+03 -0.23110304234E+03  0.27435065855E+03  0.77000000000E+02 0.  0.
   -5000001    1    1    2    0    0 -0.13411454059E+02 -0.12550219348E+03 -0.17192020065E+02  0.14884634098E+03  0.77000000000E+02 0.  0.
<mgrwt>
<rscale>  0 0.34270288E+03</rscale>
<asrwt>0</asrwt>
<pdfrwt beam="1">  1        2 0.13453995E-01 0.34270288E+03</pdfrwt>
<pdfrwt beam="2">  1       -2 0.51653235E-01 0.34270288E+03</pdfrwt>
<totfact> 0.16059417E+03</totfact>
</mgrwt>
</event>
<event>
 4    1  0.5980424E-004  0.1847891E+03  0.7818608E-02  0.1163247E+00
          2   -1    0    0  501    0  0.00000000000E+00  0.00000000000E+00  0.89213092821E+03  0.89213092821E+03  0.25500000000E-02 0.  1.
         -2   -1    0    0    0  501 -0.00000000000E+00 -0.00000000000E+00 -0.95689461527E+01  0.95689464925E+01  0.25500000000E-02 0. -1.
    5000001    1    1    2    0    0 -0.16215357486E+02  0.48359311167E+02  0.45342346547E+03  0.46273469703E+03  0.77000000000E+02 0.  0.
   -5000001    1    1    2    0    0  0.16215357486E+02 -0.48359311167E+02  0.42913851659E+03  0.43896517768E+03  0.77000000000E+02 0.  0.
<mgrwt>
<rscale>  0 0.18478910E+03</rscale>
<asrwt>0</asrwt>
<pdfrwt beam="1">  1        2 0.13725099E+00 0.18478910E+03</pdfrwt>
<pdfrwt beam="2">  1       -2 0.14721448E-02 0.18478910E+03</pdfrwt>
<totfact> 0.36084374E+04</totfact>
</mgrwt>
</event>
<event>
 4    1  0.5980424E-004  0.2309308E+03  0.7818608E-02  0.1125986E+00
         -2   -1    0    0    0  501 -0.00000000000E+00  0.00000000000E+00  0.34940026442E+02  0.34940026535E+02  0.25500000000E-02 0. -1.
          2   -1    0    0  501    0  0.00000000000E+00 -0.00000000000E+00 -0.38157538720E+03  0.38157538721E+03  0.25500000000E-02 0.  1.
    5000001    1    1    2    0    0 -0.43509895367E+02  0.42362413748E+02 -0.28325925642E+03  0.29975405158E+03  0.77000000000E+02 0.  0.
   -5000001    1    1    2    0    0  0.43509895367E+02 -0.42362413748E+02 -0.63376104347E+02  0.11676136217E+03  0.77000000000E+02 0.  0.
<mgrwt>
<rscale>  0 0.23093076E+03</rscale>
<asrwt>0</asrwt>
<pdfrwt beam="1">  1        2 0.58703903E-01 0.23093076E+03</pdfrwt>
<pdfrwt beam="2">  1       -2 0.53753890E-02 0.23093076E+03</pdfrwt>
<totfact> 0.14457496E+04</totfact>
</mgrwt>
</event>
<event>
 4    1  0.5980424E-004  0.2098694E+03  0.7818608E-02  0.1141669E+00
         -2   -1    0    0    0  501 -0.00000000000E+00  0.00000000000E+00  0.37436150668E+03  0.37436150669E+03  0.25500000000E-02 0. -1.
          2   -1    0    0  501    0  0.00000000000E+00 -0.00000000000E+00 -0.29413526650E+02  0.29413526761E+02  0.25500000000E-02 0.  1.
    5000001    1    1    2    0    0  0.50447824455E+02 -0.50353460233E+02  0.17508248498E+03  0.20411597315E+03  0.77000000000E+02 0.  0.
   -5000001    1    1    2    0    0 -0.50447824455E+02  0.50353460233E+02  0.16986549505E+03  0.19965906030E+03  0.77000000000E+02 0.  0.
<mgrwt>
<rscale>  0 0.20986941E+03</rscale>
<asrwt>0</asrwt>
<pdfrwt beam="1">  1        2 0.45251584E-02 0.20986941E+03</pdfrwt>
<pdfrwt beam="2">  1       -2 0.57594072E-01 0.20986941E+03</pdfrwt>
<totfact> 0.50624861E+03</totfact>
</mgrwt>
</event>
<event>
 4    1  0.5980424E-004  0.2402076E+03  0.7818608E-02  0.1119655E+00
         -2   -1    0    0    0  501 -0.00000000000E+00  0.00000000000E+00  0.16758459667E+03  0.16758459669E+03  0.25500000000E-02 0. -1.
          2   -1    0    0  501    0  0.00000000000E+00 -0.00000000000E+00 -0.86075503562E+02  0.86075503600E+02  0.25500000000E-02 0.  1.
    5000001    1    1    2    0    0  0.50757107587E+02 -0.76652234780E+02  0.33743487944E+02  0.12457717305E+03  0.77000000000E+02 0.  0.
   -5000001    1    1    2    0    0 -0.50757107587E+02  0.76652234780E+02  0.47765605164E+02  0.12908292724E+03  0.77000000000E+02 0.  0.
<mgrwt>
<rscale>  0 0.24020765E+03</rscale>
<asrwt>0</asrwt>
<pdfrwt beam="1">  1        2 0.13242385E-01 0.24020765E+03</pdfrwt>
<pdfrwt beam="2">  1       -2 0.25782245E-01 0.24020765E+03</pdfrwt>
<totfact> 0.60024976E+03</totfact>
</mgrwt>
</event>
<event>
 4    1  0.5980424E-004  0.5810086E+03  0.7818608E-02  0.9945610E-01
          2   -1    0    0  501    0  0.00000000000E+00  0.00000000000E+00  0.30278207155E+04  0.30278207155E+04  0.25500000000E-02 0.  1.
         -2   -1    0    0    0  501 -0.00000000000E+00 -0.00000000000E+00 -0.27872439571E+02  0.27872439688E+02  0.25500000000E-02 0. -1.
    5000001    1    1    2    0    0 -0.17612971273E+03 -0.21010110414E+03  0.18020790956E+04  0.18244402475E+04  0.77000000000E+02 0.  0.
   -5000001    1    1    2    0    0  0.17612971273E+03  0.21010110414E+03  0.11978691804E+04  0.12312529078E+04  0.77000000000E+02 0.  0.
<mgrwt>
<rscale>  0 0.58100861E+03</rscale>
<asrwt>0</asrwt>
<pdfrwt beam="1">  1        2 0.46581880E+00 0.58100861E+03</pdfrwt>
<pdfrwt beam="2">  1       -2 0.42880655E-02 0.58100861E+03</pdfrwt>
<totfact> 0.47138664E+02</totfact>
</mgrwt>
</event>
<event>
 4    1  0.5980424E-004  0.3080742E+03  0.7818608E-02  0.1081273E+00
         -2   -1    0    0    0  501 -0.00000000000E+00  0.00000000000E+00  0.13759791395E+02  0.13759791632E+02  0.25500000000E-02 0. -1.
          2   -1    0    0  501    0  0.00000000000E+00 -0.00000000000E+00 -0.17244028043E+04  0.17244028043E+04  0.25500000000E-02 0.  1.
    5000001    1    1    2    0    0  0.13287674803E+03 -0.77455720812E+01 -0.90647419232E+03  0.91942410529E+03  0.77000000000E+02 0.  0.
   -5000001    1    1    2    0    0 -0.13287674803E+03  0.77455720812E+01 -0.80416882059E+03  0.81873849064E+03  0.77000000000E+02 0.  0.
<mgrwt>
<rscale>  0 0.30807417E+03</rscale>
<asrwt>0</asrwt>
<pdfrwt beam="1">  1        2 0.26529257E+00 0.30807417E+03</pdfrwt>
<pdfrwt beam="2">  1       -2 0.21168924E-02 0.30807417E+03</pdfrwt>
<totfact> 0.73839028E+03</totfact>
</mgrwt>
</event>
<event>
 4    1  0.5980424E-004  0.2149495E+03  0.7818608E-02  0.1137705E+00
          2   -1    0    0  501    0  0.00000000000E+00  0.00000000000E+00  0.30928907093E+03  0.30928907094E+03  0.25500000000E-02 0.  1.
         -2   -1    0    0    0  501 -0.00000000000E+00 -0.00000000000E+00 -0.37346370760E+02  0.37346370847E+02  0.25500000000E-02 0. -1.
    5000001    1    1    2    0    0  0.40872895622E+02  0.60641648947E+02  0.10928618011E+03  0.15238265106E+03  0.77000000000E+02 0.  0.
   -5000001    1    1    2    0    0 -0.40872895622E+02 -0.60641648947E+02  0.16265652006E+03  0.19425279072E+03  0.77000000000E+02 0.  0.
<mgrwt>
<rscale>  0 0.21494952E+03</rscale>
<asrwt>0</asrwt>
<pdfrwt beam="1">  1        2 0.47582933E-01 0.21494952E+03</pdfrwt>
<pdfrwt beam="2">  1       -2 0.57455957E-02 0.21494952E+03</pdfrwt>
<totfact> 0.16297281E+04</totfact>
</mgrwt>
</event>
<event>
 4    1  0.5980424E-004  0.4637353E+03  0.7818608E-02  0.1023703E+00
          2   -1    0    0  501    0  0.00000000000E+00  0.00000000000E+00  0.78139297468E+03  0.78139297468E+03  0.25500000000E-02 0.  1.
         -2   -1    0    0    0  501 -0.00000000000E+00 -0.00000000000E+00 -0.68803543470E+02  0.68803543518E+02  0.25500000000E-02 0. -1.
    5000001    1    1    2    0    0 -0.16534041292E+03 -0.13745991680E+03  0.28293888848E+03  0.36361531251E+03  0.77000000000E+02 0.  0.
   -5000001    1    1    2    0    0  0.16534041292E+03  0.13745991680E+03  0.42965054272E+03  0.48658120569E+03  0.77000000000E+02 0.  0.
<mgrwt>
<rscale>  0 0.46373529E+03</rscale>
<asrwt>0</asrwt>
<pdfrwt beam="1">  1        2 0.12021430E+00 0.46373529E+03</pdfrwt>
<pdfrwt beam="2">  1       -2 0.10585161E-01 0.46373529E+03</pdfrwt>
<totfact> 0.22227127E+03</totfact>
</mgrwt>
</event>
<event>
 4    1  0.5980424E-004  0.2167977E+03  0.7818608E-02  0.1136293E+00
         -2   -1    0    0    0  501 -0.00000000000E+00  0.00000000000E+00  0.65000253434E+01  0.65000258436E+01  0.25500000000E-02 0. -1.
          2   -1    0    0  501    0  0.00000000000E+00 -0.00000000000E+00 -0.18077323418E+04  0.18077323418E+04  0.25500000000E-02 0.  1.
    5000001    1    1    2    0    0  0.55717448550E+02  0.14670708308E+02 -0.48206267397E+03  0.49156188358E+03  0.77000000000E+02 0.  0.
   -5000001    1    1    2    0    0 -0.55717448550E+02 -0.14670708308E+02 -0.13191696424E+04  0.13226704840E+04  0.77000000000E+02 0.  0.
<mgrwt>
<rscale>  0 0.21679766E+03</rscale>
<asrwt>0</asrwt>
<pdfrwt beam="1">  1        2 0.27811227E+00 0.21679766E+03</pdfrwt>
<pdfrwt beam="2">  1       -2 0.10000054E-02 0.21679766E+03</pdfrwt>
<totfact> 0.19810871E+04</totfact>
</mgrwt>
</event>
<event>
 4    1  0.5980424E-004  0.3612516E+03  0.7818608E-02  0.1058089E+00
          2   -1    0    0  501    0  0.00000000000E+00  0.00000000000E+00  0.67722020084E+03  0.67722020084E+03  0.25500000000E-02 0.  1.
         -2   -1    0    0    0  501 -0.00000000000E+00 -0.00000000000E+00 -0.48175883511E+02  0.48175883578E+02  0.25500000000E-02 0. -1.
    5000001    1    1    2    0    0  0.20748271403E+02 -0.16112426226E+03  0.27944444602E+03  0.33227957666E+03  0.77000000000E+02 0.  0.
   -5000001    1    1    2    0    0 -0.20748271403E+02  0.16112426226E+03  0.34959987131E+03  0.39311650776E+03  0.77000000000E+02 0.  0.
<mgrwt>
<rscale>  0 0.36125161E+03</rscale>
<asrwt>0</asrwt>
<pdfrwt beam="1">  1        2 0.10418772E+00 0.36125161E+03</pdfrwt>
<pdfrwt beam="2">  1       -2 0.74116746E-02 0.36125161E+03</pdfrwt>
<totfact> 0.46761551E+03</totfact>
</mgrwt>
</event>
<event>
 4    1  0.5980424E-004  0.2036566E+03  0.7818608E-02  0.1146690E+00
          2   -1    0    0  501    0  0.00000000000E+00  0.00000000000E+00  0.33470533856E+04  0.33470533856E+04  0.25500000000E-02 0.  1.
         -2   -1    0    0    0  501 -0.00000000000E+00 -0.00000000000E+00 -0.30979480193E+01  0.30979490688E+01  0.25500000000E-02 0. -1.
    5000001    1    1    2    0    0 -0.33853819278E+02 -0.56958698453E+02  0.17878595119E+04  0.17907431442E+04  0.77000000000E+02 0.  0.
   -5000001    1    1    2    0    0  0.33853819278E+02  0.56958698453E+02  0.15560959258E+04  0.15594081905E+04  0.77000000000E+02 0.  0.
<mgrwt>
<rscale>  0 0.20365657E+03</rscale>
<asrwt>0</asrwt>
<pdfrwt beam="1">  1        2 0.51493140E+00 0.20365657E+03</pdfrwt>
<pdfrwt beam="2">  1       -2 0.47660737E-03 0.20365657E+03</pdfrwt>
<totfact> 0.79567938E+03</totfact>
</mgrwt>
</event>
<event>
 4    1  0.5980424E-004  0.2604277E+03  0.7818608E-02  0.1106887E+00
          2   -1    0    0  501    0  0.00000000000E+00  0.00000000000E+00  0.89835672911E+02  0.89835672947E+02  0.25500000000E-02 0.  1.
         -2   -1    0    0    0  501 -0.00000000000E+00 -0.00000000000E+00 -0.18874070153E+03  0.18874070154E+03  0.25500000000E-02 0. -1.
    5000001    1    1    2    0    0 -0.97441295452E+02  0.15697395122E+02 -0.11101052209E+02  0.12567198428E+03  0.77000000000E+02 0.  0.
   -5000001    1    1    2    0    0  0.97441295452E+02 -0.15697395122E+02 -0.87803976407E+02  0.15290439021E+03  0.77000000000E+02 0.  0.
<mgrwt>
<rscale>  0 0.26042771E+03</rscale>
<asrwt>0</asrwt>
<pdfrwt beam="1">  1        2 0.13820873E-01 0.26042771E+03</pdfrwt>
<pdfrwt beam="2">  1       -2 0.29037031E-01 0.26042771E+03</pdfrwt>
<totfact> 0.46264441E+03</totfact>
</mgrwt>
</event>
<event>
 4    1  0.5980424E-004  0.2308294E+03  0.7818608E-02  0.1126057E+00
          2   -1    0    0  501    0  0.00000000000E+00  0.00000000000E+00  0.73185266654E+02  0.73185266699E+02  0.25500000000E-02 0.  1.
         -2   -1    0    0    0  501 -0.00000000000E+00 -0.00000000000E+00 -0.18201146019E+03  0.18201146021E+03  0.25500000000E-02 0. -1.
    5000001    1    1    2    0    0 -0.39948727602E+02 -0.70204158686E+02 -0.86966890069E+02  0.14148061599E+03  0.77000000000E+02 0.  0.
   -5000001    1    1    2    0    0  0.39948727602E+02  0.70204158686E+02 -0.21859303472E+02  0.11371611092E+03  0.77000000000E+02 0.  0.
<mgrwt>
<rscale>  0 0.23082944E+03</rscale>
<asrwt>0</asrwt>
<pdfrwt beam="1">  1        2 0.11259272E-01 0.23082944E+03</pdfrwt>
<pdfrwt beam="2">  1       -2 0.28001763E-01 0.23082944E+03</pdfrwt>
<totfact> 0.62958425E+03</totfact>
</mgrwt>
</event>
<event>
 4    1  0.5980424E-004  0.2179930E+03  0.7818608E-02  0.1135388E+00
          2   -1    0    0  501    0  0.00000000000E+00  0.00000000000E+00  0.17355293228E+03  0.17355293230E+03  0.25500000000E-02 0.  1.
         -2   -1    0    0    0  501 -0.00000000000E+00 -0.00000000000E+00 -0.68453127887E+02  0.68453127935E+02  0.25500000000E-02 0. -1.
    5000001    1    1    2    0    0 -0.23725860713E+00  0.59769094155E+02  0.10669588622E+03  0.14451786410E+03  0.77000000000E+02 0.  0.
   -5000001    1    1    2    0    0  0.23725860713E+00 -0.59769094155E+02 -0.15960818299E+01  0.97488196131E+02  0.77000000000E+02 0.  0.
<mgrwt>
<rscale>  0 0.21799304E+03</rscale>
<asrwt>0</asrwt>
<pdfrwt beam="1">  1        2 0.26700451E-01 0.21799304E+03</pdfrwt>
<pdfrwt beam="2">  1       -2 0.10531251E-01 0.21799304E+03</pdfrwt>
<totfact> 0.11882332E+04</totfact>
</mgrwt>
</event>
<event>
 4    1  0.5980424E-004  0.1921827E+03  0.7818608E-02  0.1156507E+00
          2   -1    0    0  501    0  0.00000000000E+00  0.00000000000E+00  0.39467417938E+04  0.39467417938E+04  0.25500000000E-02 0.  1.
         -2   -1    0    0    0  501 -0.00000000000E+00 -0.00000000000E+00 -0.23395369558E+01  0.23395383455E+01  0.25500000000E-02 0. -1.
    5000001    1    1    2    0    0 -0.52237415845E+02 -0.83347318476E+01  0.15098190824E+04  0.15127064741E+04  0.77000000000E+02 0.  0.
   -5000001    1    1    2    0    0  0.52237415845E+02  0.83347318476E+01  0.24345831745E+04  0.24363748581E+04  0.77000000000E+02 0.  0.
<mgrwt>
<rscale>  0 0.19218274E+03</rscale>
<asrwt>0</asrwt>
<pdfrwt beam="1">  1        2 0.60718708E+00 0.19218274E+03</pdfrwt>
<pdfrwt beam="2">  1       -2 0.35993122E-03 0.19218274E+03</pdfrwt>
<totfact> 0.46199893E+03</totfact>
</mgrwt>
</event>
<event>
 4    1  0.5980424E-004  0.1894842E+03  0.7818608E-02  0.1158927E+00
          2   -1    0    0  501    0  0.00000000000E+00  0.00000000000E+00  0.44022761755E+03  0.44022761756E+03  0.25500000000E-02 0.  1.
         -2   -1    0    0    0  501 -0.00000000000E+00 -0.00000000000E+00 -0.20389592315E+02  0.20389592475E+02  0.25500000000E-02 0. -1.
    5000001    1    1    2    0    0 -0.52257445429E+02  0.71077870178E+01  0.17029454929E+03  0.19419215936E+03  0.77000000000E+02 0.  0.
   -5000001    1    1    2    0    0  0.52257445429E+02 -0.71077870178E+01  0.24954347595E+03  0.26642505067E+03  0.77000000000E+02 0.  0.
<mgrwt>
<rscale>  0 0.18948416E+03</rscale>
<asrwt>0</asrwt>
<pdfrwt beam="1">  1        2 0.67727320E-01 0.18948416E+03</pdfrwt>
<pdfrwt beam="2">  1       -2 0.31368606E-02 0.18948416E+03</pdfrwt>
<totfact> 0.27400661E+04</totfact>
</mgrwt>
</event>
<event>
 4    1  0.5980424E-004  0.3246938E+03  0.7818608E-02  0.1073509E+00
         -2   -1    0    0    0  501 -0.00000000000E+00  0.00000000000E+00  0.18302456372E+02  0.18302456550E+02  0.25500000000E-02 0. -1.
          2   -1    0    0  501    0  0.00000000000E+00 -0.00000000000E+00 -0.14400536874E+04  0.14400536874E+04  0.25500000000E-02 0.  1.
    5000001    1    1    2    0    0 -0.10360729890E+03 -0.30956366027E+02 -0.11306489334E+04  0.11384150295E+04  0.77000000000E+02 0.  0.
   -5000001    1    1    2    0    0  0.10360729890E+03  0.30956366027E+02 -0.29110229770E+03  0.31994111444E+03  0.77000000000E+02 0.  0.
<mgrwt>
<rscale>  0 0.32469382E+03</rscale>
<asrwt>0</asrwt>
<pdfrwt beam="1">  1        2 0.22154663E+00 0.32469382E+03</pdfrwt>
<pdfrwt beam="2">  1       -2 0.28157637E-02 0.32469382E+03</pdfrwt>
<totfact> 0.68622730E+03</totfact>
</mgrwt>
</event>
<event>
 4    1  0.5980424E-004  0.1732966E+03  0.7818608E-02  0.1174453E+00
         -2   -1    0    0    0  501 -0.00000000000E+00  0.00000000000E+00  0.79184772905E+03  0.79184772905E+03  0.25500000000E-02 0. -1.
          2   -1    0    0  501    0  0.00000000000E+00 -0.00000000000E+00 -0.94815290100E+01  0.94815293529E+01  0.25500000000E-02 0.  1.
    5000001    1    1    2    0    0  0.17169180412E+02  0.33957323004E+02  0.44411703792E+03  0.45234591179E+03  0.77000000000E+02 0.  0.
   -5000001    1    1    2    0    0 -0.17169180412E+02 -0.33957323004E+02  0.33824916212E+03  0.34898334661E+03  0.77000000000E+02 0.  0.
<mgrwt>
<rscale>  0 0.17329659E+03</rscale>
<asrwt>0</asrwt>
<pdfrwt beam="1">  1        2 0.14586973E-02 0.17329659E+03</pdfrwt>
<pdfrwt beam="2">  1       -2 0.12182269E+00 0.17329659E+03</pdfrwt>
<totfact> 0.43982015E+03</totfact>
</mgrwt>
</event>
<event>
 4    1  0.5980424E-004  0.1762222E+03  0.7818608E-02  0.1171510E+00
          2   -1    0    0  501    0  0.00000000000E+00  0.00000000000E+00  0.12733178543E+03  0.12733178545E+03  0.25500000000E-02 0.  1.
         -2   -1    0    0    0  501 -0.00000000000E+00 -0.00000000000E+00 -0.60971184095E+02  0.60971184148E+02  0.25500000000E-02 0. -1.
    5000001    1    1    2    0    0  0.28590040843E+02 -0.31802918329E+02  0.35743424589E+02  0.95054765536E+02  0.77000000000E+02 0.  0.
   -5000001    1    1    2    0    0 -0.28590040843E+02  0.31802918329E+02  0.30617176743E+02  0.93248204065E+02  0.77000000000E+02 0.  0.
<mgrwt>
<rscale>  0 0.17622224E+03</rscale>
<asrwt>0</asrwt>
<pdfrwt beam="1">  1        2 0.19589505E-01 0.17622224E+03</pdfrwt>
<pdfrwt beam="2">  1       -2 0.93801822E-02 0.17622224E+03</pdfrwt>
<totfact> 0.19885558E+04</totfact>
</mgrwt>
</event>
<event>
 4    1  0.5980424E-004  0.3415079E+03  0.7818608E-02  0.1066156E+00
          2   -1    0    0  501    0  0.00000000000E+00  0.00000000000E+00  0.90990496555E+02  0.90990496591E+02  0.25500000000E-02 0.  1.
         -2   -1    0    0    0  501 -0.00000000000E+00 -0.00000000000E+00 -0.32043900964E+03  0.32043900965E+03  0.25500000000E-02 0. -1.
    5000001    1    1    2    0    0 -0.83603598772E+02  0.76943331192E+02  0.76510790214E+01  0.13746773059E+03  0.77000000000E+02 0.  0.
   -5000001    1    1    2    0    0  0.83603598772E+02 -0.76943331192E+02 -0.23709959211E+03  0.27396177566E+03  0.77000000000E+02 0.  0.
<mgrwt>
<rscale>  0 0.34150786E+03</rscale>
<asrwt>0</asrwt>
<pdfrwt beam="1">  1        2 0.13998538E-01 0.34150786E+03</pdfrwt>
<pdfrwt beam="2">  1       -2 0.49298309E-01 0.34150786E+03</pdfrwt>
<totfact> 0.16812026E+03</totfact>
</mgrwt>
</event>
<event>
 4    1  0.5980424E-004  0.1972430E+03  0.7818608E-02  0.1152086E+00
         -2   -1    0    0    0  501 -0.00000000000E+00  0.00000000000E+00  0.48536343601E+02  0.48536343668E+02  0.25500000000E-02 0. -1.
          2   -1    0    0  501    0  0.00000000000E+00 -0.00000000000E+00 -0.20038994704E+03  0.20038994706E+03  0.25500000000E-02 0.  1.
    5000001    1    1    2    0    0 -0.25566387501E+02  0.52111150375E+02 -0.49818259445E+02  0.10853603612E+03  0.77000000000E+02 0.  0.
   -5000001    1    1    2    0    0  0.25566387501E+02 -0.52111150375E+02 -0.10203534400E+03  0.14039025461E+03  0.77000000000E+02 0.  0.
<mgrwt>
<rscale>  0 0.19724295E+03</rscale>
<asrwt>0</asrwt>
<pdfrwt beam="1">  1        2 0.30829222E-01 0.19724295E+03</pdfrwt>
<pdfrwt beam="2">  1       -2 0.74671299E-02 0.19724295E+03</pdfrwt>
<totfact> 0.17284786E+04</totfact>
</mgrwt>
</event>
<event>
 4    1  0.5980424E-004  0.2221402E+03  0.7818608E-02  0.1132297E+00
          2   -1    0    0  501    0  0.00000000000E+00  0.00000000000E+00  0.10597247165E+04  0.10597247165E+04  0.25500000000E-02 0.  1.
         -2   -1    0    0    0  501 -0.00000000000E+00 -0.00000000000E+00 -0.11641297968E+02  0.11641298248E+02  0.25500000000E-02 0. -1.
    5000001    1    1    2    0    0 -0.64829674647E+02 -0.45999098132E+02  0.47860175721E+03  0.49123054236E+03  0.77000000000E+02 0.  0.
   -5000001    1    1    2    0    0  0.64829674647E+02  0.45999098132E+02  0.56948166135E+03  0.58013547242E+03  0.77000000000E+02 0.  0.
<mgrwt>
<rscale>  0 0.22214024E+03</rscale>
<asrwt>0</asrwt>
<pdfrwt beam="1">  1        2 0.16303452E+00 0.22214024E+03</pdfrwt>
<pdfrwt beam="2">  1       -2 0.17909695E-02 0.22214024E+03</pdfrwt>
<totfact> 0.21656054E+04</totfact>
</mgrwt>
</event>
<event>
 4    1  0.5980424E-004  0.3108135E+03  0.7818608E-02  0.1079957E+00
          2   -1    0    0  501    0  0.00000000000E+00  0.00000000000E+00  0.78065371490E+03  0.78065371490E+03  0.25500000000E-02 0.  1.
         -2   -1    0    0    0  501 -0.00000000000E+00 -0.00000000000E+00 -0.30937227105E+02  0.30937227210E+02  0.25500000000E-02 0. -1.
    5000001    1    1    2    0    0  0.58100707656E+02  0.81183127947E+02  0.13760143816E+03  0.18662676195E+03  0.77000000000E+02 0.  0.
   -5000001    1    1    2    0    0 -0.58100707656E+02 -0.81183127947E+02  0.61211504963E+03  0.62496418016E+03  0.77000000000E+02 0.  0.
<mgrwt>
<rscale>  0 0.31081352E+03</rscale>
<asrwt>0</asrwt>
<pdfrwt beam="1">  1        2 0.12010056E+00 0.31081352E+03</pdfrwt>
<pdfrwt beam="2">  1       -2 0.47595740E-02 0.31081352E+03</pdfrwt>
<totfact> 0.77376111E+03</totfact>
</mgrwt>
</event>
<event>
 4    1  0.5980424E-004  0.2055295E+03  0.7818608E-02  0.1145156E+00
          2   -1    0    0  501    0  0.00000000000E+00  0.00000000000E+00  0.19276079254E+03  0.19276079256E+03  0.25500000000E-02 0.  1.
         -2   -1    0    0    0  501 -0.00000000000E+00 -0.00000000000E+00 -0.54786007150E+02  0.54786007210E+02  0.25500000000E-02 0. -1.
    5000001    1    1    2    0    0  0.22022570235E+02  0.62901755691E+02  0.85588051029E+02  0.13302608371E+03  0.77000000000E+02 0.  0.
   -5000001    1    1    2    0    0 -0.22022570235E+02 -0.62901755691E+02  0.52386734363E+02  0.11452071606E+03  0.77000000000E+02 0.  0.
<mgrwt>
<rscale>  0 0.20552950E+03</rscale>
<asrwt>0</asrwt>
<pdfrwt beam="1">  1        2 0.29655507E-01 0.20552950E+03</pdfrwt>
<pdfrwt beam="2">  1       -2 0.84286163E-02 0.20552950E+03</pdfrwt>
<totfact> 0.14981550E+04</totfact>
</mgrwt>
</event>
<event>
 4    1  0.5980424E-004  0.2636349E+03  0.7818608E-02  0.1104979E+00
         -2   -1    0    0    0  501 -0.00000000000E+00  0.00000000000E+00  0.20847662541E+02  0.20847662697E+02  0.25500000000E-02 0. -1.
          2   -1    0    0  501    0  0.00000000000E+00 -0.00000000000E+00 -0.83346705583E+03  0.83346705584E+03  0.25500000000E-02 0.  1.
    5000001    1    1    2    0    0  0.57969684861E+02 -0.89920448743E+02 -0.40895925187E+03  0.42967760141E+03  0.77000000000E+02 0.  0.
   -5000001    1    1    2    0    0 -0.57969684861E+02  0.89920448743E+02 -0.40366014142E+03  0.42463711712E+03  0.77000000000E+02 0.  0.
<mgrwt>
<rscale>  0 0.26363490E+03</rscale>
<asrwt>0</asrwt>
<pdfrwt beam="1">  1        2 0.12822568E+00 0.26363490E+03</pdfrwt>
<pdfrwt beam="2">  1       -2 0.32073334E-02 0.26363490E+03</pdfrwt>
<totfact> 0.12822148E+04</totfact>
</mgrwt>
</event>
<event>
 4    1  0.5980424E-004  0.2701933E+03  0.7818608E-02  0.1101169E+00
          2   -1    0    0  501    0  0.00000000000E+00  0.00000000000E+00  0.35091508164E+04  0.35091508164E+04  0.25500000000E-02 0.  1.
         -2   -1    0    0    0  501 -0.00000000000E+00 -0.00000000000E+00 -0.52010018017E+01  0.52010024268E+01  0.25500000000E-02 0. -1.
    5000001    1    1    2    0    0  0.29913206554E+01  0.11088919812E+03  0.16987604358E+04  0.17041189455E+04  0.77000000000E+02 0.  0.
   -5000001    1    1    2    0    0 -0.29913206554E+01 -0.11088919812E+03  0.18051893788E+04  0.18102328733E+04  0.77000000000E+02 0.  0.
<mgrwt>
<rscale>  0 0.27019327E+03</rscale>
<asrwt>0</asrwt>
<pdfrwt beam="1">  1        2 0.53986987E+00 0.27019327E+03</pdfrwt>
<pdfrwt beam="2">  1       -2 0.80015341E-03 0.27019327E+03</pdfrwt>
<totfact> 0.29486338E+03</totfact>
</mgrwt>
</event>
<event>
 4    1  0.5980424E-004  0.2887550E+03  0.7818608E-02  0.1091001E+00
          2   -1    0    0  501    0  0.00000000000E+00  0.00000000000E+00  0.49800034910E+02  0.49800034975E+02  0.25500000000E-02 0.  1.
         -2   -1    0    0    0  501 -0.00000000000E+00 -0.00000000000E+00 -0.41857110325E+03  0.41857110326E+03  0.25500000000E-02 0. -1.
    5000001    1    1    2    0    0  0.43143990697E+02 -0.10685882649E+03 -0.24998569783E+03  0.28583572529E+03  0.77000000000E+02 0.  0.
   -5000001    1    1    2    0    0 -0.43143990697E+02  0.10685882649E+03 -0.11878537051E+03  0.18253541294E+03  0.77000000000E+02 0.  0.
<mgrwt>
<rscale>  0 0.28875495E+03</rscale>
<asrwt>0</asrwt>
<pdfrwt beam="1">  1        2 0.76615441E-02 0.28875495E+03</pdfrwt>
<pdfrwt beam="2">  1       -2 0.64395552E-01 0.28875495E+03</pdfrwt>
<totfact> 0.20482076E+03</totfact>
</mgrwt>
</event>
<event>
 4    1  0.5980424E-004  0.2413008E+03  0.7818608E-02  0.1118929E+00
         -2   -1    0    0    0  501 -0.00000000000E+00  0.00000000000E+00  0.10613908118E+02  0.10613908424E+02  0.25500000000E-02 0. -1.
          2   -1    0    0  501    0  0.00000000000E+00 -0.00000000000E+00 -0.13714574252E+04  0.13714574252E+04  0.25500000000E-02 0.  1.
    5000001    1    1    2    0    0 -0.34436580912E+02  0.51925680808E+02 -0.28586760263E+03  0.30254163460E+03  0.77000000000E+02 0.  0.
   -5000001    1    1    2    0    0  0.34436580912E+02 -0.51925680808E+02 -0.10749759144E+04  0.10795296990E+04  0.77000000000E+02 0.  0.
<mgrwt>
<rscale>  0 0.24130084E+03</rscale>
<asrwt>0</asrwt>
<pdfrwt beam="1">  1        2 0.21099331E+00 0.24130084E+03</pdfrwt>
<pdfrwt beam="2">  1       -2 0.16329100E-02 0.24130084E+03</pdfrwt>
<totfact> 0.16593457E+04</totfact>
</mgrwt>
</event>
<event>
 4    1  0.5980424E-004  0.6473840E+03  0.7818608E-02  0.9811700E-01
          2   -1    0    0  501    0  0.00000000000E+00  0.00000000000E+00  0.69218409086E+03  0.69218409087E+03  0.25500000000E-02 0.  1.
         -2   -1    0    0    0  501 -0.00000000000E+00 -0.00000000000E+00 -0.15137089198E+03  0.15137089200E+03  0.25500000000E-02 0. -1.
    5000001    1    1    2    0    0 -0.11296284719E+03 -0.28386123411E+03  0.17368664113E+03  0.35976916819E+03  0.77000000000E+02 0.  0.
   -5000001    1    1    2    0    0  0.11296284719E+03  0.28386123411E+03  0.36712655776E+03  0.48378581468E+03  0.77000000000E+02 0.  0.
<mgrwt>
<rscale>  0 0.64738404E+03</rscale>
<asrwt>0</asrwt>
<pdfrwt beam="1">  1        2 0.10648986E+00 0.64738404E+03</pdfrwt>
<pdfrwt beam="2">  1       -2 0.23287830E-01 0.64738404E+03</pdfrwt>
<totfact> 0.68077916E+02</totfact>
</mgrwt>
</event>
<event>
 4    1  0.5980424E-004  0.1701954E+03  0.7818608E-02  0.1177644E+00
          2   -1    0    0  501    0  0.00000000000E+00  0.00000000000E+00  0.74424756564E+02  0.74424756608E+02  0.25500000000E-02 0.  1.
         -2   -1    0    0    0  501 -0.00000000000E+00 -0.00000000000E+00 -0.97301219057E+02  0.97301219091E+02  0.25500000000E-02 0. -1.
    5000001    1    1    2    0    0  0.35016293725E+02 -0.85892318641E+01 -0.78419365045E+01  0.85383907725E+02  0.77000000000E+02 0.  0.
   -5000001    1    1    2    0    0 -0.35016293725E+02  0.85892318641E+01 -0.15034525988E+02  0.86342067974E+02  0.77000000000E+02 0.  0.
<mgrwt>
<rscale>  0 0.17019541E+03</rscale>
<asrwt>0</asrwt>
<pdfrwt beam="1">  1        2 0.11449963E-01 0.17019541E+03</pdfrwt>
<pdfrwt beam="2">  1       -2 0.14969418E-01 0.17019541E+03</pdfrwt>
<totfact> 0.17632238E+04</totfact>
</mgrwt>
</event>
<event>
 4    1  0.5980424E-004  0.2740075E+03  0.7818608E-02  0.1099008E+00
         -2   -1    0    0    0  501 -0.00000000000E+00  0.00000000000E+00  0.83584878977E+01  0.83584882867E+01  0.25500000000E-02 0. -1.
          2   -1    0    0  501    0  0.00000000000E+00 -0.00000000000E+00 -0.22456242825E+04  0.22456242825E+04  0.25500000000E-02 0.  1.
    5000001    1    1    2    0    0 -0.10416048158E+03  0.10704502652E+02 -0.76224416230E+03  0.77324585693E+03  0.77000000000E+02 0.  0.
   -5000001    1    1    2    0    0  0.10416048158E+03 -0.10704502652E+02 -0.14750216323E+04  0.14807369139E+04  0.77000000000E+02 0.  0.
<mgrwt>
<rscale>  0 0.27400747E+03</rscale>
<asrwt>0</asrwt>
<pdfrwt beam="1">  1        2 0.34548018E+00 0.27400747E+03</pdfrwt>
<pdfrwt beam="2">  1       -2 0.12859230E-02 0.27400747E+03</pdfrwt>
<totfact> 0.81362234E+03</totfact>
</mgrwt>
</event>
<event>
 4    1  0.5980424E-004  0.2922864E+03  0.7818608E-02  0.1089161E+00
         -2   -1    0    0    0  501 -0.00000000000E+00  0.00000000000E+00  0.30447216676E+03  0.30447216677E+03  0.25500000000E-02 0. -1.
          2   -1    0    0  501    0  0.00000000000E+00 -0.00000000000E+00 -0.70147097057E+02  0.70147097104E+02  0.25500000000E-02 0.  1.
    5000001    1    1    2    0    0 -0.11967303461E+03  0.20929462119E+02  0.15031736333E+03  0.20804804089E+03  0.77000000000E+02 0.  0.
   -5000001    1    1    2    0    0  0.11967303461E+03 -0.20929462119E+02  0.84007706379E+02  0.16657122299E+03  0.77000000000E+02 0.  0.
<mgrwt>
<rscale>  0 0.29228643E+03</rscale>
<asrwt>0</asrwt>
<pdfrwt beam="1">  1        2 0.10791861E-01 0.29228643E+03</pdfrwt>
<pdfrwt beam="2">  1       -2 0.46841871E-01 0.29228643E+03</pdfrwt>
<totfact> 0.25469652E+03</totfact>
</mgrwt>
</event>
<event>
 4    1  0.5980424E-004  0.2012118E+03  0.7818608E-02  0.1148721E+00
          2   -1    0    0  501    0  0.00000000000E+00  0.00000000000E+00  0.36420677964E+02  0.36420678053E+02  0.25500000000E-02 0.  1.
         -2   -1    0    0    0  501 -0.00000000000E+00 -0.00000000000E+00 -0.27790656910E+03  0.27790656912E+03  0.25500000000E-02 0. -1.
    5000001    1    1    2    0    0 -0.99238481213E+01 -0.52117305324E+02 -0.17872979180E+03  0.20171275307E+03  0.77000000000E+02 0.  0.
   -5000001    1    1    2    0    0  0.99238481213E+01  0.52117305324E+02 -0.62756099340E+02  0.11261449409E+03  0.77000000000E+02 0.  0.
<mgrwt>
<rscale>  0 0.20121179E+03</rscale>
<asrwt>0</asrwt>
<pdfrwt beam="1">  1        2 0.56031814E-02 0.20121179E+03</pdfrwt>
<pdfrwt beam="2">  1       -2 0.42754855E-01 0.20121179E+03</pdfrwt>
<totfact> 0.68892212E+03</totfact>
</mgrwt>
</event>
<event>
 4    1  0.5980424E-004  0.1569473E+03  0.7818608E-02  0.1192187E+00
         -2   -1    0    0    0  501 -0.00000000000E+00  0.00000000000E+00  0.68946194458E+01  0.68946199174E+01  0.25500000000E-02 0. -1.
          2   -1    0    0  501    0  0.00000000000E+00 -0.00000000000E+00 -0.89317666401E+03  0.89317666401E+03  0.25500000000E-02 0.  1.
    5000001    1    1    2    0    0 -0.14369264938E+02  0.46850525346E+01 -0.43838447952E+03  0.44535197021E+03  0.77000000000E+02 0.  0.
   -5000001    1    1    2    0    0  0.14369264938E+02 -0.46850525346E+01 -0.44789756505E+03  0.45471931372E+03  0.77000000000E+02 0.  0.
<mgrwt>
<rscale>  0 0.15694730E+03</rscale>
<asrwt>0</asrwt>
<pdfrwt beam="1">  1        2 0.13741170E+00 0.15694730E+03</pdfrwt>
<pdfrwt beam="2">  1       -2 0.10607114E-02 0.15694730E+03</pdfrwt>
<totfact> 0.57009562E+04</totfact>
</mgrwt>
</event>
<event>
 4    1  0.5980424E-004  0.4182942E+03  0.7818608E-02  0.1037623E+00
         -2   -1    0    0    0  501 -0.00000000000E+00  0.00000000000E+00  0.31919288080E+03  0.31919288081E+03  0.25500000000E-02 0. -1.
          2   -1    0    0  501    0  0.00000000000E+00 -0.00000000000E+00 -0.13704097381E+03  0.13704097383E+03  0.25500000000E-02 0.  1.
    5000001    1    1    2    0    0  0.17094846675E+02 -0.18421352222E+03  0.25755370043E+02  0.20203760699E+03  0.77000000000E+02 0.  0.
   -5000001    1    1    2    0    0 -0.17094846675E+02  0.18421352222E+03  0.15639653695E+03  0.25419624765E+03  0.77000000000E+02 0.  0.
<mgrwt>
<rscale>  0 0.41829417E+03</rscale>
<asrwt>0</asrwt>
<pdfrwt beam="1">  1        2 0.21083227E-01 0.41829417E+03</pdfrwt>
<pdfrwt beam="2">  1       -2 0.49106597E-01 0.41829417E+03</pdfrwt>
<totfact> 0.10481728E+03</totfact>
</mgrwt>
</event>
<event>
 4    1  0.5980424E-004  0.1791782E+03  0.7818608E-02  0.1168601E+00
         -2   -1    0    0    0  501 -0.00000000000E+00  0.00000000000E+00  0.10625621135E+02  0.10625621441E+02  0.25500000000E-02 0. -1.
          2   -1    0    0  501    0  0.00000000000E+00 -0.00000000000E+00 -0.75536357719E+03  0.75536357719E+03  0.25500000000E-02 0.  1.
    5000001    1    1    2    0    0  0.37346306406E+02  0.26068391041E+02 -0.39282646661E+03  0.40288452500E+03  0.77000000000E+02 0.  0.
   -5000001    1    1    2    0    0 -0.37346306406E+02 -0.26068391041E+02 -0.35191148944E+03  0.36310467364E+03  0.77000000000E+02 0.  0.
<mgrwt>
<rscale>  0 0.17917821E+03</rscale>
<asrwt>0</asrwt>
<pdfrwt beam="1">  1        2 0.11620974E+00 0.17917821E+03</pdfrwt>
<pdfrwt beam="2">  1       -2 0.16347116E-02 0.17917821E+03</pdfrwt>
<totfact> 0.38200000E+04</totfact>
</mgrwt>
</event>
<event>
 4    1  0.5980424E-004  0.4829224E+03  0.7818608E-02  0.1018335E+00
         -2   -1    0    0    0  501 -0.00000000000E+00  0.00000000000E+00  0.21881733870E+02  0.21881734019E+02  0.25500000000E-02 0. -1.
          2   -1    0    0  501    0  0.00000000000E+00 -0.00000000000E+00 -0.26644836111E+04  0.26644836111E+04  0.25500000000E-02 0.  1.
    5000001    1    1    2    0    0  0.19639013037E+03  0.60839713667E+01 -0.66857661814E+03  0.70109185727E+03  0.77000000000E+02 0.  0.
   -5000001    1    1    2    0    0 -0.19639013037E+03 -0.60839713667E+01 -0.19740252591E+04  0.19852734878E+04  0.77000000000E+02 0.  0.
<mgrwt>
<rscale>  0 0.48292244E+03</rscale>
<asrwt>0</asrwt>
<pdfrwt beam="1">  1        2 0.40992030E+00 0.48292244E+03</pdfrwt>
<pdfrwt beam="2">  1       -2 0.33664227E-02 0.48292244E+03</pdfrwt>
<totfact> 0.11295239E+03</totfact>
</mgrwt>
</event>
<event>
 4    1  0.5980424E-004  0.2142567E+03  0.7818608E-02  0.1138239E+00
         -2   -1    0    0    0  501 -0.00000000000E+00  0.00000000000E+00  0.82209500901E+01  0.82209504856E+01  0.25500000000E-02 0. -1.
          2   -1    0    0  501    0  0.00000000000E+00 -0.00000000000E+00 -0.13960049108E+04  0.13960049108E+04  0.25500000000E-02 0.  1.
    5000001    1    1    2    0    0  0.53047926101E+02  0.49906957912E+02 -0.59178923173E+03  0.60120569001E+03  0.77000000000E+02 0.  0.
   -5000001    1    1    2    0    0 -0.53047926101E+02 -0.49906957912E+02 -0.79599472898E+03  0.80302017127E+03  0.77000000000E+02 0.  0.
<mgrwt>
<rscale>  0 0.21425673E+03</rscale>
<asrwt>0</asrwt>
<pdfrwt beam="1">  1        2 0.21476980E+00 0.21425673E+03</pdfrwt>
<pdfrwt beam="2">  1       -2 0.12647627E-02 0.21425673E+03</pdfrwt>
<totfact> 0.23221071E+04</totfact>
</mgrwt>
</event>
<event>
 4    1  0.5980424E-004  0.1671778E+03  0.7818608E-02  0.1180823E+00
          2   -1    0    0  501    0  0.00000000000E+00  0.00000000000E+00  0.19011870337E+03  0.19011870338E+03  0.25500000000E-02 0.  1.
         -2   -1    0    0    0  501 -0.00000000000E+00 -0.00000000000E+00 -0.36751268388E+02  0.36751268476E+02  0.25500000000E-02 0. -1.
    5000001    1    1    2    0    0  0.43407260749E+01 -0.31956572724E+02  0.82447471089E+02  0.11733136807E+03  0.77000000000E+02 0.  0.
   -5000001    1    1    2    0    0 -0.43407260749E+01  0.31956572724E+02  0.70919963889E+02  0.10953860379E+03  0.77000000000E+02 0.  0.
<mgrwt>
<rscale>  0 0.16717779E+03</rscale>
<asrwt>0</asrwt>
<pdfrwt beam="1">  1        2 0.29249031E-01 0.16717779E+03</pdfrwt>
<pdfrwt beam="2">  1       -2 0.56540414E-02 0.16717779E+03</pdfrwt>
<totfact> 0.27643554E+04</totfact>
</mgrwt>
</event>
<event>
 4    1  0.5980424E-004  0.2899464E+03  0.7818608E-02  0.1090377E+00
          2   -1    0    0  501    0  0.00000000000E+00  0.00000000000E+00  0.18464544620E+04  0.18464544620E+04  0.25500000000E-02 0.  1.
         -2   -1    0    0    0  501 -0.00000000000E+00 -0.00000000000E+00 -0.11382474863E+02  0.11382475149E+02  0.25500000000E-02 0. -1.
    5000001    1    1    2    0    0 -0.60443682263E+01 -0.11818235887E+03  0.70651375097E+03  0.72048198079E+03  0.77000000000E+02 0.  0.
   -5000001    1    1    2    0    0  0.60443682263E+01  0.11818235887E+03  0.11285582361E+04  0.11373549563E+04  0.77000000000E+02 0.  0.
<mgrwt>
<rscale>  0 0.28994635E+03</rscale>
<asrwt>0</asrwt>
<pdfrwt beam="1">  1        2 0.28406979E+00 0.28994635E+03</pdfrwt>
<pdfrwt beam="2">  1       -2 0.17511508E-02 0.28994635E+03</pdfrwt>
<totfact> 0.84168357E+03</totfact>
</mgrwt>
</event>
<event>
 4    1  0.5980424E-004  0.2793483E+03  0.7818608E-02  0.1096045E+00
          2   -1    0    0  501    0  0.00000000000E+00  0.00000000000E+00  0.11218600343E+04  0.11218600343E+04  0.25500000000E-02 0.  1.
         -2   -1    0    0    0  501 -0.00000000000E+00 -0.00000000000E+00 -0.17389757390E+02  0.17389757577E+02  0.25500000000E-02 0. -1.
    5000001    1    1    2    0    0 -0.10683508864E+03  0.20924019106E+02  0.38269000062E+03  0.40525570609E+03  0.77000000000E+02 0.  0.
   -5000001    1    1    2    0    0  0.10683508864E+03 -0.20924019106E+02  0.72178027632E+03  0.73399408582E+03  0.77000000000E+02 0.  0.
<mgrwt>
<rscale>  0 0.27934834E+03</rscale>
<asrwt>0</asrwt>
<pdfrwt beam="1">  1        2 0.17259384E+00 0.27934834E+03</pdfrwt>
<pdfrwt beam="2">  1       -2 0.26753475E-02 0.27934834E+03</pdfrwt>
<totfact> 0.11130238E+04</totfact>
</mgrwt>
</event>
<event>
 4    1  0.5980424E-004  0.1855018E+03  0.7818608E-02  0.1162582E+00
         -2   -1    0    0    0  501 -0.00000000000E+00  0.00000000000E+00  0.42182223902E+01  0.42182231610E+01  0.25500000000E-02 0. -1.
          2   -1    0    0  501    0  0.00000000000E+00 -0.00000000000E+00 -0.20394206415E+04  0.20394206415E+04  0.25500000000E-02 0.  1.
    5000001    1    1    2    0    0  0.39811641379E+02  0.29798386247E+02 -0.11737215417E+04  0.11772952765E+04  0.77000000000E+02 0.  0.
   -5000001    1    1    2    0    0 -0.39811641379E+02 -0.29798386247E+02 -0.86148087741E+03  0.86634358816E+03  0.77000000000E+02 0.  0.
<mgrwt>
<rscale>  0 0.18550181E+03</rscale>
<asrwt>0</asrwt>
<pdfrwt beam="1">  1        2 0.31375623E+00 0.18550181E+03</pdfrwt>
<pdfrwt beam="2">  1       -2 0.64895898E-03 0.18550181E+03</pdfrwt>
<totfact> 0.27777773E+04</totfact>
</mgrwt>
</event>
<event>
 4    1  0.5980424E-004  0.1983177E+03  0.7818608E-02  0.1151166E+00
          2   -1    0    0  501    0  0.00000000000E+00  0.00000000000E+00  0.31125220841E+03  0.31125220842E+03  0.25500000000E-02 0.  1.
         -2   -1    0    0    0  501 -0.00000000000E+00 -0.00000000000E+00 -0.31590071302E+02  0.31590071405E+02  0.25500000000E-02 0. -1.
    5000001    1    1    2    0    0 -0.61948882464E+02  0.69253875723E+01  0.13252630729E+03  0.16546252493E+03  0.77000000000E+02 0.  0.
   -5000001    1    1    2    0    0  0.61948882464E+02 -0.69253875723E+01  0.14713582982E+03  0.17737975490E+03  0.77000000000E+02 0.  0.
<mgrwt>
<rscale>  0 0.19831772E+03</rscale>
<asrwt>0</asrwt>
<pdfrwt beam="1">  1        2 0.47884953E-01 0.19831772E+03</pdfrwt>
<pdfrwt beam="2">  1       -2 0.48600112E-02 0.19831772E+03</pdfrwt>
<totfact> 0.20750638E+04</totfact>
</mgrwt>
</event>
<event>
 4    1  0.5980424E-004  0.2753825E+03  0.7818608E-02  0.1098238E+00
          2   -1    0    0  501    0  0.00000000000E+00  0.00000000000E+00  0.84525153109E+02  0.84525153147E+02  0.25500000000E-02 0.  1.
         -2   -1    0    0    0  501 -0.00000000000E+00 -0.00000000000E+00 -0.22429869675E+03  0.22429869677E+03  0.25500000000E-02 0. -1.
    5000001    1    1    2    0    0  0.39222198868E+02 -0.98638744696E+02 -0.22814520976E+02  0.13310704417E+03  0.77000000000E+02 0.  0.
   -5000001    1    1    2    0    0 -0.39222198868E+02  0.98638744696E+02 -0.11695902267E+03  0.17571680575E+03  0.77000000000E+02 0.  0.
<mgrwt>
<rscale>  0 0.27538251E+03</rscale>
<asrwt>0</asrwt>
<pdfrwt beam="1">  1        2 0.13003870E-01 0.27538251E+03</pdfrwt>
<pdfrwt beam="2">  1       -2 0.34507492E-01 0.27538251E+03</pdfrwt>
<totfact> 0.36352130E+03</totfact>
</mgrwt>
</event>
<event>
 4    1  0.5980424E-004  0.3453482E+03  0.7818608E-02  0.1064541E+00
         -2   -1    0    0    0  501 -0.00000000000E+00  0.00000000000E+00  0.42624456044E+02  0.42624456121E+02  0.25500000000E-02 0. -1.
          2   -1    0    0  501    0  0.00000000000E+00 -0.00000000000E+00 -0.69951259788E+03  0.69951259788E+03  0.25500000000E-02 0.  1.
    5000001    1    1    2    0    0  0.99033180221E+02  0.93017488144E+02 -0.48676110539E+03  0.51119976292E+03  0.77000000000E+02 0.  0.
   -5000001    1    1    2    0    0 -0.99033180221E+02 -0.93017488144E+02 -0.17012703644E+03  0.23093729108E+03  0.77000000000E+02 0.  0.
<mgrwt>
<rscale>  0 0.34534820E+03</rscale>
<asrwt>0</asrwt>
<pdfrwt beam="1">  1        2 0.10761731E+00 0.34534820E+03</pdfrwt>
<pdfrwt beam="2">  1       -2 0.65576091E-02 0.34534820E+03</pdfrwt>
<totfact> 0.54357540E+03</totfact>
</mgrwt>
</event>
<event>
 4    1  0.5980424E-004  0.5154417E+03  0.7818608E-02  0.1009825E+00
         -2   -1    0    0    0  501 -0.00000000000E+00  0.00000000000E+00  0.61862799111E+02  0.61862799163E+02  0.25500000000E-02 0. -1.
          2   -1    0    0  501    0  0.00000000000E+00 -0.00000000000E+00 -0.10736667342E+04  0.10736667342E+04  0.25500000000E-02 0.  1.
    5000001    1    1    2    0    0  0.19991955500E+03 -0.13574013076E+03 -0.40499926353E+03  0.47785627026E+03  0.77000000000E+02 0.  0.
   -5000001    1    1    2    0    0 -0.19991955500E+03  0.13574013076E+03 -0.60680467159E+03  0.65767326313E+03  0.77000000000E+02 0.  0.
<mgrwt>
<rscale>  0 0.51544167E+03</rscale>
<asrwt>0</asrwt>
<pdfrwt beam="1">  1        2 0.16517948E+00 0.51544167E+03</pdfrwt>
<pdfrwt beam="2">  1       -2 0.95173545E-02 0.51544167E+03</pdfrwt>
<totfact> 0.16969205E+03</totfact>
</mgrwt>
</event>
<event>
 4    1  0.5980424E-004  0.2750811E+03  0.7818608E-02  0.1098406E+00
         -2   -1    0    0    0  501 -0.00000000000E+00  0.00000000000E+00  0.19103401734E+03  0.19103401736E+03  0.25500000000E-02 0. -1.
          2   -1    0    0  501    0  0.00000000000E+00 -0.00000000000E+00 -0.99026387506E+02  0.99026387539E+02  0.25500000000E-02 0.  1.
    5000001    1    1    2    0    0 -0.53607480011E+02 -0.88420909787E+02  0.96533943181E+02  0.16105844090E+03  0.77000000000E+02 0.  0.
   -5000001    1    1    2    0    0  0.53607480011E+02  0.88420909787E+02 -0.45263133486E+01  0.12900196399E+03  0.77000000000E+02 0.  0.
<mgrwt>
<rscale>  0 0.27508114E+03</rscale>
<asrwt>0</asrwt>
<pdfrwt beam="1">  1        2 0.15234829E-01 0.27508114E+03</pdfrwt>
<pdfrwt beam="2">  1       -2 0.29389848E-01 0.27508114E+03</pdfrwt>
<totfact> 0.40389584E+03</totfact>
</mgrwt>
</event>
<event>
 4    1  0.5980424E-004  0.1736610E+03  0.7818608E-02  0.1174083E+00
         -2   -1    0    0    0  501 -0.00000000000E+00  0.00000000000E+00  0.48458234606E+02  0.48458234674E+02  0.25500000000E-02 0. -1.
          2   -1    0    0  501    0  0.00000000000E+00 -0.00000000000E+00 -0.15558832045E+03  0.15558832047E+03  0.25500000000E-02 0.  1.
    5000001    1    1    2    0    0  0.35090521428E+02 -0.24794024586E+01 -0.76258807855E+02  0.11393813192E+03  0.77000000000E+02 0.  0.
   -5000001    1    1    2    0    0 -0.35090521428E+02  0.24794024586E+01 -0.30871277987E+02  0.90108423220E+02  0.77000000000E+02 0.  0.
<mgrwt>
<rscale>  0 0.17366100E+03</rscale>
<asrwt>0</asrwt>
<pdfrwt beam="1">  1        2 0.23936665E-01 0.17366100E+03</pdfrwt>
<pdfrwt beam="2">  1       -2 0.74551131E-02 0.17366100E+03</pdfrwt>
<totfact> 0.22659053E+04</totfact>
</mgrwt>
</event>
<event>
 4    1  0.5980424E-004  0.1805234E+03  0.7818608E-02  0.1167297E+00
          2   -1    0    0  501    0  0.00000000000E+00  0.00000000000E+00  0.43791830604E+03  0.43791830605E+03  0.25500000000E-02 0.  1.
         -2   -1    0    0    0  501 -0.00000000000E+00 -0.00000000000E+00 -0.18604319507E+02  0.18604319682E+02  0.25500000000E-02 0. -1.
    5000001    1    1    2    0    0  0.34506509511E+02 -0.18328054096E+02  0.14315382427E+03  0.16717845008E+03  0.77000000000E+02 0.  0.
   -5000001    1    1    2    0    0 -0.34506509511E+02  0.18328054096E+02  0.27616016226E+03  0.28934417565E+03  0.77000000000E+02 0.  0.
<mgrwt>
<rscale>  0 0.18052337E+03</rscale>
<asrwt>0</asrwt>
<pdfrwt beam="1">  1        2 0.67372050E-01 0.18052337E+03</pdfrwt>
<pdfrwt beam="2">  1       -2 0.28622029E-02 0.18052337E+03</pdfrwt>
<totfact> 0.31427085E+04</totfact>
</mgrwt>
</event>
<event>
 4    1  0.5980424E-004  0.3811833E+03  0.7818608E-02  0.1050497E+00
         -2   -1    0    0    0  501 -0.00000000000E+00  0.00000000000E+00  0.52208787022E+02  0.52208787085E+02  0.25500000000E-02 0. -1.
          2   -1    0    0  501    0  0.00000000000E+00 -0.00000000000E+00 -0.69576733192E+03  0.69576733193E+03  0.25500000000E-02 0.  1.
    5000001    1    1    2    0    0  0.97243668569E+02  0.14342166012E+03 -0.35952717374E+03  0.40646634833E+03  0.77000000000E+02 0.  0.
   -5000001    1    1    2    0    0 -0.97243668569E+02 -0.14342166012E+03 -0.28403137116E+03  0.34150977068E+03  0.77000000000E+02 0.  0.
<mgrwt>
<rscale>  0 0.38118326E+03</rscale>
<asrwt>0</asrwt>
<pdfrwt beam="1">  1        2 0.10704112E+00 0.38118326E+03</pdfrwt>
<pdfrwt beam="2">  1       -2 0.80321216E-02 0.38118326E+03</pdfrwt>
<totfact> 0.39908952E+03</totfact>
</mgrwt>
</event>
<event>
 4    1  0.5980424E-004  0.2627770E+03  0.7818608E-02  0.1105486E+00
          2   -1    0    0  501    0  0.00000000000E+00  0.00000000000E+00  0.26828354773E+03  0.26828354774E+03  0.25500000000E-02 0.  1.
         -2   -1    0    0    0  501 -0.00000000000E+00 -0.00000000000E+00 -0.64345861018E+02  0.64345861069E+02  0.25500000000E-02 0. -1.
    5000001    1    1    2    0    0  0.81174221994E+02 -0.59369379315E+02  0.14618141991E+03  0.19342178017E+03  0.77000000000E+02 0.  0.
   -5000001    1    1    2    0    0 -0.81174221994E+02  0.59369379315E+02  0.57756266796E+02  0.13920762864E+03  0.77000000000E+02 0.  0.
<mgrwt>
<rscale>  0 0.26277698E+03</rscale>
<asrwt>0</asrwt>
<pdfrwt beam="1">  1        2 0.41274391E-01 0.26277698E+03</pdfrwt>
<pdfrwt beam="2">  1       -2 0.98993634E-02 0.26277698E+03</pdfrwt>
<totfact> 0.82400099E+03</totfact>
</mgrwt>
</event>
<event>
 4    1  0.5980424E-004  0.2699085E+03  0.7818608E-02  0.1101332E+00
         -2   -1    0    0    0  501 -0.00000000000E+00  0.00000000000E+00  0.92059449796E+01  0.92059453327E+01  0.25500000000E-02 0.  1.
          2   -1    0    0  501    0  0.00000000000E+00 -0.00000000000E+00 -0.19783575028E+04  0.19783575028E+04  0.25500000000E-02 0. -1.
    5000001    1    1    2    0    0 -0.92875770104E+02  0.32304077604E+01 -0.14292997665E+04  0.14343859895E+04  0.77000000000E+02 0.  0.
   -5000001    1    1    2    0    0  0.92875770104E+02 -0.32304077604E+01 -0.53985179130E+03  0.55317745866E+03  0.77000000000E+02 0.  0.
<mgrwt>
<rscale>  0 0.26990851E+03</rscale>
<asrwt>0</asrwt>
<pdfrwt beam="1">  1        2 0.30436235E+00 0.26990851E+03</pdfrwt>
<pdfrwt beam="2">  1       -2 0.14163008E-02 0.26990851E+03</pdfrwt>
<totfact> 0.97844232E+03</totfact>
</mgrwt>
</event>
<event>
 4    1  0.5980424E-004  0.3420778E+03  0.7818608E-02  0.1065914E+00
         -2   -1    0    0    0  501 -0.00000000000E+00  0.00000000000E+00  0.18774138177E+02  0.18774138350E+02  0.25500000000E-02 0. -1.
          2   -1    0    0  501    0  0.00000000000E+00 -0.00000000000E+00 -0.15582239824E+04  0.15582239824E+04  0.25500000000E-02 0.  1.
    5000001    1    1    2    0    0  0.15240599694E+03 -0.72365283635E+01 -0.73867721169E+03  0.75819059498E+03  0.77000000000E+02 0.  0.
   -5000001    1    1    2    0    0 -0.15240599694E+03  0.72365283635E+01 -0.80077263253E+03  0.81880752577E+03  0.77000000000E+02 0.  0.
<mgrwt>
<rscale>  0 0.34207784E+03</rscale>
<asrwt>0</asrwt>
<pdfrwt beam="1">  1        2 0.23972666E+00 0.34207784E+03</pdfrwt>
<pdfrwt beam="2">  1       -2 0.28883302E-02 0.34207784E+03</pdfrwt>
<totfact> 0.57060013E+03</totfact>
</mgrwt>
</event>
<event>
 4    1  0.5980424E-004  0.3283194E+03  0.7818608E-02  0.1071883E+00
         -2   -1    0    0    0  501 -0.00000000000E+00  0.00000000000E+00  0.60847718571E+02  0.60847718624E+02  0.25500000000E-02 0. -1.
          2   -1    0    0  501    0  0.00000000000E+00 -0.00000000000E+00 -0.44288287603E+03  0.44288287604E+03  0.25500000000E-02 0.  1.
    5000001    1    1    2    0    0 -0.10523705317E+03 -0.97873937255E+02 -0.16169464950E+03  0.22962644584E+03  0.77000000000E+02 0.  0.
   -5000001    1    1    2    0    0  0.10523705317E+03  0.97873937255E+02 -0.22034050796E+03  0.27410414882E+03  0.77000000000E+02 0.  0.
<mgrwt>
<rscale>  0 0.32831943E+03</rscale>
<asrwt>0</asrwt>
<pdfrwt beam="1">  1        2 0.68135825E-01 0.32831943E+03</pdfrwt>
<pdfrwt beam="2">  1       -2 0.93611878E-02 0.32831943E+03</pdfrwt>
<totfact> 0.52681004E+03</totfact>
</mgrwt>
</event>
<event>
 4    1  0.5980424E-004  0.2603561E+03  0.7818608E-02  0.1106929E+00
         -2   -1    0    0    0  501 -0.00000000000E+00  0.00000000000E+00  0.13862922205E+03  0.13862922207E+03  0.25500000000E-02 0. -1.
          2   -1    0    0  501    0  0.00000000000E+00 -0.00000000000E+00 -0.12224207308E+03  0.12224207310E+03  0.25500000000E-02 0.  1.
    5000001    1    1    2    0    0 -0.14767924558E+02  0.89084555660E+02 -0.45420944196E+02  0.12706774502E+03  0.77000000000E+02 0.  0.
   -5000001    1    1    2    0    0  0.14767924558E+02 -0.89084555660E+02  0.61808093164E+02  0.13380355015E+03  0.77000000000E+02 0.  0.
<mgrwt>
<rscale>  0 0.26035609E+03</rscale>
<asrwt>0</asrwt>
<pdfrwt beam="1">  1        2 0.18806473E-01 0.26035609E+03</pdfrwt>
<pdfrwt beam="2">  1       -2 0.21327572E-01 0.26035609E+03</pdfrwt>
<totfact> 0.55511394E+03</totfact>
</mgrwt>
</event>
<event>
 4    1  0.5980424E-004  0.1813833E+03  0.7818608E-02  0.1166471E+00
          2   -1    0    0  501    0  0.00000000000E+00  0.00000000000E+00  0.16132732182E+04  0.16132732182E+04  0.25500000000E-02 0.  1.
         -2   -1    0    0    0  501 -0.00000000000E+00 -0.00000000000E+00 -0.50983165026E+01  0.50983171403E+01  0.25500000000E-02 0. -1.
    5000001    1    1    2    0    0 -0.33314484344E+02 -0.48079032757E+01  0.49980839298E+03  0.50682383576E+03  0.77000000000E+02 0.  0.
   -5000001    1    1    2    0    0  0.33314484344E+02  0.48079032757E+01  0.11083665087E+04  0.11115476996E+04  0.77000000000E+02 0.  0.
<mgrwt>
<rscale>  0 0.18138333E+03</rscale>
<asrwt>0</asrwt>
<pdfrwt beam="1">  1        2 0.24819643E+00 0.18138333E+03</pdfrwt>
<pdfrwt beam="2">  1       -2 0.78435469E-03 0.18138333E+03</pdfrwt>
<totfact> 0.35161927E+04</totfact>
</mgrwt>
</event>
<event>
 4    1  0.5980424E-004  0.2267639E+03  0.7818608E-02  0.1128938E+00
         -2   -1    0    0    0  501 -0.00000000000E+00  0.00000000000E+00  0.20291621861E+02  0.20291622022E+02  0.25500000000E-02 0. -1.
          2   -1    0    0  501    0  0.00000000000E+00 -0.00000000000E+00 -0.63353580938E+03  0.63353580938E+03  0.25500000000E-02 0.  1.
    5000001    1    1    2    0    0 -0.81495731865E+02 -0.16860344271E+02 -0.30893523079E+03  0.32908327570E+03  0.77000000000E+02 0.  0.
   -5000001    1    1    2    0    0  0.81495731865E+02  0.16860344271E+02 -0.30430895672E+03  0.32474415570E+03  0.77000000000E+02 0.  0.
<mgrwt>
<rscale>  0 0.22676392E+03</rscale>
<asrwt>0</asrwt>
<pdfrwt beam="1">  1        2 0.97467033E-01 0.22676392E+03</pdfrwt>
<pdfrwt beam="2">  1       -2 0.31217885E-02 0.22676392E+03</pdfrwt>
<totfact> 0.18554965E+04</totfact>
</mgrwt>
</event>
<event>
 4    1  0.5980424E-004  0.3008029E+03  0.7818608E-02  0.1084840E+00
         -2   -1    0    0    0  501 -0.00000000000E+00  0.00000000000E+00  0.15175219300E+02  0.15175219514E+02  0.25500000000E-02 0. -1.
          2   -1    0    0  501    0  0.00000000000E+00 -0.00000000000E+00 -0.14906277501E+04  0.14906277501E+04  0.25500000000E-02 0.  1.
    5000001    1    1    2    0    0 -0.71228365585E+02  0.10465224575E+03 -0.86691752780E+03  0.87948881324E+03  0.77000000000E+02 0.  0.
   -5000001    1    1    2    0    0  0.71228365585E+02 -0.10465224575E+03 -0.60853500301E+03  0.62631415639E+03  0.77000000000E+02 0.  0.
<mgrwt>
<rscale>  0 0.30080295E+03</rscale>
<asrwt>0</asrwt>
<pdfrwt beam="1">  1        2 0.22932723E+00 0.30080295E+03</pdfrwt>
<pdfrwt beam="2">  1       -2 0.23346503E-02 0.30080295E+03</pdfrwt>
<totfact> 0.85052261E+03</totfact>
</mgrwt>
</event>
<event>
 4    1  0.5980424E-004  0.3074159E+03  0.7818608E-02  0.1081591E+00
          2   -1    0    0  501    0  0.00000000000E+00  0.00000000000E+00  0.64255234332E+03  0.64255234332E+03  0.25500000000E-02 0.  1.
         -2   -1    0    0    0  501 -0.00000000000E+00 -0.00000000000E+00 -0.36769185950E+02  0.36769186039E+02  0.25500000000E-02 0. -1.
    5000001    1    1    2    0    0 -0.12931772515E+03  0.17832222478E+02  0.35949235206E+03  0.39013435299E+03  0.77000000000E+02 0.  0.
   -5000001    1    1    2    0    0  0.12931772515E+03 -0.17832222478E+02  0.24629080531E+03  0.28918717637E+03  0.77000000000E+02 0.  0.
<mgrwt>
<rscale>  0 0.30741585E+03</rscale>
<asrwt>0</asrwt>
<pdfrwt beam="1">  1        2 0.98854195E-01 0.30741585E+03</pdfrwt>
<pdfrwt beam="2">  1       -2 0.56567985E-02 0.30741585E+03</pdfrwt>
<totfact> 0.75425945E+03</totfact>
</mgrwt>
</event>
<event>
 4    1  0.5980424E-004  0.2176197E+03  0.7818608E-02  0.1135670E+00
          2   -1    0    0  501    0  0.00000000000E+00  0.00000000000E+00  0.35376029807E+03  0.35376029808E+03  0.25500000000E-02 0.  1.
         -2   -1    0    0    0  501 -0.00000000000E+00 -0.00000000000E+00 -0.33467801036E+02  0.33467801133E+02  0.25500000000E-02 0. -1.
    5000001    1    1    2    0    0  0.46070308832E+02 -0.57168105640E+02  0.20071898835E+03  0.22717345343E+03  0.77000000000E+02 0.  0.
   -5000001    1    1    2    0    0 -0.46070308832E+02  0.57168105640E+02  0.11957350869E+03  0.16005464579E+03  0.77000000000E+02 0.  0.
<mgrwt>
<rscale>  0 0.21761966E+03</rscale>
<asrwt>0</asrwt>
<pdfrwt beam="1">  1        2 0.54424658E-01 0.21761966E+03</pdfrwt>
<pdfrwt beam="2">  1       -2 0.51488927E-02 0.21761966E+03</pdfrwt>
<totfact> 0.16684104E+04</totfact>
</mgrwt>
</event>
<event>
 4    1  0.5980424E-004  0.2122487E+03  0.7818608E-02  0.1139798E+00
         -2   -1    0    0    0  501 -0.00000000000E+00  0.00000000000E+00  0.11729560646E+02  0.11729560923E+02  0.25500000000E-02 0. -1.
          2   -1    0    0  501    0  0.00000000000E+00 -0.00000000000E+00 -0.96017044106E+03  0.96017044106E+03  0.25500000000E-02 0.  1.
    5000001    1    1    2    0    0  0.61400498190E+02  0.67632676436E+01 -0.29583586750E+03  0.31187116485E+03  0.77000000000E+02 0.  0.
   -5000001    1    1    2    0    0 -0.61400498190E+02 -0.67632676436E+01 -0.65260501291E+03  0.66002883713E+03  0.77000000000E+02 0.  0.
<mgrwt>
<rscale>  0 0.21224870E+03</rscale>
<asrwt>0</asrwt>
<pdfrwt beam="1">  1        2 0.14771847E+00 0.21224870E+03</pdfrwt>
<pdfrwt beam="2">  1       -2 0.18045486E-02 0.21224870E+03</pdfrwt>
<totfact> 0.24543120E+04</totfact>
</mgrwt>
</event>
<event>
 4    1  0.5980424E-004  0.2942887E+03  0.7818608E-02  0.1088131E+00
         -2   -1    0    0    0  501 -0.00000000000E+00  0.00000000000E+00  0.28745006181E+02  0.28745006295E+02  0.25500000000E-02 0. -1.
          2   -1    0    0  501    0  0.00000000000E+00 -0.00000000000E+00 -0.75322490391E+03  0.75322490391E+03  0.25500000000E-02 0.  1.
    5000001    1    1    2    0    0 -0.90730388164E+02 -0.43511447393E+02 -0.56103342172E+03  0.57516323742E+03  0.77000000000E+02 0.  0.
   -5000001    1    1    2    0    0  0.90730388164E+02  0.43511447393E+02 -0.16344647600E+03  0.20680667278E+03  0.77000000000E+02 0.  0.
<mgrwt>
<rscale>  0 0.29428866E+03</rscale>
<asrwt>0</asrwt>
<pdfrwt beam="1">  1        2 0.11588074E+00 0.29428866E+03</pdfrwt>
<pdfrwt beam="2">  1       -2 0.44223092E-02 0.29428866E+03</pdfrwt>
<totfact> 0.90347726E+03</totfact>
</mgrwt>
</event>
<event>
 4    1  0.5980424E-004  0.2467663E+03  0.7818608E-02  0.1115366E+00
         -2   -1    0    0    0  501 -0.00000000000E+00  0.00000000000E+00  0.11218063774E+02  0.11218064064E+02  0.25500000000E-02 0. -1.
          2   -1    0    0  501    0  0.00000000000E+00 -0.00000000000E+00 -0.13570432655E+04  0.13570432655E+04  0.25500000000E-02 0.  1.
    5000001    1    1    2    0    0  0.17275957971E+02  0.76837003330E+02 -0.98123423661E+03  0.98739658238E+03  0.77000000000E+02 0.  0.
   -5000001    1    1    2    0    0 -0.17275957971E+02 -0.76837003330E+02 -0.36459096515E+03  0.38086474721E+03  0.77000000000E+02 0.  0.
<mgrwt>
<rscale>  0 0.24676627E+03</rscale>
<asrwt>0</asrwt>
<pdfrwt beam="1">  1        2 0.20877576E+00 0.24676627E+03</pdfrwt>
<pdfrwt beam="2">  1       -2 0.17258571E-02 0.24676627E+03</pdfrwt>
<totfact> 0.15595011E+04</totfact>
</mgrwt>
</event>
<event>
 4    1  0.5980424E-004  0.1831105E+03  0.7818608E-02  0.1164826E+00
          2   -1    0    0  501    0  0.00000000000E+00  0.00000000000E+00  0.43285553938E+03  0.43285553939E+03  0.25500000000E-02 0.  1.
         -2   -1    0    0    0  501 -0.00000000000E+00 -0.00000000000E+00 -0.19365258451E+02  0.19365258619E+02  0.25500000000E-02 0. -1.
    5000001    1    1    2    0    0  0.39828478025E+02  0.15472539845E+02  0.26861753903E+03  0.28268372685E+03  0.77000000000E+02 0.  0.
   -5000001    1    1    2    0    0 -0.39828478025E+02 -0.15472539845E+02  0.14487274189E+03  0.16953707115E+03  0.77000000000E+02 0.  0.
<mgrwt>
<rscale>  0 0.18311045E+03</rscale>
<asrwt>0</asrwt>
<pdfrwt beam="1">  1        2 0.66593159E-01 0.18311045E+03</pdfrwt>
<pdfrwt beam="2">  1       -2 0.29792706E-02 0.18311045E+03</pdfrwt>
<totfact> 0.30034175E+04</totfact>
</mgrwt>
</event>
<event>
 4    1  0.5980424E-004  0.2730069E+03  0.7818608E-02  0.1099571E+00
         -2   -1    0    0    0  501 -0.00000000000E+00  0.00000000000E+00  0.19213790852E+02  0.19213791022E+02  0.25500000000E-02 0. -1.
          2   -1    0    0  501    0  0.00000000000E+00 -0.00000000000E+00 -0.96978235864E+03  0.96978235864E+03  0.25500000000E-02 0.  1.
    5000001    1    1    2    0    0  0.76574139991E+02 -0.81231117719E+02 -0.53165067231E+03  0.54867433945E+03  0.77000000000E+02 0.  0.
   -5000001    1    1    2    0    0 -0.76574139991E+02  0.81231117719E+02 -0.41891789548E+03  0.44032181022E+03  0.77000000000E+02 0.  0.
<mgrwt>
<rscale>  0 0.27300693E+03</rscale>
<asrwt>0</asrwt>
<pdfrwt beam="1">  1        2 0.14919725E+00 0.27300693E+03</pdfrwt>
<pdfrwt beam="2">  1       -2 0.29559686E-02 0.27300693E+03</pdfrwt>
<totfact> 0.11837267E+04</totfact>
</mgrwt>
</event>
<event>
 4    1  0.5980424E-004  0.2388883E+03  0.7818608E-02  0.1120536E+00
         -2   -1    0    0    0  501 -0.00000000000E+00  0.00000000000E+00  0.99729502445E+02  0.99729502477E+02  0.25500000000E-02 0. -1.
          2   -1    0    0  501    0  0.00000000000E+00 -0.00000000000E+00 -0.14305603945E+03  0.14305603947E+03  0.25500000000E-02 0.  1.
    5000001    1    1    2    0    0  0.57905025338E+02  0.46146697754E+02  0.32644408111E+02  0.11170124016E+03  0.77000000000E+02 0.  0.
   -5000001    1    1    2    0    0 -0.57905025338E+02 -0.46146697754E+02 -0.75970945114E+02  0.13108430179E+03  0.77000000000E+02 0.  0.
<mgrwt>
<rscale>  0 0.23888832E+03</rscale>
<asrwt>0</asrwt>
<pdfrwt beam="1">  1        2 0.22008622E-01 0.23888832E+03</pdfrwt>
<pdfrwt beam="2">  1       -2 0.15343000E-01 0.23888832E+03</pdfrwt>
<totfact> 0.80558404E+03</totfact>
</mgrwt>
</event>
<event>
 4    1  0.5980424E-004  0.1975824E+03  0.7818608E-02  0.1151795E+00
          2   -1    0    0  501    0  0.00000000000E+00  0.00000000000E+00  0.13212144432E+04  0.13212144432E+04  0.25500000000E-02 0.  1.
         -2   -1    0    0    0  501 -0.00000000000E+00 -0.00000000000E+00 -0.73869165863E+01  0.73869170264E+01  0.25500000000E-02 0. -1.
    5000001    1    1    2    0    0 -0.25112890772E+02  0.35261351319E+02  0.95435861105E+03  0.95843798895E+03  0.77000000000E+02 0.  0.
   -5000001    1    1    2    0    0  0.25112890772E+02 -0.35261351319E+02  0.35946891560E+03  0.37016337131E+03  0.77000000000E+02 0.  0.
<mgrwt>
<rscale>  0 0.19758240E+03</rscale>
<asrwt>0</asrwt>
<pdfrwt beam="1">  1        2 0.20326385E+00 0.19758240E+03</pdfrwt>
<pdfrwt beam="2">  1       -2 0.11364482E-02 0.19758240E+03</pdfrwt>
<totfact> 0.29628214E+04</totfact>
</mgrwt>
</event>
<event>
 4    1  0.5980424E-004  0.1938010E+03  0.7818608E-02  0.1155077E+00
         -2   -1    0    0    0  501 -0.00000000000E+00  0.00000000000E+00  0.33334687910E+01  0.33334697663E+01  0.25500000000E-02 0. -1.
          2   -1    0    0  501    0  0.00000000000E+00 -0.00000000000E+00 -0.28167972260E+04  0.28167972260E+04  0.25500000000E-02 0.  1.
    5000001    1    1    2    0    0 -0.57624839087E+02  0.76293084583E+01 -0.12750583711E+04  0.12787031236E+04  0.77000000000E+02 0.  0.
   -5000001    1    1    2    0    0  0.57624839087E+02 -0.76293084583E+01 -0.15384053860E+04  0.15414275722E+04  0.77000000000E+02 0.  0.
<mgrwt>
<rscale>  0 0.19380100E+03</rscale>
<asrwt>0</asrwt>
<pdfrwt beam="1">  1        2 0.43335152E+00 0.19380100E+03</pdfrwt>
<pdfrwt beam="2">  1       -2 0.51284368E-03 0.19380100E+03</pdfrwt>
<totfact> 0.14851328E+04</totfact>
</mgrwt>
</event>
<event>
 4    1  0.5980424E-004  0.5288347E+03  0.7818608E-02  0.1006515E+00
          2   -1    0    0  501    0  0.00000000000E+00  0.00000000000E+00  0.14262713218E+04  0.14262713218E+04  0.25500000000E-02 0.  1.
         -2   -1    0    0    0  501 -0.00000000000E+00 -0.00000000000E+00 -0.49020504112E+02  0.49020504179E+02  0.25500000000E-02 0. -1.
    5000001    1    1    2    0    0  0.94330839754E+02 -0.80164855830E+02  0.73226601858E+02  0.16314363812E+03  0.77000000000E+02 0.  0.
   -5000001    1    1    2    0    0 -0.94330839754E+02  0.80164855830E+02  0.13040242158E+04  0.13121481878E+04  0.77000000000E+02 0.  0.
<mgrwt>
<rscale>  0 0.52883472E+03</rscale>
<asrwt>0</asrwt>
<pdfrwt beam="1">  1        2 0.21942636E+00 0.52883472E+03</pdfrwt>
<pdfrwt beam="2">  1       -2 0.75416161E-02 0.52883472E+03</pdfrwt>
<totfact> 0.15378828E+03</totfact>
</mgrwt>
</event>
<event>
 4    1  0.5980424E-004  0.2173985E+03  0.7818608E-02  0.1135838E+00
         -2   -1    0    0    0  501 -0.00000000000E+00  0.00000000000E+00  0.13259914224E+02  0.13259914469E+02  0.25500000000E-02 0. -1.
          2   -1    0    0  501    0  0.00000000000E+00 -0.00000000000E+00 -0.89107133478E+03  0.89107133478E+03  0.25500000000E-02 0.  1.
    5000001    1    1    2    0    0  0.73858526801E+02 -0.19534406742E+02 -0.46827702256E+03  0.48067561295E+03  0.77000000000E+02 0.  0.
   -5000001    1    1    2    0    0 -0.73858526801E+02  0.19534406742E+02 -0.40953439800E+03  0.42365563631E+03  0.77000000000E+02 0.  0.
<mgrwt>
<rscale>  0 0.21739852E+03</rscale>
<asrwt>0</asrwt>
<pdfrwt beam="1">  1        2 0.13708785E+00 0.21739852E+03</pdfrwt>
<pdfrwt beam="2">  1       -2 0.20399875E-02 0.21739852E+03</pdfrwt>
<totfact> 0.22714044E+04</totfact>
</mgrwt>
</event>
<event>
 4    1  0.5980424E-004  0.1786742E+03  0.7818608E-02  0.1169092E+00
          2   -1    0    0  501    0  0.00000000000E+00  0.00000000000E+00  0.13826261500E+04  0.13826261500E+04  0.25500000000E-02 0.  1.
         -2   -1    0    0    0  501 -0.00000000000E+00 -0.00000000000E+00 -0.57724334881E+01  0.57724340513E+01  0.25500000000E-02 0. -1.
    5000001    1    1    2    0    0 -0.44817113079E+02 -0.59208682351E+01  0.66578853946E+03  0.67174921629E+03  0.77000000000E+02 0.  0.
   -5000001    1    1    2    0    0  0.44817113079E+02  0.59208682351E+01  0.71106517708E+03  0.71664936779E+03  0.77000000000E+02 0.  0.
<mgrwt>
<rscale>  0 0.17867420E+03</rscale>
<asrwt>0</asrwt>
<pdfrwt beam="1">  1        2 0.21271176E+00 0.17867420E+03</pdfrwt>
<pdfrwt beam="2">  1       -2 0.88806655E-03 0.17867420E+03</pdfrwt>
<totfact> 0.38900907E+04</totfact>
</mgrwt>
</event>
<event>
 4    1  0.5980424E-004  0.2774667E+03  0.7818608E-02  0.1097081E+00
          2   -1    0    0  501    0  0.00000000000E+00  0.00000000000E+00  0.88313797988E+03  0.88313797988E+03  0.25500000000E-02 0.  1.
         -2   -1    0    0    0  501 -0.00000000000E+00 -0.00000000000E+00 -0.21793814652E+02  0.21793814801E+02  0.25500000000E-02 0. -1.
    5000001    1    1    2    0    0  0.84537434032E+02  0.19836371825E+02  0.18276471607E+03  0.21649942457E+03  0.77000000000E+02 0.  0.
   -5000001    1    1    2    0    0 -0.84537434032E+02 -0.19836371825E+02  0.67857944915E+03  0.68843237011E+03  0.77000000000E+02 0.  0.
<mgrwt>
<rscale>  0 0.27746672E+03</rscale>
<asrwt>0</asrwt>
<pdfrwt beam="1">  1        2 0.13586737E+00 0.27746672E+03</pdfrwt>
<pdfrwt beam="2">  1       -2 0.33528948E-02 0.27746672E+03</pdfrwt>
<totfact> 0.11144431E+04</totfact>
</mgrwt>
</event>
<event>
 4    1  0.5980424E-004  0.4182824E+03  0.7818608E-02  0.1037627E+00
          2   -1    0    0  501    0  0.00000000000E+00  0.00000000000E+00  0.28186025133E+03  0.28186025134E+03  0.25500000000E-02 0.  1.
         -2   -1    0    0    0  501 -0.00000000000E+00 -0.00000000000E+00 -0.15518345693E+03  0.15518345695E+03  0.25500000000E-02 0. -1.
    5000001    1    1    2    0    0  0.35583170185E+02  0.19013604442E+03  0.42620490575E+02  0.21251678429E+03  0.77000000000E+02 0.  0.
   -5000001    1    1    2    0    0 -0.35583170185E+02 -0.19013604442E+03  0.84056303821E+02  0.22452692400E+03  0.77000000000E+02 0.  0.
<mgrwt>
<rscale>  0 0.41828243E+03</rscale>
<asrwt>0</asrwt>
<pdfrwt beam="1">  1        2 0.43363115E-01 0.41828243E+03</pdfrwt>
<pdfrwt beam="2">  1       -2 0.23874378E-01 0.41828243E+03</pdfrwt>
<totfact> 0.18177320E+03</totfact>
</mgrwt>
</event>
<event>
 4    1  0.5980424E-004  0.2181140E+03  0.7818608E-02  0.1135297E+00
          2   -1    0    0  501    0  0.00000000000E+00  0.00000000000E+00  0.69150725720E+03  0.69150725720E+03  0.25500000000E-02 0. -1.
         -2   -1    0    0    0  501 -0.00000000000E+00 -0.00000000000E+00 -0.17199290315E+02  0.17199290504E+02  0.25500000000E-02 0.  1.
    5000001    1    1    2    0    0  0.15427480187E+02 -0.64215156124E+02  0.20706875110E+03  0.23058200516E+03  0.77000000000E+02 0.  0.
   -5000001    1    1    2    0    0 -0.15427480187E+02  0.64215156124E+02  0.46723921578E+03  0.47812454255E+03  0.77000000000E+02 0.  0.
<mgrwt>
<rscale>  0 0.21811404E+03</rscale>
<asrwt>0</asrwt>
<pdfrwt beam="1">  1        2 0.10638572E+00 0.21811404E+03</pdfrwt>
<pdfrwt beam="2">  1       -2 0.26460450E-02 0.21811404E+03</pdfrwt>
<totfact> 0.21313959E+04</totfact>
</mgrwt>
</event>
<event>
 4    1  0.5980424E-004  0.2677126E+03  0.7818608E-02  0.1102596E+00
          2   -1    0    0  501    0  0.00000000000E+00  0.00000000000E+00  0.22182383470E+04  0.22182383470E+04  0.25500000000E-02 0.  1.
         -2   -1    0    0    0  501 -0.00000000000E+00 -0.00000000000E+00 -0.80773621819E+01  0.80773625844E+01  0.25500000000E-02 0. -1.
    5000001    1    1    2    0    0 -0.63439705237E+02 -0.78053367718E+02  0.74531186327E+03  0.75599980023E+03  0.77000000000E+02 0.  0.
   -5000001    1    1    2    0    0  0.63439705237E+02  0.78053367718E+02  0.14648491215E+04  0.14703159093E+04  0.77000000000E+02 0.  0.
<mgrwt>
<rscale>  0 0.26771264E+03</rscale>
<asrwt>0</asrwt>
<pdfrwt beam="1">  1        2 0.34126710E+00 0.26771264E+03</pdfrwt>
<pdfrwt beam="2">  1       -2 0.12426724E-02 0.26771264E+03</pdfrwt>
<totfact> 0.88436793E+03</totfact>
</mgrwt>
</event>
<event>
 4    1  0.5980424E-004  0.2132647E+03  0.7818608E-02  0.1139006E+00
         -2   -1    0    0    0  501 -0.00000000000E+00  0.00000000000E+00  0.74222532402E+01  0.74222536782E+01  0.25500000000E-02 0. -1.
          2   -1    0    0  501    0  0.00000000000E+00 -0.00000000000E+00 -0.15319412479E+04  0.15319412479E+04  0.25500000000E-02 0.  1.
    5000001    1    1    2    0    0 -0.52570839034E+02  0.13497402909E+02 -0.11228450094E+04  0.11267900373E+04  0.77000000000E+02 0.  0.
   -5000001    1    1    2    0    0  0.52570839034E+02 -0.13497402909E+02 -0.40167398526E+03  0.41257346429E+03  0.77000000000E+02 0.  0.
<mgrwt>
<rscale>  0 0.21326468E+03</rscale>
<asrwt>0</asrwt>
<pdfrwt beam="1">  1        2 0.23568302E+00 0.21326468E+03</pdfrwt>
<pdfrwt beam="2">  1       -2 0.11418864E-02 0.21326468E+03</pdfrwt>
<totfact> 0.22782813E+04</totfact>
</mgrwt>
</event>
<event>
 4    1  0.5980424E-004  0.3495227E+03  0.7818608E-02  0.1062811E+00
         -2   -1    0    0    0  501 -0.00000000000E+00  0.00000000000E+00  0.29935587177E+03  0.29935587178E+03  0.25500000000E-02 0. -1.
          2   -1    0    0  501    0  0.00000000000E+00 -0.00000000000E+00 -0.10202414514E+03  0.10202414517E+03  0.25500000000E-02 0.  1.
    5000001    1    1    2    0    0 -0.61140007990E+02  0.15371696316E+02  0.26363990986E+03  0.28179672052E+03  0.77000000000E+02 0.  0.
   -5000001    1    1    2    0    0  0.61140007990E+02 -0.15371696316E+02 -0.66308183219E+02  0.11958329644E+03  0.77000000000E+02 0.  0.
<mgrwt>
<rscale>  0 0.34952269E+03</rscale>
<asrwt>0</asrwt>
<pdfrwt beam="1">  1        2 0.15696023E-01 0.34952269E+03</pdfrwt>
<pdfrwt beam="2">  1       -2 0.46054748E-01 0.34952269E+03</pdfrwt>
<totfact> 0.16789141E+03</totfact>
</mgrwt>
</event>
<event>
 4    1  0.5980424E-004  0.1651761E+03  0.7818608E-02  0.1182974E+00
          2   -1    0    0  501    0  0.00000000000E+00  0.00000000000E+00  0.68517083001E+03  0.68517083001E+03  0.25500000000E-02 0.  1.
         -2   -1    0    0    0  501 -0.00000000000E+00 -0.00000000000E+00 -0.99548659926E+01  0.99548663192E+01  0.25500000000E-02 0. -1.
    5000001    1    1    2    0    0  0.29010867629E+02 -0.45018125258E+00  0.30786479833E+03  0.31867156628E+03  0.77000000000E+02 0.  0.
   -5000001    1    1    2    0    0 -0.29010867629E+02  0.45018125258E+00  0.36735116568E+03  0.37645413005E+03  0.77000000000E+02 0.  0.
<mgrwt>
<rscale>  0 0.16517607E+03</rscale>
<asrwt>0</asrwt>
<pdfrwt beam="1">  1        2 0.10541089E+00 0.16517607E+03</pdfrwt>
<pdfrwt beam="2">  1       -2 0.15315180E-02 0.16517607E+03</pdfrwt>
<totfact> 0.46899850E+04</totfact>
</mgrwt>
</event>
<event>
 4    1  0.5980424E-004  0.3125176E+03  0.7818608E-02  0.1079145E+00
          2   -1    0    0  501    0  0.00000000000E+00  0.00000000000E+00  0.20732778829E+04  0.20732778829E+04  0.25500000000E-02 0.  1.
         -2   -1    0    0    0  501 -0.00000000000E+00 -0.00000000000E+00 -0.11776914375E+02  0.11776914652E+02  0.25500000000E-02 0. -1.
    5000001    1    1    2    0    0 -0.71481077804E+02  0.53695939608E+02  0.17142442416E+04  0.17183000664E+04  0.77000000000E+02 0.  0.
   -5000001    1    1    2    0    0  0.71481077804E+02 -0.53695939608E+02  0.34725672701E+03  0.36675473121E+03  0.77000000000E+02 0.  0.
<mgrwt>
<rscale>  0 0.31251762E+03</rscale>
<asrwt>0</asrwt>
<pdfrwt beam="1">  1        2 0.31896578E+00 0.31251762E+03</pdfrwt>
<pdfrwt beam="2">  1       -2 0.18118333E-02 0.31251762E+03</pdfrwt>
<totfact> 0.60789492E+03</totfact>
</mgrwt>
</event>
<event>
 4    1  0.5980424E-004  0.3142393E+03  0.7818608E-02  0.1078332E+00
          2   -1    0    0  501    0  0.00000000000E+00  0.00000000000E+00  0.43630056773E+03  0.43630056774E+03  0.25500000000E-02 0.  1.
         -2   -1    0    0    0  501 -0.00000000000E+00 -0.00000000000E+00 -0.56581596683E+02  0.56581596740E+02  0.25500000000E-02 0. -1.
    5000001    1    1    2    0    0  0.99009024356E+02 -0.50005100701E+02  0.63848991568E+02  0.14936194537E+03  0.77000000000E+02 0.  0.
   -5000001    1    1    2    0    0 -0.99009024356E+02  0.50005100701E+02  0.31586997948E+03  0.34352021911E+03  0.77000000000E+02 0.  0.
<mgrwt>
<rscale>  0 0.31423929E+03</rscale>
<asrwt>0</asrwt>
<pdfrwt beam="1">  1        2 0.67123164E-01 0.31423929E+03</pdfrwt>
<pdfrwt beam="2">  1       -2 0.87048611E-02 0.31423929E+03</pdfrwt>
<totfact> 0.60018835E+03</totfact>
</mgrwt>
</event>
<event>
 4    1  0.5980424E-004  0.2333580E+03  0.7818608E-02  0.1124298E+00
         -2   -1    0    0    0  501 -0.00000000000E+00  0.00000000000E+00  0.75739084131E+03  0.75739084132E+03  0.25500000000E-02 0. -1.
          2   -1    0    0  501    0  0.00000000000E+00 -0.00000000000E+00 -0.17974858663E+02  0.17974858844E+02  0.25500000000E-02 0.  1.
    5000001    1    1    2    0    0  0.34713046576E+02 -0.22744641405E-01  0.63717562376E+03  0.64274938478E+03  0.77000000000E+02 0.  0.
   -5000001    1    1    2    0    0 -0.34713046576E+02  0.22744641405E-01  0.10224035889E+03  0.13261631539E+03  0.77000000000E+02 0.  0.
<mgrwt>
<rscale>  0 0.23335804E+03</rscale>
<asrwt>0</asrwt>
<pdfrwt beam="1">  1        2 0.27653629E-02 0.23335804E+03</pdfrwt>
<pdfrwt beam="2">  1       -2 0.11652167E+00 0.23335804E+03</pdfrwt>
<totfact> 0.20712438E+03</totfact>
</mgrwt>
</event>
<event>
 4    1  0.5980424E-004  0.6068868E+03  0.7818608E-02  0.9891220E-01
         -2   -1    0    0    0  501 -0.00000000000E+00  0.00000000000E+00  0.83276842256E+02  0.83276842295E+02  0.25500000000E-02 0. -1.
          2   -1    0    0  501    0  0.00000000000E+00 -0.00000000000E+00 -0.11056842130E+04  0.11056842131E+04  0.25500000000E-02 0.  1.
    5000001    1    1    2    0    0  0.22149194620E+03 -0.13033912503E+03 -0.78896945581E+03  0.83333592983E+03  0.77000000000E+02 0.  0.
   -5000001    1    1    2    0    0 -0.22149194620E+03  0.13033912503E+03 -0.23343791498E+03  0.35562512551E+03  0.77000000000E+02 0.  0.
<mgrwt>
<rscale>  0 0.60688678E+03</rscale>
<asrwt>0</asrwt>
<pdfrwt beam="1">  1        2 0.17010525E+00 0.60688678E+03</pdfrwt>
<pdfrwt beam="2">  1       -2 0.12811823E-01 0.60688678E+03</pdfrwt>
<totfact> 0.99632869E+02</totfact>
</mgrwt>
</event>
<event>
 4    1  0.5980424E-004  0.1806350E+03  0.7818608E-02  0.1167190E+00
         -2   -1    0    0    0  501 -0.00000000000E+00  0.00000000000E+00  0.23377457373E+02  0.23377457512E+02  0.25500000000E-02 0. -1.
          2   -1    0    0  501    0  0.00000000000E+00 -0.00000000000E+00 -0.34893661738E+03  0.34893661739E+03  0.25500000000E-02 0.  1.
    5000001    1    1    2    0    0  0.11858979696E+02 -0.40994868855E+02 -0.12119578756E+03  0.14979530565E+03  0.77000000000E+02 0.  0.
   -5000001    1    1    2    0    0 -0.11858979696E+02  0.40994868855E+02 -0.20436337244E+03  0.22251876925E+03  0.77000000000E+02 0.  0.
<mgrwt>
<rscale>  0 0.18063500E+03</rscale>
<asrwt>0</asrwt>
<pdfrwt beam="1">  1        2 0.53682553E-01 0.18063500E+03</pdfrwt>
<pdfrwt beam="2">  1       -2 0.35965322E-02 0.18063500E+03</pdfrwt>
<totfact> 0.28614516E+04</totfact>
</mgrwt>
</event>
<event>
 4    1  0.5980424E-004  0.3683001E+03  0.7818608E-02  0.1055345E+00
         -2   -1    0    0    0  501 -0.00000000000E+00  0.00000000000E+00  0.52280995489E+02  0.52280995551E+02  0.25500000000E-02 0.  1.
          2   -1    0    0  501    0  0.00000000000E+00 -0.00000000000E+00 -0.64863426916E+03  0.64863426916E+03  0.25500000000E-02 0. -1.
    5000001    1    1    2    0    0 -0.15935955681E+03 -0.47227963782E+02 -0.26225390306E+03  0.31989382392E+03  0.77000000000E+02 0.  0.
   -5000001    1    1    2    0    0  0.15935955681E+03  0.47227963782E+02 -0.33409937061E+03  0.38102144080E+03  0.77000000000E+02 0.  0.
<mgrwt>
<rscale>  0 0.36830012E+03</rscale>
<asrwt>0</asrwt>
<pdfrwt beam="1">  1        2 0.99789882E-01 0.36830012E+03</pdfrwt>
<pdfrwt beam="2">  1       -2 0.80432305E-02 0.36830012E+03</pdfrwt>
<totfact> 0.43338548E+03</totfact>
</mgrwt>
</event>
<event>
 4    1  0.5980424E-004  0.2951720E+03  0.7818608E-02  0.1087679E+00
          2   -1    0    0  501    0  0.00000000000E+00  0.00000000000E+00  0.44595626046E+03  0.44595626047E+03  0.25500000000E-02 0.  1.
         -2   -1    0    0    0  501 -0.00000000000E+00 -0.00000000000E+00 -0.48842521110E+02  0.48842521177E+02  0.25500000000E-02 0. -1.
    5000001    1    1    2    0    0  0.86401785790E+02 -0.88902057239E+02  0.23542737412E+03  0.27699078117E+03  0.77000000000E+02 0.  0.
   -5000001    1    1    2    0    0 -0.86401785790E+02  0.88902057239E+02  0.16168636524E+03  0.21780800048E+03  0.77000000000E+02 0.  0.
<mgrwt>
<rscale>  0 0.29517200E+03</rscale>
<asrwt>0</asrwt>
<pdfrwt beam="1">  1        2 0.68608652E-01 0.29517200E+03</pdfrwt>
<pdfrwt beam="2">  1       -2 0.75142344E-02 0.29517200E+03</pdfrwt>
<totfact> 0.73642794E+03</totfact>
</mgrwt>
</event>
<event>
 4    1  0.5980424E-004  0.1931598E+03  0.7818608E-02  0.1155642E+00
         -2   -1    0    0    0  501 -0.00000000000E+00  0.00000000000E+00  0.61405085577E+02  0.61405085630E+02  0.25500000000E-02 0. -1.
          2   -1    0    0  501    0  0.00000000000E+00 -0.00000000000E+00 -0.15190404132E+03  0.15190404135E+03  0.25500000000E-02 0.  1.
    5000001    1    1    2    0    0  0.58174045755E+01  0.57711342311E+02 -0.51711313698E+02  0.10939607485E+03  0.77000000000E+02 0.  0.
   -5000001    1    1    2    0    0 -0.58174045755E+01 -0.57711342311E+02 -0.38787642049E+02  0.10391305213E+03  0.77000000000E+02 0.  0.
<mgrwt>
<rscale>  0 0.19315984E+03</rscale>
<asrwt>0</asrwt>
<pdfrwt beam="1">  1        2 0.23369852E-01 0.19315984E+03</pdfrwt>
<pdfrwt beam="2">  1       -2 0.94469363E-02 0.19315984E+03</pdfrwt>
<totfact> 0.16233078E+04</totfact>
</mgrwt>
</event>
<event>
 4    1  0.5980424E-004  0.3955367E+03  0.7818608E-02  0.1045336E+00
         -2   -1    0    0    0  501 -0.00000000000E+00  0.00000000000E+00  0.56562061327E+02  0.56562061384E+02  0.25500000000E-02 0. -1.
          2   -1    0    0  501    0  0.00000000000E+00 -0.00000000000E+00 -0.69149397861E+03  0.69149397861E+03  0.25500000000E-02 0.  1.
    5000001    1    1    2    0    0 -0.85436741672E+02  0.91724769800E+02 -0.67489318890E+02  0.16185387974E+03  0.77000000000E+02 0.  0.
   -5000001    1    1    2    0    0  0.85436741672E+02 -0.91724769800E+02 -0.56744259839E+03  0.58620216026E+03  0.77000000000E+02 0.  0.
<mgrwt>
<rscale>  0 0.39553672E+03</rscale>
<asrwt>0</asrwt>
<pdfrwt beam="1">  1        2 0.10638368E+00 0.39553672E+03</pdfrwt>
<pdfrwt beam="2">  1       -2 0.87018561E-02 0.39553672E+03</pdfrwt>
<totfact> 0.35444861E+03</totfact>
</mgrwt>
</event>
<event>
 4    1  0.5980424E-004  0.1908263E+03  0.7818608E-02  0.1157718E+00
          2   -1    0    0  501    0  0.00000000000E+00  0.00000000000E+00  0.91768070918E+03  0.91768070918E+03  0.25500000000E-02 0.  1.
         -2   -1    0    0    0  501 -0.00000000000E+00 -0.00000000000E+00 -0.99202984593E+01  0.99202987871E+01  0.25500000000E-02 0. -1.
    5000001    1    1    2    0    0 -0.24981195825E+02 -0.13791149698E+02  0.69004591053E+03  0.69491482542E+03  0.77000000000E+02 0.  0.
   -5000001    1    1    2    0    0  0.24981195825E+02  0.13791149698E+02  0.21771450019E+03  0.23268618255E+03  0.77000000000E+02 0.  0.
<mgrwt>
<rscale>  0 0.19082627E+03</rscale>
<asrwt>0</asrwt>
<pdfrwt beam="1">  1        2 0.14118166E+00 0.19082627E+03</pdfrwt>
<pdfrwt beam="2">  1       -2 0.15261997E-02 0.19082627E+03</pdfrwt>
<totfact> 0.33066893E+04</totfact>
</mgrwt>
</event>
<event>
 4    1  0.5980424E-004  0.2010830E+03  0.7818608E-02  0.1148828E+00
          2   -1    0    0  501    0  0.00000000000E+00  0.00000000000E+00  0.57406702388E+03  0.57406702388E+03  0.25500000000E-02 0.  1.
         -2   -1    0    0    0  501 -0.00000000000E+00 -0.00000000000E+00 -0.17608731732E+02  0.17608731916E+02  0.25500000000E-02 0. -1.
    5000001    1    1    2    0    0 -0.13404267454E+02  0.60664347914E+02  0.33084504113E+03  0.34532199283E+03  0.77000000000E+02 0.  0.
   -5000001    1    1    2    0    0  0.13404267454E+02 -0.60664347914E+02  0.22561325102E+03  0.24635376297E+03  0.77000000000E+02 0.  0.
<mgrwt>
<rscale>  0 0.20108299E+03</rscale>
<asrwt>0</asrwt>
<pdfrwt beam="1">  1        2 0.88318009E-01 0.20108299E+03</pdfrwt>
<pdfrwt beam="2">  1       -2 0.27090355E-02 0.20108299E+03</pdfrwt>
<totfact> 0.25450072E+04</totfact>
</mgrwt>
</event>
<event>
 4    1  0.5980424E-004  0.2129617E+03  0.7818608E-02  0.1139242E+00
         -2   -1    0    0    0  501 -0.00000000000E+00  0.00000000000E+00  0.71615165568E+01  0.71615170108E+01  0.25500000000E-02 0. -1.
          2   -1    0    0  501    0  0.00000000000E+00 -0.00000000000E+00 -0.15832085814E+04  0.15832085814E+04  0.25500000000E-02 0.  1.
    5000001    1    1    2    0    0 -0.90526120599E+01 -0.28796412348E+02 -0.28717551925E+03  0.29884772377E+03  0.77000000000E+02 0.  0.
   -5000001    1    1    2    0    0  0.90526120599E+01  0.28796412348E+02 -0.12888715455E+04  0.12915223746E+04  0.77000000000E+02 0.  0.
<mgrwt>
<rscale>  0 0.21296173E+03</rscale>
<asrwt>0</asrwt>
<pdfrwt beam="1">  1        2 0.24357027E+00 0.21296173E+03</pdfrwt>
<pdfrwt beam="2">  1       -2 0.11017731E-02 0.21296173E+03</pdfrwt>
<totfact> 0.22543761E+04</totfact>
</mgrwt>
</event>
<event>
 4    1  0.5980424E-004  0.2094458E+03  0.7818608E-02  0.1142006E+00
         -2   -1    0    0    0  501 -0.00000000000E+00  0.00000000000E+00  0.54463570539E+01  0.54463576509E+01  0.25500000000E-02 0. -1.
          2   -1    0    0  501    0  0.00000000000E+00 -0.00000000000E+00 -0.20136188536E+04  0.20136188536E+04  0.25500000000E-02 0.  1.
    5000001    1    1    2    0    0 -0.66471916480E+02  0.24655265250E+02 -0.10367630785E+04  0.10420331467E+04  0.77000000000E+02 0.  0.
   -5000001    1    1    2    0    0  0.66471916480E+02 -0.24655265250E+02 -0.97140941806E+03  0.97703206462E+03  0.77000000000E+02 0.  0.
<mgrwt>
<rscale>  0 0.20944582E+03</rscale>
<asrwt>0</asrwt>
<pdfrwt beam="1">  1        2 0.30978692E+00 0.20944582E+03</pdfrwt>
<pdfrwt beam="2">  1       -2 0.83790274E-03 0.20944582E+03</pdfrwt>
<totfact> 0.19952676E+04</totfact>
</mgrwt>
</event>
<event>
 4    1  0.5980424E-004  0.2142443E+03  0.7818608E-02  0.1138248E+00
          2   -1    0    0  501    0  0.00000000000E+00  0.00000000000E+00  0.56957258469E+03  0.56957258470E+03  0.25500000000E-02 0.  1.
         -2   -1    0    0    0  501 -0.00000000000E+00 -0.00000000000E+00 -0.20146954247E+02  0.20146954408E+02  0.25500000000E-02 0. -1.
    5000001    1    1    2    0    0  0.73771692978E+02 -0.69005156122E+01  0.29536122068E+03  0.31409732645E+03  0.77000000000E+02 0.  0.
   -5000001    1    1    2    0    0 -0.73771692978E+02  0.69005156122E+01  0.25406440976E+03  0.27562221265E+03  0.77000000000E+02 0.  0.
<mgrwt>
<rscale>  0 0.21424428E+03</rscale>
<asrwt>0</asrwt>
<pdfrwt beam="1">  1        2 0.87626539E-01 0.21424428E+03</pdfrwt>
<pdfrwt beam="2">  1       -2 0.30995319E-02 0.21424428E+03</pdfrwt>
<totfact> 0.21132294E+04</totfact>
</mgrwt>
</event>
<event>
 4    1  0.5980424E-004  0.3640681E+03  0.7818608E-02  0.1056985E+00
          2   -1    0    0  501    0  0.00000000000E+00  0.00000000000E+00  0.12971439843E+04  0.12971439843E+04  0.25500000000E-02 0.  1.
         -2   -1    0    0    0  501 -0.00000000000E+00 -0.00000000000E+00 -0.25545652594E+02  0.25545652721E+02  0.25500000000E-02 0. -1.
    5000001    1    1    2    0    0 -0.10145304294E+03  0.85085657542E+02  0.99315683464E+03  0.10048988940E+04  0.77000000000E+02 0.  0.
   -5000001    1    1    2    0    0  0.10145304294E+03 -0.85085657542E+02  0.27844149708E+03  0.31779074300E+03  0.77000000000E+02 0.  0.
<mgrwt>
<rscale>  0 0.36406807E+03</rscale>
<asrwt>0</asrwt>
<pdfrwt beam="1">  1        2 0.19956061E+00 0.36406807E+03</pdfrwt>
<pdfrwt beam="2">  1       -2 0.39301005E-02 0.36406807E+03</pdfrwt>
<totfact> 0.49886259E+03</totfact>
</mgrwt>
</event>
<event>
 4    1  0.5980424E-004  0.3965505E+03  0.7818608E-02  0.1044981E+00
         -2   -1    0    0    0  501 -0.00000000000E+00  0.00000000000E+00  0.37036453703E+02  0.37036453791E+02  0.25500000000E-02 0. -1.
          2   -1    0    0  501    0  0.00000000000E+00 -0.00000000000E+00 -0.10614696674E+04  0.10614696674E+04  0.25500000000E-02 0.  1.
    5000001    1    1    2    0    0 -0.15602910353E+03  0.13305718242E+02 -0.25144000874E+03  0.30606078037E+03  0.77000000000E+02 0.  0.
   -5000001    1    1    2    0    0  0.15602910353E+03 -0.13305718242E+02 -0.77299320493E+03  0.79244534080E+03  0.77000000000E+02 0.  0.
<mgrwt>
<rscale>  0 0.39655049E+03</rscale>
<asrwt>0</asrwt>
<pdfrwt beam="1">  1        2 0.16330300E+00 0.39655049E+03</pdfrwt>
<pdfrwt beam="2">  1       -2 0.56979168E-02 0.39655049E+03</pdfrwt>
<totfact> 0.38757349E+03</totfact>
</mgrwt>
</event>
<event>
 4    1  0.5980424E-004  0.2209039E+03  0.7818608E-02  0.1133211E+00
          2   -1    0    0  501    0  0.00000000000E+00  0.00000000000E+00  0.97004342967E+03  0.97004342967E+03  0.25500000000E-02 0.  1.
         -2   -1    0    0    0  501 -0.00000000000E+00 -0.00000000000E+00 -0.12576378548E+02  0.12576378806E+02  0.25500000000E-02 0. -1.
    5000001    1    1    2    0    0 -0.78655671001E+02  0.86327349470E+01  0.46509943319E+03  0.47802481258E+03  0.77000000000E+02 0.  0.
   -5000001    1    1    2    0    0  0.78655671001E+02 -0.86327349470E+01  0.49236761793E+03  0.50459499589E+03  0.77000000000E+02 0.  0.
<mgrwt>
<rscale>  0 0.22090390E+03</rscale>
<asrwt>0</asrwt>
<pdfrwt beam="1">  1        2 0.14923744E+00 0.22090390E+03</pdfrwt>
<pdfrwt beam="2">  1       -2 0.19348276E-02 0.22090390E+03</pdfrwt>
<totfact> 0.21906312E+04</totfact>
</mgrwt>
</event>
<event>
 4    1  0.5980424E-004  0.2910250E+03  0.7818608E-02  0.1089815E+00
          2   -1    0    0  501    0  0.00000000000E+00  0.00000000000E+00  0.10648474100E+04  0.10648474100E+04  0.25500000000E-02 0.  1.
         -2   -1    0    0    0  501 -0.00000000000E+00 -0.00000000000E+00 -0.19884436948E+02  0.19884437111E+02  0.25500000000E-02 0. -1.
    5000001    1    1    2    0    0  0.11519992128E+03  0.33408724075E+02  0.41332074264E+03  0.43720727465E+03  0.77000000000E+02 0.  0.
   -5000001    1    1    2    0    0 -0.11519992128E+03 -0.33408724075E+02  0.63164223036E+03  0.64752457242E+03  0.77000000000E+02 0.  0.
<mgrwt>
<rscale>  0 0.29102502E+03</rscale>
<asrwt>0</asrwt>
<pdfrwt beam="1">  1        2 0.16382271E+00 0.29102502E+03</pdfrwt>
<pdfrwt beam="2">  1       -2 0.30591435E-02 0.29102502E+03</pdfrwt>
<totfact> 0.98627588E+03</totfact>
</mgrwt>
</event>
<event>
 4    1  0.5980424E-004  0.1896970E+03  0.7818608E-02  0.1158735E+00
         -2   -1    0    0    0  501 -0.00000000000E+00  0.00000000000E+00  0.35201160562E+01  0.35201169799E+01  0.25500000000E-02 0. -1.
          2   -1    0    0  501    0  0.00000000000E+00 -0.00000000000E+00 -0.25556642286E+04  0.25556642286E+04  0.25500000000E-02 0.  1.
    5000001    1    1    2    0    0  0.17870205713E+01  0.44872183429E+02 -0.17133376447E+04  0.17156548578E+04  0.77000000000E+02 0.  0.
   -5000001    1    1    2    0    0 -0.17870205713E+01 -0.44872183429E+02 -0.83880646781E+03  0.84352948776E+03  0.77000000000E+02 0.  0.
<mgrwt>
<rscale>  0 0.18969698E+03</rscale>
<asrwt>0</asrwt>
<pdfrwt beam="1">  1        2 0.39317763E+00 0.18969698E+03</pdfrwt>
<pdfrwt beam="2">  1       -2 0.54155843E-03 0.18969698E+03</pdfrwt>
<totfact> 0.19178061E+04</totfact>
</mgrwt>
</event>
<event>
 4    1  0.5980424E-004  0.4308785E+03  0.7818608E-02  0.1033583E+00
          2   -1    0    0  501    0  0.00000000000E+00  0.00000000000E+00  0.13482009829E+04  0.13482009829E+04  0.25500000000E-02 0.  1.
         -2   -1    0    0    0  501 -0.00000000000E+00 -0.00000000000E+00 -0.34426671455E+02  0.34426671550E+02  0.25500000000E-02 0. -1.
    5000001    1    1    2    0    0  0.12531277499E+03  0.41055909713E+02  0.16922325681E+03  0.22793505641E+03  0.77000000000E+02 0.  0.
   -5000001    1    1    2    0    0 -0.12531277499E+03 -0.41055909713E+02  0.11445510546E+04  0.11546925980E+04  0.77000000000E+02 0.  0.
<mgrwt>
<rscale>  0 0.43087851E+03</rscale>
<asrwt>0</asrwt>
<pdfrwt beam="1">  1        2 0.20741551E+00 0.43087851E+03</pdfrwt>
<pdfrwt beam="2">  1       -2 0.52964116E-02 0.43087851E+03</pdfrwt>
<totfact> 0.29602036E+03</totfact>
</mgrwt>
</event>
<event>
 4    1  0.5980424E-004  0.2207996E+03  0.7818608E-02  0.1133288E+00
         -2   -1    0    0    0  501 -0.00000000000E+00  0.00000000000E+00  0.75312764810E+02  0.75312764853E+02  0.25500000000E-02 0. -1.
          2   -1    0    0  501    0  0.00000000000E+00 -0.00000000000E+00 -0.16183340091E+03  0.16183340093E+03  0.25500000000E-02 0.  1.
    5000001    1    1    2    0    0 -0.64119997953E+02 -0.20352751508E+01  0.64664294338E+01  0.10043072833E+03  0.77000000000E+02 0.  0.
   -5000001    1    1    2    0    0  0.64119997953E+02  0.20352751508E+01 -0.92987065533E+02  0.13671543746E+03  0.77000000000E+02 0.  0.
<mgrwt>
<rscale>  0 0.22079965E+03</rscale>
<asrwt>0</asrwt>
<pdfrwt beam="1">  1        2 0.24897446E-01 0.22079965E+03</pdfrwt>
<pdfrwt beam="2">  1       -2 0.11586579E-01 0.22079965E+03</pdfrwt>
<totfact> 0.11032733E+04</totfact>
</mgrwt>
</event>
<event>
 4    1  0.5980424E-004  0.1634908E+03  0.7818608E-02  0.1184811E+00
         -2   -1    0    0    0  501 -0.00000000000E+00  0.00000000000E+00  0.36440275814E+02  0.36440275903E+02  0.25500000000E-02 0. -1.
          2   -1    0    0  501    0  0.00000000000E+00 -0.00000000000E+00 -0.18337699026E+03  0.18337699027E+03  0.25500000000E-02 0.  1.
    5000001    1    1    2    0    0 -0.17286137817E+02  0.21294409680E+02 -0.72093473600E+02  0.10898959299E+03  0.77000000000E+02 0.  0.
   -5000001    1    1    2    0    0  0.17286137817E+02 -0.21294409680E+02 -0.74843240842E+02  0.11082767319E+03  0.77000000000E+02 0.  0.
<mgrwt>
<rscale>  0 0.16349077E+03</rscale>
<asrwt>0</asrwt>
<pdfrwt beam="1">  1        2 0.28211844E-01 0.16349077E+03</pdfrwt>
<pdfrwt beam="2">  1       -2 0.56061964E-02 0.16349077E+03</pdfrwt>
<totfact> 0.29067471E+04</totfact>
</mgrwt>
</event>
<event>
 4    1  0.5980424E-004  0.2289738E+03  0.7818608E-02  0.1127364E+00
          2   -1    0    0  501    0  0.00000000000E+00  0.00000000000E+00  0.65781872810E+02  0.65781872860E+02  0.25500000000E-02 0.  1.
         -2   -1    0    0    0  501 -0.00000000000E+00 -0.00000000000E+00 -0.19925324915E+03  0.19925324916E+03  0.25500000000E-02 0. -1.
    5000001    1    1    2    0    0 -0.61627323166E+02 -0.47689742760E+02 -0.28241266369E+02  0.11313181538E+03  0.77000000000E+02 0.  0.
   -5000001    1    1    2    0    0  0.61627323166E+02  0.47689742760E+02 -0.10523010997E+03  0.15190330664E+03  0.77000000000E+02 0.  0.
<mgrwt>
<rscale>  0 0.22897381E+03</rscale>
<asrwt>0</asrwt>
<pdfrwt beam="1">  1        2 0.10120288E-01 0.22897381E+03</pdfrwt>
<pdfrwt beam="2">  1       -2 0.30654346E-01 0.22897381E+03</pdfrwt>
<totfact> 0.60939619E+03</totfact>
</mgrwt>
</event>
<event>
 4    1  0.5980424E-004  0.2322203E+03  0.7818608E-02  0.1125087E+00
          2   -1    0    0  501    0  0.00000000000E+00  0.00000000000E+00  0.32870566200E+03  0.32870566201E+03  0.25500000000E-02 0.  1.
         -2   -1    0    0    0  501 -0.00000000000E+00 -0.00000000000E+00 -0.41014091924E+02  0.41014092003E+02  0.25500000000E-02 0. -1.
    5000001    1    1    2    0    0 -0.73677392866E+02 -0.45179830800E+02  0.12934195902E+03  0.17357395454E+03  0.77000000000E+02 0.  0.
   -5000001    1    1    2    0    0  0.73677392866E+02  0.45179830800E+02  0.15834961106E+03  0.19614579948E+03  0.77000000000E+02 0.  0.
<mgrwt>
<rscale>  0 0.23222028E+03</rscale>
<asrwt>0</asrwt>
<pdfrwt beam="1">  1        2 0.50570100E-01 0.23222028E+03</pdfrwt>
<pdfrwt beam="2">  1       -2 0.63098605E-02 0.23222028E+03</pdfrwt>
<totfact> 0.13292518E+04</totfact>
</mgrwt>
</event>
<event>
 4    1  0.5980424E-004  0.2654370E+03  0.7818608E-02  0.1103920E+00
         -2   -1    0    0    0  501 -0.00000000000E+00  0.00000000000E+00  0.59051742538E+01  0.59051748044E+01  0.25500000000E-02 0. -1.
          2   -1    0    0  501    0  0.00000000000E+00 -0.00000000000E+00 -0.29828425347E+04  0.29828425347E+04  0.25500000000E-02 0.  1.
    5000001    1    1    2    0    0 -0.32683133448E+02  0.51029336462E+02 -0.48054885668E+03  0.49043693178E+03  0.77000000000E+02 0.  0.
   -5000001    1    1    2    0    0  0.32683133448E+02 -0.51029336462E+02 -0.24963885037E+04  0.24983107777E+04  0.77000000000E+02 0.  0.
<mgrwt>
<rscale>  0 0.26543704E+03</rscale>
<asrwt>0</asrwt>
<pdfrwt beam="1">  1        2 0.45889765E+00 0.26543704E+03</pdfrwt>
<pdfrwt beam="2">  1       -2 0.90849077E-03 0.26543704E+03</pdfrwt>
<totfact> 0.52308072E+03</totfact>
</mgrwt>
</event>
<event>
 4    1  0.5980424E-004  0.1753044E+03  0.7818608E-02  0.1172426E+00
          2   -1    0    0  501    0  0.00000000000E+00  0.00000000000E+00  0.23954876799E+03  0.23954876800E+03  0.25500000000E-02 0.  1.
         -2   -1    0    0    0  501 -0.00000000000E+00 -0.00000000000E+00 -0.32072407932E+02  0.32072408034E+02  0.25500000000E-02 0. -1.
    5000001    1    1    2    0    0 -0.25501951108E+02 -0.21276194702E+02  0.14326767707E+03  0.16600497963E+03  0.77000000000E+02 0.  0.
   -5000001    1    1    2    0    0  0.25501951108E+02  0.21276194702E+02  0.64208682993E+02  0.10561619640E+03  0.77000000000E+02 0.  0.
<mgrwt>
<rscale>  0 0.17530437E+03</rscale>
<asrwt>0</asrwt>
<pdfrwt beam="1">  1        2 0.36853657E-01 0.17530437E+03</pdfrwt>
<pdfrwt beam="2">  1       -2 0.49342165E-02 0.17530437E+03</pdfrwt>
<totfact> 0.26567240E+04</totfact>
</mgrwt>
</event>
<event>
 4    1  0.5980424E-004  0.2542247E+03  0.7818608E-02  0.1110664E+00
         -2   -1    0    0    0  501 -0.00000000000E+00  0.00000000000E+00  0.12551677386E+02  0.12551677645E+02  0.25500000000E-02 0. -1.
          2   -1    0    0  501    0  0.00000000000E+00 -0.00000000000E+00 -0.12872822987E+04  0.12872822987E+04  0.25500000000E-02 0.  1.
    5000001    1    1    2    0    0  0.90565473954E+02 -0.44752101815E+02 -0.61247598646E+03  0.62550834501E+03  0.77000000000E+02 0.  0.
   -5000001    1    1    2    0    0 -0.90565473954E+02  0.44752101815E+02 -0.66225463484E+03  0.67432563132E+03  0.77000000000E+02 0.  0.
<mgrwt>
<rscale>  0 0.25422472E+03</rscale>
<asrwt>0</asrwt>
<pdfrwt beam="1">  1        2 0.19804333E+00 0.25422472E+03</pdfrwt>
<pdfrwt beam="2">  1       -2 0.19310283E-02 0.25422472E+03</pdfrwt>
<totfact> 0.14463556E+04</totfact>
</mgrwt>
</event>
<event>
 4    1  0.5980424E-004  0.3282638E+03  0.7818608E-02  0.1071908E+00
          2   -1    0    0  501    0  0.00000000000E+00  0.00000000000E+00  0.37053054902E+03  0.37053054903E+03  0.25500000000E-02 0.  1.
         -2   -1    0    0    0  501 -0.00000000000E+00 -0.00000000000E+00 -0.72704604482E+02  0.72704604526E+02  0.25500000000E-02 0. -1.
    5000001    1    1    2    0    0 -0.47967094790E+02 -0.13549500930E+03  0.12363289770E+03  0.20463096814E+03  0.77000000000E+02 0.  0.
   -5000001    1    1    2    0    0  0.47967094790E+02  0.13549500930E+03  0.17419304684E+03  0.23860418541E+03  0.77000000000E+02 0.  0.
<mgrwt>
<rscale>  0 0.32826378E+03</rscale>
<asrwt>0</asrwt>
<pdfrwt beam="1">  1        2 0.57004699E-01 0.32826378E+03</pdfrwt>
<pdfrwt beam="2">  1       -2 0.11185324E-01 0.32826378E+03</pdfrwt>
<totfact> 0.48180014E+03</totfact>
</mgrwt>
</event>
<event>
 4    1  0.5980424E-004  0.1919527E+03  0.7818608E-02  0.1156712E+00
          2   -1    0    0  501    0  0.00000000000E+00  0.00000000000E+00  0.29633341431E+04  0.29633341431E+04  0.25500000000E-02 0.  1.
         -2   -1    0    0    0  501 -0.00000000000E+00 -0.00000000000E+00 -0.31084785419E+01  0.31084795879E+01  0.25500000000E-02 0. -1.
    5000001    1    1    2    0    0  0.28128290331E+02 -0.39268996218E+02  0.10039864775E+04  0.10080928042E+04  0.77000000000E+02 0.  0.
   -5000001    1    1    2    0    0 -0.28128290331E+02  0.39268996218E+02  0.19562391871E+04  0.19583498186E+04  0.77000000000E+02 0.  0.
<mgrwt>
<rscale>  0 0.19195272E+03</rscale>
<asrwt>0</asrwt>
<pdfrwt beam="1">  1        2 0.45589610E+00 0.19195272E+03</pdfrwt>
<pdfrwt beam="2">  1       -2 0.47822908E-03 0.19195272E+03</pdfrwt>
<totfact> 0.13516945E+04</totfact>
</mgrwt>
</event>
<event>
 4    1  0.5980424E-004  0.3400838E+03  0.7818608E-02  0.1066760E+00
         -2   -1    0    0    0  501 -0.00000000000E+00  0.00000000000E+00  0.21249462309E+02  0.21249462462E+02  0.25500000000E-02 0. -1.
          2   -1    0    0  501    0  0.00000000000E+00 -0.00000000000E+00 -0.13607052340E+04  0.13607052340E+04  0.25500000000E-02 0.  1.
    5000001    1    1    2    0    0 -0.10004833770E+03 -0.61800543577E+02 -0.28089115278E+03  0.31409841893E+03  0.77000000000E+02 0.  0.
   -5000001    1    1    2    0    0  0.10004833770E+03  0.61800543577E+02 -0.10585646189E+04  0.10678562775E+04  0.77000000000E+02 0.  0.
<mgrwt>
<rscale>  0 0.34008384E+03</rscale>
<asrwt>0</asrwt>
<pdfrwt beam="1">  1        2 0.20933920E+00 0.34008384E+03</pdfrwt>
<pdfrwt beam="2">  1       -2 0.32691491E-02 0.34008384E+03</pdfrwt>
<totfact> 0.60678513E+03</totfact>
</mgrwt>
</event>
<event>
 4    1  0.5980424E-004  0.3873457E+03  0.7818608E-02  0.1048252E+00
          2   -1    0    0  501    0  0.00000000000E+00  0.00000000000E+00  0.14608569581E+04  0.14608569581E+04  0.25500000000E-02 0.  1.
         -2   -1    0    0    0  501 -0.00000000000E+00 -0.00000000000E+00 -0.25676139419E+02  0.25676139545E+02  0.25500000000E-02 0. -1.
    5000001    1    1    2    0    0 -0.66009739273E+02  0.10035348529E+03  0.12202037513E+04  0.12285171152E+04  0.77000000000E+02 0.  0.
   -5000001    1    1    2    0    0  0.66009739273E+02 -0.10035348529E+03  0.21497706737E+03  0.25801598242E+03  0.77000000000E+02 0.  0.
<mgrwt>
<rscale>  0 0.38734567E+03</rscale>
<asrwt>0</asrwt>
<pdfrwt beam="1">  1        2 0.22474723E+00 0.38734567E+03</pdfrwt>
<pdfrwt beam="2">  1       -2 0.39501752E-02 0.38734567E+03</pdfrwt>
<totfact> 0.40198414E+03</totfact>
</mgrwt>
</event>
<event>
 4    1  0.5980424E-004  0.2007065E+03  0.7818608E-02  0.1149144E+00
         -2   -1    0    0    0  501 -0.00000000000E+00  0.00000000000E+00  0.64149478254E+01  0.64149483322E+01  0.25500000000E-02 0. -1.
          2   -1    0    0  501    0  0.00000000000E+00 -0.00000000000E+00 -0.15698922706E+04  0.15698922706E+04  0.25500000000E-02 0.  1.
    5000001    1    1    2    0    0  0.64019109523E+02 -0.41402155930E+01 -0.74154624379E+03  0.74828832641E+03  0.77000000000E+02 0.  0.
   -5000001    1    1    2    0    0 -0.64019109523E+02  0.41402155930E+01 -0.82193107902E+03  0.82801889256E+03  0.77000000000E+02 0.  0.
<mgrwt>
<rscale>  0 0.20070653E+03</rscale>
<asrwt>0</asrwt>
<pdfrwt beam="1">  1        2 0.24152158E+00 0.20070653E+03</pdfrwt>
<pdfrwt beam="2">  1       -2 0.98691634E-03 0.20070653E+03</pdfrwt>
<totfact> 0.26780488E+04</totfact>
</mgrwt>
</event>
<event>
 4    1  0.5980424E-004  0.2409494E+03  0.7818608E-02  0.1119162E+00
          2   -1    0    0  501    0  0.00000000000E+00  0.00000000000E+00  0.70063640119E+03  0.70063640120E+03  0.25500000000E-02 0.  1.
         -2   -1    0    0    0  501 -0.00000000000E+00 -0.00000000000E+00 -0.20715675835E+02  0.20715675992E+02  0.25500000000E-02 0. -1.
    5000001    1    1    2    0    0 -0.75059807446E+02 -0.21543019148E+02  0.48926259056E+03  0.50140299051E+03  0.77000000000E+02 0.  0.
   -5000001    1    1    2    0    0  0.75059807446E+02  0.21543019148E+02  0.19065813479E+03  0.21994908668E+03  0.77000000000E+02 0.  0.
<mgrwt>
<rscale>  0 0.24094943E+03</rscale>
<asrwt>0</asrwt>
<pdfrwt beam="1">  1        2 0.10779019E+00 0.24094943E+03</pdfrwt>
<pdfrwt beam="2">  1       -2 0.31870279E-02 0.24094943E+03</pdfrwt>
<totfact> 0.16013762E+04</totfact>
</mgrwt>
</event>
<event>
 4    1  0.5980424E-004  0.1780137E+03  0.7818608E-02  0.1169739E+00
         -2   -1    0    0    0  501 -0.00000000000E+00  0.00000000000E+00  0.60614709771E+02  0.60614709824E+02  0.25500000000E-02 0. -1.
          2   -1    0    0  501    0  0.00000000000E+00 -0.00000000000E+00 -0.13069789385E+03  0.13069789387E+03  0.25500000000E-02 0.  1.
    5000001    1    1    2    0    0  0.33661535638E+02 -0.24131320908E+01 -0.36297336912E+01  0.84149255223E+02  0.77000000000E+02 0.  0.
   -5000001    1    1    2    0    0 -0.33661535638E+02  0.24131320908E+01 -0.66453450386E+02  0.10716334847E+03  0.77000000000E+02 0.  0.
<mgrwt>
<rscale>  0 0.17801365E+03</rscale>
<asrwt>0</asrwt>
<pdfrwt beam="1">  1        2 0.20107368E-01 0.17801365E+03</pdfrwt>
<pdfrwt beam="2">  1       -2 0.93253400E-02 0.17801365E+03</pdfrwt>
<totfact> 0.19499133E+04</totfact>
</mgrwt>
</event>
<event>
 4    1  0.5980424E-004  0.2194691E+03  0.7818608E-02  0.1134280E+00
         -2   -1    0    0    0  501 -0.00000000000E+00  0.00000000000E+00  0.66334860006E+01  0.66334864907E+01  0.25500000000E-02 0. -1.
          2   -1    0    0  501    0  0.00000000000E+00 -0.00000000000E+00 -0.18152848676E+04  0.18152848676E+04  0.25500000000E-02 0.  1.
    5000001    1    1    2    0    0  0.70599079073E+02  0.14421393882E+02 -0.65246626120E+03  0.66093375505E+03  0.77000000000E+02 0.  0.
   -5000001    1    1    2    0    0 -0.70599079073E+02 -0.14421393882E+02 -0.11561851204E+04  0.11609845990E+04  0.77000000000E+02 0.  0.
<mgrwt>
<rscale>  0 0.21946906E+03</rscale>
<asrwt>0</asrwt>
<pdfrwt beam="1">  1        2 0.27927420E+00 0.21946906E+03</pdfrwt>
<pdfrwt beam="2">  1       -2 0.10205378E-02 0.21946906E+03</pdfrwt>
<totfact> 0.19072692E+04</totfact>
</mgrwt>
</event>
<event>
 4    1  0.5980424E-004  0.7358530E+03  0.7818608E-02  0.9657810E-01
          2   -1    0    0  501    0  0.00000000000E+00  0.00000000000E+00  0.10954565853E+04  0.10954565853E+04  0.25500000000E-02 0.  1.
         -2   -1    0    0    0  501 -0.00000000000E+00 -0.00000000000E+00 -0.12357396060E+03  0.12357396062E+03  0.25500000000E-02 0. -1.
    5000001    1    1    2    0    0  0.26593627724E+02  0.32135958888E+03  0.75028396510E+03  0.82026473451E+03  0.77000000000E+02 0.  0.
   -5000001    1    1    2    0    0 -0.26593627724E+02 -0.32135958888E+03  0.22159865957E+03  0.39876581138E+03  0.77000000000E+02 0.  0.
<mgrwt>
<rscale>  0 0.73585300E+03</rscale>
<asrwt>0</asrwt>
<pdfrwt beam="1">  1        2 0.16853178E+00 0.73585300E+03</pdfrwt>
<pdfrwt beam="2">  1       -2 0.19011379E-01 0.73585300E+03</pdfrwt>
<totfact> 0.51497979E+02</totfact>
</mgrwt>
</event>
<event>
 4    1  0.5980424E-004  0.3020882E+03  0.7818608E-02  0.1084201E+00
          2   -1    0    0  501    0  0.00000000000E+00  0.00000000000E+00  0.14671720900E+04  0.14671720900E+04  0.25500000000E-02 0.  1.
         -2   -1    0    0    0  501 -0.00000000000E+00 -0.00000000000E+00 -0.15549864644E+02  0.15549864853E+02  0.25500000000E-02 0. -1.
    5000001    1    1    2    0    0 -0.78774588381E+02 -0.10237324176E+03  0.79515661489E+03  0.80925197473E+03  0.77000000000E+02 0.  0.
   -5000001    1    1    2    0    0  0.78774588381E+02  0.10237324176E+03  0.65646561045E+03  0.67346998011E+03  0.77000000000E+02 0.  0.
<mgrwt>
<rscale>  0 0.30208825E+03</rscale>
<asrwt>0</asrwt>
<pdfrwt beam="1">  1        2 0.22571867E+00 0.30208825E+03</pdfrwt>
<pdfrwt beam="2">  1       -2 0.23922880E-02 0.30208825E+03</pdfrwt>
<totfact> 0.84461267E+03</totfact>
</mgrwt>
</event>
<event>
 4    1  0.5980424E-004  0.2126333E+03  0.7818608E-02  0.1139498E+00
          2   -1    0    0  501    0  0.00000000000E+00  0.00000000000E+00  0.20078559218E+02  0.20078559380E+02  0.25500000000E-02 0.  1.
         -2   -1    0    0    0  501 -0.00000000000E+00 -0.00000000000E+00 -0.56295020271E+03  0.56295020271E+03  0.25500000000E-02 0. -1.
    5000001    1    1    2    0    0  0.46415548245E+02 -0.14551114634E+02 -0.12105093126E+03  0.15148751108E+03  0.77000000000E+02 0.  0.
   -5000001    1    1    2    0    0 -0.46415548245E+02  0.14551114634E+02 -0.42182071223E+03  0.43154125101E+03  0.77000000000E+02 0.  0.
<mgrwt>
<rscale>  0 0.21263329E+03</rscale>
<asrwt>0</asrwt>
<pdfrwt beam="1">  1        2 0.30890096E-02 0.21263329E+03</pdfrwt>
<pdfrwt beam="2">  1       -2 0.86607711E-01 0.21263329E+03</pdfrwt>
<totfact> 0.35292094E+03</totfact>
</mgrwt>
</event>
<event>
 4    1  0.5980424E-004  0.1865435E+03  0.7818608E-02  0.1161616E+00
         -2   -1    0    0    0  501 -0.00000000000E+00  0.00000000000E+00  0.37706635120E+01  0.37706643742E+01  0.25500000000E-02 0. -1.
          2   -1    0    0  501    0  0.00000000000E+00 -0.00000000000E+00 -0.23071841330E+04  0.23071841330E+04  0.25500000000E-02 0.  1.
    5000001    1    1    2    0    0  0.90029180627E+01 -0.51056912287E+02 -0.10390105916E+04  0.10431490163E+04  0.77000000000E+02 0.  0.
   -5000001    1    1    2    0    0 -0.90029180627E+01  0.51056912287E+02 -0.12644028779E+04  0.12678057811E+04  0.77000000000E+02 0.  0.
<mgrwt>
<rscale>  0 0.18654346E+03</rscale>
<asrwt>0</asrwt>
<pdfrwt beam="1">  1        2 0.35495028E+00 0.18654346E+03</pdfrwt>
<pdfrwt beam="2">  1       -2 0.58010399E-03 0.18654346E+03</pdfrwt>
<totfact> 0.23617500E+04</totfact>
</mgrwt>
</event>
<event>
 4    1  0.5980424E-004  0.1826518E+03  0.7818608E-02  0.1165261E+00
         -2   -1    0    0    0  501 -0.00000000000E+00  0.00000000000E+00  0.15709316386E+02  0.15709316593E+02  0.25500000000E-02 0. -1.
          2   -1    0    0  501    0  0.00000000000E+00 -0.00000000000E+00 -0.53092165580E+03  0.53092165580E+03  0.25500000000E-02 0.  1.
    5000001    1    1    2    0    0 -0.21076374934E+02  0.36066120365E+02 -0.33486536060E+03  0.34613406123E+03  0.77000000000E+02 0.  0.
   -5000001    1    1    2    0    0  0.21076374934E+02 -0.36066120365E+02 -0.18034697882E+03  0.20049691117E+03  0.77000000000E+02 0.  0.
<mgrwt>
<rscale>  0 0.18265176E+03</rscale>
<asrwt>0</asrwt>
<pdfrwt beam="1">  1        2 0.81680241E-01 0.18265176E+03</pdfrwt>
<pdfrwt beam="2">  1       -2 0.24168183E-02 0.18265176E+03</pdfrwt>
<totfact> 0.32634257E+04</totfact>
</mgrwt>
</event>
<event>
 4    1  0.5980424E-004  0.1993216E+03  0.7818608E-02  0.1150313E+00
         -2   -1    0    0    0  501 -0.00000000000E+00  0.00000000000E+00  0.69749908402E+03  0.69749908402E+03  0.25500000000E-02 0. -1.
          2   -1    0    0  501    0  0.00000000000E+00 -0.00000000000E+00 -0.14239843121E+02  0.14239843349E+02  0.25500000000E-02 0.  1.
    5000001    1    1    2    0    0 -0.59417278307E+02  0.84472280062E+01  0.41318032884E+03  0.42455712544E+03  0.77000000000E+02 0.  0.
   -5000001    1    1    2    0    0  0.59417278307E+02 -0.84472280062E+01  0.27007891205E+03  0.28718180193E+03  0.77000000000E+02 0.  0.
<mgrwt>
<rscale>  0 0.19932163E+03</rscale>
<asrwt>0</asrwt>
<pdfrwt beam="1">  1        2 0.21907457E-02 0.19932163E+03</pdfrwt>
<pdfrwt beam="2">  1       -2 0.10730752E+00 0.19932163E+03</pdfrwt>
<totfact> 0.34336079E+03</totfact>
</mgrwt>
</event>
<event>
 4    1  0.5980424E-004  0.4334443E+03  0.7818608E-02  0.1032777E+00
          2   -1    0    0  501    0  0.00000000000E+00  0.00000000000E+00  0.50013128770E+03  0.50013128771E+03  0.25500000000E-02 0.  1.
         -2   -1    0    0    0  501 -0.00000000000E+00 -0.00000000000E+00 -0.93912318820E+02  0.93912318854E+02  0.25500000000E-02 0. -1.
    5000001    1    1    2    0    0  0.11215117383E+03 -0.16868205990E+03  0.20697761006E+03  0.29966690539E+03  0.77000000000E+02 0.  0.
   -5000001    1    1    2    0    0 -0.11215117383E+03  0.16868205990E+03  0.19924135882E+03  0.29437670117E+03  0.77000000000E+02 0.  0.
<mgrwt>
<rscale>  0 0.43344429E+03</rscale>
<asrwt>0</asrwt>
<pdfrwt beam="1">  1        2 0.76943275E-01 0.43344429E+03</pdfrwt>
<pdfrwt beam="2">  1       -2 0.14448049E-01 0.43344429E+03</pdfrwt>
<totfact> 0.22815202E+03</totfact>
</mgrwt>
</event>
<event>
 4    1  0.5980424E-004  0.3379500E+03  0.7818608E-02  0.1067672E+00
         -2   -1    0    0    0  501 -0.00000000000E+00  0.00000000000E+00  0.61317163708E+02  0.61317163761E+02  0.25500000000E-02 0. -1.
          2   -1    0    0  501    0  0.00000000000E+00 -0.00000000000E+00 -0.46565346892E+03  0.46565346893E+03  0.25500000000E-02 0.  1.
    5000001    1    1    2    0    0 -0.10912630920E+03 -0.79220768405E+02 -0.30605962239E+03  0.34319961241E+03  0.77000000000E+02 0.  0.
   -5000001    1    1    2    0    0  0.10912630920E+03  0.79220768405E+02 -0.98276682826E+02  0.18377102027E+03  0.77000000000E+02 0.  0.
<mgrwt>
<rscale>  0 0.33795000E+03</rscale>
<asrwt>0</asrwt>
<pdfrwt beam="1">  1        2 0.71638993E-01 0.33795000E+03</pdfrwt>
<pdfrwt beam="2">  1       -2 0.94334101E-02 0.33795000E+03</pdfrwt>
<totfact> 0.49258528E+03</totfact>
</mgrwt>
</event>
<event>
 4    1  0.5980424E-004  0.3190907E+03  0.7818608E-02  0.1076069E+00
         -2   -1    0    0    0  501 -0.00000000000E+00  0.00000000000E+00  0.11370473617E+03  0.11370473620E+03  0.25500000000E-02 0. -1.
          2   -1    0    0  501    0  0.00000000000E+00 -0.00000000000E+00 -0.22386682152E+03  0.22386682153E+03  0.25500000000E-02 0.  1.
    5000001    1    1    2    0    0  0.91378379855E+02 -0.65586693683E+02  0.32631051274E+02  0.14016207832E+03  0.77000000000E+02 0.  0.
   -5000001    1    1    2    0    0 -0.91378379855E+02  0.65586693683E+02 -0.14279313662E+03  0.19740947940E+03  0.77000000000E+02 0.  0.
<mgrwt>
<rscale>  0 0.31909069E+03</rscale>
<asrwt>0</asrwt>
<pdfrwt beam="1">  1        2 0.34441049E-01 0.31909069E+03</pdfrwt>
<pdfrwt beam="2">  1       -2 0.17493036E-01 0.31909069E+03</pdfrwt>
<totfact> 0.39809978E+03</totfact>
</mgrwt>
</event>
<event>
 4    1  0.5980424E-004  0.1978650E+03  0.7818608E-02  0.1151553E+00
         -2   -1    0    0    0  501 -0.00000000000E+00  0.00000000000E+00  0.29651774699E+03  0.29651774700E+03  0.25500000000E-02 0. -1.
          2   -1    0    0  501    0  0.00000000000E+00 -0.00000000000E+00 -0.33008605794E+02  0.33008605892E+02  0.25500000000E-02 0.  1.
    5000001    1    1    2    0    0  0.21601864980E+02 -0.18970503529E+02  0.40049323103E+02  0.91430131006E+02  0.77000000000E+02 0.  0.
   -5000001    1    1    2    0    0 -0.21601864980E+02  0.18970503529E+02  0.22345981809E+03  0.23809622189E+03  0.77000000000E+02 0.  0.
<mgrwt>
<rscale>  0 0.19786498E+03</rscale>
<asrwt>0</asrwt>
<pdfrwt beam="1">  1        2 0.50782471E-02 0.19786498E+03</pdfrwt>
<pdfrwt beam="2">  1       -2 0.45618115E-01 0.19786498E+03</pdfrwt>
<totfact> 0.69031664E+03</totfact>
</mgrwt>
</event>
<event>
 4    1  0.5980424E-004  0.2937254E+03  0.7818608E-02  0.1088420E+00
         -2   -1    0    0    0  501 -0.00000000000E+00  0.00000000000E+00  0.15028368128E+02  0.15028368344E+02  0.25500000000E-02 0. -1.
          2   -1    0    0  501    0  0.00000000000E+00 -0.00000000000E+00 -0.14351963590E+04  0.14351963590E+04  0.25500000000E-02 0.  1.
    5000001    1    1    2    0    0 -0.86684835003E+02 -0.23178587099E+02 -0.27999162248E+03  0.30393390100E+03  0.77000000000E+02 0.  0.
   -5000001    1    1    2    0    0  0.86684835003E+02  0.23178587099E+02 -0.11401763684E+04  0.11462908264E+04  0.77000000000E+02 0.  0.
<mgrwt>
<rscale>  0 0.29372545E+03</rscale>
<asrwt>0</asrwt>
<pdfrwt beam="1">  1        2 0.22079933E+00 0.29372545E+03</pdfrwt>
<pdfrwt beam="2">  1       -2 0.23120578E-02 0.29372545E+03</pdfrwt>
<totfact> 0.92403397E+03</totfact>
</mgrwt>
</event>
<event>
 4    1  0.5980424E-004  0.2987512E+03  0.7818608E-02  0.1085867E+00
          2   -1    0    0  501    0  0.00000000000E+00  0.00000000000E+00  0.13475937081E+04  0.13475937081E+04  0.25500000000E-02 0.  1.
         -2   -1    0    0    0  501 -0.00000000000E+00 -0.00000000000E+00 -0.16557715217E+02  0.16557715413E+02  0.25500000000E-02 0. -1.
    5000001    1    1    2    0    0 -0.25993634053E+02 -0.12451802815E+03  0.60035355061E+03  0.61849316413E+03  0.77000000000E+02 0.  0.
   -5000001    1    1    2    0    0  0.25993634053E+02  0.12451802815E+03  0.73068244228E+03  0.74565825940E+03  0.77000000000E+02 0.  0.
<mgrwt>
<rscale>  0 0.29875122E+03</rscale>
<asrwt>0</asrwt>
<pdfrwt beam="1">  1        2 0.20732207E+00 0.29875122E+03</pdfrwt>
<pdfrwt beam="2">  1       -2 0.25473413E-02 0.29875122E+03</pdfrwt>
<totfact> 0.89381537E+03</totfact>
</mgrwt>
</event>
<event>
 4    1  0.5980424E-004  0.2187646E+03  0.7818608E-02  0.1134807E+00
         -2   -1    0    0    0  501 -0.00000000000E+00  0.00000000000E+00  0.38621292952E+02  0.38621293036E+02  0.25500000000E-02 0. -1.
          2   -1    0    0  501    0  0.00000000000E+00 -0.00000000000E+00 -0.30978988634E+03  0.30978988635E+03  0.25500000000E-02 0.  1.
    5000001    1    1    2    0    0  0.58375362586E+02  0.41428727992E+02 -0.87502055023E+02  0.13678315720E+03  0.77000000000E+02 0.  0.
   -5000001    1    1    2    0    0 -0.58375362586E+02 -0.41428727992E+02 -0.18366653836E+03  0.21162802219E+03  0.77000000000E+02 0.  0.
<mgrwt>
<rscale>  0 0.21876459E+03</rscale>
<asrwt>0</asrwt>
<pdfrwt beam="1">  1        2 0.47659981E-01 0.21876459E+03</pdfrwt>
<pdfrwt beam="2">  1       -2 0.59417376E-02 0.21876459E+03</pdfrwt>
<totfact> 0.15474107E+04</totfact>
</mgrwt>
</event>
<event>
 4    1  0.5980424E-004  0.2223963E+03  0.7818608E-02  0.1132109E+00
          2   -1    0    0  501    0  0.00000000000E+00  0.00000000000E+00  0.73081943003E+03  0.73081943003E+03  0.25500000000E-02 0.  1.
         -2   -1    0    0    0  501 -0.00000000000E+00 -0.00000000000E+00 -0.16919402313E+02  0.16919402505E+02  0.25500000000E-02 0. -1.
    5000001    1    1    2    0    0 -0.38003442491E+02 -0.61564222288E+02  0.24040205227E+03  0.26259581459E+03  0.77000000000E+02 0.  0.
   -5000001    1    1    2    0    0  0.38003442491E+02  0.61564222288E+02  0.47349797545E+03  0.48514301794E+03  0.77000000000E+02 0.  0.
<mgrwt>
<rscale>  0 0.22239630E+03</rscale>
<asrwt>0</asrwt>
<pdfrwt beam="1">  1        2 0.11243376E+00 0.22239630E+03</pdfrwt>
<pdfrwt beam="2">  1       -2 0.26029850E-02 0.22239630E+03</pdfrwt>
<totfact> 0.20445133E+04</totfact>
</mgrwt>
</event>
<event>
 4    1  0.5980424E-004  0.3174522E+03  0.7818608E-02  0.1076828E+00
         -2   -1    0    0    0  501 -0.00000000000E+00  0.00000000000E+00  0.51829989570E+02  0.51829989633E+02  0.25500000000E-02 0. -1.
          2   -1    0    0  501    0  0.00000000000E+00 -0.00000000000E+00 -0.48608885857E+03  0.48608885857E+03  0.25500000000E-02 0.  1.
    5000001    1    1    2    0    0  0.11311458869E+03  0.67767051093E+02 -0.14370321983E+03  0.20968285285E+03  0.77000000000E+02 0.  0.
   -5000001    1    1    2    0    0 -0.11311458869E+03 -0.67767051093E+02 -0.29055564916E+03  0.32823599536E+03  0.77000000000E+02 0.  0.
<mgrwt>
<rscale>  0 0.31745224E+03</rscale>
<asrwt>0</asrwt>
<pdfrwt beam="1">  1        2 0.74782898E-01 0.31745224E+03</pdfrwt>
<pdfrwt beam="2">  1       -2 0.79738449E-02 0.31745224E+03</pdfrwt>
<totfact> 0.61120877E+03</totfact>
</mgrwt>
</event>
<event>
 4    1  0.5980424E-004  0.2747845E+03  0.7818608E-02  0.1098572E+00
          2   -1    0    0  501    0  0.00000000000E+00  0.00000000000E+00  0.10684221115E+04  0.10684221115E+04  0.25500000000E-02 0.  1.
         -2   -1    0    0    0  501 -0.00000000000E+00 -0.00000000000E+00 -0.17667761035E+02  0.17667761219E+02  0.25500000000E-02 0. -1.
    5000001    1    1    2    0    0 -0.95891587041E+02  0.58007991119E+02  0.60318283601E+03  0.61831921946E+03  0.77000000000E+02 0.  0.
   -5000001    1    1    2    0    0  0.95891587041E+02 -0.58007991119E+02  0.44757151442E+03  0.46777065322E+03  0.77000000000E+02 0.  0.
<mgrwt>
<rscale>  0 0.27478447E+03</rscale>
<asrwt>0</asrwt>
<pdfrwt beam="1">  1        2 0.16437265E+00 0.27478447E+03</pdfrwt>
<pdfrwt beam="2">  1       -2 0.27181169E-02 0.27478447E+03</pdfrwt>
<totfact> 0.11682536E+04</totfact>
</mgrwt>
</event>
<event>
 4    1  0.5980424E-004  0.1942496E+03  0.7818608E-02  0.1154683E+00
         -2   -1    0    0    0  501 -0.00000000000E+00  0.00000000000E+00  0.94859962547E+01  0.94859965975E+01  0.25500000000E-02 0. -1.
          2   -1    0    0  501    0  0.00000000000E+00 -0.00000000000E+00 -0.99443670739E+03  0.99443670739E+03  0.25500000000E-02 0.  1.
    5000001    1    1    2    0    0 -0.54175324862E+02 -0.23857477586E+02 -0.49103200063E+03  0.50054527338E+03  0.77000000000E+02 0.  0.
   -5000001    1    1    2    0    0  0.54175324862E+02  0.23857477586E+02 -0.49391871051E+03  0.50337743061E+03  0.77000000000E+02 0.  0.
<mgrwt>
<rscale>  0 0.19424956E+03</rscale>
<asrwt>0</asrwt>
<pdfrwt beam="1">  1        2 0.15299018E+00 0.19424956E+03</pdfrwt>
<pdfrwt beam="2">  1       -2 0.14593849E-02 0.19424956E+03</pdfrwt>
<totfact> 0.31670131E+04</totfact>
</mgrwt>
</event>
<event>
 4    1  0.5980424E-004  0.2392582E+03  0.7818608E-02  0.1120288E+00
          2   -1    0    0  501    0  0.00000000000E+00  0.00000000000E+00  0.16202978907E+04  0.16202978907E+04  0.25500000000E-02 0.  1.
         -2   -1    0    0    0  501 -0.00000000000E+00 -0.00000000000E+00 -0.88324047066E+01  0.88324050747E+01  0.25500000000E-02 0. -1.
    5000001    1    1    2    0    0 -0.49744965151E+02  0.68914370155E+02  0.57398607280E+03  0.58533132817E+03  0.77000000000E+02 0.  0.
   -5000001    1    1    2    0    0  0.49744965151E+02 -0.68914370155E+02  0.10374794132E+04  0.10437989676E+04  0.77000000000E+02 0.  0.
<mgrwt>
<rscale>  0 0.23925825E+03</rscale>
<asrwt>0</asrwt>
<pdfrwt beam="1">  1        2 0.24927654E+00 0.23925825E+03</pdfrwt>
<pdfrwt beam="2">  1       -2 0.13588318E-02 0.23925825E+03</pdfrwt>
<totfact> 0.15971936E+04</totfact>
</mgrwt>
</event>
<event>
 4    1  0.5980424E-004  0.1837279E+03  0.7818608E-02  0.1164243E+00
         -2   -1    0    0    0  501 -0.00000000000E+00  0.00000000000E+00  0.68904956583E+01  0.68904961302E+01  0.25500000000E-02 0. -1.
          2   -1    0    0  501    0  0.00000000000E+00 -0.00000000000E+00 -0.12247286884E+04  0.12247286884E+04  0.25500000000E-02 0.  1.
    5000001    1    1    2    0    0 -0.13740055369E+01 -0.49285423683E+02 -0.54931936524E+03  0.55687674212E+03  0.77000000000E+02 0.  0.
   -5000001    1    1    2    0    0  0.13740055369E+01  0.49285423683E+02 -0.66851882753E+03  0.67474244245E+03  0.77000000000E+02 0.  0.
<mgrwt>
<rscale>  0 0.18372793E+03</rscale>
<asrwt>0</asrwt>
<pdfrwt beam="1">  1        2 0.18841963E+00 0.18372793E+03</pdfrwt>
<pdfrwt beam="2">  1       -2 0.10600773E-02 0.18372793E+03</pdfrwt>
<totfact> 0.36840917E+04</totfact>
</mgrwt>
</event>
<event>
 4    1  0.5980424E-004  0.2235067E+03  0.7818608E-02  0.1131295E+00
         -2   -1    0    0    0  501 -0.00000000000E+00  0.00000000000E+00  0.10370417650E+02  0.10370417963E+02  0.25500000000E-02 0. -1.
          2   -1    0    0  501    0  0.00000000000E+00 -0.00000000000E+00 -0.12042728210E+04  0.12042728210E+04  0.25500000000E-02 0.  1.
    5000001    1    1    2    0    0  0.77781382860E+02 -0.19545164438E+02 -0.65840059559E+03  0.66772172441E+03  0.77000000000E+02 0.  0.
   -5000001    1    1    2    0    0 -0.77781382860E+02  0.19545164438E+02 -0.53550180778E+03  0.54692151458E+03  0.77000000000E+02 0.  0.
<mgrwt>
<rscale>  0 0.22350671E+03</rscale>
<asrwt>0</asrwt>
<pdfrwt beam="1">  1        2 0.18527263E+00 0.22350671E+03</pdfrwt>
<pdfrwt beam="2">  1       -2 0.15954498E-02 0.22350671E+03</pdfrwt>
<totfact> 0.21163308E+04</totfact>
</mgrwt>
</event>
<event>
 4    1  0.5980424E-004  0.1912079E+03  0.7818608E-02  0.1157376E+00
          2   -1    0    0  501    0  0.00000000000E+00  0.00000000000E+00  0.13039947593E+02  0.13039947843E+02  0.25500000000E-02 0.  1.
         -2   -1    0    0    0  501 -0.00000000000E+00 -0.00000000000E+00 -0.70093211919E+03  0.70093211919E+03  0.25500000000E-02 0. -1.
    5000001    1    1    2    0    0  0.38555691284E+02 -0.10925000033E+02 -0.49354993499E+03  0.50112516927E+03  0.77000000000E+02 0.  0.
   -5000001    1    1    2    0    0 -0.38555691284E+02  0.10925000033E+02 -0.19434223661E+03  0.21284689776E+03  0.77000000000E+02 0.  0.
<mgrwt>
<rscale>  0 0.19120793E+03</rscale>
<asrwt>0</asrwt>
<pdfrwt beam="1">  1        2 0.20061464E-02 0.19120793E+03</pdfrwt>
<pdfrwt beam="2">  1       -2 0.10783568E+00 0.19120793E+03</pdfrwt>
<totfact> 0.38195324E+03</totfact>
</mgrwt>
</event>
<event>
 4    1  0.5980424E-004  0.5898503E+03  0.7818608E-02  0.9926690E-01
         -2   -1    0    0    0  501 -0.00000000000E+00  0.00000000000E+00  0.20725474029E+03  0.20725474030E+03  0.25500000000E-02 0. -1.
          2   -1    0    0  501    0  0.00000000000E+00 -0.00000000000E+00 -0.41968087648E+03  0.41968087649E+03  0.25500000000E-02 0.  1.
    5000001    1    1    2    0    0 -0.19398127379E+03  0.18813494046E+03 -0.20144762344E+03  0.34573636689E+03  0.77000000000E+02 0.  0.
   -5000001    1    1    2    0    0  0.19398127379E+03 -0.18813494046E+03 -0.10978512755E+02  0.28119924990E+03  0.77000000000E+02 0.  0.
<mgrwt>
<rscale>  0 0.58985032E+03</rscale>
<asrwt>0</asrwt>
<pdfrwt beam="1">  1        2 0.64566289E-01 0.58985032E+03</pdfrwt>
<pdfrwt beam="2">  1       -2 0.31885345E-01 0.58985032E+03</pdfrwt>
<totfact> 0.69257763E+02</totfact>
</mgrwt>
</event>
<event>
 4    1  0.5980424E-004  0.1971354E+03  0.7818608E-02  0.1152179E+00
         -2   -1    0    0    0  501 -0.00000000000E+00  0.00000000000E+00  0.84480325163E+02  0.84480325202E+02  0.25500000000E-02 0. -1.
          2   -1    0    0  501    0  0.00000000000E+00 -0.00000000000E+00 -0.11500424665E+03  0.11500424668E+03  0.25500000000E-02 0.  1.
    5000001    1    1    2    0    0  0.34868459391E+02 -0.18302661242E+02 -0.63109653096E+02  0.10706365015E+03  0.77000000000E+02 0.  0.
   -5000001    1    1    2    0    0 -0.34868459391E+02  0.18302661242E+02  0.32585731612E+02  0.92420921731E+02  0.77000000000E+02 0.  0.
<mgrwt>
<rscale>  0 0.19713545E+03</rscale>
<asrwt>0</asrwt>
<pdfrwt beam="1">  1        2 0.17692961E-01 0.19713545E+03</pdfrwt>
<pdfrwt beam="2">  1       -2 0.12996973E-01 0.19713545E+03</pdfrwt>
<totfact> 0.13407678E+04</totfact>
</mgrwt>
</event>
<event>
 4    1  0.5980424E-004  0.2866308E+03  0.7818608E-02  0.1092121E+00
          2   -1    0    0  501    0  0.00000000000E+00  0.00000000000E+00  0.11549091544E+03  0.11549091547E+03  0.25500000000E-02 0.  1.
         -2   -1    0    0    0  501 -0.00000000000E+00 -0.00000000000E+00 -0.17784345313E+03  0.17784345315E+03  0.25500000000E-02 0. -1.
    5000001    1    1    2    0    0  0.40196903874E+02  0.92817958915E+02 -0.98900544036E+02  0.16106297585E+03  0.77000000000E+02 0.  0.
   -5000001    1    1    2    0    0 -0.40196903874E+02 -0.92817958915E+02  0.36548006345E+02  0.13227139277E+03  0.77000000000E+02 0.  0.
<mgrwt>
<rscale>  0 0.28663080E+03</rscale>
<asrwt>0</asrwt>
<pdfrwt beam="1">  1        2 0.17767833E-01 0.28663080E+03</pdfrwt>
<pdfrwt beam="2">  1       -2 0.27360531E-01 0.28663080E+03</pdfrwt>
<totfact> 0.38405767E+03</totfact>
</mgrwt>
</event>
<event>
 4    1  0.5980424E-004  0.1792107E+03  0.7818608E-02  0.1168569E+00
         -2   -1    0    0    0  501 -0.00000000000E+00  0.00000000000E+00  0.20472885873E+02  0.20472886032E+02  0.25500000000E-02 0. -1.
          2   -1    0    0  501    0  0.00000000000E+00 -0.00000000000E+00 -0.39218287597E+03  0.39218287598E+03  0.25500000000E-02 0.  1.
    5000001    1    1    2    0    0 -0.36488431249E+01  0.38804314917E+02 -0.13035128708E+03  0.15633152899E+03  0.77000000000E+02 0.  0.
   -5000001    1    1    2    0    0  0.36488431249E+01 -0.38804314917E+02 -0.24135870302E+03  0.25632423302E+03  0.77000000000E+02 0.  0.
<mgrwt>
<rscale>  0 0.17921066E+03</rscale>
<asrwt>0</asrwt>
<pdfrwt beam="1">  1        2 0.60335822E-01 0.17921066E+03</pdfrwt>
<pdfrwt beam="2">  1       -2 0.31496750E-02 0.17921066E+03</pdfrwt>
<totfact> 0.30716385E+04</totfact>
</mgrwt>
</event>
<event>
 4    1  0.5980424E-004  0.2900036E+03  0.7818608E-02  0.1090347E+00
          2   -1    0    0  501    0  0.00000000000E+00  0.00000000000E+00  0.98935386605E+03  0.98935386605E+03  0.25500000000E-02 0.  1.
         -2   -1    0    0    0  501 -0.00000000000E+00 -0.00000000000E+00 -0.21251766356E+02  0.21251766509E+02  0.25500000000E-02 0. -1.
    5000001    1    1    2    0    0  0.36118040674E+02 -0.11203097593E+03  0.60681634506E+03  0.62290491173E+03  0.77000000000E+02 0.  0.
   -5000001    1    1    2    0    0 -0.36118040674E+02  0.11203097593E+03  0.36128575463E+03  0.38770072083E+03  0.77000000000E+02 0.  0.
<mgrwt>
<rscale>  0 0.29000357E+03</rscale>
<asrwt>0</asrwt>
<pdfrwt beam="1">  1        2 0.15220829E+00 0.29000357E+03</pdfrwt>
<pdfrwt beam="2">  1       -2 0.32695026E-02 0.29000357E+03</pdfrwt>
<totfact> 0.99225851E+03</totfact>
</mgrwt>
</event>
<event>
 4    1  0.5980424E-004  0.1697387E+03  0.7818608E-02  0.1178121E+00
         -2   -1    0    0    0  501 -0.00000000000E+00  0.00000000000E+00  0.14403219064E+02  0.14403219289E+02  0.25500000000E-02 0. -1.
          2   -1    0    0  501    0  0.00000000000E+00 -0.00000000000E+00 -0.50008301420E+03  0.50008301420E+03  0.25500000000E-02 0.  1.
    5000001    1    1    2    0    0 -0.46923276969E+01 -0.34947814037E+02 -0.25956228409E+03  0.27302920533E+03  0.77000000000E+02 0.  0.
   -5000001    1    1    2    0    0  0.46923276969E+01  0.34947814037E+02 -0.22611751105E+03  0.24145702816E+03  0.77000000000E+02 0.  0.
<mgrwt>
<rscale>  0 0.16973868E+03</rscale>
<asrwt>0</asrwt>
<pdfrwt beam="1">  1        2 0.76935835E-01 0.16973868E+03</pdfrwt>
<pdfrwt beam="2">  1       -2 0.22158803E-02 0.16973868E+03</pdfrwt>
<totfact> 0.39353721E+04</totfact>
</mgrwt>
</event>
<event>
 4    1  0.5980424E-004  0.1780505E+03  0.7818608E-02  0.1169703E+00
         -2   -1    0    0    0  501 -0.00000000000E+00  0.00000000000E+00  0.20165261001E+03  0.20165261003E+03  0.25500000000E-02 0. -1.
          2   -1    0    0  501    0  0.00000000000E+00 -0.00000000000E+00 -0.39302730012E+02  0.39302730095E+02  0.25500000000E-02 0.  1.
    5000001    1    1    2    0    0  0.25203257084E+02  0.22906068948E+02  0.12031790758E+03  0.14685125484E+03  0.77000000000E+02 0.  0.
   -5000001    1    1    2    0    0 -0.25203257084E+02 -0.22906068948E+02  0.42031972420E+02  0.94104085287E+02  0.77000000000E+02 0.  0.
<mgrwt>
<rscale>  0 0.17805053E+03</rscale>
<asrwt>0</asrwt>
<pdfrwt beam="1">  1        2 0.60465739E-02 0.17805053E+03</pdfrwt>
<pdfrwt beam="2">  1       -2 0.31023478E-01 0.17805053E+03</pdfrwt>
<totfact> 0.11266781E+04</totfact>
</mgrwt>
</event>
<event>
 4    1  0.5980424E-004  0.1619274E+03  0.7818608E-02  0.1186538E+00
          2   -1    0    0  501    0  0.00000000000E+00  0.00000000000E+00  0.65107627224E+03  0.65107627225E+03  0.25500000000E-02 0.  1.
         -2   -1    0    0    0  501 -0.00000000000E+00 -0.00000000000E+00 -0.10068124900E+02  0.10068125223E+02  0.25500000000E-02 0. -1.
    5000001    1    1    2    0    0 -0.75155836723E+01  0.23183357072E+02  0.34366041017E+03  0.35302327057E+03  0.77000000000E+02 0.  0.
   -5000001    1    1    2    0    0  0.75155836723E+01 -0.23183357072E+02  0.29734773717E+03  0.30812112690E+03  0.77000000000E+02 0.  0.
<mgrwt>
<rscale>  0 0.16192736E+03</rscale>
<asrwt>0</asrwt>
<pdfrwt beam="1">  1        2 0.10016559E+00 0.16192736E+03</pdfrwt>
<pdfrwt beam="2">  1       -2 0.15489422E-02 0.16192736E+03</pdfrwt>
<totfact> 0.48905579E+04</totfact>
</mgrwt>
</event>
<event>
 4    1  0.5980424E-004  0.2451582E+03  0.7818608E-02  0.1116404E+00
         -2   -1    0    0    0  501 -0.00000000000E+00  0.00000000000E+00  0.82691699784E+01  0.82691703716E+01  0.25500000000E-02 0. -1.
          2   -1    0    0  501    0  0.00000000000E+00 -0.00000000000E+00 -0.18170662629E+04  0.18170662629E+04  0.25500000000E-02 0.  1.
    5000001    1    1    2    0    0 -0.83478354331E+02 -0.46036603011E+02 -0.92626575307E+03  0.93433679675E+03  0.77000000000E+02 0.  0.
   -5000001    1    1    2    0    0  0.83478354331E+02  0.46036603011E+02 -0.88253133985E+03  0.89099863651E+03  0.77000000000E+02 0.  0.
<mgrwt>
<rscale>  0 0.24515815E+03</rscale>
<asrwt>0</asrwt>
<pdfrwt beam="1">  1        2 0.27954834E+00 0.24515815E+03</pdfrwt>
<pdfrwt beam="2">  1       -2 0.12721815E-02 0.24515815E+03</pdfrwt>
<totfact> 0.13873019E+04</totfact>
</mgrwt>
</event>
<event>
 4    1  0.5980424E-004  0.4338866E+03  0.7818608E-02  0.1032639E+00
         -2   -1    0    0    0  501 -0.00000000000E+00  0.00000000000E+00  0.38946687146E+03  0.38946687147E+03  0.25500000000E-02 0. -1.
          2   -1    0    0  501    0  0.00000000000E+00 -0.00000000000E+00 -0.12084314027E+03  0.12084314030E+03  0.25500000000E-02 0.  1.
    5000001    1    1    2    0    0  0.12958610750E+02 -0.16218954862E+03 -0.81028285629E+01  0.18018887620E+03  0.77000000000E+02 0.  0.
   -5000001    1    1    2    0    0 -0.12958610750E+02  0.16218954862E+03  0.27672655976E+03  0.33012113557E+03  0.77000000000E+02 0.  0.
<mgrwt>
<rscale>  0 0.43388662E+03</rscale>
<asrwt>0</asrwt>
<pdfrwt beam="1">  1        2 0.18591252E-01 0.43388662E+03</pdfrwt>
<pdfrwt beam="2">  1       -2 0.59917981E-01 0.43388662E+03</pdfrwt>
<totfact> 0.80732203E+02</totfact>
</mgrwt>
</event>
<event>
 4    1  0.5980424E-004  0.1883951E+03  0.7818608E-02  0.1159917E+00
          2   -1    0    0  501    0  0.00000000000E+00  0.00000000000E+00  0.76717091801E+03  0.76717091802E+03  0.25500000000E-02 0.  1.
         -2   -1    0    0    0  501 -0.00000000000E+00 -0.00000000000E+00 -0.11566106708E+02  0.11566106989E+02  0.25500000000E-02 0. -1.
    5000001    1    1    2    0    0 -0.43782363471E+02 -0.12578078285E+02  0.49965938052E+03  0.50760575247E+03  0.77000000000E+02 0.  0.
   -5000001    1    1    2    0    0  0.43782363471E+02  0.12578078285E+02  0.25594543079E+03  0.27113127253E+03  0.77000000000E+02 0.  0.
<mgrwt>
<rscale>  0 0.18839513E+03</rscale>
<asrwt>0</asrwt>
<pdfrwt beam="1">  1        2 0.11802633E+00 0.18839513E+03</pdfrwt>
<pdfrwt beam="2">  1       -2 0.17794006E-02 0.18839513E+03</pdfrwt>
<totfact> 0.33261048E+04</totfact>
</mgrwt>
</event>
<event>
 4    1  0.5980424E-004  0.2122701E+03  0.7818608E-02  0.1139781E+00
          2   -1    0    0  501    0  0.00000000000E+00  0.00000000000E+00  0.48469821846E+03  0.48469821847E+03  0.25500000000E-02 0.  1.
         -2   -1    0    0    0  501 -0.00000000000E+00 -0.00000000000E+00 -0.23240532255E+02  0.23240532395E+02  0.25500000000E-02 0. -1.
    5000001    1    1    2    0    0 -0.49327004505E+02 -0.48752241422E+02  0.17586378983E+03  0.20412497885E+03  0.77000000000E+02 0.  0.
   -5000001    1    1    2    0    0  0.49327004505E+02  0.48752241422E+02  0.28559389638E+03  0.30381377202E+03  0.77000000000E+02 0.  0.
<mgrwt>
<rscale>  0 0.21227006E+03</rscale>
<asrwt>0</asrwt>
<pdfrwt beam="1">  1        2 0.74568951E-01 0.21227006E+03</pdfrwt>
<pdfrwt beam="2">  1       -2 0.35754668E-02 0.21227006E+03</pdfrwt>
<totfact> 0.20466477E+04</totfact>
</mgrwt>
</event>
<event>
 4    1  0.5980424E-004  0.4636261E+03  0.7818608E-02  0.1023735E+00
          2   -1    0    0  501    0  0.00000000000E+00  0.00000000000E+00  0.10716704202E+04  0.10716704202E+04  0.25500000000E-02 0.  1.
         -2   -1    0    0    0  501 -0.00000000000E+00 -0.00000000000E+00 -0.50143478831E+02  0.50143478895E+02  0.25500000000E-02 0. -1.
    5000001    1    1    2    0    0  0.17054876482E+03  0.96714024306E+02  0.27657163040E+03  0.34765119074E+03  0.77000000000E+02 0.  0.
   -5000001    1    1    2    0    0 -0.17054876482E+03 -0.96714024306E+02  0.74495531099E+03  0.77416270839E+03  0.77000000000E+02 0.  0.
<mgrwt>
<rscale>  0 0.46362607E+03</rscale>
<asrwt>0</asrwt>
<pdfrwt beam="1">  1        2 0.16487237E+00 0.46362607E+03</pdfrwt>
<pdfrwt beam="2">  1       -2 0.77143814E-02 0.46362607E+03</pdfrwt>
<totfact> 0.23802702E+03</totfact>
</mgrwt>
</event>
<event>
 4    1  0.5980424E-004  0.2312211E+03  0.7818608E-02  0.1125783E+00
         -2   -1    0    0    0  501 -0.00000000000E+00  0.00000000000E+00  0.89956844359E+03  0.89956844359E+03  0.25500000000E-02 0.  1.
          2   -1    0    0  501    0  0.00000000000E+00 -0.00000000000E+00 -0.14858006339E+02  0.14858006558E+02  0.25500000000E-02 0. -1.
    5000001    1    1    2    0    0 -0.34380862243E+02  0.78888558994E+02  0.46449675188E+03  0.47863522743E+03  0.77000000000E+02 0.  0.
   -5000001    1    1    2    0    0  0.34380862243E+02 -0.78888558994E+02  0.42021368537E+03  0.43579122272E+03  0.77000000000E+02 0.  0.
<mgrwt>
<rscale>  0 0.23122105E+03</rscale>
<asrwt>0</asrwt>
<pdfrwt beam="1">  1        2 0.22858466E-02 0.23122105E+03</pdfrwt>
<pdfrwt beam="2">  1       -2 0.13839518E+00 0.23122105E+03</pdfrwt>
<totfact> 0.17600535E+03</totfact>
</mgrwt>
</event>
<event>
 4    1  0.5980424E-004  0.3368224E+03  0.7818608E-02  0.1068157E+00
          2   -1    0    0  501    0  0.00000000000E+00  0.00000000000E+00  0.25844035044E+03  0.25844035046E+03  0.25500000000E-02 0.  1.
         -2   -1    0    0    0  501 -0.00000000000E+00 -0.00000000000E+00 -0.10974421072E+03  0.10974421075E+03  0.25500000000E-02 0. -1.
    5000001    1    1    2    0    0  0.14126603639E+03  0.46360117371E+02  0.94144526865E+02  0.19208733810E+03  0.77000000000E+02 0.  0.
   -5000001    1    1    2    0    0 -0.14126603639E+03 -0.46360117371E+02  0.54551612863E+02  0.17609722310E+03  0.77000000000E+02 0.  0.
<mgrwt>
<rscale>  0 0.33682240E+03</rscale>
<asrwt>0</asrwt>
<pdfrwt beam="1">  1        2 0.39760053E-01 0.33682240E+03</pdfrwt>
<pdfrwt beam="2">  1       -2 0.16883725E-01 0.33682240E+03</pdfrwt>
<totfact> 0.36189126E+03</totfact>
</mgrwt>
</event>
<event>
 4    1  0.5980424E-004  0.2303177E+03  0.7818608E-02  0.1126416E+00
          2   -1    0    0  501    0  0.00000000000E+00  0.00000000000E+00  0.10042110298E+04  0.10042110298E+04  0.25500000000E-02 0.  1.
         -2   -1    0    0    0  501 -0.00000000000E+00 -0.00000000000E+00 -0.13205950505E+02  0.13205950751E+02  0.25500000000E-02 0. -1.
    5000001    1    1    2    0    0  0.30299328440E+02 -0.79978127166E+02  0.47675508006E+03  0.49044771025E+03  0.77000000000E+02 0.  0.
   -5000001    1    1    2    0    0 -0.30299328440E+02  0.79978127166E+02  0.51424999919E+03  0.52696927026E+03  0.77000000000E+02 0.  0.
<mgrwt>
<rscale>  0 0.23031770E+03</rscale>
<asrwt>0</asrwt>
<pdfrwt beam="1">  1        2 0.15449402E+00 0.23031770E+03</pdfrwt>
<pdfrwt beam="2">  1       -2 0.20316845E-02 0.23031770E+03</pdfrwt>
<totfact> 0.19477116E+04</totfact>
</mgrwt>
</event>
<event>
 4    1  0.5980424E-004  0.5465173E+03  0.7818608E-02  0.1002303E+00
          2   -1    0    0  501    0  0.00000000000E+00  0.00000000000E+00  0.19075256007E+04  0.19075256007E+04  0.25500000000E-02 0.  1.
         -2   -1    0    0    0  501 -0.00000000000E+00 -0.00000000000E+00 -0.39145108323E+02  0.39145108406E+02  0.25500000000E-02 0. -1.
    5000001    1    1    2    0    0  0.23926022350E+03  0.65150057446E+02  0.12375073158E+04  0.12644537718E+04  0.77000000000E+02 0.  0.
   -5000001    1    1    2    0    0 -0.23926022350E+03 -0.65150057446E+02  0.63087317661E+03  0.68221693727E+03  0.77000000000E+02 0.  0.
<mgrwt>
<rscale>  0 0.54651732E+03</rscale>
<asrwt>0</asrwt>
<pdfrwt beam="1">  1        2 0.29346542E+00 0.54651732E+03</pdfrwt>
<pdfrwt beam="2">  1       -2 0.60223256E-02 0.54651732E+03</pdfrwt>
<totfact> 0.11983936E+03</totfact>
</mgrwt>
</event>
<event>
 4    1  0.5980424E-004  0.3975014E+03  0.7818608E-02  0.1044648E+00
         -2   -1    0    0    0  501 -0.00000000000E+00  0.00000000000E+00  0.54233786734E+02  0.54233786794E+02  0.25500000000E-02 0. -1.
          2   -1    0    0  501    0  0.00000000000E+00 -0.00000000000E+00 -0.72836210537E+03  0.72836210538E+03  0.25500000000E-02 0.  1.
    5000001    1    1    2    0    0 -0.15700722626E+03 -0.81322141084E+02 -0.24247470007E+03  0.30981855965E+03  0.77000000000E+02 0.  0.
   -5000001    1    1    2    0    0  0.15700722626E+03  0.81322141084E+02 -0.43165361857E+03  0.47277733253E+03  0.77000000000E+02 0.  0.
<mgrwt>
<rscale>  0 0.39750137E+03</rscale>
<asrwt>0</asrwt>
<pdfrwt beam="1">  1        2 0.11205570E+00 0.39750137E+03</pdfrwt>
<pdfrwt beam="2">  1       -2 0.83436600E-02 0.39750137E+03</pdfrwt>
<totfact> 0.35529014E+03</totfact>
</mgrwt>
</event>
<event>
 4    1  0.5980424E-004  0.2323951E+03  0.7818608E-02  0.1124965E+00
         -2   -1    0    0    0  501 -0.00000000000E+00  0.00000000000E+00  0.66614931643E+02  0.66614931691E+02  0.25500000000E-02 0. -1.
          2   -1    0    0  501    0  0.00000000000E+00 -0.00000000000E+00 -0.20268538481E+03  0.20268538483E+03  0.25500000000E-02 0.  1.
    5000001    1    1    2    0    0  0.39239917844E+01 -0.34491343226E+02 -0.16050618004E+03  0.18137332853E+03  0.77000000000E+02 0.  0.
   -5000001    1    1    2    0    0 -0.39239917844E+01  0.34491343226E+02  0.24435726876E+02  0.87926987990E+02  0.77000000000E+02 0.  0.
<mgrwt>
<rscale>  0 0.23239512E+03</rscale>
<asrwt>0</asrwt>
<pdfrwt beam="1">  1        2 0.31182367E-01 0.23239512E+03</pdfrwt>
<pdfrwt beam="2">  1       -2 0.10248451E-01 0.23239512E+03</pdfrwt>
<totfact> 0.10503828E+04</totfact>
</mgrwt>
</event>
<event>
 4    1  0.5980424E-004  0.3031617E+03  0.7818608E-02  0.1083671E+00
         -2   -1    0    0    0  501 -0.00000000000E+00  0.00000000000E+00  0.12285560768E+02  0.12285561032E+02  0.25500000000E-02 0. -1.
          2   -1    0    0  501    0  0.00000000000E+00 -0.00000000000E+00 -0.18702247770E+04  0.18702247770E+04  0.25500000000E-02 0.  1.
    5000001    1    1    2    0    0 -0.27429947284E+01 -0.88788773795E+02 -0.33476693087E+03  0.35480821352E+03  0.77000000000E+02 0.  0.
   -5000001    1    1    2    0    0  0.27429947284E+01  0.88788773795E+02 -0.15231722854E+04  0.15277021245E+04  0.77000000000E+02 0.  0.
<mgrwt>
<rscale>  0 0.30316174E+03</rscale>
<asrwt>0</asrwt>
<pdfrwt beam="1">  1        2 0.28772666E+00 0.30316174E+03</pdfrwt>
<pdfrwt beam="2">  1       -2 0.18900878E-02 0.30316174E+03</pdfrwt>
<totfact> 0.73111519E+03</totfact>
</mgrwt>
</event>
<event>
 4    1  0.5980424E-004  0.1827574E+03  0.7818608E-02  0.1165161E+00
          2   -1    0    0  501    0  0.00000000000E+00  0.00000000000E+00  0.43344020952E+01  0.43344028453E+01  0.25500000000E-02 0.  1.
         -2   -1    0    0    0  501 -0.00000000000E+00 -0.00000000000E+00 -0.19264629562E+04  0.19264629562E+04  0.25500000000E-02 0. -1.
    5000001    1    1    2    0    0 -0.16114944012E+02 -0.46482898601E+02 -0.96999461489E+03  0.97428892234E+03  0.77000000000E+02 0.  0.
   -5000001    1    1    2    0    0  0.16114944012E+02  0.46482898601E+02 -0.95213393920E+03  0.95650843669E+03  0.77000000000E+02 0.  0.
<mgrwt>
<rscale>  0 0.18275739E+03</rscale>
<asrwt>0</asrwt>
<pdfrwt beam="1">  1        2 0.66683269E-03 0.18275739E+03</pdfrwt>
<pdfrwt beam="2">  1       -2 0.29637823E+00 0.18275739E+03</pdfrwt>
<totfact> 0.96992430E+02</totfact>
</mgrwt>
</event>
<event>
 4    1  0.5980424E-004  0.2005142E+03  0.7818608E-02  0.1149306E+00
         -2   -1    0    0    0  501 -0.00000000000E+00  0.00000000000E+00  0.67505973841E+01  0.67505978657E+01  0.25500000000E-02 0. -1.
          2   -1    0    0  501    0  0.00000000000E+00 -0.00000000000E+00 -0.14889767284E+04  0.14889767284E+04  0.25500000000E-02 0.  1.
    5000001    1    1    2    0    0 -0.59286292814E+02  0.21300295980E+02 -0.64856896260E+03  0.65615491035E+03  0.77000000000E+02 0.  0.
   -5000001    1    1    2    0    0  0.59286292814E+02 -0.21300295980E+02 -0.83365716845E+03  0.83957241596E+03  0.77000000000E+02 0.  0.
<mgrwt>
<rscale>  0 0.20051417E+03</rscale>
<asrwt>0</asrwt>
<pdfrwt beam="1">  1        2 0.22907308E+00 0.20051417E+03</pdfrwt>
<pdfrwt beam="2">  1       -2 0.10385547E-02 0.20051417E+03</pdfrwt>
<totfact> 0.27448862E+04</totfact>
</mgrwt>
</event>
<event>
 4    1  0.5980424E-004  0.2620934E+03  0.7818608E-02  0.1105892E+00
         -2   -1    0    0    0  501 -0.00000000000E+00  0.00000000000E+00  0.10438505999E+02  0.10438506311E+02  0.25500000000E-02 0. -1.
          2   -1    0    0  501    0  0.00000000000E+00 -0.00000000000E+00 -0.16451810976E+04  0.16451810976E+04  0.25500000000E-02 0.  1.
    5000001    1    1    2    0    0 -0.79119157220E+02 -0.62063416456E+02 -0.10299541827E+04  0.10377120637E+04  0.77000000000E+02 0.  0.
   -5000001    1    1    2    0    0  0.79119157220E+02  0.62063416456E+02 -0.60478840889E+03  0.61790754019E+03  0.77000000000E+02 0.  0.
<mgrwt>
<rscale>  0 0.26209337E+03</rscale>
<asrwt>0</asrwt>
<pdfrwt beam="1">  1        2 0.25310458E+00 0.26209337E+03</pdfrwt>
<pdfrwt beam="2">  1       -2 0.16059253E-02 0.26209337E+03</pdfrwt>
<totfact> 0.12174967E+04</totfact>
</mgrwt>
</event>
<event>
 4    1  0.5980424E-004  0.2680776E+03  0.7818608E-02  0.1102385E+00
         -2   -1    0    0    0  501 -0.00000000000E+00  0.00000000000E+00  0.13063088608E+03  0.13063088611E+03  0.25500000000E-02 0. -1.
          2   -1    0    0  501    0  0.00000000000E+00 -0.00000000000E+00 -0.13753566620E+03  0.13753566622E+03  0.25500000000E-02 0.  1.
    5000001    1    1    2    0    0  0.50197741277E+02 -0.76668609408E+02 -0.63800807805E+02  0.13563713346E+03  0.77000000000E+02 0.  0.
   -5000001    1    1    2    0    0 -0.50197741277E+02  0.76668609408E+02  0.56896027688E+02  0.13252941886E+03  0.77000000000E+02 0.  0.
<mgrwt>
<rscale>  0 0.26807765E+03</rscale>
<asrwt>0</asrwt>
<pdfrwt beam="1">  1        2 0.21159333E-01 0.26807765E+03</pdfrwt>
<pdfrwt beam="2">  1       -2 0.20097059E-01 0.26807765E+03</pdfrwt>
<totfact> 0.53776144E+03</totfact>
</mgrwt>
</event>
<event>
 4    1  0.5980424E-004  0.2080225E+03  0.7818608E-02  0.1143142E+00
         -2   -1    0    0    0  501 -0.00000000000E+00  0.00000000000E+00  0.61498088838E+01  0.61498094125E+01  0.25500000000E-02 0. -1.
          2   -1    0    0  501    0  0.00000000000E+00 -0.00000000000E+00 -0.17591339365E+04  0.17591339365E+04  0.25500000000E-02 0.  1.
    5000001    1    1    2    0    0 -0.85452393249E+01  0.23720526937E+02 -0.14299508766E+04  0.14322444603E+04  0.77000000000E+02 0.  0.
   -5000001    1    1    2    0    0  0.85452393249E+01 -0.23720526937E+02 -0.32303325099E+03  0.33303928560E+03  0.77000000000E+02 0.  0.
<mgrwt>
<rscale>  0 0.20802248E+03</rscale>
<asrwt>0</asrwt>
<pdfrwt beam="1">  1        2 0.27063559E+00 0.20802248E+03</pdfrwt>
<pdfrwt beam="2">  1       -2 0.94612589E-03 0.20802248E+03</pdfrwt>
<totfact> 0.22708113E+04</totfact>
</mgrwt>
</event>
<event>
 4    1  0.5980424E-004  0.3212090E+03  0.7818608E-02  0.1075094E+00
          2   -1    0    0  501    0  0.00000000000E+00  0.00000000000E+00  0.46261137904E+03  0.46261137905E+03  0.25500000000E-02 0.  1.
         -2   -1    0    0    0  501 -0.00000000000E+00 -0.00000000000E+00 -0.55756949556E+02  0.55756949614E+02  0.25500000000E-02 0. -1.
    5000001    1    1    2    0    0 -0.93583188685E+02 -0.51047454136E+02  0.54631823339E+02  0.14239835638E+03  0.77000000000E+02 0.  0.
   -5000001    1    1    2    0    0  0.93583188685E+02  0.51047454136E+02  0.35222260615E+03  0.37596997229E+03  0.77000000000E+02 0.  0.
<mgrwt>
<rscale>  0 0.32120896E+03</rscale>
<asrwt>0</asrwt>
<pdfrwt beam="1">  1        2 0.71170981E-01 0.32120896E+03</pdfrwt>
<pdfrwt beam="2">  1       -2 0.85779923E-02 0.32120896E+03</pdfrwt>
<totfact> 0.57604103E+03</totfact>
</mgrwt>
</event>
<event>
 4    1  0.5980424E-004  0.2554850E+03  0.7818608E-02  0.1109887E+00
         -2   -1    0    0    0  501 -0.00000000000E+00  0.00000000000E+00  0.17463037189E+02  0.17463037375E+02  0.25500000000E-02 0. -1.
          2   -1    0    0  501    0  0.00000000000E+00 -0.00000000000E+00 -0.93443883605E+03  0.93443883606E+03  0.25500000000E-02 0.  1.
    5000001    1    1    2    0    0  0.44649336433E+02  0.69674822982E+01 -0.11808529573E+03  0.14803798878E+03  0.77000000000E+02 0.  0.
   -5000001    1    1    2    0    0 -0.44649336433E+02 -0.69674822982E+01 -0.79889050314E+03  0.80386388466E+03  0.77000000000E+02 0.  0.
<mgrwt>
<rscale>  0 0.25548495E+03</rscale>
<asrwt>0</asrwt>
<pdfrwt beam="1">  1        2 0.14375978E+00 0.25548495E+03</pdfrwt>
<pdfrwt beam="2">  1       -2 0.26866218E-02 0.25548495E+03</pdfrwt>
<totfact> 0.14319521E+04</totfact>
</mgrwt>
</event>
<event>
 4    1  0.5980424E-004  0.2218009E+03  0.7818608E-02  0.1132547E+00
          2   -1    0    0  501    0  0.00000000000E+00  0.00000000000E+00  0.35674515223E+03  0.35674515224E+03  0.25500000000E-02 0.  1.
         -2   -1    0    0    0  501 -0.00000000000E+00 -0.00000000000E+00 -0.34475338125E+02  0.34475338220E+02  0.25500000000E-02 0. -1.
    5000001    1    1    2    0    0 -0.62882027900E+02  0.39517593362E+02  0.21268361374E+03  0.23807374733E+03  0.77000000000E+02 0.  0.
   -5000001    1    1    2    0    0  0.62882027900E+02 -0.39517593362E+02  0.10958620036E+03  0.15314674312E+03  0.77000000000E+02 0.  0.
<mgrwt>
<rscale>  0 0.22180090E+03</rscale>
<asrwt>0</asrwt>
<pdfrwt beam="1">  1        2 0.54883874E-01 0.22180090E+03</pdfrwt>
<pdfrwt beam="2">  1       -2 0.53038978E-02 0.22180090E+03</pdfrwt>
<totfact> 0.15825434E+04</totfact>
</mgrwt>
</event>
<event>
 4    1  0.5980424E-004  0.2280454E+03  0.7818608E-02  0.1128023E+00
         -2   -1    0    0    0  501 -0.00000000000E+00  0.00000000000E+00  0.77715288138E+02  0.77715288179E+02  0.25500000000E-02 0. -1.
          2   -1    0    0  501    0  0.00000000000E+00 -0.00000000000E+00 -0.16729236751E+03  0.16729236753E+03  0.25500000000E-02 0.  1.
    5000001    1    1    2    0    0 -0.81752443273E+02  0.18690926737E+02 -0.51529099980E+02  0.12496823944E+03  0.77000000000E+02 0.  0.
   -5000001    1    1    2    0    0  0.81752443273E+02 -0.18690926737E+02 -0.38047979396E+02  0.12003941627E+03  0.77000000000E+02 0.  0.
<mgrwt>
<rscale>  0 0.22804539E+03</rscale>
<asrwt>0</asrwt>
<pdfrwt beam="1">  1        2 0.25737287E-01 0.22804539E+03</pdfrwt>
<pdfrwt beam="2">  1       -2 0.11956198E-01 0.22804539E+03</pdfrwt>
<totfact> 0.10128761E+04</totfact>
</mgrwt>
</event>
<event>
 4    1  0.5980424E-004  0.5256232E+03  0.7818608E-02  0.1007299E+00
          2   -1    0    0  501    0  0.00000000000E+00  0.00000000000E+00  0.11420802161E+04  0.11420802161E+04  0.25500000000E-02 0.  1.
         -2   -1    0    0    0  501 -0.00000000000E+00 -0.00000000000E+00 -0.60477318717E+02  0.60477318771E+02  0.25500000000E-02 0. -1.
    5000001    1    1    2    0    0  0.12539503289E+03  0.17838799870E+03  0.25509463069E+03  0.34430867396E+03  0.77000000000E+02 0.  0.
   -5000001    1    1    2    0    0 -0.12539503289E+03 -0.17838799870E+03  0.82650826665E+03  0.85824886087E+03  0.77000000000E+02 0.  0.
<mgrwt>
<rscale>  0 0.52562325E+03</rscale>
<asrwt>0</asrwt>
<pdfrwt beam="1">  1        2 0.17570466E+00 0.52562325E+03</pdfrwt>
<pdfrwt beam="2">  1       -2 0.93042024E-02 0.52562325E+03</pdfrwt>
<totfact> 0.16003325E+03</totfact>
</mgrwt>
</event>
<event>
 4    1  0.5980424E-004  0.3026139E+03  0.7818608E-02  0.1083941E+00
          2   -1    0    0  501    0  0.00000000000E+00  0.00000000000E+00  0.30678946588E+04  0.30678946588E+04  0.25500000000E-02 0.  1.
         -2   -1    0    0    0  501 -0.00000000000E+00 -0.00000000000E+00 -0.74623770132E+01  0.74623774489E+01  0.25500000000E-02 0. -1.
    5000001    1    1    2    0    0 -0.12590801962E+03 -0.29141055010E+02  0.13654819774E+04  0.13737438121E+04  0.77000000000E+02 0.  0.
   -5000001    1    1    2    0    0  0.12590801962E+03  0.29141055010E+02  0.16949503043E+04  0.17016132242E+04  0.77000000000E+02 0.  0.
<mgrwt>
<rscale>  0 0.30261386E+03</rscale>
<asrwt>0</asrwt>
<pdfrwt beam="1">  1        2 0.47198309E+00 0.30261386E+03</pdfrwt>
<pdfrwt beam="2">  1       -2 0.11480597E-02 0.30261386E+03</pdfrwt>
<totfact> 0.33015778E+03</totfact>
</mgrwt>
</event>
<event>
 4    1  0.5980424E-004  0.3061361E+03  0.7818608E-02  0.1082213E+00
         -2   -1    0    0    0  501 -0.00000000000E+00  0.00000000000E+00  0.70086385626E+02  0.70086385673E+02  0.25500000000E-02 0. -1.
          2   -1    0    0  501    0  0.00000000000E+00 -0.00000000000E+00 -0.33429921670E+03  0.33429921671E+03  0.25500000000E-02 0.  1.
    5000001    1    1    2    0    0  0.11716991778E+03  0.50648247735E+02 -0.17799417827E+03  0.23217442178E+03  0.77000000000E+02 0.  0.
   -5000001    1    1    2    0    0 -0.11716991778E+03 -0.50648247735E+02 -0.86218652803E+02  0.17221118060E+03  0.77000000000E+02 0.  0.
<mgrwt>
<rscale>  0 0.30613607E+03</rscale>
<asrwt>0</asrwt>
<pdfrwt beam="1">  1        2 0.51430648E-01 0.30613607E+03</pdfrwt>
<pdfrwt beam="2">  1       -2 0.10782521E-01 0.30613607E+03</pdfrwt>
<totfact> 0.57034792E+03</totfact>
</mgrwt>
</event>
<event>
 4    1  0.5980424E-004  0.2661808E+03  0.7818608E-02  0.1103486E+00
          2   -1    0    0  501    0  0.00000000000E+00  0.00000000000E+00  0.71086172743E+03  0.71086172743E+03  0.25500000000E-02 0.  1.
         -2   -1    0    0    0  501 -0.00000000000E+00 -0.00000000000E+00 -0.24917724798E+02  0.24917724928E+02  0.25500000000E-02 0. -1.
    5000001    1    1    2    0    0  0.77129077962E+01 -0.10404554956E+03  0.42585641572E+03  0.44516025444E+03  0.77000000000E+02 0.  0.
   -5000001    1    1    2    0    0 -0.77129077962E+01  0.10404554956E+03  0.26008758691E+03  0.29061919792E+03  0.77000000000E+02 0.  0.
<mgrwt>
<rscale>  0 0.26618082E+03</rscale>
<asrwt>0</asrwt>
<pdfrwt beam="1">  1        2 0.10936332E+00 0.26618082E+03</pdfrwt>
<pdfrwt beam="2">  1       -2 0.38334968E-02 0.26618082E+03</pdfrwt>
<totfact> 0.11992889E+04</totfact>
</mgrwt>
</event>
<event>
 4    1  0.5980424E-004  0.2289204E+03  0.7818608E-02  0.1127402E+00
          2   -1    0    0  501    0  0.00000000000E+00  0.00000000000E+00  0.72067865065E+03  0.72067865066E+03  0.25500000000E-02 0.  1.
         -2   -1    0    0    0  501 -0.00000000000E+00 -0.00000000000E+00 -0.18178895679E+02  0.18178895858E+02  0.25500000000E-02 0. -1.
    5000001    1    1    2    0    0  0.22286478745E+01  0.79547152175E+02  0.25773788893E+03  0.28051833395E+03  0.77000000000E+02 0.  0.
   -5000001    1    1    2    0    0 -0.22286478745E+01 -0.79547152175E+02  0.44476186604E+03  0.45833921257E+03  0.77000000000E+02 0.  0.
<mgrwt>
<rscale>  0 0.22892044E+03</rscale>
<asrwt>0</asrwt>
<pdfrwt beam="1">  1        2 0.11087366E+00 0.22892044E+03</pdfrwt>
<pdfrwt beam="2">  1       -2 0.27967527E-02 0.22892044E+03</pdfrwt>
<totfact> 0.18734459E+04</totfact>
</mgrwt>
</event>
<event>
 4    1  0.5980424E-004  0.1888293E+03  0.7818608E-02  0.1159521E+00
          2   -1    0    0  501    0  0.00000000000E+00  0.00000000000E+00  0.38423002171E+03  0.38423002172E+03  0.25500000000E-02 0.  1.
         -2   -1    0    0    0  501 -0.00000000000E+00 -0.00000000000E+00 -0.23199983775E+02  0.23199983915E+02  0.25500000000E-02 0. -1.
    5000001    1    1    2    0    0  0.76185971667E+01 -0.54029799963E+02  0.17446278775E+03  0.19835202700E+03  0.77000000000E+02 0.  0.
   -5000001    1    1    2    0    0 -0.76185971667E+01  0.54029799963E+02  0.18656725019E+03  0.20907797864E+03  0.77000000000E+02 0.  0.
<mgrwt>
<rscale>  0 0.18882934E+03</rscale>
<asrwt>0</asrwt>
<pdfrwt beam="1">  1        2 0.59112312E-01 0.18882934E+03</pdfrwt>
<pdfrwt beam="2">  1       -2 0.35692282E-02 0.18882934E+03</pdfrwt>
<totfact> 0.26197477E+04</totfact>
</mgrwt>
</event>
<event>
 4    1  0.5980424E-004  0.2076107E+03  0.7818608E-02  0.1143472E+00
         -2   -1    0    0    0  501 -0.00000000000E+00  0.00000000000E+00  0.11952558172E+02  0.11952558444E+02  0.25500000000E-02 0. -1.
          2   -1    0    0  501    0  0.00000000000E+00 -0.00000000000E+00 -0.90152661293E+03  0.90152661293E+03  0.25500000000E-02 0.  1.
    5000001    1    1    2    0    0  0.54154767081E+02  0.11556791621E+02 -0.63043473180E+03  0.63752901839E+03  0.77000000000E+02 0.  0.
   -5000001    1    1    2    0    0 -0.54154767081E+02 -0.11556791621E+02 -0.25913932296E+03  0.27595015298E+03  0.77000000000E+02 0.  0.
<mgrwt>
<rscale>  0 0.20761069E+03</rscale>
<asrwt>0</asrwt>
<pdfrwt beam="1">  1        2 0.13869635E+00 0.20761069E+03</pdfrwt>
<pdfrwt beam="2">  1       -2 0.18388558E-02 0.20761069E+03</pdfrwt>
<totfact> 0.25959629E+04</totfact>
</mgrwt>
</event>
<event>
 4    1  0.5980424E-004  0.4219241E+03  0.7818608E-02  0.1036442E+00
          2   -1    0    0  501    0  0.00000000000E+00  0.00000000000E+00  0.32239889826E+03  0.32239889827E+03  0.25500000000E-02 0.  1.
         -2   -1    0    0    0  501 -0.00000000000E+00 -0.00000000000E+00 -0.13804322889E+03  0.13804322891E+03  0.25500000000E-02 0. -1.
    5000001    1    1    2    0    0  0.11621602720E+03  0.15308939079E+03  0.48072130414E+02  0.21256165288E+03  0.77000000000E+02 0.  0.
   -5000001    1    1    2    0    0 -0.11621602720E+03 -0.15308939079E+03  0.13628353895E+03  0.24788047430E+03  0.77000000000E+02 0.  0.
<mgrwt>
<rscale>  0 0.42192409E+03</rscale>
<asrwt>0</asrwt>
<pdfrwt beam="1">  1        2 0.49599830E-01 0.42192409E+03</pdfrwt>
<pdfrwt beam="2">  1       -2 0.21237420E-01 0.42192409E+03</pdfrwt>
<totfact> 0.19279295E+03</totfact>
</mgrwt>
</event>
<event>
 4    1  0.5980424E-004  0.3621617E+03  0.7818608E-02  0.1057731E+00
          2   -1    0    0  501    0  0.00000000000E+00  0.00000000000E+00  0.66014690734E+03  0.66014690734E+03  0.25500000000E-02 0. -1.
         -2   -1    0    0    0  501 -0.00000000000E+00 -0.00000000000E+00 -0.49671177149E+02  0.49671177215E+02  0.25500000000E-02 0.  1.
    5000001    1    1    2    0    0  0.15569612613E+03 -0.21187156265E+02  0.39656165521E+03  0.43345164167E+03  0.77000000000E+02 0.  0.
   -5000001    1    1    2    0    0 -0.15569612613E+03  0.21187156265E+02  0.21391407498E+03  0.27636644289E+03  0.77000000000E+02 0.  0.
<mgrwt>
<rscale>  0 0.36216170E+03</rscale>
<asrwt>0</asrwt>
<pdfrwt beam="1">  1        2 0.10156106E+00 0.36216170E+03</pdfrwt>
<pdfrwt beam="2">  1       -2 0.76417200E-02 0.36216170E+03</pdfrwt>
<totfact> 0.45974961E+03</totfact>
</mgrwt>
</event>
<event>
 4    1  0.5980424E-004  0.1878946E+03  0.7818608E-02  0.1160374E+00
         -2   -1    0    0    0  501 -0.00000000000E+00  0.00000000000E+00  0.28184782097E+02  0.28184782212E+02  0.25500000000E-02 0. -1.
          2   -1    0    0  501    0  0.00000000000E+00 -0.00000000000E+00 -0.31315097089E+03  0.31315097090E+03  0.25500000000E-02 0.  1.
    5000001    1    1    2    0    0 -0.12445433155E+02 -0.49879911944E+02 -0.11351945174E+03  0.14648740678E+03  0.77000000000E+02 0.  0.
   -5000001    1    1    2    0    0  0.12445433155E+02  0.49879911944E+02 -0.17144673706E+03  0.19484834633E+03  0.77000000000E+02 0.  0.
<mgrwt>
<rscale>  0 0.18789457E+03</rscale>
<asrwt>0</asrwt>
<pdfrwt beam="1">  1        2 0.48177070E-01 0.18789457E+03</pdfrwt>
<pdfrwt beam="2">  1       -2 0.43361206E-02 0.18789457E+03</pdfrwt>
<totfact> 0.24374400E+04</totfact>
</mgrwt>
</event>
<event>
 4    1  0.5980424E-004  0.2766690E+03  0.7818608E-02  0.1097522E+00
          2   -1    0    0  501    0  0.00000000000E+00  0.00000000000E+00  0.14235469983E+04  0.14235469983E+04  0.25500000000E-02 0.  1.
         -2   -1    0    0    0  501 -0.00000000000E+00 -0.00000000000E+00 -0.13442786321E+02  0.13442786563E+02  0.25500000000E-02 0. -1.
    5000001    1    1    2    0    0 -0.10583703410E+03 -0.12713631354E+02  0.48199721567E+03  0.49961328057E+03  0.77000000000E+02 0.  0.
   -5000001    1    1    2    0    0  0.10583703410E+03  0.12713631354E+02  0.92810699634E+03  0.93737650433E+03  0.77000000000E+02 0.  0.
<mgrwt>
<rscale>  0 0.27666903E+03</rscale>
<asrwt>0</asrwt>
<pdfrwt beam="1">  1        2 0.21900732E+00 0.27666903E+03</pdfrwt>
<pdfrwt beam="2">  1       -2 0.20681201E-02 0.27666903E+03</pdfrwt>
<totfact> 0.11039916E+04</totfact>
</mgrwt>
</event>
<event>
 4    1  0.5980424E-004  0.2214108E+03  0.7818608E-02  0.1132836E+00
         -2   -1    0    0    0  501 -0.00000000000E+00  0.00000000000E+00  0.92801687846E+01  0.92801691350E+01  0.25500000000E-02 0. -1.
          2   -1    0    0  501    0  0.00000000000E+00 -0.00000000000E+00 -0.13206318086E+04  0.13206318086E+04  0.25500000000E-02 0.  1.
    5000001    1    1    2    0    0  0.34505926691E+02  0.66994490736E+02 -0.80854960145E+03  0.81569625399E+03  0.77000000000E+02 0.  0.
   -5000001    1    1    2    0    0 -0.34505926691E+02 -0.66994490736E+02 -0.50280203834E+03  0.51421572372E+03  0.77000000000E+02 0.  0.
<mgrwt>
<rscale>  0 0.22141081E+03</rscale>
<asrwt>0</asrwt>
<pdfrwt beam="1">  1        2 0.20317398E+00 0.22141081E+03</pdfrwt>
<pdfrwt beam="2">  1       -2 0.14277193E-02 0.22141081E+03</pdfrwt>
<totfact> 0.21431788E+04</totfact>
</mgrwt>
</event>
<event>
 4    1  0.5980424E-004  0.2256254E+03  0.7818608E-02  0.1129757E+00
          2   -1    0    0  501    0  0.00000000000E+00  0.00000000000E+00  0.11347476954E+04  0.11347476954E+04  0.25500000000E-02 0.  1.
         -2   -1    0    0    0  501 -0.00000000000E+00 -0.00000000000E+00 -0.11215445264E+02  0.11215445554E+02  0.25500000000E-02 0. -1.
    5000001    1    1    2    0    0 -0.78952690989E+01  0.37494506056E+02  0.19097691082E+03  0.20945012229E+03  0.77000000000E+02 0.  0.
   -5000001    1    1    2    0    0  0.78952690989E+01 -0.37494506056E+02  0.93255533930E+03  0.93651301865E+03  0.77000000000E+02 0.  0.
<mgrwt>
<rscale>  0 0.22562536E+03</rscale>
<asrwt>0</asrwt>
<pdfrwt beam="1">  1        2 0.17457651E+00 0.22562536E+03</pdfrwt>
<pdfrwt beam="2">  1       -2 0.17254538E-02 0.22562536E+03</pdfrwt>
<totfact> 0.20689694E+04</totfact>
</mgrwt>
</event>
<event>
 4    1  0.5980424E-004  0.2368962E+03  0.7818608E-02  0.1121878E+00
         -2   -1    0    0    0  501 -0.00000000000E+00  0.00000000000E+00  0.13489805177E+02  0.13489805418E+02  0.25500000000E-02 0. -1.
          2   -1    0    0  501    0  0.00000000000E+00 -0.00000000000E+00 -0.10400408003E+04  0.10400408003E+04  0.25500000000E-02 0.  1.
    5000001    1    1    2    0    0 -0.53154426413E+02  0.69793224437E+02 -0.42383642568E+03  0.43961665455E+03  0.77000000000E+02 0.  0.
   -5000001    1    1    2    0    0  0.53154426413E+02 -0.69793224437E+02 -0.60271456943E+03  0.61391395116E+03  0.77000000000E+02 0.  0.
<mgrwt>
<rscale>  0 0.23689616E+03</rscale>
<asrwt>0</asrwt>
<pdfrwt beam="1">  1        2 0.16000621E+00 0.23689616E+03</pdfrwt>
<pdfrwt beam="2">  1       -2 0.20753555E-02 0.23689616E+03</pdfrwt>
<totfact> 0.17986464E+04</totfact>
</mgrwt>
</event>
<event>
 4    1  0.5980424E-004  0.3480920E+03  0.7818608E-02  0.1063401E+00
          2   -1    0    0  501    0  0.00000000000E+00  0.00000000000E+00  0.22011626270E+04  0.22011626270E+04  0.25500000000E-02 0.  1.
         -2   -1    0    0    0  501 -0.00000000000E+00 -0.00000000000E+00 -0.13761824578E+02  0.13761824815E+02  0.25500000000E-02 0. -1.
    5000001    1    1    2    0    0  0.14544652055E+03  0.54338105244E+02  0.99195254473E+03  0.10069787341E+04  0.77000000000E+02 0.  0.
   -5000001    1    1    2    0    0 -0.14544652055E+03 -0.54338105244E+02  0.11954482577E+04  0.12079457177E+04  0.77000000000E+02 0.  0.
<mgrwt>
<rscale>  0 0.34809202E+03</rscale>
<asrwt>0</asrwt>
<pdfrwt beam="1">  1        2 0.33864007E+00 0.34809202E+03</pdfrwt>
<pdfrwt beam="2">  1       -2 0.21172059E-02 0.34809202E+03</pdfrwt>
<totfact> 0.41232106E+03</totfact>
</mgrwt>
</event>
<event>
 4    1  0.5980424E-004  0.2920495E+03  0.7818608E-02  0.1089284E+00
          2   -1    0    0  501    0  0.00000000000E+00  0.00000000000E+00  0.11323180056E+04  0.11323180056E+04  0.25500000000E-02 0.  1.
         -2   -1    0    0    0  501 -0.00000000000E+00 -0.00000000000E+00 -0.18831485231E+02  0.18831485404E+02  0.25500000000E-02 0. -1.
    5000001    1    1    2    0    0 -0.94519644223E+01 -0.12269610385E+03  0.49435139649E+03  0.51522420047E+03  0.77000000000E+02 0.  0.
   -5000001    1    1    2    0    0  0.94519644223E+01  0.12269610385E+03  0.61913512385E+03  0.63592529051E+03  0.77000000000E+02 0.  0.
<mgrwt>
<rscale>  0 0.29204952E+03</rscale>
<asrwt>0</asrwt>
<pdfrwt beam="1">  1        2 0.17420278E+00 0.29204952E+03</pdfrwt>
<pdfrwt beam="2">  1       -2 0.28971514E-02 0.29204952E+03</pdfrwt>
<totfact> 0.97610174E+03</totfact>
</mgrwt>
</event>
<event>
 4    1  0.5980424E-004  0.3512044E+03  0.7818608E-02  0.1062122E+00
         -2   -1    0    0    0  501 -0.00000000000E+00  0.00000000000E+00  0.71899549937E+02  0.71899549983E+02  0.25500000000E-02 0. -1.
          2   -1    0    0  501    0  0.00000000000E+00 -0.00000000000E+00 -0.42887790207E+03  0.42887790208E+03  0.25500000000E-02 0.  1.
    5000001    1    1    2    0    0 -0.13420599952E+03 -0.71675799229E+01 -0.60523454381E+02  0.16629706263E+03  0.77000000000E+02 0.  0.
   -5000001    1    1    2    0    0  0.13420599952E+03  0.71675799229E+01 -0.29645489775E+03  0.33448038943E+03  0.77000000000E+02 0.  0.
<mgrwt>
<rscale>  0 0.35120437E+03</rscale>
<asrwt>0</asrwt>
<pdfrwt beam="1">  1        2 0.65981214E-01 0.35120437E+03</pdfrwt>
<pdfrwt beam="2">  1       -2 0.11061469E-01 0.35120437E+03</pdfrwt>
<totfact> 0.41855235E+03</totfact>
</mgrwt>
</event>
<event>
 4    1  0.5980424E-004  0.2214114E+03  0.7818608E-02  0.1132835E+00
         -2   -1    0    0    0  501 -0.00000000000E+00  0.00000000000E+00  0.15055170611E+02  0.15055170827E+02  0.25500000000E-02 0. -1.
          2   -1    0    0  501    0  0.00000000000E+00 -0.00000000000E+00 -0.81405621433E+03  0.81405621433E+03  0.25500000000E-02 0.  1.
    5000001    1    1    2    0    0  0.68464166993E+01  0.73057842493E+02 -0.28454278547E+03  0.30377280743E+03  0.77000000000E+02 0.  0.
   -5000001    1    1    2    0    0 -0.68464166993E+01 -0.73057842493E+02 -0.51445825825E+03  0.52533857773E+03  0.77000000000E+02 0.  0.
<mgrwt>
<rscale>  0 0.22141143E+03</rscale>
<asrwt>0</asrwt>
<pdfrwt beam="1">  1        2 0.12523938E+00 0.22141143E+03</pdfrwt>
<pdfrwt beam="2">  1       -2 0.23161807E-02 0.22141143E+03</pdfrwt>
<totfact> 0.21219434E+04</totfact>
</mgrwt>
</event>
<event>
 4    1  0.5980424E-004  0.1990572E+03  0.7818608E-02  0.1150537E+00
          2   -1    0    0  501    0  0.00000000000E+00  0.00000000000E+00  0.29833591460E+03  0.29833591461E+03  0.25500000000E-02 0.  1.
         -2   -1    0    0    0  501 -0.00000000000E+00 -0.00000000000E+00 -0.33203997036E+02  0.33203997133E+02  0.25500000000E-02 0. -1.
    5000001    1    1    2    0    0 -0.67595440885E+01 -0.57113585354E+02  0.17565487916E+03  0.20022809404E+03  0.77000000000E+02 0.  0.
   -5000001    1    1    2    0    0  0.67595440885E+01  0.57113585354E+02  0.89477038402E+02  0.13131181771E+03  0.77000000000E+02 0.  0.
<mgrwt>
<rscale>  0 0.19905723E+03</rscale>
<asrwt>0</asrwt>
<pdfrwt beam="1">  1        2 0.45897832E-01 0.19905723E+03</pdfrwt>
<pdfrwt beam="2">  1       -2 0.51083073E-02 0.19905723E+03</pdfrwt>
<totfact> 0.20142461E+04</totfact>
</mgrwt>
</event>
<event>
 4    1  0.5980424E-004  0.2005166E+03  0.7818608E-02  0.1149304E+00
         -2   -1    0    0    0  501 -0.00000000000E+00  0.00000000000E+00  0.14823612779E+02  0.14823612999E+02  0.25500000000E-02 0. -1.
          2   -1    0    0  501    0  0.00000000000E+00 -0.00000000000E+00 -0.67808895544E+03  0.67808895544E+03  0.25500000000E-02 0.  1.
    5000001    1    1    2    0    0 -0.17425990456E+02  0.58469745366E+02 -0.26248954202E+03  0.28027153965E+03  0.77000000000E+02 0.  0.
   -5000001    1    1    2    0    0  0.17425990456E+02 -0.58469745366E+02 -0.40077580064E+03  0.41264102879E+03  0.77000000000E+02 0.  0.
<mgrwt>
<rscale>  0 0.20051661E+03</rscale>
<asrwt>0</asrwt>
<pdfrwt beam="1">  1        2 0.10432135E+00 0.20051661E+03</pdfrwt>
<pdfrwt beam="2">  1       -2 0.22805564E-02 0.20051661E+03</pdfrwt>
<totfact> 0.27004828E+04</totfact>
</mgrwt>
</event>
<event>
 4    1  0.5980424E-004  0.1554054E+03  0.7818608E-02  0.1193984E+00
         -2   -1    0    0    0  501 -0.00000000000E+00  0.00000000000E+00  0.20488959932E+02  0.20488960091E+02  0.25500000000E-02 0. -1.
          2   -1    0    0  501    0  0.00000000000E+00 -0.00000000000E+00 -0.29468104631E+03  0.29468104632E+03  0.25500000000E-02 0.  1.
    5000001    1    1    2    0    0  0.98571714435E+01 -0.33649395894E+00 -0.14395287064E+03  0.16355031649E+03  0.77000000000E+02 0.  0.
   -5000001    1    1    2    0    0 -0.98571714435E+01  0.33649395894E+00 -0.13023921573E+03  0.15161968992E+03  0.77000000000E+02 0.  0.
<mgrwt>
<rscale>  0 0.15540538E+03</rscale>
<asrwt>0</asrwt>
<pdfrwt beam="1">  1        2 0.45335543E-01 0.15540538E+03</pdfrwt>
<pdfrwt beam="2">  1       -2 0.31521479E-02 0.15540538E+03</pdfrwt>
<totfact> 0.41067748E+04</totfact>
</mgrwt>
</event>
<event>
 4    1  0.5980424E-004  0.1762261E+03  0.7818608E-02  0.1171506E+00
          2   -1    0    0  501    0  0.00000000000E+00  0.00000000000E+00  0.85877551005E+03  0.85877551005E+03  0.25500000000E-02 0.  1.
         -2   -1    0    0    0  501 -0.00000000000E+00 -0.00000000000E+00 -0.90406761132E+01  0.90406764728E+01  0.25500000000E-02 0. -1.
    5000001    1    1    2    0    0  0.29110512772E+02  0.28923460700E+02  0.48536457679E+03  0.49314476671E+03  0.77000000000E+02 0.  0.
   -5000001    1    1    2    0    0 -0.29110512772E+02 -0.28923460700E+02  0.36437025714E+03  0.37467141981E+03  0.77000000000E+02 0.  0.
<mgrwt>
<rscale>  0 0.17622612E+03</rscale>
<asrwt>0</asrwt>
<pdfrwt beam="1">  1        2 0.13211939E+00 0.17622612E+03</pdfrwt>
<pdfrwt beam="2">  1       -2 0.13908724E-02 0.17622612E+03</pdfrwt>
<totfact> 0.41017763E+04</totfact>
</mgrwt>
</event>
<event>
 4    1  0.5980424E-004  0.4180970E+03  0.7818608E-02  0.1037687E+00
         -2   -1    0    0    0  501 -0.00000000000E+00  0.00000000000E+00  0.52333897621E+02  0.52333897683E+02  0.25500000000E-02 0. -1.
          2   -1    0    0  501    0  0.00000000000E+00 -0.00000000000E+00 -0.83504712813E+03  0.83504712814E+03  0.25500000000E-02 0.  1.
    5000001    1    1    2    0    0 -0.11954845136E+03  0.64919392000E+02 -0.96759909151E+02  0.18384188777E+03  0.77000000000E+02 0.  0.
   -5000001    1    1    2    0    0  0.11954845136E+03 -0.64919392000E+02 -0.68595332136E+03  0.70353913805E+03  0.77000000000E+02 0.  0.
<mgrwt>
<rscale>  0 0.41809698E+03</rscale>
<asrwt>0</asrwt>
<pdfrwt beam="1">  1        2 0.12846878E+00 0.41809698E+03</pdfrwt>
<pdfrwt beam="2">  1       -2 0.80513695E-02 0.41809698E+03</pdfrwt>
<totfact> 0.31560760E+03</totfact>
</mgrwt>
</event>
<event>
 4    1  0.5980424E-004  0.1909847E+03  0.7818608E-02  0.1157576E+00
         -2   -1    0    0    0  501 -0.00000000000E+00  0.00000000000E+00  0.13867466419E+02  0.13867466654E+02  0.25500000000E-02 0. -1.
          2   -1    0    0  501    0  0.00000000000E+00 -0.00000000000E+00 -0.65756731551E+03  0.65756731552E+03  0.25500000000E-02 0.  1.
    5000001    1    1    2    0    0 -0.42967960976E+02  0.32587247384E+02 -0.26285214481E+03  0.27915663057E+03  0.77000000000E+02 0.  0.
   -5000001    1    1    2    0    0  0.42967960976E+02 -0.32587247384E+02 -0.38084770429E+03  0.39227815160E+03  0.77000000000E+02 0.  0.
<mgrwt>
<rscale>  0 0.19098474E+03</rscale>
<asrwt>0</asrwt>
<pdfrwt beam="1">  1        2 0.10116418E+00 0.19098474E+03</pdfrwt>
<pdfrwt beam="2">  1       -2 0.21334569E-02 0.19098474E+03</pdfrwt>
<totfact> 0.30770408E+04</totfact>
</mgrwt>
</event>
<event>
 4    1  0.5980424E-004  0.3029721E+03  0.7818608E-02  0.1083764E+00
         -2   -1    0    0    0  501 -0.00000000000E+00  0.00000000000E+00  0.41163984002E+02  0.41163984081E+02  0.25500000000E-02 0. -1.
          2   -1    0    0  501    0  0.00000000000E+00 -0.00000000000E+00 -0.55747806532E+03  0.55747806533E+03  0.25500000000E-02 0.  1.
    5000001    1    1    2    0    0 -0.11480668812E+03 -0.56394038271E+02 -0.30884779134E+03  0.34304055359E+03  0.77000000000E+02 0.  0.
   -5000001    1    1    2    0    0  0.11480668812E+03  0.56394038271E+02 -0.20746628998E+03  0.25560149582E+03  0.77000000000E+02 0.  0.
<mgrwt>
<rscale>  0 0.30297207E+03</rscale>
<asrwt>0</asrwt>
<pdfrwt beam="1">  1        2 0.85765851E-01 0.30297207E+03</pdfrwt>
<pdfrwt beam="2">  1       -2 0.63329210E-02 0.30297207E+03</pdfrwt>
<totfact> 0.74788742E+03</totfact>
</mgrwt>
</event>
<event>
 4    1  0.5980424E-004  0.2332180E+03  0.7818608E-02  0.1124395E+00
          2   -1    0    0  501    0  0.00000000000E+00  0.00000000000E+00  0.39237803391E+03  0.39237803392E+03  0.25500000000E-02 0.  1.
         -2   -1    0    0    0  501 -0.00000000000E+00 -0.00000000000E+00 -0.34654480920E+02  0.34654481014E+02  0.25500000000E-02 0. -1.
    5000001    1    1    2    0    0  0.44426022682E+02  0.43509734156E+01  0.40911622413E+02  0.97955925341E+02  0.77000000000E+02 0.  0.
   -5000001    1    1    2    0    0 -0.44426022682E+02 -0.43509734156E+01  0.31681193058E+03  0.32907658959E+03  0.77000000000E+02 0.  0.
<mgrwt>
<rscale>  0 0.23321798E+03</rscale>
<asrwt>0</asrwt>
<pdfrwt beam="1">  1        2 0.60365851E-01 0.23321798E+03</pdfrwt>
<pdfrwt beam="2">  1       -2 0.53314586E-02 0.23321798E+03</pdfrwt>
<totfact> 0.14212276E+04</totfact>
</mgrwt>
</event>
<event>
 4    1  0.5980424E-004  0.3060135E+03  0.7818608E-02  0.1082273E+00
         -2   -1    0    0    0  501 -0.00000000000E+00  0.00000000000E+00  0.14565135479E+02  0.14565135702E+02  0.25500000000E-02 0. -1.
          2   -1    0    0  501    0  0.00000000000E+00 -0.00000000000E+00 -0.16073360301E+04  0.16073360301E+04  0.25500000000E-02 0.  1.
    5000001    1    1    2    0    0  0.15496275293E+02 -0.60140449195E+02 -0.17772410319E+03  0.20340074983E+03  0.77000000000E+02 0.  0.
   -5000001    1    1    2    0    0 -0.15496275293E+02  0.60140449195E+02 -0.14150467914E+04  0.14185004160E+04  0.77000000000E+02 0.  0.
<mgrwt>
<rscale>  0 0.30601351E+03</rscale>
<asrwt>0</asrwt>
<pdfrwt beam="1">  1        2 0.24728233E+00 0.30601351E+03</pdfrwt>
<pdfrwt beam="2">  1       -2 0.22407914E-02 0.30601351E+03</pdfrwt>
<totfact> 0.78300165E+03</totfact>
</mgrwt>
</event>
<event>
 4    1  0.5980424E-004  0.4232420E+03  0.7818608E-02  0.1036016E+00
          2   -1    0    0  501    0  0.00000000000E+00  0.00000000000E+00  0.15665999834E+04  0.15665999834E+04  0.25500000000E-02 0.  1.
         -2   -1    0    0    0  501 -0.00000000000E+00 -0.00000000000E+00 -0.28586395067E+02  0.28586395180E+02  0.25500000000E-02 0. -1.
    5000001    1    1    2    0    0 -0.11645625589E+03 -0.15788786604E+03  0.84089522669E+03  0.86690508134E+03  0.77000000000E+02 0.  0.
   -5000001    1    1    2    0    0  0.11645625589E+03  0.15788786604E+03  0.69711836164E+03  0.72828129724E+03  0.77000000000E+02 0.  0.
<mgrwt>
<rscale>  0 0.42324199E+03</rscale>
<asrwt>0</asrwt>
<pdfrwt beam="1">  1        2 0.24101540E+00 0.42324199E+03</pdfrwt>
<pdfrwt beam="2">  1       -2 0.43979067E-02 0.42324199E+03</pdfrwt>
<totfact> 0.29889592E+03</totfact>
</mgrwt>
</event>
<event>
 4    1  0.5980424E-004  0.4778626E+03  0.7818608E-02  0.1019724E+00
         -2   -1    0    0    0  501 -0.00000000000E+00  0.00000000000E+00  0.82225100413E+02  0.82225100453E+02  0.25500000000E-02 0. -1.
          2   -1    0    0  501    0  0.00000000000E+00 -0.00000000000E+00 -0.69429130607E+03  0.69429130608E+03  0.25500000000E-02 0.  1.
    5000001    1    1    2    0    0 -0.18589737008E+03 -0.18397165580E+02 -0.51326011198E+03  0.55159879483E+03  0.77000000000E+02 0.  0.
   -5000001    1    1    2    0    0  0.18589737008E+03  0.18397165580E+02 -0.98806093676E+02  0.22491761170E+03  0.77000000000E+02 0.  0.
<mgrwt>
<rscale>  0 0.47786263E+03</rscale>
<asrwt>0</asrwt>
<pdfrwt beam="1">  1        2 0.10681404E+00 0.47786263E+03</pdfrwt>
<pdfrwt beam="2">  1       -2 0.12650016E-01 0.47786263E+03</pdfrwt>
<totfact> 0.19293487E+03</totfact>
</mgrwt>
</event>
<event>
 4    1  0.5980424E-004  0.2497283E+03  0.7818608E-02  0.1113477E+00
          2   -1    0    0  501    0  0.00000000000E+00  0.00000000000E+00  0.71979184536E+02  0.71979184581E+02  0.25500000000E-02 0.  1.
         -2   -1    0    0    0  501 -0.00000000000E+00 -0.00000000000E+00 -0.21660512648E+03  0.21660512649E+03  0.25500000000E-02 0. -1.
    5000001    1    1    2    0    0 -0.17546698809E+02 -0.44003444112E+02  0.27214856085E+02  0.94413124747E+02  0.77000000000E+02 0.  0.
   -5000001    1    1    2    0    0  0.17546698809E+02  0.44003444112E+02 -0.17184079803E+03  0.19417118633E+03  0.77000000000E+02 0.  0.
<mgrwt>
<rscale>  0 0.24972834E+03</rscale>
<asrwt>0</asrwt>
<pdfrwt beam="1">  1        2 0.11073721E-01 0.24972834E+03</pdfrwt>
<pdfrwt beam="2">  1       -2 0.33323865E-01 0.24972834E+03</pdfrwt>
<totfact> 0.46986984E+03</totfact>
</mgrwt>
</event>
<event>
 4    1  0.5980424E-004  0.1802301E+03  0.7818608E-02  0.1167581E+00
         -2   -1    0    0    0  501 -0.00000000000E+00  0.00000000000E+00  0.30991770335E+01  0.30991780826E+01  0.25500000000E-02 0. -1.
          2   -1    0    0  501    0  0.00000000000E+00 -0.00000000000E+00 -0.26202822069E+04  0.26202822069E+04  0.25500000000E-02 0.  1.
    5000001    1    1    2    0    0 -0.22908973338E+02 -0.34610490863E+02 -0.16238207329E+04  0.16261751074E+04  0.77000000000E+02 0.  0.
   -5000001    1    1    2    0    0  0.22908973338E+02  0.34610490863E+02 -0.99336229694E+03  0.99720627762E+03  0.77000000000E+02 0.  0.
<mgrwt>
<rscale>  0 0.18023007E+03</rscale>
<asrwt>0</asrwt>
<pdfrwt beam="1">  1        2 0.40311857E+00 0.18023007E+03</pdfrwt>
<pdfrwt beam="2">  1       -2 0.47679864E-03 0.18023007E+03</pdfrwt>
<totfact> 0.21171267E+04</totfact>
</mgrwt>
</event>
<event>
 4    1  0.5980424E-004  0.1873069E+03  0.7818608E-02  0.1160913E+00
         -2   -1    0    0    0  501 -0.00000000000E+00  0.00000000000E+00  0.43121203834E+02  0.43121203909E+02  0.25500000000E-02 0. -1.
          2   -1    0    0  501    0  0.00000000000E+00 -0.00000000000E+00 -0.20340277346E+03  0.20340277347E+03  0.25500000000E-02 0.  1.
    5000001    1    1    2    0    0  0.14562278083E+02 -0.46365860789E+02 -0.51301800667E+02  0.10451185455E+03  0.77000000000E+02 0.  0.
   -5000001    1    1    2    0    0 -0.14562278083E+02  0.46365860789E+02 -0.10897976896E+03  0.14201212283E+03  0.77000000000E+02 0.  0.
<mgrwt>
<rscale>  0 0.18730694E+03</rscale>
<asrwt>0</asrwt>
<pdfrwt beam="1">  1        2 0.31292734E-01 0.18730694E+03</pdfrwt>
<pdfrwt beam="2">  1       -2 0.66340315E-02 0.18730694E+03</pdfrwt>
<totfact> 0.20325565E+04</totfact>
</mgrwt>
</event>
<event>
 4    1  0.5980424E-004  0.2695814E+03  0.7818608E-02  0.1101519E+00
          2   -1    0    0  501    0  0.00000000000E+00  0.00000000000E+00  0.30314037453E+03  0.30314037454E+03  0.25500000000E-02 0. -1.
         -2   -1    0    0    0  501 -0.00000000000E+00 -0.00000000000E+00 -0.59934385508E+02  0.59934385562E+02  0.25500000000E-02 0.  1.
    5000001    1    1    2    0    0  0.45624133850E+02 -0.50930061780E+02  0.44685144544E+01  0.10307473213E+03  0.77000000000E+02 0.  0.
   -5000001    1    1    2    0    0 -0.45624133850E+02  0.50930061780E+02  0.23873747457E+03  0.26000002797E+03  0.77000000000E+02 0.  0.
<mgrwt>
<rscale>  0 0.26958139E+03</rscale>
<asrwt>0</asrwt>
<pdfrwt beam="1">  1        2 0.46636980E-01 0.26958139E+03</pdfrwt>
<pdfrwt beam="2">  1       -2 0.92206748E-02 0.26958139E+03</pdfrwt>
<totfact> 0.80942564E+03</totfact>
</mgrwt>
</event>
<event>
 4    1  0.5980424E-004  0.2017566E+03  0.7818608E-02  0.1148265E+00
         -2   -1    0    0    0  501 -0.00000000000E+00  0.00000000000E+00  0.54607650951E+02  0.54607651010E+02  0.25500000000E-02 0. -1.
          2   -1    0    0  501    0  0.00000000000E+00 -0.00000000000E+00 -0.18635548137E+03  0.18635548138E+03  0.25500000000E-02 0.  1.
    5000001    1    1    2    0    0 -0.27147745644E+02  0.58968930096E+02 -0.59002620215E+02  0.11672465036E+03  0.77000000000E+02 0.  0.
   -5000001    1    1    2    0    0  0.27147745644E+02 -0.58968930096E+02 -0.72745210201E+02  0.12423848203E+03  0.77000000000E+02 0.  0.
<mgrwt>
<rscale>  0 0.20175664E+03</rscale>
<asrwt>0</asrwt>
<pdfrwt beam="1">  1        2 0.28670074E-01 0.20175664E+03</pdfrwt>
<pdfrwt beam="2">  1       -2 0.84011772E-02 0.20175664E+03</pdfrwt>
<totfact> 0.15605569E+04</totfact>
</mgrwt>
</event>
<event>
 4    1  0.5980424E-004  0.1927008E+03  0.7818608E-02  0.1156048E+00
          2   -1    0    0  501    0  0.00000000000E+00  0.00000000000E+00  0.29013514844E+03  0.29013514846E+03  0.25500000000E-02 0.  1.
         -2   -1    0    0    0  501 -0.00000000000E+00 -0.00000000000E+00 -0.31996811945E+02  0.31996812047E+02  0.25500000000E-02 0. -1.
    5000001    1    1    2    0    0 -0.20897122488E+02 -0.53182616523E+02  0.11327040372E+03  0.14840574378E+03  0.77000000000E+02 0.  0.
   -5000001    1    1    2    0    0  0.20897122488E+02  0.53182616523E+02  0.14486793278E+03  0.17372621672E+03  0.77000000000E+02 0.  0.
<mgrwt>
<rscale>  0 0.19270080E+03</rscale>
<asrwt>0</asrwt>
<pdfrwt beam="1">  1        2 0.44636176E-01 0.19270080E+03</pdfrwt>
<pdfrwt beam="2">  1       -2 0.49225865E-02 0.19270080E+03</pdfrwt>
<totfact> 0.21893025E+04</totfact>
</mgrwt>
</event>
<event>
 4    1  0.5980424E-004  0.5468289E+03  0.7818608E-02  0.1002231E+00
          2   -1    0    0  501    0  0.00000000000E+00  0.00000000000E+00  0.78899728633E+03  0.78899728634E+03  0.25500000000E-02 0.  1.
         -2   -1    0    0    0  501 -0.00000000000E+00 -0.00000000000E+00 -0.94747420177E+02  0.94747420211E+02  0.25500000000E-02 0. -1.
    5000001    1    1    2    0    0 -0.90322091948E+02 -0.24592271557E+03  0.32482501540E+03  0.42435404199E+03  0.77000000000E+02 0.  0.
   -5000001    1    1    2    0    0  0.90322091948E+02  0.24592271557E+03  0.36942485075E+03  0.45939066455E+03  0.77000000000E+02 0.  0.
<mgrwt>
<rscale>  0 0.54682889E+03</rscale>
<asrwt>0</asrwt>
<pdfrwt beam="1">  1        2 0.12138420E+00 0.54682889E+03</pdfrwt>
<pdfrwt beam="2">  1       -2 0.14576526E-01 0.54682889E+03</pdfrwt>
<totfact> 0.12955299E+03</totfact>
</mgrwt>
</event>
<event>
 4    1  0.5980424E-004  0.2415092E+03  0.7818608E-02  0.1118792E+00
          2   -1    0    0  501    0  0.00000000000E+00  0.00000000000E+00  0.11417125682E+04  0.11417125682E+04  0.25500000000E-02 0.  1.
         -2   -1    0    0    0  501 -0.00000000000E+00 -0.00000000000E+00 -0.12771753769E+02  0.12771754023E+02  0.25500000000E-02 0. -1.
    5000001    1    1    2    0    0  0.83359286562E+02  0.22024312986E+02  0.73135879337E+03  0.74043806335E+03  0.77000000000E+02 0.  0.
   -5000001    1    1    2    0    0 -0.83359286562E+02 -0.22024312986E+02  0.39758202109E+03  0.41404625891E+03  0.77000000000E+02 0.  0.
<mgrwt>
<rscale>  0 0.24150919E+03</rscale>
<asrwt>0</asrwt>
<pdfrwt beam="1">  1        2 0.17564809E+00 0.24150919E+03</pdfrwt>
<pdfrwt beam="2">  1       -2 0.19648852E-02 0.24150919E+03</pdfrwt>
<totfact> 0.17002059E+04</totfact>
</mgrwt>
</event>
<event>
 4    1  0.5980424E-004  0.2451710E+03  0.7818608E-02  0.1116395E+00
          2   -1    0    0  501    0  0.00000000000E+00  0.00000000000E+00  0.21399630334E+04  0.21399630334E+04  0.25500000000E-02 0. -1.
         -2   -1    0    0    0  501 -0.00000000000E+00 -0.00000000000E+00 -0.70221813247E+01  0.70221817877E+01  0.25500000000E-02 0.  1.
    5000001    1    1    2    0    0  0.80532299085E+02  0.46764161203E+02  0.88575346354E+03  0.89395779327E+03  0.77000000000E+02 0.  0.
   -5000001    1    1    2    0    0 -0.80532299085E+02 -0.46764161203E+02  0.12471873886E+04  0.12530274219E+04  0.77000000000E+02 0.  0.
<mgrwt>
<rscale>  0 0.24517103E+03</rscale>
<asrwt>0</asrwt>
<pdfrwt beam="1">  1        2 0.32922534E+00 0.24517103E+03</pdfrwt>
<pdfrwt beam="2">  1       -2 0.10803348E-02 0.24517103E+03</pdfrwt>
<totfact> 0.11913730E+04</totfact>
</mgrwt>
</event>
<event>
 4    1  0.5980424E-004  0.5268673E+03  0.7818608E-02  0.1006995E+00
          2   -1    0    0  501    0  0.00000000000E+00  0.00000000000E+00  0.89582259923E+02  0.89582259959E+02  0.25500000000E-02 0.  1.
         -2   -1    0    0    0  501 -0.00000000000E+00 -0.00000000000E+00 -0.77467653845E+03  0.77467653845E+03  0.25500000000E-02 0. -1.
    5000001    1    1    2    0    0  0.76693152023E+02 -0.23944327943E+03 -0.31643729593E+03  0.41143223730E+03  0.77000000000E+02 0.  0.
   -5000001    1    1    2    0    0 -0.76693152023E+02  0.23944327943E+03 -0.36865698260E+03  0.45282656112E+03  0.77000000000E+02 0.  0.
<mgrwt>
<rscale>  0 0.52686725E+03</rscale>
<asrwt>0</asrwt>
<pdfrwt beam="1">  1        2 0.13781887E-01 0.52686725E+03</pdfrwt>
<pdfrwt beam="2">  1       -2 0.11918100E+00 0.52686725E+03</pdfrwt>
<totfact> 0.24355085E+02</totfact>
</mgrwt>
</event>
<event>
 4    1  0.5980424E-004  0.2554427E+03  0.7818608E-02  0.1109913E+00
          2   -1    0    0  501    0  0.00000000000E+00  0.00000000000E+00  0.54165779341E+03  0.54165779341E+03  0.25500000000E-02 0.  1.
         -2   -1    0    0    0  501 -0.00000000000E+00 -0.00000000000E+00 -0.30116335032E+02  0.30116335140E+02  0.25500000000E-02 0. -1.
    5000001    1    1    2    0    0 -0.10010678881E+03 -0.18920571914E+02  0.25108061736E+03  0.28169102510E+03  0.77000000000E+02 0.  0.
   -5000001    1    1    2    0    0  0.10010678881E+03  0.18920571914E+02  0.26046084102E+03  0.29008310346E+03  0.77000000000E+02 0.  0.
<mgrwt>
<rscale>  0 0.25544273E+03</rscale>
<asrwt>0</asrwt>
<pdfrwt beam="1">  1        2 0.83331961E-01 0.25544273E+03</pdfrwt>
<pdfrwt beam="2">  1       -2 0.46332827E-02 0.25544273E+03</pdfrwt>
<totfact> 0.12374879E+04</totfact>
</mgrwt>
</event>
<event>
 4    1  0.5980424E-004  0.2155554E+03  0.7818608E-02  0.1137241E+00
          2   -1    0    0  501    0  0.00000000000E+00  0.00000000000E+00  0.13748774602E+04  0.13748774602E+04  0.25500000000E-02 0.  1.
         -2   -1    0    0    0  501 -0.00000000000E+00 -0.00000000000E+00 -0.84487756306E+01  0.84487760154E+01  0.25500000000E-02 0. -1.
    5000001    1    1    2    0    0 -0.61368840315E+02 -0.39863094347E+02  0.80011688087E+03  0.80713767345E+03  0.77000000000E+02 0.  0.
   -5000001    1    1    2    0    0  0.61368840315E+02  0.39863094347E+02  0.56631180368E+03  0.57618856275E+03  0.77000000000E+02 0.  0.
<mgrwt>
<rscale>  0 0.21555539E+03</rscale>
<asrwt>0</asrwt>
<pdfrwt beam="1">  1        2 0.21151958E+00 0.21555539E+03</pdfrwt>
<pdfrwt beam="2">  1       -2 0.12998119E-02 0.21555539E+03</pdfrwt>
<totfact> 0.22919000E+04</totfact>
</mgrwt>
</event>
<event>
 4    1  0.5980424E-004  0.2072198E+03  0.7818608E-02  0.1143787E+00
          2   -1    0    0  501    0  0.00000000000E+00  0.00000000000E+00  0.18295152237E+04  0.18295152237E+04  0.25500000000E-02 0.  1.
         -2   -1    0    0    0  501 -0.00000000000E+00 -0.00000000000E+00 -0.58676824306E+01  0.58676829847E+01  0.25500000000E-02 0. -1.
    5000001    1    1    2    0    0  0.57461162292E+02  0.68450095856E+00  0.12552905913E+04  0.12589621608E+04  0.77000000000E+02 0.  0.
   -5000001    1    1    2    0    0 -0.57461162292E+02 -0.68450095856E+00  0.56835695003E+03  0.57642074595E+03  0.77000000000E+02 0.  0.
<mgrwt>
<rscale>  0 0.20721983E+03</rscale>
<asrwt>0</asrwt>
<pdfrwt beam="1">  1        2 0.28146376E+00 0.20721983E+03</pdfrwt>
<pdfrwt beam="2">  1       -2 0.90272079E-03 0.20721983E+03</pdfrwt>
<totfact> 0.22332116E+04</totfact>
</mgrwt>
</event>
<event>
 4    1  0.5980424E-004  0.3218800E+03  0.7818608E-02  0.1074787E+00
          2   -1    0    0  501    0  0.00000000000E+00  0.00000000000E+00  0.99868755911E+03  0.99868755912E+03  0.25500000000E-02 0.  1.
         -2   -1    0    0    0  501 -0.00000000000E+00 -0.00000000000E+00 -0.25935730106E+02  0.25935730231E+02  0.25500000000E-02 0. -1.
    5000001    1    1    2    0    0  0.13268445832E+03 -0.48163661732E+02  0.50838116273E+03  0.53320287922E+03  0.77000000000E+02 0.  0.
   -5000001    1    1    2    0    0 -0.13268445832E+03  0.48163661732E+02  0.46437066628E+03  0.49142041013E+03  0.77000000000E+02 0.  0.
<mgrwt>
<rscale>  0 0.32188005E+03</rscale>
<asrwt>0</asrwt>
<pdfrwt beam="1">  1        2 0.15364425E+00 0.32188005E+03</pdfrwt>
<pdfrwt beam="2">  1       -2 0.39901120E-02 0.32188005E+03</pdfrwt>
<totfact> 0.72767940E+03</totfact>
</mgrwt>
</event>
<event>
 4    1  0.5980424E-004  0.2933741E+03  0.7818608E-02  0.1088601E+00
         -2   -1    0    0    0  501 -0.00000000000E+00  0.00000000000E+00  0.78427338673E+01  0.78427342818E+01  0.25500000000E-02 0. -1.
          2   -1    0    0  501    0  0.00000000000E+00 -0.00000000000E+00 -0.27435708409E+04  0.27435708409E+04  0.25500000000E-02 0.  1.
    5000001    1    1    2    0    0 -0.12356963426E+03  0.17848816952E+02 -0.13655336164E+04  0.13733896361E+04  0.77000000000E+02 0.  0.
   -5000001    1    1    2    0    0  0.12356963426E+03 -0.17848816952E+02 -0.13701944906E+04  0.13780239391E+04  0.77000000000E+02 0.  0.
<mgrwt>
<rscale>  0 0.29337414E+03</rscale>
<asrwt>0</asrwt>
<pdfrwt beam="1">  1        2 0.42208706E+00 0.29337414E+03</pdfrwt>
<pdfrwt beam="2">  1       -2 0.12065767E-02 0.29337414E+03</pdfrwt>
<totfact> 0.47546321E+03</totfact>
</mgrwt>
</event>
<event>
 4    1  0.5980424E-004  0.2599450E+03  0.7818608E-02  0.1107176E+00
          2   -1    0    0  501    0  0.00000000000E+00  0.00000000000E+00  0.17180803485E+04  0.17180803485E+04  0.25500000000E-02 0.  1.
         -2   -1    0    0    0  501 -0.00000000000E+00 -0.00000000000E+00 -0.98323947125E+01  0.98323950432E+01  0.25500000000E-02 0. -1.
    5000001    1    1    2    0    0  0.66343414673E+02 -0.68635706041E+02  0.56809735623E+03  0.58118492322E+03  0.77000000000E+02 0.  0.
   -5000001    1    1    2    0    0 -0.66343414673E+02  0.68635706041E+02  0.11401505976E+04  0.11467278204E+04  0.77000000000E+02 0.  0.
<mgrwt>
<rscale>  0 0.25994495E+03</rscale>
<asrwt>0</asrwt>
<pdfrwt beam="1">  1        2 0.26431999E+00 0.25994495E+03</pdfrwt>
<pdfrwt beam="2">  1       -2 0.15126765E-02 0.25994495E+03</pdfrwt>
<totfact> 0.12162163E+04</totfact>
</mgrwt>
</event>
<event>
 4    1  0.5980424E-004  0.2319483E+03  0.7818608E-02  0.1125276E+00
         -2   -1    0    0    0  501 -0.00000000000E+00  0.00000000000E+00  0.13729570042E+02  0.13729570279E+02  0.25500000000E-02 0. -1.
          2   -1    0    0  501    0  0.00000000000E+00 -0.00000000000E+00 -0.97963763478E+03  0.97963763478E+03  0.25500000000E-02 0.  1.
    5000001    1    1    2    0    0  0.30788594872E+02 -0.69126103431E+02 -0.30152438850E+03  0.32026912528E+03  0.77000000000E+02 0.  0.
   -5000001    1    1    2    0    0 -0.30788594872E+02  0.69126103431E+02 -0.66438367624E+03  0.67309807978E+03  0.77000000000E+02 0.  0.
<mgrwt>
<rscale>  0 0.23194830E+03</rscale>
<asrwt>0</asrwt>
<pdfrwt beam="1">  1        2 0.15071343E+00 0.23194830E+03</pdfrwt>
<pdfrwt beam="2">  1       -2 0.21122423E-02 0.23194830E+03</pdfrwt>
<totfact> 0.19051158E+04</totfact>
</mgrwt>
</event>
<event>
 4    1  0.5980424E-004  0.3058279E+03  0.7818608E-02  0.1082363E+00
          2   -1    0    0  501    0  0.00000000000E+00  0.00000000000E+00  0.67784264673E+02  0.67784264721E+02  0.25500000000E-02 0.  1.
         -2   -1    0    0    0  501 -0.00000000000E+00 -0.00000000000E+00 -0.34495727403E+03  0.34495727404E+03  0.25500000000E-02 0. -1.
    5000001    1    1    2    0    0  0.11805514877E+03  0.29066334893E+02 -0.20834602416E+03  0.25321717114E+03  0.77000000000E+02 0.  0.
   -5000001    1    1    2    0    0 -0.11805514877E+03 -0.29066334893E+02 -0.68826985194E+02  0.15952436762E+03  0.77000000000E+02 0.  0.
<mgrwt>
<rscale>  0 0.30582789E+03</rscale>
<asrwt>0</asrwt>
<pdfrwt beam="1">  1        2 0.10428349E-01 0.30582789E+03</pdfrwt>
<pdfrwt beam="2">  1       -2 0.53070349E-01 0.30582789E+03</pdfrwt>
<totfact> 0.20729287E+03</totfact>
</mgrwt>
</event>
<event>
 4    1  0.5980424E-004  0.2040609E+03  0.7818608E-02  0.1146357E+00
          2   -1    0    0  501    0  0.00000000000E+00  0.00000000000E+00  0.16823775941E+04  0.16823775941E+04  0.25500000000E-02 0.  1.
         -2   -1    0    0    0  501 -0.00000000000E+00 -0.00000000000E+00 -0.61877962668E+01  0.61877967923E+01  0.25500000000E-02 0. -1.
    5000001    1    1    2    0    0  0.10774222496E+02 -0.55671127700E+02  0.11325028865E+04  0.11365329499E+04  0.77000000000E+02 0.  0.
   -5000001    1    1    2    0    0 -0.10774222496E+02  0.55671127700E+02  0.54368691135E+03  0.55203244099E+03  0.77000000000E+02 0.  0.
<mgrwt>
<rscale>  0 0.20406088E+03</rscale>
<asrwt>0</asrwt>
<pdfrwt beam="1">  1        2 0.25882724E+00 0.20406088E+03</pdfrwt>
<pdfrwt beam="2">  1       -2 0.95196899E-03 0.20406088E+03</pdfrwt>
<totfact> 0.24655301E+04</totfact>
</mgrwt>
</event>
<event>
 4    1  0.5980424E-004  0.2400025E+03  0.7818608E-02  0.1119791E+00
         -2   -1    0    0    0  501 -0.00000000000E+00  0.00000000000E+00  0.11329934936E+02  0.11329935223E+02  0.25500000000E-02 0. -1.
          2   -1    0    0  501    0  0.00000000000E+00 -0.00000000000E+00 -0.12709953252E+04  0.12709953252E+04  0.25500000000E-02 0.  1.
    5000001    1    1    2    0    0 -0.79766192767E+02  0.28942264698E+02 -0.43935052905E+03  0.45404645970E+03  0.77000000000E+02 0.  0.
   -5000001    1    1    2    0    0  0.79766192767E+02 -0.28942264698E+02 -0.82031486126E+03  0.82827880077E+03  0.77000000000E+02 0.  0.
<mgrwt>
<rscale>  0 0.24000245E+03</rscale>
<asrwt>0</asrwt>
<pdfrwt beam="1">  1        2 0.19553763E+00 0.24000245E+03</pdfrwt>
<pdfrwt beam="2">  1       -2 0.17430679E-02 0.24000245E+03</pdfrwt>
<totfact> 0.17121645E+04</totfact>
</mgrwt>
</event>
<event>
 4    1  0.5980424E-004  0.2946886E+03  0.7818608E-02  0.1087926E+00
          2   -1    0    0  501    0  0.00000000000E+00  0.00000000000E+00  0.37430709095E+03  0.37430709096E+03  0.25500000000E-02 0.  1.
         -2   -1    0    0    0  501 -0.00000000000E+00 -0.00000000000E+00 -0.58001427645E+02  0.58001427701E+02  0.25500000000E-02 0. -1.
    5000001    1    1    2    0    0 -0.58579650381E+01 -0.11079658391E+03  0.71722351480E+02  0.15291597190E+03  0.77000000000E+02 0.  0.
   -5000001    1    1    2    0    0  0.58579650381E+01  0.11079658391E+03  0.24458331183E+03  0.27939254676E+03  0.77000000000E+02 0.  0.
<mgrwt>
<rscale>  0 0.29468862E+03</rscale>
<asrwt>0</asrwt>
<pdfrwt beam="1">  1        2 0.57585706E-01 0.29468862E+03</pdfrwt>
<pdfrwt beam="2">  1       -2 0.89232967E-02 0.29468862E+03</pdfrwt>
<totfact> 0.68105828E+03</totfact>
</mgrwt>
</event>
<event>
 4    1  0.5980424E-004  0.3038929E+03  0.7818608E-02  0.1083311E+00
          2   -1    0    0  501    0  0.00000000000E+00  0.00000000000E+00  0.23067361120E+03  0.23067361121E+03  0.25500000000E-02 0.  1.
         -2   -1    0    0    0  501 -0.00000000000E+00 -0.00000000000E+00 -0.10008825398E+03  0.10008825401E+03  0.25500000000E-02 0. -1.
    5000001    1    1    2    0    0  0.10494618593E+03 -0.31004619097E+02  0.14365659564E+03  0.19631914277E+03  0.77000000000E+02 0.  0.
   -5000001    1    1    2    0    0 -0.10494618593E+03  0.31004619097E+02 -0.13071238420E+02  0.13444272245E+03  0.77000000000E+02 0.  0.
<mgrwt>
<rscale>  0 0.30389287E+03</rscale>
<asrwt>0</asrwt>
<pdfrwt beam="1">  1        2 0.35488248E-01 0.30389287E+03</pdfrwt>
<pdfrwt beam="2">  1       -2 0.15398193E-01 0.30389287E+03</pdfrwt>
<totfact> 0.47638461E+03</totfact>
</mgrwt>
</event>
<event>
 4    1  0.5980424E-004  0.2763744E+03  0.7818608E-02  0.1097686E+00
         -2   -1    0    0    0  501 -0.00000000000E+00  0.00000000000E+00  0.10307799215E+03  0.10307799219E+03  0.25500000000E-02 0. -1.
          2   -1    0    0  501    0  0.00000000000E+00 -0.00000000000E+00 -0.18525491980E+03  0.18525491982E+03  0.25500000000E-02 0.  1.
    5000001    1    1    2    0    0 -0.10711284842E+03 -0.39788416210E+02 -0.52051471356E+02  0.14729099101E+03  0.77000000000E+02 0.  0.
   -5000001    1    1    2    0    0  0.10711284842E+03  0.39788416210E+02 -0.30125456291E+02  0.14104192100E+03  0.77000000000E+02 0.  0.
<mgrwt>
<rscale>  0 0.27637442E+03</rscale>
<asrwt>0</asrwt>
<pdfrwt beam="1">  1        2 0.28500757E-01 0.27637442E+03</pdfrwt>
<pdfrwt beam="2">  1       -2 0.15858153E-01 0.27637442E+03</pdfrwt>
<totfact> 0.57502992E+03</totfact>
</mgrwt>
</event>
<event>
 4    1  0.5980424E-004  0.5421220E+03  0.7818608E-02  0.1003334E+00
         -2   -1    0    0    0  501 -0.00000000000E+00  0.00000000000E+00  0.30153266599E+02  0.30153266707E+02  0.25500000000E-02 0. -1.
          2   -1    0    0  501    0  0.00000000000E+00 -0.00000000000E+00 -0.24366866697E+04  0.24366866697E+04  0.25500000000E-02 0.  1.
    5000001    1    1    2    0    0  0.12936791801E+03 -0.21920534501E+03 -0.96429704249E+03  0.10002923711E+04  0.77000000000E+02 0.  0.
   -5000001    1    1    2    0    0 -0.12936791801E+03  0.21920534501E+03 -0.14422363606E+04  0.14665475653E+04  0.77000000000E+02 0.  0.
<mgrwt>
<rscale>  0 0.54212199E+03</rscale>
<asrwt>0</asrwt>
<pdfrwt beam="1">  1        2 0.37487472E+00 0.54212199E+03</pdfrwt>
<pdfrwt beam="2">  1       -2 0.46389660E-02 0.54212199E+03</pdfrwt>
<totfact> 0.92466874E+02</totfact>
</mgrwt>
</event>
<event>
 4    1  0.5980424E-004  0.3270788E+03  0.7818608E-02  0.1072437E+00
         -2   -1    0    0    0  501 -0.00000000000E+00  0.00000000000E+00  0.28975697111E+03  0.28975697112E+03  0.25500000000E-02 0.  1.
          2   -1    0    0  501    0  0.00000000000E+00 -0.00000000000E+00 -0.92301939782E+02  0.92301939817E+02  0.25500000000E-02 0. -1.
    5000001    1    1    2    0    0 -0.49788240316E+02  0.13302735231E+03  0.69154067293E+02  0.17574535658E+03  0.77000000000E+02 0.  0.
   -5000001    1    1    2    0    0  0.49788240316E+02 -0.13302735231E+03  0.12830096403E+03  0.20631355435E+03  0.77000000000E+02 0.  0.
<mgrwt>
<rscale>  0 0.32707877E+03</rscale>
<asrwt>0</asrwt>
<pdfrwt beam="1">  1        2 0.14200299E-01 0.32707877E+03</pdfrwt>
<pdfrwt beam="2">  1       -2 0.44577995E-01 0.32707877E+03</pdfrwt>
<totfact> 0.20149709E+03</totfact>
</mgrwt>
</event>
<event>
 4    1  0.5980424E-004  0.2426235E+03  0.7818608E-02  0.1118057E+00
         -2   -1    0    0    0  501 -0.00000000000E+00  0.00000000000E+00  0.98059889170E+01  0.98059892486E+01  0.25500000000E-02 0. -1.
          2   -1    0    0  501    0  0.00000000000E+00 -0.00000000000E+00 -0.15007703153E+04  0.15007703153E+04  0.25500000000E-02 0.  1.
    5000001    1    1    2    0    0  0.24997276410E+02  0.85415586966E+02 -0.92879044334E+03  0.93621652088E+03  0.77000000000E+02 0.  0.
   -5000001    1    1    2    0    0 -0.24997276410E+02 -0.85415586966E+02 -0.56217388302E+03  0.57435978365E+03  0.77000000000E+02 0.  0.
<mgrwt>
<rscale>  0 0.24262347E+03</rscale>
<asrwt>0</asrwt>
<pdfrwt beam="1">  1        2 0.23088756E+00 0.24262347E+03</pdfrwt>
<pdfrwt beam="2">  1       -2 0.15086149E-02 0.24262347E+03</pdfrwt>
<totfact> 0.15873656E+04</totfact>
</mgrwt>
</event>
<event>
 4    1  0.5980424E-004  0.2742726E+03  0.7818608E-02  0.1098859E+00
          2   -1    0    0  501    0  0.00000000000E+00  0.00000000000E+00  0.54065402730E+03  0.54065402730E+03  0.25500000000E-02 0. -1.
         -2   -1    0    0    0  501 -0.00000000000E+00 -0.00000000000E+00 -0.34784471073E+02  0.34784471167E+02  0.25500000000E-02 0.  1.
    5000001    1    1    2    0    0 -0.23299405405E+02 -0.11103078184E+03  0.25835230508E+03  0.29248181199E+03  0.77000000000E+02 0.  0.
   -5000001    1    1    2    0    0  0.23299405405E+02  0.11103078184E+03  0.24751725114E+03  0.28295668648E+03  0.77000000000E+02 0.  0.
<mgrwt>
<rscale>  0 0.27427260E+03</rscale>
<asrwt>0</asrwt>
<pdfrwt beam="1">  1        2 0.83177546E-01 0.27427260E+03</pdfrwt>
<pdfrwt beam="2">  1       -2 0.53514569E-02 0.27427260E+03</pdfrwt>
<totfact> 0.99935852E+03</totfact>
</mgrwt>
</event>
<event>
 4    1  0.5980424E-004  0.2678411E+03  0.7818608E-02  0.1102522E+00
          2   -1    0    0  501    0  0.00000000000E+00  0.00000000000E+00  0.35533293214E+04  0.35533293214E+04  0.25500000000E-02 0.  1.
         -2   -1    0    0    0  501 -0.00000000000E+00 -0.00000000000E+00 -0.50472986485E+01  0.50472992926E+01  0.25500000000E-02 0. -1.
    5000001    1    1    2    0    0  0.46014158224E+02  0.57092342011E+02  0.69247132984E+03  0.70058716868E+03  0.77000000000E+02 0.  0.
   -5000001    1    1    2    0    0 -0.46014158224E+02 -0.57092342011E+02  0.28558106929E+04  0.28577894520E+04  0.77000000000E+02 0.  0.
<mgrwt>
<rscale>  0 0.26784111E+03</rscale>
<asrwt>0</asrwt>
<pdfrwt beam="1">  1        2 0.54666580E+00 0.26784111E+03</pdfrwt>
<pdfrwt beam="2">  1       -2 0.77650789E-03 0.26784111E+03</pdfrwt>
<totfact> 0.28782977E+03</totfact>
</mgrwt>
</event>
<event>
 4    1  0.5980424E-004  0.1931476E+03  0.7818608E-02  0.1155653E+00
         -2   -1    0    0    0  501 -0.00000000000E+00  0.00000000000E+00  0.66512179759E+02  0.66512179808E+02  0.25500000000E-02 0. -1.
          2   -1    0    0  501    0  0.00000000000E+00 -0.00000000000E+00 -0.14022248525E+03  0.14022248527E+03  0.25500000000E-02 0.  1.
    5000001    1    1    2    0    0  0.62723854900E+01  0.50203953940E+02 -0.67834637957E+02  0.11441292723E+03  0.77000000000E+02 0.  0.
   -5000001    1    1    2    0    0 -0.62723854900E+01 -0.50203953940E+02 -0.58756675352E+01  0.92321737851E+02  0.77000000000E+02 0.  0.
<mgrwt>
<rscale>  0 0.19314764E+03</rscale>
<asrwt>0</asrwt>
<pdfrwt beam="1">  1        2 0.21572690E-01 0.19314764E+03</pdfrwt>
<pdfrwt beam="2">  1       -2 0.10232643E-01 0.19314764E+03</pdfrwt>
<totfact> 0.15655573E+04</totfact>
</mgrwt>
</event>
<event>
 4    1  0.5980424E-004  0.2130451E+03  0.7818608E-02  0.1139177E+00
          2   -1    0    0  501    0  0.00000000000E+00  0.00000000000E+00  0.80568451656E+03  0.80568451656E+03  0.25500000000E-02 0.  1.
         -2   -1    0    0    0  501 -0.00000000000E+00 -0.00000000000E+00 -0.14083740615E+02  0.14083740845E+02  0.25500000000E-02 0. -1.
    5000001    1    1    2    0    0  0.64677652328E+02 -0.34998209104E+02  0.38364546884E+03  0.39814685622E+03  0.77000000000E+02 0.  0.
   -5000001    1    1    2    0    0 -0.64677652328E+02  0.34998209104E+02  0.40795530710E+03  0.42162140119E+03  0.77000000000E+02 0.  0.
<mgrwt>
<rscale>  0 0.21304508E+03</rscale>
<asrwt>0</asrwt>
<pdfrwt beam="1">  1        2 0.12395149E+00 0.21304508E+03</pdfrwt>
<pdfrwt beam="2">  1       -2 0.21667290E-02 0.21304508E+03</pdfrwt>
<totfact> 0.23658079E+04</totfact>
</mgrwt>
</event>
<event>
 4    1  0.5980424E-004  0.2047582E+03  0.7818608E-02  0.1145785E+00
         -2   -1    0    0    0  501 -0.00000000000E+00  0.00000000000E+00  0.28538695533E+02  0.28538695647E+02  0.25500000000E-02 0. -1.
          2   -1    0    0  501    0  0.00000000000E+00 -0.00000000000E+00 -0.36727253117E+03  0.36727253118E+03  0.25500000000E-02 0.  1.
    5000001    1    1    2    0    0 -0.37913669802E+02  0.73971229832E+01 -0.27630438844E+03  0.28942231921E+03  0.77000000000E+02 0.  0.
   -5000001    1    1    2    0    0  0.37913669802E+02 -0.73971229832E+01 -0.62429447200E+02  0.10638890762E+03  0.77000000000E+02 0.  0.
<mgrwt>
<rscale>  0 0.20475819E+03</rscale>
<asrwt>0</asrwt>
<pdfrwt beam="1">  1        2 0.56503463E-01 0.20475819E+03</pdfrwt>
<pdfrwt beam="2">  1       -2 0.43905688E-02 0.20475819E+03</pdfrwt>
<totfact> 0.20298835E+04</totfact>
</mgrwt>
</event>
<event>
 4    1  0.5980424E-004  0.3788376E+03  0.7818608E-02  0.1051364E+00
         -2   -1    0    0    0  501 -0.00000000000E+00  0.00000000000E+00  0.14298472676E+03  0.14298472678E+03  0.25500000000E-02 0. -1.
          2   -1    0    0  501    0  0.00000000000E+00 -0.00000000000E+00 -0.25093227930E+03  0.25093227931E+03  0.25500000000E-02 0.  1.
    5000001    1    1    2    0    0 -0.21408495233E+02  0.16680650821E+03 -0.96437387983E+02  0.20859507341E+03  0.77000000000E+02 0.  0.
   -5000001    1    1    2    0    0  0.21408495233E+02 -0.16680650821E+03 -0.11510164558E+02  0.18532193269E+03  0.77000000000E+02 0.  0.
<mgrwt>
<rscale>  0 0.37883761E+03</rscale>
<asrwt>0</asrwt>
<pdfrwt beam="1">  1        2 0.38604966E-01 0.37883761E+03</pdfrwt>
<pdfrwt beam="2">  1       -2 0.21997650E-01 0.37883761E+03</pdfrwt>
<totfact> 0.23800185E+03</totfact>
</mgrwt>
</event>
<event>
 4    1  0.5980424E-004  0.2330758E+03  0.7818608E-02  0.1124493E+00
         -2   -1    0    0    0  501 -0.00000000000E+00  0.00000000000E+00  0.14343248803E+02  0.14343249030E+02  0.25500000000E-02 0. -1.
          2   -1    0    0  501    0  0.00000000000E+00 -0.00000000000E+00 -0.94686254432E+03  0.94686254432E+03  0.25500000000E-02 0.  1.
    5000001    1    1    2    0    0  0.30785092424E+02  0.65687157052E+02 -0.26466538110E+03  0.28502506639E+03  0.77000000000E+02 0.  0.
   -5000001    1    1    2    0    0 -0.30785092424E+02 -0.65687157052E+02 -0.66785391441E+03  0.67618072696E+03  0.77000000000E+02 0.  0.
<mgrwt>
<rscale>  0 0.23307583E+03</rscale>
<asrwt>0</asrwt>
<pdfrwt beam="1">  1        2 0.14567111E+00 0.23307583E+03</pdfrwt>
<pdfrwt beam="2">  1       -2 0.22066544E-02 0.23307583E+03</pdfrwt>
<totfact> 0.18726584E+04</totfact>
</mgrwt>
</event>
<event>
 4    1  0.5980424E-004  0.2036499E+03  0.7818608E-02  0.1146696E+00
          2   -1    0    0  501    0  0.00000000000E+00  0.00000000000E+00  0.12168239939E+03  0.12168239942E+03  0.25500000000E-02 0.  1.
         -2   -1    0    0    0  501 -0.00000000000E+00 -0.00000000000E+00 -0.85208020877E+02  0.85208020915E+02  0.25500000000E-02 0. -1.
    5000001    1    1    2    0    0  0.50585873272E+02  0.33202160592E+02 -0.10099344912E+02  0.98449534333E+02  0.77000000000E+02 0.  0.
   -5000001    1    1    2    0    0 -0.50585873272E+02 -0.33202160592E+02  0.46573723425E+02  0.10844088600E+03  0.77000000000E+02 0.  0.
<mgrwt>
<rscale>  0 0.20364986E+03</rscale>
<asrwt>0</asrwt>
<pdfrwt beam="1">  1        2 0.18720369E-01 0.20364986E+03</pdfrwt>
<pdfrwt beam="2">  1       -2 0.13108926E-01 0.20364986E+03</pdfrwt>
<totfact> 0.12416985E+04</totfact>
</mgrwt>
</event>
<event>
 4    1  0.5980424E-004  0.4693544E+03  0.7818608E-02  0.1022103E+00
         -2   -1    0    0    0  501 -0.00000000000E+00  0.00000000000E+00  0.61563442396E+03  0.61563442397E+03  0.25500000000E-02 0. -1.
          2   -1    0    0  501    0  0.00000000000E+00 -0.00000000000E+00 -0.89457951700E+02  0.89457951737E+02  0.25500000000E-02 0.  1.
    5000001    1    1    2    0    0  0.22027547511E+03  0.24940431992E+02  0.26465267643E+03  0.35371365428E+03  0.77000000000E+02 0.  0.
   -5000001    1    1    2    0    0 -0.22027547511E+03 -0.24940431992E+02  0.26152379583E+03  0.35137872142E+03  0.77000000000E+02 0.  0.
<mgrwt>
<rscale>  0 0.46935443E+03</rscale>
<asrwt>0</asrwt>
<pdfrwt beam="1">  1        2 0.13762762E-01 0.46935443E+03</pdfrwt>
<pdfrwt beam="2">  1       -2 0.94712986E-01 0.46935443E+03</pdfrwt>
<totfact> 0.42235615E+02</totfact>
</mgrwt>
</event>
<event>
 4    1  0.5980424E-004  0.1863945E+03  0.7818608E-02  0.1161754E+00
          2   -1    0    0  501    0  0.00000000000E+00  0.00000000000E+00  0.83495185960E+03  0.83495185960E+03  0.25500000000E-02 0.  1.
         -2   -1    0    0    0  501 -0.00000000000E+00 -0.00000000000E+00 -0.10402669899E+02  0.10402670211E+02  0.25500000000E-02 0. -1.
    5000001    1    1    2    0    0 -0.62529052165E+01 -0.45991010678E+02  0.30095574203E+03  0.31409812248E+03  0.77000000000E+02 0.  0.
   -5000001    1    1    2    0    0  0.62529052165E+01  0.45991010678E+02  0.52359344767E+03  0.53125640733E+03  0.77000000000E+02 0.  0.
<mgrwt>
<rscale>  0 0.18639451E+03</rscale>
<asrwt>0</asrwt>
<pdfrwt beam="1">  1        2 0.12845415E+00 0.18639451E+03</pdfrwt>
<pdfrwt beam="2">  1       -2 0.16004105E-02 0.18639451E+03</pdfrwt>
<totfact> 0.34856146E+04</totfact>
</mgrwt>
</event>
<event>
 4    1  0.5980424E-004  0.4068124E+03  0.7818608E-02  0.1041446E+00
         -2   -1    0    0    0  501 -0.00000000000E+00  0.00000000000E+00  0.28806674226E+02  0.28806674338E+02  0.25500000000E-02 0. -1.
          2   -1    0    0  501    0  0.00000000000E+00 -0.00000000000E+00 -0.14362671000E+04  0.14362671000E+04  0.25500000000E-02 0.  1.
    5000001    1    1    2    0    0 -0.14642956700E+03  0.10702203388E+03 -0.52188005558E+03  0.55783790320E+03  0.77000000000E+02 0.  0.
   -5000001    1    1    2    0    0  0.14642956700E+03 -0.10702203388E+03 -0.88558037021E+03  0.90723587117E+03  0.77000000000E+02 0.  0.
<mgrwt>
<rscale>  0 0.40681238E+03</rscale>
<asrwt>0</asrwt>
<pdfrwt beam="1">  1        2 0.22096411E+00 0.40681238E+03</pdfrwt>
<pdfrwt beam="2">  1       -2 0.44317972E-02 0.40681238E+03</pdfrwt>
<totfact> 0.34795450E+03</totfact>
</mgrwt>
</event>
<event>
 4    1  0.5980424E-004  0.3976586E+03  0.7818608E-02  0.1044593E+00
         -2   -1    0    0    0  501 -0.00000000000E+00  0.00000000000E+00  0.32791165922E+03  0.32791165923E+03  0.25500000000E-02 0. -1.
          2   -1    0    0  501    0  0.00000000000E+00 -0.00000000000E+00 -0.12056017746E+03  0.12056017749E+03  0.25500000000E-02 0.  1.
    5000001    1    1    2    0    0 -0.13974956640E+03  0.67299539657E+01  0.23725404100E+03  0.28599600270E+03  0.77000000000E+02 0.  0.
   -5000001    1    1    2    0    0  0.13974956640E+03 -0.67299539657E+01 -0.29902559246E+02  0.16247583401E+03  0.77000000000E+02 0.  0.
<mgrwt>
<rscale>  0 0.39765859E+03</rscale>
<asrwt>0</asrwt>
<pdfrwt beam="1">  1        2 0.18547719E-01 0.39765859E+03</pdfrwt>
<pdfrwt beam="2">  1       -2 0.50447948E-01 0.39765859E+03</pdfrwt>
<totfact> 0.11517319E+03</totfact>
</mgrwt>
</event>
<event>
 4    1  0.5980424E-004  0.2641589E+03  0.7818608E-02  0.1104670E+00
         -2   -1    0    0    0  501 -0.00000000000E+00  0.00000000000E+00  0.84495231453E+01  0.84495235301E+01  0.25500000000E-02 0. -1.
          2   -1    0    0  501    0  0.00000000000E+00 -0.00000000000E+00 -0.20646114316E+04  0.20646114316E+04  0.25500000000E-02 0.  1.
    5000001    1    1    2    0    0  0.85937869586E+02 -0.12810998174E+02 -0.53382386017E+03  0.54630243711E+03  0.77000000000E+02 0.  0.
   -5000001    1    1    2    0    0 -0.85937869586E+02  0.12810998174E+02 -0.15223380483E+04  0.15267585180E+04  0.77000000000E+02 0.  0.
<mgrwt>
<rscale>  0 0.26415891E+03</rscale>
<asrwt>0</asrwt>
<pdfrwt beam="1">  1        2 0.31763213E+00 0.26415891E+03</pdfrwt>
<pdfrwt beam="2">  1       -2 0.12999283E-02 0.26415891E+03</pdfrwt>
<totfact> 0.99858386E+03</totfact>
</mgrwt>
</event>
<event>
 4    1  0.5980424E-004  0.2342349E+03  0.7818608E-02  0.1123694E+00
         -2   -1    0    0    0  501 -0.00000000000E+00  0.00000000000E+00  0.46729562731E+01  0.46729569688E+01  0.25500000000E-02 0. -1.
          2   -1    0    0  501    0  0.00000000000E+00 -0.00000000000E+00 -0.29352922322E+04  0.29352922322E+04  0.25500000000E-02 0.  1.
    5000001    1    1    2    0    0  0.49601037961E+02 -0.72919860801E+02 -0.14257694640E+04  0.14305681156E+04  0.77000000000E+02 0.  0.
   -5000001    1    1    2    0    0 -0.49601037961E+02  0.72919860801E+02 -0.15048498119E+04  0.15093970735E+04  0.77000000000E+02 0.  0.
<mgrwt>
<rscale>  0 0.23423487E+03</rscale>
<asrwt>0</asrwt>
<pdfrwt beam="1">  1        2 0.45158195E+00 0.23423487E+03</pdfrwt>
<pdfrwt beam="2">  1       -2 0.71891875E-03 0.23423487E+03</pdfrwt>
<totfact> 0.78310857E+03</totfact>
</mgrwt>
</event>
<event>
 4    1  0.5980424E-004  0.1871446E+03  0.7818608E-02  0.1161062E+00
         -2   -1    0    0    0  501 -0.00000000000E+00  0.00000000000E+00  0.31331187109E+01  0.31331197486E+01  0.25500000000E-02 0. -1.
          2   -1    0    0  501    0  0.00000000000E+00 -0.00000000000E+00 -0.27945868419E+04  0.27945868419E+04  0.25500000000E-02 0.  1.
    5000001    1    1    2    0    0 -0.35812700043E+02 -0.38366477901E+02 -0.12686668672E+04  0.12720845711E+04  0.77000000000E+02 0.  0.
   -5000001    1    1    2    0    0  0.35812700043E+02  0.38366477901E+02 -0.15227868560E+04  0.15256353906E+04  0.77000000000E+02 0.  0.
<mgrwt>
<rscale>  0 0.18714458E+03</rscale>
<asrwt>0</asrwt>
<pdfrwt beam="1">  1        2 0.42993445E+00 0.18714458E+03</pdfrwt>
<pdfrwt beam="2">  1       -2 0.48202058E-03 0.18714458E+03</pdfrwt>
<totfact> 0.16690600E+04</totfact>
</mgrwt>
</event>
<event>
 4    1  0.5980424E-004  0.3239502E+03  0.7818608E-02  0.1073846E+00
         -2   -1    0    0    0  501 -0.00000000000E+00  0.00000000000E+00  0.64595370550E+02  0.64595370600E+02  0.25500000000E-02 0. -1.
          2   -1    0    0  501    0  0.00000000000E+00 -0.00000000000E+00 -0.40615799759E+03  0.40615799760E+03  0.25500000000E-02 0.  1.
    5000001    1    1    2    0    0  0.90270259893E+02  0.11003401902E+03 -0.18113059097E+03  0.24288576769E+03  0.77000000000E+02 0.  0.
   -5000001    1    1    2    0    0 -0.90270259893E+02 -0.11003401902E+03 -0.16043203608E+03  0.22786760051E+03  0.77000000000E+02 0.  0.
<mgrwt>
<rscale>  0 0.32395016E+03</rscale>
<asrwt>0</asrwt>
<pdfrwt beam="1">  1        2 0.62485844E-01 0.32395016E+03</pdfrwt>
<pdfrwt beam="2">  1       -2 0.99377496E-02 0.32395016E+03</pdfrwt>
<totfact> 0.52669037E+03</totfact>
</mgrwt>
</event>
<event>
 4    1  0.5980424E-004  0.2981479E+03  0.7818608E-02  0.1086170E+00
         -2   -1    0    0    0  501 -0.00000000000E+00  0.00000000000E+00  0.37277865351E+02  0.37277865438E+02  0.25500000000E-02 0. -1.
          2   -1    0    0  501    0  0.00000000000E+00 -0.00000000000E+00 -0.59614570651E+03  0.59614570651E+03  0.25500000000E-02 0.  1.
    5000001    1    1    2    0    0  0.78456114651E+02 -0.75576425702E+02 -0.42078900639E+03  0.44142898177E+03  0.77000000000E+02 0.  0.
   -5000001    1    1    2    0    0 -0.78456114651E+02  0.75576425702E+02 -0.13807883477E+03  0.19199459018E+03  0.77000000000E+02 0.  0.
<mgrwt>
<rscale>  0 0.29814788E+03</rscale>
<asrwt>0</asrwt>
<pdfrwt beam="1">  1        2 0.91714717E-01 0.29814788E+03</pdfrwt>
<pdfrwt beam="2">  1       -2 0.57350566E-02 0.29814788E+03</pdfrwt>
<totfact> 0.80583759E+03</totfact>
</mgrwt>
</event>
<event>
 4    1  0.5980424E-004  0.2781623E+03  0.7818608E-02  0.1096697E+00
         -2   -1    0    0    0  501 -0.00000000000E+00  0.00000000000E+00  0.14956799501E+03  0.14956799504E+03  0.25500000000E-02 0. -1.
          2   -1    0    0  501    0  0.00000000000E+00 -0.00000000000E+00 -0.12932958136E+03  0.12932958139E+03  0.25500000000E-02 0.  1.
    5000001    1    1    2    0    0 -0.71064415596E+02 -0.91290711766E+02  0.15649306894E+02  0.13985008411E+03  0.77000000000E+02 0.  0.
   -5000001    1    1    2    0    0  0.71064415596E+02  0.91290711766E+02  0.45891067551E+01  0.13904749232E+03  0.77000000000E+02 0.  0.
<mgrwt>
<rscale>  0 0.27816230E+03</rscale>
<asrwt>0</asrwt>
<pdfrwt beam="1">  1        2 0.19896859E-01 0.27816230E+03</pdfrwt>
<pdfrwt beam="2">  1       -2 0.23010461E-01 0.27816230E+03</pdfrwt>
<totfact> 0.45720233E+03</totfact>
</mgrwt>
</event>
<event>
 4    1  0.5980424E-004  0.2863378E+03  0.7818608E-02  0.1092277E+00
         -2   -1    0    0    0  501 -0.00000000000E+00  0.00000000000E+00  0.12124016371E+02  0.12124016639E+02  0.25500000000E-02 0. -1.
          2   -1    0    0  501    0  0.00000000000E+00 -0.00000000000E+00 -0.16906387201E+04  0.16906387201E+04  0.25500000000E-02 0.  1.
    5000001    1    1    2    0    0  0.36816266233E+02  0.56302191329E+02 -0.14352025024E+04  0.14388400179E+04  0.77000000000E+02 0.  0.
   -5000001    1    1    2    0    0 -0.36816266233E+02 -0.56302191329E+02 -0.24331220136E+03  0.26392271888E+03  0.77000000000E+02 0.  0.
<mgrwt>
<rscale>  0 0.28633778E+03</rscale>
<asrwt>0</asrwt>
<pdfrwt beam="1">  1        2 0.26009808E+00 0.28633778E+03</pdfrwt>
<pdfrwt beam="2">  1       -2 0.18652347E-02 0.28633778E+03</pdfrwt>
<totfact> 0.92646749E+03</totfact>
</mgrwt>
</event>
<event>
 4    1  0.5980424E-004  0.2417549E+03  0.7818608E-02  0.1118629E+00
         -2   -1    0    0    0  501 -0.00000000000E+00  0.00000000000E+00  0.23327562012E+03  0.23327562013E+03  0.25500000000E-02 0. -1.
          2   -1    0    0  501    0  0.00000000000E+00 -0.00000000000E+00 -0.62635611539E+02  0.62635611591E+02  0.25500000000E-02 0.  1.
    5000001    1    1    2    0    0 -0.65806275529E+02  0.64750540356E+02  0.10076697176E+03  0.15686325565E+03  0.77000000000E+02 0.  0.
   -5000001    1    1    2    0    0  0.65806275529E+02 -0.64750540356E+02  0.69873036817E+02  0.13904797607E+03  0.77000000000E+02 0.  0.
<mgrwt>
<rscale>  0 0.24175493E+03</rscale>
<asrwt>0</asrwt>
<pdfrwt beam="1">  1        2 0.96362479E-02 0.24175493E+03</pdfrwt>
<pdfrwt beam="2">  1       -2 0.35888557E-01 0.24175493E+03</pdfrwt>
<totfact> 0.48551300E+03</totfact>
</mgrwt>
</event>
<event>
 4    1  0.5980424E-004  0.4801089E+03  0.7818608E-02  0.1019105E+00
          2   -1    0    0  501    0  0.00000000000E+00  0.00000000000E+00  0.34474032539E+03  0.34474032540E+03  0.25500000000E-02 0.  1.
         -2   -1    0    0    0  501 -0.00000000000E+00 -0.00000000000E+00 -0.16715810337E+03  0.16715810339E+03  0.25500000000E-02 0. -1.
    5000001    1    1    2    0    0  0.10828450493E+03  0.48278049323E+02 -0.11806752835E+03  0.18418807047E+03  0.77000000000E+02 0.  0.
   -5000001    1    1    2    0    0 -0.10828450493E+03 -0.48278049323E+02  0.29564975037E+03  0.32771035831E+03  0.77000000000E+02 0.  0.
<mgrwt>
<rscale>  0 0.48010890E+03</rscale>
<asrwt>0</asrwt>
<pdfrwt beam="1">  1        2 0.53036972E-01 0.48010890E+03</pdfrwt>
<pdfrwt beam="2">  1       -2 0.25716632E-01 0.48010890E+03</pdfrwt>
<totfact> 0.12780635E+03</totfact>
</mgrwt>
</event>
<event>
 4    1  0.5980424E-004  0.2949206E+03  0.7818608E-02  0.1087808E+00
          2   -1    0    0  501    0  0.00000000000E+00  0.00000000000E+00  0.87193247048E+03  0.87193247048E+03  0.25500000000E-02 0.  1.
         -2   -1    0    0    0  501 -0.00000000000E+00 -0.00000000000E+00 -0.24938328142E+02  0.24938328273E+02  0.25500000000E-02 0. -1.
    5000001    1    1    2    0    0 -0.97210355214E+02 -0.63135248529E+02  0.27514996156E+03  0.30833814898E+03  0.77000000000E+02 0.  0.
   -5000001    1    1    2    0    0  0.97210355214E+02  0.63135248529E+02  0.57184418078E+03  0.58853264978E+03  0.77000000000E+02 0.  0.
<mgrwt>
<rscale>  0 0.29492059E+03</rscale>
<asrwt>0</asrwt>
<pdfrwt beam="1">  1        2 0.13414343E+00 0.29492059E+03</pdfrwt>
<pdfrwt beam="2">  1       -2 0.38366666E-02 0.29492059E+03</pdfrwt>
<totfact> 0.92775479E+03</totfact>
</mgrwt>
</event>
<event>
 4    1  0.5980424E-004  0.4210150E+03  0.7818608E-02  0.1036736E+00
         -2   -1    0    0    0  501 -0.00000000000E+00  0.00000000000E+00  0.46597375825E+02  0.46597375895E+02  0.25500000000E-02 0. -1.
          2   -1    0    0  501    0  0.00000000000E+00 -0.00000000000E+00 -0.95098500756E+03  0.95098500757E+03  0.25500000000E-02 0.  1.
    5000001    1    1    2    0    0 -0.13588770314E+03 -0.11702216368E+03 -0.26524952418E+03  0.32931134923E+03  0.77000000000E+02 0.  0.
   -5000001    1    1    2    0    0  0.13588770314E+03  0.11702216368E+03 -0.63913810756E+03  0.66827103423E+03  0.77000000000E+02 0.  0.
<mgrwt>
<rscale>  0 0.42101499E+03</rscale>
<asrwt>0</asrwt>
<pdfrwt beam="1">  1        2 0.14630537E+00 0.42101499E+03</pdfrwt>
<pdfrwt beam="2">  1       -2 0.71688278E-02 0.42101499E+03</pdfrwt>
<totfact> 0.31761152E+03</totfact>
</mgrwt>
</event>
<event>
 4    1  0.5980424E-004  0.2094208E+03  0.7818608E-02  0.1142025E+00
         -2   -1    0    0    0  501 -0.00000000000E+00  0.00000000000E+00  0.14082760148E+02  0.14082760378E+02  0.25500000000E-02 0. -1.
          2   -1    0    0  501    0  0.00000000000E+00 -0.00000000000E+00 -0.77855952875E+03  0.77855952875E+03  0.25500000000E-02 0.  1.
    5000001    1    1    2    0    0  0.18597305243E+02  0.28053829739E+02 -0.61867937869E+03  0.62436051344E+03  0.77000000000E+02 0.  0.
   -5000001    1    1    2    0    0 -0.18597305243E+02 -0.28053829739E+02 -0.14579738991E+03  0.16828177569E+03  0.77000000000E+02 0.  0.
<mgrwt>
<rscale>  0 0.20942079E+03</rscale>
<asrwt>0</asrwt>
<pdfrwt beam="1">  1        2 0.11977836E+00 0.20942079E+03</pdfrwt>
<pdfrwt beam="2">  1       -2 0.21665791E-02 0.20942079E+03</pdfrwt>
<totfact> 0.24675141E+04</totfact>
</mgrwt>
</event>
<event>
 4    1  0.5980424E-004  0.1925966E+03  0.7818608E-02  0.1156140E+00
         -2   -1    0    0    0  501 -0.00000000000E+00  0.00000000000E+00  0.63357684630E+01  0.63357689762E+01  0.25500000000E-02 0. -1.
          2   -1    0    0  501    0  0.00000000000E+00 -0.00000000000E+00 -0.14636516214E+04  0.14636516214E+04  0.25500000000E-02 0.  1.
    5000001    1    1    2    0    0 -0.44391542834E+02 -0.36844829812E+02 -0.69793061966E+03  0.70453126291E+03  0.77000000000E+02 0.  0.
   -5000001    1    1    2    0    0  0.44391542834E+02  0.36844829812E+02 -0.75938523327E+03  0.76545612746E+03  0.77000000000E+02 0.  0.
<mgrwt>
<rscale>  0 0.19259655E+03</rscale>
<asrwt>0</asrwt>
<pdfrwt beam="1">  1        2 0.22517690E+00 0.19259655E+03</pdfrwt>
<pdfrwt beam="2">  1       -2 0.97473482E-03 0.19259655E+03</pdfrwt>
<totfact> 0.30951143E+04</totfact>
</mgrwt>
</event>
<event>
 4    1  0.5980424E-004  0.1808827E+03  0.7818608E-02  0.1166951E+00
         -2   -1    0    0    0  501 -0.00000000000E+00  0.00000000000E+00  0.93201065923E+02  0.93201065958E+02  0.25500000000E-02 0. -1.
          2   -1    0    0  501    0  0.00000000000E+00 -0.00000000000E+00 -0.87763356987E+02  0.87763357024E+02  0.25500000000E-02 0.  1.
    5000001    1    1    2    0    0  0.27266320670E+02  0.38651149787E+02  0.63639608878E+01  0.90591741461E+02  0.77000000000E+02 0.  0.
   -5000001    1    1    2    0    0 -0.27266320670E+02 -0.38651149787E+02 -0.92625195164E+00  0.90372681522E+02  0.77000000000E+02 0.  0.
<mgrwt>
<rscale>  0 0.18088271E+03</rscale>
<asrwt>0</asrwt>
<pdfrwt beam="1">  1        2 0.13502055E-01 0.18088271E+03</pdfrwt>
<pdfrwt beam="2">  1       -2 0.14338626E-01 0.18088271E+03</pdfrwt>
<totfact> 0.15593932E+04</totfact>
</mgrwt>
</event>
<event>
 4    1  0.5980424E-004  0.1945429E+03  0.7818608E-02  0.1154427E+00
         -2   -1    0    0    0  501 -0.00000000000E+00  0.00000000000E+00  0.57889771859E+01  0.57889777475E+01  0.25500000000E-02 0. -1.
          2   -1    0    0  501    0  0.00000000000E+00 -0.00000000000E+00 -0.16344398961E+04  0.16344398961E+04  0.25500000000E-02 0.  1.
    5000001    1    1    2    0    0 -0.55950481717E+01 -0.58595022297E+02 -0.88387873248E+03  0.88917675123E+03  0.77000000000E+02 0.  0.
   -5000001    1    1    2    0    0  0.55950481717E+01  0.58595022297E+02 -0.74477218646E+03  0.75105212264E+03  0.77000000000E+02 0.  0.
<mgrwt>
<rscale>  0 0.19454291E+03</rscale>
<asrwt>0</asrwt>
<pdfrwt beam="1">  1        2 0.25145192E+00 0.19454291E+03</pdfrwt>
<pdfrwt beam="2">  1       -2 0.89061322E-03 0.19454291E+03</pdfrwt>
<totfact> 0.28677009E+04</totfact>
</mgrwt>
</event>
<event>
 4    1  0.5980424E-004  0.2043305E+03  0.7818608E-02  0.1146136E+00
          2   -1    0    0  501    0  0.00000000000E+00  0.00000000000E+00  0.93774929264E+02  0.93774929298E+02  0.25500000000E-02 0.  1.
         -2   -1    0    0    0  501 -0.00000000000E+00 -0.00000000000E+00 -0.11130623378E+03  0.11130623381E+03  0.25500000000E-02 0. -1.
    5000001    1    1    2    0    0 -0.45082279700E+02 -0.42425491586E+02  0.17337588874E+02  0.10030915346E+03  0.77000000000E+02 0.  0.
   -5000001    1    1    2    0    0  0.45082279700E+02  0.42425491586E+02 -0.34868893386E+02  0.10477200965E+03  0.77000000000E+02 0.  0.
<mgrwt>
<rscale>  0 0.20433046E+03</rscale>
<asrwt>0</asrwt>
<pdfrwt beam="1">  1        2 0.14426912E-01 0.20433046E+03</pdfrwt>
<pdfrwt beam="2">  1       -2 0.17124036E-01 0.20433046E+03</pdfrwt>
<totfact> 0.10845596E+04</totfact>
</mgrwt>
</event>
<event>
 4    1  0.5980424E-004  0.2285068E+03  0.7818608E-02  0.1127695E+00
          2   -1    0    0  501    0  0.00000000000E+00  0.00000000000E+00  0.19288671581E+04  0.19288671581E+04  0.25500000000E-02 0.  1.
         -2   -1    0    0    0  501 -0.00000000000E+00 -0.00000000000E+00 -0.67676215251E+01  0.67676220055E+01  0.25500000000E-02 0. -1.
    5000001    1    1    2    0    0 -0.35215066094E+02 -0.74923298354E+02  0.82154065757E+03  0.82928381966E+03  0.77000000000E+02 0.  0.
   -5000001    1    1    2    0    0  0.35215066094E+02  0.74923298354E+02  0.11005588790E+04  0.11063509604E+04  0.77000000000E+02 0.  0.
<mgrwt>
<rscale>  0 0.22850683E+03</rscale>
<asrwt>0</asrwt>
<pdfrwt beam="1">  1        2 0.29674867E+00 0.22850683E+03</pdfrwt>
<pdfrwt beam="2">  1       -2 0.10411730E-02 0.22850683E+03</pdfrwt>
<totfact> 0.16189371E+04</totfact>
</mgrwt>
</event>
<event>
 4    1  0.5980424E-004  0.2121451E+03  0.7818608E-02  0.1139878E+00
          2   -1    0    0  501    0  0.00000000000E+00  0.00000000000E+00  0.51496842716E+03  0.51496842716E+03  0.25500000000E-02 0.  1.
         -2   -1    0    0    0  501 -0.00000000000E+00 -0.00000000000E+00 -0.21848694761E+02  0.21848694910E+02  0.25500000000E-02 0. -1.
    5000001    1    1    2    0    0  0.61899598287E+02  0.35214139879E+02  0.28663271716E+03  0.30521944641E+03  0.77000000000E+02 0.  0.
   -5000001    1    1    2    0    0 -0.61899598287E+02 -0.35214139879E+02  0.20648701523E+03  0.23159767567E+03  0.77000000000E+02 0.  0.
<mgrwt>
<rscale>  0 0.21214512E+03</rscale>
<asrwt>0</asrwt>
<pdfrwt beam="1">  1        2 0.79225909E-01 0.21214512E+03</pdfrwt>
<pdfrwt beam="2">  1       -2 0.33613378E-02 0.21214512E+03</pdfrwt>
<totfact> 0.20976034E+04</totfact>
</mgrwt>
</event>
<event>
 4    1  0.5980424E-004  0.3885421E+03  0.7818608E-02  0.1047821E+00
          2   -1    0    0  501    0  0.00000000000E+00  0.00000000000E+00  0.56746030792E+03  0.56746030793E+03  0.25500000000E-02 0.  1.
         -2   -1    0    0    0  501 -0.00000000000E+00 -0.00000000000E+00 -0.66509053983E+02  0.66509054032E+02  0.25500000000E-02 0. -1.
    5000001    1    1    2    0    0  0.81974408741E+02  0.10013759529E+03  0.45074445944E+03  0.47523353143E+03  0.77000000000E+02 0.  0.
   -5000001    1    1    2    0    0 -0.81974408741E+02 -0.10013759529E+03  0.50206794497E+02  0.15873583053E+03  0.77000000000E+02 0.  0.
<mgrwt>
<rscale>  0 0.38854214E+03</rscale>
<asrwt>0</asrwt>
<pdfrwt beam="1">  1        2 0.87301587E-01 0.38854214E+03</pdfrwt>
<pdfrwt beam="2">  1       -2 0.10232162E-01 0.38854214E+03</pdfrwt>
<totfact> 0.34634314E+03</totfact>
</mgrwt>
</event>
<event>
 4    1  0.5980424E-004  0.2494061E+03  0.7818608E-02  0.1113681E+00
         -2   -1    0    0    0  501 -0.00000000000E+00  0.00000000000E+00  0.21577697121E+02  0.21577697271E+02  0.25500000000E-02 0. -1.
          2   -1    0    0  501    0  0.00000000000E+00 -0.00000000000E+00 -0.72069112314E+03  0.72069112314E+03  0.25500000000E-02 0.  1.
    5000001    1    1    2    0    0 -0.79167302964E+02 -0.17984684837E+02 -0.18570799378E+03  0.21681183017E+03  0.77000000000E+02 0.  0.
   -5000001    1    1    2    0    0  0.79167302964E+02  0.17984684837E+02 -0.51340543223E+03  0.52545699024E+03  0.77000000000E+02 0.  0.
<mgrwt>
<rscale>  0 0.24940613E+03</rscale>
<asrwt>0</asrwt>
<pdfrwt beam="1">  1        2 0.11087554E+00 0.24940613E+03</pdfrwt>
<pdfrwt beam="2">  1       -2 0.33196463E-02 0.24940613E+03</pdfrwt>
<totfact> 0.14585979E+04</totfact>
</mgrwt>
</event>
<event>
 4    1  0.5980424E-004  0.2587932E+03  0.7818608E-02  0.1107870E+00
          2   -1    0    0  501    0  0.00000000000E+00  0.00000000000E+00  0.20567631080E+03  0.20567631081E+03  0.25500000000E-02 0.  1.
         -2   -1    0    0    0  501 -0.00000000000E+00 -0.00000000000E+00 -0.81406973636E+02  0.81406973676E+02  0.25500000000E-02 0. -1.
    5000001    1    1    2    0    0 -0.18946133348E+02  0.96791613874E+01  0.17505535023E+03  0.19242145872E+03  0.77000000000E+02 0.  0.
   -5000001    1    1    2    0    0  0.18946133348E+02 -0.96791613874E+01 -0.50786013066E+02  0.94661825765E+02  0.77000000000E+02 0.  0.
<mgrwt>
<rscale>  0 0.25879325E+03</rscale>
<asrwt>0</asrwt>
<pdfrwt beam="1">  1        2 0.31642509E-01 0.25879325E+03</pdfrwt>
<pdfrwt beam="2">  1       -2 0.12524150E-01 0.25879325E+03</pdfrwt>
<totfact> 0.75325802E+03</totfact>
</mgrwt>
</event>
<event>
 4    1  0.5980424E-004  0.4636541E+03  0.7818608E-02  0.1023727E+00
          2   -1    0    0  501    0  0.00000000000E+00  0.00000000000E+00  0.17580414999E+04  0.17580414999E+04  0.25500000000E-02 0.  1.
         -2   -1    0    0    0  501 -0.00000000000E+00 -0.00000000000E+00 -0.30570255350E+02  0.30570255456E+02  0.25500000000E-02 0. -1.
    5000001    1    1    2    0    0  0.21603474757E+03  0.33683914873E+02  0.85206066969E+03  0.88303001258E+03  0.77000000000E+02 0.  0.
   -5000001    1    1    2    0    0 -0.21603474757E+03 -0.33683914873E+02  0.87541057487E+03  0.90558174279E+03  0.77000000000E+02 0.  0.
<mgrwt>
<rscale>  0 0.46365409E+03</rscale>
<asrwt>0</asrwt>
<pdfrwt beam="1">  1        2 0.27046799E+00 0.46365409E+03</pdfrwt>
<pdfrwt beam="2">  1       -2 0.47031151E-02 0.46365409E+03</pdfrwt>
<totfact> 0.21243835E+03</totfact>
</mgrwt>
</event>
<event>
 4    1  0.5980424E-004  0.1733379E+03  0.7818608E-02  0.1174411E+00
         -2   -1    0    0    0  501 -0.00000000000E+00  0.00000000000E+00  0.39157919899E+03  0.39157919900E+03  0.25500000000E-02 0. -1.
          2   -1    0    0  501    0  0.00000000000E+00 -0.00000000000E+00 -0.19182588636E+02  0.19182588805E+02  0.25500000000E-02 0.  1.
    5000001    1    1    2    0    0  0.25144718350E+02 -0.30825134296E+02  0.18676388829E+03  0.20589365151E+03  0.77000000000E+02 0.  0.
   -5000001    1    1    2    0    0 -0.25144718350E+02  0.30825134296E+02  0.18563272207E+03  0.20486813629E+03  0.77000000000E+02 0.  0.
<mgrwt>
<rscale>  0 0.17333785E+03</rscale>
<asrwt>0</asrwt>
<pdfrwt beam="1">  1        2 0.29511678E-02 0.17333785E+03</pdfrwt>
<pdfrwt beam="2">  1       -2 0.60242948E-01 0.17333785E+03</pdfrwt>
<totfact> 0.80739952E+03</totfact>
</mgrwt>
</event>
<event>
 4    1  0.5980424E-004  0.2071465E+03  0.7818608E-02  0.1143846E+00
         -2   -1    0    0    0  501 -0.00000000000E+00  0.00000000000E+00  0.14565241406E+02  0.14565241629E+02  0.25500000000E-02 0. -1.
          2   -1    0    0  501    0  0.00000000000E+00 -0.00000000000E+00 -0.73650833432E+03  0.73650833433E+03  0.25500000000E-02 0.  1.
    5000001    1    1    2    0    0 -0.26351660930E+02  0.54073424592E+02 -0.23641691283E+03  0.25581302147E+03  0.77000000000E+02 0.  0.
   -5000001    1    1    2    0    0  0.26351660930E+02 -0.54073424592E+02 -0.48552618009E+03  0.49526055449E+03  0.77000000000E+02 0.  0.
<mgrwt>
<rscale>  0 0.20714654E+03</rscale>
<asrwt>0</asrwt>
<pdfrwt beam="1">  1        2 0.11330895E+00 0.20714654E+03</pdfrwt>
<pdfrwt beam="2">  1       -2 0.22408070E-02 0.20714654E+03</pdfrwt>
<totfact> 0.25136101E+04</totfact>
</mgrwt>
</event>
<event>
 4    1  0.5980424E-004  0.1963406E+03  0.7818608E-02  0.1152864E+00
          2   -1    0    0  501    0  0.00000000000E+00  0.00000000000E+00  0.17321022282E+03  0.17321022284E+03  0.25500000000E-02 0.  1.
         -2   -1    0    0    0  501 -0.00000000000E+00 -0.00000000000E+00 -0.55639934814E+02  0.55639934872E+02  0.25500000000E-02 0. -1.
    5000001    1    1    2    0    0  0.55379225305E+02  0.10728395722E+02  0.32041592679E+02  0.10068575238E+03  0.77000000000E+02 0.  0.
   -5000001    1    1    2    0    0 -0.55379225305E+02 -0.10728395722E+02  0.85528695326E+02  0.12816440533E+03  0.77000000000E+02 0.  0.
<mgrwt>
<rscale>  0 0.19634058E+03</rscale>
<asrwt>0</asrwt>
<pdfrwt beam="1">  1        2 0.26647726E-01 0.19634058E+03</pdfrwt>
<pdfrwt beam="2">  1       -2 0.85599902E-02 0.19634058E+03</pdfrwt>
<totfact> 0.16394080E+04</totfact>
</mgrwt>
</event>
<event>
 4    1  0.5980424E-004  0.3842759E+03  0.7818608E-02  0.1049365E+00
          2   -1    0    0  501    0  0.00000000000E+00  0.00000000000E+00  0.12776576987E+02  0.12776577241E+02  0.25500000000E-02 0.  1.
         -2   -1    0    0    0  501 -0.00000000000E+00 -0.00000000000E+00 -0.28894267690E+04  0.28894267690E+04  0.25500000000E-02 0. -1.
    5000001    1    1    2    0    0  0.50356247728E+02  0.16861943680E+03 -0.14718612881E+04  0.14843425877E+04  0.77000000000E+02 0.  0.
   -5000001    1    1    2    0    0 -0.50356247728E+02 -0.16861943680E+03 -0.14047889039E+04  0.14178607586E+04  0.77000000000E+02 0.  0.
<mgrwt>
<rscale>  0 0.38427586E+03</rscale>
<asrwt>0</asrwt>
<pdfrwt beam="1">  1        2 0.19656296E-02 0.38427586E+03</pdfrwt>
<pdfrwt beam="2">  1       -2 0.44452667E+00 0.38427586E+03</pdfrwt>
<totfact> 0.25526588E+01</totfact>
</mgrwt>
</event>
<event>
 4    1  0.5980424E-004  0.3824453E+03  0.7818608E-02  0.1050034E+00
          2   -1    0    0  501    0  0.00000000000E+00  0.00000000000E+00  0.17357284182E+03  0.17357284184E+03  0.25500000000E-02 0.  1.
         -2   -1    0    0    0  501 -0.00000000000E+00 -0.00000000000E+00 -0.21066723839E+03  0.21066723841E+03  0.25500000000E-02 0. -1.
    5000001    1    1    2    0    0  0.13484743190E+03  0.10257822127E+03  0.25602046581E+02  0.18785788820E+03  0.77000000000E+02 0.  0.
   -5000001    1    1    2    0    0 -0.13484743190E+03 -0.10257822127E+03 -0.62696443155E+02  0.19638219205E+03  0.77000000000E+02 0.  0.
<mgrwt>
<rscale>  0 0.38244535E+03</rscale>
<asrwt>0</asrwt>
<pdfrwt beam="1">  1        2 0.26703514E-01 0.38244535E+03</pdfrwt>
<pdfrwt beam="2">  1       -2 0.32410345E-01 0.38244535E+03</pdfrwt>
<totfact> 0.17823888E+03</totfact>
</mgrwt>
</event>
<event>
 4    1  0.5980424E-004  0.3533069E+03  0.7818608E-02  0.1061266E+00
          2   -1    0    0  501    0  0.00000000000E+00  0.00000000000E+00  0.17191496583E+04  0.17191496583E+04  0.25500000000E-02 0.  1.
         -2   -1    0    0    0  501 -0.00000000000E+00 -0.00000000000E+00 -0.18152257394E+02  0.18152257574E+02  0.25500000000E-02 0. -1.
    5000001    1    1    2    0    0 -0.13312856939E+03 -0.67066150882E+02  0.57865105101E+03  0.60248412711E+03  0.77000000000E+02 0.  0.
   -5000001    1    1    2    0    0  0.13312856939E+03  0.67066150882E+02  0.11223463498E+04  0.11348177887E+04  0.77000000000E+02 0.  0.
<mgrwt>
<rscale>  0 0.35330693E+03</rscale>
<asrwt>0</asrwt>
<pdfrwt beam="1">  1        2 0.26448456E+00 0.35330693E+03</pdfrwt>
<pdfrwt beam="2">  1       -2 0.27926550E-02 0.35330693E+03</pdfrwt>
<totfact> 0.49241977E+03</totfact>
</mgrwt>
</event>
<event>
 4    1  0.5980424E-004  0.1882972E+03  0.7818608E-02  0.1160006E+00
          2   -1    0    0  501    0  0.00000000000E+00  0.00000000000E+00  0.14496626269E+04  0.14496626269E+04  0.25500000000E-02 0.  1.
         -2   -1    0    0    0  501 -0.00000000000E+00 -0.00000000000E+00 -0.61144969953E+01  0.61144975270E+01  0.25500000000E-02 0. -1.
    5000001    1    1    2    0    0  0.42995763365E+02  0.32017336830E+02  0.78226239584E+03  0.78786877173E+03  0.77000000000E+02 0.  0.
   -5000001    1    1    2    0    0 -0.42995763365E+02 -0.32017336830E+02  0.66128573405E+03  0.66790835268E+03  0.77000000000E+02 0.  0.
<mgrwt>
<rscale>  0 0.18829719E+03</rscale>
<asrwt>0</asrwt>
<pdfrwt beam="1">  1        2 0.22302516E+00 0.18829719E+03</pdfrwt>
<pdfrwt beam="2">  1       -2 0.94069129E-03 0.18829719E+03</pdfrwt>
<totfact> 0.33093268E+04</totfact>
</mgrwt>
</event>
<event>
 4    1  0.5980424E-004  0.4282165E+03  0.7818608E-02  0.1034425E+00
          2   -1    0    0  501    0  0.00000000000E+00  0.00000000000E+00  0.86086127982E+02  0.86086128019E+02  0.25500000000E-02 0.  1.
         -2   -1    0    0    0  501 -0.00000000000E+00 -0.00000000000E+00 -0.53251718494E+03  0.53251718494E+03  0.25500000000E-02 0. -1.
    5000001    1    1    2    0    0  0.17184496280E+03 -0.55292508394E+02 -0.34685701427E+03  0.39853072789E+03  0.77000000000E+02 0.  0.
   -5000001    1    1    2    0    0 -0.17184496280E+03  0.55292508394E+02 -0.99574042684E+02  0.22007258507E+03  0.77000000000E+02 0.  0.
<mgrwt>
<rscale>  0 0.42821650E+03</rscale>
<asrwt>0</asrwt>
<pdfrwt beam="1">  1        2 0.13244020E-01 0.42821650E+03</pdfrwt>
<pdfrwt beam="2">  1       -2 0.81925719E-01 0.42821650E+03</pdfrwt>
<totfact> 0.61569966E+02</totfact>
</mgrwt>
</event>
<event>
 4    1  0.5980424E-004  0.2322335E+03  0.7818608E-02  0.1125078E+00
         -2   -1    0    0    0  501 -0.00000000000E+00  0.00000000000E+00  0.38692629336E+01  0.38692637739E+01  0.25500000000E-02 0. -1.
          2   -1    0    0  501    0  0.00000000000E+00 -0.00000000000E+00 -0.34846686527E+04  0.34846686527E+04  0.25500000000E-02 0.  1.
    5000001    1    1    2    0    0  0.45354384825E+02  0.57723479048E+02 -0.24393649425E+04  0.24416837107E+04  0.77000000000E+02 0.  0.
   -5000001    1    1    2    0    0 -0.45354384825E+02 -0.57723479048E+02 -0.10414344472E+04  0.10468542058E+04  0.77000000000E+02 0.  0.
<mgrwt>
<rscale>  0 0.23223351E+03</rscale>
<asrwt>0</asrwt>
<pdfrwt beam="1">  1        2 0.53610036E+00 0.23223351E+03</pdfrwt>
<pdfrwt beam="2">  1       -2 0.59527407E-03 0.23223351E+03</pdfrwt>
<totfact> 0.47089050E+03</totfact>
</mgrwt>
</event>
<event>
 4    1  0.5980424E-004  0.2099707E+03  0.7818608E-02  0.1141589E+00
          2   -1    0    0  501    0  0.00000000000E+00  0.00000000000E+00  0.48808877422E+02  0.48808877489E+02  0.25500000000E-02 0.  1.
         -2   -1    0    0    0  501 -0.00000000000E+00 -0.00000000000E+00 -0.22581810450E+03  0.22581810451E+03  0.25500000000E-02 0. -1.
    5000001    1    1    2    0    0 -0.67073146067E+02  0.13259608557E+02 -0.11525502430E+03  0.15455531298E+03  0.77000000000E+02 0.  0.
   -5000001    1    1    2    0    0  0.67073146067E+02 -0.13259608557E+02 -0.61754202775E+02  0.12007166903E+03  0.77000000000E+02 0.  0.
<mgrwt>
<rscale>  0 0.20997074E+03</rscale>
<asrwt>0</asrwt>
<pdfrwt beam="1">  1        2 0.75090582E-02 0.20997074E+03</pdfrwt>
<pdfrwt beam="2">  1       -2 0.34741246E-01 0.20997074E+03</pdfrwt>
<totfact> 0.70104235E+03</totfact>
</mgrwt>
</event>
<event>
 4    1  0.5980424E-004  0.4967663E+03  0.7818608E-02  0.1014626E+00
          2   -1    0    0  501    0  0.00000000000E+00  0.00000000000E+00  0.66576656704E+03  0.66576656705E+03  0.25500000000E-02 0.  1.
         -2   -1    0    0    0  501 -0.00000000000E+00 -0.00000000000E+00 -0.92666381347E+02  0.92666381382E+02  0.25500000000E-02 0. -1.
    5000001    1    1    2    0    0 -0.39153457581E+01 -0.23079699968E+03  0.36262088164E+03  0.43669839568E+03  0.77000000000E+02 0.  0.
   -5000001    1    1    2    0    0  0.39153457581E+01  0.23079699968E+03  0.21047930406E+03  0.32173455274E+03  0.77000000000E+02 0.  0.
<mgrwt>
<rscale>  0 0.49676626E+03</rscale>
<asrwt>0</asrwt>
<pdfrwt beam="1">  1        2 0.10242562E+00 0.49676626E+03</pdfrwt>
<pdfrwt beam="2">  1       -2 0.14256367E-01 0.49676626E+03</pdfrwt>
<totfact> 0.16665593E+03</totfact>
</mgrwt>
</event>
<event>
 4    1  0.5980424E-004  0.1785551E+03  0.7818608E-02  0.1169209E+00
         -2   -1    0    0    0  501 -0.00000000000E+00  0.00000000000E+00  0.10834807212E+02  0.10834807513E+02  0.25500000000E-02 0. -1.
          2   -1    0    0  501    0  0.00000000000E+00 -0.00000000000E+00 -0.73563661608E+03  0.73563661609E+03  0.25500000000E-02 0.  1.
    5000001    1    1    2    0    0 -0.33610705298E+02 -0.28492169333E+02 -0.40420666751E+03  0.41382787881E+03  0.77000000000E+02 0.  0.
   -5000001    1    1    2    0    0  0.33610705298E+02  0.28492169333E+02 -0.32059514136E+03  0.33264354479E+03  0.77000000000E+02 0.  0.
<mgrwt>
<rscale>  0 0.17855510E+03</rscale>
<asrwt>0</asrwt>
<pdfrwt beam="1">  1        2 0.11317482E+00 0.17855510E+03</pdfrwt>
<pdfrwt beam="2">  1       -2 0.16668940E-02 0.17855510E+03</pdfrwt>
<totfact> 0.38344128E+04</totfact>
</mgrwt>
</event>
<event>
 4    1  0.5980424E-004  0.5001094E+03  0.7818608E-02  0.1013750E+00
         -2   -1    0    0    0  501 -0.00000000000E+00  0.00000000000E+00  0.22080334713E+02  0.22080334860E+02  0.25500000000E-02 0. -1.
          2   -1    0    0  501    0  0.00000000000E+00 -0.00000000000E+00 -0.28318115486E+04  0.28318115486E+04  0.25500000000E-02 0.  1.
    5000001    1    1    2    0    0  0.12432454138E+02 -0.23248445590E+03 -0.16841221883E+04  0.17018813511E+04  0.77000000000E+02 0.  0.
   -5000001    1    1    2    0    0 -0.12432454138E+02  0.23248445590E+03 -0.11256090256E+04  0.11520105324E+04  0.77000000000E+02 0.  0.
<mgrwt>
<rscale>  0 0.50010938E+03</rscale>
<asrwt>0</asrwt>
<pdfrwt beam="1">  1        2 0.43566303E+00 0.50010938E+03</pdfrwt>
<pdfrwt beam="2">  1       -2 0.33969768E-02 0.50010938E+03</pdfrwt>
<totfact> 0.88985579E+02</totfact>
</mgrwt>
</event>
<event>
 4    1  0.5980424E-004  0.3602010E+03  0.7818608E-02  0.1058504E+00
          2   -1    0    0  501    0  0.00000000000E+00  0.00000000000E+00  0.50830413232E+03  0.50830413233E+03  0.25500000000E-02 0.  1.
         -2   -1    0    0    0  501 -0.00000000000E+00 -0.00000000000E+00 -0.63812554989E+02  0.63812555040E+02  0.25500000000E-02 0. -1.
    5000001    1    1    2    0    0  0.89686785615E+02  0.13385490765E+03  0.18512073448E+03  0.25721497264E+03  0.77000000000E+02 0.  0.
   -5000001    1    1    2    0    0 -0.89686785615E+02 -0.13385490765E+03  0.25937084286E+03  0.31490171473E+03  0.77000000000E+02 0.  0.
<mgrwt>
<rscale>  0 0.36020097E+03</rscale>
<asrwt>0</asrwt>
<pdfrwt beam="1">  1        2 0.78200632E-01 0.36020097E+03</pdfrwt>
<pdfrwt beam="2">  1       -2 0.98173166E-02 0.36020097E+03</pdfrwt>
<totfact> 0.41940872E+03</totfact>
</mgrwt>
</event>
<event>
 4    1  0.5980424E-004  0.2000332E+03  0.7818608E-02  0.1149711E+00
          2   -1    0    0  501    0  0.00000000000E+00  0.00000000000E+00  0.15066235196E+04  0.15066235196E+04  0.25500000000E-02 0.  1.
         -2   -1    0    0    0  501 -0.00000000000E+00 -0.00000000000E+00 -0.66395601106E+01  0.66395606003E+01  0.25500000000E-02 0. -1.
    5000001    1    1    2    0    0 -0.20107079912E+02  0.40694654108E+02  0.10894911511E+04  0.10931515530E+04  0.77000000000E+02 0.  0.
   -5000001    1    1    2    0    0  0.20107079912E+02 -0.40694654108E+02  0.41049280838E+03  0.42011152718E+03  0.77000000000E+02 0.  0.
<mgrwt>
<rscale>  0 0.20003318E+03</rscale>
<asrwt>0</asrwt>
<pdfrwt beam="1">  1        2 0.23178845E+00 0.20003318E+03</pdfrwt>
<pdfrwt beam="2">  1       -2 0.10214699E-02 0.20003318E+03</pdfrwt>
<totfact> 0.27511881E+04</totfact>
</mgrwt>
</event>
<event>
 4    1  0.5980424E-004  0.2227183E+03  0.7818608E-02  0.1131873E+00
         -2   -1    0    0    0  501 -0.00000000000E+00  0.00000000000E+00  0.12117759691E+02  0.12117759959E+02  0.25500000000E-02 0. -1.
          2   -1    0    0  501    0  0.00000000000E+00 -0.00000000000E+00 -0.10233626204E+04  0.10233626204E+04  0.25500000000E-02 0.  1.
    5000001    1    1    2    0    0 -0.63372895558E+02  0.47973469904E+02 -0.44787303680E+03  0.46134242683E+03  0.77000000000E+02 0.  0.
   -5000001    1    1    2    0    0  0.63372895558E+02 -0.47973469904E+02 -0.56337182393E+03  0.57413795355E+03  0.77000000000E+02 0.  0.
<mgrwt>
<rscale>  0 0.22271832E+03</rscale>
<asrwt>0</asrwt>
<pdfrwt beam="1">  1        2 0.15744033E+00 0.22271832E+03</pdfrwt>
<pdfrwt beam="2">  1       -2 0.18642716E-02 0.22271832E+03</pdfrwt>
<totfact> 0.21472438E+04</totfact>
</mgrwt>
</event>
<event>
 4    1  0.5980424E-004  0.2288859E+03  0.7818608E-02  0.1127426E+00
          2   -1    0    0  501    0  0.00000000000E+00  0.00000000000E+00  0.91264655949E+03  0.91264655949E+03  0.25500000000E-02 0.  1.
         -2   -1    0    0    0  501 -0.00000000000E+00 -0.00000000000E+00 -0.14350773564E+02  0.14350773791E+02  0.25500000000E-02 0. -1.
    5000001    1    1    2    0    0  0.31443621466E+02  0.57476962782E+02  0.23195529239E+03  0.25303074961E+03  0.77000000000E+02 0.  0.
   -5000001    1    1    2    0    0 -0.31443621466E+02 -0.57476962782E+02  0.66634049353E+03  0.67396658367E+03  0.77000000000E+02 0.  0.
<mgrwt>
<rscale>  0 0.22888586E+03</rscale>
<asrwt>0</asrwt>
<pdfrwt beam="1">  1        2 0.14040720E+00 0.22888586E+03</pdfrwt>
<pdfrwt beam="2">  1       -2 0.22078107E-02 0.22888586E+03</pdfrwt>
<totfact> 0.19648309E+04</totfact>
</mgrwt>
</event>
<event>
 4    1  0.5980424E-004  0.1933569E+03  0.7818608E-02  0.1155468E+00
          2   -1    0    0  501    0  0.00000000000E+00  0.00000000000E+00  0.34889081246E+03  0.34889081247E+03  0.25500000000E-02 0.  1.
         -2   -1    0    0    0  501 -0.00000000000E+00 -0.00000000000E+00 -0.26789823434E+02  0.26789823555E+02  0.25500000000E-02 0. -1.
    5000001    1    1    2    0    0  0.63908167562E+01 -0.14364109133E+02  0.51648147542E+02  0.94040955517E+02  0.77000000000E+02 0.  0.
   -5000001    1    1    2    0    0 -0.63908167562E+01  0.14364109133E+02  0.27045284149E+03  0.28163968051E+03  0.77000000000E+02 0.  0.
<mgrwt>
<rscale>  0 0.19335691E+03</rscale>
<asrwt>0</asrwt>
<pdfrwt beam="1">  1        2 0.53675515E-01 0.19335691E+03</pdfrwt>
<pdfrwt beam="2">  1       -2 0.41215109E-02 0.19335691E+03</pdfrwt>
<totfact> 0.23484963E+04</totfact>
</mgrwt>
</event>
<event>
 4    1  0.5980424E-004  0.3250821E+03  0.7818608E-02  0.1073334E+00
          2   -1    0    0  501    0  0.00000000000E+00  0.00000000000E+00  0.18112572437E+04  0.18112572437E+04  0.25500000000E-02 0.  1.
         -2   -1    0    0    0  501 -0.00000000000E+00 -0.00000000000E+00 -0.14586326147E+02  0.14586326369E+02  0.25500000000E-02 0. -1.
    5000001    1    1    2    0    0  0.48671582281E+02  0.94466636902E+02  0.14369904022E+04  0.14429702992E+04  0.77000000000E+02 0.  0.
   -5000001    1    1    2    0    0 -0.48671582281E+02 -0.94466636902E+02  0.35968051536E+03  0.38287327086E+03  0.77000000000E+02 0.  0.
<mgrwt>
<rscale>  0 0.32508208E+03</rscale>
<asrwt>0</asrwt>
<pdfrwt beam="1">  1        2 0.27865489E+00 0.32508208E+03</pdfrwt>
<pdfrwt beam="2">  1       -2 0.22440508E-02 0.32508208E+03</pdfrwt>
<totfact> 0.60951680E+03</totfact>
</mgrwt>
</event>
<event>
 4    1  0.5980424E-004  0.2750097E+03  0.7818608E-02  0.1098446E+00
          2   -1    0    0  501    0  0.00000000000E+00  0.00000000000E+00  0.22877928826E+04  0.22877928826E+04  0.25500000000E-02 0.  1.
         -2   -1    0    0    0  501 -0.00000000000E+00 -0.00000000000E+00 -0.82645496051E+01  0.82645499985E+01  0.25500000000E-02 0. -1.
    5000001    1    1    2    0    0 -0.95756912727E+02 -0.97559402815E+00  0.16549892039E+04  0.16595446975E+04  0.77000000000E+02 0.  0.
   -5000001    1    1    2    0    0  0.95756912727E+02  0.97559402815E+00  0.62453912910E+03  0.63651273506E+03  0.77000000000E+02 0.  0.
<mgrwt>
<rscale>  0 0.27500966E+03</rscale>
<asrwt>0</asrwt>
<pdfrwt beam="1">  1        2 0.35196861E+00 0.27500966E+03</pdfrwt>
<pdfrwt beam="2">  1       -2 0.12714675E-02 0.27500966E+03</pdfrwt>
<totfact> 0.78529436E+03</totfact>
</mgrwt>
</event>
<event>
 4    1  0.5980424E-004  0.4257209E+03  0.7818608E-02  0.1035220E+00
          2   -1    0    0  501    0  0.00000000000E+00  0.00000000000E+00  0.36738661687E+03  0.36738661688E+03  0.25500000000E-02 0.  1.
         -2   -1    0    0    0  501 -0.00000000000E+00 -0.00000000000E+00 -0.12332937252E+03  0.12332937255E+03  0.25500000000E-02 0. -1.
    5000001    1    1    2    0    0  0.16927591405E+03  0.94918460335E+02  0.74269759436E+02  0.22160515869E+03  0.77000000000E+02 0.  0.
   -5000001    1    1    2    0    0 -0.16927591405E+03 -0.94918460335E+02  0.16978748492E+03  0.26911083075E+03  0.77000000000E+02 0.  0.
<mgrwt>
<rscale>  0 0.42572085E+03</rscale>
<asrwt>0</asrwt>
<pdfrwt beam="1">  1        2 0.56521016E-01 0.42572085E+03</pdfrwt>
<pdfrwt beam="2">  1       -2 0.18973750E-01 0.42572085E+03</pdfrwt>
<totfact> 0.20305181E+03</totfact>
</mgrwt>
</event>
<event>
 4    1  0.5980424E-004  0.2279044E+03  0.7818608E-02  0.1128123E+00
         -2   -1    0    0    0  501 -0.00000000000E+00  0.00000000000E+00  0.21354654232E+03  0.21354654234E+03  0.25500000000E-02 0. -1.
          2   -1    0    0  501    0  0.00000000000E+00 -0.00000000000E+00 -0.60806901588E+02  0.60806901641E+02  0.25500000000E-02 0.  1.
    5000001    1    1    2    0    0  0.83323249619E+02  0.62613339966E+01  0.86734846903E+02  0.14294719969E+03  0.77000000000E+02 0.  0.
   -5000001    1    1    2    0    0 -0.83323249619E+02 -0.62613339966E+01  0.66004793830E+02  0.13140624429E+03  0.77000000000E+02 0.  0.
<mgrwt>
<rscale>  0 0.22790440E+03</rscale>
<asrwt>0</asrwt>
<pdfrwt beam="1">  1        2 0.93549079E-02 0.22790440E+03</pdfrwt>
<pdfrwt beam="2">  1       -2 0.32853314E-01 0.22790440E+03</pdfrwt>
<totfact> 0.59183908E+03</totfact>
</mgrwt>
</event>
<event>
 4    1  0.5980424E-004  0.3103626E+03  0.7818608E-02  0.1080172E+00
         -2   -1    0    0    0  501 -0.00000000000E+00  0.00000000000E+00  0.40350755575E+02  0.40350755656E+02  0.25500000000E-02 0. -1.
          2   -1    0    0  501    0  0.00000000000E+00 -0.00000000000E+00 -0.59679776731E+03  0.59679776731E+03  0.25500000000E-02 0.  1.
    5000001    1    1    2    0    0  0.60194436522E+02  0.10572902430E+03 -0.15939805262E+03  0.21479929224E+03  0.77000000000E+02 0.  0.
   -5000001    1    1    2    0    0 -0.60194436522E+02 -0.10572902430E+03 -0.39704895911E+03  0.42234923073E+03  0.77000000000E+02 0.  0.
<mgrwt>
<rscale>  0 0.31036263E+03</rscale>
<asrwt>0</asrwt>
<pdfrwt beam="1">  1        2 0.91815035E-01 0.31036263E+03</pdfrwt>
<pdfrwt beam="2">  1       -2 0.62078090E-02 0.31036263E+03</pdfrwt>
<totfact> 0.71334965E+03</totfact>
</mgrwt>
</event>
<event>
 4    1  0.5980424E-004  0.3252162E+03  0.7818608E-02  0.1073273E+00
         -2   -1    0    0    0  501 -0.00000000000E+00  0.00000000000E+00  0.13717901437E+02  0.13717901674E+02  0.25500000000E-02 0. -1.
          2   -1    0    0  501    0  0.00000000000E+00 -0.00000000000E+00 -0.19275095903E+04  0.19275095903E+04  0.25500000000E-02 0.  1.
    5000001    1    1    2    0    0 -0.14021623148E+03  0.25184717424E+02 -0.10449316130E+04  0.10574052853E+04  0.77000000000E+02 0.  0.
   -5000001    1    1    2    0    0  0.14021623148E+03 -0.25184717424E+02 -0.86886007588E+03  0.88382220668E+03  0.77000000000E+02 0.  0.
<mgrwt>
<rscale>  0 0.32521615E+03</rscale>
<asrwt>0</asrwt>
<pdfrwt beam="1">  1        2 0.29653972E+00 0.32521615E+03</pdfrwt>
<pdfrwt beam="2">  1       -2 0.21104479E-02 0.32521615E+03</pdfrwt>
<totfact> 0.57952157E+03</totfact>
</mgrwt>
</event>
<event>
 4    1  0.5980424E-004  0.3561295E+03  0.7818608E-02  0.1060127E+00
         -2   -1    0    0    0  501 -0.00000000000E+00  0.00000000000E+00  0.30043366634E+02  0.30043366742E+02  0.25500000000E-02 0. -1.
          2   -1    0    0  501    0  0.00000000000E+00 -0.00000000000E+00 -0.10553762312E+04  0.10553762312E+04  0.25500000000E-02 0.  1.
    5000001    1    1    2    0    0 -0.73879219695E+01 -0.91086499582E+02 -0.11032238774E+03  0.16263874395E+03  0.77000000000E+02 0.  0.
   -5000001    1    1    2    0    0  0.73879219695E+01  0.91086499582E+02 -0.91501047682E+03  0.92278085399E+03  0.77000000000E+02 0.  0.
<mgrwt>
<rscale>  0 0.35612950E+03</rscale>
<asrwt>0</asrwt>
<pdfrwt beam="1">  1        2 0.16236555E+00 0.35612950E+03</pdfrwt>
<pdfrwt beam="2">  1       -2 0.46220572E-02 0.35612950E+03</pdfrwt>
<totfact> 0.53841963E+03</totfact>
</mgrwt>
</event>
<event>
 4    1  0.5980424E-004  0.2157708E+03  0.7818608E-02  0.1137076E+00
         -2   -1    0    0    0  501 -0.00000000000E+00  0.00000000000E+00  0.12635052197E+02  0.12635052454E+02  0.25500000000E-02 0. -1.
          2   -1    0    0  501    0  0.00000000000E+00 -0.00000000000E+00 -0.92118810345E+03  0.92118810346E+03  0.25500000000E-02 0.  1.
    5000001    1    1    2    0    0  0.55574647711E+02  0.50726255529E+02 -0.42411623291E+03  0.43756745021E+03  0.77000000000E+02 0.  0.
   -5000001    1    1    2    0    0 -0.55574647711E+02 -0.50726255529E+02 -0.48443681835E+03  0.49625570570E+03  0.77000000000E+02 0.  0.
<mgrwt>
<rscale>  0 0.21577080E+03</rscale>
<asrwt>0</asrwt>
<pdfrwt beam="1">  1        2 0.14172119E+00 0.21577080E+03</pdfrwt>
<pdfrwt beam="2">  1       -2 0.19438549E-02 0.21577080E+03</pdfrwt>
<totfact> 0.23310905E+04</totfact>
</mgrwt>
</event>
<event>
 4    1  0.5980424E-004  0.2907792E+03  0.7818608E-02  0.1089943E+00
          2   -1    0    0  501    0  0.00000000000E+00  0.00000000000E+00  0.74284162226E+03  0.74284162227E+03  0.25500000000E-02 0.  1.
         -2   -1    0    0    0  501 -0.00000000000E+00 -0.00000000000E+00 -0.28455776517E+02  0.28455776631E+02  0.25500000000E-02 0. -1.
    5000001    1    1    2    0    0  0.72710004131E+02 -0.84655993615E+02  0.49643763178E+03  0.51461898935E+03  0.77000000000E+02 0.  0.
   -5000001    1    1    2    0    0 -0.72710004131E+02  0.84655993615E+02  0.21794821397E+03  0.25667840955E+03  0.77000000000E+02 0.  0.
<mgrwt>
<rscale>  0 0.29077920E+03</rscale>
<asrwt>0</asrwt>
<pdfrwt beam="1">  1        2 0.11428332E+00 0.29077920E+03</pdfrwt>
<pdfrwt beam="2">  1       -2 0.43778121E-02 0.29077920E+03</pdfrwt>
<totfact> 0.93305599E+03</totfact>
</mgrwt>
</event>
<event>
 4    1  0.5980424E-004  0.1715685E+03  0.7818608E-02  0.1176222E+00
          2   -1    0    0  501    0  0.00000000000E+00  0.00000000000E+00  0.15007892879E+04  0.15007892879E+04  0.25500000000E-02 0.  1.
         -2   -1    0    0    0  501 -0.00000000000E+00 -0.00000000000E+00 -0.49033790239E+01  0.49033796869E+01  0.25500000000E-02 0. -1.
    5000001    1    1    2    0    0  0.25098109720E+02 -0.15452907238E+02  0.95585030888E+03  0.95939956245E+03  0.77000000000E+02 0.  0.
   -5000001    1    1    2    0    0 -0.25098109720E+02  0.15452907238E+02  0.54003560001E+03  0.54629310515E+03  0.77000000000E+02 0.  0.
<mgrwt>
<rscale>  0 0.17156852E+03</rscale>
<asrwt>0</asrwt>
<pdfrwt beam="1">  1        2 0.23089083E+00 0.17156852E+03</pdfrwt>
<pdfrwt beam="2">  1       -2 0.75436550E-03 0.17156852E+03</pdfrwt>
<totfact> 0.42423435E+04</totfact>
</mgrwt>
</event>
<event>
 4    1  0.5980424E-004  0.1688024E+03  0.7818608E-02  0.1179103E+00
         -2   -1    0    0    0  501 -0.00000000000E+00  0.00000000000E+00  0.15512605048E+02  0.15512605258E+02  0.25500000000E-02 0. -1.
          2   -1    0    0  501    0  0.00000000000E+00 -0.00000000000E+00 -0.45921113690E+03  0.45921113690E+03  0.25500000000E-02 0.  1.
    5000001    1    1    2    0    0 -0.33918125228E+02 -0.17682191976E+01 -0.23985575596E+03  0.25419156061E+03  0.77000000000E+02 0.  0.
   -5000001    1    1    2    0    0  0.33918125228E+02  0.17682191976E+01 -0.20384277589E+03  0.22053218155E+03  0.77000000000E+02 0.  0.
<mgrwt>
<rscale>  0 0.16880238E+03</rscale>
<asrwt>0</asrwt>
<pdfrwt beam="1">  1        2 0.70647857E-01 0.16880238E+03</pdfrwt>
<pdfrwt beam="2">  1       -2 0.23865550E-02 0.16880238E+03</pdfrwt>
<totfact> 0.38748836E+04</totfact>
</mgrwt>
</event>
<event>
 4    1  0.5980424E-004  0.1792259E+03  0.7818608E-02  0.1168554E+00
         -2   -1    0    0    0  501 -0.00000000000E+00  0.00000000000E+00  0.64965692664E+02  0.64965692715E+02  0.25500000000E-02 0. -1.
          2   -1    0    0  501    0  0.00000000000E+00 -0.00000000000E+00 -0.12361116595E+03  0.12361116598E+03  0.25500000000E-02 0.  1.
    5000001    1    1    2    0    0 -0.43572856589E+02 -0.10330821794E+02 -0.39640765538E+02  0.97497230744E+02  0.77000000000E+02 0.  0.
   -5000001    1    1    2    0    0  0.43572856589E+02  0.10330821794E+02 -0.19004707746E+02  0.91079627946E+02  0.77000000000E+02 0.  0.
<mgrwt>
<rscale>  0 0.17922595E+03</rscale>
<asrwt>0</asrwt>
<pdfrwt beam="1">  1        2 0.19017102E-01 0.17922595E+03</pdfrwt>
<pdfrwt beam="2">  1       -2 0.99947220E-02 0.17922595E+03</pdfrwt>
<totfact> 0.18640390E+04</totfact>
</mgrwt>
</event>
<event>
 4    1  0.5980424E-004  0.3728274E+03  0.7818608E-02  0.1053617E+00
          2   -1    0    0  501    0  0.00000000000E+00  0.00000000000E+00  0.65494313223E+03  0.65494313223E+03  0.25500000000E-02 0.  1.
         -2   -1    0    0    0  501 -0.00000000000E+00 -0.00000000000E+00 -0.53058142384E+02  0.53058142445E+02  0.25500000000E-02 0. -1.
    5000001    1    1    2    0    0  0.16142404073E+03  0.30824850931E+02  0.22008022589E+03  0.28525812554E+03  0.77000000000E+02 0.  0.
   -5000001    1    1    2    0    0 -0.16142404073E+03 -0.30824850931E+02  0.38180476395E+03  0.42274314913E+03  0.77000000000E+02 0.  0.
<mgrwt>
<rscale>  0 0.37282739E+03</rscale>
<asrwt>0</asrwt>
<pdfrwt beam="1">  1        2 0.10076049E+00 0.37282739E+03</pdfrwt>
<pdfrwt beam="2">  1       -2 0.81627908E-02 0.37282739E+03</pdfrwt>
<totfact> 0.41860528E+03</totfact>
</mgrwt>
</event>
<event>
 4    1  0.5980424E-004  0.2153456E+03  0.7818608E-02  0.1137401E+00
          2   -1    0    0  501    0  0.00000000000E+00  0.00000000000E+00  0.16542042570E+04  0.16542042570E+04  0.25500000000E-02 0.  1.
         -2   -1    0    0    0  501 -0.00000000000E+00 -0.00000000000E+00 -0.70084674962E+01  0.70084679601E+01  0.25500000000E-02 0. -1.
    5000001    1    1    2    0    0  0.61789765126E+02 -0.41626981447E+02  0.90583849609E+03  0.91215303631E+03  0.77000000000E+02 0.  0.
   -5000001    1    1    2    0    0 -0.61789765126E+02  0.41626981447E+02  0.74135729337E+03  0.74905968860E+03  0.77000000000E+02 0.  0.
<mgrwt>
<rscale>  0 0.21534565E+03</rscale>
<asrwt>0</asrwt>
<pdfrwt beam="1">  1        2 0.25449266E+00 0.21534565E+03</pdfrwt>
<pdfrwt beam="2">  1       -2 0.10782271E-02 0.21534565E+03</pdfrwt>
<totfact> 0.21358716E+04</totfact>
</mgrwt>
</event>
<event>
 4    1  0.5980424E-004  0.2020292E+03  0.7818608E-02  0.1148038E+00
         -2   -1    0    0    0  501 -0.00000000000E+00  0.00000000000E+00  0.24051366175E+02  0.24051366310E+02  0.25500000000E-02 0. -1.
          2   -1    0    0  501    0  0.00000000000E+00 -0.00000000000E+00 -0.42425639166E+03  0.42425639166E+03  0.25500000000E-02 0.  1.
    5000001    1    1    2    0    0 -0.23509927509E+02 -0.56618476729E+02 -0.25053725766E+03  0.26917705339E+03  0.77000000000E+02 0.  0.
   -5000001    1    1    2    0    0  0.23509927509E+02  0.56618476729E+02 -0.14966776783E+03  0.17913070458E+03  0.77000000000E+02 0.  0.
<mgrwt>
<rscale>  0 0.20202916E+03</rscale>
<asrwt>0</asrwt>
<pdfrwt beam="1">  1        2 0.65270209E-01 0.20202916E+03</pdfrwt>
<pdfrwt beam="2">  1       -2 0.37002105E-02 0.20202916E+03</pdfrwt>
<totfact> 0.22423421E+04</totfact>
</mgrwt>
</event>
<event>
 4    1  0.5980424E-004  0.2790762E+03  0.7818608E-02  0.1096195E+00
         -2   -1    0    0    0  501 -0.00000000000E+00  0.00000000000E+00  0.98327033787E+02  0.98327033820E+02  0.25500000000E-02 0. -1.
          2   -1    0    0  501    0  0.00000000000E+00 -0.00000000000E+00 -0.19802165740E+03  0.19802165742E+03  0.25500000000E-02 0.  1.
    5000001    1    1    2    0    0  0.97668933296E+02 -0.54681575028E+02 -0.83637949107E+02  0.15954184940E+03  0.77000000000E+02 0.  0.
   -5000001    1    1    2    0    0 -0.97668933296E+02  0.54681575028E+02 -0.16056674511E+02  0.13680684184E+03  0.77000000000E+02 0.  0.
<mgrwt>
<rscale>  0 0.27907621E+03</rscale>
<asrwt>0</asrwt>
<pdfrwt beam="1">  1        2 0.30464870E-01 0.27907621E+03</pdfrwt>
<pdfrwt beam="2">  1       -2 0.15127236E-01 0.27907621E+03</pdfrwt>
<totfact> 0.57809845E+03</totfact>
</mgrwt>
</event>
<event>
 4    1  0.5980424E-004  0.2467608E+03  0.7818608E-02  0.1115369E+00
          2   -1    0    0  501    0  0.00000000000E+00  0.00000000000E+00  0.49003359006E+02  0.49003359072E+02  0.25500000000E-02 0.  1.
         -2   -1    0    0    0  501 -0.00000000000E+00 -0.00000000000E+00 -0.31064640662E+03  0.31064640663E+03  0.25500000000E-02 0. -1.
    5000001    1    1    2    0    0 -0.37138893310E+02  0.87458638496E+02 -0.15456583184E+03  0.19709872454E+03  0.77000000000E+02 0.  0.
   -5000001    1    1    2    0    0  0.37138893310E+02 -0.87458638496E+02 -0.10707721577E+03  0.16255104116E+03  0.77000000000E+02 0.  0.
<mgrwt>
<rscale>  0 0.24676075E+03</rscale>
<asrwt>0</asrwt>
<pdfrwt beam="1">  1        2 0.75389785E-02 0.24676075E+03</pdfrwt>
<pdfrwt beam="2">  1       -2 0.47791754E-01 0.24676075E+03</pdfrwt>
<totfact> 0.38199717E+03</totfact>
</mgrwt>
</event>
<event>
 4    1  0.5980424E-004  0.2761373E+03  0.7818608E-02  0.1097818E+00
          2   -1    0    0  501    0  0.00000000000E+00  0.00000000000E+00  0.18004212574E+04  0.18004212574E+04  0.25500000000E-02 0.  1.
         -2   -1    0    0    0  501 -0.00000000000E+00 -0.00000000000E+00 -0.10588048617E+02  0.10588048924E+02  0.25500000000E-02 0. -1.
    5000001    1    1    2    0    0 -0.47054253875E+02 -0.10071663981E+03  0.10776119828E+04  0.10860637780E+04  0.77000000000E+02 0.  0.
   -5000001    1    1    2    0    0  0.47054253875E+02  0.10071663981E+03  0.71222122594E+03  0.72494552832E+03  0.77000000000E+02 0.  0.
<mgrwt>
<rscale>  0 0.27613727E+03</rscale>
<asrwt>0</asrwt>
<pdfrwt beam="1">  1        2 0.27698785E+00 0.27613727E+03</pdfrwt>
<pdfrwt beam="2">  1       -2 0.16289308E-02 0.27613727E+03</pdfrwt>
<totfact> 0.98899963E+03</totfact>
</mgrwt>
</event>
<event>
 4    1  0.5980424E-004  0.2879463E+03  0.7818608E-02  0.1091426E+00
         -2   -1    0    0    0  501 -0.00000000000E+00  0.00000000000E+00  0.83179761419E+01  0.83179765328E+01  0.25500000000E-02 0. -1.
          2   -1    0    0  501    0  0.00000000000E+00 -0.00000000000E+00 -0.24919843775E+04  0.24919843775E+04  0.25500000000E-02 0.  1.
    5000001    1    1    2    0    0  0.22160954508E+00 -0.98668104360E+02 -0.62393020397E+03  0.63635944509E+03  0.77000000000E+02 0.  0.
   -5000001    1    1    2    0    0 -0.22160954508E+00  0.98668104360E+02 -0.18597361974E+04  0.18639429090E+04  0.77000000000E+02 0.  0.
<mgrwt>
<rscale>  0 0.28794629E+03</rscale>
<asrwt>0</asrwt>
<pdfrwt beam="1">  1        2 0.38338162E+00 0.28794629E+03</pdfrwt>
<pdfrwt beam="2">  1       -2 0.12796907E-02 0.28794629E+03</pdfrwt>
<totfact> 0.60292894E+03</totfact>
</mgrwt>
</event>
<event>
 4    1  0.5980424E-004  0.2577833E+03  0.7818608E-02  0.1108482E+00
         -2   -1    0    0    0  501 -0.00000000000E+00  0.00000000000E+00  0.84711874733E+01  0.84711878571E+01  0.25500000000E-02 0. -1.
          2   -1    0    0  501    0  0.00000000000E+00 -0.00000000000E+00 -0.19611249610E+04  0.19611249610E+04  0.25500000000E-02 0.  1.
    5000001    1    1    2    0    0 -0.41353519527E+02  0.23093854365E+02 -0.27437147641E+03  0.28888085217E+03  0.77000000000E+02 0.  0.
   -5000001    1    1    2    0    0  0.41353519527E+02 -0.23093854365E+02 -0.16782822971E+04  0.16807152967E+04  0.77000000000E+02 0.  0.
<mgrwt>
<rscale>  0 0.25778330E+03</rscale>
<asrwt>0</asrwt>
<pdfrwt beam="1">  1        2 0.30171117E+00 0.25778330E+03</pdfrwt>
<pdfrwt beam="2">  1       -2 0.13032612E-02 0.25778330E+03</pdfrwt>
<totfact> 0.11271661E+04</totfact>
</mgrwt>
</event>
<event>
 4    1  0.5980424E-004  0.5122035E+03  0.7818608E-02  0.1010642E+00
         -2   -1    0    0    0  501 -0.00000000000E+00  0.00000000000E+00  0.35773461865E+02  0.35773461956E+02  0.25500000000E-02 0. -1.
          2   -1    0    0  501    0  0.00000000000E+00 -0.00000000000E+00 -0.18334292926E+04  0.18334292926E+04  0.25500000000E-02 0.  1.
    5000001    1    1    2    0    0  0.10892735096E+03  0.19680925801E+03 -0.12461876009E+04  0.12686652783E+04  0.77000000000E+02 0.  0.
   -5000001    1    1    2    0    0 -0.10892735096E+03 -0.19680925801E+03 -0.55146822982E+03  0.60053747621E+03  0.77000000000E+02 0.  0.
<mgrwt>
<rscale>  0 0.51220353E+03</rscale>
<asrwt>0</asrwt>
<pdfrwt beam="1">  1        2 0.28206597E+00 0.51220353E+03</pdfrwt>
<pdfrwt beam="2">  1       -2 0.55036109E-02 0.51220353E+03</pdfrwt>
<totfact> 0.15144865E+03</totfact>
</mgrwt>
</event>
<event>
 4    1  0.5980424E-004  0.2752541E+03  0.7818608E-02  0.1098310E+00
         -2   -1    0    0    0  501 -0.00000000000E+00  0.00000000000E+00  0.88546665400E+02  0.88546665437E+02  0.25500000000E-02 0. -1.
          2   -1    0    0  501    0  0.00000000000E+00 -0.00000000000E+00 -0.21391212488E+03  0.21391212489E+03  0.25500000000E-02 0.  1.
    5000001    1    1    2    0    0  0.10754815812E+03 -0.21956469897E+02 -0.96791108611E+02  0.16536689993E+03  0.77000000000E+02 0.  0.
   -5000001    1    1    2    0    0 -0.10754815812E+03  0.21956469897E+02 -0.28574350867E+02  0.13709189040E+03  0.77000000000E+02 0.  0.
<mgrwt>
<rscale>  0 0.27525410E+03</rscale>
<asrwt>0</asrwt>
<pdfrwt beam="1">  1        2 0.32909558E-01 0.27525410E+03</pdfrwt>
<pdfrwt beam="2">  1       -2 0.13622564E-01 0.27525410E+03</pdfrwt>
<totfact> 0.63091834E+03</totfact>
</mgrwt>
</event>
<event>
 4    1  0.5980424E-004  0.6088271E+03  0.7818608E-02  0.9887260E-01
         -2   -1    0    0    0  501 -0.00000000000E+00  0.00000000000E+00  0.95721962814E+02  0.95721962848E+02  0.25500000000E-02 0. -1.
          2   -1    0    0  501    0  0.00000000000E+00 -0.00000000000E+00 -0.96809131819E+03  0.96809131819E+03  0.25500000000E-02 0.  1.
    5000001    1    1    2    0    0  0.17514043706E+03 -0.22894568283E+03 -0.54172462914E+03  0.61845361362E+03  0.77000000000E+02 0.  0.
   -5000001    1    1    2    0    0 -0.17514043706E+03  0.22894568283E+03 -0.33064472623E+03  0.44535966742E+03  0.77000000000E+02 0.  0.
<mgrwt>
<rscale>  0 0.60882707E+03</rscale>
<asrwt>0</asrwt>
<pdfrwt beam="1">  1        2 0.14893712E+00 0.60882707E+03</pdfrwt>
<pdfrwt beam="2">  1       -2 0.14726456E-01 0.60882707E+03</pdfrwt>
<totfact> 0.96198577E+02</totfact>
</mgrwt>
</event>
<event>
 4    1  0.5980424E-004  0.2928592E+03  0.7818608E-02  0.1088866E+00
          2   -1    0    0  501    0  0.00000000000E+00  0.00000000000E+00  0.71170639106E+03  0.71170639107E+03  0.25500000000E-02 0.  1.
         -2   -1    0    0    0  501 -0.00000000000E+00 -0.00000000000E+00 -0.30127067201E+02  0.30127067309E+02  0.25500000000E-02 0. -1.
    5000001    1    1    2    0    0 -0.31641012909E+02  0.10535441963E+03  0.19282878096E+03  0.23497371385E+03  0.77000000000E+02 0.  0.
   -5000001    1    1    2    0    0  0.31641012909E+02 -0.10535441963E+03  0.48875054290E+03  0.50685974452E+03  0.77000000000E+02 0.  0.
<mgrwt>
<rscale>  0 0.29285919E+03</rscale>
<asrwt>0</asrwt>
<pdfrwt beam="1">  1        2 0.10949328E+00 0.29285919E+03</pdfrwt>
<pdfrwt beam="2">  1       -2 0.46349340E-02 0.29285919E+03</pdfrwt>
<totfact> 0.90233158E+03</totfact>
</mgrwt>
</event>
<event>
 4    1  0.5980424E-004  0.2466593E+03  0.7818608E-02  0.1115434E+00
          2   -1    0    0  501    0  0.00000000000E+00  0.00000000000E+00  0.18651106319E+02  0.18651106494E+02  0.25500000000E-02 0.  1.
         -2   -1    0    0    0  501 -0.00000000000E+00 -0.00000000000E+00 -0.81551194883E+03  0.81551194884E+03  0.25500000000E-02 0. -1.
    5000001    1    1    2    0    0  0.21100214856E+02  0.89013865268E+02 -0.50058856384E+03  0.51467134905E+03  0.77000000000E+02 0.  0.
   -5000001    1    1    2    0    0 -0.21100214856E+02 -0.89013865268E+02 -0.29627227867E+03  0.31949170629E+03  0.77000000000E+02 0.  0.
<mgrwt>
<rscale>  0 0.24665928E+03</rscale>
<asrwt>0</asrwt>
<pdfrwt beam="1">  1        2 0.28694016E-02 0.24665928E+03</pdfrwt>
<pdfrwt beam="2">  1       -2 0.12546335E+00 0.24665928E+03</pdfrwt>
<totfact> 0.16494334E+03</totfact>
</mgrwt>
</event>
<event>
 4    1  0.5980424E-004  0.2984848E+03  0.7818608E-02  0.1086000E+00
         -2   -1    0    0    0  501 -0.00000000000E+00  0.00000000000E+00  0.31157425321E+03  0.31157425322E+03  0.25500000000E-02 0. -1.
          2   -1    0    0  501    0  0.00000000000E+00 -0.00000000000E+00 -0.71486333054E+02  0.71486333099E+02  0.25500000000E-02 0.  1.
    5000001    1    1    2    0    0 -0.96645732659E+02  0.73314901287E+02  0.17183836593E+03  0.22399307221E+03  0.77000000000E+02 0.  0.
   -5000001    1    1    2    0    0  0.96645732659E+02 -0.73314901287E+02  0.68249554217E+02  0.15906751410E+03  0.77000000000E+02 0.  0.
<mgrwt>
<rscale>  0 0.29848485E+03</rscale>
<asrwt>0</asrwt>
<pdfrwt beam="1">  1        2 0.10997897E-01 0.29848485E+03</pdfrwt>
<pdfrwt beam="2">  1       -2 0.47934501E-01 0.29848485E+03</pdfrwt>
<totfact> 0.23785612E+03</totfact>
</mgrwt>
</event>
<event>
 4    1  0.5980424E-004  0.3556370E+03  0.7818608E-02  0.1060325E+00
          2   -1    0    0  501    0  0.00000000000E+00  0.00000000000E+00  0.74142759956E+03  0.74142759956E+03  0.25500000000E-02 0.  1.
         -2   -1    0    0    0  501 -0.00000000000E+00 -0.00000000000E+00 -0.42646662159E+02  0.42646662235E+02  0.25500000000E-02 0. -1.
    5000001    1    1    2    0    0  0.15633763571E+03  0.28676925739E+02  0.39492654728E+03  0.43261969460E+03  0.77000000000E+02 0.  0.
   -5000001    1    1    2    0    0 -0.15633763571E+03 -0.28676925739E+02  0.30385439012E+03  0.35145456720E+03  0.77000000000E+02 0.  0.
<mgrwt>
<rscale>  0 0.35563696E+03</rscale>
<asrwt>0</asrwt>
<pdfrwt beam="1">  1        2 0.11406577E+00 0.35563696E+03</pdfrwt>
<pdfrwt beam="2">  1       -2 0.65610255E-02 0.35563696E+03</pdfrwt>
<totfact> 0.50566709E+03</totfact>
</mgrwt>
</event>
<event>
 4    1  0.5980424E-004  0.2566248E+03  0.7818608E-02  0.1109188E+00
         -2   -1    0    0    0  501 -0.00000000000E+00  0.00000000000E+00  0.15645747484E+02  0.15645747692E+02  0.25500000000E-02 0. -1.
          2   -1    0    0  501    0  0.00000000000E+00 -0.00000000000E+00 -0.10523032309E+04  0.10523032309E+04  0.25500000000E-02 0.  1.
    5000001    1    1    2    0    0  0.86263086366E+02 -0.52855386949E+02 -0.44624205932E+03  0.46399998653E+03  0.77000000000E+02 0.  0.
   -5000001    1    1    2    0    0 -0.86263086366E+02  0.52855386949E+02 -0.59041542408E+03  0.60394899204E+03  0.77000000000E+02 0.  0.
<mgrwt>
<rscale>  0 0.25662479E+03</rscale>
<asrwt>0</asrwt>
<pdfrwt beam="1">  1        2 0.16189275E+00 0.25662479E+03</pdfrwt>
<pdfrwt beam="2">  1       -2 0.24070389E-02 0.25662479E+03</pdfrwt>
<totfact> 0.14264338E+04</totfact>
</mgrwt>
</event>
<event>
 4    1  0.5980424E-004  0.3109416E+03  0.7818608E-02  0.1079895E+00
          2   -1    0    0  501    0  0.00000000000E+00  0.00000000000E+00  0.42908536679E+04  0.42908536679E+04  0.25500000000E-02 0.  1.
         -2   -1    0    0    0  501 -0.00000000000E+00 -0.00000000000E+00 -0.56331848858E+01  0.56331854630E+01  0.25500000000E-02 0. -1.
    5000001    1    1    2    0    0 -0.11151205811E+03 -0.62509841668E+02  0.15403512482E+04  0.15475636941E+04  0.77000000000E+02 0.  0.
   -5000001    1    1    2    0    0  0.11151205811E+03  0.62509841668E+02  0.27448692349E+04  0.27489231593E+04  0.77000000000E+02 0.  0.
<mgrwt>
<rscale>  0 0.31094162E+03</rscale>
<asrwt>0</asrwt>
<pdfrwt beam="1">  1        2 0.66013078E+00 0.31094162E+03</pdfrwt>
<pdfrwt beam="2">  1       -2 0.86664460E-03 0.31094162E+03</pdfrwt>
<totfact> 0.67716370E+02</totfact>
</mgrwt>
</event>
<event>
 4    1  0.5980424E-004  0.1953054E+03  0.7818608E-02  0.1153761E+00
         -2   -1    0    0    0  501 -0.00000000000E+00  0.00000000000E+00  0.15419419749E+02  0.15419419960E+02  0.25500000000E-02 0. -1.
          2   -1    0    0  501    0  0.00000000000E+00 -0.00000000000E+00 -0.61844426282E+03  0.61844426282E+03  0.25500000000E-02 0.  1.
    5000001    1    1    2    0    0 -0.11897374178E+02 -0.52905929329E+02 -0.21772653686E+03  0.23722232130E+03  0.77000000000E+02 0.  0.
   -5000001    1    1    2    0    0  0.11897374178E+02  0.52905929329E+02 -0.38529830621E+03  0.39664136148E+03  0.77000000000E+02 0.  0.
<mgrwt>
<rscale>  0 0.19530542E+03</rscale>
<asrwt>0</asrwt>
<pdfrwt beam="1">  1        2 0.95145252E-01 0.19530542E+03</pdfrwt>
<pdfrwt beam="2">  1       -2 0.23722189E-02 0.19530542E+03</pdfrwt>
<totfact> 0.28344140E+04</totfact>
</mgrwt>
</event>
<event>
 4    1  0.5980424E-004  0.4694421E+03  0.7818608E-02  0.1022078E+00
          2   -1    0    0  501    0  0.00000000000E+00  0.00000000000E+00  0.10599589407E+04  0.10599589407E+04  0.25500000000E-02 0.  1.
         -2   -1    0    0    0  501 -0.00000000000E+00 -0.00000000000E+00 -0.51977458531E+02  0.51977458593E+02  0.25500000000E-02 0. -1.
    5000001    1    1    2    0    0 -0.17015628985E+03 -0.12128910404E+03  0.32831599091E+03  0.39671727920E+03  0.77000000000E+02 0.  0.
   -5000001    1    1    2    0    0  0.17015628985E+03  0.12128910404E+03  0.67966549126E+03  0.71521912009E+03  0.77000000000E+02 0.  0.
<mgrwt>
<rscale>  0 0.46944210E+03</rscale>
<asrwt>0</asrwt>
<pdfrwt beam="1">  1        2 0.16307060E+00 0.46944210E+03</pdfrwt>
<pdfrwt beam="2">  1       -2 0.79965326E-02 0.46944210E+03</pdfrwt>
<totfact> 0.22858428E+03</totfact>
</mgrwt>
</event>
<event>
 4    1  0.5980424E-004  0.1973698E+03  0.7818608E-02  0.1151977E+00
          2   -1    0    0  501    0  0.00000000000E+00  0.00000000000E+00  0.26592871482E+02  0.26592871605E+02  0.25500000000E-02 0.  1.
         -2   -1    0    0    0  501 -0.00000000000E+00 -0.00000000000E+00 -0.36621490656E+03  0.36621490657E+03  0.25500000000E-02 0. -1.
    5000001    1    1    2    0    0  0.61337998785E+02 -0.68762977151E+01 -0.17034654986E+03  0.19686691092E+03  0.77000000000E+02 0.  0.
   -5000001    1    1    2    0    0 -0.61337998785E+02  0.68762977151E+01 -0.16927548522E+03  0.19594086726E+03  0.77000000000E+02 0.  0.
<mgrwt>
<rscale>  0 0.19736976E+03</rscale>
<asrwt>0</asrwt>
<pdfrwt beam="1">  1        2 0.40912113E-02 0.19736976E+03</pdfrwt>
<pdfrwt beam="2">  1       -2 0.56340751E-01 0.19736976E+03</pdfrwt>
<totfact> 0.60314032E+03</totfact>
</mgrwt>
</event>
<event>
 4    1  0.5980424E-004  0.2199206E+03  0.7818608E-02  0.1133942E+00
          2   -1    0    0  501    0  0.00000000000E+00  0.00000000000E+00  0.39665489831E+03  0.39665489832E+03  0.25500000000E-02 0.  1.
         -2   -1    0    0    0  501 -0.00000000000E+00 -0.00000000000E+00 -0.30483080452E+02  0.30483080559E+02  0.25500000000E-02 0. -1.
    5000001    1    1    2    0    0 -0.33442631490E+02 -0.70952830060E+02  0.17708395263E+03  0.20842370300E+03  0.77000000000E+02 0.  0.
   -5000001    1    1    2    0    0  0.33442631490E+02  0.70952830060E+02  0.18908786524E+03  0.21871427588E+03  0.77000000000E+02 0.  0.
<mgrwt>
<rscale>  0 0.21992056E+03</rscale>
<asrwt>0</asrwt>
<pdfrwt beam="1">  1        2 0.61023827E-01 0.21992056E+03</pdfrwt>
<pdfrwt beam="2">  1       -2 0.46897049E-02 0.21992056E+03</pdfrwt>
<totfact> 0.16998713E+04</totfact>
</mgrwt>
</event>
<event>
 4    1  0.5980424E-004  0.5004144E+03  0.7818608E-02  0.1013671E+00
          2   -1    0    0  501    0  0.00000000000E+00  0.00000000000E+00  0.88738997408E+03  0.88738997409E+03  0.25500000000E-02 0.  1.
         -2   -1    0    0    0  501 -0.00000000000E+00 -0.00000000000E+00 -0.70548049831E+02  0.70548049877E+02  0.25500000000E-02 0. -1.
    5000001    1    1    2    0    0  0.10322143016E+03 -0.14158459795E+03  0.99906769733E+02  0.21589632850E+03  0.77000000000E+02 0.  0.
   -5000001    1    1    2    0    0 -0.10322143016E+03  0.14158459795E+03  0.71693515452E+03  0.74204169546E+03  0.77000000000E+02 0.  0.
<mgrwt>
<rscale>  0 0.50041436E+03</rscale>
<asrwt>0</asrwt>
<pdfrwt beam="1">  1        2 0.13652154E+00 0.50041436E+03</pdfrwt>
<pdfrwt beam="2">  1       -2 0.10853546E-01 0.50041436E+03</pdfrwt>
<totfact> 0.18028679E+03</totfact>
</mgrwt>
</event>
<event>
 4    1  0.5980424E-004  0.6684124E+03  0.7818608E-02  0.9772830E-01
          2   -1    0    0  501    0  0.00000000000E+00  0.00000000000E+00  0.21126065543E+04  0.21126065543E+04  0.25500000000E-02 0.  1.
         -2   -1    0    0    0  501 -0.00000000000E+00 -0.00000000000E+00 -0.52870126561E+02  0.52870126622E+02  0.25500000000E-02 0. -1.
    5000001    1    1    2    0    0 -0.30240239956E+03  0.10520299761E+03  0.84517810928E+03  0.90706665597E+03  0.77000000000E+02 0.  0.
   -5000001    1    1    2    0    0  0.30240239956E+03 -0.10520299761E+03  0.12145583184E+04  0.12584100249E+04  0.77000000000E+02 0.  0.
<mgrwt>
<rscale>  0 0.66841238E+03</rscale>
<asrwt>0</asrwt>
<pdfrwt beam="1">  1        2 0.32501635E+00 0.66841238E+03</pdfrwt>
<pdfrwt beam="2">  1       -2 0.81338667E-02 0.66841238E+03</pdfrwt>
<totfact> 0.57201525E+02</totfact>
</mgrwt>
</event>
<event>
 4    1  0.5980424E-004  0.3821743E+03  0.7818608E-02  0.1050133E+00
         -2   -1    0    0    0  501 -0.00000000000E+00  0.00000000000E+00  0.31593862515E+03  0.31593862516E+03  0.25500000000E-02 0. -1.
          2   -1    0    0  501    0  0.00000000000E+00 -0.00000000000E+00 -0.11557404781E+03  0.11557404784E+03  0.25500000000E-02 0.  1.
    5000001    1    1    2    0    0  0.13042509502E+03 -0.11154818796E+03  0.13816438341E+03  0.23339258877E+03  0.77000000000E+02 0.  0.
   -5000001    1    1    2    0    0 -0.13042509502E+03  0.11154818796E+03  0.62200193927E+02  0.19812008423E+03  0.77000000000E+02 0.  0.
<mgrwt>
<rscale>  0 0.38217434E+03</rscale>
<asrwt>0</asrwt>
<pdfrwt beam="1">  1        2 0.17780623E-01 0.38217434E+03</pdfrwt>
<pdfrwt beam="2">  1       -2 0.48605943E-01 0.38217434E+03</pdfrwt>
<totfact> 0.13034056E+03</totfact>
</mgrwt>
</event>
<event>
 4    1  0.5980424E-004  0.2209336E+03  0.7818608E-02  0.1133189E+00
          2   -1    0    0  501    0  0.00000000000E+00  0.00000000000E+00  0.27015091682E+03  0.27015091683E+03  0.25500000000E-02 0.  1.
         -2   -1    0    0    0  501 -0.00000000000E+00 -0.00000000000E+00 -0.45170718533E+02  0.45170718605E+02  0.25500000000E-02 0. -1.
    5000001    1    1    2    0    0  0.12311543153E+02 -0.70605362999E+02  0.16061991849E+03  0.19200117082E+03  0.77000000000E+02 0.  0.
   -5000001    1    1    2    0    0 -0.12311543153E+02  0.70605362999E+02  0.64360279799E+02  0.12332046462E+03  0.77000000000E+02 0.  0.
<mgrwt>
<rscale>  0 0.22093357E+03</rscale>
<asrwt>0</asrwt>
<pdfrwt beam="1">  1        2 0.41561679E-01 0.22093357E+03</pdfrwt>
<pdfrwt beam="2">  1       -2 0.69493414E-02 0.22093357E+03</pdfrwt>
<totfact> 0.14096698E+04</totfact>
</mgrwt>
</event>
<event>
 4    1  0.5980424E-004  0.3011899E+03  0.7818608E-02  0.1084647E+00
          2   -1    0    0  501    0  0.00000000000E+00  0.00000000000E+00  0.16599673412E+03  0.16599673414E+03  0.25500000000E-02 0.  1.
         -2   -1    0    0    0  501 -0.00000000000E+00 -0.00000000000E+00 -0.13662216929E+03  0.13662216932E+03  0.25500000000E-02 0. -1.
    5000001    1    1    2    0    0  0.61791996005E+02  0.97403679753E+02 -0.44277672671E+02  0.14558585061E+03  0.77000000000E+02 0.  0.
   -5000001    1    1    2    0    0 -0.61791996005E+02 -0.97403679753E+02  0.73652237501E+02  0.15703305285E+03  0.77000000000E+02 0.  0.
<mgrwt>
<rscale>  0 0.30118987E+03</rscale>
<asrwt>0</asrwt>
<pdfrwt beam="1">  1        2 0.25537959E-01 0.30118987E+03</pdfrwt>
<pdfrwt beam="2">  1       -2 0.21018795E-01 0.30118987E+03</pdfrwt>
<totfact> 0.40423986E+03</totfact>
</mgrwt>
</event>
<event>
 4    1  0.5980424E-004  0.2504166E+03  0.7818608E-02  0.1113042E+00
          2   -1    0    0  501    0  0.00000000000E+00  0.00000000000E+00  0.14361795619E+04  0.14361795619E+04  0.25500000000E-02 0.  1.
         -2   -1    0    0    0  501 -0.00000000000E+00 -0.00000000000E+00 -0.10915848850E+02  0.10915849148E+02  0.25500000000E-02 0. -1.
    5000001    1    1    2    0    0  0.30447933853E+02  0.80655446855E+02  0.43454588882E+03  0.44965709966E+03  0.77000000000E+02 0.  0.
   -5000001    1    1    2    0    0 -0.30447933853E+02 -0.80655446855E+02  0.99071782420E+03  0.99743831136E+03  0.77000000000E+02 0.  0.
<mgrwt>
<rscale>  0 0.25041661E+03</rscale>
<asrwt>0</asrwt>
<pdfrwt beam="1">  1        2 0.22095065E+00 0.25041661E+03</pdfrwt>
<pdfrwt beam="2">  1       -2 0.16793618E-02 0.25041661E+03</pdfrwt>
<totfact> 0.14712800E+04</totfact>
</mgrwt>
</event>
<event>
 4    1  0.5980424E-004  0.1023758E+04  0.7818608E-02  0.9282864E-01
          2   -1    0    0  501    0  0.00000000000E+00  0.00000000000E+00  0.81249917750E+03  0.81249917751E+03  0.25500000000E-02 0.  1.
         -2   -1    0    0    0  501 -0.00000000000E+00 -0.00000000000E+00 -0.32248686063E+03  0.32248686064E+03  0.25500000000E-02 0. -1.
    5000001    1    1    2    0    0  0.41960097696E+03  0.13537831236E+03 -0.30373752785E+02  0.44860208669E+03  0.77000000000E+02 0.  0.
   -5000001    1    1    2    0    0 -0.41960097696E+03 -0.13537831236E+03  0.52038606966E+03  0.68638395146E+03  0.77000000000E+02 0.  0.
<mgrwt>
<rscale>  0 0.10237584E+04</rscale>
<asrwt>0</asrwt>
<pdfrwt beam="1">  1        2 0.12499987E+00 0.10237584E+04</pdfrwt>
<pdfrwt beam="2">  1       -2 0.49613364E-01 0.10237584E+04</pdfrwt>
<totfact> 0.12934047E+02</totfact>
</mgrwt>
</event>
<event>
 4    1  0.5980424E-004  0.1714027E+03  0.7818608E-02  0.1176393E+00
         -2   -1    0    0    0  501 -0.00000000000E+00  0.00000000000E+00  0.78413503045E+01  0.78413507192E+01  0.25500000000E-02 0. -1.
          2   -1    0    0  501    0  0.00000000000E+00 -0.00000000000E+00 -0.93666513892E+03  0.93666513893E+03  0.25500000000E-02 0.  1.
    5000001    1    1    2    0    0 -0.30297587637E+02  0.15270767750E+02 -0.37477940901E+03  0.38410902824E+03  0.77000000000E+02 0.  0.
   -5000001    1    1    2    0    0  0.30297587637E+02 -0.15270767750E+02 -0.55404437961E+03  0.56039746140E+03  0.77000000000E+02 0.  0.
<mgrwt>
<rscale>  0 0.17140268E+03</rscale>
<asrwt>0</asrwt>
<pdfrwt beam="1">  1        2 0.14410224E+00 0.17140268E+03</pdfrwt>
<pdfrwt beam="2">  1       -2 0.12063624E-02 0.17140268E+03</pdfrwt>
<totfact> 0.44831828E+04</totfact>
</mgrwt>
</event>
<event>
 4    1  0.5980424E-004  0.2006545E+03  0.7818608E-02  0.1149188E+00
         -2   -1    0    0    0  501 -0.00000000000E+00  0.00000000000E+00  0.25154560739E+02  0.25154560868E+02  0.25500000000E-02 0. -1.
          2   -1    0    0  501    0  0.00000000000E+00 -0.00000000000E+00 -0.40014830801E+03  0.40014830802E+03  0.25500000000E-02 0.  1.
    5000001    1    1    2    0    0 -0.49039785963E+02 -0.34276501716E+02 -0.13748310066E+03  0.16855379599E+03  0.77000000000E+02 0.  0.
   -5000001    1    1    2    0    0  0.49039785963E+02  0.34276501716E+02 -0.23751064662E+03  0.25674907290E+03  0.77000000000E+02 0.  0.
<mgrwt>
<rscale>  0 0.20065448E+03</rscale>
<asrwt>0</asrwt>
<pdfrwt beam="1">  1        2 0.61561273E-01 0.20065448E+03</pdfrwt>
<pdfrwt beam="2">  1       -2 0.38699327E-02 0.20065448E+03</pdfrwt>
<totfact> 0.22331176E+04</totfact>
</mgrwt>
</event>
<event>
 4    1  0.5980424E-004  0.1946990E+03  0.7818608E-02  0.1154290E+00
         -2   -1    0    0    0  501 -0.00000000000E+00  0.00000000000E+00  0.29637863215E+01  0.29637874184E+01  0.25500000000E-02 0. -1.
          2   -1    0    0  501    0  0.00000000000E+00 -0.00000000000E+00 -0.31975715758E+04  0.31975715758E+04  0.25500000000E-02 0.  1.
    5000001    1    1    2    0    0  0.11449689613E+02  0.57983928506E+02 -0.17188693516E+04  0.17216079923E+04  0.77000000000E+02 0.  0.
   -5000001    1    1    2    0    0 -0.11449689613E+02 -0.57983928506E+02 -0.14757384378E+04  0.14789273709E+04  0.77000000000E+02 0.  0.
<mgrwt>
<rscale>  0 0.19469895E+03</rscale>
<asrwt>0</asrwt>
<pdfrwt beam="1">  1        2 0.49193133E+00 0.19469895E+03</pdfrwt>
<pdfrwt beam="2">  1       -2 0.45596977E-03 0.19469895E+03</pdfrwt>
<totfact> 0.10495009E+04</totfact>
</mgrwt>
</event>
<event>
 4    1  0.5980424E-004  0.4826249E+03  0.7818608E-02  0.1018416E+00
          2   -1    0    0  501    0  0.00000000000E+00  0.00000000000E+00  0.14571140265E+04  0.14571140265E+04  0.25500000000E-02 0.  1.
         -2   -1    0    0    0  501 -0.00000000000E+00 -0.00000000000E+00 -0.39963715442E+02  0.39963715523E+02  0.25500000000E-02 0. -1.
    5000001    1    1    2    0    0 -0.12147208522E+03  0.19109915289E+03  0.60910281921E+03  0.65437725977E+03  0.77000000000E+02 0.  0.
   -5000001    1    1    2    0    0  0.12147208522E+03 -0.19109915289E+03  0.80804749181E+03  0.84270048223E+03  0.77000000000E+02 0.  0.
<mgrwt>
<rscale>  0 0.48262487E+03</rscale>
<asrwt>0</asrwt>
<pdfrwt beam="1">  1        2 0.22417138E+00 0.48262487E+03</pdfrwt>
<pdfrwt beam="2">  1       -2 0.61482642E-02 0.48262487E+03</pdfrwt>
<totfact> 0.20414786E+03</totfact>
</mgrwt>
</event>
<event>
 4    1  0.5980424E-004  0.3126200E+03  0.7818608E-02  0.1079097E+00
         -2   -1    0    0    0  501 -0.00000000000E+00  0.00000000000E+00  0.62509563020E+02  0.62509563072E+02  0.25500000000E-02 0. -1.
          2   -1    0    0  501    0  0.00000000000E+00 -0.00000000000E+00 -0.39086532750E+03  0.39086532751E+03  0.25500000000E-02 0.  1.
    5000001    1    1    2    0    0 -0.76302965695E+02 -0.10551897000E+03 -0.10712921539E+03  0.18537007416E+03  0.77000000000E+02 0.  0.
   -5000001    1    1    2    0    0  0.76302965695E+02  0.10551897000E+03 -0.22122654909E+03  0.26800481642E+03  0.77000000000E+02 0.  0.
<mgrwt>
<rscale>  0 0.31262003E+03</rscale>
<asrwt>0</asrwt>
<pdfrwt beam="1">  1        2 0.60133126E-01 0.31262003E+03</pdfrwt>
<pdfrwt beam="2">  1       -2 0.96168561E-02 0.31262003E+03</pdfrwt>
<totfact> 0.57814791E+03</totfact>
</mgrwt>
</event>
<event>
 4    1  0.5980424E-004  0.2668137E+03  0.7818608E-02  0.1103117E+00
         -2   -1    0    0    0  501 -0.00000000000E+00  0.00000000000E+00  0.15312420109E+02  0.15312420321E+02  0.25500000000E-02 0. -1.
          2   -1    0    0  501    0  0.00000000000E+00 -0.00000000000E+00 -0.11622848122E+04  0.11622848122E+04  0.25500000000E-02 0.  1.
    5000001    1    1    2    0    0  0.55526090200E+02  0.84092543411E+02 -0.39077934778E+03  0.41084328059E+03  0.77000000000E+02 0.  0.
   -5000001    1    1    2    0    0 -0.55526090200E+02 -0.84092543411E+02 -0.75619304434E+03  0.76675395197E+03  0.77000000000E+02 0.  0.
<mgrwt>
<rscale>  0 0.26681374E+03</rscale>
<asrwt>0</asrwt>
<pdfrwt beam="1">  1        2 0.17881298E+00 0.26681374E+03</pdfrwt>
<pdfrwt beam="2">  1       -2 0.23557579E-02 0.26681374E+03</pdfrwt>
<totfact> 0.12714247E+04</totfact>
</mgrwt>
</event>
<event>
 4    1  0.5980424E-004  0.2244656E+03  0.7818608E-02  0.1130597E+00
         -2   -1    0    0    0  501 -0.00000000000E+00  0.00000000000E+00  0.99686736393E+02  0.99686736426E+02  0.25500000000E-02 0. -1.
          2   -1    0    0  501    0  0.00000000000E+00 -0.00000000000E+00 -0.12635786967E+03  0.12635786969E+03  0.25500000000E-02 0.  1.
    5000001    1    1    2    0    0 -0.50621769813E+02  0.53054635778E+02  0.22831492405E+02  0.10875493093E+03  0.77000000000E+02 0.  0.
   -5000001    1    1    2    0    0  0.50621769813E+02 -0.53054635778E+02 -0.49502625681E+02  0.11728967519E+03  0.77000000000E+02 0.  0.
<mgrwt>
<rscale>  0 0.22446562E+03</rscale>
<asrwt>0</asrwt>
<pdfrwt beam="1">  1        2 0.19439672E-01 0.22446562E+03</pdfrwt>
<pdfrwt beam="2">  1       -2 0.15336421E-01 0.22446562E+03</pdfrwt>
<totfact> 0.92535044E+03</totfact>
</mgrwt>
</event>
<event>
 4    1  0.5980424E-004  0.3043828E+03  0.7818608E-02  0.1083070E+00
          2   -1    0    0  501    0  0.00000000000E+00  0.00000000000E+00  0.53506440710E+02  0.53506440771E+02  0.25500000000E-02 0.  1.
         -2   -1    0    0    0  501 -0.00000000000E+00 -0.00000000000E+00 -0.43288656150E+03  0.43288656151E+03  0.25500000000E-02 0. -1.
    5000001    1    1    2    0    0 -0.95750869267E+02  0.77664322042E+02 -0.11763542731E+03  0.18699483855E+03  0.77000000000E+02 0.  0.
   -5000001    1    1    2    0    0  0.95750869267E+02 -0.77664322042E+02 -0.26174469348E+03  0.29939816374E+03  0.77000000000E+02 0.  0.
<mgrwt>
<rscale>  0 0.30438278E+03</rscale>
<asrwt>0</asrwt>
<pdfrwt beam="1">  1        2 0.82317604E-02 0.30438278E+03</pdfrwt>
<pdfrwt beam="2">  1       -2 0.66597930E-01 0.30438278E+03</pdfrwt>
<totfact> 0.17428498E+03</totfact>
</mgrwt>
</event>
<event>
 4    1  0.5980424E-004  0.2476138E+03  0.7818608E-02  0.1114822E+00
          2   -1    0    0  501    0  0.00000000000E+00  0.00000000000E+00  0.59093145255E+03  0.59093145256E+03  0.25500000000E-02 0.  1.
         -2   -1    0    0    0  501 -0.00000000000E+00 -0.00000000000E+00 -0.25938961387E+02  0.25938961513E+02  0.25500000000E-02 0. -1.
    5000001    1    1    2    0    0  0.11349166811E+02 -0.84757081359E+02  0.16869767621E+03  0.20420693521E+03  0.77000000000E+02 0.  0.
   -5000001    1    1    2    0    0 -0.11349166811E+02  0.84757081359E+02  0.39629481496E+03  0.41266347886E+03  0.77000000000E+02 0.  0.
<mgrwt>
<rscale>  0 0.24761380E+03</rscale>
<asrwt>0</asrwt>
<pdfrwt beam="1">  1        2 0.90912528E-01 0.24761380E+03</pdfrwt>
<pdfrwt beam="2">  1       -2 0.39906096E-02 0.24761380E+03</pdfrwt>
<totfact> 0.14008947E+04</totfact>
</mgrwt>
</event>
<event>
 4    1  0.5980424E-004  0.2213739E+03  0.7818608E-02  0.1132863E+00
         -2   -1    0    0    0  501 -0.00000000000E+00  0.00000000000E+00  0.21225247721E+02  0.21225247875E+02  0.25500000000E-02 0. -1.
          2   -1    0    0  501    0  0.00000000000E+00 -0.00000000000E+00 -0.57721830489E+03  0.57721830490E+03  0.25500000000E-02 0.  1.
    5000001    1    1    2    0    0 -0.12479000518E+02  0.76314591965E+02 -0.22793340230E+03  0.25270986978E+03  0.77000000000E+02 0.  0.
   -5000001    1    1    2    0    0  0.12479000518E+02 -0.76314591965E+02 -0.32805965488E+03  0.34573368300E+03  0.77000000000E+02 0.  0.
<mgrwt>
<rscale>  0 0.22137391E+03</rscale>
<asrwt>0</asrwt>
<pdfrwt beam="1">  1        2 0.88802804E-01 0.22137391E+03</pdfrwt>
<pdfrwt beam="2">  1       -2 0.32654232E-02 0.22137391E+03</pdfrwt>
<totfact> 0.19301942E+04</totfact>
</mgrwt>
</event>
<event>
 4    1  0.5980424E-004  0.2967767E+03  0.7818608E-02  0.1086863E+00
          2   -1    0    0  501    0  0.00000000000E+00  0.00000000000E+00  0.40464880892E+03  0.40464880893E+03  0.25500000000E-02 0.  1.
         -2   -1    0    0    0  501 -0.00000000000E+00 -0.00000000000E+00 -0.54415339026E+02  0.54415339086E+02  0.25500000000E-02 0. -1.
    5000001    1    1    2    0    0 -0.91016266257E+02 -0.88293148735E+02  0.18011980354E+03  0.23334906142E+03  0.77000000000E+02 0.  0.
   -5000001    1    1    2    0    0  0.91016266257E+02  0.88293148735E+02  0.17011366635E+03  0.22571508659E+03  0.77000000000E+02 0.  0.
<mgrwt>
<rscale>  0 0.29677670E+03</rscale>
<asrwt>0</asrwt>
<pdfrwt beam="1">  1        2 0.62253660E-01 0.29677670E+03</pdfrwt>
<pdfrwt beam="2">  1       -2 0.83715910E-02 0.29677670E+03</pdfrwt>
<totfact> 0.69197981E+03</totfact>
</mgrwt>
</event>
<event>
 4    1  0.5980424E-004  0.2188753E+03  0.7818608E-02  0.1134724E+00
         -2   -1    0    0    0  501 -0.00000000000E+00  0.00000000000E+00  0.38347314968E+01  0.38347323447E+01  0.25500000000E-02 0. -1.
          2   -1    0    0  501    0  0.00000000000E+00 -0.00000000000E+00 -0.31231898704E+04  0.31231898704E+04  0.25500000000E-02 0.  1.
    5000001    1    1    2    0    0 -0.10653259411E+02  0.76264472431E+02 -0.14045923932E+04  0.14088074931E+04  0.77000000000E+02 0.  0.
   -5000001    1    1    2    0    0  0.10653259411E+02 -0.76264472431E+02 -0.17147627457E+04  0.17182171096E+04  0.77000000000E+02 0.  0.
<mgrwt>
<rscale>  0 0.21887527E+03</rscale>
<asrwt>0</asrwt>
<pdfrwt beam="1">  1        2 0.48048872E+00 0.21887527E+03</pdfrwt>
<pdfrwt beam="2">  1       -2 0.58996125E-03 0.21887527E+03</pdfrwt>
<totfact> 0.80550331E+03</totfact>
</mgrwt>
</event>
<event>
 4    1  0.5980424E-004  0.2588196E+03  0.7818608E-02  0.1107854E+00
          2   -1    0    0  501    0  0.00000000000E+00  0.00000000000E+00  0.58517830304E+03  0.58517830304E+03  0.25500000000E-02 0.  1.
         -2   -1    0    0    0  501 -0.00000000000E+00 -0.00000000000E+00 -0.28618461312E+02  0.28618461426E+02  0.25500000000E-02 0. -1.
    5000001    1    1    2    0    0  0.29072579567E+02  0.86781132046E+02  0.16109397243E+03  0.20064009498E+03  0.77000000000E+02 0.  0.
   -5000001    1    1    2    0    0 -0.29072579567E+02 -0.86781132046E+02  0.39546586930E+03  0.41315666949E+03  0.77000000000E+02 0.  0.
<mgrwt>
<rscale>  0 0.25881965E+03</rscale>
<asrwt>0</asrwt>
<pdfrwt beam="1">  1        2 0.90027422E-01 0.25881965E+03</pdfrwt>
<pdfrwt beam="2">  1       -2 0.44028407E-02 0.25881965E+03</pdfrwt>
<totfact> 0.12243997E+04</totfact>
</mgrwt>
</event>
<event>
 4    1  0.5980424E-004  0.1811385E+03  0.7818608E-02  0.1166706E+00
         -2   -1    0    0    0  501 -0.00000000000E+00  0.00000000000E+00  0.28930873256E+01  0.28930884494E+01  0.25500000000E-02 0. -1.
          2   -1    0    0  501    0  0.00000000000E+00 -0.00000000000E+00 -0.28353067273E+04  0.28353067273E+04  0.25500000000E-02 0.  1.
    5000001    1    1    2    0    0  0.43600204888E+02  0.19253879407E+02 -0.14389226892E+04  0.14417694667E+04  0.77000000000E+02 0.  0.
   -5000001    1    1    2    0    0 -0.43600204888E+02 -0.19253879407E+02 -0.13934909508E+04  0.13964303490E+04  0.77000000000E+02 0.  0.
<mgrwt>
<rscale>  0 0.18113853E+03</rscale>
<asrwt>0</asrwt>
<pdfrwt beam="1">  1        2 0.43619881E+00 0.18113853E+03</pdfrwt>
<pdfrwt beam="2">  1       -2 0.44509271E-03 0.18113853E+03</pdfrwt>
<totfact> 0.17719562E+04</totfact>
</mgrwt>
</event>
<event>
 4    1  0.5980424E-004  0.3066365E+03  0.7818608E-02  0.1081969E+00
         -2   -1    0    0    0  501 -0.00000000000E+00  0.00000000000E+00  0.44132290920E+02  0.44132290993E+02  0.25500000000E-02 0. -1.
          2   -1    0    0  501    0  0.00000000000E+00 -0.00000000000E+00 -0.53263703438E+03  0.53263703439E+03  0.25500000000E-02 0.  1.
    5000001    1    1    2    0    0 -0.52415837614E+02 -0.11889701037E+03 -0.29378877609E+03  0.33034037607E+03  0.77000000000E+02 0.  0.
   -5000001    1    1    2    0    0  0.52415837614E+02  0.11889701037E+03 -0.19471596737E+03  0.24642894931E+03  0.77000000000E+02 0.  0.
<mgrwt>
<rscale>  0 0.30663654E+03</rscale>
<asrwt>0</asrwt>
<pdfrwt beam="1">  1        2 0.81944155E-01 0.30663654E+03</pdfrwt>
<pdfrwt beam="2">  1       -2 0.67895836E-02 0.30663654E+03</pdfrwt>
<totfact> 0.70763863E+03</totfact>
</mgrwt>
</event>
<event>
 4    1  0.5980424E-004  0.2244863E+03  0.7818608E-02  0.1130582E+00
          2   -1    0    0  501    0  0.00000000000E+00  0.00000000000E+00  0.64708365857E+02  0.64708365907E+02  0.25500000000E-02 0.  1.
         -2   -1    0    0    0  501 -0.00000000000E+00 -0.00000000000E+00 -0.19469701936E+03  0.19469701937E+03  0.25500000000E-02 0. -1.
    5000001    1    1    2    0    0  0.55173732288E+02 -0.24894467108E+02 -0.16426109978E+01  0.97956997698E+02  0.77000000000E+02 0.  0.
   -5000001    1    1    2    0    0 -0.55173732288E+02  0.24894467108E+02 -0.12834604250E+03  0.16144838758E+03  0.77000000000E+02 0.  0.
<mgrwt>
<rscale>  0 0.22448631E+03</rscale>
<asrwt>0</asrwt>
<pdfrwt beam="1">  1        2 0.99551333E-02 0.22448631E+03</pdfrwt>
<pdfrwt beam="2">  1       -2 0.29953387E-01 0.22448631E+03</pdfrwt>
<totfact> 0.64792471E+03</totfact>
</mgrwt>
</event>
<event>
 4    1  0.5980424E-004  0.1953401E+03  0.7818608E-02  0.1153731E+00
         -2   -1    0    0    0  501 -0.00000000000E+00  0.00000000000E+00  0.22133790362E+02  0.22133790509E+02  0.25500000000E-02 0. -1.
          2   -1    0    0  501    0  0.00000000000E+00 -0.00000000000E+00 -0.43098977096E+03  0.43098977097E+03  0.25500000000E-02 0.  1.
    5000001    1    1    2    0    0 -0.31239138247E+01  0.59211103005E+02 -0.22700438750E+03  0.24693259303E+03  0.77000000000E+02 0.  0.
   -5000001    1    1    2    0    0  0.31239138247E+01 -0.59211103005E+02 -0.18185159310E+03  0.20619096845E+03  0.77000000000E+02 0.  0.
<mgrwt>
<rscale>  0 0.19534009E+03</rscale>
<asrwt>0</asrwt>
<pdfrwt beam="1">  1        2 0.66306113E-01 0.19534009E+03</pdfrwt>
<pdfrwt beam="2">  1       -2 0.34051988E-02 0.19534009E+03</pdfrwt>
<totfact> 0.24884506E+04</totfact>
</mgrwt>
</event>
<event>
 4    1  0.5980424E-004  0.1959892E+03  0.7818608E-02  0.1153168E+00
         -2   -1    0    0    0  501 -0.00000000000E+00  0.00000000000E+00  0.11535129411E+03  0.11535129414E+03  0.25500000000E-02 0. -1.
          2   -1    0    0  501    0  0.00000000000E+00 -0.00000000000E+00 -0.83249542263E+02  0.83249542302E+02  0.25500000000E-02 0.  1.
    5000001    1    1    2    0    0  0.34355495926E+02 -0.48807074507E+02  0.53502455153E+01  0.97570773028E+02  0.77000000000E+02 0.  0.
   -5000001    1    1    2    0    0 -0.34355495926E+02  0.48807074507E+02  0.26751506335E+02  0.10103006341E+03  0.77000000000E+02 0.  0.
<mgrwt>
<rscale>  0 0.19598921E+03</rscale>
<asrwt>0</asrwt>
<pdfrwt beam="1">  1        2 0.12807622E-01 0.19598921E+03</pdfrwt>
<pdfrwt beam="2">  1       -2 0.17746353E-01 0.19598921E+03</pdfrwt>
<totfact> 0.11744152E+04</totfact>
</mgrwt>
</event>
<event>
 4    1  0.5980424E-004  0.2062237E+03  0.7818608E-02  0.1144592E+00
         -2   -1    0    0    0  501 -0.00000000000E+00  0.00000000000E+00  0.78848043867E+02  0.78848043908E+02  0.25500000000E-02 0. -1.
          2   -1    0    0  501    0  0.00000000000E+00 -0.00000000000E+00 -0.13484237774E+03  0.13484237776E+03  0.25500000000E-02 0.  1.
    5000001    1    1    2    0    0 -0.58931435953E+02  0.31425421188E+02 -0.44136281156E+02  0.11107422093E+03  0.77000000000E+02 0.  0.
   -5000001    1    1    2    0    0  0.58931435953E+02 -0.31425421188E+02 -0.11858052713E+02  0.10261620074E+03  0.77000000000E+02 0.  0.
<mgrwt>
<rscale>  0 0.20622374E+03</rscale>
<asrwt>0</asrwt>
<pdfrwt beam="1">  1        2 0.20744981E-01 0.20622374E+03</pdfrwt>
<pdfrwt beam="2">  1       -2 0.12130468E-01 0.20622374E+03</pdfrwt>
<totfact> 0.12528283E+04</totfact>
</mgrwt>
</event>
<event>
 4    1  0.5980424E-004  0.2558566E+03  0.7818608E-02  0.1109659E+00
          2   -1    0    0  501    0  0.00000000000E+00  0.00000000000E+00  0.61219128536E+03  0.61219128536E+03  0.25500000000E-02 0.  1.
         -2   -1    0    0    0  501 -0.00000000000E+00 -0.00000000000E+00 -0.26732901573E+02  0.26732901695E+02  0.25500000000E-02 0. -1.
    5000001    1    1    2    0    0 -0.15924057298E+01  0.10059350652E+03  0.33705426075E+03  0.36007799711E+03  0.77000000000E+02 0.  0.
   -5000001    1    1    2    0    0  0.15924057298E+01 -0.10059350652E+03  0.24840412303E+03  0.27884618995E+03  0.77000000000E+02 0.  0.
<mgrwt>
<rscale>  0 0.25585660E+03</rscale>
<asrwt>0</asrwt>
<pdfrwt beam="1">  1        2 0.94183273E-01 0.25585660E+03</pdfrwt>
<pdfrwt beam="2">  1       -2 0.41127542E-02 0.25585660E+03</pdfrwt>
<totfact> 0.12870281E+04</totfact>
</mgrwt>
</event>
<event>
 4    1  0.5980424E-004  0.6534336E+03  0.7818608E-02  0.9800358E-01
         -2   -1    0    0    0  501 -0.00000000000E+00  0.00000000000E+00  0.21012592022E+03  0.21012592023E+03  0.25500000000E-02 0. -1.
          2   -1    0    0  501    0  0.00000000000E+00 -0.00000000000E+00 -0.50799950526E+03  0.50799950527E+03  0.25500000000E-02 0.  1.
    5000001    1    1    2    0    0 -0.24328655280E+03  0.17803761073E+03 -0.39426646553E+02  0.31363864250E+03  0.77000000000E+02 0.  0.
   -5000001    1    1    2    0    0  0.24328655280E+03 -0.17803761073E+03 -0.25844693849E+03  0.40448678301E+03  0.77000000000E+02 0.  0.
<mgrwt>
<rscale>  0 0.65343359E+03</rscale>
<asrwt>0</asrwt>
<pdfrwt beam="1">  1        2 0.78153770E-01 0.65343359E+03</pdfrwt>
<pdfrwt beam="2">  1       -2 0.32327065E-01 0.65343359E+03</pdfrwt>
<totfact> 0.54221989E+02</totfact>
</mgrwt>
</event>
<event>
 4    1  0.5980424E-004  0.1921240E+03  0.7818608E-02  0.1156559E+00
         -2   -1    0    0    0  501 -0.00000000000E+00  0.00000000000E+00  0.26523462159E+02  0.26523462282E+02  0.25500000000E-02 0. -1.
          2   -1    0    0  501    0  0.00000000000E+00 -0.00000000000E+00 -0.34791494004E+03  0.34791494005E+03  0.25500000000E-02 0.  1.
    5000001    1    1    2    0    0  0.45697687124E+02  0.25471784597E+02 -0.11450055480E+03  0.14756851788E+03  0.77000000000E+02 0.  0.
   -5000001    1    1    2    0    0 -0.45697687124E+02 -0.25471784597E+02 -0.20689092308E+03  0.22686988445E+03  0.77000000000E+02 0.  0.
<mgrwt>
<rscale>  0 0.19212401E+03</rscale>
<asrwt>0</asrwt>
<pdfrwt beam="1">  1        2 0.53525372E-01 0.19212401E+03</pdfrwt>
<pdfrwt beam="2">  1       -2 0.40805329E-02 0.19212401E+03</pdfrwt>
<totfact> 0.23898471E+04</totfact>
</mgrwt>
</event>
<event>
 4    1  0.5980424E-004  0.1838793E+03  0.7818608E-02  0.1164101E+00
          2   -1    0    0  501    0  0.00000000000E+00  0.00000000000E+00  0.28201615569E+02  0.28201615685E+02  0.25500000000E-02 0.  1.
         -2   -1    0    0    0  501 -0.00000000000E+00 -0.00000000000E+00 -0.29973099280E+03  0.29973099281E+03  0.25500000000E-02 0. -1.
    5000001    1    1    2    0    0 -0.26077847800E+02 -0.23489459086E+02 -0.71658778197E+02  0.11088638026E+03  0.77000000000E+02 0.  0.
   -5000001    1    1    2    0    0  0.26077847800E+02  0.23489459086E+02 -0.19987059904E+03  0.21704622824E+03  0.77000000000E+02 0.  0.
<mgrwt>
<rscale>  0 0.18387929E+03</rscale>
<asrwt>0</asrwt>
<pdfrwt beam="1">  1        2 0.43387103E-02 0.18387929E+03</pdfrwt>
<pdfrwt beam="2">  1       -2 0.46112458E-01 0.18387929E+03</pdfrwt>
<totfact> 0.82772030E+03</totfact>
</mgrwt>
</event>
<event>
 4    1  0.5980424E-004  0.2092639E+03  0.7818608E-02  0.1142150E+00
          2   -1    0    0  501    0  0.00000000000E+00  0.00000000000E+00  0.28861879313E+02  0.28861879426E+02  0.25500000000E-02 0.  1.
         -2   -1    0    0    0  501 -0.00000000000E+00 -0.00000000000E+00 -0.37931833243E+03  0.37931833243E+03  0.25500000000E-02 0. -1.
    5000001    1    1    2    0    0 -0.44462824281E+02 -0.35268630010E+02 -0.25793767126E+03  0.27510300118E+03  0.77000000000E+02 0.  0.
   -5000001    1    1    2    0    0  0.44462824281E+02  0.35268630010E+02 -0.92518781854E+02  0.13307721068E+03  0.77000000000E+02 0.  0.
<mgrwt>
<rscale>  0 0.20926385E+03</rscale>
<asrwt>0</asrwt>
<pdfrwt beam="1">  1        2 0.44402894E-02 0.20926385E+03</pdfrwt>
<pdfrwt beam="2">  1       -2 0.58356663E-01 0.20926385E+03</pdfrwt>
<totfact> 0.50522584E+03</totfact>
</mgrwt>
</event>
<event>
 4    1  0.5980424E-004  0.4411580E+03  0.7818608E-02  0.1030392E+00
          2   -1    0    0  501    0  0.00000000000E+00  0.00000000000E+00  0.70854479607E+03  0.70854479607E+03  0.25500000000E-02 0. -1.
         -2   -1    0    0    0  501 -0.00000000000E+00 -0.00000000000E+00 -0.68669048538E+02  0.68669048586E+02  0.25500000000E-02 0.  1.
    5000001    1    1    2    0    0 -0.44069227317E+02  0.20179079883E+03  0.33408400680E+03  0.40025335338E+03  0.77000000000E+02 0.  0.
   -5000001    1    1    2    0    0  0.44069227317E+02 -0.20179079883E+03  0.30579174073E+03  0.37696049128E+03  0.77000000000E+02 0.  0.
<mgrwt>
<rscale>  0 0.44115801E+03</rscale>
<asrwt>0</asrwt>
<pdfrwt beam="1">  1        2 0.10900690E+00 0.44115801E+03</pdfrwt>
<pdfrwt beam="2">  1       -2 0.10564468E-01 0.44115801E+03</pdfrwt>
<totfact> 0.25232683E+03</totfact>
</mgrwt>
</event>
<event>
 4    1  0.5980424E-004  0.1846960E+03  0.7818608E-02  0.1163334E+00
         -2   -1    0    0    0  501 -0.00000000000E+00  0.00000000000E+00  0.48569850085E+02  0.48569850152E+02  0.25500000000E-02 0. -1.
          2   -1    0    0  501    0  0.00000000000E+00 -0.00000000000E+00 -0.17558542329E+03  0.17558542331E+03  0.25500000000E-02 0.  1.
    5000001    1    1    2    0    0  0.45228017107E+02 -0.20372824499E+02 -0.49223232178E+02  0.10398342222E+03  0.77000000000E+02 0.  0.
   -5000001    1    1    2    0    0 -0.45228017107E+02  0.20372824499E+02 -0.77792341029E+02  0.12017185125E+03  0.77000000000E+02 0.  0.
<mgrwt>
<rscale>  0 0.18469605E+03</rscale>
<asrwt>0</asrwt>
<pdfrwt beam="1">  1        2 0.27013142E-01 0.18469605E+03</pdfrwt>
<pdfrwt beam="2">  1       -2 0.74722848E-02 0.18469605E+03</pdfrwt>
<totfact> 0.19851673E+04</totfact>
</mgrwt>
</event>
<event>
 4    1  0.5980424E-004  0.3281868E+03  0.7818608E-02  0.1071942E+00
          2   -1    0    0  501    0  0.00000000000E+00  0.00000000000E+00  0.98141900475E+03  0.98141900475E+03  0.25500000000E-02 0.  1.
         -2   -1    0    0    0  501 -0.00000000000E+00 -0.00000000000E+00 -0.27436439962E+02  0.27436440081E+02  0.25500000000E-02 0. -1.
    5000001    1    1    2    0    0  0.94656723125E+02 -0.63376916913E+02  0.20167924397E+03  0.24409024208E+03  0.77000000000E+02 0.  0.
   -5000001    1    1    2    0    0 -0.94656723125E+02  0.63376916913E+02  0.75230332082E+03  0.76476520275E+03  0.77000000000E+02 0.  0.
<mgrwt>
<rscale>  0 0.32818680E+03</rscale>
<asrwt>0</asrwt>
<pdfrwt beam="1">  1        2 0.15098754E+00 0.32818680E+03</pdfrwt>
<pdfrwt beam="2">  1       -2 0.42209908E-02 0.32818680E+03</pdfrwt>
<totfact> 0.68525829E+03</totfact>
</mgrwt>
</event>
<event>
 4    1  0.5980424E-004  0.2060368E+03  0.7818608E-02  0.1144743E+00
         -2   -1    0    0    0  501 -0.00000000000E+00  0.00000000000E+00  0.26206899617E+02  0.26206899741E+02  0.25500000000E-02 0. -1.
          2   -1    0    0  501    0  0.00000000000E+00 -0.00000000000E+00 -0.40496180625E+03  0.40496180626E+03  0.25500000000E-02 0.  1.
    5000001    1    1    2    0    0  0.47908760491E+02  0.46488223175E+01 -0.29118859850E+03  0.30501911543E+03  0.77000000000E+02 0.  0.
   -5000001    1    1    2    0    0 -0.47908760491E+02 -0.46488223175E+01 -0.87566308132E+02  0.12614959057E+03  0.77000000000E+02 0.  0.
<mgrwt>
<rscale>  0 0.20603683E+03</rscale>
<asrwt>0</asrwt>
<pdfrwt beam="1">  1        2 0.62301812E-01 0.20603683E+03</pdfrwt>
<pdfrwt beam="2">  1       -2 0.40318310E-02 0.20603683E+03</pdfrwt>
<totfact> 0.20772705E+04</totfact>
</mgrwt>
</event>
<event>
 4    1  0.5980424E-004  0.2324408E+03  0.7818608E-02  0.1124934E+00
         -2   -1    0    0    0  501 -0.00000000000E+00  0.00000000000E+00  0.64640462116E+01  0.64640467145E+01  0.25500000000E-02 0. -1.
          2   -1    0    0  501    0  0.00000000000E+00 -0.00000000000E+00 -0.20895865036E+04  0.20895865036E+04  0.25500000000E-02 0.  1.
    5000001    1    1    2    0    0  0.60856479310E+02  0.20593116167E+02 -0.15712691270E+04  0.15744660228E+04  0.77000000000E+02 0.  0.
   -5000001    1    1    2    0    0 -0.60856479310E+02 -0.20593116167E+02 -0.51185333036E+03  0.52158452748E+03  0.77000000000E+02 0.  0.
<mgrwt>
<rscale>  0 0.23244082E+03</rscale>
<asrwt>0</asrwt>
<pdfrwt beam="1">  1        2 0.32147431E+00 0.23244082E+03</pdfrwt>
<pdfrwt beam="2">  1       -2 0.99447035E-03 0.23244082E+03</pdfrwt>
<totfact> 0.14262506E+04</totfact>
</mgrwt>
</event>
<event>
 4    1  0.5980424E-004  0.2395338E+03  0.7818608E-02  0.1120104E+00
         -2   -1    0    0    0  501 -0.00000000000E+00  0.00000000000E+00  0.23379906209E+02  0.23379906348E+02  0.25500000000E-02 0. -1.
          2   -1    0    0  501    0  0.00000000000E+00 -0.00000000000E+00 -0.61352312892E+03  0.61352312893E+03  0.25500000000E-02 0.  1.
    5000001    1    1    2    0    0  0.73671816600E+02 -0.42031227047E+02 -0.38798020385E+03  0.40453899588E+03  0.77000000000E+02 0.  0.
   -5000001    1    1    2    0    0 -0.73671816600E+02  0.42031227047E+02 -0.20216301886E+03  0.23236403939E+03  0.77000000000E+02 0.  0.
<mgrwt>
<rscale>  0 0.23953382E+03</rscale>
<asrwt>0</asrwt>
<pdfrwt beam="1">  1        2 0.94388161E-01 0.23953382E+03</pdfrwt>
<pdfrwt beam="2">  1       -2 0.35969091E-02 0.23953382E+03</pdfrwt>
<totfact> 0.15645157E+04</totfact>
</mgrwt>
</event>
<event>
 4    1  0.5980424E-004  0.1898692E+03  0.7818608E-02  0.1158579E+00
         -2   -1    0    0    0  501 -0.00000000000E+00  0.00000000000E+00  0.29346951078E+01  0.29346962157E+01  0.25500000000E-02 0. -1.
          2   -1    0    0  501    0  0.00000000000E+00 -0.00000000000E+00 -0.30710421228E+04  0.30710421228E+04  0.25500000000E-02 0.  1.
    5000001    1    1    2    0    0  0.27614484068E+02 -0.39708188464E+02 -0.19757386680E+04  0.19778300190E+04  0.77000000000E+02 0.  0.
   -5000001    1    1    2    0    0 -0.27614484068E+02  0.39708188464E+02 -0.10923687597E+04  0.10961468000E+04  0.77000000000E+02 0.  0.
<mgrwt>
<rscale>  0 0.18986915E+03</rscale>
<asrwt>0</asrwt>
<pdfrwt beam="1">  1        2 0.47246545E+00 0.18986915E+03</pdfrwt>
<pdfrwt beam="2">  1       -2 0.45149409E-03 0.18986915E+03</pdfrwt>
<totfact> 0.12681503E+04</totfact>
</mgrwt>
</event>
<event>
 4    1  0.5980424E-004  0.2188032E+03  0.7818608E-02  0.1134778E+00
          2   -1    0    0  501    0  0.00000000000E+00  0.00000000000E+00  0.58300583484E+03  0.58300583485E+03  0.25500000000E-02 0.  1.
         -2   -1    0    0    0  501 -0.00000000000E+00 -0.00000000000E+00 -0.20529306862E+02  0.20529307020E+02  0.25500000000E-02 0. -1.
    5000001    1    1    2    0    0  0.21996526121E+02 -0.57102586020E+02  0.14909202223E+03  0.17861126388E+03  0.77000000000E+02 0.  0.
   -5000001    1    1    2    0    0 -0.21996526121E+02  0.57102586020E+02  0.41338450575E+03  0.42492387799E+03  0.77000000000E+02 0.  0.
<mgrwt>
<rscale>  0 0.21880316E+03</rscale>
<asrwt>0</asrwt>
<pdfrwt beam="1">  1        2 0.89693216E-01 0.21880316E+03</pdfrwt>
<pdfrwt beam="2">  1       -2 0.31583545E-02 0.21880316E+03</pdfrwt>
<totfact> 0.20037306E+04</totfact>
</mgrwt>
</event>
<event>
 4    1  0.5980424E-004  0.1882535E+03  0.7818608E-02  0.1160046E+00
          2   -1    0    0  501    0  0.00000000000E+00  0.00000000000E+00  0.10747302665E+04  0.10747302665E+04  0.25500000000E-02 0.  1.
         -2   -1    0    0    0  501 -0.00000000000E+00 -0.00000000000E+00 -0.82437871265E+01  0.82437875209E+01  0.25500000000E-02 0. -1.
    5000001    1    1    2    0    0  0.31966292566E+02 -0.47147204006E+01  0.28336121392E+03  0.29540929235E+03  0.77000000000E+02 0.  0.
   -5000001    1    1    2    0    0 -0.31966292566E+02  0.47147204006E+01  0.78312526545E+03  0.78756476167E+03  0.77000000000E+02 0.  0.
<mgrwt>
<rscale>  0 0.18825353E+03</rscale>
<asrwt>0</asrwt>
<pdfrwt beam="1">  1        2 0.16534319E+00 0.18825353E+03</pdfrwt>
<pdfrwt beam="2">  1       -2 0.12682744E-02 0.18825353E+03</pdfrwt>
<totfact> 0.34685158E+04</totfact>
</mgrwt>
</event>
<event>
 4    1  0.5980424E-004  0.3404849E+03  0.7818608E-02  0.1066590E+00
         -2   -1    0    0    0  501 -0.00000000000E+00  0.00000000000E+00  0.20777355417E+03  0.20777355419E+03  0.25500000000E-02 0. -1.
          2   -1    0    0  501    0  0.00000000000E+00 -0.00000000000E+00 -0.13949079302E+03  0.13949079304E+03  0.25500000000E-02 0.  1.
    5000001    1    1    2    0    0  0.14273182172E+03 -0.28082682650E+02  0.78510299365E+02  0.18235645616E+03  0.77000000000E+02 0.  0.
   -5000001    1    1    2    0    0 -0.14273182172E+03  0.28082682650E+02 -0.10227538210E+02  0.16490789106E+03  0.77000000000E+02 0.  0.
<mgrwt>
<rscale>  0 0.34048494E+03</rscale>
<asrwt>0</asrwt>
<pdfrwt beam="1">  1        2 0.21460122E-01 0.34048494E+03</pdfrwt>
<pdfrwt beam="2">  1       -2 0.31965162E-01 0.34048494E+03</pdfrwt>
<totfact> 0.23380748E+03</totfact>
</mgrwt>
</event>
<event>
 4    1  0.5980424E-004  0.2854368E+03  0.7818608E-02  0.1092756E+00
         -2   -1    0    0    0  501 -0.00000000000E+00  0.00000000000E+00  0.62082042403E+02  0.62082042455E+02  0.25500000000E-02 0. -1.
          2   -1    0    0  501    0  0.00000000000E+00 -0.00000000000E+00 -0.32809069595E+03  0.32809069596E+03  0.25500000000E-02 0.  1.
    5000001    1    1    2    0    0 -0.80090414617E+02 -0.64436662306E+02 -0.21807301589E+03  0.25308377708E+03  0.77000000000E+02 0.  0.
   -5000001    1    1    2    0    0  0.80090414617E+02  0.64436662306E+02 -0.47935637661E+02  0.13708896134E+03  0.77000000000E+02 0.  0.
<mgrwt>
<rscale>  0 0.28543679E+03</rscale>
<asrwt>0</asrwt>
<pdfrwt beam="1">  1        2 0.50475491E-01 0.28543679E+03</pdfrwt>
<pdfrwt beam="2">  1       -2 0.95510836E-02 0.28543679E+03</pdfrwt>
<totfact> 0.70460050E+03</totfact>
</mgrwt>
</event>
<event>
 4    1  0.5980424E-004  0.2768701E+03  0.7818608E-02  0.1097411E+00
          2   -1    0    0  501    0  0.00000000000E+00  0.00000000000E+00  0.13685282340E+04  0.13685282340E+04  0.25500000000E-02 0.  1.
         -2   -1    0    0    0  501 -0.00000000000E+00 -0.00000000000E+00 -0.14003558196E+02  0.14003558428E+02  0.25500000000E-02 0. -1.
    5000001    1    1    2    0    0  0.83872737673E+02  0.76123893508E+02  0.57667455267E+03  0.59271580288E+03  0.77000000000E+02 0.  0.
   -5000001    1    1    2    0    0 -0.83872737673E+02 -0.76123893508E+02  0.77785012312E+03  0.78981598954E+03  0.77000000000E+02 0.  0.
<mgrwt>
<rscale>  0 0.27687011E+03</rscale>
<asrwt>0</asrwt>
<pdfrwt beam="1">  1        2 0.21054284E+00 0.27687011E+03</pdfrwt>
<pdfrwt beam="2">  1       -2 0.21543932E-02 0.27687011E+03</pdfrwt>
<totfact> 0.11135927E+04</totfact>
</mgrwt>
</event>
<event>
 4    1  0.5980424E-004  0.2137402E+03  0.7818608E-02  0.1138638E+00
          2   -1    0    0  501    0  0.00000000000E+00  0.00000000000E+00  0.39042535798E+02  0.39042535881E+02  0.25500000000E-02 0.  1.
         -2   -1    0    0    0  501 -0.00000000000E+00 -0.00000000000E+00 -0.29253261520E+03  0.29253261521E+03  0.25500000000E-02 0. -1.
    5000001    1    1    2    0    0  0.19793838264E+02  0.43041191059E+02 -0.21515383546E+03  0.23337633358E+03  0.77000000000E+02 0.  0.
   -5000001    1    1    2    0    0 -0.19793838264E+02 -0.43041191059E+02 -0.38336243938E+02  0.98198817510E+02  0.77000000000E+02 0.  0.
<mgrwt>
<rscale>  0 0.21374017E+03</rscale>
<asrwt>0</asrwt>
<pdfrwt beam="1">  1        2 0.60065442E-02 0.21374017E+03</pdfrwt>
<pdfrwt beam="2">  1       -2 0.45005016E-01 0.21374017E+03</pdfrwt>
<totfact> 0.57185935E+03</totfact>
</mgrwt>
</event>
<event>
 4    1  0.5980424E-004  0.3938640E+03  0.7818608E-02  0.1045925E+00
          2   -1    0    0  501    0  0.00000000000E+00  0.00000000000E+00  0.10984621288E+04  0.10984621288E+04  0.25500000000E-02 0.  1.
         -2   -1    0    0    0  501 -0.00000000000E+00 -0.00000000000E+00 -0.35305912050E+02  0.35305912142E+02  0.25500000000E-02 0. -1.
    5000001    1    1    2    0    0 -0.44680474208E+02  0.12777819758E+03  0.18459789908E+03  0.24151396833E+03  0.77000000000E+02 0.  0.
   -5000001    1    1    2    0    0  0.44680474208E+02 -0.12777819758E+03  0.87855831765E+03  0.89225407260E+03  0.77000000000E+02 0.  0.
<mgrwt>
<rscale>  0 0.39386397E+03</rscale>
<asrwt>0</asrwt>
<pdfrwt beam="1">  1        2 0.16899419E+00 0.39386397E+03</pdfrwt>
<pdfrwt beam="2">  1       -2 0.54316782E-02 0.39386397E+03</pdfrwt>
<totfact> 0.39643054E+03</totfact>
</mgrwt>
</event>
<event>
 4    1  0.5980424E-004  0.2040677E+03  0.7818608E-02  0.1146352E+00
         -2   -1    0    0    0  501 -0.00000000000E+00  0.00000000000E+00  0.66723331751E+01  0.66723336624E+01  0.25500000000E-02 0. -1.
          2   -1    0    0  501    0  0.00000000000E+00 -0.00000000000E+00 -0.15603096356E+04  0.15603096356E+04  0.25500000000E-02 0.  1.
    5000001    1    1    2    0    0  0.51513251114E+02 -0.36118207989E+02 -0.60108357758E+03  0.60925249874E+03  0.77000000000E+02 0.  0.
   -5000001    1    1    2    0    0 -0.51513251114E+02  0.36118207989E+02 -0.95255372483E+03  0.95772947051E+03  0.77000000000E+02 0.  0.
<mgrwt>
<rscale>  0 0.20406770E+03</rscale>
<asrwt>0</asrwt>
<pdfrwt beam="1">  1        2 0.24004735E+00 0.20406770E+03</pdfrwt>
<pdfrwt beam="2">  1       -2 0.10265141E-02 0.20406770E+03</pdfrwt>
<totfact> 0.25619920E+04</totfact>
</mgrwt>
</event>
<event>
 4    1  0.5980424E-004  0.2618191E+03  0.7818608E-02  0.1106055E+00
         -2   -1    0    0    0  501 -0.00000000000E+00  0.00000000000E+00  0.15402909119E+02  0.15402909330E+02  0.25500000000E-02 0. -1.
          2   -1    0    0  501    0  0.00000000000E+00 -0.00000000000E+00 -0.11126025472E+04  0.11126025472E+04  0.25500000000E-02 0.  1.
    5000001    1    1    2    0    0  0.16088536437E+02  0.10013878283E+03 -0.41780082334E+03  0.43677585192E+03  0.77000000000E+02 0.  0.
   -5000001    1    1    2    0    0 -0.16088536437E+02 -0.10013878283E+03 -0.67939881471E+03  0.69122960459E+03  0.77000000000E+02 0.  0.
<mgrwt>
<rscale>  0 0.26181914E+03</rscale>
<asrwt>0</asrwt>
<pdfrwt beam="1">  1        2 0.17116956E+00 0.26181914E+03</pdfrwt>
<pdfrwt beam="2">  1       -2 0.23696792E-02 0.26181914E+03</pdfrwt>
<totfact> 0.13458673E+04</totfact>
</mgrwt>
</event>
<event>
 4    1  0.5980424E-004  0.3862125E+03  0.7818608E-02  0.1048661E+00
         -2   -1    0    0    0  501 -0.00000000000E+00  0.00000000000E+00  0.22034943360E+03  0.22034943361E+03  0.25500000000E-02 0. -1.
          2   -1    0    0  501    0  0.00000000000E+00 -0.00000000000E+00 -0.16923130113E+03  0.16923130115E+03  0.25500000000E-02 0.  1.
    5000001    1    1    2    0    0 -0.91079673189E+02 -0.22018882308E+02  0.17713829764E+03  0.21467956245E+03  0.77000000000E+02 0.  0.
   -5000001    1    1    2    0    0  0.91079673189E+02  0.22018882308E+02 -0.12602016516E+03  0.17490117231E+03  0.77000000000E+02 0.  0.
<mgrwt>
<rscale>  0 0.38621249E+03</rscale>
<asrwt>0</asrwt>
<pdfrwt beam="1">  1        2 0.26035585E-01 0.38621249E+03</pdfrwt>
<pdfrwt beam="2">  1       -2 0.33899913E-01 0.38621249E+03</pdfrwt>
<totfact> 0.16869480E+03</totfact>
</mgrwt>
</event>
<event>
 4    1  0.5980424E-004  0.1783816E+03  0.7818608E-02  0.1169379E+00
         -2   -1    0    0    0  501 -0.00000000000E+00  0.00000000000E+00  0.18573997549E+02  0.18573997724E+02  0.25500000000E-02 0. -1.
          2   -1    0    0  501    0  0.00000000000E+00 -0.00000000000E+00 -0.42828681656E+03  0.42828681657E+03  0.25500000000E-02 0.  1.
    5000001    1    1    2    0    0 -0.43079791055E+02  0.74353197525E+01 -0.17801038000E+03  0.19881611546E+03  0.77000000000E+02 0.  0.
   -5000001    1    1    2    0    0  0.43079791055E+02 -0.74353197525E+01 -0.23170243901E+03  0.24804469883E+03  0.77000000000E+02 0.  0.
<mgrwt>
<rscale>  0 0.17838159E+03</rscale>
<asrwt>0</asrwt>
<pdfrwt beam="1">  1        2 0.65890272E-01 0.17838159E+03</pdfrwt>
<pdfrwt beam="2">  1       -2 0.28575384E-02 0.17838159E+03</pdfrwt>
<totfact> 0.32238792E+04</totfact>
</mgrwt>
</event>
<event>
 4    1  0.5980424E-004  0.4000512E+03  0.7818608E-02  0.1043762E+00
         -2   -1    0    0    0  501 -0.00000000000E+00  0.00000000000E+00  0.21630744113E+03  0.21630744114E+03  0.25500000000E-02 0. -1.
          2   -1    0    0  501    0  0.00000000000E+00 -0.00000000000E+00 -0.18496934095E+03  0.18496934097E+03  0.25500000000E-02 0.  1.
    5000001    1    1    2    0    0  0.58727008928E+02  0.16786656082E+03 -0.34012484240E+02  0.19675846336E+03  0.77000000000E+02 0.  0.
   -5000001    1    1    2    0    0 -0.58727008928E+02 -0.16786656082E+03  0.65350584420E+02  0.20451831875E+03  0.77000000000E+02 0.  0.
<mgrwt>
<rscale>  0 0.40005122E+03</rscale>
<asrwt>0</asrwt>
<pdfrwt beam="1">  1        2 0.28456822E-01 0.40005122E+03</pdfrwt>
<pdfrwt beam="2">  1       -2 0.33278068E-01 0.40005122E+03</pdfrwt>
<totfact> 0.15812803E+03</totfact>
</mgrwt>
</event>
<event>
 4    1  0.5980424E-004  0.1790414E+03  0.7818608E-02  0.1168734E+00
         -2   -1    0    0    0  501 -0.00000000000E+00  0.00000000000E+00  0.22827024459E+01  0.22827038702E+01  0.25500000000E-02 0. -1.
          2   -1    0    0  501    0  0.00000000000E+00 -0.00000000000E+00 -0.35107318009E+04  0.35107318009E+04  0.25500000000E-02 0.  1.
    5000001    1    1    2    0    0  0.13119403486E+02 -0.43733550656E+02 -0.17450975827E+04  0.17473921470E+04  0.77000000000E+02 0.  0.
   -5000001    1    1    2    0    0 -0.13119403486E+02  0.43733550656E+02 -0.17633515157E+04  0.17656223578E+04  0.77000000000E+02 0.  0.
<mgrwt>
<rscale>  0 0.17904143E+03</rscale>
<asrwt>0</asrwt>
<pdfrwt beam="1">  1        2 0.54010826E+00 0.17904143E+03</pdfrwt>
<pdfrwt beam="2">  1       -2 0.35118791E-03 0.17904143E+03</pdfrwt>
<totfact> 0.96494491E+03</totfact>
</mgrwt>
</event>
<event>
 4    1  0.5980424E-004  0.4242411E+03  0.7818608E-02  0.1035695E+00
          2   -1    0    0  501    0  0.00000000000E+00  0.00000000000E+00  0.12082550338E+04  0.12082550338E+04  0.25500000000E-02 0.  1.
         -2   -1    0    0    0  501 -0.00000000000E+00 -0.00000000000E+00 -0.37239763239E+02  0.37239763326E+02  0.25500000000E-02 0. -1.
    5000001    1    1    2    0    0 -0.18629301727E+03  0.64799150438E+02  0.62288756136E+03  0.65789203694E+03  0.77000000000E+02 0.  0.
   -5000001    1    1    2    0    0  0.18629301727E+03 -0.64799150438E+02  0.54812770921E+03  0.58760276019E+03  0.77000000000E+02 0.  0.
<mgrwt>
<rscale>  0 0.42424112E+03</rscale>
<asrwt>0</asrwt>
<pdfrwt beam="1">  1        2 0.18588538E+00 0.42424112E+03</pdfrwt>
<pdfrwt beam="2">  1       -2 0.57291946E-02 0.42424112E+03</pdfrwt>
<totfact> 0.31480047E+03</totfact>
</mgrwt>
</event>
<event>
 4    1  0.5980424E-004  0.3094658E+03  0.7818608E-02  0.1080602E+00
          2   -1    0    0  501    0  0.00000000000E+00  0.00000000000E+00  0.69447436366E+03  0.69447436367E+03  0.25500000000E-02 0.  1.
         -2   -1    0    0    0  501 -0.00000000000E+00 -0.00000000000E+00 -0.34475389779E+02  0.34475389873E+02  0.25500000000E-02 0. -1.
    5000001    1    1    2    0    0  0.16372320367E+02 -0.11528820905E+03  0.17279942670E+03  0.22214424568E+03  0.77000000000E+02 0.  0.
   -5000001    1    1    2    0    0 -0.16372320367E+02  0.11528820905E+03  0.48719954718E+03  0.50680550786E+03  0.77000000000E+02 0.  0.
<mgrwt>
<rscale>  0 0.30946583E+03</rscale>
<asrwt>0</asrwt>
<pdfrwt beam="1">  1        2 0.10684221E+00 0.30946583E+03</pdfrwt>
<pdfrwt beam="2">  1       -2 0.53039062E-02 0.30946583E+03</pdfrwt>
<totfact> 0.75836346E+03</totfact>
</mgrwt>
</event>
<event>
 4    1  0.5980424E-004  0.2359490E+03  0.7818608E-02  0.1122521E+00
         -2   -1    0    0    0  501 -0.00000000000E+00  0.00000000000E+00  0.39390739530E+02  0.39390739613E+02  0.25500000000E-02 0. -1.
          2   -1    0    0  501    0  0.00000000000E+00 -0.00000000000E+00 -0.35333131831E+03  0.35333131832E+03  0.25500000000E-02 0.  1.
    5000001    1    1    2    0    0 -0.86241621066E+02  0.10463777644E+02 -0.12198250533E+03  0.16839192217E+03  0.77000000000E+02 0.  0.
   -5000001    1    1    2    0    0  0.86241621066E+02 -0.10463777644E+02 -0.19195807345E+03  0.22433013576E+03  0.77000000000E+02 0.  0.
<mgrwt>
<rscale>  0 0.23594899E+03</rscale>
<asrwt>0</asrwt>
<pdfrwt beam="1">  1        2 0.54358662E-01 0.23594899E+03</pdfrwt>
<pdfrwt beam="2">  1       -2 0.60601140E-02 0.23594899E+03</pdfrwt>
<totfact> 0.13096412E+04</totfact>
</mgrwt>
</event>
<event>
 4    1  0.5980424E-004  0.1837233E+03  0.7818608E-02  0.1164247E+00
         -2   -1    0    0    0  501 -0.00000000000E+00  0.00000000000E+00  0.22893303379E+02  0.22893303521E+02  0.25500000000E-02 0. -1.
          2   -1    0    0  501    0  0.00000000000E+00 -0.00000000000E+00 -0.36860404876E+03  0.36860404877E+03  0.25500000000E-02 0.  1.
    5000001    1    1    2    0    0  0.26355169092E+02  0.24031865321E+02 -0.24781482848E+03  0.26194143373E+03  0.77000000000E+02 0.  0.
   -5000001    1    1    2    0    0 -0.26355169092E+02 -0.24031865321E+02 -0.97895916905E+02  0.12955591857E+03  0.77000000000E+02 0.  0.
<mgrwt>
<rscale>  0 0.18372332E+03</rscale>
<asrwt>0</asrwt>
<pdfrwt beam="1">  1        2 0.56708311E-01 0.18372332E+03</pdfrwt>
<pdfrwt beam="2">  1       -2 0.35220470E-02 0.18372332E+03</pdfrwt>
<totfact> 0.27875103E+04</totfact>
</mgrwt>
</event>
<event>
 4    1  0.5980424E-004  0.2705009E+03  0.7818608E-02  0.1100993E+00
          2   -1    0    0  501    0  0.00000000000E+00  0.00000000000E+00  0.20642331334E+04  0.20642331334E+04  0.25500000000E-02 0.  1.
         -2   -1    0    0    0  501 -0.00000000000E+00 -0.00000000000E+00 -0.88617334869E+01  0.88617338538E+01  0.25500000000E-02 0. -1.
    5000001    1    1    2    0    0  0.65088810953E+02  0.40306772879E+02  0.40968285350E+03  0.42382806621E+03  0.77000000000E+02 0.  0.
   -5000001    1    1    2    0    0 -0.65088810953E+02 -0.40306772879E+02  0.16456885464E+04  0.16492668010E+04  0.77000000000E+02 0.  0.
<mgrwt>
<rscale>  0 0.27050090E+03</rscale>
<asrwt>0</asrwt>
<pdfrwt beam="1">  1        2 0.31757430E+00 0.27050090E+03</pdfrwt>
<pdfrwt beam="2">  1       -2 0.13633438E-02 0.27050090E+03</pdfrwt>
<totfact> 0.93221930E+03</totfact>
</mgrwt>
</event>
<event>
 4    1  0.5980424E-004  0.3643631E+03  0.7818608E-02  0.1056869E+00
         -2   -1    0    0    0  501 -0.00000000000E+00  0.00000000000E+00  0.25705330823E+02  0.25705330949E+02  0.25500000000E-02 0. -1.
          2   -1    0    0  501    0  0.00000000000E+00 -0.00000000000E+00 -0.12911763853E+04  0.12911763853E+04  0.25500000000E-02 0.  1.
    5000001    1    1    2    0    0 -0.12815443048E+03 -0.10409082576E+03 -0.62684298237E+03  0.65277835642E+03  0.77000000000E+02 0.  0.
   -5000001    1    1    2    0    0  0.12815443048E+03  0.10409082576E+03 -0.63862807210E+03  0.66410335983E+03  0.77000000000E+02 0.  0.
<mgrwt>
<rscale>  0 0.36436309E+03</rscale>
<asrwt>0</asrwt>
<pdfrwt beam="1">  1        2 0.19864247E+00 0.36436309E+03</pdfrwt>
<pdfrwt beam="2">  1       -2 0.39546673E-02 0.36436309E+03</pdfrwt>
<totfact> 0.49800247E+03</totfact>
</mgrwt>
</event>
<event>
 4    1  0.5980424E-004  0.1853882E+03  0.7818608E-02  0.1162688E+00
         -2   -1    0    0    0  501 -0.00000000000E+00  0.00000000000E+00  0.21271979238E+02  0.21271979391E+02  0.25500000000E-02 0. -1.
          2   -1    0    0  501    0  0.00000000000E+00 -0.00000000000E+00 -0.40392070411E+03  0.40392070411E+03  0.25500000000E-02 0.  1.
    5000001    1    1    2    0    0 -0.26905190700E+02  0.38939920574E+02 -0.14415425558E+03  0.17014598468E+03  0.77000000000E+02 0.  0.
   -5000001    1    1    2    0    0  0.26905190700E+02 -0.38939920574E+02 -0.23849446929E+03  0.25504669882E+03  0.77000000000E+02 0.  0.
<mgrwt>
<rscale>  0 0.18538816E+03</rscale>
<asrwt>0</asrwt>
<pdfrwt beam="1">  1        2 0.62141641E-01 0.18538816E+03</pdfrwt>
<pdfrwt beam="2">  1       -2 0.32726125E-02 0.18538816E+03</pdfrwt>
<totfact> 0.28197134E+04</totfact>
</mgrwt>
</event>
<event>
 4    1  0.5980424E-004  0.2295288E+03  0.7818608E-02  0.1126972E+00
          2   -1    0    0  501    0  0.00000000000E+00  0.00000000000E+00  0.20031041742E+02  0.20031041904E+02  0.25500000000E-02 0.  1.
         -2   -1    0    0    0  501 -0.00000000000E+00 -0.00000000000E+00 -0.65752265507E+03  0.65752265507E+03  0.25500000000E-02 0. -1.
    5000001    1    1    2    0    0 -0.48287254298E+02 -0.69546267955E+02 -0.34405706582E+03  0.36259151514E+03  0.77000000000E+02 0.  0.
   -5000001    1    1    2    0    0  0.48287254298E+02  0.69546267955E+02 -0.29343454750E+03  0.31496218183E+03  0.77000000000E+02 0.  0.
<mgrwt>
<rscale>  0 0.22952877E+03</rscale>
<asrwt>0</asrwt>
<pdfrwt beam="1">  1        2 0.30816992E-02 0.22952877E+03</pdfrwt>
<pdfrwt beam="2">  1       -2 0.10115732E+00 0.22952877E+03</pdfrwt>
<totfact> 0.24949781E+03</totfact>
</mgrwt>
</event>
<event>
 4    1  0.5980424E-004  0.2091618E+03  0.7818608E-02  0.1142231E+00
          2   -1    0    0  501    0  0.00000000000E+00  0.00000000000E+00  0.18619181114E+03  0.18619181116E+03  0.25500000000E-02 0.  1.
         -2   -1    0    0    0  501 -0.00000000000E+00 -0.00000000000E+00 -0.58741408486E+02  0.58741408542E+02  0.25500000000E-02 0. -1.
    5000001    1    1    2    0    0  0.26778932869E+02 -0.64881412875E+02  0.53156098330E+02  0.11696700292E+03  0.77000000000E+02 0.  0.
   -5000001    1    1    2    0    0 -0.26778932869E+02  0.64881412875E+02  0.74294304327E+02  0.12796621678E+03  0.77000000000E+02 0.  0.
<mgrwt>
<rscale>  0 0.20916184E+03</rscale>
<asrwt>0</asrwt>
<pdfrwt beam="1">  1        2 0.28644893E-01 0.20916184E+03</pdfrwt>
<pdfrwt beam="2">  1       -2 0.90371400E-02 0.20916184E+03</pdfrwt>
<totfact> 0.13968723E+04</totfact>
</mgrwt>
</event>
<event>
 4    1  0.5980424E-004  0.2510117E+03  0.7818608E-02  0.1112667E+00
         -2   -1    0    0    0  501 -0.00000000000E+00  0.00000000000E+00  0.12809592555E+02  0.12809592809E+02  0.25500000000E-02 0. -1.
          2   -1    0    0  501    0  0.00000000000E+00 -0.00000000000E+00 -0.12296813487E+04  0.12296813487E+04  0.25500000000E-02 0.  1.
    5000001    1    1    2    0    0  0.90990539124E+01 -0.64103816573E+02 -0.97986640066E+03  0.98501738829E+03  0.77000000000E+02 0.  0.
   -5000001    1    1    2    0    0 -0.90990539124E+01  0.64103816573E+02 -0.23700535546E+03  0.25747355320E+03  0.77000000000E+02 0.  0.
<mgrwt>
<rscale>  0 0.25101169E+03</rscale>
<asrwt>0</asrwt>
<pdfrwt beam="1">  1        2 0.18918165E+00 0.25101169E+03</pdfrwt>
<pdfrwt beam="2">  1       -2 0.19707075E-02 0.25101169E+03</pdfrwt>
<totfact> 0.15109239E+04</totfact>
</mgrwt>
</event>
<event>
 4    1  0.5980424E-004  0.1839815E+03  0.7818608E-02  0.1164004E+00
          2   -1    0    0  501    0  0.00000000000E+00  0.00000000000E+00  0.59157749386E+03  0.59157749386E+03  0.25500000000E-02 0.  1.
         -2   -1    0    0    0  501 -0.00000000000E+00 -0.00000000000E+00 -0.14304628071E+02  0.14304628298E+02  0.25500000000E-02 0. -1.
    5000001    1    1    2    0    0  0.20558979557E+02 -0.45769243554E+02  0.30172685241E+03  0.31541336174E+03  0.77000000000E+02 0.  0.
   -5000001    1    1    2    0    0 -0.20558979557E+02  0.45769243554E+02  0.27554601337E+03  0.29046876042E+03  0.77000000000E+02 0.  0.
<mgrwt>
<rscale>  0 0.18398148E+03</rscale>
<asrwt>0</asrwt>
<pdfrwt beam="1">  1        2 0.91011912E-01 0.18398148E+03</pdfrwt>
<pdfrwt beam="2">  1       -2 0.22007123E-02 0.18398148E+03</pdfrwt>
<totfact> 0.33145080E+04</totfact>
</mgrwt>
</event>
<event>
 4    1  0.5980424E-004  0.2390671E+03  0.7818608E-02  0.1120416E+00
          2   -1    0    0  501    0  0.00000000000E+00  0.00000000000E+00  0.48423447824E+03  0.48423447825E+03  0.25500000000E-02 0.  1.
         -2   -1    0    0    0  501 -0.00000000000E+00 -0.00000000000E+00 -0.29506911674E+02  0.29506911784E+02  0.25500000000E-02 0. -1.
    5000001    1    1    2    0    0 -0.20393548870E+02 -0.58370295050E+02  0.37209911297E+03  0.38498017878E+03  0.77000000000E+02 0.  0.
   -5000001    1    1    2    0    0  0.20393548870E+02  0.58370295050E+02  0.82628453598E+02  0.12876121125E+03  0.77000000000E+02 0.  0.
<mgrwt>
<rscale>  0 0.23906705E+03</rscale>
<asrwt>0</asrwt>
<pdfrwt beam="1">  1        2 0.74497601E-01 0.23906705E+03</pdfrwt>
<pdfrwt beam="2">  1       -2 0.45395255E-02 0.23906705E+03</pdfrwt>
<totfact> 0.14424565E+04</totfact>
</mgrwt>
</event>
<event>
 4    1  0.5980424E-004  0.3636471E+03  0.7818608E-02  0.1057149E+00
          2   -1    0    0  501    0  0.00000000000E+00  0.00000000000E+00  0.48124902822E+03  0.48124902823E+03  0.25500000000E-02 0.  1.
         -2   -1    0    0    0  501 -0.00000000000E+00 -0.00000000000E+00 -0.68695816997E+02  0.68695817044E+02  0.25500000000E-02 0. -1.
    5000001    1    1    2    0    0  0.12937066865E+03  0.24767064118E+01  0.36041213450E+03  0.39060057690E+03  0.77000000000E+02 0.  0.
   -5000001    1    1    2    0    0 -0.12937066865E+03 -0.24767064118E+01  0.52141076727E+02  0.15934426837E+03  0.77000000000E+02 0.  0.
<mgrwt>
<rscale>  0 0.36364706E+03</rscale>
<asrwt>0</asrwt>
<pdfrwt beam="1">  1        2 0.74038308E-01 0.36364706E+03</pdfrwt>
<pdfrwt beam="2">  1       -2 0.10568588E-01 0.36364706E+03</pdfrwt>
<totfact> 0.39644815E+03</totfact>
</mgrwt>
</event>
<event>
 4    1  0.5980424E-004  0.2329116E+03  0.7818608E-02  0.1124607E+00
          2   -1    0    0  501    0  0.00000000000E+00  0.00000000000E+00  0.46048756235E+03  0.46048756235E+03  0.25500000000E-02 0.  1.
         -2   -1    0    0    0  501 -0.00000000000E+00 -0.00000000000E+00 -0.29451281884E+02  0.29451281995E+02  0.25500000000E-02 0. -1.
    5000001    1    1    2    0    0 -0.84097371916E+02 -0.22096019066E+02  0.23341023200E+03  0.26071044939E+03  0.77000000000E+02 0.  0.
   -5000001    1    1    2    0    0  0.84097371916E+02  0.22096019066E+02  0.19762604846E+03  0.22922839495E+03  0.77000000000E+02 0.  0.
<mgrwt>
<rscale>  0 0.23291156E+03</rscale>
<asrwt>0</asrwt>
<pdfrwt beam="1">  1        2 0.70844234E-01 0.23291156E+03</pdfrwt>
<pdfrwt beam="2">  1       -2 0.45309668E-02 0.23291156E+03</pdfrwt>
<totfact> 0.15270707E+04</totfact>
</mgrwt>
</event>
<event>
 4    1  0.5980424E-004  0.3162039E+03  0.7818608E-02  0.1077410E+00
         -2   -1    0    0    0  501 -0.00000000000E+00  0.00000000000E+00  0.46195190577E+02  0.46195190648E+02  0.25500000000E-02 0. -1.
          2   -1    0    0  501    0  0.00000000000E+00 -0.00000000000E+00 -0.54110003530E+03  0.54110003531E+03  0.25500000000E-02 0.  1.
    5000001    1    1    2    0    0  0.12317080440E+03 -0.48756971287E+02 -0.31983902387E+03  0.35464671223E+03  0.77000000000E+02 0.  0.
   -5000001    1    1    2    0    0 -0.12317080440E+03  0.48756971287E+02 -0.17506582086E+03  0.23264851372E+03  0.77000000000E+02 0.  0.
<mgrwt>
<rscale>  0 0.31620385E+03</rscale>
<asrwt>0</asrwt>
<pdfrwt beam="1">  1        2 0.83246154E-01 0.31620385E+03</pdfrwt>
<pdfrwt beam="2">  1       -2 0.71069528E-02 0.31620385E+03</pdfrwt>
<totfact> 0.64800986E+03</totfact>
</mgrwt>
</event>
<event>
 4    1  0.5980424E-004  0.1962802E+03  0.7818608E-02  0.1152916E+00
          2   -1    0    0  501    0  0.00000000000E+00  0.00000000000E+00  0.28184351325E+04  0.28184351325E+04  0.25500000000E-02 0. -1.
         -2   -1    0    0    0  501 -0.00000000000E+00 -0.00000000000E+00 -0.34173135394E+01  0.34173144908E+01  0.25500000000E-02 0.  1.
    5000001    1    1    2    0    0  0.39490254498E+02  0.37913251422E+02  0.17893933016E+04  0.17918856779E+04  0.77000000000E+02 0.  0.
   -5000001    1    1    2    0    0 -0.39490254498E+02 -0.37913251422E+02  0.10256245174E+04  0.10299667691E+04  0.77000000000E+02 0.  0.
<mgrwt>
<rscale>  0 0.19628019E+03</rscale>
<asrwt>0</asrwt>
<pdfrwt beam="1">  1        2 0.43360452E+00 0.19628019E+03</pdfrwt>
<pdfrwt beam="2">  1       -2 0.52574169E-03 0.19628019E+03</pdfrwt>
<totfact> 0.14306256E+04</totfact>
</mgrwt>
</event>
<event>
 4    1  0.5980424E-004  0.2455372E+03  0.7818608E-02  0.1116158E+00
          2   -1    0    0  501    0  0.00000000000E+00  0.00000000000E+00  0.35150024303E+04  0.35150024303E+04  0.25500000000E-02 0.  1.
         -2   -1    0    0    0  501 -0.00000000000E+00 -0.00000000000E+00 -0.42879411349E+01  0.42879418931E+01  0.25500000000E-02 0. -1.
    5000001    1    1    2    0    0  0.50685938005E+02 -0.68859311182E+02  0.23689138247E+04  0.23717066383E+04  0.77000000000E+02 0.  0.
   -5000001    1    1    2    0    0 -0.50685938005E+02  0.68859311182E+02  0.11418006645E+04  0.11475837339E+04  0.77000000000E+02 0.  0.
<mgrwt>
<rscale>  0 0.24553716E+03</rscale>
<asrwt>0</asrwt>
<pdfrwt beam="1">  1        2 0.54076806E+00 0.24553716E+03</pdfrwt>
<pdfrwt beam="2">  1       -2 0.65968519E-03 0.24553716E+03</pdfrwt>
<totfact> 0.38739460E+03</totfact>
</mgrwt>
</event>
<event>
 4    1  0.5980424E-004  0.3615708E+03  0.7818608E-02  0.1057964E+00
         -2   -1    0    0    0  501 -0.00000000000E+00  0.00000000000E+00  0.15022362720E+03  0.15022362722E+03  0.25500000000E-02 0. -1.
          2   -1    0    0  501    0  0.00000000000E+00 -0.00000000000E+00 -0.21756474520E+03  0.21756474521E+03  0.25500000000E-02 0.  1.
    5000001    1    1    2    0    0 -0.58921087279E+02  0.14931679144E+03 -0.65630046720E+02  0.18974588734E+03  0.77000000000E+02 0.  0.
   -5000001    1    1    2    0    0  0.58921087279E+02 -0.14931679144E+03 -0.17110712778E+01  0.17804248509E+03  0.77000000000E+02 0.  0.
<mgrwt>
<rscale>  0 0.36157082E+03</rscale>
<asrwt>0</asrwt>
<pdfrwt beam="1">  1        2 0.33471499E-01 0.36157082E+03</pdfrwt>
<pdfrwt beam="2">  1       -2 0.23111327E-01 0.36157082E+03</pdfrwt>
<totfact> 0.25502686E+03</totfact>
</mgrwt>
</event>
<event>
 4    1  0.5980424E-004  0.3669788E+03  0.7818608E-02  0.1055854E+00
          2   -1    0    0  501    0  0.00000000000E+00  0.00000000000E+00  0.12860580549E+03  0.12860580551E+03  0.25500000000E-02 0.  1.
         -2   -1    0    0    0  501 -0.00000000000E+00 -0.00000000000E+00 -0.26179509094E+03  0.26179509095E+03  0.25500000000E-02 0. -1.
    5000001    1    1    2    0    0  0.85333032433E+02  0.11075470118E+03 -0.16287534569E+03  0.22804760137E+03  0.77000000000E+02 0.  0.
   -5000001    1    1    2    0    0 -0.85333032433E+02 -0.11075470118E+03  0.29686060240E+02  0.16235329510E+03  0.77000000000E+02 0.  0.
<mgrwt>
<rscale>  0 0.36697885E+03</rscale>
<asrwt>0</asrwt>
<pdfrwt beam="1">  1        2 0.19785509E-01 0.36697885E+03</pdfrwt>
<pdfrwt beam="2">  1       -2 0.40276168E-01 0.36697885E+03</pdfrwt>
<totfact> 0.16629422E+03</totfact>
</mgrwt>
</event>
<event>
 4    1  0.5980424E-004  0.1835097E+03  0.7818608E-02  0.1164449E+00
          2   -1    0    0  501    0  0.00000000000E+00  0.00000000000E+00  0.61775204951E+01  0.61775210214E+01  0.25500000000E-02 0.  1.
         -2   -1    0    0    0  501 -0.00000000000E+00 -0.00000000000E+00 -0.13628362234E+04  0.13628362234E+04  0.25500000000E-02 0. -1.
    5000001    1    1    2    0    0  0.98877831474E+01  0.16480317246E+02 -0.10218684702E+04  0.10249456276E+04  0.77000000000E+02 0.  0.
   -5000001    1    1    2    0    0 -0.98877831474E+01 -0.16480317246E+02 -0.33479023272E+03  0.34406811685E+03  0.77000000000E+02 0.  0.
<mgrwt>
<rscale>  0 0.18350966E+03</rscale>
<asrwt>0</asrwt>
<pdfrwt beam="1">  1        2 0.95038889E-03 0.18350966E+03</pdfrwt>
<pdfrwt beam="2">  1       -2 0.20966687E+00 0.18350966E+03</pdfrwt>
<totfact> 0.19037960E+03</totfact>
</mgrwt>
</event>
<event>
 4    1  0.5980424E-004  0.2478483E+03  0.7818608E-02  0.1114672E+00
          2   -1    0    0  501    0  0.00000000000E+00  0.00000000000E+00  0.83204455659E+02  0.83204455698E+02  0.25500000000E-02 0.  1.
         -2   -1    0    0    0  501 -0.00000000000E+00 -0.00000000000E+00 -0.18457172497E+03  0.18457172499E+03  0.25500000000E-02 0. -1.
    5000001    1    1    2    0    0 -0.28675930324E+02  0.32550438848E+02  0.43170743768E+02  0.98359306457E+02  0.77000000000E+02 0.  0.
   -5000001    1    1    2    0    0  0.28675930324E+02 -0.32550438848E+02 -0.14453801308E+03  0.16941687423E+03  0.77000000000E+02 0.  0.
<mgrwt>
<rscale>  0 0.24784826E+03</rscale>
<asrwt>0</asrwt>
<pdfrwt beam="1">  1        2 0.12800685E-01 0.24784826E+03</pdfrwt>
<pdfrwt beam="2">  1       -2 0.28395650E-01 0.24784826E+03</pdfrwt>
<totfact> 0.52707721E+03</totfact>
</mgrwt>
</event>
<event>
 4    1  0.5980424E-004  0.7591438E+03  0.7818608E-02  0.9621113E-01
         -2   -1    0    0    0  501 -0.00000000000E+00  0.00000000000E+00  0.25288735605E+03  0.25288735607E+03  0.25500000000E-02 0. -1.
          2   -1    0    0  501    0  0.00000000000E+00 -0.00000000000E+00 -0.56971933476E+03  0.56971933476E+03  0.25500000000E-02 0.  1.
    5000001    1    1    2    0    0  0.23973020607E+03 -0.19210529797E+03  0.68288667977E+02  0.32398666545E+03  0.77000000000E+02 0.  0.
   -5000001    1    1    2    0    0 -0.23973020607E+03  0.19210529797E+03 -0.38512064668E+03  0.49862002538E+03  0.77000000000E+02 0.  0.
<mgrwt>
<rscale>  0 0.75914377E+03</rscale>
<asrwt>0</asrwt>
<pdfrwt beam="1">  1        2 0.87649128E-01 0.75914377E+03</pdfrwt>
<pdfrwt beam="2">  1       -2 0.38905747E-01 0.75914377E+03</pdfrwt>
<totfact> 0.33185231E+02</totfact>
</mgrwt>
</event>
<event>
 4    1  0.5980424E-004  0.3076637E+03  0.7818608E-02  0.1081471E+00
          2   -1    0    0  501    0  0.00000000000E+00  0.00000000000E+00  0.60629807917E+03  0.60629807918E+03  0.25500000000E-02 0.  1.
         -2   -1    0    0    0  501 -0.00000000000E+00 -0.00000000000E+00 -0.39030691502E+02  0.39030691585E+02  0.25500000000E-02 0. -1.
    5000001    1    1    2    0    0  0.17840427716E+01  0.12726622572E+03  0.36582193434E+03  0.39491082875E+03  0.77000000000E+02 0.  0.
   -5000001    1    1    2    0    0 -0.17840427716E+01 -0.12726622572E+03  0.20144545333E+03  0.25041794202E+03  0.77000000000E+02 0.  0.
<mgrwt>
<rscale>  0 0.30766367E+03</rscale>
<asrwt>0</asrwt>
<pdfrwt beam="1">  1        2 0.93276621E-01 0.30766367E+03</pdfrwt>
<pdfrwt beam="2">  1       -2 0.60047222E-02 0.30766367E+03</pdfrwt>
<totfact> 0.73695267E+03</totfact>
</mgrwt>
</event>
<event>
 4    1  0.5980424E-004  0.2110225E+03  0.7818608E-02  0.1140759E+00
          2   -1    0    0  501    0  0.00000000000E+00  0.00000000000E+00  0.11296712661E+03  0.11296712664E+03  0.25500000000E-02 0.  1.
         -2   -1    0    0    0  501 -0.00000000000E+00 -0.00000000000E+00 -0.98547502587E+02  0.98547502620E+02  0.25500000000E-02 0. -1.
    5000001    1    1    2    0    0 -0.39228416020E+02  0.32479891809E+02 -0.43995677761E+02  0.10226647377E+03  0.77000000000E+02 0.  0.
   -5000001    1    1    2    0    0  0.39228416020E+02 -0.32479891809E+02  0.58415301784E+02  0.10924815549E+03  0.77000000000E+02 0.  0.
<mgrwt>
<rscale>  0 0.21102254E+03</rscale>
<asrwt>0</asrwt>
<pdfrwt beam="1">  1        2 0.17379558E-01 0.21102254E+03</pdfrwt>
<pdfrwt beam="2">  1       -2 0.15161154E-01 0.21102254E+03</pdfrwt>
<totfact> 0.10690922E+04</totfact>
</mgrwt>
</event>
<event>
 4    1  0.5980424E-004  0.2126166E+03  0.7818608E-02  0.1139511E+00
         -2   -1    0    0    0  501 -0.00000000000E+00  0.00000000000E+00  0.65596298212E+02  0.65596298261E+02  0.25500000000E-02 0. -1.
          2   -1    0    0  501    0  0.00000000000E+00 -0.00000000000E+00 -0.17228794680E+03  0.17228794682E+03  0.25500000000E-02 0.  1.
    5000001    1    1    2    0    0 -0.50723683949E+02  0.44815812814E+02 -0.21876681808E+02  0.10482813744E+03  0.77000000000E+02 0.  0.
   -5000001    1    1    2    0    0  0.50723683949E+02 -0.44815812814E+02 -0.84814966785E+02  0.13305610765E+03  0.77000000000E+02 0.  0.
<mgrwt>
<rscale>  0 0.21261657E+03</rscale>
<asrwt>0</asrwt>
<pdfrwt beam="1">  1        2 0.26505838E-01 0.21261657E+03</pdfrwt>
<pdfrwt beam="2">  1       -2 0.10091738E-01 0.21261657E+03</pdfrwt>
<totfact> 0.12797628E+04</totfact>
</mgrwt>
</event>
<event>
 4    1  0.5980424E-004  0.3303297E+03  0.7818608E-02  0.1070991E+00
          2   -1    0    0  501    0  0.00000000000E+00  0.00000000000E+00  0.12936940916E+04  0.12936940916E+04  0.25500000000E-02 0.  1.
         -2   -1    0    0    0  501 -0.00000000000E+00 -0.00000000000E+00 -0.21086457166E+02  0.21086457320E+02  0.25500000000E-02 0. -1.
    5000001    1    1    2    0    0 -0.13233721072E+03 -0.49295370930E+02  0.78561486615E+03  0.80191202065E+03  0.77000000000E+02 0.  0.
   -5000001    1    1    2    0    0  0.13233721072E+03  0.49295370930E+02  0.48699276828E+03  0.51286852827E+03  0.77000000000E+02 0.  0.
<mgrwt>
<rscale>  0 0.33032968E+03</rscale>
<asrwt>0</asrwt>
<pdfrwt beam="1">  1        2 0.19902986E+00 0.33032968E+03</pdfrwt>
<pdfrwt beam="2">  1       -2 0.32440704E-02 0.33032968E+03</pdfrwt>
<totfact> 0.66854434E+03</totfact>
</mgrwt>
</event>
<event>
 4    1  0.5980424E-004  0.2118584E+03  0.7818608E-02  0.1140103E+00
         -2   -1    0    0    0  501 -0.00000000000E+00  0.00000000000E+00  0.60554907794E+01  0.60554913163E+01  0.25500000000E-02 0. -1.
          2   -1    0    0  501    0  0.00000000000E+00 -0.00000000000E+00 -0.18530283599E+04  0.18530283599E+04  0.25500000000E-02 0.  1.
    5000001    1    1    2    0    0 -0.42273195505E+02  0.44112028171E+02 -0.57699651131E+03  0.58530920730E+03  0.77000000000E+02 0.  0.
   -5000001    1    1    2    0    0  0.42273195505E+02 -0.44112028171E+02 -0.12699763578E+04  0.12737746439E+04  0.77000000000E+02 0.  0.
<mgrwt>
<rscale>  0 0.21185841E+03</rscale>
<asrwt>0</asrwt>
<pdfrwt beam="1">  1        2 0.28508083E+00 0.21185841E+03</pdfrwt>
<pdfrwt beam="2">  1       -2 0.93161549E-03 0.21185841E+03</pdfrwt>
<totfact> 0.20767051E+04</totfact>
</mgrwt>
</event>
<event>
 4    1  0.5980424E-004  0.2368540E+03  0.7818608E-02  0.1121907E+00
         -2   -1    0    0    0  501 -0.00000000000E+00  0.00000000000E+00  0.69992973170E+01  0.69992977815E+01  0.25500000000E-02 0. -1.
          2   -1    0    0  501    0  0.00000000000E+00 -0.00000000000E+00 -0.20037652892E+04  0.20037652892E+04  0.25500000000E-02 0.  1.
    5000001    1    1    2    0    0 -0.51862979214E+02 -0.68750698249E+02 -0.77708246544E+03  0.78562241899E+03  0.77000000000E+02 0.  0.
   -5000001    1    1    2    0    0  0.51862979214E+02  0.68750698249E+02 -0.12196835264E+04  0.12251421680E+04  0.77000000000E+02 0.  0.
<mgrwt>
<rscale>  0 0.23685396E+03</rscale>
<asrwt>0</asrwt>
<pdfrwt beam="1">  1        2 0.30827113E+00 0.23685396E+03</pdfrwt>
<pdfrwt beam="2">  1       -2 0.10768166E-02 0.23685396E+03</pdfrwt>
<totfact> 0.14103890E+04</totfact>
</mgrwt>
</event>
<event>
 4    1  0.5980424E-004  0.2457638E+03  0.7818608E-02  0.1116012E+00
         -2   -1    0    0    0  501 -0.00000000000E+00  0.00000000000E+00  0.42513631437E+02  0.42513631514E+02  0.25500000000E-02 0. -1.
          2   -1    0    0  501    0  0.00000000000E+00 -0.00000000000E+00 -0.35517930432E+03  0.35517930432E+03  0.25500000000E-02 0.  1.
    5000001    1    1    2    0    0 -0.83108991757E+02 -0.29000093742E+02 -0.95293495784E+02  0.15085741708E+03  0.77000000000E+02 0.  0.
   -5000001    1    1    2    0    0  0.83108991757E+02  0.29000093742E+02 -0.21737217709E+03  0.24683551876E+03  0.77000000000E+02 0.  0.
<mgrwt>
<rscale>  0 0.24576381E+03</rscale>
<asrwt>0</asrwt>
<pdfrwt beam="1">  1        2 0.54642968E-01 0.24576381E+03</pdfrwt>
<pdfrwt beam="2">  1       -2 0.65405589E-02 0.24576381E+03</pdfrwt>
<totfact> 0.11607590E+04</totfact>
</mgrwt>
</event>
<event>
 4    1  0.5980424E-004  0.4234670E+03  0.7818608E-02  0.1035944E+00
          2   -1    0    0  501    0  0.00000000000E+00  0.00000000000E+00  0.82844193937E+03  0.82844193937E+03  0.25500000000E-02 0.  1.
         -2   -1    0    0    0  501 -0.00000000000E+00 -0.00000000000E+00 -0.54114915566E+02  0.54114915626E+02  0.25500000000E-02 0. -1.
    5000001    1    1    2    0    0  0.14177397200E+03 -0.93197913353E+02  0.59678471333E+03  0.62519333350E+03  0.77000000000E+02 0.  0.
   -5000001    1    1    2    0    0 -0.14177397200E+03  0.93197913353E+02  0.17754231047E+03  0.25736352150E+03  0.77000000000E+02 0.  0.
<mgrwt>
<rscale>  0 0.42346696E+03</rscale>
<asrwt>0</asrwt>
<pdfrwt beam="1">  1        2 0.12745260E+00 0.42346696E+03</pdfrwt>
<pdfrwt beam="2">  1       -2 0.83253718E-02 0.42346696E+03</pdfrwt>
<totfact> 0.30249371E+03</totfact>
</mgrwt>
</event>
<event>
 4    1  0.5980424E-004  0.3489190E+03  0.7818608E-02  0.1063060E+00
          2   -1    0    0  501    0  0.00000000000E+00  0.00000000000E+00  0.98039018535E+03  0.98039018536E+03  0.25500000000E-02 0. -1.
         -2   -1    0    0    0  501 -0.00000000000E+00 -0.00000000000E+00 -0.31044909078E+02  0.31044909183E+02  0.25500000000E-02 0.  1.
    5000001    1    1    2    0    0 -0.20112161356E+02  0.40475738907E+02  0.40202253611E+02  0.97918362271E+02  0.77000000000E+02 0.  0.
   -5000001    1    1    2    0    0  0.20112161356E+02 -0.40475738907E+02  0.90914302266E+03  0.91351673227E+03  0.77000000000E+02 0.  0.
<mgrwt>
<rscale>  0 0.34891904E+03</rscale>
<asrwt>0</asrwt>
<pdfrwt beam="1">  1        2 0.15082923E+00 0.34891904E+03</pdfrwt>
<pdfrwt beam="2">  1       -2 0.47761407E-02 0.34891904E+03</pdfrwt>
<totfact> 0.56929302E+03</totfact>
</mgrwt>
</event>
<event>
 4    1  0.5980424E-004  0.2574611E+03  0.7818608E-02  0.1108678E+00
          2   -1    0    0  501    0  0.00000000000E+00  0.00000000000E+00  0.62688758730E+03  0.62688758730E+03  0.25500000000E-02 0.  1.
         -2   -1    0    0    0  501 -0.00000000000E+00 -0.00000000000E+00 -0.26434660077E+02  0.26434660200E+02  0.25500000000E-02 0. -1.
    5000001    1    1    2    0    0 -0.81227015185E+02  0.62684203208E+02  0.27296420003E+03  0.30160502620E+03  0.77000000000E+02 0.  0.
   -5000001    1    1    2    0    0  0.81227015185E+02 -0.62684203208E+02  0.32748872719E+03  0.35171722131E+03  0.77000000000E+02 0.  0.
<mgrwt>
<rscale>  0 0.25746115E+03</rscale>
<asrwt>0</asrwt>
<pdfrwt beam="1">  1        2 0.96444243E-01 0.25746115E+03</pdfrwt>
<pdfrwt beam="2">  1       -2 0.40668708E-02 0.25746115E+03</pdfrwt>
<totfact> 0.12734809E+04</totfact>
</mgrwt>
</event>
<event>
 4    1  0.5980424E-004  0.3047773E+03  0.7818608E-02  0.1082877E+00
         -2   -1    0    0    0  501 -0.00000000000E+00  0.00000000000E+00  0.20128879360E+02  0.20128879522E+02  0.25500000000E-02 0. -1.
          2   -1    0    0  501    0  0.00000000000E+00 -0.00000000000E+00 -0.11536807910E+04  0.11536807910E+04  0.25500000000E-02 0.  1.
    5000001    1    1    2    0    0  0.12494373387E+03  0.81685256670E+01 -0.72158180678E+03  0.73640136157E+03  0.77000000000E+02 0.  0.
   -5000001    1    1    2    0    0 -0.12494373387E+03 -0.81685256670E+01 -0.41197010489E+03  0.43740830899E+03  0.77000000000E+02 0.  0.
<mgrwt>
<rscale>  0 0.30477731E+03</rscale>
<asrwt>0</asrwt>
<pdfrwt beam="1">  1        2 0.17748930E+00 0.30477731E+03</pdfrwt>
<pdfrwt beam="2">  1       -2 0.30967516E-02 0.30477731E+03</pdfrwt>
<totfact> 0.85968590E+03</totfact>
</mgrwt>
</event>
<event>
 4    1  0.5980424E-004  0.2153538E+03  0.7818608E-02  0.1137395E+00
         -2   -1    0    0    0  501 -0.00000000000E+00  0.00000000000E+00  0.81117563945E+03  0.81117563945E+03  0.25500000000E-02 0. -1.
          2   -1    0    0  501    0  0.00000000000E+00 -0.00000000000E+00 -0.14293218610E+02  0.14293218837E+02  0.25500000000E-02 0.  1.
    5000001    1    1    2    0    0  0.36051345157E+02  0.37189007963E+02  0.60777769999E+03  0.61482148174E+03  0.77000000000E+02 0.  0.
   -5000001    1    1    2    0    0 -0.36051345157E+02 -0.37189007963E+02  0.18910472085E+03  0.21064737655E+03  0.77000000000E+02 0.  0.
<mgrwt>
<rscale>  0 0.21535376E+03</rscale>
<asrwt>0</asrwt>
<pdfrwt beam="1">  1        2 0.21989560E-02 0.21535376E+03</pdfrwt>
<pdfrwt beam="2">  1       -2 0.12479630E+00 0.21535376E+03</pdfrwt>
<totfact> 0.23899874E+03</totfact>
</mgrwt>
</event>
<event>
 4    1  0.5980424E-004  0.2694214E+03  0.7818608E-02  0.1101611E+00
         -2   -1    0    0    0  501 -0.00000000000E+00  0.00000000000E+00  0.10869138122E+03  0.10869138125E+03  0.25500000000E-02 0. -1.
          2   -1    0    0  501    0  0.00000000000E+00 -0.00000000000E+00 -0.16695873769E+03  0.16695873771E+03  0.25500000000E-02 0.  1.
    5000001    1    1    2    0    0 -0.37706500456E+01 -0.10885056605E+03 -0.48419190064E+02  0.14190166136E+03  0.77000000000E+02 0.  0.
   -5000001    1    1    2    0    0  0.37706500456E+01  0.10885056605E+03 -0.98481664066E+01  0.13374845761E+03  0.77000000000E+02 0.  0.
<mgrwt>
<rscale>  0 0.26942142E+03</rscale>
<asrwt>0</asrwt>
<pdfrwt beam="1">  1        2 0.25685960E-01 0.26942142E+03</pdfrwt>
<pdfrwt beam="2">  1       -2 0.16721751E-01 0.26942142E+03</pdfrwt>
<totfact> 0.59011918E+03</totfact>
</mgrwt>
</event>
<event>
 4    1  0.5980424E-004  0.1720826E+03  0.7818608E-02  0.1175693E+00
          2   -1    0    0  501    0  0.00000000000E+00  0.00000000000E+00  0.19928576606E+04  0.19928576606E+04  0.25500000000E-02 0.  1.
         -2   -1    0    0    0  501 -0.00000000000E+00 -0.00000000000E+00 -0.37148174933E+01  0.37148183686E+01  0.25500000000E-02 0. -1.
    5000001    1    1    2    0    0 -0.35963872871E+02 -0.13422442352E+02  0.10031073909E+04  0.10067904448E+04  0.77000000000E+02 0.  0.
   -5000001    1    1    2    0    0  0.35963872871E+02  0.13422442352E+02  0.98603545228E+03  0.98978203422E+03  0.77000000000E+02 0.  0.
<mgrwt>
<rscale>  0 0.17208258E+03</rscale>
<asrwt>0</asrwt>
<pdfrwt beam="1">  1        2 0.30659347E+00 0.17208258E+03</pdfrwt>
<pdfrwt beam="2">  1       -2 0.57151048E-03 0.17208258E+03</pdfrwt>
<totfact> 0.35074608E+04</totfact>
</mgrwt>
</event>
<event>
 4    1  0.5980424E-004  0.1746353E+03  0.7818608E-02  0.1173098E+00
         -2   -1    0    0    0  501 -0.00000000000E+00  0.00000000000E+00  0.47788237624E+01  0.47788244427E+01  0.25500000000E-02 0. -1.
          2   -1    0    0  501    0  0.00000000000E+00 -0.00000000000E+00 -0.15954494316E+04  0.15954494316E+04  0.25500000000E-02 0.  1.
    5000001    1    1    2    0    0  0.27221363749E+02 -0.29940998309E+02 -0.72560647964E+03  0.73080177156E+03  0.77000000000E+02 0.  0.
   -5000001    1    1    2    0    0 -0.27221363749E+02  0.29940998309E+02 -0.86506412822E+03  0.86942648450E+03  0.77000000000E+02 0.  0.
<mgrwt>
<rscale>  0 0.17463530E+03</rscale>
<asrwt>0</asrwt>
<pdfrwt beam="1">  1        2 0.24545333E+00 0.17463530E+03</pdfrwt>
<pdfrwt beam="2">  1       -2 0.73520498E-03 0.17463530E+03</pdfrwt>
<totfact> 0.39317006E+04</totfact>
</mgrwt>
</event>
<event>
 4    1  0.5980424E-004  0.3047400E+03  0.7818608E-02  0.1082895E+00
          2   -1    0    0  501    0  0.00000000000E+00  0.00000000000E+00  0.51829796742E+03  0.51829796742E+03  0.25500000000E-02 0.  1.
         -2   -1    0    0    0  501 -0.00000000000E+00 -0.00000000000E+00 -0.44793956085E+02  0.44793956157E+02  0.25500000000E-02 0. -1.
    5000001    1    1    2    0    0 -0.12094339172E+03  0.47063173652E+02  0.27574713527E+03  0.31433696716E+03  0.77000000000E+02 0.  0.
   -5000001    1    1    2    0    0  0.12094339172E+03 -0.47063173652E+02  0.19775687606E+03  0.24875495642E+03  0.77000000000E+02 0.  0.
<mgrwt>
<rscale>  0 0.30474000E+03</rscale>
<asrwt>0</asrwt>
<pdfrwt beam="1">  1        2 0.79738142E-01 0.30474000E+03</pdfrwt>
<pdfrwt beam="2">  1       -2 0.68913784E-02 0.30474000E+03</pdfrwt>
<totfact> 0.71308845E+03</totfact>
</mgrwt>
</event>
<event>
 4    1  0.5980424E-004  0.2337516E+03  0.7818608E-02  0.1124027E+00
          2   -1    0    0  501    0  0.00000000000E+00  0.00000000000E+00  0.54469311903E+03  0.54469311904E+03  0.25500000000E-02 0.  1.
         -2   -1    0    0    0  501 -0.00000000000E+00 -0.00000000000E+00 -0.25078252940E+02  0.25078253069E+02  0.25500000000E-02 0. -1.
    5000001    1    1    2    0    0  0.13882244579E+02 -0.85713449918E+02  0.29353321128E+03  0.31564261172E+03  0.77000000000E+02 0.  0.
   -5000001    1    1    2    0    0 -0.13882244579E+02  0.85713449918E+02  0.22608165482E+03  0.25412876039E+03  0.77000000000E+02 0.  0.
<mgrwt>
<rscale>  0 0.23375159E+03</rscale>
<asrwt>0</asrwt>
<pdfrwt beam="1">  1        2 0.83798937E-01 0.23375159E+03</pdfrwt>
<pdfrwt beam="2">  1       -2 0.38581930E-02 0.23375159E+03</pdfrwt>
<totfact> 0.16126274E+04</totfact>
</mgrwt>
</event>
<event>
 4    1  0.5980424E-004  0.2576523E+03  0.7818608E-02  0.1108562E+00
         -2   -1    0    0    0  501 -0.00000000000E+00  0.00000000000E+00  0.23839948633E+03  0.23839948635E+03  0.25500000000E-02 0. -1.
          2   -1    0    0  501    0  0.00000000000E+00 -0.00000000000E+00 -0.69615001211E+02  0.69615001258E+02  0.25500000000E-02 0.  1.
    5000001    1    1    2    0    0  0.12873159772E+02 -0.85919403506E+02  0.15116002106E+03  0.19059437061E+03  0.77000000000E+02 0.  0.
   -5000001    1    1    2    0    0 -0.12873159772E+02  0.85919403506E+02  0.17624464061E+02  0.11742011699E+03  0.77000000000E+02 0.  0.
<mgrwt>
<rscale>  0 0.25765233E+03</rscale>
<asrwt>0</asrwt>
<pdfrwt beam="1">  1        2 0.10710000E-01 0.25765233E+03</pdfrwt>
<pdfrwt beam="2">  1       -2 0.36676844E-01 0.25765233E+03</pdfrwt>
<totfact> 0.41001564E+03</totfact>
</mgrwt>
</event>
<event>
 4    1  0.5980424E-004  0.1818788E+03  0.7818608E-02  0.1165997E+00
         -2   -1    0    0    0  501 -0.00000000000E+00  0.00000000000E+00  0.67658630389E+01  0.67658635194E+01  0.25500000000E-02 0. -1.
          2   -1    0    0  501    0  0.00000000000E+00 -0.00000000000E+00 -0.12223083867E+04  0.12223083867E+04  0.25500000000E-02 0.  1.
    5000001    1    1    2    0    0 -0.30635284353E+02  0.35250268784E+02 -0.69321469786E+03  0.69903985539E+03  0.77000000000E+02 0.  0.
   -5000001    1    1    2    0    0  0.30635284353E+02 -0.35250268784E+02 -0.52232782577E+03  0.53003439480E+03  0.77000000000E+02 0.  0.
<mgrwt>
<rscale>  0 0.18187877E+03</rscale>
<asrwt>0</asrwt>
<pdfrwt beam="1">  1        2 0.18804727E+00 0.18187877E+03</pdfrwt>
<pdfrwt beam="2">  1       -2 0.10409030E-02 0.18187877E+03</pdfrwt>
<totfact> 0.37912714E+04</totfact>
</mgrwt>
</event>
<event>
 4    1  0.5980424E-004  0.3062844E+03  0.7818608E-02  0.1082141E+00
         -2   -1    0    0    0  501 -0.00000000000E+00  0.00000000000E+00  0.38733902238E+02  0.38733902322E+02  0.25500000000E-02 0. -1.
          2   -1    0    0  501    0  0.00000000000E+00 -0.00000000000E+00 -0.60547818774E+03  0.60547818774E+03  0.25500000000E-02 0.  1.
    5000001    1    1    2    0    0 -0.98324942057E+02  0.61509134433E+02 -0.14914901589E+03  0.20402352019E+03  0.77000000000E+02 0.  0.
   -5000001    1    1    2    0    0  0.98324942057E+02 -0.61509134433E+02 -0.41759526961E+03  0.44018856988E+03  0.77000000000E+02 0.  0.
<mgrwt>
<rscale>  0 0.30628440E+03</rscale>
<asrwt>0</asrwt>
<pdfrwt beam="1">  1        2 0.93150484E-01 0.30628440E+03</pdfrwt>
<pdfrwt beam="2">  1       -2 0.59590623E-02 0.30628440E+03</pdfrwt>
<totfact> 0.74674208E+03</totfact>
</mgrwt>
</event>
<event>
 4    1  0.5980424E-004  0.1760084E+03  0.7818608E-02  0.1171723E+00
         -2   -1    0    0    0  501 -0.00000000000E+00  0.00000000000E+00  0.76838631311E+01  0.76838635543E+01  0.25500000000E-02 0. -1.
          2   -1    0    0  501    0  0.00000000000E+00 -0.00000000000E+00 -0.10079220841E+04  0.10079220841E+04  0.25500000000E-02 0.  1.
    5000001    1    1    2    0    0  0.30175902715E+02  0.23646453978E+01 -0.32705510670E+03  0.33735770255E+03  0.77000000000E+02 0.  0.
   -5000001    1    1    2    0    0 -0.30175902715E+02 -0.23646453978E+01 -0.67318311430E+03  0.67824824514E+03  0.77000000000E+02 0.  0.
<mgrwt>
<rscale>  0 0.17600836E+03</rscale>
<asrwt>0</asrwt>
<pdfrwt beam="1">  1        2 0.15506483E+00 0.17600836E+03</pdfrwt>
<pdfrwt beam="2">  1       -2 0.11821336E-02 0.17600836E+03</pdfrwt>
<totfact> 0.41847067E+04</totfact>
</mgrwt>
</event>
<event>
 4    1  0.5980424E-004  0.2802409E+03  0.7818608E-02  0.1095557E+00
          2   -1    0    0  501    0  0.00000000000E+00  0.00000000000E+00  0.94418764077E+03  0.94418764077E+03  0.25500000000E-02 0.  1.
         -2   -1    0    0    0  501 -0.00000000000E+00 -0.00000000000E+00 -0.20794315249E+02  0.20794315405E+02  0.25500000000E-02 0. -1.
    5000001    1    1    2    0    0 -0.52078549110E+02  0.98358417523E+02  0.33667783849E+03  0.36286019416E+03  0.77000000000E+02 0.  0.
   -5000001    1    1    2    0    0  0.52078549110E+02 -0.98358417523E+02  0.58671548703E+03  0.60212176202E+03  0.77000000000E+02 0.  0.
<mgrwt>
<rscale>  0 0.28024086E+03</rscale>
<asrwt>0</asrwt>
<pdfrwt beam="1">  1        2 0.14525960E+00 0.28024086E+03</pdfrwt>
<pdfrwt beam="2">  1       -2 0.31991262E-02 0.28024086E+03</pdfrwt>
<totfact> 0.10926659E+04</totfact>
</mgrwt>
</event>
<event>
 4    1  0.5980424E-004  0.2803316E+03  0.7818608E-02  0.1095508E+00
         -2   -1    0    0    0  501 -0.00000000000E+00  0.00000000000E+00  0.35382652782E+02  0.35382652874E+02  0.25500000000E-02 0.  1.
          2   -1    0    0  501    0  0.00000000000E+00 -0.00000000000E+00 -0.55525640695E+03  0.55525640696E+03  0.25500000000E-02 0. -1.
    5000001    1    1    2    0    0 -0.78644548443E+02  0.24315290650E+02 -0.84399780097E+02  0.14081378214E+03  0.77000000000E+02 0.  0.
   -5000001    1    1    2    0    0  0.78644548443E+02 -0.24315290650E+02 -0.43547397407E+03  0.44982527769E+03  0.77000000000E+02 0.  0.
<mgrwt>
<rscale>  0 0.28033155E+03</rscale>
<asrwt>0</asrwt>
<pdfrwt beam="1">  1        2 0.85424056E-01 0.28033155E+03</pdfrwt>
<pdfrwt beam="2">  1       -2 0.54434855E-02 0.28033155E+03</pdfrwt>
<totfact> 0.94538665E+03</totfact>
</mgrwt>
</event>
<event>
 4    1  0.5980424E-004  0.2479673E+03  0.7818608E-02  0.1114596E+00
         -2   -1    0    0    0  501 -0.00000000000E+00  0.00000000000E+00  0.19337052306E+03  0.19337052308E+03  0.25500000000E-02 0. -1.
          2   -1    0    0  501    0  0.00000000000E+00 -0.00000000000E+00 -0.79494769182E+02  0.79494769223E+02  0.25500000000E-02 0.  1.
    5000001    1    1    2    0    0 -0.38278841811E+02 -0.89047164950E+02  0.49291995175E+02  0.13324176562E+03  0.77000000000E+02 0.  0.
   -5000001    1    1    2    0    0  0.38278841811E+02  0.89047164950E+02  0.64583758706E+02  0.13962352669E+03  0.77000000000E+02 0.  0.
<mgrwt>
<rscale>  0 0.24796730E+03</rscale>
<asrwt>0</asrwt>
<pdfrwt beam="1">  1        2 0.12229965E-01 0.24796730E+03</pdfrwt>
<pdfrwt beam="2">  1       -2 0.29749311E-01 0.24796730E+03</pdfrwt>
<totfact> 0.51209129E+03</totfact>
</mgrwt>
</event>
<event>
 4    1  0.5980424E-004  0.2718007E+03  0.7818608E-02  0.1100253E+00
         -2   -1    0    0    0  501 -0.00000000000E+00  0.00000000000E+00  0.70253489834E+01  0.70253494462E+01  0.25500000000E-02 0. -1.
          2   -1    0    0  501    0  0.00000000000E+00 -0.00000000000E+00 -0.26288943526E+04  0.26288943527E+04  0.25500000000E-02 0.  1.
    5000001    1    1    2    0    0  0.11021595361E+03  0.40598668044E+01 -0.14989509417E+04  0.15049740744E+04  0.77000000000E+02 0.  0.
   -5000001    1    1    2    0    0 -0.11021595361E+03 -0.40598668044E+01 -0.11229180619E+04  0.11309456277E+04  0.77000000000E+02 0.  0.
<mgrwt>
<rscale>  0 0.27180067E+03</rscale>
<asrwt>0</asrwt>
<pdfrwt beam="1">  1        2 0.40444450E+00 0.27180067E+03</pdfrwt>
<pdfrwt beam="2">  1       -2 0.10808251E-02 0.27180067E+03</pdfrwt>
<totfact> 0.64813782E+03</totfact>
</mgrwt>
</event>
<event>
 4    1  0.5980424E-004  0.3729854E+03  0.7818608E-02  0.1053557E+00
          2   -1    0    0  501    0  0.00000000000E+00  0.00000000000E+00  0.74851005150E+03  0.74851005150E+03  0.25500000000E-02 0.  1.
         -2   -1    0    0    0  501 -0.00000000000E+00 -0.00000000000E+00 -0.46465002708E+02  0.46465002778E+02  0.25500000000E-02 0. -1.
    5000001    1    1    2    0    0  0.77133304015E+02  0.10131760078E+03  0.59060865818E+03  0.60906681894E+03  0.77000000000E+02 0.  0.
   -5000001    1    1    2    0    0 -0.77133304015E+02 -0.10131760078E+03  0.11143639061E+03  0.18590823534E+03  0.77000000000E+02 0.  0.
<mgrwt>
<rscale>  0 0.37298537E+03</rscale>
<asrwt>0</asrwt>
<pdfrwt beam="1">  1        2 0.11515540E+00 0.37298537E+03</pdfrwt>
<pdfrwt beam="2">  1       -2 0.71484617E-02 0.37298537E+03</pdfrwt>
<totfact> 0.43750104E+03</totfact>
</mgrwt>
</event>
<event>
 4    1  0.5980424E-004  0.1752276E+03  0.7818608E-02  0.1172503E+00
          2   -1    0    0  501    0  0.00000000000E+00  0.00000000000E+00  0.59290614071E+03  0.59290614071E+03  0.25500000000E-02 0.  1.
         -2   -1    0    0    0  501 -0.00000000000E+00 -0.00000000000E+00 -0.12946706219E+02  0.12946706470E+02  0.25500000000E-02 0. -1.
    5000001    1    1    2    0    0  0.72412231346E-01 -0.29425324684E+02  0.18733585071E+03  0.20466943088E+03  0.77000000000E+02 0.  0.
   -5000001    1    1    2    0    0 -0.72412231346E-01  0.29425324684E+02  0.39262358378E+03  0.40118341630E+03  0.77000000000E+02 0.  0.
<mgrwt>
<rscale>  0 0.17522764E+03</rscale>
<asrwt>0</asrwt>
<pdfrwt beam="1">  1        2 0.91216321E-01 0.17522764E+03</pdfrwt>
<pdfrwt beam="2">  1       -2 0.19918011E-02 0.17522764E+03</pdfrwt>
<totfact> 0.38088686E+04</totfact>
</mgrwt>
</event>
<event>
 4    1  0.5980424E-004  0.4504616E+03  0.7818608E-02  0.1027584E+00
          2   -1    0    0  501    0  0.00000000000E+00  0.00000000000E+00  0.55925051810E+03  0.55925051811E+03  0.25500000000E-02 0.  1.
         -2   -1    0    0    0  501 -0.00000000000E+00 -0.00000000000E+00 -0.90708740642E+02  0.90708740678E+02  0.25500000000E-02 0. -1.
    5000001    1    1    2    0    0 -0.16943369691E+03  0.39201406009E+02  0.40834740295E+03  0.45046767850E+03  0.77000000000E+02 0.  0.
   -5000001    1    1    2    0    0  0.16943369691E+03 -0.39201406009E+02  0.60194374508E+02  0.19949158028E+03  0.77000000000E+02 0.  0.
<mgrwt>
<rscale>  0 0.45046159E+03</rscale>
<asrwt>0</asrwt>
<pdfrwt beam="1">  1        2 0.86038541E-01 0.45046159E+03</pdfrwt>
<pdfrwt beam="2">  1       -2 0.13955191E-01 0.45046159E+03</pdfrwt>
<totfact> 0.21257032E+03</totfact>
</mgrwt>
</event>
<event>
 4    1  0.5980424E-004  0.2002595E+03  0.7818608E-02  0.1149520E+00
         -2   -1    0    0    0  501 -0.00000000000E+00  0.00000000000E+00  0.26759461479E+02  0.26759461600E+02  0.25500000000E-02 0. -1.
          2   -1    0    0  501    0  0.00000000000E+00 -0.00000000000E+00 -0.37467010412E+03  0.37467010413E+03  0.25500000000E-02 0.  1.
    5000001    1    1    2    0    0 -0.28856451742E+02 -0.52093103613E+02 -0.12691958523E+03  0.15994989017E+03  0.77000000000E+02 0.  0.
   -5000001    1    1    2    0    0  0.28856451742E+02  0.52093103613E+02 -0.22099105741E+03  0.24147967556E+03  0.77000000000E+02 0.  0.
<mgrwt>
<rscale>  0 0.20025953E+03</rscale>
<asrwt>0</asrwt>
<pdfrwt beam="1">  1        2 0.57641551E-01 0.20025953E+03</pdfrwt>
<pdfrwt beam="2">  1       -2 0.41168405E-02 0.20025953E+03</pdfrwt>
<totfact> 0.21848646E+04</totfact>
</mgrwt>
</event>
<event>
 4    1  0.5980424E-004  0.2129757E+03  0.7818608E-02  0.1139231E+00
          2   -1    0    0  501    0  0.00000000000E+00  0.00000000000E+00  0.58269572488E+02  0.58269572544E+02  0.25500000000E-02 0.  1.
         -2   -1    0    0    0  501 -0.00000000000E+00 -0.00000000000E+00 -0.19460697940E+03  0.19460697942E+03  0.25500000000E-02 0. -1.
    5000001    1    1    2    0    0 -0.48538811160E+02  0.49167194041E+02 -0.38195807100E+02  0.11027850579E+03  0.77000000000E+02 0.  0.
   -5000001    1    1    2    0    0  0.48538811160E+02 -0.49167194041E+02 -0.98141599811E+02  0.14259804617E+03  0.77000000000E+02 0.  0.
<mgrwt>
<rscale>  0 0.21297573E+03</rscale>
<asrwt>0</asrwt>
<pdfrwt beam="1">  1        2 0.89645498E-02 0.21297573E+03</pdfrwt>
<pdfrwt beam="2">  1       -2 0.29939535E-01 0.21297573E+03</pdfrwt>
<totfact> 0.73671289E+03</totfact>
</mgrwt>
</event>
<event>
 4    1  0.5980424E-004  0.1857569E+03  0.7818608E-02  0.1162345E+00
          2   -1    0    0  501    0  0.00000000000E+00  0.00000000000E+00  0.15233093796E+03  0.15233093798E+03  0.25500000000E-02 0.  1.
         -2   -1    0    0    0  501 -0.00000000000E+00 -0.00000000000E+00 -0.56629368896E+02  0.56629368953E+02  0.25500000000E-02 0. -1.
    5000001    1    1    2    0    0  0.50658974834E+02  0.50551267984E+01  0.59406155882E+02  0.10977238904E+03  0.77000000000E+02 0.  0.
   -5000001    1    1    2    0    0 -0.50658974834E+02 -0.50551267984E+01  0.36295413178E+02  0.99187917893E+02  0.77000000000E+02 0.  0.
<mgrwt>
<rscale>  0 0.18575688E+03</rscale>
<asrwt>0</asrwt>
<pdfrwt beam="1">  1        2 0.23435529E-01 0.18575688E+03</pdfrwt>
<pdfrwt beam="2">  1       -2 0.87122106E-02 0.18575688E+03</pdfrwt>
<totfact> 0.18316785E+04</totfact>
</mgrwt>
</event>
<event>
 4    1  0.5980424E-004  0.3199458E+03  0.7818608E-02  0.1075674E+00
          2   -1    0    0  501    0  0.00000000000E+00  0.00000000000E+00  0.68850016939E+02  0.68850016986E+02  0.25500000000E-02 0.  1.
         -2   -1    0    0    0  501 -0.00000000000E+00 -0.00000000000E+00 -0.37169686376E+03  0.37169686377E+03  0.25500000000E-02 0. -1.
    5000001    1    1    2    0    0 -0.79171804357E+02 -0.70083872247E+02 -0.27823979773E+03  0.30745131126E+03  0.77000000000E+02 0.  0.
   -5000001    1    1    2    0    0  0.79171804357E+02  0.70083872247E+02 -0.24607049091E+02  0.13309556950E+03  0.77000000000E+02 0.  0.
<mgrwt>
<rscale>  0 0.31994584E+03</rscale>
<asrwt>0</asrwt>
<pdfrwt beam="1">  1        2 0.10592311E-01 0.31994584E+03</pdfrwt>
<pdfrwt beam="2">  1       -2 0.57184131E-01 0.31994584E+03</pdfrwt>
<totfact> 0.17474687E+03</totfact>
</mgrwt>
</event>
<event>
 4    1  0.5980424E-004  0.2921355E+03  0.7818608E-02  0.1089239E+00
         -2   -1    0    0    0  501 -0.00000000000E+00  0.00000000000E+00  0.34561378958E+02  0.34561379052E+02  0.25500000000E-02 0. -1.
          2   -1    0    0  501    0  0.00000000000E+00 -0.00000000000E+00 -0.61733019507E+03  0.61733019507E+03  0.25500000000E-02 0.  1.
    5000001    1    1    2    0    0  0.49838944681E+01  0.11172678494E+03 -0.41153346586E+03  0.43335494367E+03  0.77000000000E+02 0.  0.
   -5000001    1    1    2    0    0 -0.49838944681E+01 -0.11172678494E+03 -0.17123535025E+03  0.21853663046E+03  0.77000000000E+02 0.  0.
<mgrwt>
<rscale>  0 0.29213547E+03</rscale>
<asrwt>0</asrwt>
<pdfrwt beam="1">  1        2 0.94973868E-01 0.29213547E+03</pdfrwt>
<pdfrwt beam="2">  1       -2 0.53171357E-02 0.29213547E+03</pdfrwt>
<totfact> 0.86804064E+03</totfact>
</mgrwt>
</event>
<event>
 4    1  0.5980424E-004  0.2586352E+03  0.7818608E-02  0.1107966E+00
          2   -1    0    0  501    0  0.00000000000E+00  0.00000000000E+00  0.19603918781E+04  0.19603918781E+04  0.25500000000E-02 0.  1.
         -2   -1    0    0    0  501 -0.00000000000E+00 -0.00000000000E+00 -0.85304576832E+01  0.85304580643E+01  0.25500000000E-02 0. -1.
    5000001    1    1    2    0    0 -0.80639546116E+02  0.69343479213E+01  0.14718245149E+04  0.14760580016E+04  0.77000000000E+02 0.  0.
   -5000001    1    1    2    0    0  0.80639546116E+02 -0.69343479213E+01  0.48003690554E+03  0.49286433454E+03  0.77000000000E+02 0.  0.
<mgrwt>
<rscale>  0 0.25863519E+03</rscale>
<asrwt>0</asrwt>
<pdfrwt beam="1">  1        2 0.30159877E+00 0.25863519E+03</pdfrwt>
<pdfrwt beam="2">  1       -2 0.13123780E-02 0.25863519E+03</pdfrwt>
<totfact> 0.11168223E+04</totfact>
</mgrwt>
</event>
<event>
 4    1  0.5980424E-004  0.5769893E+03  0.7818608E-02  0.9954330E-01
         -2   -1    0    0    0  501 -0.00000000000E+00  0.00000000000E+00  0.80028965774E+02  0.80028965815E+02  0.25500000000E-02 0. -1.
          2   -1    0    0  501    0  0.00000000000E+00 -0.00000000000E+00 -0.10399880620E+04  0.10399880620E+04  0.25500000000E-02 0.  1.
    5000001    1    1    2    0    0  0.36976739122E+02 -0.24282911002E+03 -0.73282681795E+03  0.77672221612E+03  0.77000000000E+02 0.  0.
   -5000001    1    1    2    0    0 -0.36976739122E+02  0.24282911002E+03 -0.22713227831E+03  0.34329481173E+03  0.77000000000E+02 0.  0.
<mgrwt>
<rscale>  0 0.57698932E+03</rscale>
<asrwt>0</asrwt>
<pdfrwt beam="1">  1        2 0.15999815E+00 0.57698932E+03</pdfrwt>
<pdfrwt beam="2">  1       -2 0.12312149E-01 0.57698932E+03</pdfrwt>
<totfact> 0.11685066E+03</totfact>
</mgrwt>
</event>
<event>
 4    1  0.5980424E-004  0.3176450E+03  0.7818608E-02  0.1076738E+00
         -2   -1    0    0    0  501 -0.00000000000E+00  0.00000000000E+00  0.32371763215E+02  0.32371763315E+02  0.25500000000E-02 0. -1.
          2   -1    0    0  501    0  0.00000000000E+00 -0.00000000000E+00 -0.77921577226E+03  0.77921577226E+03  0.25500000000E-02 0.  1.
    5000001    1    1    2    0    0  0.42658070812E+02 -0.50072452960E+02 -0.60825361133E+02  0.11813418687E+03  0.77000000000E+02 0.  0.
   -5000001    1    1    2    0    0 -0.42658070812E+02  0.50072452960E+02 -0.68601864791E+03  0.69345334871E+03  0.77000000000E+02 0.  0.
<mgrwt>
<rscale>  0 0.31764501E+03</rscale>
<asrwt>0</asrwt>
<pdfrwt beam="1">  1        2 0.11987934E+00 0.31764501E+03</pdfrwt>
<pdfrwt beam="2">  1       -2 0.49802718E-02 0.31764501E+03</pdfrwt>
<totfact> 0.72422816E+03</totfact>
</mgrwt>
</event>
<event>
 4    1  0.5980424E-004  0.3857020E+03  0.7818608E-02  0.1048846E+00
         -2   -1    0    0    0  501 -0.00000000000E+00  0.00000000000E+00  0.26885602191E+03  0.26885602193E+03  0.25500000000E-02 0. -1.
          2   -1    0    0  501    0  0.00000000000E+00 -0.00000000000E+00 -0.13833244532E+03  0.13833244534E+03  0.25500000000E-02 0.  1.
    5000001    1    1    2    0    0  0.94322066797E+02  0.61893762500E+02 -0.78465787786E+02  0.15752260147E+03  0.77000000000E+02 0.  0.
   -5000001    1    1    2    0    0 -0.94322066797E+02 -0.61893762500E+02  0.20898936438E+03  0.24966586580E+03  0.77000000000E+02 0.  0.
<mgrwt>
<rscale>  0 0.38570201E+03</rscale>
<asrwt>0</asrwt>
<pdfrwt beam="1">  1        2 0.21281914E-01 0.38570201E+03</pdfrwt>
<pdfrwt beam="2">  1       -2 0.41362465E-01 0.38570201E+03</pdfrwt>
<totfact> 0.14531728E+03</totfact>
</mgrwt>
</event>
<event>
 4    1  0.5980424E-004  0.2030784E+03  0.7818608E-02  0.1147167E+00
         -2   -1    0    0    0  501 -0.00000000000E+00  0.00000000000E+00  0.22519491438E+03  0.22519491439E+03  0.25500000000E-02 0. -1.
          2   -1    0    0  501    0  0.00000000000E+00 -0.00000000000E+00 -0.45783482710E+02  0.45783482781E+02  0.25500000000E-02 0.  1.
    5000001    1    1    2    0    0 -0.66021006315E+02  0.40216342226E+01  0.93044444780E+02  0.13769972956E+03  0.77000000000E+02 0.  0.
   -5000001    1    1    2    0    0  0.66021006315E+02 -0.40216342226E+01  0.86366986890E+02  0.13327866761E+03  0.77000000000E+02 0.  0.
<mgrwt>
<rscale>  0 0.20307838E+03</rscale>
<asrwt>0</asrwt>
<pdfrwt beam="1">  1        2 0.70436129E-02 0.20307838E+03</pdfrwt>
<pdfrwt beam="2">  1       -2 0.34645370E-01 0.20307838E+03</pdfrwt>
<totfact> 0.76308311E+03</totfact>
</mgrwt>
</event>
<event>
 4    1  0.5980424E-004  0.7793213E+03  0.7818608E-02  0.9590441E-01
          2   -1    0    0  501    0  0.00000000000E+00  0.00000000000E+00  0.12381514886E+04  0.12381514886E+04  0.25500000000E-02 0.  1.
         -2   -1    0    0    0  501 -0.00000000000E+00 -0.00000000000E+00 -0.12263073233E+03  0.12263073236E+03  0.25500000000E-02 0. -1.
    5000001    1    1    2    0    0  0.96476898650E+02  0.33614121852E+03  0.28947374425E+03  0.46045929176E+03  0.77000000000E+02 0.  0.
   -5000001    1    1    2    0    0 -0.96476898650E+02 -0.33614121852E+03  0.82604701199E+03  0.90032292917E+03  0.77000000000E+02 0.  0.
<mgrwt>
<rscale>  0 0.77932130E+03</rscale>
<asrwt>0</asrwt>
<pdfrwt beam="1">  1        2 0.19048485E+00 0.77932130E+03</pdfrwt>
<pdfrwt beam="2">  1       -2 0.18866266E-01 0.77932130E+03</pdfrwt>
<totfact> 0.42786192E+02</totfact>
</mgrwt>
</event>
<event>
 4    1  0.5980424E-004  0.3617115E+03  0.7818608E-02  0.1057908E+00
          2   -1    0    0  501    0  0.00000000000E+00  0.00000000000E+00  0.13274324856E+04  0.13274324856E+04  0.25500000000E-02 0.  1.
         -2   -1    0    0    0  501 -0.00000000000E+00 -0.00000000000E+00 -0.24640655920E+02  0.24640656052E+02  0.25500000000E-02 0. -1.
    5000001    1    1    2    0    0 -0.12667413208E+03  0.73516097295E+02  0.37852654679E+03  0.41311293725E+03  0.77000000000E+02 0.  0.
   -5000001    1    1    2    0    0  0.12667413208E+03 -0.73516097295E+02  0.92426528290E+03  0.93896020442E+03  0.77000000000E+02 0.  0.
<mgrwt>
<rscale>  0 0.36171153E+03</rscale>
<asrwt>0</asrwt>
<pdfrwt beam="1">  1        2 0.20422041E+00 0.36171153E+03</pdfrwt>
<pdfrwt beam="2">  1       -2 0.37908697E-02 0.36171153E+03</pdfrwt>
<totfact> 0.50670064E+03</totfact>
</mgrwt>
</event>
<event>
 4    1  0.5980424E-004  0.1723700E+03  0.7818608E-02  0.1175399E+00
          2   -1    0    0  501    0  0.00000000000E+00  0.00000000000E+00  0.14420100830E+03  0.14420100832E+03  0.25500000000E-02 0.  1.
         -2   -1    0    0    0  501 -0.00000000000E+00 -0.00000000000E+00 -0.51510414088E+02  0.51510414152E+02  0.25500000000E-02 0. -1.
    5000001    1    1    2    0    0 -0.18432643654E+02 -0.16765555997E+01  0.84954079285E+02  0.11614115885E+03  0.77000000000E+02 0.  0.
   -5000001    1    1    2    0    0  0.18432643654E+02  0.16765555997E+01  0.77365149266E+01  0.79570263629E+02  0.77000000000E+02 0.  0.
<mgrwt>
<rscale>  0 0.17236999E+03</rscale>
<asrwt>0</asrwt>
<pdfrwt beam="1">  1        2 0.22184770E-01 0.17236999E+03</pdfrwt>
<pdfrwt beam="2">  1       -2 0.79246793E-02 0.17236999E+03</pdfrwt>
<totfact> 0.22430399E+04</totfact>
</mgrwt>
</event>
<event>
 4    1  0.5980424E-004  0.4022584E+03  0.7818608E-02  0.1043000E+00
          2   -1    0    0  501    0  0.00000000000E+00  0.00000000000E+00  0.26306814301E+04  0.26306814301E+04  0.25500000000E-02 0.  1.
         -2   -1    0    0    0  501 -0.00000000000E+00 -0.00000000000E+00 -0.15377367843E+02  0.15377368055E+02  0.25500000000E-02 0. -1.
    5000001    1    1    2    0    0 -0.14253332859E+03 -0.74470189160E+02  0.69542370986E+03  0.71791691377E+03  0.77000000000E+02 0.  0.
   -5000001    1    1    2    0    0  0.14253332859E+03  0.74470189160E+02  0.19198803524E+04  0.19281418844E+04  0.77000000000E+02 0.  0.
<mgrwt>
<rscale>  0 0.40225841E+03</rscale>
<asrwt>0</asrwt>
<pdfrwt beam="1">  1        2 0.40472013E+00 0.40225841E+03</pdfrwt>
<pdfrwt beam="2">  1       -2 0.23657495E-02 0.40225841E+03</pdfrwt>
<totfact> 0.20228650E+03</totfact>
</mgrwt>
</event>
<event>
 4    1  0.5980424E-004  0.2906015E+03  0.7818608E-02  0.1090036E+00
         -2   -1    0    0    0  501 -0.00000000000E+00  0.00000000000E+00  0.10982878856E+03  0.10982878859E+03  0.25500000000E-02 0. -1.
          2   -1    0    0  501    0  0.00000000000E+00 -0.00000000000E+00 -0.19222920697E+03  0.19222920699E+03  0.25500000000E-02 0.  1.
    5000001    1    1    2    0    0  0.82251291766E+02  0.91731139526E+02 -0.39276860286E+02  0.15050431459E+03  0.77000000000E+02 0.  0.
   -5000001    1    1    2    0    0 -0.82251291766E+02 -0.91731139526E+02 -0.43123558124E+02  0.15155368099E+03  0.77000000000E+02 0.  0.
<mgrwt>
<rscale>  0 0.29060145E+03</rscale>
<asrwt>0</asrwt>
<pdfrwt beam="1">  1        2 0.29573724E-01 0.29060145E+03</pdfrwt>
<pdfrwt beam="2">  1       -2 0.16896737E-01 0.29060145E+03</pdfrwt>
<totfact> 0.49742120E+03</totfact>
</mgrwt>
</event>
<event>
 4    1  0.5980424E-004  0.1916745E+03  0.7818608E-02  0.1156960E+00
          2   -1    0    0  501    0  0.00000000000E+00  0.00000000000E+00  0.32740517308E+02  0.32740517408E+02  0.25500000000E-02 0.  1.
         -2   -1    0    0    0  501 -0.00000000000E+00 -0.00000000000E+00 -0.28053244004E+03  0.28053244006E+03  0.25500000000E-02 0. -1.
    5000001    1    1    2    0    0  0.27901471042E+02  0.49536588145E+02 -0.13180409342E+03  0.16289163482E+03  0.77000000000E+02 0.  0.
   -5000001    1    1    2    0    0 -0.27901471042E+02 -0.49536588145E+02 -0.11598782932E+03  0.15038132265E+03  0.77000000000E+02 0.  0.
<mgrwt>
<rscale>  0 0.19167449E+03</rscale>
<asrwt>0</asrwt>
<pdfrwt beam="1">  1        2 0.50370028E-02 0.19167449E+03</pdfrwt>
<pdfrwt beam="2">  1       -2 0.43158835E-01 0.19167449E+03</pdfrwt>
<totfact> 0.77530500E+03</totfact>
</mgrwt>
</event>
<event>
 4    1  0.5980424E-004  0.7018348E+03  0.7818608E-02  0.9714100E-01
         -2   -1    0    0    0  501 -0.00000000000E+00  0.00000000000E+00  0.15995579654E+03  0.15995579656E+03  0.25500000000E-02 0. -1.
          2   -1    0    0  501    0  0.00000000000E+00 -0.00000000000E+00 -0.76985647735E+03  0.76985647735E+03  0.25500000000E-02 0.  1.
    5000001    1    1    2    0    0  0.12966899080E+03  0.31685714814E+03 -0.30332421479E+03  0.46383949679E+03  0.77000000000E+02 0.  0.
   -5000001    1    1    2    0    0 -0.12966899080E+03 -0.31685714814E+03 -0.30657646602E+03  0.46597277713E+03  0.77000000000E+02 0.  0.
<mgrwt>
<rscale>  0 0.70183476E+03</rscale>
<asrwt>0</asrwt>
<pdfrwt beam="1">  1        2 0.11843946E+00 0.70183476E+03</pdfrwt>
<pdfrwt beam="2">  1       -2 0.24608585E-01 0.70183476E+03</pdfrwt>
<totfact> 0.53766345E+02</totfact>
</mgrwt>
</event>
<event>
 4    1  0.5980424E-004  0.1823070E+03  0.7818608E-02  0.1165589E+00
          2   -1    0    0  501    0  0.00000000000E+00  0.00000000000E+00  0.61957150954E+03  0.61957150955E+03  0.25500000000E-02 0.  1.
         -2   -1    0    0    0  501 -0.00000000000E+00 -0.00000000000E+00 -0.13410812320E+02  0.13410812562E+02  0.25500000000E-02 0. -1.
    5000001    1    1    2    0    0 -0.44806363960E+02  0.13541176383E+02  0.25534936510E+03  0.27078270249E+03  0.77000000000E+02 0.  0.
   -5000001    1    1    2    0    0  0.44806363960E+02 -0.13541176383E+02  0.35081133212E+03  0.36219961962E+03  0.77000000000E+02 0.  0.
<mgrwt>
<rscale>  0 0.18230696E+03</rscale>
<asrwt>0</asrwt>
<pdfrwt beam="1">  1        2 0.95318700E-01 0.18230696E+03</pdfrwt>
<pdfrwt beam="2">  1       -2 0.20632018E-02 0.18230696E+03</pdfrwt>
<totfact> 0.34510832E+04</totfact>
</mgrwt>
</event>
<event>
 4    1  0.5980424E-004  0.3103691E+03  0.7818608E-02  0.1080169E+00
         -2   -1    0    0    0  501 -0.00000000000E+00  0.00000000000E+00  0.81682375964E+01  0.81682379944E+01  0.25500000000E-02 0. -1.
          2   -1    0    0  501    0  0.00000000000E+00 -0.00000000000E+00 -0.29482794318E+04  0.29482794318E+04  0.25500000000E-02 0.  1.
    5000001    1    1    2    0    0  0.12322947614E+03 -0.31090802433E+02 -0.10439407095E+04  0.10544635350E+04  0.77000000000E+02 0.  0.
   -5000001    1    1    2    0    0 -0.12322947614E+03  0.31090802433E+02 -0.18961704847E+04  0.19019841348E+04  0.77000000000E+02 0.  0.
<mgrwt>
<rscale>  0 0.31036912E+03</rscale>
<asrwt>0</asrwt>
<pdfrwt beam="1">  1        2 0.45358060E+00 0.31036912E+03</pdfrwt>
<pdfrwt beam="2">  1       -2 0.12566543E-02 0.31036912E+03</pdfrwt>
<totfact> 0.34067983E+03</totfact>
</mgrwt>
</event>
<event>
 4    1  0.5980424E-004  0.4776450E+03  0.7818608E-02  0.1019784E+00
         -2   -1    0    0    0  501 -0.00000000000E+00  0.00000000000E+00  0.11129965365E+03  0.11129965368E+03  0.25500000000E-02 0. -1.
          2   -1    0    0  501    0  0.00000000000E+00 -0.00000000000E+00 -0.51245618470E+03  0.51245618470E+03  0.25500000000E-02 0.  1.
    5000001    1    1    2    0    0 -0.12049012894E+03  0.15575475493E+03 -0.34558461985E+03  0.40513595784E+03  0.77000000000E+02 0.  0.
   -5000001    1    1    2    0    0  0.12049012894E+03 -0.15575475493E+03 -0.55571911198E+02  0.21861988054E+03  0.77000000000E+02 0.  0.
<mgrwt>
<rscale>  0 0.47764504E+03</rscale>
<asrwt>0</asrwt>
<pdfrwt beam="1">  1        2 0.78839412E-01 0.47764504E+03</pdfrwt>
<pdfrwt beam="2">  1       -2 0.17123024E-01 0.47764504E+03</pdfrwt>
<totfact> 0.16683200E+03</totfact>
</mgrwt>
</event>
<event>
 4    1  0.5980424E-004  0.2488189E+03  0.7818608E-02  0.1114054E+00
         -2   -1    0    0    0  501 -0.00000000000E+00  0.00000000000E+00  0.49340875993E+02  0.49340876059E+02  0.25500000000E-02 0. -1.
          2   -1    0    0  501    0  0.00000000000E+00 -0.00000000000E+00 -0.31368953100E+03  0.31368953101E+03  0.25500000000E-02 0.  1.
    5000001    1    1    2    0    0  0.67908011071E+02  0.41319899392E+02 -0.21509313415E+03  0.24189437449E+03  0.77000000000E+02 0.  0.
   -5000001    1    1    2    0    0 -0.67908011071E+02 -0.41319899392E+02 -0.49255520858E+02  0.12113603258E+03  0.77000000000E+02 0.  0.
<mgrwt>
<rscale>  0 0.24881894E+03</rscale>
<asrwt>0</asrwt>
<pdfrwt beam="1">  1        2 0.48259927E-01 0.24881894E+03</pdfrwt>
<pdfrwt beam="2">  1       -2 0.75909042E-02 0.24881894E+03</pdfrwt>
<totfact> 0.10543132E+04</totfact>
</mgrwt>
</event>
<event>
 4    1  0.5980424E-004  0.2210800E+03  0.7818608E-02  0.1133080E+00
         -2   -1    0    0    0  501 -0.00000000000E+00  0.00000000000E+00  0.50496369338E+01  0.50496375777E+01  0.25500000000E-02 0. -1.
          2   -1    0    0  501    0  0.00000000000E+00 -0.00000000000E+00 -0.24197969097E+04  0.24197969097E+04  0.25500000000E-02 0.  1.
    5000001    1    1    2    0    0 -0.42059006514E+02  0.60354933125E+02 -0.88229720136E+03  0.88870075363E+03  0.77000000000E+02 0.  0.
   -5000001    1    1    2    0    0  0.42059006514E+02 -0.60354933125E+02 -0.15324500714E+04  0.15361457937E+04  0.77000000000E+02 0.  0.
<mgrwt>
<rscale>  0 0.22108005E+03</rscale>
<asrwt>0</asrwt>
<pdfrwt beam="1">  1        2 0.37227552E+00 0.22108005E+03</pdfrwt>
<pdfrwt beam="2">  1       -2 0.77686920E-03 0.22108005E+03</pdfrwt>
<totfact> 0.13589872E+04</totfact>
</mgrwt>
</event>
<event>
 4    1  0.5980424E-004  0.4528549E+03  0.7818608E-02  0.1026874E+00
          2   -1    0    0  501    0  0.00000000000E+00  0.00000000000E+00  0.94332553885E+02  0.94332553919E+02  0.25500000000E-02 0.  1.
         -2   -1    0    0    0  501 -0.00000000000E+00 -0.00000000000E+00 -0.54349637798E+03  0.54349637799E+03  0.25500000000E-02 0. -1.
    5000001    1    1    2    0    0  0.15544203184E+02  0.19981307981E+03 -0.12327528936E+03  0.24757359730E+03  0.77000000000E+02 0.  0.
   -5000001    1    1    2    0    0 -0.15544203184E+02 -0.19981307981E+03 -0.32588853473E+03  0.39025533460E+03  0.77000000000E+02 0.  0.
<mgrwt>
<rscale>  0 0.45285495E+03</rscale>
<asrwt>0</asrwt>
<pdfrwt beam="1">  1        2 0.14512701E-01 0.45285495E+03</pdfrwt>
<pdfrwt beam="2">  1       -2 0.83614826E-01 0.45285495E+03</pdfrwt>
<totfact> 0.52631878E+02</totfact>
</mgrwt>
</event>
<event>
 4    1  0.5980424E-004  0.3736012E+03  0.7818608E-02  0.1053324E+00
         -2   -1    0    0    0  501 -0.00000000000E+00  0.00000000000E+00  0.25828147489E+03  0.25828147491E+03  0.25500000000E-02 0. -1.
          2   -1    0    0  501    0  0.00000000000E+00 -0.00000000000E+00 -0.13510244573E+03  0.13510244575E+03  0.25500000000E-02 0.  1.
    5000001    1    1    2    0    0 -0.65597910185E+02  0.15446187153E+03  0.91444048858E+02  0.20604021367E+03  0.77000000000E+02 0.  0.
   -5000001    1    1    2    0    0  0.65597910185E+02 -0.15446187153E+03  0.31734980305E+02  0.18734370700E+03  0.77000000000E+02 0.  0.
<mgrwt>
<rscale>  0 0.37360117E+03</rscale>
<asrwt>0</asrwt>
<pdfrwt beam="1">  1        2 0.20784992E-01 0.37360117E+03</pdfrwt>
<pdfrwt beam="2">  1       -2 0.39735611E-01 0.37360117E+03</pdfrwt>
<totfact> 0.16127379E+03</totfact>
</mgrwt>
</event>
<event>
 4    1  0.5980424E-004  0.3252086E+03  0.7818608E-02  0.1073277E+00
         -2   -1    0    0    0  501 -0.00000000000E+00  0.00000000000E+00  0.16704258469E+02  0.16704258664E+02  0.25500000000E-02 0. -1.
          2   -1    0    0  501    0  0.00000000000E+00 -0.00000000000E+00 -0.15828389241E+04  0.15828389241E+04  0.25500000000E-02 0.  1.
    5000001    1    1    2    0    0 -0.13829785431E+03  0.20185274596E+02 -0.93683752001E+03  0.95033009040E+03  0.77000000000E+02 0.  0.
   -5000001    1    1    2    0    0  0.13829785431E+03 -0.20185274596E+02 -0.62929714566E+03  0.64921309241E+03  0.77000000000E+02 0.  0.
<mgrwt>
<rscale>  0 0.32520855E+03</rscale>
<asrwt>0</asrwt>
<pdfrwt beam="1">  1        2 0.24351356E+00 0.32520855E+03</pdfrwt>
<pdfrwt beam="2">  1       -2 0.25698872E-02 0.32520855E+03</pdfrwt>
<totfact> 0.65875257E+03</totfact>
</mgrwt>
</event>
<event>
 4    1  0.5980424E-004  0.3339827E+03  0.7818608E-02  0.1069388E+00
          2   -1    0    0  501    0  0.00000000000E+00  0.00000000000E+00  0.61017500422E+03  0.61017500422E+03  0.25500000000E-02 0.  1.
         -2   -1    0    0    0  501 -0.00000000000E+00 -0.00000000000E+00 -0.45701819336E+02  0.45701819408E+02  0.25500000000E-02 0. -1.
    5000001    1    1    2    0    0 -0.11647541090E+03  0.64282653930E+02  0.15408682085E+03  0.21764771834E+03  0.77000000000E+02 0.  0.
   -5000001    1    1    2    0    0  0.11647541090E+03 -0.64282653930E+02  0.41038636403E+03  0.43822910529E+03  0.77000000000E+02 0.  0.
<mgrwt>
<rscale>  0 0.33398268E+03</rscale>
<asrwt>0</asrwt>
<pdfrwt beam="1">  1        2 0.93873070E-01 0.33398268E+03</pdfrwt>
<pdfrwt beam="2">  1       -2 0.70310497E-02 0.33398268E+03</pdfrwt>
<totfact> 0.57418312E+03</totfact>
</mgrwt>
</event>
<event>
 4    1  0.5980424E-004  0.5133519E+03  0.7818608E-02  0.1010351E+00
          2   -1    0    0  501    0  0.00000000000E+00  0.00000000000E+00  0.18861434887E+04  0.18861434887E+04  0.25500000000E-02 0.  1.
         -2   -1    0    0    0  501 -0.00000000000E+00 -0.00000000000E+00 -0.34929758082E+02  0.34929758175E+02  0.25500000000E-02 0. -1.
    5000001    1    1    2    0    0  0.20648995891E+03  0.12227296313E+03  0.11075861152E+04  0.11358982275E+04  0.77000000000E+02 0.  0.
   -5000001    1    1    2    0    0 -0.20648995891E+03 -0.12227296313E+03  0.74362761537E+03  0.78517501934E+03  0.77000000000E+02 0.  0.
<mgrwt>
<rscale>  0 0.51335187E+03</rscale>
<asrwt>0</asrwt>
<pdfrwt beam="1">  1        2 0.29017595E+00 0.51335187E+03</pdfrwt>
<pdfrwt beam="2">  1       -2 0.53738083E-02 0.51335187E+03</pdfrwt>
<totfact> 0.14722568E+03</totfact>
</mgrwt>
</event>
<event>
 4    1  0.5980424E-004  0.3220600E+03  0.7818608E-02  0.1074705E+00
         -2   -1    0    0    0  501 -0.00000000000E+00  0.00000000000E+00  0.25737005224E+02  0.25737005351E+02  0.25500000000E-02 0. -1.
          2   -1    0    0  501    0  0.00000000000E+00 -0.00000000000E+00 -0.10075246482E+04  0.10075246482E+04  0.25500000000E-02 0.  1.
    5000001    1    1    2    0    0  0.67872176151E+02  0.80556937131E+02 -0.18812899238E+03  0.22894883749E+03  0.77000000000E+02 0.  0.
   -5000001    1    1    2    0    0 -0.67872176151E+02 -0.80556937131E+02 -0.79365865060E+03  0.80431281606E+03  0.77000000000E+02 0.  0.
<mgrwt>
<rscale>  0 0.32206004E+03</rscale>
<asrwt>0</asrwt>
<pdfrwt beam="1">  1        2 0.15500376E+00 0.32206004E+03</pdfrwt>
<pdfrwt beam="2">  1       -2 0.39595401E-02 0.32206004E+03</pdfrwt>
<totfact> 0.72702320E+03</totfact>
</mgrwt>
</event>
<event>
 4    1  0.5980424E-004  0.2155996E+03  0.7818608E-02  0.1137207E+00
         -2   -1    0    0    0  501 -0.00000000000E+00  0.00000000000E+00  0.65059607114E+01  0.65059612111E+01  0.25500000000E-02 0. -1.
          2   -1    0    0  501    0  0.00000000000E+00 -0.00000000000E+00 -0.17861771736E+04  0.17861771736E+04  0.25500000000E-02 0.  1.
    5000001    1    1    2    0    0  0.43664824379E+02  0.13423119308E+02 -0.13890743651E+04  0.13919566763E+04  0.77000000000E+02 0.  0.
   -5000001    1    1    2    0    0 -0.43664824379E+02 -0.13423119308E+02 -0.39059684776E+03  0.40072645845E+03  0.77000000000E+02 0.  0.
<mgrwt>
<rscale>  0 0.21559962E+03</rscale>
<asrwt>0</asrwt>
<pdfrwt beam="1">  1        2 0.27479610E+00 0.21559962E+03</pdfrwt>
<pdfrwt beam="2">  1       -2 0.10009185E-02 0.21559962E+03</pdfrwt>
<totfact> 0.20298208E+04</totfact>
</mgrwt>
</event>
<event>
 4    1  0.5980424E-004  0.1883760E+03  0.7818608E-02  0.1159934E+00
         -2   -1    0    0    0  501 -0.00000000000E+00  0.00000000000E+00  0.55905571128E+01  0.55905576944E+01  0.25500000000E-02 0. -1.
          2   -1    0    0  501    0  0.00000000000E+00 -0.00000000000E+00 -0.15868513048E+04  0.15868513048E+04  0.25500000000E-02 0.  1.
    5000001    1    1    2    0    0  0.47553427875E+02  0.19822280231E+02 -0.64713639500E+03  0.65373447594E+03  0.77000000000E+02 0.  0.
   -5000001    1    1    2    0    0 -0.47553427875E+02 -0.19822280231E+02 -0.93412435267E+03  0.93870738654E+03  0.77000000000E+02 0.  0.
<mgrwt>
<rscale>  0 0.18837604E+03</rscale>
<asrwt>0</asrwt>
<pdfrwt beam="1">  1        2 0.24413061E+00 0.18837604E+03</pdfrwt>
<pdfrwt beam="2">  1       -2 0.86008702E-03 0.18837604E+03</pdfrwt>
<totfact> 0.31871098E+04</totfact>
</mgrwt>
</event>
<event>
 4    1  0.5980424E-004  0.4129310E+03  0.7818608E-02  0.1039392E+00
         -2   -1    0    0    0  501 -0.00000000000E+00  0.00000000000E+00  0.87613296387E+02  0.87613296424E+02  0.25500000000E-02 0. -1.
          2   -1    0    0  501    0  0.00000000000E+00 -0.00000000000E+00 -0.48654719650E+03  0.48654719651E+03  0.25500000000E-02 0.  1.
    5000001    1    1    2    0    0  0.89756958227E+02  0.64487627890E+02  0.18102210249E+02  0.13591046949E+03  0.77000000000E+02 0.  0.
   -5000001    1    1    2    0    0 -0.89756958227E+02 -0.64487627890E+02 -0.41703611037E+03  0.43825002345E+03  0.77000000000E+02 0.  0.
<mgrwt>
<rscale>  0 0.41293101E+03</rscale>
<asrwt>0</asrwt>
<pdfrwt beam="1">  1        2 0.74853413E-01 0.41293101E+03</pdfrwt>
<pdfrwt beam="2">  1       -2 0.13478969E-01 0.41293101E+03</pdfrwt>
<totfact> 0.26399545E+03</totfact>
</mgrwt>
</event>
<event>
 4    1  0.5980424E-004  0.2166976E+03  0.7818608E-02  0.1136369E+00
          2   -1    0    0  501    0  0.00000000000E+00  0.00000000000E+00  0.74270696833E+03  0.74270696833E+03  0.25500000000E-02 0.  1.
         -2   -1    0    0    0  501 -0.00000000000E+00 -0.00000000000E+00 -0.15806323461E+02  0.15806323667E+02  0.25500000000E-02 0. -1.
    5000001    1    1    2    0    0 -0.11505395434E+02  0.74727244730E+02  0.39737490256E+03  0.41176734744E+03  0.77000000000E+02 0.  0.
   -5000001    1    1    2    0    0  0.11505395434E+02 -0.74727244730E+02  0.32952574231E+03  0.34674594456E+03  0.77000000000E+02 0.  0.
<mgrwt>
<rscale>  0 0.21669764E+03</rscale>
<asrwt>0</asrwt>
<pdfrwt beam="1">  1        2 0.11426264E+00 0.21669764E+03</pdfrwt>
<pdfrwt beam="2">  1       -2 0.24317414E-02 0.21669764E+03</pdfrwt>
<totfact> 0.22124885E+04</totfact>
</mgrwt>
</event>
<event>
 4    1  0.5980424E-004  0.2658491E+03  0.7818608E-02  0.1103679E+00
          2   -1    0    0  501    0  0.00000000000E+00  0.00000000000E+00  0.71755225226E+03  0.71755225227E+03  0.25500000000E-02 0.  1.
         -2   -1    0    0    0  501 -0.00000000000E+00 -0.00000000000E+00 -0.24623902240E+02  0.24623902372E+02  0.25500000000E-02 0. -1.
    5000001    1    1    2    0    0  0.72422053930E+02  0.77572585447E+02  0.28546164234E+03  0.31413342572E+03  0.77000000000E+02 0.  0.
   -5000001    1    1    2    0    0 -0.72422053930E+02 -0.77572585447E+02  0.40746670769E+03  0.42804272892E+03  0.77000000000E+02 0.  0.
<mgrwt>
<rscale>  0 0.26584910E+03</rscale>
<asrwt>0</asrwt>
<pdfrwt beam="1">  1        2 0.11039264E+00 0.26584910E+03</pdfrwt>
<pdfrwt beam="2">  1       -2 0.37882930E-02 0.26584910E+03</pdfrwt>
<totfact> 0.12068881E+04</totfact>
</mgrwt>
</event>
<event>
 4    1  0.5980424E-004  0.2347373E+03  0.7818608E-02  0.1123349E+00
         -2   -1    0    0    0  501 -0.00000000000E+00  0.00000000000E+00  0.99481710519E+03  0.99481710520E+03  0.25500000000E-02 0. -1.
          2   -1    0    0  501    0  0.00000000000E+00 -0.00000000000E+00 -0.13847165955E+02  0.13847166189E+02  0.25500000000E-02 0.  1.
    5000001    1    1    2    0    0  0.27849146547E+02  0.66665907402E+02  0.27026759693E+03  0.29016114854E+03  0.77000000000E+02 0.  0.
   -5000001    1    1    2    0    0 -0.27849146547E+02 -0.66665907402E+02  0.71070234231E+03  0.71850312284E+03  0.77000000000E+02 0.  0.
<mgrwt>
<rscale>  0 0.23473728E+03</rscale>
<asrwt>0</asrwt>
<pdfrwt beam="1">  1        2 0.21303330E-02 0.23473728E+03</pdfrwt>
<pdfrwt beam="2">  1       -2 0.15304880E+00 0.23473728E+03</pdfrwt>
<totfact> 0.15000992E+03</totfact>
</mgrwt>
</event>
<event>
 4    1  0.5980424E-004  0.4297493E+03  0.7818608E-02  0.1033939E+00
          2   -1    0    0  501    0  0.00000000000E+00  0.00000000000E+00  0.66654274642E+02  0.66654274690E+02  0.25500000000E-02 0.  1.
         -2   -1    0    0    0  501 -0.00000000000E+00 -0.00000000000E+00 -0.69269559299E+03  0.69269559300E+03  0.25500000000E-02 0. -1.
    5000001    1    1    2    0    0 -0.66088826180E+02 -0.92087512684E+02 -0.60547404287E+03  0.62078632357E+03  0.77000000000E+02 0.  0.
   -5000001    1    1    2    0    0  0.66088826180E+02  0.92087512684E+02 -0.20567275479E+02  0.13856354412E+03  0.77000000000E+02 0.  0.
<mgrwt>
<rscale>  0 0.42974933E+03</rscale>
<asrwt>0</asrwt>
<pdfrwt beam="1">  1        2 0.10254504E-01 0.42974933E+03</pdfrwt>
<pdfrwt beam="2">  1       -2 0.10656855E+00 0.42974933E+03</pdfrwt>
<totfact> 0.46077554E+02</totfact>
</mgrwt>
</event>
<event>
 4    1  0.5980424E-004  0.2517535E+03  0.7818608E-02  0.1112202E+00
          2   -1    0    0  501    0  0.00000000000E+00  0.00000000000E+00  0.15456412273E+03  0.15456412275E+03  0.25500000000E-02 0.  1.
         -2   -1    0    0    0  501 -0.00000000000E+00 -0.00000000000E+00 -0.10251379056E+03  0.10251379060E+03  0.25500000000E-02 0. -1.
    5000001    1    1    2    0    0  0.47343138923E+01  0.99464962718E+02  0.26547427792E+02  0.12864469853E+03  0.77000000000E+02 0.  0.
   -5000001    1    1    2    0    0 -0.47343138923E+01 -0.99464962718E+02  0.25502904371E+02  0.12843321482E+03  0.77000000000E+02 0.  0.
<mgrwt>
<rscale>  0 0.25175348E+03</rscale>
<asrwt>0</asrwt>
<pdfrwt beam="1">  1        2 0.23779096E-01 0.25175348E+03</pdfrwt>
<pdfrwt beam="2">  1       -2 0.15771353E-01 0.25175348E+03</pdfrwt>
<totfact> 0.70716058E+03</totfact>
</mgrwt>
</event>
<event>
 4    1  0.5980424E-004  0.2132127E+03  0.7818608E-02  0.1139047E+00
          2   -1    0    0  501    0  0.00000000000E+00  0.00000000000E+00  0.31776836948E+03  0.31776836949E+03  0.25500000000E-02 0.  1.
         -2   -1    0    0    0  501 -0.00000000000E+00 -0.00000000000E+00 -0.35764785757E+02  0.35764785848E+02  0.25500000000E-02 0. -1.
    5000001    1    1    2    0    0  0.55048991116E+02 -0.42795063528E+02  0.18073138375E+03  0.20845777020E+03  0.77000000000E+02 0.  0.
   -5000001    1    1    2    0    0 -0.55048991116E+02  0.42795063528E+02  0.10127219997E+03  0.14507538514E+03  0.77000000000E+02 0.  0.
<mgrwt>
<rscale>  0 0.21321274E+03</rscale>
<asrwt>0</asrwt>
<pdfrwt beam="1">  1        2 0.48887443E-01 0.21321274E+03</pdfrwt>
<pdfrwt beam="2">  1       -2 0.55022746E-02 0.21321274E+03</pdfrwt>
<totfact> 0.16901459E+04</totfact>
</mgrwt>
</event>
<event>
 4    1  0.5980424E-004  0.2837373E+03  0.7818608E-02  0.1093665E+00
          2   -1    0    0  501    0  0.00000000000E+00  0.00000000000E+00  0.57446356464E+02  0.57446356521E+02  0.25500000000E-02 0.  1.
         -2   -1    0    0    0  501 -0.00000000000E+00 -0.00000000000E+00 -0.35035668921E+03  0.35035668922E+03  0.25500000000E-02 0. -1.
    5000001    1    1    2    0    0  0.11367740224E+03 -0.93619473982E+01 -0.96926798721E+02  0.16832706897E+03  0.77000000000E+02 0.  0.
   -5000001    1    1    2    0    0 -0.11367740224E+03  0.93619473982E+01 -0.19598353403E+03  0.23947597677E+03  0.77000000000E+02 0.  0.
<mgrwt>
<rscale>  0 0.28373731E+03</rscale>
<asrwt>0</asrwt>
<pdfrwt beam="1">  1        2 0.88379012E-02 0.28373731E+03</pdfrwt>
<pdfrwt beam="2">  1       -2 0.53901028E-01 0.28373731E+03</pdfrwt>
<totfact> 0.24661630E+03</totfact>
</mgrwt>
</event>
<event>
 4    1  0.5980424E-004  0.1674272E+03  0.7818608E-02  0.1180558E+00
          2   -1    0    0  501    0  0.00000000000E+00  0.00000000000E+00  0.14748759888E+02  0.14748760108E+02  0.25500000000E-02 0.  1.
         -2   -1    0    0    0  501 -0.00000000000E+00 -0.00000000000E+00 -0.47515660691E+03  0.47515660692E+03  0.25500000000E-02 0. -1.
    5000001    1    1    2    0    0  0.15018491147E+02 -0.29213244538E+02 -0.23007217841E+03  0.24482887087E+03  0.77000000000E+02 0.  0.
   -5000001    1    1    2    0    0 -0.15018491147E+02  0.29213244538E+02 -0.23033566862E+03  0.24507649616E+03  0.77000000000E+02 0.  0.
<mgrwt>
<rscale>  0 0.16742725E+03</rscale>
<asrwt>0</asrwt>
<pdfrwt beam="1">  1        2 0.22690404E-02 0.16742725E+03</pdfrwt>
<pdfrwt beam="2">  1       -2 0.73101004E-01 0.16742725E+03</pdfrwt>
<totfact> 0.76561812E+03</totfact>
</mgrwt>
</event>
<event>
 4    1  0.5980424E-004  0.2905548E+03  0.7818608E-02  0.1090060E+00
         -2   -1    0    0    0  501 -0.00000000000E+00  0.00000000000E+00  0.43534340768E+03  0.43534340768E+03  0.25500000000E-02 0. -1.
          2   -1    0    0  501    0  0.00000000000E+00 -0.00000000000E+00 -0.48480179858E+02  0.48480179925E+02  0.25500000000E-02 0.  1.
    5000001    1    1    2    0    0 -0.50380786888E+02  0.10344512115E+03  0.26672583041E+03  0.30051752925E+03  0.77000000000E+02 0.  0.
   -5000001    1    1    2    0    0  0.50380786888E+02 -0.10344512115E+03  0.12013739741E+03  0.18330605836E+03  0.77000000000E+02 0.  0.
<mgrwt>
<rscale>  0 0.29055483E+03</rscale>
<asrwt>0</asrwt>
<pdfrwt beam="1">  1        2 0.74584893E-02 0.29055483E+03</pdfrwt>
<pdfrwt beam="2">  1       -2 0.66975908E-01 0.29055483E+03</pdfrwt>
<totfact> 0.19511920E+03</totfact>
</mgrwt>
</event>
<event>
 4    1  0.5980424E-004  0.2659233E+03  0.7818608E-02  0.1103636E+00
         -2   -1    0    0    0  501 -0.00000000000E+00  0.00000000000E+00  0.25066732133E+02  0.25066732263E+02  0.25500000000E-02 0. -1.
          2   -1    0    0  501    0  0.00000000000E+00 -0.00000000000E+00 -0.70526958951E+03  0.70526958951E+03  0.25500000000E-02 0.  1.
    5000001    1    1    2    0    0 -0.48860392673E+02  0.92250820514E+02 -0.25992430025E+03  0.29049473957E+03  0.77000000000E+02 0.  0.
   -5000001    1    1    2    0    0  0.48860392673E+02 -0.92250820514E+02 -0.42027855712E+03  0.43984158220E+03  0.77000000000E+02 0.  0.
<mgrwt>
<rscale>  0 0.26592333E+03</rscale>
<asrwt>0</asrwt>
<pdfrwt beam="1">  1        2 0.10850300E+00 0.26592333E+03</pdfrwt>
<pdfrwt beam="2">  1       -2 0.38564209E-02 0.26592333E+03</pdfrwt>
<totfact> 0.12000369E+04</totfact>
</mgrwt>
</event>
<event>
 4    1  0.5980424E-004  0.2065192E+03  0.7818608E-02  0.1144352E+00
          2   -1    0    0  501    0  0.00000000000E+00  0.00000000000E+00  0.77036710727E+03  0.77036710727E+03  0.25500000000E-02 0.  1.
         -2   -1    0    0    0  501 -0.00000000000E+00 -0.00000000000E+00 -0.13840868441E+02  0.13840868676E+02  0.25500000000E-02 0. -1.
    5000001    1    1    2    0    0 -0.66730466325E+02 -0.25946043454E+01  0.44110327027E+03  0.45272594597E+03  0.77000000000E+02 0.  0.
   -5000001    1    1    2    0    0  0.66730466325E+02  0.25946043454E+01  0.31542296856E+03  0.33148202998E+03  0.77000000000E+02 0.  0.
<mgrwt>
<rscale>  0 0.20651925E+03</rscale>
<asrwt>0</asrwt>
<pdfrwt beam="1">  1        2 0.11851803E+00 0.20651925E+03</pdfrwt>
<pdfrwt beam="2">  1       -2 0.21293641E-02 0.20651925E+03</pdfrwt>
<totfact> 0.25622598E+04</totfact>
</mgrwt>
</event>
<event>
 4    1  0.5980424E-004  0.3269905E+03  0.7818608E-02  0.1072476E+00
          2   -1    0    0  501    0  0.00000000000E+00  0.00000000000E+00  0.25812838896E+04  0.25812838896E+04  0.25500000000E-02 0.  1.
         -2   -1    0    0    0  501 -0.00000000000E+00 -0.00000000000E+00 -0.10355578919E+02  0.10355579233E+02  0.25500000000E-02 0. -1.
    5000001    1    1    2    0    0  0.27151138218E+02  0.12830849990E+03  0.17611029160E+04  0.17676574148E+04  0.77000000000E+02 0.  0.
   -5000001    1    1    2    0    0 -0.27151138218E+02 -0.12830849990E+03  0.80982539464E+03  0.82398205396E+03  0.77000000000E+02 0.  0.
<mgrwt>
<rscale>  0 0.32699046E+03</rscale>
<asrwt>0</asrwt>
<pdfrwt beam="1">  1        2 0.39712060E+00 0.32699046E+03</pdfrwt>
<pdfrwt beam="2">  1       -2 0.15931660E-02 0.32699046E+03</pdfrwt>
<totfact> 0.38964717E+03</totfact>
</mgrwt>
</event>
<event>
 4    1  0.5980424E-004  0.2076670E+03  0.7818608E-02  0.1143427E+00
          2   -1    0    0  501    0  0.00000000000E+00  0.00000000000E+00  0.37076299912E+03  0.37076299912E+03  0.25500000000E-02 0.  1.
         -2   -1    0    0    0  501 -0.00000000000E+00 -0.00000000000E+00 -0.29078949362E+02  0.29078949473E+02  0.25500000000E-02 0. -1.
    5000001    1    1    2    0    0 -0.32924862139E+02  0.54736579341E+01  0.28856552687E+03  0.30052133165E+03  0.77000000000E+02 0.  0.
   -5000001    1    1    2    0    0  0.32924862139E+02 -0.54736579341E+01  0.53118522888E+02  0.99320616953E+02  0.77000000000E+02 0.  0.
<mgrwt>
<rscale>  0 0.20766703E+03</rscale>
<asrwt>0</asrwt>
<pdfrwt beam="1">  1        2 0.57040456E-01 0.20766703E+03</pdfrwt>
<pdfrwt beam="2">  1       -2 0.44736850E-02 0.20766703E+03</pdfrwt>
<totfact> 0.19553673E+04</totfact>
</mgrwt>
</event>
<event>
 4    1  0.5980424E-004  0.2123639E+03  0.7818608E-02  0.1139708E+00
          2   -1    0    0  501    0  0.00000000000E+00  0.00000000000E+00  0.13221510292E+03  0.13221510294E+03  0.25500000000E-02 0.  1.
         -2   -1    0    0    0  501 -0.00000000000E+00 -0.00000000000E+00 -0.85274688753E+02  0.85274688791E+02  0.25500000000E-02 0. -1.
    5000001    1    1    2    0    0 -0.65360694168E+02  0.32760393033E+02  0.22874741195E+02  0.10861637758E+03  0.77000000000E+02 0.  0.
   -5000001    1    1    2    0    0  0.65360694168E+02 -0.32760393033E+02  0.24065672969E+02  0.10887341415E+03  0.77000000000E+02 0.  0.
<mgrwt>
<rscale>  0 0.21236386E+03</rscale>
<asrwt>0</asrwt>
<pdfrwt beam="1">  1        2 0.20340785E-01 0.21236386E+03</pdfrwt>
<pdfrwt beam="2">  1       -2 0.13119183E-01 0.21236386E+03</pdfrwt>
<totfact> 0.11308971E+04</totfact>
</mgrwt>
</event>
<event>
 4    1  0.5980424E-004  0.1919033E+03  0.7818608E-02  0.1156756E+00
          2   -1    0    0  501    0  0.00000000000E+00  0.00000000000E+00  0.51494313410E+03  0.51494313411E+03  0.25500000000E-02 0.  1.
         -2   -1    0    0    0  501 -0.00000000000E+00 -0.00000000000E+00 -0.17879092339E+02  0.17879092521E+02  0.25500000000E-02 0. -1.
    5000001    1    1    2    0    0 -0.55066662194E+02 -0.11071576343E+02  0.21776417874E+03  0.23770812908E+03  0.77000000000E+02 0.  0.
   -5000001    1    1    2    0    0  0.55066662194E+02  0.11071576343E+02  0.27929986302E+03  0.29511409755E+03  0.77000000000E+02 0.  0.
<mgrwt>
<rscale>  0 0.19190327E+03</rscale>
<asrwt>0</asrwt>
<pdfrwt beam="1">  1        2 0.79222020E-01 0.19190327E+03</pdfrwt>
<pdfrwt beam="2">  1       -2 0.27506296E-02 0.19190327E+03</pdfrwt>
<totfact> 0.28028244E+04</totfact>
</mgrwt>
</event>
<event>
 4    1  0.5980424E-004  0.4549617E+03  0.7818608E-02  0.1026253E+00
          2   -1    0    0  501    0  0.00000000000E+00  0.00000000000E+00  0.93107375507E+03  0.93107375508E+03  0.25500000000E-02 0.  1.
         -2   -1    0    0    0  501 -0.00000000000E+00 -0.00000000000E+00 -0.55578347048E+02  0.55578347106E+02  0.25500000000E-02 0. -1.
    5000001    1    1    2    0    0 -0.11856911552E+02 -0.20855866011E+03  0.33646370349E+03  0.40345275415E+03  0.77000000000E+02 0.  0.
   -5000001    1    1    2    0    0  0.11856911552E+02  0.20855866011E+03  0.53903170453E+03  0.58319934804E+03  0.77000000000E+02 0.  0.
<mgrwt>
<rscale>  0 0.45496171E+03</rscale>
<asrwt>0</asrwt>
<pdfrwt beam="1">  1        2 0.14324210E+00 0.45496171E+03</pdfrwt>
<pdfrwt beam="2">  1       -2 0.85505159E-02 0.45496171E+03</pdfrwt>
<totfact> 0.24766174E+03</totfact>
</mgrwt>
</event>
<event>
 4    1  0.5980424E-004  0.2720438E+03  0.7818608E-02  0.1100116E+00
          2   -1    0    0  501    0  0.00000000000E+00  0.00000000000E+00  0.29531616564E+04  0.29531616564E+04  0.25500000000E-02 0.  1.
         -2   -1    0    0    0  501 -0.00000000000E+00 -0.00000000000E+00 -0.62651331593E+01  0.62651336782E+01  0.25500000000E-02 0. -1.
    5000001    1    1    2    0    0 -0.46284492583E+02 -0.66742101546E+02  0.23144192421E+04  0.23171236891E+04  0.77000000000E+02 0.  0.
   -5000001    1    1    2    0    0  0.46284492583E+02  0.66742101546E+02  0.63247728115E+03  0.64230310099E+03  0.77000000000E+02 0.  0.
<mgrwt>
<rscale>  0 0.27204376E+03</rscale>
<asrwt>0</asrwt>
<pdfrwt beam="1">  1        2 0.45433305E+00 0.27204376E+03</pdfrwt>
<pdfrwt beam="2">  1       -2 0.96386565E-03 0.27204376E+03</pdfrwt>
<totfact> 0.49955050E+03</totfact>
</mgrwt>
</event>
<event>
 4    1  0.5980424E-004  0.2200701E+03  0.7818608E-02  0.1133831E+00
          2   -1    0    0  501    0  0.00000000000E+00  0.00000000000E+00  0.61905086654E+03  0.61905086655E+03  0.25500000000E-02 0.  1.
         -2   -1    0    0    0  501 -0.00000000000E+00 -0.00000000000E+00 -0.19558512752E+02  0.19558512918E+02  0.25500000000E-02 0. -1.
    5000001    1    1    2    0    0 -0.38425585662E+02  0.43701215788E+02  0.14640371189E+03  0.17535497926E+03  0.77000000000E+02 0.  0.
   -5000001    1    1    2    0    0  0.38425585662E+02 -0.43701215788E+02  0.45308864190E+03  0.46325440021E+03  0.77000000000E+02 0.  0.
<mgrwt>
<rscale>  0 0.22007012E+03</rscale>
<asrwt>0</asrwt>
<pdfrwt beam="1">  1        2 0.95238575E-01 0.22007012E+03</pdfrwt>
<pdfrwt beam="2">  1       -2 0.30090026E-02 0.22007012E+03</pdfrwt>
<totfact> 0.20096671E+04</totfact>
</mgrwt>
</event>
<event>
 4    1  0.5980424E-004  0.1724424E+03  0.7818608E-02  0.1175324E+00
         -2   -1    0    0    0  501 -0.00000000000E+00  0.00000000000E+00  0.54878168984E+01  0.54878174908E+01  0.25500000000E-02 0. -1.
          2   -1    0    0  501    0  0.00000000000E+00 -0.00000000000E+00 -0.13546549370E+04  0.13546549370E+04  0.25500000000E-02 0.  1.
    5000001    1    1    2    0    0  0.24997946684E+02  0.28853732207E+02 -0.72903797700E+03  0.73408637579E+03  0.77000000000E+02 0.  0.
   -5000001    1    1    2    0    0 -0.24997946684E+02 -0.28853732207E+02 -0.62012914308E+03  0.62605637869E+03  0.77000000000E+02 0.  0.
<mgrwt>
<rscale>  0 0.17244244E+03</rscale>
<asrwt>0</asrwt>
<pdfrwt beam="1">  1        2 0.20840819E+00 0.17244244E+03</pdfrwt>
<pdfrwt beam="2">  1       -2 0.84428065E-03 0.17244244E+03</pdfrwt>
<totfact> 0.43190679E+04</totfact>
</mgrwt>
</event>
<event>
 4    1  0.5980424E-004  0.6132585E+03  0.7818608E-02  0.9878274E-01
          2   -1    0    0  501    0  0.00000000000E+00  0.00000000000E+00  0.41788349556E+03  0.41788349556E+03  0.25500000000E-02 0.  1.
         -2   -1    0    0    0  501 -0.00000000000E+00 -0.00000000000E+00 -0.22499455314E+03  0.22499455315E+03  0.25500000000E-02 0. -1.
    5000001    1    1    2    0    0  0.29364240145E+03 -0.38118246508E+02  0.11776516592E+03  0.32783607939E+03  0.77000000000E+02 0.  0.
   -5000001    1    1    2    0    0 -0.29364240145E+03  0.38118246508E+02  0.75123776494E+02  0.31504196933E+03  0.77000000000E+02 0.  0.
<mgrwt>
<rscale>  0 0.61325854E+03</rscale>
<asrwt>0</asrwt>
<pdfrwt beam="1">  1        2 0.64289767E-01 0.61325854E+03</pdfrwt>
<pdfrwt beam="2">  1       -2 0.34614547E-01 0.61325854E+03</pdfrwt>
<totfact> 0.59612751E+02</totfact>
</mgrwt>
</event>
<event>
 4    1  0.5980424E-004  0.2432705E+03  0.7818608E-02  0.1117633E+00
         -2   -1    0    0    0  501 -0.00000000000E+00  0.00000000000E+00  0.22061957120E+02  0.22061957267E+02  0.25500000000E-02 0. -1.
          2   -1    0    0  501    0  0.00000000000E+00 -0.00000000000E+00 -0.67061748388E+03  0.67061748389E+03  0.25500000000E-02 0.  1.
    5000001    1    1    2    0    0 -0.41654051811E+01 -0.92961790930E+02 -0.28332232274E+03  0.30799315534E+03  0.77000000000E+02 0.  0.
   -5000001    1    1    2    0    0  0.41654051811E+01  0.92961790930E+02 -0.36523320402E+03  0.38468628582E+03  0.77000000000E+02 0.  0.
<mgrwt>
<rscale>  0 0.24327050E+03</rscale>
<asrwt>0</asrwt>
<pdfrwt beam="1">  1        2 0.10317191E+00 0.24327050E+03</pdfrwt>
<pdfrwt beam="2">  1       -2 0.33941478E-02 0.24327050E+03</pdfrwt>
<totfact> 0.15374675E+04</totfact>
</mgrwt>
</event>
<event>
 4    1  0.5980424E-004  0.2186032E+03  0.7818608E-02  0.1134929E+00
         -2   -1    0    0    0  501 -0.00000000000E+00  0.00000000000E+00  0.74180014284E+01  0.74180018667E+01  0.25500000000E-02 0. -1.
          2   -1    0    0  501    0  0.00000000000E+00 -0.00000000000E+00 -0.16105199219E+04  0.16105199219E+04  0.25500000000E-02 0.  1.
    5000001    1    1    2    0    0 -0.26257406403E+02 -0.44027892103E+02 -0.12324751640E+04  0.12359417206E+04  0.77000000000E+02 0.  0.
   -5000001    1    1    2    0    0  0.26257406403E+02  0.44027892103E+02 -0.37062675643E+03  0.38199620320E+03  0.77000000000E+02 0.  0.
<mgrwt>
<rscale>  0 0.21860320E+03</rscale>
<asrwt>0</asrwt>
<pdfrwt beam="1">  1        2 0.24777202E+00 0.21860320E+03</pdfrwt>
<pdfrwt beam="2">  1       -2 0.11412323E-02 0.21860320E+03</pdfrwt>
<totfact> 0.20751807E+04</totfact>
</mgrwt>
</event>
<event>
 4    1  0.5980424E-004  0.1543931E+03  0.7818608E-02  0.1195176E+00
          2   -1    0    0  501    0  0.00000000000E+00  0.00000000000E+00  0.58951706881E+02  0.58951706936E+02  0.25500000000E-02 0.  1.
         -2   -1    0    0    0  501 -0.00000000000E+00 -0.00000000000E+00 -0.10108800682E+03  0.10108800685E+03  0.25500000000E-02 0. -1.
    5000001    1    1    2    0    0  0.43950285672E+01  0.23474753957E+01 -0.23495509642E+02  0.80658947986E+02  0.77000000000E+02 0.  0.
   -5000001    1    1    2    0    0 -0.43950285672E+01 -0.23474753957E+01 -0.18640790299E+02  0.79380765805E+02  0.77000000000E+02 0.  0.
<mgrwt>
<rscale>  0 0.15439314E+03</rscale>
<asrwt>0</asrwt>
<pdfrwt beam="1">  1        2 0.90694934E-02 0.15439314E+03</pdfrwt>
<pdfrwt beam="2">  1       -2 0.15552001E-01 0.15439314E+03</pdfrwt>
<totfact> 0.21856079E+04</totfact>
</mgrwt>
</event>
<event>
 4    1  0.5980424E-004  0.8233640E+03  0.7818608E-02  0.9526801E-01
         -2   -1    0    0    0  501 -0.00000000000E+00  0.00000000000E+00  0.74245182126E+03  0.74245182126E+03  0.25500000000E-02 0. -1.
          2   -1    0    0  501    0  0.00000000000E+00 -0.00000000000E+00 -0.22827347715E+03  0.22827347716E+03  0.25500000000E-02 0.  1.
    5000001    1    1    2    0    0  0.71122357746E+02 -0.38272112167E+03  0.38634272408E+03  0.55382627889E+03  0.77000000000E+02 0.  0.
   -5000001    1    1    2    0    0 -0.71122357746E+02  0.38272112167E+03  0.12783562003E+03  0.41689901953E+03  0.77000000000E+02 0.  0.
<mgrwt>
<rscale>  0 0.82336398E+03</rscale>
<asrwt>0</asrwt>
<pdfrwt beam="1">  1        2 0.35118997E-01 0.82336398E+03</pdfrwt>
<pdfrwt beam="2">  1       -2 0.11422336E+00 0.82336398E+03</pdfrwt>
<totfact> 0.89889238E+01</totfact>
</mgrwt>
</event>
<event>
 4    1  0.5980424E-004  0.1968741E+03  0.7818608E-02  0.1152403E+00
         -2   -1    0    0    0  501 -0.00000000000E+00  0.00000000000E+00  0.10247663914E+03  0.10247663918E+03  0.25500000000E-02 0. -1.
          2   -1    0    0  501    0  0.00000000000E+00 -0.00000000000E+00 -0.94556651852E+02  0.94556651887E+02  0.25500000000E-02 0.  1.
    5000001    1    1    2    0    0  0.14136718040E+02 -0.58330560212E+02  0.16561716923E+02  0.99023186775E+02  0.77000000000E+02 0.  0.
   -5000001    1    1    2    0    0 -0.14136718040E+02  0.58330560212E+02 -0.86417296307E+01  0.98010104288E+02  0.77000000000E+02 0.  0.
<mgrwt>
<rscale>  0 0.19687405E+03</rscale>
<asrwt>0</asrwt>
<pdfrwt beam="1">  1        2 0.14547177E-01 0.19687405E+03</pdfrwt>
<pdfrwt beam="2">  1       -2 0.15765637E-01 0.19687405E+03</pdfrwt>
<totfact> 0.12289876E+04</totfact>
</mgrwt>
</event>
<event>
 4    1  0.5980424E-004  0.3739388E+03  0.7818608E-02  0.1053197E+00
          2   -1    0    0  501    0  0.00000000000E+00  0.00000000000E+00  0.65308404114E+02  0.65308404164E+02  0.25500000000E-02 0.  1.
         -2   -1    0    0    0  501 -0.00000000000E+00 -0.00000000000E+00 -0.53526882307E+03  0.53526882307E+03  0.25500000000E-02 0. -1.
    5000001    1    1    2    0    0  0.26984319691E+02  0.16277561889E+03 -0.30320566407E+03  0.35367602455E+03  0.77000000000E+02 0.  0.
   -5000001    1    1    2    0    0 -0.26984319691E+02 -0.16277561889E+03 -0.16675475488E+03  0.24690120269E+03  0.77000000000E+02 0.  0.
<mgrwt>
<rscale>  0 0.37393878E+03</rscale>
<asrwt>0</asrwt>
<pdfrwt beam="1">  1        2 0.10047447E-01 0.37393878E+03</pdfrwt>
<pdfrwt beam="2">  1       -2 0.82349047E-01 0.37393878E+03</pdfrwt>
<totfact> 0.85597969E+02</totfact>
</mgrwt>
</event>
<event>
 4    1  0.5980424E-004  0.1992049E+03  0.7818608E-02  0.1150412E+00
         -2   -1    0    0    0  501 -0.00000000000E+00  0.00000000000E+00  0.13708693296E+03  0.13708693298E+03  0.25500000000E-02 0. -1.
          2   -1    0    0  501    0  0.00000000000E+00 -0.00000000000E+00 -0.72367536364E+02  0.72367536409E+02  0.25500000000E-02 0.  1.
    5000001    1    1    2    0    0 -0.57716904179E+01  0.62466615611E+02  0.24473583687E+02  0.10229050188E+03  0.77000000000E+02 0.  0.
   -5000001    1    1    2    0    0  0.57716904179E+01 -0.62466615611E+02  0.40245812905E+02  0.10716396751E+03  0.77000000000E+02 0.  0.
<mgrwt>
<rscale>  0 0.19920486E+03</rscale>
<asrwt>0</asrwt>
<pdfrwt beam="1">  1        2 0.11133467E-01 0.19920486E+03</pdfrwt>
<pdfrwt beam="2">  1       -2 0.21090297E-01 0.19920486E+03</pdfrwt>
<totfact> 0.10397229E+04</totfact>
</mgrwt>
</event>
<event>
 4    1  0.5980424E-004  0.2424549E+03  0.7818608E-02  0.1118168E+00
         -2   -1    0    0    0  501 -0.00000000000E+00  0.00000000000E+00  0.36165776444E+02  0.36165776534E+02  0.25500000000E-02 0. -1.
          2   -1    0    0  501    0  0.00000000000E+00 -0.00000000000E+00 -0.40635373714E+03  0.40635373715E+03  0.25500000000E-02 0.  1.
    5000001    1    1    2    0    0 -0.28176183463E+02 -0.89183355185E+02 -0.19315993242E+03  0.22800729736E+03  0.77000000000E+02 0.  0.
   -5000001    1    1    2    0    0  0.28176183463E+02  0.89183355185E+02 -0.17702802828E+03  0.21451221633E+03  0.77000000000E+02 0.  0.
<mgrwt>
<rscale>  0 0.24245493E+03</rscale>
<asrwt>0</asrwt>
<pdfrwt beam="1">  1        2 0.62515956E-01 0.24245493E+03</pdfrwt>
<pdfrwt beam="2">  1       -2 0.55639659E-02 0.24245493E+03</pdfrwt>
<totfact> 0.12848623E+04</totfact>
</mgrwt>
</event>
<event>
 4    1  0.5980424E-004  0.2575624E+03  0.7818608E-02  0.1108617E+00
         -2   -1    0    0    0  501 -0.00000000000E+00  0.00000000000E+00  0.20961003345E+02  0.20961003500E+02  0.25500000000E-02 0. -1.
          2   -1    0    0  501    0  0.00000000000E+00 -0.00000000000E+00 -0.79121207902E+03  0.79121207902E+03  0.25500000000E-02 0.  1.
    5000001    1    1    2    0    0  0.78850845108E+02  0.63002170080E+02 -0.45340534402E+03  0.47084194290E+03  0.77000000000E+02 0.  0.
   -5000001    1    1    2    0    0 -0.78850845108E+02 -0.63002170080E+02 -0.31684573166E+03  0.34133113963E+03  0.77000000000E+02 0.  0.
<mgrwt>
<rscale>  0 0.25756241E+03</rscale>
<asrwt>0</asrwt>
<pdfrwt beam="1">  1        2 0.12172491E+00 0.25756241E+03</pdfrwt>
<pdfrwt beam="2">  1       -2 0.32247704E-02 0.25756241E+03</pdfrwt>
<totfact> 0.13581118E+04</totfact>
</mgrwt>
</event>
<event>
 4    1  0.5980424E-004  0.1865345E+03  0.7818608E-02  0.1161625E+00
          2   -1    0    0  501    0  0.00000000000E+00  0.00000000000E+00  0.24232160791E+03  0.24232160792E+03  0.25500000000E-02 0.  1.
         -2   -1    0    0    0  501 -0.00000000000E+00 -0.00000000000E+00 -0.35897669548E+02  0.35897669639E+02  0.25500000000E-02 0. -1.
    5000001    1    1    2    0    0  0.52082016977E+02 -0.53926548445E+01  0.95296554793E+02  0.13323682139E+03  0.77000000000E+02 0.  0.
   -5000001    1    1    2    0    0 -0.52082016977E+02  0.53926548445E+01  0.11112738356E+03  0.14498245617E+03  0.77000000000E+02 0.  0.
<mgrwt>
<rscale>  0 0.18653451E+03</rscale>
<asrwt>0</asrwt>
<pdfrwt beam="1">  1        2 0.37280247E-01 0.18653451E+03</pdfrwt>
<pdfrwt beam="2">  1       -2 0.55227184E-02 0.18653451E+03</pdfrwt>
<totfact> 0.22245979E+04</totfact>
</mgrwt>
</event>
<event>
 4    1  0.5980424E-004  0.1905110E+03  0.7818608E-02  0.1158001E+00
         -2   -1    0    0    0  501 -0.00000000000E+00  0.00000000000E+00  0.32262904765E+02  0.32262904865E+02  0.25500000000E-02 0. -1.
          2   -1    0    0  501    0  0.00000000000E+00 -0.00000000000E+00 -0.28123973925E+03  0.28123973926E+03  0.25500000000E-02 0.  1.
    5000001    1    1    2    0    0 -0.40866480371E+02  0.34851348832E+02 -0.15101891117E+03  0.17782125088E+03  0.77000000000E+02 0.  0.
   -5000001    1    1    2    0    0  0.40866480371E+02 -0.34851348832E+02 -0.97957923317E+02  0.13568139325E+03  0.77000000000E+02 0.  0.
<mgrwt>
<rscale>  0 0.19051101E+03</rscale>
<asrwt>0</asrwt>
<pdfrwt beam="1">  1        2 0.43267650E-01 0.19051101E+03</pdfrwt>
<pdfrwt beam="2">  1       -2 0.49635240E-02 0.19051101E+03</pdfrwt>
<totfact> 0.22331718E+04</totfact>
</mgrwt>
</event>
<event>
 4    1  0.5980424E-004  0.2186234E+03  0.7818608E-02  0.1134914E+00
          2   -1    0    0  501    0  0.00000000000E+00  0.00000000000E+00  0.10483944291E+04  0.10483944291E+04  0.25500000000E-02 0.  1.
         -2   -1    0    0    0  501 -0.00000000000E+00 -0.00000000000E+00 -0.11397468553E+02  0.11397468838E+02  0.25500000000E-02 0. -1.
    5000001    1    1    2    0    0 -0.60331039420E+02  0.46963155115E+02  0.58256538486E+03  0.59258484616E+03  0.77000000000E+02 0.  0.
   -5000001    1    1    2    0    0  0.60331039420E+02 -0.46963155115E+02  0.45443157563E+03  0.46720705173E+03  0.77000000000E+02 0.  0.
<mgrwt>
<rscale>  0 0.21862335E+03</rscale>
<asrwt>0</asrwt>
<pdfrwt beam="1">  1        2 0.16129144E+00 0.21862335E+03</pdfrwt>
<pdfrwt beam="2">  1       -2 0.17534568E-02 0.21862335E+03</pdfrwt>
<totfact> 0.22665121E+04</totfact>
</mgrwt>
</event>
<event>
 4    1  0.5980424E-004  0.2298213E+03  0.7818608E-02  0.1126766E+00
         -2   -1    0    0    0  501 -0.00000000000E+00  0.00000000000E+00  0.84321591670E+03  0.84321591670E+03  0.25500000000E-02 0. -1.
          2   -1    0    0  501    0  0.00000000000E+00 -0.00000000000E+00 -0.15659642971E+02  0.15659643178E+02  0.25500000000E-02 0.  1.
    5000001    1    1    2    0    0 -0.32902372842E+02  0.62360564174E+02  0.23439307853E+03  0.25659407897E+03  0.77000000000E+02 0.  0.
   -5000001    1    1    2    0    0  0.32902372842E+02 -0.62360564174E+02  0.59316319520E+03  0.60228148091E+03  0.77000000000E+02 0.  0.
<mgrwt>
<rscale>  0 0.22982132E+03</rscale>
<asrwt>0</asrwt>
<pdfrwt beam="1">  1        2 0.24091752E-02 0.22982132E+03</pdfrwt>
<pdfrwt beam="2">  1       -2 0.12972556E+00 0.22982132E+03</pdfrwt>
<totfact> 0.19234329E+03</totfact>
</mgrwt>
</event>
<event>
 4    1  0.5980424E-004  0.2590356E+03  0.7818608E-02  0.1107724E+00
         -2   -1    0    0    0  501 -0.00000000000E+00  0.00000000000E+00  0.26888581068E+03  0.26888581069E+03  0.25500000000E-02 0. -1.
          2   -1    0    0  501    0  0.00000000000E+00 -0.00000000000E+00 -0.62386562336E+02  0.62386562388E+02  0.25500000000E-02 0.  1.
    5000001    1    1    2    0    0  0.75724965782E+02 -0.63972989281E+02  0.14407432285E+03  0.19108433820E+03  0.77000000000E+02 0.  0.
   -5000001    1    1    2    0    0 -0.75724965782E+02  0.63972989281E+02  0.62424925489E+02  0.14018803488E+03  0.77000000000E+02 0.  0.
<mgrwt>
<rscale>  0 0.25903561E+03</rscale>
<asrwt>0</asrwt>
<pdfrwt beam="1">  1        2 0.95979326E-02 0.25903561E+03</pdfrwt>
<pdfrwt beam="2">  1       -2 0.41367048E-01 0.25903561E+03</pdfrwt>
<totfact> 0.37379330E+03</totfact>
</mgrwt>
</event>
<event>
 4    1  0.5980424E-004  0.2595858E+03  0.7818608E-02  0.1107392E+00
          2   -1    0    0  501    0  0.00000000000E+00  0.00000000000E+00  0.55901543391E+03  0.55901543391E+03  0.25500000000E-02 0.  1.
         -2   -1    0    0    0  501 -0.00000000000E+00 -0.00000000000E+00 -0.30135469278E+02  0.30135469386E+02  0.25500000000E-02 0. -1.
    5000001    1    1    2    0    0 -0.21819015599E+02 -0.10188167757E+03  0.28220179889E+03  0.31052021023E+03  0.77000000000E+02 0.  0.
   -5000001    1    1    2    0    0  0.21819015599E+02  0.10188167757E+03  0.24667816574E+03  0.27863069307E+03  0.77000000000E+02 0.  0.
<mgrwt>
<rscale>  0 0.25958577E+03</rscale>
<asrwt>0</asrwt>
<pdfrwt beam="1">  1        2 0.86002369E-01 0.25958577E+03</pdfrwt>
<pdfrwt beam="2">  1       -2 0.46362264E-02 0.25958577E+03</pdfrwt>
<totfact> 0.11936104E+04</totfact>
</mgrwt>
</event>
<event>
 4    1  0.5980424E-004  0.2268522E+03  0.7818608E-02  0.1128875E+00
          2   -1    0    0  501    0  0.00000000000E+00  0.00000000000E+00  0.80371782098E+02  0.80371782138E+02  0.25500000000E-02 0.  1.
         -2   -1    0    0    0  501 -0.00000000000E+00 -0.00000000000E+00 -0.16007464395E+03  0.16007464397E+03  0.25500000000E-02 0. -1.
    5000001    1    1    2    0    0  0.80602067468E+02  0.18290367523E+00 -0.17624373383E+02  0.11285541755E+03  0.77000000000E+02 0.  0.
   -5000001    1    1    2    0    0 -0.80602067468E+02 -0.18290367523E+00 -0.62078488470E+02  0.12759100856E+03  0.77000000000E+02 0.  0.
<mgrwt>
<rscale>  0 0.22685224E+03</rscale>
<asrwt>0</asrwt>
<pdfrwt beam="1">  1        2 0.12364890E-01 0.22685224E+03</pdfrwt>
<pdfrwt beam="2">  1       -2 0.24626868E-01 0.22685224E+03</pdfrwt>
<totfact> 0.70484602E+03</totfact>
</mgrwt>
</event>
<event>
 4    1  0.5980424E-004  0.2132919E+03  0.7818608E-02  0.1138985E+00
         -2   -1    0    0    0  501 -0.00000000000E+00  0.00000000000E+00  0.12169659194E+02  0.12169659461E+02  0.25500000000E-02 0. -1.
          2   -1    0    0  501    0  0.00000000000E+00 -0.00000000000E+00 -0.93456658653E+03  0.93456658653E+03  0.25500000000E-02 0.  1.
    5000001    1    1    2    0    0 -0.54022230104E+02  0.26032446277E+02 -0.65202425512E+03  0.65928803938E+03  0.77000000000E+02 0.  0.
   -5000001    1    1    2    0    0  0.54022230104E+02 -0.26032446277E+02 -0.27037267221E+03  0.28744820661E+03  0.77000000000E+02 0.  0.
<mgrwt>
<rscale>  0 0.21329188E+03</rscale>
<asrwt>0</asrwt>
<pdfrwt beam="1">  1        2 0.14377942E+00 0.21329188E+03</pdfrwt>
<pdfrwt beam="2">  1       -2 0.18722560E-02 0.21329188E+03</pdfrwt>
<totfact> 0.24135648E+04</totfact>
</mgrwt>
</event>
<event>
 4    1  0.5980424E-004  0.2474762E+03  0.7818608E-02  0.1114910E+00
         -2   -1    0    0    0  501 -0.00000000000E+00  0.00000000000E+00  0.36298326602E+02  0.36298326692E+02  0.25500000000E-02 0. -1.
          2   -1    0    0  501    0  0.00000000000E+00 -0.00000000000E+00 -0.42181321862E+03  0.42181321862E+03  0.25500000000E-02 0.  1.
    5000001    1    1    2    0    0 -0.62559583718E+02  0.73002258527E+02 -0.17092640464E+03  0.21068428292E+03  0.77000000000E+02 0.  0.
   -5000001    1    1    2    0    0  0.62559583718E+02 -0.73002258527E+02 -0.21458848737E+03  0.24742726240E+03  0.77000000000E+02 0.  0.
<mgrwt>
<rscale>  0 0.24747617E+03</rscale>
<asrwt>0</asrwt>
<pdfrwt beam="1">  1        2 0.64894338E-01 0.24747617E+03</pdfrwt>
<pdfrwt beam="2">  1       -2 0.55843582E-02 0.24747617E+03</pdfrwt>
<totfact> 0.12281084E+04</totfact>
</mgrwt>
</event>
<event>
 4    1  0.5980424E-004  0.2825327E+03  0.7818608E-02  0.1094314E+00
          2   -1    0    0  501    0  0.00000000000E+00  0.00000000000E+00  0.11789226897E+04  0.11789226897E+04  0.25500000000E-02 0.  1.
         -2   -1    0    0    0  501 -0.00000000000E+00 -0.00000000000E+00 -0.16927476969E+02  0.16927477161E+02  0.25500000000E-02 0. -1.
    5000001    1    1    2    0    0  0.11167059681E+03 -0.28457590650E+02  0.69668260714E+03  0.71033499966E+03  0.77000000000E+02 0.  0.
   -5000001    1    1    2    0    0 -0.11167059681E+03  0.28457590650E+02  0.46531260555E+03  0.48551516716E+03  0.77000000000E+02 0.  0.
<mgrwt>
<rscale>  0 0.28253274E+03</rscale>
<asrwt>0</asrwt>
<pdfrwt beam="1">  1        2 0.18137270E+00 0.28253274E+03</pdfrwt>
<pdfrwt beam="2">  1       -2 0.26042276E-02 0.28253274E+03</pdfrwt>
<totfact> 0.10740546E+04</totfact>
</mgrwt>
</event>
<event>
 4    1  0.5980424E-004  0.3182598E+03  0.7818608E-02  0.1076453E+00
         -2   -1    0    0    0  501 -0.00000000000E+00  0.00000000000E+00  0.73003272099E+02  0.73003272144E+02  0.25500000000E-02 0. -1.
          2   -1    0    0  501    0  0.00000000000E+00 -0.00000000000E+00 -0.34686565293E+03  0.34686565294E+03  0.25500000000E-02 0.  1.
    5000001    1    1    2    0    0 -0.13824070732E+03  0.13082542168E+02 -0.15087311429E+03  0.21902817784E+03  0.77000000000E+02 0.  0.
   -5000001    1    1    2    0    0  0.13824070732E+03 -0.13082542168E+02 -0.12298926654E+03  0.20084074725E+03  0.77000000000E+02 0.  0.
<mgrwt>
<rscale>  0 0.31825982E+03</rscale>
<asrwt>0</asrwt>
<pdfrwt beam="1">  1        2 0.53363946E-01 0.31825982E+03</pdfrwt>
<pdfrwt beam="2">  1       -2 0.11231273E-01 0.31825982E+03</pdfrwt>
<totfact> 0.51380419E+03</totfact>
</mgrwt>
</event>
<event>
 4    1  0.5980424E-004  0.5108516E+03  0.7818608E-02  0.1010985E+00
         -2   -1    0    0    0  501 -0.00000000000E+00  0.00000000000E+00  0.99595026671E+02  0.99595026704E+02  0.25500000000E-02 0. -1.
          2   -1    0    0  501    0  0.00000000000E+00 -0.00000000000E+00 -0.65507628637E+03  0.65507628637E+03  0.25500000000E-02 0.  1.
    5000001    1    1    2    0    0 -0.18983255019E+03  0.15178126722E+03 -0.30059746610E+03  0.39415959562E+03  0.77000000000E+02 0.  0.
   -5000001    1    1    2    0    0  0.18983255019E+03 -0.15178126722E+03 -0.25488379359E+03  0.36051171746E+03  0.77000000000E+02 0.  0.
<mgrwt>
<rscale>  0 0.51085160E+03</rscale>
<asrwt>0</asrwt>
<pdfrwt beam="1">  1        2 0.10078096E+00 0.51085160E+03</pdfrwt>
<pdfrwt beam="2">  1       -2 0.15322312E-01 0.51085160E+03</pdfrwt>
<totfact> 0.15063885E+03</totfact>
</mgrwt>
</event>
<event>
 4    1  0.5980424E-004  0.1636220E+03  0.7818608E-02  0.1184667E+00
          2   -1    0    0  501    0  0.00000000000E+00  0.00000000000E+00  0.84245567720E+03  0.84245567720E+03  0.25500000000E-02 0.  1.
         -2   -1    0    0    0  501 -0.00000000000E+00 -0.00000000000E+00 -0.79446783624E+01  0.79446787716E+01  0.25500000000E-02 0. -1.
    5000001    1    1    2    0    0  0.57107172874E+01  0.17237845762E+02  0.52556551784E+03  0.53148647128E+03  0.77000000000E+02 0.  0.
   -5000001    1    1    2    0    0 -0.57107172874E+01 -0.17237845762E+02  0.30894548100E+03  0.31891388469E+03  0.77000000000E+02 0.  0.
<mgrwt>
<rscale>  0 0.16362200E+03</rscale>
<asrwt>0</asrwt>
<pdfrwt beam="1">  1        2 0.12960854E+00 0.16362200E+03</pdfrwt>
<pdfrwt beam="2">  1       -2 0.12222585E-02 0.16362200E+03</pdfrwt>
<totfact> 0.50340142E+04</totfact>
</mgrwt>
</event>
<event>
 4    1  0.5980424E-004  0.2157188E+03  0.7818608E-02  0.1137116E+00
         -2   -1    0    0    0  501 -0.00000000000E+00  0.00000000000E+00  0.35072677981E+01  0.35072687251E+01  0.25500000000E-02 0. -1.
          2   -1    0    0  501    0  0.00000000000E+00 -0.00000000000E+00 -0.33170111837E+04  0.33170111837E+04  0.25500000000E-02 0.  1.
    5000001    1    1    2    0    0  0.25669418469E+01  0.75484249297E+02 -0.16634077925E+04  0.16669010005E+04  0.77000000000E+02 0.  0.
   -5000001    1    1    2    0    0 -0.25669418469E+01 -0.75484249297E+02 -0.16500961234E+04  0.16536174520E+04  0.77000000000E+02 0.  0.
<mgrwt>
<rscale>  0 0.21571878E+03</rscale>
<asrwt>0</asrwt>
<pdfrwt beam="1">  1        2 0.51030690E+00 0.21571878E+03</pdfrwt>
<pdfrwt beam="2">  1       -2 0.53958239E-03 0.21571878E+03</pdfrwt>
<totfact> 0.69565320E+03</totfact>
</mgrwt>
</event>
<event>
 4    1  0.5980424E-004  0.2867844E+03  0.7818608E-02  0.1092040E+00
          2   -1    0    0  501    0  0.00000000000E+00  0.00000000000E+00  0.19339124304E+04  0.19339124304E+04  0.25500000000E-02 0.  1.
         -2   -1    0    0    0  501 -0.00000000000E+00 -0.00000000000E+00 -0.10631980144E+02  0.10631980450E+02  0.25500000000E-02 0. -1.
    5000001    1    1    2    0    0 -0.39067542372E+02 -0.90822455021E+02  0.48907573238E+03  0.50487529470E+03  0.77000000000E+02 0.  0.
   -5000001    1    1    2    0    0  0.39067542372E+02  0.90822455021E+02  0.14342047179E+04  0.14396691162E+04  0.77000000000E+02 0.  0.
<mgrwt>
<rscale>  0 0.28678437E+03</rscale>
<asrwt>0</asrwt>
<pdfrwt beam="1">  1        2 0.29752493E+00 0.28678437E+03</pdfrwt>
<pdfrwt beam="2">  1       -2 0.16356896E-02 0.28678437E+03</pdfrwt>
<totfact> 0.83676780E+03</totfact>
</mgrwt>
</event>
<event>
 4    1  0.5980424E-004  0.2602531E+03  0.7818608E-02  0.1106991E+00
          2   -1    0    0  501    0  0.00000000000E+00  0.00000000000E+00  0.34784375457E+02  0.34784375550E+02  0.25500000000E-02 0.  1.
         -2   -1    0    0    0  501 -0.00000000000E+00 -0.00000000000E+00 -0.48679669221E+03  0.48679669221E+03  0.25500000000E-02 0. -1.
    5000001    1    1    2    0    0  0.37313114375E+02 -0.98009945712E+02 -0.22122095370E+03  0.25664358227E+03  0.77000000000E+02 0.  0.
   -5000001    1    1    2    0    0 -0.37313114375E+02  0.98009945712E+02 -0.23079136305E+03  0.26493748550E+03  0.77000000000E+02 0.  0.
<mgrwt>
<rscale>  0 0.26025310E+03</rscale>
<asrwt>0</asrwt>
<pdfrwt beam="1">  1        2 0.53514427E-02 0.26025310E+03</pdfrwt>
<pdfrwt beam="2">  1       -2 0.74891794E-01 0.26025310E+03</pdfrwt>
<totfact> 0.23549960E+03</totfact>
</mgrwt>
</event>
<event>
 4    1  0.5980424E-004  0.3291454E+03  0.7818608E-02  0.1071516E+00
          2   -1    0    0  501    0  0.00000000000E+00  0.00000000000E+00  0.42382057957E+03  0.42382057958E+03  0.25500000000E-02 0.  1.
         -2   -1    0    0    0  501 -0.00000000000E+00 -0.00000000000E+00 -0.63904793691E+02  0.63904793742E+02  0.25500000000E-02 0. -1.
    5000001    1    1    2    0    0  0.10417092618E+03 -0.99154849412E+02  0.14776849001E+03  0.22010859289E+03  0.77000000000E+02 0.  0.
   -5000001    1    1    2    0    0 -0.10417092618E+03  0.99154849412E+02  0.21214729587E+03  0.26761678043E+03  0.77000000000E+02 0.  0.
<mgrwt>
<rscale>  0 0.32914536E+03</rscale>
<asrwt>0</asrwt>
<pdfrwt beam="1">  1        2 0.65203166E-01 0.32914536E+03</pdfrwt>
<pdfrwt beam="2">  1       -2 0.98315067E-02 0.32914536E+03</pdfrwt>
<totfact> 0.51154681E+03</totfact>
</mgrwt>
</event>
<event>
 4    1  0.5980424E-004  0.2648965E+03  0.7818608E-02  0.1104237E+00
          2   -1    0    0  501    0  0.00000000000E+00  0.00000000000E+00  0.44483387712E+03  0.44483387713E+03  0.25500000000E-02 0.  1.
         -2   -1    0    0    0  501 -0.00000000000E+00 -0.00000000000E+00 -0.39436150418E+02  0.39436150500E+02  0.25500000000E-02 0. -1.
    5000001    1    1    2    0    0 -0.56839944679E+02  0.90138977843E+02  0.17335033183E+03  0.21756643166E+03  0.77000000000E+02 0.  0.
   -5000001    1    1    2    0    0  0.56839944679E+02 -0.90138977843E+02  0.23204739487E+03  0.26670359597E+03  0.77000000000E+02 0.  0.
<mgrwt>
<rscale>  0 0.26489648E+03</rscale>
<asrwt>0</asrwt>
<pdfrwt beam="1">  1        2 0.68435981E-01 0.26489648E+03</pdfrwt>
<pdfrwt beam="2">  1       -2 0.60671001E-02 0.26489648E+03</pdfrwt>
<totfact> 0.10238665E+04</totfact>
</mgrwt>
</event>
<event>
 4    1  0.5980424E-004  0.2442055E+03  0.7818608E-02  0.1117023E+00
         -2   -1    0    0    0  501 -0.00000000000E+00  0.00000000000E+00  0.12750950655E+02  0.12750950910E+02  0.25500000000E-02 0. -1.
          2   -1    0    0  501    0  0.00000000000E+00 -0.00000000000E+00 -0.11692529043E+04  0.11692529043E+04  0.25500000000E-02 0.  1.
    5000001    1    1    2    0    0  0.13973281442E+02  0.86683599139E+02 -0.75079495797E+03  0.75982324778E+03  0.77000000000E+02 0.  0.
   -5000001    1    1    2    0    0 -0.13973281442E+02 -0.86683599139E+02 -0.40570699572E+03  0.42218060747E+03  0.77000000000E+02 0.  0.
<mgrwt>
<rscale>  0 0.24420554E+03</rscale>
<asrwt>0</asrwt>
<pdfrwt beam="1">  1        2 0.17988498E+00 0.24420554E+03</pdfrwt>
<pdfrwt beam="2">  1       -2 0.19616857E-02 0.24420554E+03</pdfrwt>
<totfact> 0.16441361E+04</totfact>
</mgrwt>
</event>
<event>
 4    1  0.5980424E-004  0.2415055E+03  0.7818608E-02  0.1118794E+00
         -2   -1    0    0    0  501 -0.00000000000E+00  0.00000000000E+00  0.25918027983E+02  0.25918028108E+02  0.25500000000E-02 0. -1.
          2   -1    0    0  501    0  0.00000000000E+00 -0.00000000000E+00 -0.56259013418E+03  0.56259013419E+03  0.25500000000E-02 0.  1.
    5000001    1    1    2    0    0  0.55198568476E+02 -0.58394929109E+01 -0.45022302772E+03  0.46012037157E+03  0.77000000000E+02 0.  0.
   -5000001    1    1    2    0    0 -0.55198568476E+02  0.58394929109E+01 -0.86449078481E+02  0.12838779073E+03  0.77000000000E+02 0.  0.
<mgrwt>
<rscale>  0 0.24150550E+03</rscale>
<asrwt>0</asrwt>
<pdfrwt beam="1">  1        2 0.86552319E-01 0.24150550E+03</pdfrwt>
<pdfrwt beam="2">  1       -2 0.39873894E-02 0.24150550E+03</pdfrwt>
<totfact> 0.14821086E+04</totfact>
</mgrwt>
</event>
<event>
 4    1  0.5980424E-004  0.2649661E+03  0.7818608E-02  0.1104196E+00
         -2   -1    0    0    0  501 -0.00000000000E+00  0.00000000000E+00  0.10659270563E+02  0.10659270868E+02  0.25500000000E-02 0. -1.
          2   -1    0    0  501    0  0.00000000000E+00 -0.00000000000E+00 -0.16466196445E+04  0.16466196445E+04  0.25500000000E-02 0.  1.
    5000001    1    1    2    0    0 -0.42537014197E+01 -0.10662139463E+03 -0.91417808492E+03  0.92359990619E+03  0.77000000000E+02 0.  0.
   -5000001    1    1    2    0    0  0.42537014197E+01  0.10662139463E+03 -0.72178228902E+03  0.73367900918E+03  0.77000000000E+02 0.  0.
<mgrwt>
<rscale>  0 0.26496615E+03</rscale>
<asrwt>0</asrwt>
<pdfrwt beam="1">  1        2 0.25332590E+00 0.26496615E+03</pdfrwt>
<pdfrwt beam="2">  1       -2 0.16398891E-02 0.26496615E+03</pdfrwt>
<totfact> 0.11789964E+04</totfact>
</mgrwt>
</event>
<event>
 4    1  0.5980424E-004  0.4854389E+03  0.7818608E-02  0.1017651E+00
         -2   -1    0    0    0  501 -0.00000000000E+00  0.00000000000E+00  0.13716942603E+03  0.13716942605E+03  0.25500000000E-02 0. -1.
          2   -1    0    0  501    0  0.00000000000E+00 -0.00000000000E+00 -0.42948873370E+03  0.42948873371E+03  0.25500000000E-02 0.  1.
    5000001    1    1    2    0    0 -0.63862233185E+02  0.16012662430E+03 -0.32420732076E+03  0.37517770119E+03  0.77000000000E+02 0.  0.
   -5000001    1    1    2    0    0  0.63862233185E+02 -0.16012662430E+03  0.31888013083E+02  0.19148045857E+03  0.77000000000E+02 0.  0.
<mgrwt>
<rscale>  0 0.48543887E+03</rscale>
<asrwt>0</asrwt>
<pdfrwt beam="1">  1        2 0.66075189E-01 0.48543887E+03</pdfrwt>
<pdfrwt beam="2">  1       -2 0.21102989E-01 0.48543887E+03</pdfrwt>
<totfact> 0.14216864E+03</totfact>
</mgrwt>
</event>
<event>
 4    1  0.5980424E-004  0.2919440E+03  0.7818608E-02  0.1089339E+00
          2   -1    0    0  501    0  0.00000000000E+00  0.00000000000E+00  0.37580233730E+04  0.37580233730E+04  0.25500000000E-02 0.  1.
         -2   -1    0    0    0  501 -0.00000000000E+00 -0.00000000000E+00 -0.56699540547E+01  0.56699546281E+01  0.25500000000E-02 0. -1.
    5000001    1    1    2    0    0 -0.12396894610E+03 -0.28250812878E+01  0.18967239683E+04  0.19023320143E+04  0.77000000000E+02 0.  0.
   -5000001    1    1    2    0    0  0.12396894610E+03  0.28250812878E+01  0.18556294506E+04  0.18613613133E+04  0.77000000000E+02 0.  0.
<mgrwt>
<rscale>  0 0.29194397E+03</rscale>
<asrwt>0</asrwt>
<pdfrwt beam="1">  1        2 0.57815859E+00 0.29194397E+03</pdfrwt>
<pdfrwt beam="2">  1       -2 0.87229893E-03 0.29194397E+03</pdfrwt>
<totfact> 0.17489602E+03</totfact>
</mgrwt>
</event>
<event>
 4    1  0.5980424E-004  0.3684604E+03  0.7818608E-02  0.1055283E+00
          2   -1    0    0  501    0  0.00000000000E+00  0.00000000000E+00  0.11652180554E+03  0.11652180557E+03  0.25500000000E-02 0.  1.
         -2   -1    0    0    0  501 -0.00000000000E+00 -0.00000000000E+00 -0.29128249188E+03  0.29128249189E+03  0.25500000000E-02 0. -1.
    5000001    1    1    2    0    0  0.14869966617E+03 -0.55902116787E+02 -0.14568486597E+03  0.22888800220E+03  0.77000000000E+02 0.  0.
   -5000001    1    1    2    0    0 -0.14869966617E+03  0.55902116787E+02 -0.29075820373E+02  0.17891629526E+03  0.77000000000E+02 0.  0.
<mgrwt>
<rscale>  0 0.36846037E+03</rscale>
<asrwt>0</asrwt>
<pdfrwt beam="1">  1        2 0.17926432E-01 0.36846037E+03</pdfrwt>
<pdfrwt beam="2">  1       -2 0.44812691E-01 0.36846037E+03</pdfrwt>
<totfact> 0.15158140E+03</totfact>
</mgrwt>
</event>
<event>
 4    1  0.5980424E-004  0.1753387E+03  0.7818608E-02  0.1172392E+00
          2   -1    0    0  501    0  0.00000000000E+00  0.00000000000E+00  0.58083469050E+02  0.58083469106E+02  0.25500000000E-02 0.  1.
         -2   -1    0    0    0  501 -0.00000000000E+00 -0.00000000000E+00 -0.13232531272E+03  0.13232531274E+03  0.25500000000E-02 0. -1.
    5000001    1    1    2    0    0  0.19653125862E+02  0.31066756793E+02 -0.58989360587E+02  0.10373106283E+03  0.77000000000E+02 0.  0.
   -5000001    1    1    2    0    0 -0.19653125862E+02 -0.31066756793E+02 -0.15252483081E+02  0.86677719017E+02  0.77000000000E+02 0.  0.
<mgrwt>
<rscale>  0 0.17533868E+03</rscale>
<asrwt>0</asrwt>
<pdfrwt beam="1">  1        2 0.89359183E-02 0.17533868E+03</pdfrwt>
<pdfrwt beam="2">  1       -2 0.20357740E-01 0.17533868E+03</pdfrwt>
<totfact> 0.14352585E+04</totfact>
</mgrwt>
</event>
<event>
 4    1  0.5980424E-004  0.2397224E+03  0.7818608E-02  0.1119978E+00
         -2   -1    0    0    0  501 -0.00000000000E+00  0.00000000000E+00  0.26336363756E+02  0.26336363879E+02  0.25500000000E-02 0. -1.
          2   -1    0    0  501    0  0.00000000000E+00 -0.00000000000E+00 -0.54550835803E+03  0.54550835804E+03  0.25500000000E-02 0.  1.
    5000001    1    1    2    0    0  0.30835256282E+02 -0.80646782002E+02 -0.33437609200E+03  0.35382352576E+03  0.77000000000E+02 0.  0.
   -5000001    1    1    2    0    0 -0.30835256282E+02  0.80646782002E+02 -0.18479590228E+03  0.21802119616E+03  0.77000000000E+02 0.  0.
<mgrwt>
<rscale>  0 0.23972239E+03</rscale>
<asrwt>0</asrwt>
<pdfrwt beam="1">  1        2 0.83924354E-01 0.23972239E+03</pdfrwt>
<pdfrwt beam="2">  1       -2 0.40517487E-02 0.23972239E+03</pdfrwt>
<totfact> 0.14979389E+04</totfact>
</mgrwt>
</event>
<event>
 4    1  0.5980424E-004  0.3392840E+03  0.7818608E-02  0.1067101E+00
         -2   -1    0    0    0  501 -0.00000000000E+00  0.00000000000E+00  0.32625165815E+02  0.32625165915E+02  0.25500000000E-02 0. -1.
          2   -1    0    0  501    0  0.00000000000E+00 -0.00000000000E+00 -0.88209232458E+03  0.88209232458E+03  0.25500000000E-02 0.  1.
    5000001    1    1    2    0    0 -0.11964176662E+03  0.88868508155E+02 -0.49281253047E+03  0.52058136180E+03  0.77000000000E+02 0.  0.
   -5000001    1    1    2    0    0  0.11964176662E+03 -0.88868508155E+02 -0.35665462829E+03  0.39413612869E+03  0.77000000000E+02 0.  0.
<mgrwt>
<rscale>  0 0.33928400E+03</rscale>
<asrwt>0</asrwt>
<pdfrwt beam="1">  1        2 0.13570649E+00 0.33928400E+03</pdfrwt>
<pdfrwt beam="2">  1       -2 0.50192569E-02 0.33928400E+03</pdfrwt>
<totfact> 0.60984635E+03</totfact>
</mgrwt>
</event>
<event>
 4    1  0.5980424E-004  0.2663408E+03  0.7818608E-02  0.1103392E+00
          2   -1    0    0  501    0  0.00000000000E+00  0.00000000000E+00  0.11872435520E+02  0.11872435794E+02  0.25500000000E-02 0.  1.
         -2   -1    0    0    0  501 -0.00000000000E+00 -0.00000000000E+00 -0.14937421829E+04  0.14937421829E+04  0.25500000000E-02 0. -1.
    5000001    1    1    2    0    0  0.10711664696E+03  0.95538538856E+01 -0.82852948656E+03  0.83902047786E+03  0.77000000000E+02 0.  0.
   -5000001    1    1    2    0    0 -0.10711664696E+03 -0.95538538856E+01 -0.65334026078E+03  0.66659414079E+03  0.77000000000E+02 0.  0.
<mgrwt>
<rscale>  0 0.26634082E+03</rscale>
<asrwt>0</asrwt>
<pdfrwt beam="1">  1        2 0.18265297E-02 0.26634082E+03</pdfrwt>
<pdfrwt beam="2">  1       -2 0.22980634E+00 0.26634082E+03</pdfrwt>
<totfact> 0.58694849E+02</totfact>
</mgrwt>
</event>
<event>
 4    1  0.5980424E-004  0.4707574E+03  0.7818608E-02  0.1021707E+00
         -2   -1    0    0    0  501 -0.00000000000E+00  0.00000000000E+00  0.23401998531E+03  0.23401998533E+03  0.25500000000E-02 0. -1.
          2   -1    0    0  501    0  0.00000000000E+00 -0.00000000000E+00 -0.23674528812E+03  0.23674528813E+03  0.25500000000E-02 0.  1.
    5000001    1    1    2    0    0  0.17245102951E+03  0.29043741401E+02  0.13608503135E+03  0.23458693965E+03  0.77000000000E+02 0.  0.
   -5000001    1    1    2    0    0 -0.17245102951E+03 -0.29043741401E+02 -0.13881033416E+03  0.23617833381E+03  0.77000000000E+02 0.  0.
<mgrwt>
<rscale>  0 0.47075738E+03</rscale>
<asrwt>0</asrwt>
<pdfrwt beam="1">  1        2 0.36422352E-01 0.47075738E+03</pdfrwt>
<pdfrwt beam="2">  1       -2 0.36003075E-01 0.47075738E+03</pdfrwt>
<totfact> 0.10382997E+03</totfact>
</mgrwt>
</event>
<event>
 4    1  0.5980424E-004  0.2155646E+03  0.7818608E-02  0.1137234E+00
         -2   -1    0    0    0  501 -0.00000000000E+00  0.00000000000E+00  0.52134651764E+01  0.52134658000E+01  0.25500000000E-02 0. -1.
          2   -1    0    0  501    0  0.00000000000E+00 -0.00000000000E+00 -0.22282737043E+04  0.22282737043E+04  0.25500000000E-02 0.  1.
    5000001    1    1    2    0    0  0.47654505297E+02 -0.50062763077E+02 -0.79883832171E+03  0.80551157431E+03  0.77000000000E+02 0.  0.
   -5000001    1    1    2    0    0 -0.47654505297E+02  0.50062763077E+02 -0.14242219174E+04  0.14279755958E+04  0.77000000000E+02 0.  0.
<mgrwt>
<rscale>  0 0.21556464E+03</rscale>
<asrwt>0</asrwt>
<pdfrwt beam="1">  1        2 0.34281058E+00 0.21556464E+03</pdfrwt>
<pdfrwt beam="2">  1       -2 0.80207339E-03 0.21556464E+03</pdfrwt>
<totfact> 0.16411646E+04</totfact>
</mgrwt>
</event>
<event>
 4    1  0.5980424E-004  0.3093586E+03  0.7818608E-02  0.1080654E+00
         -2   -1    0    0    0  501 -0.00000000000E+00  0.00000000000E+00  0.48646572851E+02  0.48646572917E+02  0.25500000000E-02 0. -1.
          2   -1    0    0  501    0  0.00000000000E+00 -0.00000000000E+00 -0.49182669318E+03  0.49182669318E+03  0.25500000000E-02 0.  1.
    5000001    1    1    2    0    0  0.65065846906E+02 -0.92354907392E+02 -0.95199093745E+02  0.16659790156E+03  0.77000000000E+02 0.  0.
   -5000001    1    1    2    0    0 -0.65065846906E+02  0.92354907392E+02 -0.34798102658E+03  0.37387536454E+03  0.77000000000E+02 0.  0.
<mgrwt>
<rscale>  0 0.30935858E+03</rscale>
<asrwt>0</asrwt>
<pdfrwt beam="1">  1        2 0.75665642E-01 0.30935858E+03</pdfrwt>
<pdfrwt beam="2">  1       -2 0.74840885E-02 0.30935858E+03</pdfrwt>
<totfact> 0.66560419E+03</totfact>
</mgrwt>
</event>
<event>
 4    1  0.5980424E-004  0.2436513E+03  0.7818608E-02  0.1117384E+00
          2   -1    0    0  501    0  0.00000000000E+00  0.00000000000E+00  0.64640636303E+03  0.64640636304E+03  0.25500000000E-02 0.  1.
         -2   -1    0    0    0  501 -0.00000000000E+00 -0.00000000000E+00 -0.22959994260E+02  0.22959994402E+02  0.25500000000E-02 0. -1.
    5000001    1    1    2    0    0  0.20441071215E+02 -0.75546642423E+02  0.16668203296E+03  0.19959216589E+03  0.77000000000E+02 0.  0.
   -5000001    1    1    2    0    0 -0.20441071215E+02  0.75546642423E+02  0.45676433582E+03  0.46977419155E+03  0.77000000000E+02 0.  0.
<mgrwt>
<rscale>  0 0.24365128E+03</rscale>
<asrwt>0</asrwt>
<pdfrwt beam="1">  1        2 0.99447123E-01 0.24365128E+03</pdfrwt>
<pdfrwt beam="2">  1       -2 0.35323072E-02 0.24365128E+03</pdfrwt>
<totfact> 0.15133211E+04</totfact>
</mgrwt>
</event>
<event>
 4    1  0.5980424E-004  0.3721341E+03  0.7818608E-02  0.1053880E+00
         -2   -1    0    0    0  501 -0.00000000000E+00  0.00000000000E+00  0.14384018076E+03  0.14384018078E+03  0.25500000000E-02 0. -1.
          2   -1    0    0  501    0  0.00000000000E+00 -0.00000000000E+00 -0.24069032112E+03  0.24069032113E+03  0.25500000000E-02 0.  1.
    5000001    1    1    2    0    0  0.14402655417E+03 -0.82490556924E+02 -0.83368719808E+02  0.20106636648E+03  0.77000000000E+02 0.  0.
   -5000001    1    1    2    0    0 -0.14402655417E+03  0.82490556924E+02 -0.13481420557E+02  0.18346413543E+03  0.77000000000E+02 0.  0.
<mgrwt>
<rscale>  0 0.37213406E+03</rscale>
<asrwt>0</asrwt>
<pdfrwt beam="1">  1        2 0.37029280E-01 0.37213406E+03</pdfrwt>
<pdfrwt beam="2">  1       -2 0.22129259E-01 0.37213406E+03</pdfrwt>
<totfact> 0.24644632E+03</totfact>
</mgrwt>
</event>
<event>
 4    1  0.5980424E-004  0.2419111E+03  0.7818608E-02  0.1118526E+00
          2   -1    0    0  501    0  0.00000000000E+00  0.00000000000E+00  0.27318627595E+03  0.27318627596E+03  0.25500000000E-02 0.  1.
         -2   -1    0    0    0  501 -0.00000000000E+00 -0.00000000000E+00 -0.53554096066E+02  0.53554096126E+02  0.25500000000E-02 0. -1.
    5000001    1    1    2    0    0 -0.75740254681E+02  0.45367107324E+02  0.15048166918E+03  0.19070525259E+03  0.77000000000E+02 0.  0.
   -5000001    1    1    2    0    0  0.75740254681E+02 -0.45367107324E+02  0.69150510703E+02  0.13603511950E+03  0.77000000000E+02 0.  0.
<mgrwt>
<rscale>  0 0.24191109E+03</rscale>
<asrwt>0</asrwt>
<pdfrwt beam="1">  1        2 0.42028657E-01 0.24191109E+03</pdfrwt>
<pdfrwt beam="2">  1       -2 0.82390918E-02 0.24191109E+03</pdfrwt>
<totfact> 0.10748609E+04</totfact>
</mgrwt>
</event>
<event>
 4    1  0.5980424E-004  0.2647240E+03  0.7818608E-02  0.1104338E+00
         -2   -1    0    0    0  501 -0.00000000000E+00  0.00000000000E+00  0.83751117216E+01  0.83751121098E+01  0.25500000000E-02 0. -1.
          2   -1    0    0  501    0  0.00000000000E+00 -0.00000000000E+00 -0.20918757008E+04  0.20918757008E+04  0.25500000000E-02 0.  1.
    5000001    1    1    2    0    0 -0.19132691933E+02 -0.89940216366E+02 -0.59750406463E+03  0.60942219328E+03  0.77000000000E+02 0.  0.
   -5000001    1    1    2    0    0  0.19132691933E+02  0.89940216366E+02 -0.14859965245E+04  0.14908286197E+04  0.77000000000E+02 0.  0.
<mgrwt>
<rscale>  0 0.26472396E+03</rscale>
<asrwt>0</asrwt>
<pdfrwt beam="1">  1        2 0.32182662E+00 0.26472396E+03</pdfrwt>
<pdfrwt beam="2">  1       -2 0.12884804E-02 0.26472396E+03</pdfrwt>
<totfact> 0.97863630E+03</totfact>
</mgrwt>
</event>
<event>
 4    1  0.5980424E-004  0.1767267E+03  0.7818608E-02  0.1171009E+00
         -2   -1    0    0    0  501 -0.00000000000E+00  0.00000000000E+00  0.22198626099E+02  0.22198626245E+02  0.25500000000E-02 0. -1.
          2   -1    0    0  501    0  0.00000000000E+00 -0.00000000000E+00 -0.35173701565E+03  0.35173701566E+03  0.25500000000E-02 0.  1.
    5000001    1    1    2    0    0  0.36421002730E+02  0.23300144306E+02 -0.17135652669E+03  0.19277304117E+03  0.77000000000E+02 0.  0.
   -5000001    1    1    2    0    0 -0.36421002730E+02 -0.23300144306E+02 -0.15818186286E+03  0.18116260073E+03  0.77000000000E+02 0.  0.
<mgrwt>
<rscale>  0 0.17672666E+03</rscale>
<asrwt>0</asrwt>
<pdfrwt beam="1">  1        2 0.54113383E-01 0.17672666E+03</pdfrwt>
<pdfrwt beam="2">  1       -2 0.34151735E-02 0.17672666E+03</pdfrwt>
<totfact> 0.30579228E+04</totfact>
</mgrwt>
</event>
<event>
 4    1  0.5980424E-004  0.6523042E+03  0.7818608E-02  0.9802465E-01
         -2   -1    0    0    0  501 -0.00000000000E+00  0.00000000000E+00  0.57971918706E+02  0.57971918762E+02  0.25500000000E-02 0. -1.
          2   -1    0    0  501    0  0.00000000000E+00 -0.00000000000E+00 -0.18349436848E+04  0.18349436848E+04  0.25500000000E-02 0.  1.
    5000001    1    1    2    0    0 -0.22056497411E+03 -0.16203396657E+03 -0.13522647778E+04  0.13818295638E+04  0.77000000000E+02 0.  0.
   -5000001    1    1    2    0    0  0.22056497411E+03  0.16203396657E+03 -0.42470698828E+03  0.51108603975E+03  0.77000000000E+02 0.  0.
<mgrwt>
<rscale>  0 0.65230424E+03</rscale>
<asrwt>0</asrwt>
<pdfrwt beam="1">  1        2 0.28229898E+00 0.65230424E+03</pdfrwt>
<pdfrwt beam="2">  1       -2 0.89187581E-02 0.65230424E+03</pdfrwt>
<totfact> 0.69923997E+02</totfact>
</mgrwt>
</event>
<event>
 4    1  0.5980424E-004  0.2826799E+03  0.7818608E-02  0.1094234E+00
         -2   -1    0    0    0  501 -0.00000000000E+00  0.00000000000E+00  0.19814554051E+02  0.19814554215E+02  0.25500000000E-02 0. -1.
          2   -1    0    0  501    0  0.00000000000E+00 -0.00000000000E+00 -0.10081970267E+04  0.10081970267E+04  0.25500000000E-02 0.  1.
    5000001    1    1    2    0    0  0.11510022810E+03 -0.15755571347E+02 -0.40877421510E+03  0.43188153406E+03  0.77000000000E+02 0.  0.
   -5000001    1    1    2    0    0 -0.11510022810E+03  0.15755571347E+02 -0.57960825752E+03  0.59613004683E+03  0.77000000000E+02 0.  0.
<mgrwt>
<rscale>  0 0.28267985E+03</rscale>
<asrwt>0</asrwt>
<pdfrwt beam="1">  1        2 0.15510719E+00 0.28267985E+03</pdfrwt>
<pdfrwt beam="2">  1       -2 0.30483937E-02 0.28267985E+03</pdfrwt>
<totfact> 0.10718704E+04</totfact>
</mgrwt>
</event>
<event>
 4    1  0.5980424E-004  0.2961345E+03  0.7818608E-02  0.1087189E+00
          2   -1    0    0  501    0  0.00000000000E+00  0.00000000000E+00  0.23368974595E+03  0.23368974596E+03  0.25500000000E-02 0.  1.
         -2   -1    0    0    0  501 -0.00000000000E+00 -0.00000000000E+00 -0.93816291852E+02  0.93816291886E+02  0.25500000000E-02 0. -1.
    5000001    1    1    2    0    0  0.60168117168E+02  0.92304691347E+02  0.13859881897E+03  0.19307768123E+03  0.77000000000E+02 0.  0.
   -5000001    1    1    2    0    0 -0.60168117168E+02 -0.92304691347E+02  0.12746351223E+01  0.13442835662E+03  0.77000000000E+02 0.  0.
<mgrwt>
<rscale>  0 0.29613447E+03</rscale>
<asrwt>0</asrwt>
<pdfrwt beam="1">  1        2 0.35952268E-01 0.29613447E+03</pdfrwt>
<pdfrwt beam="2">  1       -2 0.14433276E-01 0.29613447E+03</pdfrwt>
<totfact> 0.52238799E+03</totfact>
</mgrwt>
</event>
<event>
 4    1  0.5980424E-004  0.2991135E+03  0.7818608E-02  0.1085685E+00
          2   -1    0    0  501    0  0.00000000000E+00  0.00000000000E+00  0.76183315261E+03  0.76183315262E+03  0.25500000000E-02 0.  1.
         -2   -1    0    0    0  501 -0.00000000000E+00 -0.00000000000E+00 -0.29359745426E+02  0.29359745537E+02  0.25500000000E-02 0. -1.
    5000001    1    1    2    0    0 -0.77350926523E+01  0.11815584927E+03  0.23617850615E+03  0.27519070322E+03  0.77000000000E+02 0.  0.
   -5000001    1    1    2    0    0  0.77350926523E+01 -0.11815584927E+03  0.49629490104E+03  0.51600219493E+03  0.77000000000E+02 0.  0.
<mgrwt>
<rscale>  0 0.29911354E+03</rscale>
<asrwt>0</asrwt>
<pdfrwt beam="1">  1        2 0.11720510E+00 0.29911354E+03</pdfrwt>
<pdfrwt beam="2">  1       -2 0.45168840E-02 0.29911354E+03</pdfrwt>
<totfact> 0.86303553E+03</totfact>
</mgrwt>
</event>
<event>
 4    1  0.5980424E-004  0.1697078E+03  0.7818608E-02  0.1178153E+00
         -2   -1    0    0    0  501 -0.00000000000E+00  0.00000000000E+00  0.39881778371E+03  0.39881778372E+03  0.25500000000E-02 0. -1.
          2   -1    0    0  501    0  0.00000000000E+00 -0.00000000000E+00 -0.18053822889E+02  0.18053823070E+02  0.25500000000E-02 0.  1.
    5000001    1    1    2    0    0 -0.23999702851E+02 -0.22476827428E+02  0.22424052739E+03  0.23936166701E+03  0.77000000000E+02 0.  0.
   -5000001    1    1    2    0    0  0.23999702851E+02  0.22476827428E+02  0.15652343343E+03  0.17750993978E+03  0.77000000000E+02 0.  0.
<mgrwt>
<rscale>  0 0.16970782E+03</rscale>
<asrwt>0</asrwt>
<pdfrwt beam="1">  1        2 0.27775111E-02 0.16970782E+03</pdfrwt>
<pdfrwt beam="2">  1       -2 0.61356585E-01 0.16970782E+03</pdfrwt>
<totfact> 0.84243354E+03</totfact>
</mgrwt>
</event>
<event>
 4    1  0.5980424E-004  0.2318270E+03  0.7818608E-02  0.1125360E+00
         -2   -1    0    0    0  501 -0.00000000000E+00  0.00000000000E+00  0.10095988940E+02  0.10095989262E+02  0.25500000000E-02 0. -1.
          2   -1    0    0  501    0  0.00000000000E+00 -0.00000000000E+00 -0.13308200466E+04  0.13308200466E+04  0.25500000000E-02 0.  1.
    5000001    1    1    2    0    0  0.50713309527E+02 -0.62349985722E+02 -0.47315077317E+03  0.48606585421E+03  0.77000000000E+02 0.  0.
   -5000001    1    1    2    0    0 -0.50713309527E+02  0.62349985722E+02 -0.84757328446E+03  0.85485018161E+03  0.77000000000E+02 0.  0.
<mgrwt>
<rscale>  0 0.23182704E+03</rscale>
<asrwt>0</asrwt>
<pdfrwt beam="1">  1        2 0.20474141E+00 0.23182704E+03</pdfrwt>
<pdfrwt beam="2">  1       -2 0.15532301E-02 0.23182704E+03</pdfrwt>
<totfact> 0.18754427E+04</totfact>
</mgrwt>
</event>
<event>
 4    1  0.5980424E-004  0.4092664E+03  0.7818608E-02  0.1040617E+00
         -2   -1    0    0    0  501 -0.00000000000E+00  0.00000000000E+00  0.63770456576E+03  0.63770456576E+03  0.25500000000E-02 0. -1.
          2   -1    0    0  501    0  0.00000000000E+00 -0.00000000000E+00 -0.65664815025E+02  0.65664815074E+02  0.25500000000E-02 0.  1.
    5000001    1    1    2    0    0  0.16170709311E+03 -0.25060069319E+02  0.12145849019E+03  0.21784938806E+03  0.77000000000E+02 0.  0.
   -5000001    1    1    2    0    0 -0.16170709311E+03  0.25060069319E+02  0.45058126054E+03  0.48551999278E+03  0.77000000000E+02 0.  0.
<mgrwt>
<rscale>  0 0.40926643E+03</rscale>
<asrwt>0</asrwt>
<pdfrwt beam="1">  1        2 0.10102279E-01 0.40926643E+03</pdfrwt>
<pdfrwt beam="2">  1       -2 0.98108396E-01 0.40926643E+03</pdfrwt>
<totfact> 0.57065069E+02</totfact>
</mgrwt>
</event>
<event>
 4    1  0.5980424E-004  0.3111814E+03  0.7818608E-02  0.1079781E+00
         -2   -1    0    0    0  501 -0.00000000000E+00  0.00000000000E+00  0.17749940618E+02  0.17749940801E+02  0.25500000000E-02 0. -1.
          2   -1    0    0  501    0  0.00000000000E+00 -0.00000000000E+00 -0.13638618333E+04  0.13638618333E+04  0.25500000000E-02 0.  1.
    5000001    1    1    2    0    0  0.78827099729E+02  0.10778017934E+03 -0.76715525799E+03  0.78248736001E+03  0.77000000000E+02 0.  0.
   -5000001    1    1    2    0    0 -0.78827099729E+02 -0.10778017934E+03 -0.57895663465E+03  0.59912441405E+03  0.77000000000E+02 0.  0.
<mgrwt>
<rscale>  0 0.31118140E+03</rscale>
<asrwt>0</asrwt>
<pdfrwt beam="1">  1        2 0.20982482E+00 0.31118140E+03</pdfrwt>
<pdfrwt beam="2">  1       -2 0.27307612E-02 0.31118140E+03</pdfrwt>
<totfact> 0.79013608E+03</totfact>
</mgrwt>
</event>
<event>
 4    1  0.5980424E-004  0.3251493E+03  0.7818608E-02  0.1073304E+00
          2   -1    0    0  501    0  0.00000000000E+00  0.00000000000E+00  0.67188331847E+02  0.67188331895E+02  0.25500000000E-02 0.  1.
         -2   -1    0    0    0  501 -0.00000000000E+00 -0.00000000000E+00 -0.39337960367E+03  0.39337960368E+03  0.25500000000E-02 0. -1.
    5000001    1    1    2    0    0 -0.11794961456E+03  0.76273483280E+02 -0.20244638314E+03  0.25815362456E+03  0.77000000000E+02 0.  0.
   -5000001    1    1    2    0    0  0.11794961456E+03 -0.76273483280E+02 -0.12374488868E+03  0.20241431101E+03  0.77000000000E+02 0.  0.
<mgrwt>
<rscale>  0 0.32514932E+03</rscale>
<asrwt>0</asrwt>
<pdfrwt beam="1">  1        2 0.10336667E-01 0.32514932E+03</pdfrwt>
<pdfrwt beam="2">  1       -2 0.60519938E-01 0.32514932E+03</pdfrwt>
<totfact> 0.16024024E+03</totfact>
</mgrwt>
</event>
<event>
 4    1  0.5980424E-004  0.2666481E+03  0.7818608E-02  0.1103213E+00
          2   -1    0    0  501    0  0.00000000000E+00  0.00000000000E+00  0.14896526398E+04  0.14896526398E+04  0.25500000000E-02 0. -1.
         -2   -1    0    0    0  501 -0.00000000000E+00 -0.00000000000E+00 -0.11932517397E+02  0.11932517670E+02  0.25500000000E-02 0.  1.
    5000001    1    1    2    0    0 -0.50692078335E+02 -0.96313791609E+02  0.74180232927E+03  0.75368808467E+03  0.77000000000E+02 0.  0.
   -5000001    1    1    2    0    0  0.50692078335E+02  0.96313791609E+02  0.73591779317E+03  0.74789707284E+03  0.77000000000E+02 0.  0.
<mgrwt>
<rscale>  0 0.26664813E+03</rscale>
<asrwt>0</asrwt>
<pdfrwt beam="1">  1        2 0.22917736E+00 0.26664813E+03</pdfrwt>
<pdfrwt beam="2">  1       -2 0.18357717E-02 0.26664813E+03</pdfrwt>
<totfact> 0.12108817E+04</totfact>
</mgrwt>
</event>
<event>
 4    1  0.5980424E-004  0.2740958E+03  0.7818608E-02  0.1098958E+00
          2   -1    0    0  501    0  0.00000000000E+00  0.00000000000E+00  0.47570257060E+03  0.47570257061E+03  0.25500000000E-02 0.  1.
         -2   -1    0    0    0  501 -0.00000000000E+00 -0.00000000000E+00 -0.39482932539E+02  0.39482932622E+02  0.25500000000E-02 0. -1.
    5000001    1    1    2    0    0 -0.25571776673E+02  0.81246225063E+02  0.77476567500E+02  0.13851528205E+03  0.77000000000E+02 0.  0.
   -5000001    1    1    2    0    0  0.25571776673E+02 -0.81246225063E+02  0.35874307056E+03  0.37667022118E+03  0.77000000000E+02 0.  0.
<mgrwt>
<rscale>  0 0.27409584E+03</rscale>
<asrwt>0</asrwt>
<pdfrwt beam="1">  1        2 0.73185015E-01 0.27409584E+03</pdfrwt>
<pdfrwt beam="2">  1       -2 0.60742970E-02 0.27409584E+03</pdfrwt>
<totfact> 0.95035800E+03</totfact>
</mgrwt>
</event>
<event>
 4    1  0.5980424E-004  0.1728032E+03  0.7818608E-02  0.1174956E+00
         -2   -1    0    0    0  501 -0.00000000000E+00  0.00000000000E+00  0.31281654839E+02  0.31281654943E+02  0.25500000000E-02 0. -1.
          2   -1    0    0  501    0  0.00000000000E+00 -0.00000000000E+00 -0.23864585827E+03  0.23864585828E+03  0.25500000000E-02 0.  1.
    5000001    1    1    2    0    0  0.99822882229E+01 -0.36092574063E+02 -0.12175858130E+03  0.14885050253E+03  0.77000000000E+02 0.  0.
   -5000001    1    1    2    0    0 -0.99822882229E+01  0.36092574063E+02 -0.85605622127E+02  0.12107701070E+03  0.77000000000E+02 0.  0.
<mgrwt>
<rscale>  0 0.17280321E+03</rscale>
<asrwt>0</asrwt>
<pdfrwt beam="1">  1        2 0.36714746E-01 0.17280321E+03</pdfrwt>
<pdfrwt beam="2">  1       -2 0.48125624E-02 0.17280321E+03</pdfrwt>
<totfact> 0.27662131E+04</totfact>
</mgrwt>
</event>
<event>
 4    1  0.5980424E-004  0.6075406E+03  0.7818608E-02  0.9889884E-01
         -2   -1    0    0    0  501 -0.00000000000E+00  0.00000000000E+00  0.75470467982E+02  0.75470468025E+02  0.25500000000E-02 0. -1.
          2   -1    0    0  501    0  0.00000000000E+00 -0.00000000000E+00 -0.12226820761E+04  0.12226820761E+04  0.25500000000E-02 0.  1.
    5000001    1    1    2    0    0  0.17153715072E+03  0.23607998882E+03 -0.49993856632E+03  0.58397459302E+03  0.77000000000E+02 0.  0.
   -5000001    1    1    2    0    0 -0.17153715072E+03 -0.23607998882E+03 -0.64727304177E+03  0.71417795108E+03  0.77000000000E+02 0.  0.
<mgrwt>
<rscale>  0 0.60754058E+03</rscale>
<asrwt>0</asrwt>
<pdfrwt beam="1">  1        2 0.18810492E+00 0.60754058E+03</pdfrwt>
<pdfrwt beam="2">  1       -2 0.11610842E-01 0.60754058E+03</pdfrwt>
<totfact> 0.99862155E+02</totfact>
</mgrwt>
</event>
<event>
 4    1  0.5980424E-004  0.1953071E+03  0.7818608E-02  0.1153760E+00
         -2   -1    0    0    0  501 -0.00000000000E+00  0.00000000000E+00  0.22000814630E+02  0.22000814778E+02  0.25500000000E-02 0. -1.
          2   -1    0    0  501    0  0.00000000000E+00 -0.00000000000E+00 -0.43344836476E+03  0.43344836477E+03  0.25500000000E-02 0.  1.
    5000001    1    1    2    0    0  0.46978730378E+02 -0.72431994466E+00 -0.11847928444E+03  0.14890892045E+03  0.77000000000E+02 0.  0.
   -5000001    1    1    2    0    0 -0.46978730378E+02  0.72431994466E+00 -0.29296826568E+03  0.30654025909E+03  0.77000000000E+02 0.  0.
<mgrwt>
<rscale>  0 0.19530711E+03</rscale>
<asrwt>0</asrwt>
<pdfrwt beam="1">  1        2 0.66684358E-01 0.19530711E+03</pdfrwt>
<pdfrwt beam="2">  1       -2 0.33847410E-02 0.19530711E+03</pdfrwt>
<totfact> 0.24953246E+04</totfact>
</mgrwt>
</event>
<event>
 4    1  0.5980424E-004  0.1994740E+03  0.7818608E-02  0.1150184E+00
         -2   -1    0    0    0  501 -0.00000000000E+00  0.00000000000E+00  0.19597893262E+03  0.19597893264E+03  0.25500000000E-02 0. -1.
          2   -1    0    0  501    0  0.00000000000E+00 -0.00000000000E+00 -0.50757842511E+02  0.50757842575E+02  0.25500000000E-02 0.  1.
    5000001    1    1    2    0    0 -0.53340227850E+02  0.31851644302E+02  0.57025105350E+02  0.11419531423E+03  0.77000000000E+02 0.  0.
   -5000001    1    1    2    0    0  0.53340227850E+02 -0.31851644302E+02  0.88195984761E+02  0.13254146098E+03  0.77000000000E+02 0.  0.
<mgrwt>
<rscale>  0 0.19947399E+03</rscale>
<asrwt>0</asrwt>
<pdfrwt beam="1">  1        2 0.78088989E-02 0.19947399E+03</pdfrwt>
<pdfrwt beam="2">  1       -2 0.30150605E-01 0.19947399E+03</pdfrwt>
<totfact> 0.86206918E+03</totfact>
</mgrwt>
</event>
<event>
 4    1  0.5980424E-004  0.3709935E+03  0.7818608E-02  0.1054314E+00
          2   -1    0    0  501    0  0.00000000000E+00  0.00000000000E+00  0.19702442800E+04  0.19702442800E+04  0.25500000000E-02 0.  1.
         -2   -1    0    0    0  501 -0.00000000000E+00 -0.00000000000E+00 -0.17464350858E+02  0.17464351044E+02  0.25500000000E-02 0. -1.
    5000001    1    1    2    0    0 -0.14035030556E+03 -0.28513477973E+02  0.49810885847E+03  0.52397773004E+03  0.77000000000E+02 0.  0.
   -5000001    1    1    2    0    0  0.14035030556E+03  0.28513477973E+02  0.14546710707E+04  0.14637309010E+04  0.77000000000E+02 0.  0.
<mgrwt>
<rscale>  0 0.37099346E+03</rscale>
<asrwt>0</asrwt>
<pdfrwt beam="1">  1        2 0.30311445E+00 0.37099346E+03</pdfrwt>
<pdfrwt beam="2">  1       -2 0.26868237E-02 0.37099346E+03</pdfrwt>
<totfact> 0.38369958E+03</totfact>
</mgrwt>
</event>
<event>
 4    1  0.5980424E-004  0.3897982E+03  0.7818608E-02  0.1047371E+00
         -2   -1    0    0    0  501 -0.00000000000E+00  0.00000000000E+00  0.60997402214E+02  0.60997402267E+02  0.25500000000E-02 0. -1.
          2   -1    0    0  501    0  0.00000000000E+00 -0.00000000000E+00 -0.62274232565E+03  0.62274232565E+03  0.25500000000E-02 0.  1.
    5000001    1    1    2    0    0  0.13107049921E+03 -0.10392232995E+03 -0.39287794879E+03  0.43389101059E+03  0.77000000000E+02 0.  0.
   -5000001    1    1    2    0    0 -0.13107049921E+03  0.10392232995E+03 -0.16886697464E+03  0.24984871733E+03  0.77000000000E+02 0.  0.
<mgrwt>
<rscale>  0 0.38979823E+03</rscale>
<asrwt>0</asrwt>
<pdfrwt beam="1">  1        2 0.95806507E-01 0.38979823E+03</pdfrwt>
<pdfrwt beam="2">  1       -2 0.93842161E-02 0.38979823E+03</pdfrwt>
<totfact> 0.35663581E+03</totfact>
</mgrwt>
</event>
