<event>
 4    1  0.6376580E-005  0.9784380E+03  0.7818608E-02  0.9332515E-01
         -1   -1    0    0    0  501 -0.00000000000E+00  0.00000000000E+00  0.12409628302E+03  0.12409628312E+03  0.50400000000E-02 0. -1.
          1   -1    0    0  501    0  0.00000000000E+00 -0.00000000000E+00 -0.19286254181E+04  0.19286254181E+04  0.50400000000E-02 0.  1.
    5000001    1    1    2    0    0 -0.99690821578E+02 -0.42559556465E+03 -0.52617146482E+03  0.69574079580E+03  0.12700000000E+03 0.  0.
   -5000001    1    1    2    0    0  0.99690821578E+02  0.42559556465E+03 -0.12783576702E+04  0.13569809054E+04  0.12700000000E+03 0.  0.
<mgrwt>
<rscale>  0 0.97843803E+03</rscale>
<asrwt>0</asrwt>
<pdfrwt beam="1">  1        1 0.27551790E+00 0.97843803E+03</pdfrwt>
<pdfrwt beam="2">  1       -1 0.17728042E-01 0.97843803E+03</pdfrwt>
<totfact> 0.10401256E+02</totfact>
</mgrwt>
</event>
<event>
 4    1  0.6376580E-005  0.3034625E+03  0.7818608E-02  0.1083522E+00
         -1   -1    0    0    0  501 -0.00000000000E+00  0.00000000000E+00  0.16698593767E+03  0.16698593775E+03  0.50400000000E-02 0. -1.
          1   -1    0    0  501    0  0.00000000000E+00 -0.00000000000E+00 -0.13787010130E+03  0.13787010139E+03  0.50400000000E-02 0.  1.
    5000001    1    1    2    0    0 -0.65812098273E+02 -0.29844174380E+02  0.55629171174E+02  0.15635060508E+03  0.12700000000E+03 0.  0.
   -5000001    1    1    2    0    0  0.65812098273E+02  0.29844174380E+02 -0.26513334799E+02  0.14850543406E+03  0.12700000000E+03 0.  0.
<mgrwt>
<rscale>  0 0.30346247E+03</rscale>
<asrwt>0</asrwt>
<pdfrwt beam="1">  1        1 0.19695729E-01 0.30346247E+03</pdfrwt>
<pdfrwt beam="2">  1       -1 0.23855134E-01 0.30346247E+03</pdfrwt>
<totfact> 0.39167726E+03</totfact>
</mgrwt>
</event>
<event>
 4    1  0.6376580E-005  0.5984298E+03  0.7818608E-02  0.9908669E-01
          1   -1    0    0  501    0  0.00000000000E+00  0.00000000000E+00  0.16737853326E+04  0.16737853326E+04  0.50400000000E-02 0.  1.
         -1   -1    0    0    0  501 -0.00000000000E+00 -0.00000000000E+00 -0.53489263185E+02  0.53489263422E+02  0.50400000000E-02 0. -1.
    5000001    1    1    2    0    0 -0.83137030891E+01 -0.26816836194E+03  0.70149118963E+03  0.76171010045E+03  0.12700000000E+03 0.  0.
   -5000001    1    1    2    0    0  0.83137030891E+01  0.26816836194E+03  0.91880487978E+03  0.96556449557E+03  0.12700000000E+03 0.  0.
<mgrwt>
<rscale>  0 0.59842976E+03</rscale>
<asrwt>0</asrwt>
<pdfrwt beam="1">  1        1 0.23911225E+00 0.59842976E+03</pdfrwt>
<pdfrwt beam="2">  1       -1 0.76413215E-02 0.59842976E+03</pdfrwt>
<totfact> 0.59376629E+02</totfact>
</mgrwt>
</event>
<event>
 4    1  0.6376580E-005  0.2887490E+03  0.7818608E-02  0.1091004E+00
          1   -1    0    0  501    0  0.00000000000E+00  0.00000000000E+00  0.15474012675E+03  0.15474012684E+03  0.50400000000E-02 0.  1.
         -1   -1    0    0    0  501 -0.00000000000E+00 -0.00000000000E+00 -0.13470324178E+03  0.13470324187E+03  0.50400000000E-02 0. -1.
    5000001    1    1    2    0    0 -0.16255668022E+02  0.61706326049E+02 -0.15401547820E+02  0.14296197079E+03  0.12700000000E+03 0.  0.
   -5000001    1    1    2    0    0  0.16255668022E+02 -0.61706326049E+02  0.35438432793E+02  0.14648139792E+03  0.12700000000E+03 0.  0.
<mgrwt>
<rscale>  0 0.28874900E+03</rscale>
<asrwt>0</asrwt>
<pdfrwt beam="1">  1        1 0.22105732E-01 0.28874900E+03</pdfrwt>
<pdfrwt beam="2">  1       -1 0.19243320E-01 0.28874900E+03</pdfrwt>
<totfact> 0.47945180E+03</totfact>
</mgrwt>
</event>
<event>
 4    1  0.6376580E-005  0.1539263E+04  0.7818608E-02  0.8858755E-01
         -1   -1    0    0    0  501 -0.00000000000E+00  0.00000000000E+00  0.12552255164E+04  0.12552255164E+04  0.50400000000E-02 0. -1.
          1   -1    0    0  501    0  0.00000000000E+00 -0.00000000000E+00 -0.47189364386E+03  0.47189364389E+03  0.50400000000E-02 0.  1.
    5000001    1    1    2    0    0 -0.33821387881E+03  0.67956071979E+03  0.38769207507E+03  0.86175724236E+03  0.12700000000E+03 0.  0.
   -5000001    1    1    2    0    0  0.33821387881E+03 -0.67956071979E+03  0.39563979750E+03  0.86536191796E+03  0.12700000000E+03 0.  0.
<mgrwt>
<rscale>  0 0.15392634E+04</rscale>
<asrwt>0</asrwt>
<pdfrwt beam="1">  1        1 0.67413378E-01 0.15392634E+04</pdfrwt>
<pdfrwt beam="2">  1       -1 0.17931793E+00 0.15392634E+04</pdfrwt>
<totfact> 0.10797123E+01</totfact>
</mgrwt>
</event>
<event>
 4    1  0.6376580E-005  0.4908378E+03  0.7818608E-02  0.1016198E+00
         -1   -1    0    0    0  501 -0.00000000000E+00  0.00000000000E+00  0.76675569458E+02  0.76675569623E+02  0.50400000000E-02 0. -1.
          1   -1    0    0  501    0  0.00000000000E+00 -0.00000000000E+00 -0.78552313549E+03  0.78552313551E+03  0.50400000000E-02 0.  1.
    5000001    1    1    2    0    0 -0.20517090078E+03  0.29488356834E+02 -0.41364892051E+03  0.47979067431E+03  0.12700000000E+03 0.  0.
   -5000001    1    1    2    0    0  0.20517090078E+03 -0.29488356834E+02 -0.29519864552E+03  0.38240803082E+03  0.12700000000E+03 0.  0.
<mgrwt>
<rscale>  0 0.49083779E+03</rscale>
<asrwt>0</asrwt>
<pdfrwt beam="1">  1        1 0.11221759E+00 0.49083779E+03</pdfrwt>
<pdfrwt beam="2">  1       -1 0.10953653E-01 0.49083779E+03</pdfrwt>
<totfact> 0.14033230E+03</totfact>
</mgrwt>
</event>
<event>
 4    1  0.6376580E-005  0.3323739E+03  0.7818608E-02  0.1070091E+00
         -1   -1    0    0    0  501 -0.00000000000E+00  0.00000000000E+00  0.32875435157E+02  0.32875435543E+02  0.50400000000E-02 0. -1.
          1   -1    0    0  501    0  0.00000000000E+00 -0.00000000000E+00 -0.84008315947E+03  0.84008315948E+03  0.50400000000E-02 0.  1.
    5000001    1    1    2    0    0  0.69808692362E+02 -0.18443562822E+02 -0.19553974586E+03  0.24408648211E+03  0.12700000000E+03 0.  0.
   -5000001    1    1    2    0    0 -0.69808692362E+02  0.18443562822E+02 -0.61166797845E+03  0.62887211291E+03  0.12700000000E+03 0.  0.
<mgrwt>
<rscale>  0 0.33237388E+03</rscale>
<asrwt>0</asrwt>
<pdfrwt beam="1">  1        1 0.12001187E+00 0.33237388E+03</pdfrwt>
<pdfrwt beam="2">  1       -1 0.46964913E-02 0.33237388E+03</pdfrwt>
<totfact> 0.46478386E+03</totfact>
</mgrwt>
</event>
<event>
 4    1  0.6376580E-005  0.3369700E+03  0.7818608E-02  0.1068094E+00
          1   -1    0    0  501    0  0.00000000000E+00  0.00000000000E+00  0.12560917286E+03  0.12560917296E+03  0.50400000000E-02 0.  1.
         -1   -1    0    0    0  501 -0.00000000000E+00 -0.00000000000E+00 -0.22599618094E+03  0.22599618100E+03  0.50400000000E-02 0. -1.
    5000001    1    1    2    0    0 -0.70728342658E+02  0.24509730553E+02 -0.13531460706E+03  0.20010564268E+03  0.12700000000E+03 0.  0.
   -5000001    1    1    2    0    0  0.70728342658E+02 -0.24509730553E+02  0.34927598977E+02  0.15149971128E+03  0.12700000000E+03 0.  0.
<mgrwt>
<rscale>  0 0.33696999E+03</rscale>
<asrwt>0</asrwt>
<pdfrwt beam="1">  1        1 0.17944168E-01 0.33696999E+03</pdfrwt>
<pdfrwt beam="2">  1       -1 0.32285169E-01 0.33696999E+03</pdfrwt>
<totfact> 0.26561555E+03</totfact>
</mgrwt>
</event>
<event>
 4    1  0.6376580E-005  0.6682220E+03  0.7818608E-02  0.9773175E-01
          1   -1    0    0  501    0  0.00000000000E+00  0.00000000000E+00  0.73665921056E+03  0.73665921058E+03  0.50400000000E-02 0. -1.
         -1   -1    0    0    0  501 -0.00000000000E+00 -0.00000000000E+00 -0.15153569719E+03  0.15153569727E+03  0.50400000000E-02 0.  1.
    5000001    1    1    2    0    0 -0.71766833350E+02  0.30044925721E+03  0.28060401452E+03  0.43621995311E+03  0.12700000000E+03 0.  0.
   -5000001    1    1    2    0    0  0.71766833350E+02 -0.30044925721E+03  0.30451949885E+03  0.45197495474E+03  0.12700000000E+03 0.  0.
<mgrwt>
<rscale>  0 0.66822202E+03</rscale>
<asrwt>0</asrwt>
<pdfrwt beam="1">  1        1 0.10523703E+00 0.66822202E+03</pdfrwt>
<pdfrwt beam="2">  1       -1 0.21647957E-01 0.66822202E+03</pdfrwt>
<totfact> 0.50944526E+02</totfact>
</mgrwt>
</event>
<event>
 4    1  0.6376580E-005  0.3319367E+03  0.7818608E-02  0.1070283E+00
          1   -1    0    0  501    0  0.00000000000E+00  0.00000000000E+00  0.15753160926E+04  0.15753160927E+04  0.50400000000E-02 0.  1.
         -1   -1    0    0    0  501 -0.00000000000E+00 -0.00000000000E+00 -0.17485688786E+02  0.17485689512E+02  0.50400000000E-02 0. -1.
    5000001    1    1    2    0    0  0.21095109733E+02 -0.10296161047E+03  0.68656528595E+03  0.70607859956E+03  0.12700000000E+03 0.  0.
   -5000001    1    1    2    0    0 -0.21095109733E+02  0.10296161047E+03  0.87126511791E+03  0.88672318261E+03  0.12700000000E+03 0.  0.
<mgrwt>
<rscale>  0 0.33193667E+03</rscale>
<asrwt>0</asrwt>
<pdfrwt beam="1">  1        1 0.22504520E+00 0.33193667E+03</pdfrwt>
<pdfrwt beam="2">  1       -1 0.24979551E-02 0.33193667E+03</pdfrwt>
<totfact> 0.37531299E+03</totfact>
</mgrwt>
</event>
<event>
 4    1  0.6376580E-005  0.5856436E+03  0.7818608E-02  0.9935647E-01
          1   -1    0    0  501    0  0.00000000000E+00  0.00000000000E+00  0.12757756495E+04  0.12757756495E+04  0.50400000000E-02 0.  1.
         -1   -1    0    0    0  501 -0.00000000000E+00 -0.00000000000E+00 -0.67209794045E+02  0.67209794234E+02  0.50400000000E-02 0. -1.
    5000001    1    1    2    0    0  0.91001715330E+02 -0.24723246207E+03  0.63754716336E+03  0.70142753582E+03  0.12700000000E+03 0.  0.
   -5000001    1    1    2    0    0 -0.91001715330E+02  0.24723246207E+03  0.57101869206E+03  0.64155790789E+03  0.12700000000E+03 0.  0.
<mgrwt>
<rscale>  0 0.58564364E+03</rscale>
<asrwt>0</asrwt>
<pdfrwt beam="1">  1        1 0.18225366E+00 0.58564364E+03</pdfrwt>
<pdfrwt beam="2">  1       -1 0.96013995E-02 0.58564364E+03</pdfrwt>
<totfact> 0.75101141E+02</totfact>
</mgrwt>
</event>
<event>
 4    1  0.6376580E-005  0.3494392E+03  0.7818608E-02  0.1062845E+00
          1   -1    0    0  501    0  0.00000000000E+00  0.00000000000E+00  0.11994476347E+04  0.11994476347E+04  0.50400000000E-02 0.  1.
         -1   -1    0    0    0  501 -0.00000000000E+00 -0.00000000000E+00 -0.25450832684E+02  0.25450833183E+02  0.50400000000E-02 0. -1.
    5000001    1    1    2    0    0 -0.73265065774E+02  0.39877567397E+01  0.91980636779E+03  0.93142709123E+03  0.12700000000E+03 0.  0.
   -5000001    1    1    2    0    0  0.73265065774E+02 -0.39877567397E+01  0.25419043426E+03  0.29347137669E+03  0.12700000000E+03 0.  0.
<mgrwt>
<rscale>  0 0.34943922E+03</rscale>
<asrwt>0</asrwt>
<pdfrwt beam="1">  1        1 0.17134966E+00 0.34943922E+03</pdfrwt>
<pdfrwt beam="2">  1       -1 0.36358333E-02 0.34943922E+03</pdfrwt>
<totfact> 0.37520131E+03</totfact>
</mgrwt>
</event>
<event>
 4    1  0.6376580E-005  0.2769941E+03  0.7818608E-02  0.1097342E+00
          1   -1    0    0  501    0  0.00000000000E+00  0.00000000000E+00  0.54647116317E+02  0.54647116549E+02  0.50400000000E-02 0.  1.
         -1   -1    0    0    0  501 -0.00000000000E+00 -0.00000000000E+00 -0.35100540557E+03  0.35100540561E+03  0.50400000000E-02 0. -1.
    5000001    1    1    2    0    0  0.53551725475E+02 -0.37437893386E+01 -0.12904930282E+03  0.18885053830E+03  0.12700000000E+03 0.  0.
   -5000001    1    1    2    0    0 -0.53551725475E+02  0.37437893386E+01 -0.16730898644E+03  0.21680198385E+03  0.12700000000E+03 0.  0.
<mgrwt>
<rscale>  0 0.27699410E+03</rscale>
<asrwt>0</asrwt>
<pdfrwt beam="1">  1        1 0.78067311E-02 0.27699410E+03</pdfrwt>
<pdfrwt beam="2">  1       -1 0.50143628E-01 0.27699410E+03</pdfrwt>
<totfact> 0.36602586E+03</totfact>
</mgrwt>
</event>
<event>
 4    1  0.6376580E-005  0.2993645E+03  0.7818608E-02  0.1085559E+00
         -1   -1    0    0    0  501 -0.00000000000E+00  0.00000000000E+00  0.38475117572E+02  0.38475117903E+02  0.50400000000E-02 0.  1.
          1   -1    0    0  501    0  0.00000000000E+00 -0.00000000000E+00 -0.58231869422E+03  0.58231869425E+03  0.50400000000E-02 0. -1.
    5000001    1    1    2    0    0  0.31120683693E+02 -0.71930505716E+02 -0.24798097706E+03  0.28942366799E+03  0.12700000000E+03 0.  0.
   -5000001    1    1    2    0    0 -0.31120683693E+02  0.71930505716E+02 -0.29586259959E+03  0.33137014416E+03  0.12700000000E+03 0.  0.
<mgrwt>
<rscale>  0 0.29936453E+03</rscale>
<asrwt>0</asrwt>
<pdfrwt beam="1">  1        1 0.83188380E-01 0.29936453E+03</pdfrwt>
<pdfrwt beam="2">  1       -1 0.54964457E-02 0.29936453E+03</pdfrwt>
<totfact> 0.61917547E+03</totfact>
</mgrwt>
</event>
<event>
 4    1  0.6376580E-005  0.4066706E+03  0.7818608E-02  0.1041494E+00
         -1   -1    0    0    0  501 -0.00000000000E+00  0.00000000000E+00  0.99293777842E+03  0.99293777844E+03  0.50400000000E-02 0. -1.
          1   -1    0    0  501    0  0.00000000000E+00 -0.00000000000E+00 -0.41639312109E+02  0.41639312414E+02  0.50400000000E-02 0.  1.
    5000001    1    1    2    0    0 -0.17665896111E+02  0.15777474383E+03  0.46710021894E+03  0.50942768693E+03  0.12700000000E+03 0.  0.
   -5000001    1    1    2    0    0  0.17665896111E+02 -0.15777474383E+03  0.48419824737E+03  0.52514940392E+03  0.12700000000E+03 0.  0.
<mgrwt>
<rscale>  0 0.40667061E+03</rscale>
<asrwt>0</asrwt>
<pdfrwt beam="1">  1        1 0.59484725E-02 0.40667061E+03</pdfrwt>
<pdfrwt beam="2">  1       -1 0.14184827E+00 0.40667061E+03</pdfrwt>
<totfact> 0.57212970E+02</totfact>
</mgrwt>
</event>
<event>
 4    1  0.6376580E-005  0.3428137E+03  0.7818608E-02  0.1065604E+00
         -1   -1    0    0    0  501 -0.00000000000E+00  0.00000000000E+00  0.53558772337E+03  0.53558772340E+03  0.50400000000E-02 0. -1.
          1   -1    0    0  501    0  0.00000000000E+00 -0.00000000000E+00 -0.54856210961E+02  0.54856211193E+02  0.50400000000E-02 0.  1.
    5000001    1    1    2    0    0  0.91012121997E+02 -0.59020780821E+02  0.17400166842E+03  0.24118921935E+03  0.12700000000E+03 0.  0.
   -5000001    1    1    2    0    0 -0.91012121997E+02  0.59020780821E+02  0.30672984400E+03  0.34925471524E+03  0.12700000000E+03 0.  0.
<mgrwt>
<rscale>  0 0.34281373E+03</rscale>
<asrwt>0</asrwt>
<pdfrwt beam="1">  1        1 0.78366024E-02 0.34281373E+03</pdfrwt>
<pdfrwt beam="2">  1       -1 0.76512524E-01 0.34281373E+03</pdfrwt>
<totfact> 0.16061711E+03</totfact>
</mgrwt>
</event>
<event>
 4    1  0.6376580E-005  0.2699978E+03  0.7818608E-02  0.1101281E+00
         -1   -1    0    0    0  501 -0.00000000000E+00  0.00000000000E+00  0.35314765115E+03  0.35314765118E+03  0.50400000000E-02 0. -1.
          1   -1    0    0  501    0  0.00000000000E+00 -0.00000000000E+00 -0.51606475133E+02  0.51606475379E+02  0.50400000000E-02 0.  1.
    5000001    1    1    2    0    0  0.43281711187E+02  0.11966820383E+02  0.16411126210E+03  0.21231584412E+03  0.12700000000E+03 0.  0.
   -5000001    1    1    2    0    0 -0.43281711187E+02 -0.11966820383E+02  0.13742991391E+03  0.19243828245E+03  0.12700000000E+03 0.  0.
<mgrwt>
<rscale>  0 0.26999782E+03</rscale>
<asrwt>0</asrwt>
<pdfrwt beam="1">  1        1 0.73723534E-02 0.26999782E+03</pdfrwt>
<pdfrwt beam="2">  1       -1 0.50449666E-01 0.26999782E+03</pdfrwt>
<totfact> 0.39097592E+03</totfact>
</mgrwt>
</event>
<event>
 4    1  0.6376580E-005  0.8639269E+03  0.7818608E-02  0.9471833E-01
         -1   -1    0    0    0  501 -0.00000000000E+00  0.00000000000E+00  0.37898987333E+03  0.37898987336E+03  0.50400000000E-02 0. -1.
          1   -1    0    0  501    0  0.00000000000E+00 -0.00000000000E+00 -0.49234145014E+03  0.49234145017E+03  0.50400000000E-02 0.  1.
    5000001    1    1    2    0    0 -0.47185427946E+02  0.15350141732E+03  0.32694486791E+03  0.38576041319E+03  0.12700000000E+03 0.  0.
   -5000001    1    1    2    0    0  0.47185427946E+02 -0.15350141732E+03 -0.44029644473E+03  0.48557091034E+03  0.12700000000E+03 0.  0.
<mgrwt>
<rscale>  0 0.86392690E+03</rscale>
<asrwt>0</asrwt>
<pdfrwt beam="1">  1        1 0.70334493E-01 0.86392690E+03</pdfrwt>
<pdfrwt beam="2">  1       -1 0.54141411E-01 0.86392690E+03</pdfrwt>
<totfact> 0.17415401E+02</totfact>
</mgrwt>
</event>
<event>
 4    1  0.6376580E-005  0.3106937E+03  0.7818608E-02  0.1080014E+00
         -1   -1    0    0    0  501 -0.00000000000E+00  0.00000000000E+00  0.61541372514E+02  0.61541372721E+02  0.50400000000E-02 0. -1.
          1   -1    0    0  501    0  0.00000000000E+00 -0.00000000000E+00 -0.39213682814E+03  0.39213682818E+03  0.50400000000E-02 0.  1.
    5000001    1    1    2    0    0 -0.57247746643E+02 -0.59477036388E+02 -0.11495080983E+03  0.19015128460E+03  0.12700000000E+03 0.  0.
   -5000001    1    1    2    0    0  0.57247746643E+02  0.59477036388E+02 -0.21564464580E+03  0.26352691630E+03  0.12700000000E+03 0.  0.
<mgrwt>
<rscale>  0 0.31069367E+03</rscale>
<asrwt>0</asrwt>
<pdfrwt beam="1">  1        1 0.56019545E-01 0.31069367E+03</pdfrwt>
<pdfrwt beam="2">  1       -1 0.87916249E-02 0.31069367E+03</pdfrwt>
<totfact> 0.50879623E+03</totfact>
</mgrwt>
</event>
<event>
 4    1  0.6376580E-005  0.4430797E+03  0.7818608E-02  0.1029806E+00
          1   -1    0    0  501    0  0.00000000000E+00  0.00000000000E+00  0.38416223377E+03  0.38416223380E+03  0.50400000000E-02 0.  1.
         -1   -1    0    0    0  501 -0.00000000000E+00 -0.00000000000E+00 -0.12775826785E+03  0.12775826795E+03  0.50400000000E-02 0. -1.
    5000001    1    1    2    0    0  0.51130928701E+02 -0.17188791611E+03  0.95706032302E+02  0.23968410918E+03  0.12700000000E+03 0.  0.
   -5000001    1    1    2    0    0 -0.51130928701E+02  0.17188791611E+03  0.16069793361E+03  0.27223639257E+03  0.12700000000E+03 0.  0.
<mgrwt>
<rscale>  0 0.44307968E+03</rscale>
<asrwt>0</asrwt>
<pdfrwt beam="1">  1        1 0.54880320E-01 0.44307968E+03</pdfrwt>
<pdfrwt beam="2">  1       -1 0.18251181E-01 0.44307968E+03</pdfrwt>
<totfact> 0.16538723E+03</totfact>
</mgrwt>
</event>
<event>
 4    1  0.6376580E-005  0.6256745E+03  0.7818608E-02  0.9853526E-01
         -1   -1    0    0    0  501 -0.00000000000E+00  0.00000000000E+00  0.38223896280E+02  0.38223896612E+02  0.50400000000E-02 0. -1.
          1   -1    0    0  501    0  0.00000000000E+00 -0.00000000000E+00 -0.25603655050E+04  0.25603655050E+04  0.50400000000E-02 0.  1.
    5000001    1    1    2    0    0  0.35607071647E+02  0.24160578712E+03 -0.64368713683E+03  0.70007381757E+03  0.12700000000E+03 0.  0.
   -5000001    1    1    2    0    0 -0.35607071647E+02 -0.24160578712E+03 -0.18784544719E+04  0.18985155841E+04  0.12700000000E+03 0.  0.
<mgrwt>
<rscale>  0 0.62567450E+03</rscale>
<asrwt>0</asrwt>
<pdfrwt beam="1">  1        1 0.36576639E+00 0.62567450E+03</pdfrwt>
<pdfrwt beam="2">  1       -1 0.54605583E-02 0.62567450E+03</pdfrwt>
<totfact> 0.28062491E+02</totfact>
</mgrwt>
</event>
<event>
 4    1  0.6376580E-005  0.3483425E+03  0.7818608E-02  0.1063297E+00
         -1   -1    0    0    0  501 -0.00000000000E+00  0.00000000000E+00  0.12339390352E+03  0.12339390363E+03  0.50400000000E-02 0. -1.
          1   -1    0    0  501    0  0.00000000000E+00 -0.00000000000E+00 -0.24584379361E+03  0.24584379366E+03  0.50400000000E-02 0.  1.
    5000001    1    1    2    0    0  0.91824207296E+02 -0.48843020168E+02 -0.12293480338E+03  0.20508362087E+03  0.12700000000E+03 0.  0.
   -5000001    1    1    2    0    0 -0.91824207296E+02  0.48843020168E+02  0.48491329777E+00  0.16415407642E+03  0.12700000000E+03 0.  0.
<mgrwt>
<rscale>  0 0.34834251E+03</rscale>
<asrwt>0</asrwt>
<pdfrwt beam="1">  1        1 0.35120542E-01 0.34834251E+03</pdfrwt>
<pdfrwt beam="2">  1       -1 0.17627701E-01 0.34834251E+03</pdfrwt>
<totfact> 0.30806386E+03</totfact>
</mgrwt>
</event>
<event>
 4    1  0.6376580E-005  0.2956964E+03  0.7818608E-02  0.1087412E+00
          1   -1    0    0  501    0  0.00000000000E+00  0.00000000000E+00  0.21876785702E+03  0.21876785708E+03  0.50400000000E-02 0. -1.
         -1   -1    0    0    0  501 -0.00000000000E+00 -0.00000000000E+00 -0.99919105255E+02  0.99919105382E+02  0.50400000000E-02 0.  1.
    5000001    1    1    2    0    0 -0.29799446419E+02 -0.51000101841E+02  0.84037125868E+01  0.14031621353E+03  0.12700000000E+03 0.  0.
   -5000001    1    1    2    0    0  0.29799446419E+02  0.51000101841E+02  0.11044503918E+03  0.17837074893E+03  0.12700000000E+03 0.  0.
<mgrwt>
<rscale>  0 0.29569639E+03</rscale>
<asrwt>0</asrwt>
<pdfrwt beam="1">  1        1 0.31252550E-01 0.29569639E+03</pdfrwt>
<pdfrwt beam="2">  1       -1 0.14274158E-01 0.29569639E+03</pdfrwt>
<totfact> 0.49839526E+03</totfact>
</mgrwt>
</event>
<event>
 4    1  0.6376580E-005  0.4154899E+03  0.7818608E-02  0.1038544E+00
         -1   -1    0    0    0  501 -0.00000000000E+00  0.00000000000E+00  0.66053117932E+02  0.66053118124E+02  0.50400000000E-02 0. -1.
          1   -1    0    0  501    0  0.00000000000E+00 -0.00000000000E+00 -0.65338259692E+03  0.65338259693E+03  0.50400000000E-02 0.  1.
    5000001    1    1    2    0    0  0.87928205715E+02  0.13212211213E+03 -0.21936315610E+03  0.29905988719E+03  0.12700000000E+03 0.  0.
   -5000001    1    1    2    0    0 -0.87928205715E+02 -0.13212211213E+03 -0.36796632289E+03  0.42037582786E+03  0.12700000000E+03 0.  0.
<mgrwt>
<rscale>  0 0.41548987E+03</rscale>
<asrwt>0</asrwt>
<pdfrwt beam="1">  1        1 0.93340367E-01 0.41548987E+03</pdfrwt>
<pdfrwt beam="2">  1       -1 0.94361601E-02 0.41548987E+03</pdfrwt>
<totfact> 0.23207541E+03</totfact>
</mgrwt>
</event>
<event>
 4    1  0.6376580E-005  0.7734652E+03  0.7818608E-02  0.9599240E-01
          1   -1    0    0  501    0  0.00000000000E+00  0.00000000000E+00  0.10617249955E+04  0.10617249955E+04  0.50400000000E-02 0. -1.
         -1   -1    0    0    0  501 -0.00000000000E+00 -0.00000000000E+00 -0.14086709871E+03  0.14086709880E+03  0.50400000000E-02 0.  1.
    5000001    1    1    2    0    0  0.15027692343E+03 -0.25771371376E+03  0.78817187814E+03  0.85225783744E+03  0.12700000000E+03 0.  0.
   -5000001    1    1    2    0    0 -0.15027692343E+03  0.25771371376E+03  0.13268601859E+03  0.35033425683E+03  0.12700000000E+03 0.  0.
<mgrwt>
<rscale>  0 0.77346524E+03</rscale>
<asrwt>0</asrwt>
<pdfrwt beam="1">  1        1 0.15167501E+00 0.77346524E+03</pdfrwt>
<pdfrwt beam="2">  1       -1 0.20123870E-01 0.77346524E+03</pdfrwt>
<totfact> 0.31705645E+02</totfact>
</mgrwt>
</event>
<event>
 4    1  0.6376580E-005  0.4522607E+03  0.7818608E-02  0.1027050E+00
          1   -1    0    0  501    0  0.00000000000E+00  0.00000000000E+00  0.97662252208E+03  0.97662252209E+03  0.50400000000E-02 0. -1.
         -1   -1    0    0    0  501 -0.00000000000E+00 -0.00000000000E+00 -0.52358949846E+02  0.52358950088E+02  0.50400000000E-02 0.  1.
    5000001    1    1    2    0    0  0.13349334000E+03 -0.32986806725E+02  0.17346578814E+03  0.25520184345E+03  0.12700000000E+03 0.  0.
   -5000001    1    1    2    0    0 -0.13349334000E+03  0.32986806725E+02  0.75079778409E+03  0.77377962873E+03  0.12700000000E+03 0.  0.
<mgrwt>
<rscale>  0 0.45226068E+03</rscale>
<asrwt>0</asrwt>
<pdfrwt beam="1">  1        1 0.13951751E+00 0.45226068E+03</pdfrwt>
<pdfrwt beam="2">  1       -1 0.74798495E-02 0.45226068E+03</pdfrwt>
<totfact> 0.18025017E+03</totfact>
</mgrwt>
</event>
<event>
 4    1  0.6376580E-005  0.3558962E+03  0.7818608E-02  0.1060221E+00
         -1   -1    0    0    0  501 -0.00000000000E+00  0.00000000000E+00  0.47969430908E+02  0.47969431173E+02  0.50400000000E-02 0. -1.
          1   -1    0    0  501    0  0.00000000000E+00 -0.00000000000E+00 -0.66011884528E+03  0.66011884530E+03  0.50400000000E-02 0.  1.
    5000001    1    1    2    0    0 -0.10552579342E+03  0.51125168787E+02 -0.39018174695E+03  0.42675551738E+03  0.12700000000E+03 0.  0.
   -5000001    1    1    2    0    0  0.10552579342E+03 -0.51125168787E+02 -0.22196766743E+03  0.28133275910E+03  0.12700000000E+03 0.  0.
<mgrwt>
<rscale>  0 0.35589620E+03</rscale>
<asrwt>0</asrwt>
<pdfrwt beam="1">  1        1 0.94302687E-01 0.35589620E+03</pdfrwt>
<pdfrwt beam="2">  1       -1 0.68527763E-02 0.35589620E+03</pdfrwt>
<totfact> 0.37398311E+03</totfact>
</mgrwt>
</event>
<event>
 4    1  0.6376580E-005  0.4173517E+03  0.7818608E-02  0.1037932E+00
          1   -1    0    0  501    0  0.00000000000E+00  0.00000000000E+00  0.66194930855E+03  0.66194930857E+03  0.50400000000E-02 0.  1.
         -1   -1    0    0    0  501 -0.00000000000E+00 -0.00000000000E+00 -0.65783917429E+02  0.65783917622E+02  0.50400000000E-02 0. -1.
    5000001    1    1    2    0    0 -0.87863540457E+02  0.11238201550E+03  0.44466597564E+03  0.48394891160E+03  0.12700000000E+03 0.  0.
   -5000001    1    1    2    0    0  0.87863540457E+02 -0.11238201550E+03  0.15149941548E+03  0.24378431459E+03  0.12700000000E+03 0.  0.
<mgrwt>
<rscale>  0 0.41735174E+03</rscale>
<asrwt>0</asrwt>
<pdfrwt beam="1">  1        1 0.94564191E-01 0.41735174E+03</pdfrwt>
<pdfrwt beam="2">  1       -1 0.93977021E-02 0.41735174E+03</pdfrwt>
<totfact> 0.22928852E+03</totfact>
</mgrwt>
</event>
<event>
 4    1  0.6376580E-005  0.4411680E+03  0.7818608E-02  0.1030389E+00
          1   -1    0    0  501    0  0.00000000000E+00  0.00000000000E+00  0.21429244181E+04  0.21429244181E+04  0.50400000000E-02 0.  1.
         -1   -1    0    0    0  501 -0.00000000000E+00 -0.00000000000E+00 -0.22706031084E+02  0.22706031644E+02  0.50400000000E-02 0. -1.
    5000001    1    1    2    0    0  0.12401770161E+02 -0.15487893569E+03  0.61055281848E+03  0.64268579631E+03  0.12700000000E+03 0.  0.
   -5000001    1    1    2    0    0 -0.12401770161E+02  0.15487893569E+03  0.15096655685E+04  0.15229446535E+04  0.12700000000E+03 0.  0.
<mgrwt>
<rscale>  0 0.44116804E+03</rscale>
<asrwt>0</asrwt>
<pdfrwt beam="1">  1        1 0.30613202E+00 0.44116804E+03</pdfrwt>
<pdfrwt beam="2">  1       -1 0.32437192E-02 0.44116804E+03</pdfrwt>
<totfact> 0.11368230E+03</totfact>
</mgrwt>
</event>
<event>
 4    1  0.6376580E-005  0.4577278E+03  0.7818608E-02  0.1025442E+00
         -1   -1    0    0    0  501 -0.00000000000E+00  0.00000000000E+00  0.16291107896E+03  0.16291107904E+03  0.50400000000E-02 0. -1.
          1   -1    0    0  501    0  0.00000000000E+00 -0.00000000000E+00 -0.32151700401E+03  0.32151700405E+03  0.50400000000E-02 0.  1.
    5000001    1    1    2    0    0  0.92315750125E+02 -0.13457980574E+03 -0.18308300536E+03  0.27619252106E+03  0.12700000000E+03 0.  0.
   -5000001    1    1    2    0    0 -0.92315750125E+02  0.13457980574E+03  0.24477080313E+02  0.20823556204E+03  0.12700000000E+03 0.  0.
<mgrwt>
<rscale>  0 0.45772779E+03</rscale>
<asrwt>0</asrwt>
<pdfrwt beam="1">  1        1 0.45931000E-01 0.45772779E+03</pdfrwt>
<pdfrwt beam="2">  1       -1 0.23273011E-01 0.45772779E+03</pdfrwt>
<totfact> 0.13912653E+03</totfact>
</mgrwt>
</event>
<event>
 4    1  0.6376580E-005  0.4411992E+03  0.7818608E-02  0.1030379E+00
          1   -1    0    0  501    0  0.00000000000E+00  0.00000000000E+00  0.35357762386E+03  0.35357762389E+03  0.50400000000E-02 0.  1.
         -1   -1    0    0    0  501 -0.00000000000E+00 -0.00000000000E+00 -0.13763368999E+03  0.13763369008E+03  0.50400000000E-02 0. -1.
    5000001    1    1    2    0    0  0.98730424746E+02 -0.35600198974E+02 -0.55354274677E+02  0.17380496731E+03  0.12700000000E+03 0.  0.
   -5000001    1    1    2    0    0 -0.98730424746E+02  0.35600198974E+02  0.27129820855E+03  0.31740634666E+03  0.12700000000E+03 0.  0.
<mgrwt>
<rscale>  0 0.44119924E+03</rscale>
<asrwt>0</asrwt>
<pdfrwt beam="1">  1        1 0.50511089E-01 0.44119924E+03</pdfrwt>
<pdfrwt beam="2">  1       -1 0.19661956E-01 0.44119924E+03</pdfrwt>
<totfact> 0.16288619E+03</totfact>
</mgrwt>
</event>
<event>
 4    1  0.6376580E-005  0.3432211E+03  0.7818608E-02  0.1065432E+00
          1   -1    0    0  501    0  0.00000000000E+00  0.00000000000E+00  0.20269094416E+03  0.20269094422E+03  0.50400000000E-02 0. -1.
         -1   -1    0    0    0  501 -0.00000000000E+00 -0.00000000000E+00 -0.14529602818E+03  0.14529602826E+03  0.50400000000E-02 0.  1.
    5000001    1    1    2    0    0  0.86816129783E+02 -0.67556462288E+02 -0.67200073397E+01  0.16815193869E+03  0.12700000000E+03 0.  0.
   -5000001    1    1    2    0    0 -0.86816129783E+02  0.67556462288E+02  0.64114923321E+02  0.17983503379E+03  0.12700000000E+03 0.  0.
<mgrwt>
<rscale>  0 0.34322115E+03</rscale>
<asrwt>0</asrwt>
<pdfrwt beam="1">  1        1 0.28955849E-01 0.34322115E+03</pdfrwt>
<pdfrwt beam="2">  1       -1 0.20756576E-01 0.34322115E+03</pdfrwt>
<totfact> 0.30149297E+03</totfact>
</mgrwt>
</event>
<event>
 4    1  0.6376580E-005  0.5529726E+03  0.7818608E-02  0.1000808E+00
          1   -1    0    0  501    0  0.00000000000E+00  0.00000000000E+00  0.30965062356E+04  0.30965062356E+04  0.50400000000E-02 0.  1.
         -1   -1    0    0    0  501 -0.00000000000E+00 -0.00000000000E+00 -0.24687398811E+02  0.24687399325E+02  0.50400000000E-02 0. -1.
    5000001    1    1    2    0    0  0.18623163879E+03  0.53830540960E+02  0.23869917321E+04  0.23982156866E+04  0.12700000000E+03 0.  0.
   -5000001    1    1    2    0    0 -0.18623163879E+03 -0.53830540960E+02  0.68482710466E+03  0.72297794829E+03  0.12700000000E+03 0.  0.
<mgrwt>
<rscale>  0 0.55297264E+03</rscale>
<asrwt>0</asrwt>
<pdfrwt beam="1">  1        1 0.44235804E+00 0.55297264E+03</pdfrwt>
<pdfrwt beam="2">  1       -1 0.35267712E-02 0.55297264E+03</pdfrwt>
<totfact> 0.25044602E+02</totfact>
</mgrwt>
</event>
<event>
 4    1  0.6376580E-005  0.2784129E+03  0.7818608E-02  0.1096559E+00
         -1   -1    0    0    0  501 -0.00000000000E+00  0.00000000000E+00  0.40917996674E+02  0.40917996985E+02  0.50400000000E-02 0. -1.
          1   -1    0    0  501    0  0.00000000000E+00 -0.00000000000E+00 -0.47359209169E+03  0.47359209172E+03  0.50400000000E-02 0.  1.
    5000001    1    1    2    0    0  0.48337842485E+02  0.22858431267E+02 -0.25285033688E+03  0.28796067050E+03  0.12700000000E+03 0.  0.
   -5000001    1    1    2    0    0 -0.48337842485E+02 -0.22858431267E+02 -0.17982375814E+03  0.22654941820E+03  0.12700000000E+03 0.  0.
<mgrwt>
<rscale>  0 0.27841293E+03</rscale>
<asrwt>0</asrwt>
<pdfrwt beam="1">  1        1 0.67656010E-01 0.27841293E+03</pdfrwt>
<pdfrwt beam="2">  1       -1 0.58454284E-02 0.27841293E+03</pdfrwt>
<totfact> 0.74051032E+03</totfact>
</mgrwt>
</event>
<event>
 4    1  0.6376580E-005  0.5055127E+03  0.7818608E-02  0.1012350E+00
         -1   -1    0    0    0  501 -0.00000000000E+00  0.00000000000E+00  0.48698920320E+02  0.48698920581E+02  0.50400000000E-02 0.  1.
          1   -1    0    0  501    0  0.00000000000E+00 -0.00000000000E+00 -0.13118520155E+04  0.13118520156E+04  0.50400000000E-02 0. -1.
    5000001    1    1    2    0    0 -0.16871532192E+03  0.13705950533E+03 -0.69215514530E+03  0.73651742208E+03  0.12700000000E+03 0.  0.
   -5000001    1    1    2    0    0  0.16871532192E+03 -0.13705950533E+03 -0.57099794993E+03  0.62403351406E+03  0.12700000000E+03 0.  0.
<mgrwt>
<rscale>  0 0.50551272E+03</rscale>
<asrwt>0</asrwt>
<pdfrwt beam="1">  1        1 0.18740741E+00 0.50551272E+03</pdfrwt>
<pdfrwt beam="2">  1       -1 0.69569895E-02 0.50551272E+03</pdfrwt>
<totfact> 0.11774658E+03</totfact>
</mgrwt>
</event>
<event>
 4    1  0.6376580E-005  0.7865505E+03  0.7818608E-02  0.9579691E-01
         -1   -1    0    0    0  501 -0.00000000000E+00  0.00000000000E+00  0.54980177055E+03  0.54980177058E+03  0.50400000000E-02 0. -1.
          1   -1    0    0  501    0  0.00000000000E+00 -0.00000000000E+00 -0.28131126609E+03  0.28131126613E+03  0.50400000000E-02 0.  1.
    5000001    1    1    2    0    0  0.29551765435E+03 -0.32680701278E+02  0.37084580735E+03  0.49199016768E+03  0.12700000000E+03 0.  0.
   -5000001    1    1    2    0    0 -0.29551765435E+03  0.32680701278E+02 -0.10235530289E+03  0.33912286903E+03  0.12700000000E+03 0.  0.
<mgrwt>
<rscale>  0 0.78655053E+03</rscale>
<asrwt>0</asrwt>
<pdfrwt beam="1">  1        1 0.40187324E-01 0.78655053E+03</pdfrwt>
<pdfrwt beam="2">  1       -1 0.78543110E-01 0.78655053E+03</pdfrwt>
<totfact> 0.17236842E+02</totfact>
</mgrwt>
</event>
<event>
 4    1  0.6376580E-005  0.2722550E+03  0.7818608E-02  0.1099996E+00
          1   -1    0    0  501    0  0.00000000000E+00  0.00000000000E+00  0.63393180287E+03  0.63393180289E+03  0.50400000000E-02 0. -1.
         -1   -1    0    0    0  501 -0.00000000000E+00 -0.00000000000E+00 -0.29231364002E+02  0.29231364437E+02  0.50400000000E-02 0.  1.
    5000001    1    1    2    0    0  0.22489890664E+02  0.30597512999E+02  0.22689144921E+03  0.26277506105E+03  0.12700000000E+03 0.  0.
   -5000001    1    1    2    0    0 -0.22489890664E+02 -0.30597512999E+02  0.37780898965E+03  0.40038810628E+03  0.12700000000E+03 0.  0.
<mgrwt>
<rscale>  0 0.27225496E+03</rscale>
<asrwt>0</asrwt>
<pdfrwt beam="1">  1        1 0.90561687E-01 0.27225496E+03</pdfrwt>
<pdfrwt beam="2">  1       -1 0.41759091E-02 0.27225496E+03</pdfrwt>
<totfact> 0.82941291E+03</totfact>
</mgrwt>
</event>
<event>
 4    1  0.6376580E-005  0.3992559E+03  0.7818608E-02  0.1044038E+00
          1   -1    0    0  501    0  0.00000000000E+00  0.00000000000E+00  0.16350117932E+03  0.16350117939E+03  0.50400000000E-02 0.  1.
         -1   -1    0    0    0  501 -0.00000000000E+00 -0.00000000000E+00 -0.24373722015E+03  0.24373722021E+03  0.50400000000E-02 0. -1.
    5000001    1    1    2    0    0 -0.13065726510E+03  0.37323778227E+02 -0.11407941124E+03  0.21819142379E+03  0.12700000000E+03 0.  0.
   -5000001    1    1    2    0    0  0.13065726510E+03 -0.37323778227E+02  0.33843370408E+02  0.18904697581E+03  0.12700000000E+03 0.  0.
<mgrwt>
<rscale>  0 0.39925592E+03</rscale>
<asrwt>0</asrwt>
<pdfrwt beam="1">  1        1 0.23357311E-01 0.39925592E+03</pdfrwt>
<pdfrwt beam="2">  1       -1 0.34819603E-01 0.39925592E+03</pdfrwt>
<totfact> 0.16575540E+03</totfact>
</mgrwt>
</event>
<event>
 4    1  0.6376580E-005  0.2589791E+03  0.7818608E-02  0.1107758E+00
          1   -1    0    0  501    0  0.00000000000E+00  0.00000000000E+00  0.41288326751E+03  0.41288326754E+03  0.50400000000E-02 0. -1.
         -1   -1    0    0    0  501 -0.00000000000E+00 -0.00000000000E+00 -0.40610858680E+02  0.40610858993E+02  0.50400000000E-02 0.  1.
    5000001    1    1    2    0    0  0.56805007879E+01 -0.13370621562E+02  0.22234184782E+03  0.25646820252E+03  0.12700000000E+03 0.  0.
   -5000001    1    1    2    0    0 -0.56805007879E+01  0.13370621562E+02  0.14993056101E+03  0.19702592402E+03  0.12700000000E+03 0.  0.
<mgrwt>
<rscale>  0 0.25897910E+03</rscale>
<asrwt>0</asrwt>
<pdfrwt beam="1">  1        1 0.58983322E-01 0.25897910E+03</pdfrwt>
<pdfrwt beam="2">  1       -1 0.58015514E-02 0.25897910E+03</pdfrwt>
<totfact> 0.89100690E+03</totfact>
</mgrwt>
</event>
<event>
 4    1  0.6376580E-005  0.4096657E+03  0.7818608E-02  0.1040483E+00
         -1   -1    0    0    0  501 -0.00000000000E+00  0.00000000000E+00  0.20629817344E+03  0.20629817350E+03  0.50400000000E-02 0. -1.
          1   -1    0    0  501    0  0.00000000000E+00 -0.00000000000E+00 -0.20337796594E+03  0.20337796600E+03  0.50400000000E-02 0.  1.
    5000001    1    1    2    0    0  0.15992468334E+03  0.12098936553E+02 -0.87975594556E+01  0.20476495223E+03  0.12700000000E+03 0.  0.
   -5000001    1    1    2    0    0 -0.15992468334E+03 -0.12098936553E+02  0.11717766953E+02  0.20491118727E+03  0.12700000000E+03 0.  0.
<mgrwt>
<rscale>  0 0.40966573E+03</rscale>
<asrwt>0</asrwt>
<pdfrwt beam="1">  1        1 0.29053995E-01 0.40966573E+03</pdfrwt>
<pdfrwt beam="2">  1       -1 0.29471168E-01 0.40966573E+03</pdfrwt>
<totfact> 0.16722524E+03</totfact>
</mgrwt>
</event>
<event>
 4    1  0.6376580E-005  0.4888876E+03  0.7818608E-02  0.1016721E+00
         -1   -1    0    0    0  501 -0.00000000000E+00  0.00000000000E+00  0.18483831315E+02  0.18483832002E+02  0.50400000000E-02 0.  1.
          1   -1    0    0  501    0  0.00000000000E+00 -0.00000000000E+00 -0.32327053657E+04  0.32327053657E+04  0.50400000000E-02 0. -1.
    5000001    1    1    2    0    0  0.17959353251E+03 -0.10282335378E+03 -0.14193327168E+04  0.14399516797E+04  0.12700000000E+03 0.  0.
   -5000001    1    1    2    0    0 -0.17959353251E+03  0.10282335378E+03 -0.17948888177E+04  0.18112375180E+04  0.12700000000E+03 0.  0.
<mgrwt>
<rscale>  0 0.48888764E+03</rscale>
<asrwt>0</asrwt>
<pdfrwt beam="1">  1        1 0.46181469E+00 0.48888764E+03</pdfrwt>
<pdfrwt beam="2">  1       -1 0.26405494E-02 0.48888764E+03</pdfrwt>
<totfact> 0.31732350E+02</totfact>
</mgrwt>
</event>
<event>
 4    1  0.6376580E-005  0.5817492E+03  0.7818608E-02  0.9944011E-01
          1   -1    0    0  501    0  0.00000000000E+00  0.00000000000E+00  0.89005772814E+03  0.89005772815E+03  0.50400000000E-02 0.  1.
         -1   -1    0    0    0  501 -0.00000000000E+00 -0.00000000000E+00 -0.95059045241E+02  0.95059045375E+02  0.50400000000E-02 0. -1.
    5000001    1    1    2    0    0  0.19420911445E+03 -0.24539008806E+02  0.10341941729E+03  0.25523306793E+03  0.12700000000E+03 0.  0.
   -5000001    1    1    2    0    0 -0.19420911445E+03  0.24539008806E+02  0.69157926560E+03  0.72988370560E+03  0.12700000000E+03 0.  0.
<mgrwt>
<rscale>  0 0.58174922E+03</rscale>
<asrwt>0</asrwt>
<pdfrwt beam="1">  1        1 0.12715110E+00 0.58174922E+03</pdfrwt>
<pdfrwt beam="2">  1       -1 0.13579864E-01 0.58174922E+03</pdfrwt>
<totfact> 0.81876693E+02</totfact>
</mgrwt>
</event>
<event>
 4    1  0.6376580E-005  0.4487098E+03  0.7818608E-02  0.1028107E+00
          1   -1    0    0  501    0  0.00000000000E+00  0.00000000000E+00  0.25376128702E+04  0.25376128702E+04  0.50400000000E-02 0.  1.
         -1   -1    0    0    0  501 -0.00000000000E+00 -0.00000000000E+00 -0.19835615438E+02  0.19835616078E+02  0.50400000000E-02 0. -1.
    5000001    1    1    2    0    0  0.17167515190E+03 -0.42689059967E+02  0.95135520091E+03  0.97596128608E+03  0.12700000000E+03 0.  0.
   -5000001    1    1    2    0    0 -0.17167515190E+03  0.42689059967E+02  0.15664220539E+04  0.15814872003E+04  0.12700000000E+03 0.  0.
<mgrwt>
<rscale>  0 0.44870977E+03</rscale>
<asrwt>0</asrwt>
<pdfrwt beam="1">  1        1 0.36251618E+00 0.44870977E+03</pdfrwt>
<pdfrwt beam="2">  1       -1 0.28336589E-02 0.44870977E+03</pdfrwt>
<totfact> 0.79543330E+02</totfact>
</mgrwt>
</event>
<event>
 4    1  0.6376580E-005  0.3583268E+03  0.7818608E-02  0.1059248E+00
         -1   -1    0    0    0  501 -0.00000000000E+00  0.00000000000E+00  0.28988487107E+02  0.28988487545E+02  0.50400000000E-02 0. -1.
          1   -1    0    0  501    0  0.00000000000E+00 -0.00000000000E+00 -0.11073194260E+04  0.11073194260E+04  0.50400000000E-02 0.  1.
    5000001    1    1    2    0    0  0.12507566015E+02 -0.54108658604E+02 -0.89914798463E+03  0.90976935781E+03  0.12700000000E+03 0.  0.
   -5000001    1    1    2    0    0 -0.12507566015E+02  0.54108658604E+02 -0.17918295428E+03  0.22653855577E+03  0.12700000000E+03 0.  0.
<mgrwt>
<rscale>  0 0.35832675E+03</rscale>
<asrwt>0</asrwt>
<pdfrwt beam="1">  1        1 0.15818846E+00 0.35832675E+03</pdfrwt>
<pdfrwt beam="2">  1       -1 0.41412132E-02 0.35832675E+03</pdfrwt>
<totfact> 0.35698198E+03</totfact>
</mgrwt>
</event>
<event>
 4    1  0.6376580E-005  0.3128383E+03  0.7818608E-02  0.1078993E+00
          1   -1    0    0  501    0  0.00000000000E+00  0.00000000000E+00  0.43061161063E+03  0.43061161066E+03  0.50400000000E-02 0.  1.
         -1   -1    0    0    0  501 -0.00000000000E+00 -0.00000000000E+00 -0.56819061539E+02  0.56819061763E+02  0.50400000000E-02 0. -1.
    5000001    1    1    2    0    0  0.35300517552E+02 -0.51752640688E+02  0.83385917922E+02  0.16433707331E+03  0.12700000000E+03 0.  0.
   -5000001    1    1    2    0    0 -0.35300517552E+02  0.51752640688E+02  0.29040663117E+03  0.32309359911E+03  0.12700000000E+03 0.  0.
<mgrwt>
<rscale>  0 0.31283828E+03</rscale>
<asrwt>0</asrwt>
<pdfrwt beam="1">  1        1 0.61515943E-01 0.31283828E+03</pdfrwt>
<pdfrwt beam="2">  1       -1 0.81170091E-02 0.31283828E+03</pdfrwt>
<totfact> 0.51024376E+03</totfact>
</mgrwt>
</event>
<event>
 4    1  0.6376580E-005  0.3606973E+03  0.7818608E-02  0.1058308E+00
         -1   -1    0    0    0  501 -0.00000000000E+00  0.00000000000E+00  0.45778877458E+02  0.45778877735E+02  0.50400000000E-02 0. -1.
          1   -1    0    0  501    0  0.00000000000E+00 -0.00000000000E+00 -0.71049451176E+03  0.71049451178E+03  0.50400000000E-02 0.  1.
    5000001    1    1    2    0    0 -0.76010095811E+02 -0.78894808257E+02 -0.19336214103E+03  0.25596844145E+03  0.12700000000E+03 0.  0.
   -5000001    1    1    2    0    0  0.76010095811E+02  0.78894808257E+02 -0.47135349327E+03  0.50030494806E+03  0.12700000000E+03 0.  0.
<mgrwt>
<rscale>  0 0.36069733E+03</rscale>
<asrwt>0</asrwt>
<pdfrwt beam="1">  1        1 0.10149921E+00 0.36069733E+03</pdfrwt>
<pdfrwt beam="2">  1       -1 0.65398401E-02 0.36069733E+03</pdfrwt>
<totfact> 0.36168443E+03</totfact>
</mgrwt>
</event>
<event>
 4    1  0.6376580E-005  0.4061999E+03  0.7818608E-02  0.1041654E+00
          1   -1    0    0  501    0  0.00000000000E+00  0.00000000000E+00  0.17011442943E+03  0.17011442950E+03  0.50400000000E-02 0.  1.
         -1   -1    0    0    0  501 -0.00000000000E+00 -0.00000000000E+00 -0.24248141458E+03  0.24248141463E+03  0.50400000000E-02 0. -1.
    5000001    1    1    2    0    0  0.10101328165E+03 -0.97879755049E+01 -0.15984236070E+03  0.22798699044E+03  0.12700000000E+03 0.  0.
   -5000001    1    1    2    0    0 -0.10101328165E+03  0.97879755049E+01  0.87475375549E+02  0.18460885369E+03  0.12700000000E+03 0.  0.
<mgrwt>
<rscale>  0 0.40619989E+03</rscale>
<asrwt>0</asrwt>
<pdfrwt beam="1">  1        1 0.24302062E-01 0.40619989E+03</pdfrwt>
<pdfrwt beam="2">  1       -1 0.34640202E-01 0.40619989E+03</pdfrwt>
<totfact> 0.15894083E+03</totfact>
</mgrwt>
</event>
<event>
 4    1  0.6376580E-005  0.3228498E+03  0.7818608E-02  0.1074345E+00
         -1   -1    0    0    0  501 -0.00000000000E+00  0.00000000000E+00  0.24201208291E+02  0.24201208816E+02  0.50400000000E-02 0. -1.
          1   -1    0    0  501    0  0.00000000000E+00 -0.00000000000E+00 -0.10767231633E+04  0.10767231633E+04  0.50400000000E-02 0.  1.
    5000001    1    1    2    0    0  0.41903511936E+02  0.12523549098E+02 -0.22094974307E+03  0.25857403690E+03  0.12700000000E+03 0.  0.
   -5000001    1    1    2    0    0 -0.41903511936E+02 -0.12523549098E+02 -0.83157221193E+03  0.84235033522E+03  0.12700000000E+03 0.  0.
<mgrwt>
<rscale>  0 0.32284982E+03</rscale>
<asrwt>0</asrwt>
<pdfrwt beam="1">  1        1 0.15381757E+00 0.32284982E+03</pdfrwt>
<pdfrwt beam="2">  1       -1 0.34573162E-02 0.32284982E+03</pdfrwt>
<totfact> 0.49041748E+03</totfact>
</mgrwt>
</event>
<event>
 4    1  0.6376580E-005  0.3681876E+03  0.7818608E-02  0.1055388E+00
          1   -1    0    0  501    0  0.00000000000E+00  0.00000000000E+00  0.80645119817E+03  0.80645119819E+03  0.50400000000E-02 0.  1.
         -1   -1    0    0    0  501 -0.00000000000E+00 -0.00000000000E+00 -0.42024282072E+02  0.42024282374E+02  0.50400000000E-02 0. -1.
    5000001    1    1    2    0    0 -0.13132289717E+03  0.26724718608E+01  0.33023833015E+03  0.37741118177E+03  0.12700000000E+03 0.  0.
   -5000001    1    1    2    0    0  0.13132289717E+03 -0.26724718608E+01  0.43418858595E+03  0.47106429879E+03  0.12700000000E+03 0.  0.
<mgrwt>
<rscale>  0 0.36818763E+03</rscale>
<asrwt>0</asrwt>
<pdfrwt beam="1">  1        1 0.11520731E+00 0.36818763E+03</pdfrwt>
<pdfrwt beam="2">  1       -1 0.60034691E-02 0.36818763E+03</pdfrwt>
<totfact> 0.34176181E+03</totfact>
</mgrwt>
</event>
<event>
 4    1  0.6376580E-005  0.3435987E+03  0.7818608E-02  0.1065273E+00
          1   -1    0    0  501    0  0.00000000000E+00  0.00000000000E+00  0.38106169687E+02  0.38106170020E+02  0.50400000000E-02 0. -1.
         -1   -1    0    0    0  501 -0.00000000000E+00 -0.00000000000E+00 -0.77454675767E+03  0.77454675768E+03  0.50400000000E-02 0.  1.
    5000001    1    1    2    0    0  0.10664550362E+03  0.23936590458E+02 -0.27847685873E+03  0.32499936100E+03  0.12700000000E+03 0.  0.
   -5000001    1    1    2    0    0 -0.10664550362E+03 -0.23936590458E+02 -0.45796372925E+03  0.48765356670E+03  0.12700000000E+03 0.  0.
<mgrwt>
<rscale>  0 0.34359866E+03</rscale>
<asrwt>0</asrwt>
<pdfrwt beam="1">  1        1 0.54437390E-02 0.34359866E+03</pdfrwt>
<pdfrwt beam="2">  1       -1 0.11064953E+00 0.34359866E+03</pdfrwt>
<totfact> 0.11878351E+03</totfact>
</mgrwt>
</event>
<event>
 4    1  0.6376580E-005  0.2854145E+03  0.7818608E-02  0.1092768E+00
          1   -1    0    0  501    0  0.00000000000E+00  0.00000000000E+00  0.15882031367E+03  0.15882031375E+03  0.50400000000E-02 0. -1.
         -1   -1    0    0    0  501 -0.00000000000E+00 -0.00000000000E+00 -0.12822894390E+03  0.12822894400E+03  0.50400000000E-02 0.  1.
    5000001    1    1    2    0    0  0.45947243204E+02  0.46085850792E+02  0.16445173109E+02  0.14364713196E+03  0.12700000000E+03 0.  0.
   -5000001    1    1    2    0    0 -0.45947243204E+02 -0.46085850792E+02  0.14146196657E+02  0.14340212579E+03  0.12700000000E+03 0.  0.
<mgrwt>
<rscale>  0 0.28541451E+03</rscale>
<asrwt>0</asrwt>
<pdfrwt beam="1">  1        1 0.22688616E-01 0.28541451E+03</pdfrwt>
<pdfrwt beam="2">  1       -1 0.18318421E-01 0.28541451E+03</pdfrwt>
<totfact> 0.50201181E+03</totfact>
</mgrwt>
</event>
<event>
 4    1  0.6376580E-005  0.7301303E+03  0.7818608E-02  0.9667049E-01
          1   -1    0    0  501    0  0.00000000000E+00  0.00000000000E+00  0.90751162017E+03  0.90751162018E+03  0.50400000000E-02 0.  1.
         -1   -1    0    0    0  501 -0.00000000000E+00 -0.00000000000E+00 -0.14685495352E+03  0.14685495361E+03  0.50400000000E-02 0. -1.
    5000001    1    1    2    0    0  0.23050549807E+03 -0.47534209870E+02  0.73917941297E+03  0.78607091939E+03  0.12700000000E+03 0.  0.
   -5000001    1    1    2    0    0 -0.23050549807E+03  0.47534209870E+02  0.21477253678E+02  0.26829565440E+03  0.12700000000E+03 0.  0.
<mgrwt>
<rscale>  0 0.73013034E+03</rscale>
<asrwt>0</asrwt>
<pdfrwt beam="1">  1        1 0.12964452E+00 0.73013034E+03</pdfrwt>
<pdfrwt beam="2">  1       -1 0.20979279E-01 0.73013034E+03</pdfrwt>
<totfact> 0.38693120E+02</totfact>
</mgrwt>
</event>
<event>
 4    1  0.6376580E-005  0.3674984E+03  0.7818608E-02  0.1055654E+00
         -1   -1    0    0    0  501 -0.00000000000E+00  0.00000000000E+00  0.49697568495E+02  0.49697568750E+02  0.50400000000E-02 0. -1.
          1   -1    0    0  501    0  0.00000000000E+00 -0.00000000000E+00 -0.67938486564E+03  0.67938486566E+03  0.50400000000E-02 0.  1.
    5000001    1    1    2    0    0 -0.10588454303E+03 -0.75488607414E+02 -0.26143603547E+03  0.31841461484E+03  0.12700000000E+03 0.  0.
   -5000001    1    1    2    0    0  0.10588454303E+03  0.75488607414E+02 -0.36825126168E+03  0.41066781957E+03  0.12700000000E+03 0.  0.
<mgrwt>
<rscale>  0 0.36749844E+03</rscale>
<asrwt>0</asrwt>
<pdfrwt beam="1">  1        1 0.97054975E-01 0.36749844E+03</pdfrwt>
<pdfrwt beam="2">  1       -1 0.70996531E-02 0.36749844E+03</pdfrwt>
<totfact> 0.34027150E+03</totfact>
</mgrwt>
</event>
<event>
 4    1  0.6376580E-005  0.2951535E+03  0.7818608E-02  0.1087689E+00
          1   -1    0    0  501    0  0.00000000000E+00  0.00000000000E+00  0.52211320845E+03  0.52211320847E+03  0.50400000000E-02 0.  1.
         -1   -1    0    0    0  501 -0.00000000000E+00 -0.00000000000E+00 -0.41712987213E+02  0.41712987518E+02  0.50400000000E-02 0. -1.
    5000001    1    1    2    0    0  0.72581361070E+02  0.15908927803E+02  0.21852420940E+03  0.26344444965E+03  0.12700000000E+03 0.  0.
   -5000001    1    1    2    0    0 -0.72581361070E+02 -0.15908927803E+02  0.26187601183E+03  0.30038174634E+03  0.12700000000E+03 0.  0.
<mgrwt>
<rscale>  0 0.29515353E+03</rscale>
<asrwt>0</asrwt>
<pdfrwt beam="1">  1        1 0.74587597E-01 0.29515353E+03</pdfrwt>
<pdfrwt beam="2">  1       -1 0.59589985E-02 0.29515353E+03</pdfrwt>
<totfact> 0.63412467E+03</totfact>
</mgrwt>
</event>
<event>
 4    1  0.6376580E-005  0.7311570E+03  0.7818608E-02  0.9665385E-01
         -1   -1    0    0    0  501 -0.00000000000E+00  0.00000000000E+00  0.68974962177E+02  0.68974962361E+02  0.50400000000E-02 0. -1.
          1   -1    0    0  501    0  0.00000000000E+00 -0.00000000000E+00 -0.19376255500E+04  0.19376255500E+04  0.50400000000E-02 0.  1.
    5000001    1    1    2    0    0 -0.21486605521E+03 -0.65511374941E+02 -0.16450155734E+04  0.16651319463E+04  0.12700000000E+03 0.  0.
   -5000001    1    1    2    0    0  0.21486605521E+03  0.65511374941E+02 -0.22363501445E+03  0.34146856607E+03  0.12700000000E+03 0.  0.
<mgrwt>
<rscale>  0 0.73115703E+03</rscale>
<asrwt>0</asrwt>
<pdfrwt beam="1">  1        1 0.27680362E+00 0.73115703E+03</pdfrwt>
<pdfrwt beam="2">  1       -1 0.98535672E-02 0.73115703E+03</pdfrwt>
<totfact> 0.27027903E+02</totfact>
</mgrwt>
</event>
<event>
 4    1  0.6376580E-005  0.2813361E+03  0.7818608E-02  0.1094961E+00
          1   -1    0    0  501    0  0.00000000000E+00  0.00000000000E+00  0.10344060710E+04  0.10344060711E+04  0.50400000000E-02 0. -1.
         -1   -1    0    0    0  501 -0.00000000000E+00 -0.00000000000E+00 -0.19129338711E+02  0.19129339375E+02  0.50400000000E-02 0.  1.
    5000001    1    1    2    0    0 -0.58897190311E+02 -0.57502367329E+01  0.55449427000E+03  0.57192205738E+03  0.12700000000E+03 0.  0.
   -5000001    1    1    2    0    0  0.58897190311E+02  0.57502367329E+01  0.46078246233E+03  0.48161335305E+03  0.12700000000E+03 0.  0.
<mgrwt>
<rscale>  0 0.28133613E+03</rscale>
<asrwt>0</asrwt>
<pdfrwt beam="1">  1        1 0.14777229E+00 0.28133613E+03</pdfrwt>
<pdfrwt beam="2">  1       -1 0.27327627E-02 0.28133613E+03</pdfrwt>
<totfact> 0.74193269E+03</totfact>
</mgrwt>
</event>
<event>
 4    1  0.6376580E-005  0.4374329E+03  0.7818608E-02  0.1031537E+00
         -1   -1    0    0    0  501 -0.00000000000E+00  0.00000000000E+00  0.62557936810E+02  0.62557937013E+02  0.50400000000E-02 0. -1.
          1   -1    0    0  501    0  0.00000000000E+00 -0.00000000000E+00 -0.76468119083E+03  0.76468119084E+03  0.50400000000E-02 0.  1.
    5000001    1    1    2    0    0 -0.12137143113E+03 -0.11698887754E+03 -0.24258212080E+03  0.32154705269E+03  0.12700000000E+03 0.  0.
   -5000001    1    1    2    0    0  0.12137143113E+03  0.11698887754E+03 -0.45954113322E+03  0.50569207516E+03  0.12700000000E+03 0.  0.
<mgrwt>
<rscale>  0 0.43743286E+03</rscale>
<asrwt>0</asrwt>
<pdfrwt beam="1">  1        1 0.10924016E+00 0.43743286E+03</pdfrwt>
<pdfrwt beam="2">  1       -1 0.89368486E-02 0.43743286E+03</pdfrwt>
<totfact> 0.20102821E+03</totfact>
</mgrwt>
</event>
<event>
 4    1  0.6376580E-005  0.3478759E+03  0.7818608E-02  0.1063490E+00
         -1   -1    0    0    0  501 -0.00000000000E+00  0.00000000000E+00  0.43702661735E+02  0.43702662026E+02  0.50400000000E-02 0. -1.
          1   -1    0    0  501    0  0.00000000000E+00 -0.00000000000E+00 -0.69227824973E+03  0.69227824975E+03  0.50400000000E-02 0.  1.
    5000001    1    1    2    0    0 -0.80352094317E+02 -0.29240790534E+01 -0.13911900280E+03  0.20481236838E+03  0.12700000000E+03 0.  0.
   -5000001    1    1    2    0    0  0.80352094317E+02  0.29240790534E+01 -0.50945658519E+03  0.53116854340E+03  0.12700000000E+03 0.  0.
<mgrwt>
<rscale>  0 0.34787585E+03</rscale>
<asrwt>0</asrwt>
<pdfrwt beam="1">  1        1 0.98896886E-01 0.34787585E+03</pdfrwt>
<pdfrwt beam="2">  1       -1 0.62432378E-02 0.34787585E+03</pdfrwt>
<totfact> 0.40273130E+03</totfact>
</mgrwt>
</event>
<event>
 4    1  0.6376580E-005  0.3813409E+03  0.7818608E-02  0.1050439E+00
          1   -1    0    0  501    0  0.00000000000E+00  0.00000000000E+00  0.23866496711E+03  0.23866496716E+03  0.50400000000E-02 0.  1.
         -1   -1    0    0    0  501 -0.00000000000E+00 -0.00000000000E+00 -0.15232741884E+03  0.15232741893E+03  0.50400000000E-02 0. -1.
    5000001    1    1    2    0    0  0.57302496460E+02 -0.89197479700E+02  0.14036492214E+03  0.21695870080E+03  0.12700000000E+03 0.  0.
   -5000001    1    1    2    0    0 -0.57302496460E+02  0.89197479700E+02 -0.54027373879E+02  0.17403368528E+03  0.12700000000E+03 0.  0.
<mgrwt>
<rscale>  0 0.38134089E+03</rscale>
<asrwt>0</asrwt>
<pdfrwt beam="1">  1        1 0.34094995E-01 0.38134089E+03</pdfrwt>
<pdfrwt beam="2">  1       -1 0.21761060E-01 0.38134089E+03</pdfrwt>
<totfact> 0.22699970E+03</totfact>
</mgrwt>
</event>
<event>
 4    1  0.6376580E-005  0.3382911E+03  0.7818608E-02  0.1067526E+00
         -1   -1    0    0    0  501 -0.00000000000E+00  0.00000000000E+00  0.58793220532E+02  0.58793220748E+02  0.50400000000E-02 0. -1.
          1   -1    0    0  501    0  0.00000000000E+00 -0.00000000000E+00 -0.48662440723E+03  0.48662440726E+03  0.50400000000E-02 0.  1.
    5000001    1    1    2    0    0  0.93805095315E+02  0.95109565079E+01 -0.31053585161E+03  0.34849873649E+03  0.12700000000E+03 0.  0.
   -5000001    1    1    2    0    0 -0.93805095315E+02 -0.95109565079E+01 -0.11729533509E+03  0.19691889151E+03  0.12700000000E+03 0.  0.
<mgrwt>
<rscale>  0 0.33829109E+03</rscale>
<asrwt>0</asrwt>
<pdfrwt beam="1">  1        1 0.69517770E-01 0.33829109E+03</pdfrwt>
<pdfrwt beam="2">  1       -1 0.83990318E-02 0.33829109E+03</pdfrwt>
<totfact> 0.41374503E+03</totfact>
</mgrwt>
</event>
<event>
 4    1  0.6376580E-005  0.3743218E+03  0.7818608E-02  0.1053053E+00
          1   -1    0    0  501    0  0.00000000000E+00  0.00000000000E+00  0.68723068457E+03  0.68723068459E+03  0.50400000000E-02 0.  1.
         -1   -1    0    0    0  501 -0.00000000000E+00 -0.00000000000E+00 -0.50971530214E+02  0.50971530463E+02  0.50400000000E-02 0. -1.
    5000001    1    1    2    0    0  0.32375753101E+02 -0.11295112728E+03  0.45888397628E+03  0.49041783229E+03  0.12700000000E+03 0.  0.
   -5000001    1    1    2    0    0 -0.32375753101E+02  0.11295112728E+03  0.17737517808E+03  0.24778438277E+03  0.12700000000E+03 0.  0.
<mgrwt>
<rscale>  0 0.37432179E+03</rscale>
<asrwt>0</asrwt>
<pdfrwt beam="1">  1        1 0.98175803E-01 0.37432179E+03</pdfrwt>
<pdfrwt beam="2">  1       -1 0.72816479E-02 0.37432179E+03</pdfrwt>
<totfact> 0.32207640E+03</totfact>
</mgrwt>
</event>
<event>
 4    1  0.6376580E-005  0.4093395E+03  0.7818608E-02  0.1040593E+00
          1   -1    0    0  501    0  0.00000000000E+00  0.00000000000E+00  0.50859924517E+03  0.50859924519E+03  0.50400000000E-02 0.  1.
         -1   -1    0    0    0  501 -0.00000000000E+00 -0.00000000000E+00 -0.82362886700E+02  0.82362886854E+02  0.50400000000E-02 0. -1.
    5000001    1    1    2    0    0 -0.49272189890E+02 -0.15125766096E+03  0.24388191225E+03  0.31766966462E+03  0.12700000000E+03 0.  0.
   -5000001    1    1    2    0    0  0.49272189890E+02  0.15125766096E+03  0.18235444622E+03  0.27329246743E+03  0.12700000000E+03 0.  0.
<mgrwt>
<rscale>  0 0.40933948E+03</rscale>
<asrwt>0</asrwt>
<pdfrwt beam="1">  1        1 0.72657032E-01 0.40933948E+03</pdfrwt>
<pdfrwt beam="2">  1       -1 0.11766127E-01 0.40933948E+03</pdfrwt>
<totfact> 0.23147308E+03</totfact>
</mgrwt>
</event>
<event>
 4    1  0.6376580E-005  0.4034083E+03  0.7818608E-02  0.1042606E+00
          1   -1    0    0  501    0  0.00000000000E+00  0.00000000000E+00  0.24569929571E+03  0.24569929576E+03  0.50400000000E-02 0. -1.
         -1   -1    0    0    0  501 -0.00000000000E+00 -0.00000000000E+00 -0.16558679606E+03  0.16558679613E+03  0.50400000000E-02 0.  1.
    5000001    1    1    2    0    0  0.10034507837E+03 -0.17367303964E+02 -0.81369514868E+02  0.18199108756E+03  0.12700000000E+03 0.  0.
   -5000001    1    1    2    0    0 -0.10034507837E+03  0.17367303964E+02  0.16148201452E+03  0.22929500433E+03  0.12700000000E+03 0.  0.
<mgrwt>
<rscale>  0 0.40340828E+03</rscale>
<asrwt>0</asrwt>
<pdfrwt beam="1">  1        1 0.35099899E-01 0.40340828E+03</pdfrwt>
<pdfrwt beam="2">  1       -1 0.23655257E-01 0.40340828E+03</pdfrwt>
<totfact> 0.19056943E+03</totfact>
</mgrwt>
</event>
<event>
 4    1  0.6376580E-005  0.3209816E+03  0.7818608E-02  0.1075198E+00
         -1   -1    0    0    0  501 -0.00000000000E+00  0.00000000000E+00  0.26269337113E+03  0.26269337118E+03  0.50400000000E-02 0. -1.
          1   -1    0    0  501    0  0.00000000000E+00 -0.00000000000E+00 -0.98050827317E+02  0.98050827447E+02  0.50400000000E-02 0.  1.
    5000001    1    1    2    0    0 -0.30513959815E+02 -0.93258751854E+02  0.82235228134E+02  0.18033282920E+03  0.12700000000E+03 0.  0.
   -5000001    1    1    2    0    0  0.30513959815E+02  0.93258751854E+02  0.82407315680E+02  0.18041136943E+03  0.12700000000E+03 0.  0.
<mgrwt>
<rscale>  0 0.32098163E+03</rscale>
<asrwt>0</asrwt>
<pdfrwt beam="1">  1        1 0.14007261E-01 0.32098163E+03</pdfrwt>
<pdfrwt beam="2">  1       -1 0.37527625E-01 0.32098163E+03</pdfrwt>
<totfact> 0.28263194E+03</totfact>
</mgrwt>
</event>
<event>
 4    1  0.6376580E-005  0.5578761E+03  0.7818608E-02  0.9996872E-01
          1   -1    0    0  501    0  0.00000000000E+00  0.00000000000E+00  0.13502591356E+04  0.13502591356E+04  0.50400000000E-02 0.  1.
         -1   -1    0    0    0  501 -0.00000000000E+00 -0.00000000000E+00 -0.57623344583E+02  0.57623344804E+02  0.50400000000E-02 0. -1.
    5000001    1    1    2    0    0  0.30019686694E+02  0.16242125248E+03  0.11143547777E+04  0.11336654777E+04  0.12700000000E+03 0.  0.
   -5000001    1    1    2    0    0 -0.30019686694E+02 -0.16242125248E+03  0.17828101332E+03  0.27421700268E+03  0.12700000000E+03 0.  0.
<mgrwt>
<rscale>  0 0.55787614E+03</rscale>
<asrwt>0</asrwt>
<pdfrwt beam="1">  1        1 0.19289417E+00 0.55787614E+03</pdfrwt>
<pdfrwt beam="2">  1       -1 0.82319062E-02 0.55787614E+03</pdfrwt>
<totfact> 0.85388105E+02</totfact>
</mgrwt>
</event>
<event>
 4    1  0.6376580E-005  0.3380111E+03  0.7818608E-02  0.1067646E+00
         -1   -1    0    0    0  501 -0.00000000000E+00  0.00000000000E+00  0.16584588509E+04  0.16584588509E+04  0.50400000000E-02 0.  1.
          1   -1    0    0  501    0  0.00000000000E+00 -0.00000000000E+00 -0.17222540094E+02  0.17222540832E+02  0.50400000000E-02 0. -1.
    5000001    1    1    2    0    0 -0.21335479648E+02  0.52387346485E+02  0.12970063864E+04  0.13044363546E+04  0.12700000000E+03 0.  0.
   -5000001    1    1    2    0    0  0.21335479648E+02 -0.52387346485E+02  0.34422992436E+03  0.37124503713E+03  0.12700000000E+03 0.  0.
<mgrwt>
<rscale>  0 0.33801109E+03</rscale>
<asrwt>0</asrwt>
<pdfrwt beam="1">  1        1 0.24603634E-02 0.33801109E+03</pdfrwt>
<pdfrwt beam="2">  1       -1 0.23692265E+00 0.33801109E+03</pdfrwt>
<totfact> 0.43283330E+02</totfact>
</mgrwt>
</event>
<event>
 4    1  0.6376580E-005  0.3285771E+03  0.7818608E-02  0.1071768E+00
          1   -1    0    0  501    0  0.00000000000E+00  0.00000000000E+00  0.31256078338E+03  0.31256078342E+03  0.50400000000E-02 0. -1.
         -1   -1    0    0    0  501 -0.00000000000E+00 -0.00000000000E+00 -0.86353514952E+02  0.86353515099E+02  0.50400000000E-02 0.  1.
    5000001    1    1    2    0    0 -0.35263057290E+02  0.92744810168E+02  0.15181386854E+03  0.22140807054E+03  0.12700000000E+03 0.  0.
   -5000001    1    1    2    0    0  0.35263057290E+02 -0.92744810168E+02  0.74393399892E+02  0.17750622798E+03  0.12700000000E+03 0.  0.
<mgrwt>
<rscale>  0 0.32857707E+03</rscale>
<asrwt>0</asrwt>
<pdfrwt beam="1">  1        1 0.44651540E-01 0.32857707E+03</pdfrwt>
<pdfrwt beam="2">  1       -1 0.12336216E-01 0.32857707E+03</pdfrwt>
<totfact> 0.40121501E+03</totfact>
</mgrwt>
</event>
<event>
 4    1  0.6376580E-005  0.3428682E+03  0.7818608E-02  0.1065581E+00
         -1   -1    0    0    0  501 -0.00000000000E+00  0.00000000000E+00  0.63888973556E+02  0.63888973754E+02  0.50400000000E-02 0. -1.
          1   -1    0    0  501    0  0.00000000000E+00 -0.00000000000E+00 -0.46001130074E+03  0.46001130077E+03  0.50400000000E-02 0.  1.
    5000001    1    1    2    0    0 -0.90998332933E+02 -0.25794111730E+02 -0.97693791352E+02  0.18606211239E+03  0.12700000000E+03 0.  0.
   -5000001    1    1    2    0    0  0.90998332933E+02  0.25794111730E+02 -0.29842853583E+03  0.33783816213E+03  0.12700000000E+03 0.  0.
<mgrwt>
<rscale>  0 0.34286820E+03</rscale>
<asrwt>0</asrwt>
<pdfrwt beam="1">  1        1 0.65715898E-01 0.34286820E+03</pdfrwt>
<pdfrwt beam="2">  1       -1 0.91269965E-02 0.34286820E+03</pdfrwt>
<totfact> 0.39184454E+03</totfact>
</mgrwt>
</event>
<event>
 4    1  0.6376580E-005  0.5071242E+03  0.7818608E-02  0.1011936E+00
         -1   -1    0    0    0  501 -0.00000000000E+00  0.00000000000E+00  0.83993755417E+03  0.83993755419E+03  0.50400000000E-02 0. -1.
          1   -1    0    0  501    0  0.00000000000E+00 -0.00000000000E+00 -0.76545851061E+02  0.76545851227E+02  0.50400000000E-02 0.  1.
    5000001    1    1    2    0    0  0.17886326386E+03 -0.93113336129E+02  0.22515941619E+03  0.32785350878E+03  0.12700000000E+03 0.  0.
   -5000001    1    1    2    0    0 -0.17886326386E+03  0.93113336129E+02  0.53823228693E+03  0.58862989663E+03  0.12700000000E+03 0.  0.
<mgrwt>
<rscale>  0 0.50712419E+03</rscale>
<asrwt>0</asrwt>
<pdfrwt beam="1">  1        1 0.10935122E-01 0.50712419E+03</pdfrwt>
<pdfrwt beam="2">  1       -1 0.11999107E+00 0.50712419E+03</pdfrwt>
<totfact> 0.37424741E+02</totfact>
</mgrwt>
</event>
<event>
 4    1  0.6376580E-005  0.5087214E+03  0.7818608E-02  0.1011527E+00
         -1   -1    0    0    0  501 -0.00000000000E+00  0.00000000000E+00  0.16775712801E+03  0.16775712808E+03  0.50400000000E-02 0. -1.
          1   -1    0    0  501    0  0.00000000000E+00 -0.00000000000E+00 -0.38567277847E+03  0.38567277850E+03  0.50400000000E-02 0.  1.
    5000001    1    1    2    0    0 -0.14148826142E+03  0.92721345321E+02  0.44715895006E+02  0.21620519712E+03  0.12700000000E+03 0.  0.
   -5000001    1    1    2    0    0  0.14148826142E+03 -0.92721345321E+02 -0.26263154546E+03  0.33722470946E+03  0.12700000000E+03 0.  0.
<mgrwt>
<rscale>  0 0.50872137E+03</rscale>
<asrwt>0</asrwt>
<pdfrwt beam="1">  1        1 0.55096111E-01 0.50872137E+03</pdfrwt>
<pdfrwt beam="2">  1       -1 0.23965304E-01 0.50872137E+03</pdfrwt>
<totfact> 0.10479565E+03</totfact>
</mgrwt>
</event>
<event>
 4    1  0.6376580E-005  0.4251123E+03  0.7818608E-02  0.1035415E+00
          1   -1    0    0  501    0  0.00000000000E+00  0.00000000000E+00  0.26333579834E+03  0.26333579839E+03  0.50400000000E-02 0.  1.
         -1   -1    0    0    0  501 -0.00000000000E+00 -0.00000000000E+00 -0.17156842287E+03  0.17156842294E+03  0.50400000000E-02 0. -1.
    5000001    1    1    2    0    0 -0.15229866119E+03  0.46600892733E+02  0.10798261863E+03  0.23055535416E+03  0.12700000000E+03 0.  0.
   -5000001    1    1    2    0    0  0.15229866119E+03 -0.46600892733E+02 -0.16215243153E+02  0.20434886717E+03  0.12700000000E+03 0.  0.
<mgrwt>
<rscale>  0 0.42511226E+03</rscale>
<asrwt>0</asrwt>
<pdfrwt beam="1">  1        1 0.37619400E-01 0.42511226E+03</pdfrwt>
<pdfrwt beam="2">  1       -1 0.24509775E-01 0.42511226E+03</pdfrwt>
<totfact> 0.16447926E+03</totfact>
</mgrwt>
</event>
<event>
 4    1  0.6376580E-005  0.4735166E+03  0.7818608E-02  0.1020932E+00
          1   -1    0    0  501    0  0.00000000000E+00  0.00000000000E+00  0.58484608788E+03  0.58484608790E+03  0.50400000000E-02 0.  1.
         -1   -1    0    0    0  501 -0.00000000000E+00 -0.00000000000E+00 -0.95844866853E+02  0.95844866985E+02  0.50400000000E-02 0. -1.
    5000001    1    1    2    0    0 -0.75960896136E+02  0.15175275608E+03  0.92867235154E+02  0.23141365579E+03  0.12700000000E+03 0.  0.
   -5000001    1    1    2    0    0  0.75960896136E+02 -0.15175275608E+03  0.39613398587E+03  0.44927729909E+03  0.12700000000E+03 0.  0.
<mgrwt>
<rscale>  0 0.47351661E+03</rscale>
<asrwt>0</asrwt>
<pdfrwt beam="1">  1        1 0.83549440E-01 0.47351661E+03</pdfrwt>
<pdfrwt beam="2">  1       -1 0.13692124E-01 0.47351661E+03</pdfrwt>
<totfact> 0.15064655E+03</totfact>
</mgrwt>
</event>
<event>
 4    1  0.6376580E-005  0.3931469E+03  0.7818608E-02  0.1046179E+00
         -1   -1    0    0    0  501 -0.00000000000E+00  0.00000000000E+00  0.37343086639E+02  0.37343086979E+02  0.50400000000E-02 0.  1.
          1   -1    0    0  501    0  0.00000000000E+00 -0.00000000000E+00 -0.10347599334E+04  0.10347599334E+04  0.50400000000E-02 0. -1.
    5000001    1    1    2    0    0  0.28210369523E+02 -0.12712384289E+03 -0.70197044077E+03  0.72515363620E+03  0.12700000000E+03 0.  0.
   -5000001    1    1    2    0    0 -0.28210369523E+02  0.12712384289E+03 -0.29544640602E+03  0.34694938422E+03  0.12700000000E+03 0.  0.
<mgrwt>
<rscale>  0 0.39314694E+03</rscale>
<asrwt>0</asrwt>
<pdfrwt beam="1">  1        1 0.14782283E+00 0.39314694E+03</pdfrwt>
<pdfrwt beam="2">  1       -1 0.53347273E-02 0.39314694E+03</pdfrwt>
<totfact> 0.27423260E+03</totfact>
</mgrwt>
</event>
<event>
 4    1  0.6376580E-005  0.6054244E+03  0.7818608E-02  0.9894216E-01
          1   -1    0    0  501    0  0.00000000000E+00  0.00000000000E+00  0.29470139730E+04  0.29470139730E+04  0.50400000000E-02 0.  1.
         -1   -1    0    0    0  501 -0.00000000000E+00 -0.00000000000E+00 -0.31094076184E+02  0.31094076592E+02  0.50400000000E-02 0. -1.
    5000001    1    1    2    0    0  0.15587724834E+03  0.94306993637E+02  0.24698267506E+04  0.24797912621E+04  0.12700000000E+03 0.  0.
   -5000001    1    1    2    0    0 -0.15587724834E+03 -0.94306993637E+02  0.44609314618E+03  0.49831678746E+03  0.12700000000E+03 0.  0.
<mgrwt>
<rscale>  0 0.60542441E+03</rscale>
<asrwt>0</asrwt>
<pdfrwt beam="1">  1        1 0.42100180E+00 0.60542441E+03</pdfrwt>
<pdfrwt beam="2">  1       -1 0.44420130E-02 0.60542441E+03</pdfrwt>
<totfact> 0.21926434E+02</totfact>
</mgrwt>
</event>
<event>
 4    1  0.6376580E-005  0.2721955E+03  0.7818608E-02  0.1100030E+00
          1   -1    0    0  501    0  0.00000000000E+00  0.00000000000E+00  0.20835093436E+04  0.20835093437E+04  0.50400000000E-02 0.  1.
         -1   -1    0    0    0  501 -0.00000000000E+00 -0.00000000000E+00 -0.88900927597E+01  0.88900941883E+01  0.50400000000E-02 0. -1.
    5000001    1    1    2    0    0 -0.33419128060E+02  0.22227813584E+02  0.82225164963E+03  0.83296920059E+03  0.12700000000E+03 0.  0.
   -5000001    1    1    2    0    0  0.33419128060E+02 -0.22227813584E+02  0.12523676013E+04  0.12594302373E+04  0.12700000000E+03 0.  0.
<mgrwt>
<rscale>  0 0.27219547E+03</rscale>
<asrwt>0</asrwt>
<pdfrwt beam="1">  1        1 0.29764455E+00 0.27219547E+03</pdfrwt>
<pdfrwt beam="2">  1       -1 0.12700118E-02 0.27219547E+03</pdfrwt>
<totfact> 0.49476101E+03</totfact>
</mgrwt>
</event>
<event>
 4    1  0.6376580E-005  0.4869434E+03  0.7818608E-02  0.1017244E+00
         -1   -1    0    0    0  501 -0.00000000000E+00  0.00000000000E+00  0.79792096252E+03  0.79792096254E+03  0.50400000000E-02 0. -1.
          1   -1    0    0  501    0  0.00000000000E+00 -0.00000000000E+00 -0.74291167267E+02  0.74291167438E+02  0.50400000000E-02 0.  1.
    5000001    1    1    2    0    0 -0.17963872274E+03 -0.87078342007E+01  0.54799252782E+03  0.59056812277E+03  0.12700000000E+03 0.  0.
   -5000001    1    1    2    0    0  0.17963872274E+03  0.87078342007E+01  0.17563726743E+03  0.28164400721E+03  0.12700000000E+03 0.  0.
<mgrwt>
<rscale>  0 0.48694345E+03</rscale>
<asrwt>0</asrwt>
<pdfrwt beam="1">  1        1 0.10613024E-01 0.48694345E+03</pdfrwt>
<pdfrwt beam="2">  1       -1 0.11398871E+00 0.48694345E+03</pdfrwt>
<totfact> 0.44090565E+02</totfact>
</mgrwt>
</event>
<event>
 4    1  0.6376580E-005  0.3503153E+03  0.7818608E-02  0.1062486E+00
         -1   -1    0    0    0  501 -0.00000000000E+00  0.00000000000E+00  0.45151502290E+02  0.45151502571E+02  0.50400000000E-02 0. -1.
          1   -1    0    0  501    0  0.00000000000E+00 -0.00000000000E+00 -0.67949458911E+03  0.67949458913E+03  0.50400000000E-02 0.  1.
    5000001    1    1    2    0    0  0.11223613805E+03 -0.33640572469E+02 -0.37649840676E+03  0.41425679125E+03  0.12700000000E+03 0.  0.
   -5000001    1    1    2    0    0 -0.11223613805E+03  0.33640572469E+02 -0.25784468006E+03  0.31038930046E+03  0.12700000000E+03 0.  0.
<mgrwt>
<rscale>  0 0.35031530E+03</rscale>
<asrwt>0</asrwt>
<pdfrwt beam="1">  1        1 0.97070650E-01 0.35031530E+03</pdfrwt>
<pdfrwt beam="2">  1       -1 0.64502150E-02 0.35031530E+03</pdfrwt>
<totfact> 0.39359748E+03</totfact>
</mgrwt>
</event>
<event>
 4    1  0.6376580E-005  0.7392505E+03  0.7818608E-02  0.9652367E-01
          1   -1    0    0  501    0  0.00000000000E+00  0.00000000000E+00  0.14452573047E+03  0.14452573056E+03  0.50400000000E-02 0.  1.
         -1   -1    0    0    0  501 -0.00000000000E+00 -0.00000000000E+00 -0.94531845525E+03  0.94531845527E+03  0.50400000000E-02 0. -1.
    5000001    1    1    2    0    0  0.17108462246E+03 -0.25232498878E+03 -0.15566998103E+03  0.36510271294E+03  0.12700000000E+03 0.  0.
   -5000001    1    1    2    0    0 -0.17108462246E+03  0.25232498878E+03 -0.64512274375E+03  0.72474147288E+03  0.12700000000E+03 0.  0.
<mgrwt>
<rscale>  0 0.73925054E+03</rscale>
<asrwt>0</asrwt>
<pdfrwt beam="1">  1        1 0.20646533E-01 0.73925054E+03</pdfrwt>
<pdfrwt beam="2">  1       -1 0.13504549E+00 0.73925054E+03</pdfrwt>
<totfact> 0.11756640E+02</totfact>
</mgrwt>
</event>
<event>
 4    1  0.6376580E-005  0.5949594E+03  0.7818608E-02  0.9915919E-01
          1   -1    0    0  501    0  0.00000000000E+00  0.00000000000E+00  0.17644114376E+04  0.17644114376E+04  0.50400000000E-02 0.  1.
         -1   -1    0    0    0  501 -0.00000000000E+00 -0.00000000000E+00 -0.50155068260E+02  0.50155068513E+02  0.50400000000E-02 0. -1.
    5000001    1    1    2    0    0 -0.15268168779E+03  0.19511313058E+03  0.11767766529E+04  0.12092613954E+04  0.12700000000E+03 0.  0.
   -5000001    1    1    2    0    0  0.15268168779E+03 -0.19511313058E+03  0.53747971639E+03  0.60530511070E+03  0.12700000000E+03 0.  0.
<mgrwt>
<rscale>  0 0.59495941E+03</rscale>
<asrwt>0</asrwt>
<pdfrwt beam="1">  1        1 0.25205876E+00 0.59495941E+03</pdfrwt>
<pdfrwt beam="2">  1       -1 0.71650103E-02 0.59495941E+03</pdfrwt>
<totfact> 0.57601334E+02</totfact>
</mgrwt>
</event>
<event>
 4    1  0.6376580E-005  0.2873020E+03  0.7818608E-02  0.1091766E+00
         -1   -1    0    0    0  501 -0.00000000000E+00  0.00000000000E+00  0.76473148112E+03  0.76473148114E+03  0.50400000000E-02 0.  1.
          1   -1    0    0  501    0  0.00000000000E+00 -0.00000000000E+00 -0.26984122116E+02  0.26984122586E+02  0.50400000000E-02 0. -1.
    5000001    1    1    2    0    0  0.39121419648E+02  0.37858840100E+02  0.47711415708E+03  0.49671993733E+03  0.12700000000E+03 0.  0.
   -5000001    1    1    2    0    0 -0.39121419648E+02 -0.37858840100E+02  0.26063320192E+03  0.29499566640E+03  0.12700000000E+03 0.  0.
<mgrwt>
<rscale>  0 0.28730199E+03</rscale>
<asrwt>0</asrwt>
<pdfrwt beam="1">  1        1 0.38548742E-02 0.28730199E+03</pdfrwt>
<pdfrwt beam="2">  1       -1 0.10924737E+00 0.28730199E+03</pdfrwt>
<totfact> 0.19751793E+03</totfact>
</mgrwt>
</event>
<event>
 4    1  0.6376580E-005  0.3349748E+03  0.7818608E-02  0.1068957E+00
          1   -1    0    0  501    0  0.00000000000E+00  0.00000000000E+00  0.12417288507E+04  0.12417288507E+04  0.50400000000E-02 0.  1.
         -1   -1    0    0    0  501 -0.00000000000E+00 -0.00000000000E+00 -0.22591109232E+02  0.22591109794E+02  0.50400000000E-02 0. -1.
    5000001    1    1    2    0    0  0.26806740468E+02  0.47361408576E+02  0.96686722982E+03  0.97668978927E+03  0.12700000000E+03 0.  0.
   -5000001    1    1    2    0    0 -0.26806740468E+02 -0.47361408576E+02  0.25227051161E+03  0.28763017120E+03  0.12700000000E+03 0.  0.
<mgrwt>
<rscale>  0 0.33497482E+03</rscale>
<asrwt>0</asrwt>
<pdfrwt beam="1">  1        1 0.17738988E+00 0.33497482E+03</pdfrwt>
<pdfrwt beam="2">  1       -1 0.32273006E-02 0.33497482E+03</pdfrwt>
<totfact> 0.41977818E+03</totfact>
</mgrwt>
</event>
<event>
 4    1  0.6376580E-005  0.2762405E+03  0.7818608E-02  0.1097760E+00
         -1   -1    0    0    0  501 -0.00000000000E+00  0.00000000000E+00  0.16003558814E+02  0.16003559607E+02  0.50400000000E-02 0. -1.
          1   -1    0    0  501    0  0.00000000000E+00 -0.00000000000E+00 -0.11920602785E+04  0.11920602785E+04  0.50400000000E-02 0.  1.
    5000001    1    1    2    0    0 -0.48969867164E+01 -0.50960234765E+02 -0.66714412928E+03  0.68105155108E+03  0.12700000000E+03 0.  0.
   -5000001    1    1    2    0    0  0.48969867164E+01  0.50960234765E+02 -0.50891259039E+03  0.52701228701E+03  0.12700000000E+03 0.  0.
<mgrwt>
<rscale>  0 0.27624053E+03</rscale>
<asrwt>0</asrwt>
<pdfrwt beam="1">  1        1 0.17029427E+00 0.27624053E+03</pdfrwt>
<pdfrwt beam="2">  1       -1 0.22862235E-02 0.27624053E+03</pdfrwt>
<totfact> 0.75123464E+03</totfact>
</mgrwt>
</event>
<event>
 4    1  0.6376580E-005  0.7939655E+03  0.7818608E-02  0.9568793E-01
          1   -1    0    0  501    0  0.00000000000E+00  0.00000000000E+00  0.22041021746E+03  0.22041021752E+03  0.50400000000E-02 0.  1.
         -1   -1    0    0    0  501 -0.00000000000E+00 -0.00000000000E+00 -0.71500912764E+03  0.71500912766E+03  0.50400000000E-02 0. -1.
    5000001    1    1    2    0    0  0.28720665658E+03 -0.60429490387E+02  0.29823808606E+02  0.32118195225E+03  0.12700000000E+03 0.  0.
   -5000001    1    1    2    0    0 -0.28720665658E+03  0.60429490387E+02 -0.52442271879E+03  0.61423739293E+03  0.12700000000E+03 0.  0.
<mgrwt>
<rscale>  0 0.79396553E+03</rscale>
<asrwt>0</asrwt>
<pdfrwt beam="1">  1        1 0.31487174E-01 0.79396553E+03</pdfrwt>
<pdfrwt beam="2">  1       -1 0.10214416E+00 0.79396553E+03</pdfrwt>
<totfact> 0.13259624E+02</totfact>
</mgrwt>
</event>
<event>
 4    1  0.6376580E-005  0.4097158E+03  0.7818608E-02  0.1040466E+00
         -1   -1    0    0    0  501 -0.00000000000E+00  0.00000000000E+00  0.33901155610E+02  0.33901155984E+02  0.50400000000E-02 0. -1.
          1   -1    0    0  501    0  0.00000000000E+00 -0.00000000000E+00 -0.12379155284E+04  0.12379155284E+04  0.50400000000E-02 0.  1.
    5000001    1    1    2    0    0  0.75920360175E+02 -0.44954971657E+02 -0.10190834294E+04  0.10307496722E+04  0.12700000000E+03 0.  0.
   -5000001    1    1    2    0    0 -0.75920360175E+02  0.44954971657E+02 -0.18493094337E+03  0.24106701222E+03  0.12700000000E+03 0.  0.
<mgrwt>
<rscale>  0 0.40971584E+03</rscale>
<asrwt>0</asrwt>
<pdfrwt beam="1">  1        1 0.17684505E+00 0.40971584E+03</pdfrwt>
<pdfrwt beam="2">  1       -1 0.48430230E-02 0.40971584E+03</pdfrwt>
<totfact> 0.22983792E+03</totfact>
</mgrwt>
</event>
<event>
 4    1  0.6376580E-005  0.4499424E+03  0.7818608E-02  0.1027739E+00
         -1   -1    0    0    0  501 -0.00000000000E+00  0.00000000000E+00  0.23915364612E+02  0.23915365143E+02  0.50400000000E-02 0. -1.
          1   -1    0    0  501    0  0.00000000000E+00 -0.00000000000E+00 -0.21162979667E+04  0.21162979667E+04  0.50400000000E-02 0.  1.
    5000001    1    1    2    0    0 -0.18287415581E+03  0.32108241123E+02 -0.10318092024E+04  0.10560459868E+04  0.12700000000E+03 0.  0.
   -5000001    1    1    2    0    0  0.18287415581E+03 -0.32108241123E+02 -0.10605733997E+04  0.10841673451E+04  0.12700000000E+03 0.  0.
<mgrwt>
<rscale>  0 0.44994239E+03</rscale>
<asrwt>0</asrwt>
<pdfrwt beam="1">  1        1 0.30232816E+00 0.44994239E+03</pdfrwt>
<pdfrwt beam="2">  1       -1 0.34164820E-02 0.44994239E+03</pdfrwt>
<totfact> 0.10912871E+03</totfact>
</mgrwt>
</event>
<event>
 4    1  0.6376580E-005  0.3773803E+03  0.7818608E-02  0.1051906E+00
          1   -1    0    0  501    0  0.00000000000E+00  0.00000000000E+00  0.89306223834E+03  0.89306223836E+03  0.50400000000E-02 0. -1.
         -1   -1    0    0    0  501 -0.00000000000E+00 -0.00000000000E+00 -0.39867299290E+02  0.39867299609E+02  0.50400000000E-02 0.  1.
    5000001    1    1    2    0    0 -0.35414882467E+02 -0.11709743349E+03  0.26059764992E+03  0.31465243996E+03  0.12700000000E+03 0.  0.
   -5000001    1    1    2    0    0  0.35414882467E+02  0.11709743349E+03  0.59259728914E+03  0.61827709801E+03  0.12700000000E+03 0.  0.
<mgrwt>
<rscale>  0 0.37738034E+03</rscale>
<asrwt>0</asrwt>
<pdfrwt beam="1">  1        1 0.12758031E+00 0.37738034E+03</pdfrwt>
<pdfrwt beam="2">  1       -1 0.56953288E-02 0.37738034E+03</pdfrwt>
<totfact> 0.31624189E+03</totfact>
</mgrwt>
</event>
<event>
 4    1  0.6376580E-005  0.3237092E+03  0.7818608E-02  0.1073955E+00
         -1   -1    0    0    0  501 -0.00000000000E+00  0.00000000000E+00  0.14032649938E+02  0.14032650843E+02  0.50400000000E-02 0. -1.
          1   -1    0    0  501    0  0.00000000000E+00 -0.00000000000E+00 -0.18668539275E+04  0.18668539275E+04  0.50400000000E-02 0.  1.
    5000001    1    1    2    0    0 -0.42684815140E+02  0.67690347267E+02 -0.12781178634E+04  0.12869025796E+04  0.12700000000E+03 0.  0.
   -5000001    1    1    2    0    0  0.42684815140E+02 -0.67690347267E+02 -0.57470341411E+03  0.59398399873E+03  0.12700000000E+03 0.  0.
<mgrwt>
<rscale>  0 0.32370918E+03</rscale>
<asrwt>0</asrwt>
<pdfrwt beam="1">  1        1 0.26669326E+00 0.32370918E+03</pdfrwt>
<pdfrwt beam="2">  1       -1 0.20046655E-02 0.32370918E+03</pdfrwt>
<totfact> 0.34363233E+03</totfact>
</mgrwt>
</event>
<event>
 4    1  0.6376580E-005  0.2672659E+03  0.7818608E-02  0.1102855E+00
         -1   -1    0    0    0  501 -0.00000000000E+00  0.00000000000E+00  0.12647485947E+03  0.12647485957E+03  0.50400000000E-02 0. -1.
          1   -1    0    0  501    0  0.00000000000E+00 -0.00000000000E+00 -0.14119613827E+03  0.14119613836E+03  0.50400000000E-02 0.  1.
    5000001    1    1    2    0    0  0.18072265743E+01 -0.30867750489E+02  0.20478576184E+02  0.13230440722E+03  0.12700000000E+03 0.  0.
   -5000001    1    1    2    0    0 -0.18072265743E+01  0.30867750489E+02 -0.35199854994E+02  0.13536659071E+03  0.12700000000E+03 0.  0.
<mgrwt>
<rscale>  0 0.26726587E+03</rscale>
<asrwt>0</asrwt>
<pdfrwt beam="1">  1        1 0.20170877E-01 0.26726587E+03</pdfrwt>
<pdfrwt beam="2">  1       -1 0.18067837E-01 0.26726587E+03</pdfrwt>
<totfact> 0.59555998E+03</totfact>
</mgrwt>
</event>
<event>
 4    1  0.6376580E-005  0.3001395E+03  0.7818608E-02  0.1085171E+00
         -1   -1    0    0    0  501 -0.00000000000E+00  0.00000000000E+00  0.34606958626E+03  0.34606958629E+03  0.50400000000E-02 0. -1.
          1   -1    0    0  501    0  0.00000000000E+00 -0.00000000000E+00 -0.65076324327E+02  0.65076324522E+02  0.50400000000E-02 0.  1.
    5000001    1    1    2    0    0  0.63083826465E+02 -0.44277724770E+02  0.16961521090E+03  0.22547373648E+03  0.12700000000E+03 0.  0.
   -5000001    1    1    2    0    0 -0.63083826465E+02  0.44277724770E+02  0.11137805103E+03  0.18567217434E+03  0.12700000000E+03 0.  0.
<mgrwt>
<rscale>  0 0.30013955E+03</rscale>
<asrwt>0</asrwt>
<pdfrwt beam="1">  1        1 0.92966176E-02 0.30013955E+03</pdfrwt>
<pdfrwt beam="2">  1       -1 0.49438513E-01 0.30013955E+03</pdfrwt>
<totfact> 0.29706846E+03</totfact>
</mgrwt>
</event>
<event>
 4    1  0.6376580E-005  0.4164002E+03  0.7818608E-02  0.1038244E+00
          1   -1    0    0  501    0  0.00000000000E+00  0.00000000000E+00  0.46573019332E+03  0.46573019334E+03  0.50400000000E-02 0.  1.
         -1   -1    0    0    0  501 -0.00000000000E+00 -0.00000000000E+00 -0.93073808431E+02  0.93073808567E+02  0.50400000000E-02 0. -1.
    5000001    1    1    2    0    0 -0.45781082785E+02  0.15407626831E+03  0.23623279925E+03  0.31268248982E+03  0.12700000000E+03 0.  0.
   -5000001    1    1    2    0    0  0.45781082785E+02 -0.15407626831E+03  0.13642358563E+03  0.24612151209E+03  0.12700000000E+03 0.  0.
<mgrwt>
<rscale>  0 0.41640021E+03</rscale>
<asrwt>0</asrwt>
<pdfrwt beam="1">  1        1 0.66532886E-01 0.41640021E+03</pdfrwt>
<pdfrwt beam="2">  1       -1 0.13296258E-01 0.41640021E+03</pdfrwt>
<totfact> 0.21433823E+03</totfact>
</mgrwt>
</event>
<event>
 4    1  0.6376580E-005  0.3846071E+03  0.7818608E-02  0.1049244E+00
          1   -1    0    0  501    0  0.00000000000E+00  0.00000000000E+00  0.15192839934E+04  0.15192839934E+04  0.50400000000E-02 0.  1.
         -1   -1    0    0    0  501 -0.00000000000E+00 -0.00000000000E+00 -0.24340845534E+02  0.24340846056E+02  0.50400000000E-02 0. -1.
    5000001    1    1    2    0    0 -0.86366011181E+02  0.85135993392E+02  0.43286678748E+03  0.46712940494E+03  0.12700000000E+03 0.  0.
   -5000001    1    1    2    0    0  0.86366011181E+02 -0.85135993392E+02  0.10620763604E+04  0.10764954345E+04  0.12700000000E+03 0.  0.
<mgrwt>
<rscale>  0 0.38460711E+03</rscale>
<asrwt>0</asrwt>
<pdfrwt beam="1">  1        1 0.21704051E+00 0.38460711E+03</pdfrwt>
<pdfrwt beam="2">  1       -1 0.34772646E-02 0.38460711E+03</pdfrwt>
<totfact> 0.24881818E+03</totfact>
</mgrwt>
</event>
<event>
 4    1  0.6376580E-005  0.2804136E+03  0.7818608E-02  0.1095463E+00
          1   -1    0    0  501    0  0.00000000000E+00  0.00000000000E+00  0.11148169067E+03  0.11148169078E+03  0.50400000000E-02 0.  1.
         -1   -1    0    0    0  501 -0.00000000000E+00 -0.00000000000E+00 -0.17633339040E+03  0.17633339047E+03  0.50400000000E-02 0. -1.
    5000001    1    1    2    0    0  0.47506142549E+02  0.35003682206E+02 -0.39451458505E+02  0.14549058020E+03  0.12700000000E+03 0.  0.
   -5000001    1    1    2    0    0 -0.47506142549E+02 -0.35003682206E+02 -0.25400241228E+02  0.14232450106E+03  0.12700000000E+03 0.  0.
<mgrwt>
<rscale>  0 0.28041358E+03</rscale>
<asrwt>0</asrwt>
<pdfrwt beam="1">  1        1 0.15925956E-01 0.28041358E+03</pdfrwt>
<pdfrwt beam="2">  1       -1 0.25190484E-01 0.28041358E+03</pdfrwt>
<totfact> 0.47059382E+03</totfact>
</mgrwt>
</event>
<event>
 4    1  0.6376580E-005  0.4106240E+03  0.7818608E-02  0.1040162E+00
          1   -1    0    0  501    0  0.00000000000E+00  0.00000000000E+00  0.24185368928E+03  0.24185368933E+03  0.50400000000E-02 0.  1.
         -1   -1    0    0    0  501 -0.00000000000E+00 -0.00000000000E+00 -0.17429135490E+03  0.17429135497E+03  0.50400000000E-02 0. -1.
    5000001    1    1    2    0    0  0.75176013657E+02  0.14269657498E+03  0.30534710324E+02  0.20754545062E+03  0.12700000000E+03 0.  0.
   -5000001    1    1    2    0    0 -0.75176013657E+02 -0.14269657498E+03  0.37027624062E+02  0.20859959368E+03  0.12700000000E+03 0.  0.
<mgrwt>
<rscale>  0 0.41062395E+03</rscale>
<asrwt>0</asrwt>
<pdfrwt beam="1">  1        1 0.34550527E-01 0.41062395E+03</pdfrwt>
<pdfrwt beam="2">  1       -1 0.24898765E-01 0.41062395E+03</pdfrwt>
<totfact> 0.17847432E+03</totfact>
</mgrwt>
</event>
<event>
 4    1  0.6376580E-005  0.3042864E+03  0.7818608E-02  0.1083117E+00
          1   -1    0    0  501    0  0.00000000000E+00  0.00000000000E+00  0.22055060128E+03  0.22055060134E+03  0.50400000000E-02 0.  1.
         -1   -1    0    0    0  501 -0.00000000000E+00 -0.00000000000E+00 -0.10495346636E+03  0.10495346648E+03  0.50400000000E-02 0. -1.
    5000001    1    1    2    0    0  0.51178303249E+02 -0.65114001263E+02  0.44288675446E+02  0.15795422963E+03  0.12700000000E+03 0.  0.
   -5000001    1    1    2    0    0 -0.51178303249E+02  0.65114001263E+02  0.71308459478E+02  0.16754983819E+03  0.12700000000E+03 0.  0.
<mgrwt>
<rscale>  0 0.30428638E+03</rscale>
<asrwt>0</asrwt>
<pdfrwt beam="1">  1        1 0.31507229E-01 0.30428638E+03</pdfrwt>
<pdfrwt beam="2">  1       -1 0.14993352E-01 0.30428638E+03</pdfrwt>
<totfact> 0.45666378E+03</totfact>
</mgrwt>
</event>
<event>
 4    1  0.6376580E-005  0.3567417E+03  0.7818608E-02  0.1059881E+00
         -1   -1    0    0    0  501 -0.00000000000E+00  0.00000000000E+00  0.10626950034E+03  0.10626950046E+03  0.50400000000E-02 0.  1.
          1   -1    0    0  501    0  0.00000000000E+00 -0.00000000000E+00 -0.29939130224E+03  0.29939130228E+03  0.50400000000E-02 0. -1.
    5000001    1    1    2    0    0  0.70501505524E+02  0.88055441020E+02 -0.15845805111E+03  0.23229760424E+03  0.12700000000E+03 0.  0.
   -5000001    1    1    2    0    0 -0.70501505524E+02 -0.88055441020E+02 -0.34663750788E+02  0.17336319850E+03  0.12700000000E+03 0.  0.
<mgrwt>
<rscale>  0 0.35674172E+03</rscale>
<asrwt>0</asrwt>
<pdfrwt beam="1">  1        1 0.42770186E-01 0.35674172E+03</pdfrwt>
<pdfrwt beam="2">  1       -1 0.15181357E-01 0.35674172E+03</pdfrwt>
<totfact> 0.30539859E+03</totfact>
</mgrwt>
</event>
<event>
 4    1  0.6376580E-005  0.4113511E+03  0.7818608E-02  0.1039919E+00
         -1   -1    0    0    0  501 -0.00000000000E+00  0.00000000000E+00  0.21208681035E+03  0.21208681041E+03  0.50400000000E-02 0. -1.
          1   -1    0    0  501    0  0.00000000000E+00 -0.00000000000E+00 -0.19945812299E+03  0.19945812305E+03  0.50400000000E-02 0.  1.
    5000001    1    1    2    0    0 -0.46600907780E+02  0.75759714950E+00  0.16131060242E+03  0.21052868929E+03  0.12700000000E+03 0.  0.
   -5000001    1    1    2    0    0  0.46600907780E+02 -0.75759714950E+00 -0.14868191506E+03  0.20101624418E+03  0.12700000000E+03 0.  0.
<mgrwt>
<rscale>  0 0.41135113E+03</rscale>
<asrwt>0</asrwt>
<pdfrwt beam="1">  1        1 0.28494017E-01 0.41135113E+03</pdfrwt>
<pdfrwt beam="2">  1       -1 0.30298116E-01 0.41135113E+03</pdfrwt>
<totfact> 0.16348586E+03</totfact>
</mgrwt>
</event>
<event>
 4    1  0.6376580E-005  0.9256576E+03  0.7818608E-02  0.9394064E-01
          1   -1    0    0  501    0  0.00000000000E+00  0.00000000000E+00  0.76760124173E+03  0.76760124174E+03  0.50400000000E-02 0.  1.
         -1   -1    0    0    0  501 -0.00000000000E+00 -0.00000000000E+00 -0.27906483996E+03  0.27906484001E+03  0.50400000000E-02 0. -1.
    5000001    1    1    2    0    0 -0.35425480054E+03  0.10669891690E+03 -0.35459111497E+02  0.39276897938E+03  0.12700000000E+03 0.  0.
   -5000001    1    1    2    0    0  0.35425480054E+03 -0.10669891690E+03  0.52399551326E+03  0.65389710237E+03  0.12700000000E+03 0.  0.
<mgrwt>
<rscale>  0 0.92565764E+03</rscale>
<asrwt>0</asrwt>
<pdfrwt beam="1">  1        1 0.10965732E+00 0.92565764E+03</pdfrwt>
<pdfrwt beam="2">  1       -1 0.39866406E-01 0.92565764E+03</pdfrwt>
<totfact> 0.16323673E+02</totfact>
</mgrwt>
</event>
<event>
 4    1  0.6376580E-005  0.2964529E+03  0.7818608E-02  0.1087027E+00
          1   -1    0    0  501    0  0.00000000000E+00  0.00000000000E+00  0.88620398494E+03  0.88620398496E+03  0.50400000000E-02 0.  1.
         -1   -1    0    0    0  501 -0.00000000000E+00 -0.00000000000E+00 -0.24792348319E+02  0.24792348831E+02  0.50400000000E-02 0. -1.
    5000001    1    1    2    0    0  0.42762280659E+02  0.43914630326E+02  0.57102302444E+03  0.58817803584E+03  0.12700000000E+03 0.  0.
   -5000001    1    1    2    0    0 -0.42762280659E+02 -0.43914630326E+02  0.29038861218E+03  0.32281829795E+03  0.12700000000E+03 0.  0.
<mgrwt>
<rscale>  0 0.29645288E+03</rscale>
<asrwt>0</asrwt>
<pdfrwt beam="1">  1        1 0.12660057E+00 0.29645288E+03</pdfrwt>
<pdfrwt beam="2">  1       -1 0.35417640E-02 0.29645288E+03</pdfrwt>
<totfact> 0.65063201E+03</totfact>
</mgrwt>
</event>
<event>
 4    1  0.6376580E-005  0.4130422E+03  0.7818608E-02  0.1039355E+00
          1   -1    0    0  501    0  0.00000000000E+00  0.00000000000E+00  0.15014569098E+03  0.15014569107E+03  0.50400000000E-02 0.  1.
         -1   -1    0    0    0  501 -0.00000000000E+00 -0.00000000000E+00 -0.28406381451E+03  0.28406381455E+03  0.50400000000E-02 0. -1.
    5000001    1    1    2    0    0  0.90887579416E+02  0.10006612737E+03  0.28514668572E+02  0.18765891469E+03  0.12700000000E+03 0.  0.
   -5000001    1    1    2    0    0 -0.90887579416E+02 -0.10006612737E+03 -0.16243279210E+03  0.24655059093E+03  0.12700000000E+03 0.  0.
<mgrwt>
<rscale>  0 0.41304217E+03</rscale>
<asrwt>0</asrwt>
<pdfrwt beam="1">  1        1 0.21449385E-01 0.41304217E+03</pdfrwt>
<pdfrwt beam="2">  1       -1 0.40580545E-01 0.41304217E+03</pdfrwt>
<totfact> 0.14109048E+03</totfact>
</mgrwt>
</event>
<event>
 4    1  0.6376580E-005  0.2941186E+03  0.7818608E-02  0.1088218E+00
         -1   -1    0    0    0  501 -0.00000000000E+00  0.00000000000E+00  0.20307297133E+03  0.20307297140E+03  0.50400000000E-02 0. -1.
          1   -1    0    0  501    0  0.00000000000E+00 -0.00000000000E+00 -0.10649590695E+03  0.10649590707E+03  0.50400000000E-02 0.  1.
    5000001    1    1    2    0    0 -0.44123017894E+02 -0.51590538324E+02  0.16905886727E+02  0.14499390801E+03  0.12700000000E+03 0.  0.
   -5000001    1    1    2    0    0  0.44123017894E+02  0.51590538324E+02  0.79671177656E+02  0.16457497046E+03  0.12700000000E+03 0.  0.
<mgrwt>
<rscale>  0 0.29411862E+03</rscale>
<asrwt>0</asrwt>
<pdfrwt beam="1">  1        1 0.15213701E-01 0.29411862E+03</pdfrwt>
<pdfrwt beam="2">  1       -1 0.29010424E-01 0.29411862E+03</pdfrwt>
<totfact> 0.39467185E+03</totfact>
</mgrwt>
</event>
<event>
 4    1  0.6376580E-005  0.5326362E+03  0.7818608E-02  0.1005595E+00
         -1   -1    0    0    0  501 -0.00000000000E+00  0.00000000000E+00  0.75364961138E+02  0.75364961307E+02  0.50400000000E-02 0. -1.
          1   -1    0    0  501    0  0.00000000000E+00 -0.00000000000E+00 -0.94109169949E+03  0.94109169950E+03  0.50400000000E-02 0.  1.
    5000001    1    1    2    0    0 -0.83890820542E+02  0.21712782538E+03 -0.38556948561E+03  0.46794763656E+03  0.12700000000E+03 0.  0.
   -5000001    1    1    2    0    0  0.83890820542E+02 -0.21712782538E+03 -0.48015725274E+03  0.54850902425E+03  0.12700000000E+03 0.  0.
<mgrwt>
<rscale>  0 0.53263623E+03</rscale>
<asrwt>0</asrwt>
<pdfrwt beam="1">  1        1 0.13444166E+00 0.53263623E+03</pdfrwt>
<pdfrwt beam="2">  1       -1 0.10766424E-01 0.53263623E+03</pdfrwt>
<totfact> 0.10838697E+03</totfact>
</mgrwt>
</event>
<event>
 4    1  0.6376580E-005  0.3556697E+03  0.7818608E-02  0.1060312E+00
         -1   -1    0    0    0  501 -0.00000000000E+00  0.00000000000E+00  0.78294645692E+01  0.78294661914E+01  0.50400000000E-02 0. -1.
          1   -1    0    0  501    0  0.00000000000E+00 -0.00000000000E+00 -0.40392590013E+04  0.40392590013E+04  0.50400000000E-02 0.  1.
    5000001    1    1    2    0    0 -0.10793689977E+03 -0.10919398945E+02 -0.27103454931E+04  0.27154873042E+04  0.12700000000E+03 0.  0.
   -5000001    1    1    2    0    0  0.10793689977E+03  0.10919398945E+02 -0.13210840437E+04  0.13316011633E+04  0.12700000000E+03 0.  0.
<mgrwt>
<rscale>  0 0.35566973E+03</rscale>
<asrwt>0</asrwt>
<pdfrwt beam="1">  1        1 0.57703567E+00 0.35566973E+03</pdfrwt>
<pdfrwt beam="2">  1       -1 0.11184976E-02 0.35566973E+03</pdfrwt>
<totfact> 0.31554368E+02</totfact>
</mgrwt>
</event>
<event>
 4    1  0.6376580E-005  0.8042442E+03  0.7818608E-02  0.9553894E-01
          1   -1    0    0  501    0  0.00000000000E+00  0.00000000000E+00  0.46379609396E+03  0.46379609399E+03  0.50400000000E-02 0.  1.
         -1   -1    0    0    0  501 -0.00000000000E+00 -0.00000000000E+00 -0.34864932921E+03  0.34864932924E+03  0.50400000000E-02 0. -1.
    5000001    1    1    2    0    0 -0.30426836182E+03 -0.22642694574E+03  0.99527590248E+02  0.41216882340E+03  0.12700000000E+03 0.  0.
   -5000001    1    1    2    0    0  0.30426836182E+03  0.22642694574E+03  0.15619174505E+02  0.40027659983E+03  0.12700000000E+03 0.  0.
<mgrwt>
<rscale>  0 0.80424423E+03</rscale>
<asrwt>0</asrwt>
<pdfrwt beam="1">  1        1 0.66256585E-01 0.80424423E+03</pdfrwt>
<pdfrwt beam="2">  1       -1 0.49807047E-01 0.80424423E+03</pdfrwt>
<totfact> 0.22200241E+02</totfact>
</mgrwt>
</event>
<event>
 4    1  0.6376580E-005  0.3164936E+03  0.7818608E-02  0.1077274E+00
          1   -1    0    0  501    0  0.00000000000E+00  0.00000000000E+00  0.16394368942E+04  0.16394368942E+04  0.50400000000E-02 0. -1.
         -1   -1    0    0    0  501 -0.00000000000E+00 -0.00000000000E+00 -0.15274783525E+02  0.15274784357E+02  0.50400000000E-02 0.  1.
    5000001    1    1    2    0    0 -0.82127522593E+02 -0.17153201002E+02  0.10384039952E+04  0.10495003666E+04  0.12700000000E+03 0.  0.
   -5000001    1    1    2    0    0  0.82127522593E+02  0.17153201002E+02  0.58575811552E+03  0.60521131199E+03  0.12700000000E+03 0.  0.
<mgrwt>
<rscale>  0 0.31649357E+03</rscale>
<asrwt>0</asrwt>
<pdfrwt beam="1">  1        1 0.23420513E+00 0.31649357E+03</pdfrwt>
<pdfrwt beam="2">  1       -1 0.21821133E-02 0.31649357E+03</pdfrwt>
<totfact> 0.41795440E+03</totfact>
</mgrwt>
</event>
<event>
 4    1  0.6376580E-005  0.3994089E+03  0.7818608E-02  0.1043985E+00
          1   -1    0    0  501    0  0.00000000000E+00  0.00000000000E+00  0.21833806595E+03  0.21833806601E+03  0.50400000000E-02 0.  1.
         -1   -1    0    0    0  501 -0.00000000000E+00 -0.00000000000E+00 -0.18266107752E+03  0.18266107759E+03  0.50400000000E-02 0. -1.
    5000001    1    1    2    0    0 -0.13155518533E+03 -0.32293505088E+02  0.91637821935E+02  0.20706551540E+03  0.12700000000E+03 0.  0.
   -5000001    1    1    2    0    0  0.13155518533E+03  0.32293505088E+02 -0.55960833507E+02  0.19393362820E+03  0.12700000000E+03 0.  0.
<mgrwt>
<rscale>  0 0.39940890E+03</rscale>
<asrwt>0</asrwt>
<pdfrwt beam="1">  1        1 0.31191152E-01 0.39940890E+03</pdfrwt>
<pdfrwt beam="2">  1       -1 0.26094440E-01 0.39940890E+03</pdfrwt>
<totfact> 0.18782107E+03</totfact>
</mgrwt>
</event>
<event>
 4    1  0.6376580E-005  0.4035777E+03  0.7818608E-02  0.1042548E+00
          1   -1    0    0  501    0  0.00000000000E+00  0.00000000000E+00  0.12282814488E+04  0.12282814488E+04  0.50400000000E-02 0.  1.
         -1   -1    0    0    0  501 -0.00000000000E+00 -0.00000000000E+00 -0.33150986114E+02  0.33150986497E+02  0.50400000000E-02 0. -1.
    5000001    1    1    2    0    0  0.46666331156E+01  0.14468578631E+03  0.40914456904E+03  0.45219910725E+03  0.12700000000E+03 0.  0.
   -5000001    1    1    2    0    0 -0.46666331156E+01 -0.14468578631E+03  0.78598589364E+03  0.80923332805E+03  0.12700000000E+03 0.  0.
<mgrwt>
<rscale>  0 0.40357771E+03</rscale>
<asrwt>0</asrwt>
<pdfrwt beam="1">  1        1 0.17546876E+00 0.40357771E+03</pdfrwt>
<pdfrwt beam="2">  1       -1 0.47358556E-02 0.40357771E+03</pdfrwt>
<totfact> 0.24131839E+03</totfact>
</mgrwt>
</event>
<event>
 4    1  0.6376580E-005  0.3525005E+03  0.7818608E-02  0.1061593E+00
          1   -1    0    0  501    0  0.00000000000E+00  0.00000000000E+00  0.90093735414E+03  0.90093735415E+03  0.50400000000E-02 0.  1.
         -1   -1    0    0    0  501 -0.00000000000E+00 -0.00000000000E+00 -0.34479820646E+02  0.34479821014E+02  0.50400000000E-02 0. -1.
    5000001    1    1    2    0    0  0.55210089574E+01 -0.11859868819E+03  0.51009468524E+03  0.53890789407E+03  0.12700000000E+03 0.  0.
   -5000001    1    1    2    0    0 -0.55210089574E+01  0.11859868819E+03  0.35636284825E+03  0.39650928109E+03  0.12700000000E+03 0.  0.
<mgrwt>
<rscale>  0 0.35250055E+03</rscale>
<asrwt>0</asrwt>
<pdfrwt beam="1">  1        1 0.12870534E+00 0.35250055E+03</pdfrwt>
<pdfrwt beam="2">  1       -1 0.49256885E-02 0.35250055E+03</pdfrwt>
<totfact> 0.38823184E+03</totfact>
</mgrwt>
</event>
<event>
 4    1  0.6376580E-005  0.5132941E+03  0.7818608E-02  0.1010366E+00
          1   -1    0    0  501    0  0.00000000000E+00  0.00000000000E+00  0.69829721213E+03  0.69829721215E+03  0.50400000000E-02 0.  1.
         -1   -1    0    0    0  501 -0.00000000000E+00 -0.00000000000E+00 -0.94326192069E+02  0.94326192203E+02  0.50400000000E-02 0. -1.
    5000001    1    1    2    0    0 -0.22237415989E+03 -0.93950418975E+01  0.28013737256E+03  0.37966364233E+03  0.12700000000E+03 0.  0.
   -5000001    1    1    2    0    0  0.22237415989E+03  0.93950418975E+01  0.32383364750E+03  0.41295976202E+03  0.12700000000E+03 0.  0.
<mgrwt>
<rscale>  0 0.51329413E+03</rscale>
<asrwt>0</asrwt>
<pdfrwt beam="1">  1        1 0.99756741E-01 0.51329413E+03</pdfrwt>
<pdfrwt beam="2">  1       -1 0.13475171E-01 0.51329413E+03</pdfrwt>
<totfact> 0.12020415E+03</totfact>
</mgrwt>
</event>
<event>
 4    1  0.6376580E-005  0.3301200E+03  0.7818608E-02  0.1071084E+00
          1   -1    0    0  501    0  0.00000000000E+00  0.00000000000E+00  0.27179232821E+02  0.27179233289E+02  0.50400000000E-02 0. -1.
         -1   -1    0    0    0  501 -0.00000000000E+00 -0.00000000000E+00 -0.10024122311E+04  0.10024122311E+04  0.50400000000E-02 0.  1.
    5000001    1    1    2    0    0 -0.85531414945E+02 -0.61628592874E+02 -0.49212455272E+03  0.51906577790E+03  0.12700000000E+03 0.  0.
   -5000001    1    1    2    0    0  0.85531414945E+02  0.61628592874E+02 -0.48310844556E+03  0.51052568650E+03  0.12700000000E+03 0.  0.
<mgrwt>
<rscale>  0 0.33011995E+03</rscale>
<asrwt>0</asrwt>
<pdfrwt beam="1">  1        1 0.38827482E-02 0.33011995E+03</pdfrwt>
<pdfrwt beam="2">  1       -1 0.14320172E+00 0.33011995E+03</pdfrwt>
<totfact> 0.10142779E+03</totfact>
</mgrwt>
</event>
<event>
 4    1  0.6376580E-005  0.9049623E+03  0.7818608E-02  0.9419399E-01
         -1   -1    0    0    0  501 -0.00000000000E+00  0.00000000000E+00  0.25008309316E+03  0.25008309321E+03  0.50400000000E-02 0. -1.
          1   -1    0    0  501    0  0.00000000000E+00 -0.00000000000E+00 -0.81868471610E+03  0.81868471612E+03  0.50400000000E-02 0.  1.
    5000001    1    1    2    0    0  0.46338551882E+02 -0.42407159070E+03 -0.18816479144E+03  0.48323799951E+03  0.12700000000E+03 0.  0.
   -5000001    1    1    2    0    0 -0.46338551882E+02  0.42407159070E+03 -0.38043683150E+03  0.58552980982E+03  0.12700000000E+03 0.  0.
<mgrwt>
<rscale>  0 0.90496233E+03</rscale>
<asrwt>0</asrwt>
<pdfrwt beam="1">  1        1 0.11695496E+00 0.90496233E+03</pdfrwt>
<pdfrwt beam="2">  1       -1 0.35726157E-01 0.90496233E+03</pdfrwt>
<totfact> 0.18031244E+02</totfact>
</mgrwt>
</event>
<event>
 4    1  0.6376580E-005  0.3253991E+03  0.7818608E-02  0.1073191E+00
         -1   -1    0    0    0  501 -0.00000000000E+00  0.00000000000E+00  0.10784671915E+04  0.10784671915E+04  0.50400000000E-02 0. -1.
          1   -1    0    0  501    0  0.00000000000E+00 -0.00000000000E+00 -0.24545157203E+02  0.24545157721E+02  0.50400000000E-02 0.  1.
    5000001    1    1    2    0    0  0.31683529967E+02 -0.14179041238E+02  0.85098107082E+03  0.86110549539E+03  0.12700000000E+03 0.  0.
   -5000001    1    1    2    0    0 -0.31683529967E+02  0.14179041238E+02  0.20294096345E+03  0.24190685383E+03  0.12700000000E+03 0.  0.
<mgrwt>
<rscale>  0 0.32539912E+03</rscale>
<asrwt>0</asrwt>
<pdfrwt beam="1">  1        1 0.35064512E-02 0.32539912E+03</pdfrwt>
<pdfrwt beam="2">  1       -1 0.15406674E+00 0.32539912E+03</pdfrwt>
<totfact> 0.96612823E+02</totfact>
</mgrwt>
</event>
<event>
 4    1  0.6376580E-005  0.3515934E+03  0.7818608E-02  0.1061963E+00
          1   -1    0    0  501    0  0.00000000000E+00  0.00000000000E+00  0.22517167964E+04  0.22517167964E+04  0.50400000000E-02 0. -1.
         -1   -1    0    0    0  501 -0.00000000000E+00 -0.00000000000E+00 -0.13724848701E+02  0.13724849627E+02  0.50400000000E-02 0.  1.
    5000001    1    1    2    0    0  0.63580814357E+01  0.11628098765E+03  0.13434783339E+04  0.13544831955E+04  0.12700000000E+03 0.  0.
   -5000001    1    1    2    0    0 -0.63580814357E+01 -0.11628098765E+03  0.89451361378E+03  0.91095845050E+03  0.12700000000E+03 0.  0.
<mgrwt>
<rscale>  0 0.35159336E+03</rscale>
<asrwt>0</asrwt>
<pdfrwt beam="1">  1        1 0.32167354E+00 0.35159336E+03</pdfrwt>
<pdfrwt beam="2">  1       -1 0.19606945E-02 0.35159336E+03</pdfrwt>
<totfact> 0.20710961E+03</totfact>
</mgrwt>
</event>
<event>
 4    1  0.6376580E-005  0.2931281E+03  0.7818608E-02  0.1088727E+00
         -1   -1    0    0    0  501 -0.00000000000E+00  0.00000000000E+00  0.13261968967E+02  0.13261969924E+02  0.50400000000E-02 0. -1.
          1   -1    0    0  501    0  0.00000000000E+00 -0.00000000000E+00 -0.16197455085E+04  0.16197455085E+04  0.50400000000E-02 0.  1.
    5000001    1    1    2    0    0 -0.69436443899E+02  0.22332407184E+02 -0.77179696429E+03  0.78556967243E+03  0.12700000000E+03 0.  0.
   -5000001    1    1    2    0    0  0.69436443899E+02 -0.22332407184E+02 -0.83468657521E+03  0.84743780597E+03  0.12700000000E+03 0.  0.
<mgrwt>
<rscale>  0 0.29312806E+03</rscale>
<asrwt>0</asrwt>
<pdfrwt beam="1">  1        1 0.23139209E+00 0.29312806E+03</pdfrwt>
<pdfrwt beam="2">  1       -1 0.18945681E-02 0.29312806E+03</pdfrwt>
<totfact> 0.52855739E+03</totfact>
</mgrwt>
</event>
<event>
 4    1  0.6376580E-005  0.5821392E+03  0.7818608E-02  0.9943170E-01
          1   -1    0    0  501    0  0.00000000000E+00  0.00000000000E+00  0.74069589046E+03  0.74069589048E+03  0.50400000000E-02 0.  1.
         -1   -1    0    0    0  501 -0.00000000000E+00 -0.00000000000E+00 -0.11438097271E+03  0.11438097282E+03  0.50400000000E-02 0. -1.
    5000001    1    1    2    0    0  0.19931163125E+03  0.60920689326E+02  0.80187668918E+02  0.25689593026E+03  0.12700000000E+03 0.  0.
   -5000001    1    1    2    0    0 -0.19931163125E+03 -0.60920689326E+02  0.54612724883E+03  0.59818093304E+03  0.12700000000E+03 0.  0.
<mgrwt>
<rscale>  0 0.58213922E+03</rscale>
<asrwt>0</asrwt>
<pdfrwt beam="1">  1        1 0.10581369E+00 0.58213922E+03</pdfrwt>
<pdfrwt beam="2">  1       -1 0.16340140E-01 0.58213922E+03</pdfrwt>
<totfact> 0.80619403E+02</totfact>
</mgrwt>
</event>
<event>
 4    1  0.6376580E-005  0.3548410E+03  0.7818608E-02  0.1060645E+00
         -1   -1    0    0    0  501 -0.00000000000E+00  0.00000000000E+00  0.27459260657E+02  0.27459261119E+02  0.50400000000E-02 0. -1.
          1   -1    0    0  501    0  0.00000000000E+00 -0.00000000000E+00 -0.11463542703E+04  0.11463542703E+04  0.50400000000E-02 0.  1.
    5000001    1    1    2    0    0 -0.22867273140E+02  0.11911588000E+03 -0.64297272031E+03  0.66652413618E+03  0.12700000000E+03 0.  0.
   -5000001    1    1    2    0    0  0.22867273140E+02 -0.11911588000E+03 -0.47592228934E+03  0.50728939525E+03  0.12700000000E+03 0.  0.
<mgrwt>
<rscale>  0 0.35484104E+03</rscale>
<asrwt>0</asrwt>
<pdfrwt beam="1">  1        1 0.16376487E+00 0.35484104E+03</pdfrwt>
<pdfrwt beam="2">  1       -1 0.39227523E-02 0.35484104E+03</pdfrwt>
<totfact> 0.36390759E+03</totfact>
</mgrwt>
</event>
<event>
 4    1  0.6376580E-005  0.4904068E+03  0.7818608E-02  0.1016314E+00
         -1   -1    0    0    0  501 -0.00000000000E+00  0.00000000000E+00  0.86172749876E+02  0.86172750024E+02  0.50400000000E-02 0. -1.
          1   -1    0    0  501    0  0.00000000000E+00 -0.00000000000E+00 -0.69772284074E+03  0.69772284076E+03  0.50400000000E-02 0.  1.
    5000001    1    1    2    0    0  0.16638963358E+03  0.12620025041E+03 -0.27446470459E+03  0.36752127480E+03  0.12700000000E+03 0.  0.
   -5000001    1    1    2    0    0 -0.16638963358E+03 -0.12620025041E+03 -0.33708538627E+03  0.41637431598E+03  0.12700000000E+03 0.  0.
<mgrwt>
<rscale>  0 0.49040675E+03</rscale>
<asrwt>0</asrwt>
<pdfrwt beam="1">  1        1 0.99674689E-01 0.49040675E+03</pdfrwt>
<pdfrwt beam="2">  1       -1 0.12310393E-01 0.49040675E+03</pdfrwt>
<totfact> 0.13905141E+03</totfact>
</mgrwt>
</event>
<event>
 4    1  0.6376580E-005  0.5808505E+03  0.7818608E-02  0.9945951E-01
         -1   -1    0    0    0  501 -0.00000000000E+00  0.00000000000E+00  0.90765619440E+03  0.90765619441E+03  0.50400000000E-02 0.  1.
          1   -1    0    0  501    0  0.00000000000E+00 -0.00000000000E+00 -0.92928157497E+02  0.92928157634E+02  0.50400000000E-02 0. -1.
    5000001    1    1    2    0    0 -0.33397907771E+02 -0.23948979158E+03  0.57743322078E+03  0.63877140276E+03  0.12700000000E+03 0.  0.
   -5000001    1    1    2    0    0  0.33397907771E+02  0.23948979158E+03  0.23729481612E+03  0.36181294929E+03  0.12700000000E+03 0.  0.
<mgrwt>
<rscale>  0 0.58085047E+03</rscale>
<asrwt>0</asrwt>
<pdfrwt beam="1">  1        1 0.13275451E-01 0.58085047E+03</pdfrwt>
<pdfrwt beam="2">  1       -1 0.12966517E+00 0.58085047E+03</pdfrwt>
<totfact> 0.23701760E+02</totfact>
</mgrwt>
</event>
<event>
 4    1  0.6376580E-005  0.7008910E+03  0.7818608E-02  0.9715710E-01
          1   -1    0    0  501    0  0.00000000000E+00  0.00000000000E+00  0.74798883486E+02  0.74798883656E+02  0.50400000000E-02 0.  1.
         -1   -1    0    0    0  501 -0.00000000000E+00 -0.00000000000E+00 -0.16418966571E+04  0.16418966571E+04  0.50400000000E-02 0. -1.
    5000001    1    1    2    0    0 -0.30179421531E+03 -0.40488211424E+02 -0.10729816102E+04  0.11225584972E+04  0.12700000000E+03 0.  0.
   -5000001    1    1    2    0    0  0.30179421531E+03  0.40488211424E+02 -0.49411616335E+03  0.59413704357E+03  0.12700000000E+03 0.  0.
<mgrwt>
<rscale>  0 0.70089097E+03</rscale>
<asrwt>0</asrwt>
<pdfrwt beam="1">  1        1 0.10685556E-01 0.70089097E+03</pdfrwt>
<pdfrwt beam="2">  1       -1 0.23455664E+00 0.70089097E+03</pdfrwt>
<totfact> 0.55662968E+01</totfact>
</mgrwt>
</event>
<event>
 4    1  0.6376580E-005  0.3979067E+03  0.7818608E-02  0.1044507E+00
          1   -1    0    0  501    0  0.00000000000E+00  0.00000000000E+00  0.10214616263E+04  0.10214616263E+04  0.50400000000E-02 0.  1.
         -1   -1    0    0    0  501 -0.00000000000E+00 -0.00000000000E+00 -0.38750771015E+02  0.38750771342E+02  0.50400000000E-02 0. -1.
    5000001    1    1    2    0    0  0.13552209333E+03  0.61848348322E+02  0.58600881466E+03  0.61784042181E+03  0.12700000000E+03 0.  0.
   -5000001    1    1    2    0    0 -0.13552209333E+03 -0.61848348322E+02  0.39670204064E+03  0.44237197586E+03  0.12700000000E+03 0.  0.
<mgrwt>
<rscale>  0 0.39790665E+03</rscale>
<asrwt>0</asrwt>
<pdfrwt beam="1">  1        1 0.14592308E+00 0.39790665E+03</pdfrwt>
<pdfrwt beam="2">  1       -1 0.55358248E-02 0.39790665E+03</pdfrwt>
<totfact> 0.26503567E+03</totfact>
</mgrwt>
</event>
<event>
 4    1  0.6376580E-005  0.4090369E+03  0.7818608E-02  0.1040695E+00
          1   -1    0    0  501    0  0.00000000000E+00  0.00000000000E+00  0.49779461683E+03  0.49779461686E+03  0.50400000000E-02 0.  1.
         -1   -1    0    0    0  501 -0.00000000000E+00 -0.00000000000E+00 -0.84026207150E+02  0.84026207301E+02  0.50400000000E-02 0. -1.
    5000001    1    1    2    0    0 -0.77464876321E+02  0.13505279085E+03  0.26121102475E+03  0.32954553985E+03  0.12700000000E+03 0.  0.
   -5000001    1    1    2    0    0  0.77464876321E+02 -0.13505279085E+03  0.15255738493E+03  0.25227528431E+03  0.12700000000E+03 0.  0.
<mgrwt>
<rscale>  0 0.40903689E+03</rscale>
<asrwt>0</asrwt>
<pdfrwt beam="1">  1        1 0.71113519E-01 0.40903689E+03</pdfrwt>
<pdfrwt beam="2">  1       -1 0.12003743E-01 0.40903689E+03</pdfrwt>
<totfact> 0.23078395E+03</totfact>
</mgrwt>
</event>
<event>
 4    1  0.6376580E-005  0.2888485E+03  0.7818608E-02  0.1090952E+00
         -1   -1    0    0    0  501 -0.00000000000E+00  0.00000000000E+00  0.22154037181E+03  0.22154037187E+03  0.50400000000E-02 0. -1.
          1   -1    0    0  501    0  0.00000000000E+00 -0.00000000000E+00 -0.94151527343E+02  0.94151527478E+02  0.50400000000E-02 0.  1.
    5000001    1    1    2    0    0 -0.64819544911E+02  0.15357681697E+02  0.45020539561E+02  0.15031061430E+03  0.12700000000E+03 0.  0.
   -5000001    1    1    2    0    0  0.64819544911E+02 -0.15357681697E+02  0.82368304907E+02  0.16538128504E+03  0.12700000000E+03 0.  0.
<mgrwt>
<rscale>  0 0.28884850E+03</rscale>
<asrwt>0</asrwt>
<pdfrwt beam="1">  1        1 0.13450219E-01 0.28884850E+03</pdfrwt>
<pdfrwt beam="2">  1       -1 0.31648624E-01 0.28884850E+03</pdfrwt>
<totfact> 0.40000234E+03</totfact>
</mgrwt>
</event>
<event>
 4    1  0.6376580E-005  0.3412548E+03  0.7818608E-02  0.1066263E+00
         -1   -1    0    0    0  501 -0.00000000000E+00  0.00000000000E+00  0.22832608967E+03  0.22832608973E+03  0.50400000000E-02 0. -1.
          1   -1    0    0  501    0  0.00000000000E+00 -0.00000000000E+00 -0.12750937713E+03  0.12750937723E+03  0.50400000000E-02 0.  1.
    5000001    1    1    2    0    0  0.90484460123E+02  0.55073001869E+02  0.66108094995E+01  0.16550883922E+03  0.12700000000E+03 0.  0.
   -5000001    1    1    2    0    0 -0.90484460123E+02 -0.55073001869E+02  0.94205903041E+02  0.19032662774E+03  0.12700000000E+03 0.  0.
<mgrwt>
<rscale>  0 0.34125485E+03</rscale>
<asrwt>0</asrwt>
<pdfrwt beam="1">  1        1 0.18215625E-01 0.34125485E+03</pdfrwt>
<pdfrwt beam="2">  1       -1 0.32618013E-01 0.34125485E+03</pdfrwt>
<totfact> 0.25594368E+03</totfact>
</mgrwt>
</event>
<event>
 4    1  0.6376580E-005  0.3523260E+03  0.7818608E-02  0.1061664E+00
         -1   -1    0    0    0  501 -0.00000000000E+00  0.00000000000E+00  0.38922706991E+02  0.38922707318E+02  0.50400000000E-02 0.  1.
          1   -1    0    0  501    0  0.00000000000E+00 -0.00000000000E+00 -0.79730839858E+03  0.79730839860E+03  0.50400000000E-02 0. -1.
    5000001    1    1    2    0    0 -0.63747390730E+02 -0.80906518539E+02 -0.22364877975E+03  0.27705120691E+03  0.12700000000E+03 0.  0.
   -5000001    1    1    2    0    0  0.63747390730E+02  0.80906518539E+02 -0.53473691184E+03  0.55917989900E+03  0.12700000000E+03 0.  0.
<mgrwt>
<rscale>  0 0.35232599E+03</rscale>
<asrwt>0</asrwt>
<pdfrwt beam="1">  1        1 0.11390119E+00 0.35232599E+03</pdfrwt>
<pdfrwt beam="2">  1       -1 0.55603873E-02 0.35232599E+03</pdfrwt>
<totfact> 0.39037890E+03</totfact>
</mgrwt>
</event>
<event>
 4    1  0.6376580E-005  0.3194606E+03  0.7818608E-02  0.1075898E+00
          1   -1    0    0  501    0  0.00000000000E+00  0.00000000000E+00  0.58167904342E+02  0.58167904560E+02  0.50400000000E-02 0.  1.
         -1   -1    0    0    0  501 -0.00000000000E+00 -0.00000000000E+00 -0.43862288484E+03  0.43862288487E+03  0.50400000000E-02 0. -1.
    5000001    1    1    2    0    0 -0.60842801556E+02  0.74281087551E+02 -0.17023698516E+03  0.23308615915E+03  0.12700000000E+03 0.  0.
   -5000001    1    1    2    0    0  0.60842801556E+02 -0.74281087551E+02 -0.21021799534E+03  0.26370463029E+03  0.12700000000E+03 0.  0.
<mgrwt>
<rscale>  0 0.31946063E+03</rscale>
<asrwt>0</asrwt>
<pdfrwt beam="1">  1        1 0.83097009E-02 0.31946063E+03</pdfrwt>
<pdfrwt beam="2">  1       -1 0.62660410E-01 0.31946063E+03</pdfrwt>
<totfact> 0.22094062E+03</totfact>
</mgrwt>
</event>
<event>
 4    1  0.6376580E-005  0.3922990E+03  0.7818608E-02  0.1046479E+00
         -1   -1    0    0    0  501 -0.00000000000E+00  0.00000000000E+00  0.14859900898E+03  0.14859900907E+03  0.50400000000E-02 0.  1.
          1   -1    0    0  501    0  0.00000000000E+00 -0.00000000000E+00 -0.25891573929E+03  0.25891573934E+03  0.50400000000E-02 0. -1.
    5000001    1    1    2    0    0  0.45247386981E+02 -0.13990511566E+03 -0.27190991455E+02  0.19618643540E+03  0.12700000000E+03 0.  0.
   -5000001    1    1    2    0    0 -0.45247386981E+02  0.13990511566E+03 -0.83125738854E+02  0.21132831301E+03  0.12700000000E+03 0.  0.
<mgrwt>
<rscale>  0 0.39229898E+03</rscale>
<asrwt>0</asrwt>
<pdfrwt beam="1">  1        1 0.36987963E-01 0.39229898E+03</pdfrwt>
<pdfrwt beam="2">  1       -1 0.21228430E-01 0.39229898E+03</pdfrwt>
<totfact> 0.21332209E+03</totfact>
</mgrwt>
</event>
<event>
 4    1  0.6376580E-005  0.3268054E+03  0.7818608E-02  0.1072559E+00
          1   -1    0    0  501    0  0.00000000000E+00  0.00000000000E+00  0.19692820281E+04  0.19692820281E+04  0.50400000000E-02 0. -1.
         -1   -1    0    0    0  501 -0.00000000000E+00 -0.00000000000E+00 -0.13558467325E+02  0.13558468261E+02  0.50400000000E-02 0.  1.
    5000001    1    1    2    0    0  0.70910338820E+02 -0.58504405096E+02  0.12572499223E+04  0.12669875329E+04  0.12700000000E+03 0.  0.
   -5000001    1    1    2    0    0 -0.70910338820E+02  0.58504405096E+02  0.69847363850E+03  0.71585296343E+03  0.12700000000E+03 0.  0.
<mgrwt>
<rscale>  0 0.32680543E+03</rscale>
<asrwt>0</asrwt>
<pdfrwt beam="1">  1        1 0.28132621E+00 0.32680543E+03</pdfrwt>
<pdfrwt beam="2">  1       -1 0.19369226E-02 0.32680543E+03</pdfrwt>
<totfact> 0.31317965E+03</totfact>
</mgrwt>
</event>
<event>
 4    1  0.6376580E-005  0.3189063E+03  0.7818608E-02  0.1076154E+00
          1   -1    0    0  501    0  0.00000000000E+00  0.00000000000E+00  0.15906323914E+04  0.15906323914E+04  0.50400000000E-02 0.  1.
         -1   -1    0    0    0  501 -0.00000000000E+00 -0.00000000000E+00 -0.15984398138E+02  0.15984398933E+02  0.50400000000E-02 0. -1.
    5000001    1    1    2    0    0 -0.31598767167E+02  0.90837516289E+02  0.82162819848E+03  0.83693000483E+03  0.12700000000E+03 0.  0.
   -5000001    1    1    2    0    0  0.31598767167E+02 -0.90837516289E+02  0.75301979479E+03  0.76968678552E+03  0.12700000000E+03 0.  0.
<mgrwt>
<rscale>  0 0.31890627E+03</rscale>
<asrwt>0</asrwt>
<pdfrwt beam="1">  1        1 0.22723326E+00 0.31890627E+03</pdfrwt>
<pdfrwt beam="2">  1       -1 0.22834849E-02 0.31890627E+03</pdfrwt>
<totfact> 0.41909969E+03</totfact>
</mgrwt>
</event>
<event>
 4    1  0.6376580E-005  0.4296943E+03  0.7818608E-02  0.1033957E+00
          1   -1    0    0  501    0  0.00000000000E+00  0.00000000000E+00  0.43801208923E+03  0.43801208926E+03  0.50400000000E-02 0. -1.
         -1   -1    0    0    0  501 -0.00000000000E+00 -0.00000000000E+00 -0.10538359860E+03  0.10538359872E+03  0.50400000000E-02 0.  1.
    5000001    1    1    2    0    0 -0.14983549806E+03 -0.36499020018E+01  0.27631563682E+03  0.33903293264E+03  0.12700000000E+03 0.  0.
   -5000001    1    1    2    0    0  0.14983549806E+03  0.36499020018E+01  0.56312853817E+02  0.20436275534E+03  0.12700000000E+03 0.  0.
<mgrwt>
<rscale>  0 0.42969426E+03</rscale>
<asrwt>0</asrwt>
<pdfrwt beam="1">  1        1 0.62573156E-01 0.42969426E+03</pdfrwt>
<pdfrwt beam="2">  1       -1 0.15054800E-01 0.42969426E+03</pdfrwt>
<totfact> 0.19049562E+03</totfact>
</mgrwt>
</event>
<event>
 4    1  0.6376580E-005  0.7533739E+03  0.7818608E-02  0.9630072E-01
          1   -1    0    0  501    0  0.00000000000E+00  0.00000000000E+00  0.84481367349E+03  0.84481367350E+03  0.50400000000E-02 0.  1.
         -1   -1    0    0    0  501 -0.00000000000E+00 -0.00000000000E+00 -0.16795783427E+03  0.16795783434E+03  0.50400000000E-02 0. -1.
    5000001    1    1    2    0    0 -0.18249578380E+03 -0.23987717631E+03  0.58963244044E+03  0.67427085480E+03  0.12700000000E+03 0.  0.
   -5000001    1    1    2    0    0  0.18249578380E+03  0.23987717631E+03  0.87223398779E+02  0.33850065304E+03  0.12700000000E+03 0.  0.
<mgrwt>
<rscale>  0 0.75337394E+03</rscale>
<asrwt>0</asrwt>
<pdfrwt beam="1">  1        1 0.12068767E+00 0.75337394E+03</pdfrwt>
<pdfrwt beam="2">  1       -1 0.23993976E-01 0.75337394E+03</pdfrwt>
<totfact> 0.34584007E+02</totfact>
</mgrwt>
</event>
<event>
 4    1  0.6376580E-005  0.2943763E+03  0.7818608E-02  0.1088086E+00
         -1   -1    0    0    0  501 -0.00000000000E+00  0.00000000000E+00  0.23460719394E+02  0.23460719935E+02  0.50400000000E-02 0.  1.
          1   -1    0    0  501    0  0.00000000000E+00 -0.00000000000E+00 -0.92343101395E+03  0.92343101396E+03  0.50400000000E-02 0. -1.
    5000001    1    1    2    0    0  0.31001654107E+02 -0.20891115648E+01 -0.66743057106E+03  0.68011619164E+03  0.12700000000E+03 0.  0.
   -5000001    1    1    2    0    0 -0.31001654107E+02  0.20891115648E+01 -0.23253972350E+03  0.26677554226E+03  0.12700000000E+03 0.  0.
<mgrwt>
<rscale>  0 0.29437633E+03</rscale>
<asrwt>0</asrwt>
<pdfrwt beam="1">  1        1 0.13191869E+00 0.29437633E+03</pdfrwt>
<pdfrwt beam="2">  1       -1 0.33515320E-02 0.29437633E+03</pdfrwt>
<totfact> 0.66164878E+03</totfact>
</mgrwt>
</event>
<event>
 4    1  0.6376580E-005  0.3243343E+03  0.7818608E-02  0.1073672E+00
         -1   -1    0    0    0  501 -0.00000000000E+00  0.00000000000E+00  0.16448813075E+03  0.16448813083E+03  0.50400000000E-02 0. -1.
          1   -1    0    0  501    0  0.00000000000E+00 -0.00000000000E+00 -0.15987889660E+03  0.15987889668E+03  0.50400000000E-02 0.  1.
    5000001    1    1    2    0    0  0.11172574860E+02  0.94141590062E+02 -0.32074942673E+02  0.16169498247E+03  0.12700000000E+03 0.  0.
   -5000001    1    1    2    0    0 -0.11172574860E+02 -0.94141590062E+02  0.36684176818E+02  0.16267204504E+03  0.12700000000E+03 0.  0.
<mgrwt>
<rscale>  0 0.32433428E+03</rscale>
<asrwt>0</asrwt>
<pdfrwt beam="1">  1        1 0.22839842E-01 0.32433428E+03</pdfrwt>
<pdfrwt beam="2">  1       -1 0.23498304E-01 0.32433428E+03</pdfrwt>
<totfact> 0.33233951E+03</totfact>
</mgrwt>
</event>
<event>
 4    1  0.6376580E-005  0.3086045E+03  0.7818608E-02  0.1081017E+00
         -1   -1    0    0    0  501 -0.00000000000E+00  0.00000000000E+00  0.69185849836E+02  0.69185850019E+02  0.50400000000E-02 0. -1.
          1   -1    0    0  501    0  0.00000000000E+00 -0.00000000000E+00 -0.34413363333E+03  0.34413363337E+03  0.50400000000E-02 0.  1.
    5000001    1    1    2    0    0 -0.20241231419E+02  0.63207746494E+02 -0.60824980019E+02  0.15567146450E+03  0.12700000000E+03 0.  0.
   -5000001    1    1    2    0    0  0.20241231419E+02 -0.63207746494E+02 -0.21412280348E+03  0.25764801888E+03  0.12700000000E+03 0.  0.
<mgrwt>
<rscale>  0 0.30860446E+03</rscale>
<asrwt>0</asrwt>
<pdfrwt beam="1">  1        1 0.49161947E-01 0.30860446E+03</pdfrwt>
<pdfrwt beam="2">  1       -1 0.98836930E-02 0.30860446E+03</pdfrwt>
<totfact> 0.50120925E+03</totfact>
</mgrwt>
</event>
<event>
 4    1  0.6376580E-005  0.6909526E+03  0.7818608E-02  0.9732831E-01
         -1   -1    0    0    0  501 -0.00000000000E+00  0.00000000000E+00  0.35624504252E+03  0.35624504255E+03  0.50400000000E-02 0. -1.
          1   -1    0    0  501    0  0.00000000000E+00 -0.00000000000E+00 -0.33503312033E+03  0.33503312037E+03  0.50400000000E-02 0.  1.
    5000001    1    1    2    0    0 -0.53745467195E+02 -0.30782921748E+03  0.85323712738E+02  0.34793180126E+03  0.12700000000E+03 0.  0.
   -5000001    1    1    2    0    0  0.53745467195E+02  0.30782921748E+03 -0.64111790551E+02  0.34334636166E+03  0.12700000000E+03 0.  0.
<mgrwt>
<rscale>  0 0.69095264E+03</rscale>
<asrwt>0</asrwt>
<pdfrwt beam="1">  1        1 0.47861875E-01 0.69095264E+03</pdfrwt>
<pdfrwt beam="2">  1       -1 0.50892149E-01 0.69095264E+03</pdfrwt>
<totfact> 0.32833297E+02</totfact>
</mgrwt>
</event>
<event>
 4    1  0.6376580E-005  0.6867899E+03  0.7818608E-02  0.9740094E-01
         -1   -1    0    0    0  501 -0.00000000000E+00  0.00000000000E+00  0.46198161717E+03  0.46198161720E+03  0.50400000000E-02 0. -1.
          1   -1    0    0  501    0  0.00000000000E+00 -0.00000000000E+00 -0.25524845371E+03  0.25524845376E+03  0.50400000000E-02 0.  1.
    5000001    1    1    2    0    0  0.28065534022E+03  0.14361950249E+03  0.52236234006E+02  0.34387731189E+03  0.12700000000E+03 0.  0.
   -5000001    1    1    2    0    0 -0.28065534022E+03 -0.14361950249E+03  0.15449692946E+03  0.37335275907E+03  0.12700000000E+03 0.  0.
<mgrwt>
<rscale>  0 0.68678991E+03</rscale>
<asrwt>0</asrwt>
<pdfrwt beam="1">  1        1 0.36464065E-01 0.68678991E+03</pdfrwt>
<pdfrwt beam="2">  1       -1 0.65997374E-01 0.68678991E+03</pdfrwt>
<totfact> 0.28095948E+02</totfact>
</mgrwt>
</event>
<event>
 4    1  0.6376580E-005  0.3009336E+03  0.7818608E-02  0.1084775E+00
         -1   -1    0    0    0  501 -0.00000000000E+00  0.00000000000E+00  0.33074174865E+02  0.33074175249E+02  0.50400000000E-02 0. -1.
          1   -1    0    0  501    0  0.00000000000E+00 -0.00000000000E+00 -0.68452970567E+03  0.68452970568E+03  0.50400000000E-02 0.  1.
    5000001    1    1    2    0    0 -0.54989982603E+02 -0.59026879901E+02 -0.32147235900E+03  0.35493879520E+03  0.12700000000E+03 0.  0.
   -5000001    1    1    2    0    0  0.54989982603E+02  0.59026879901E+02 -0.32998317180E+03  0.36266508573E+03  0.12700000000E+03 0.  0.
<mgrwt>
<rscale>  0 0.30093358E+03</rscale>
<asrwt>0</asrwt>
<pdfrwt beam="1">  1        1 0.97789950E-01 0.30093358E+03</pdfrwt>
<pdfrwt beam="2">  1       -1 0.47248826E-02 0.30093358E+03</pdfrwt>
<totfact> 0.62129896E+03</totfact>
</mgrwt>
</event>
<event>
 4    1  0.6376580E-005  0.5668294E+03  0.7818608E-02  0.9976719E-01
          1   -1    0    0  501    0  0.00000000000E+00  0.00000000000E+00  0.35235821021E+04  0.35235821021E+04  0.50400000000E-02 0. -1.
         -1   -1    0    0    0  501 -0.00000000000E+00 -0.00000000000E+00 -0.22796086894E+02  0.22796087452E+02  0.50400000000E-02 0.  1.
    5000001    1    1    2    0    0  0.24242494025E+03  0.60181079746E+02  0.14847103727E+04  0.15109220710E+04  0.12700000000E+03 0.  0.
   -5000001    1    1    2    0    0 -0.24242494025E+03 -0.60181079746E+02  0.20160756425E+04  0.20354561185E+04  0.12700000000E+03 0.  0.
<mgrwt>
<rscale>  0 0.56682937E+03</rscale>
<asrwt>0</asrwt>
<pdfrwt beam="1">  1        1 0.50336871E+00 0.56682937E+03</pdfrwt>
<pdfrwt beam="2">  1       -1 0.32565849E-02 0.56682937E+03</pdfrwt>
<totfact> 0.14612011E+02</totfact>
</mgrwt>
</event>
<event>
 4    1  0.6376580E-005  0.3039706E+03  0.7818608E-02  0.1083272E+00
          1   -1    0    0  501    0  0.00000000000E+00  0.00000000000E+00  0.57591376786E+03  0.57591376788E+03  0.50400000000E-02 0. -1.
         -1   -1    0    0    0  501 -0.00000000000E+00 -0.00000000000E+00 -0.40109345473E+02  0.40109345790E+02  0.50400000000E-02 0.  1.
    5000001    1    1    2    0    0  0.77796069198E+02 -0.27943542465E+02  0.24414229689E+03  0.28734566480E+03  0.12700000000E+03 0.  0.
   -5000001    1    1    2    0    0 -0.77796069198E+02  0.27943542465E+02  0.29166212550E+03  0.32867744887E+03  0.12700000000E+03 0.  0.
<mgrwt>
<rscale>  0 0.30397055E+03</rscale>
<asrwt>0</asrwt>
<pdfrwt beam="1">  1        1 0.82273393E-01 0.30397055E+03</pdfrwt>
<pdfrwt beam="2">  1       -1 0.57299067E-02 0.30397055E+03</pdfrwt>
<totfact> 0.59054860E+03</totfact>
</mgrwt>
</event>
<event>
 4    1  0.6376580E-005  0.6300490E+03  0.7818608E-02  0.9844953E-01
         -1   -1    0    0    0  501 -0.00000000000E+00  0.00000000000E+00  0.10047020775E+04  0.10047020776E+04  0.50400000000E-02 0.  1.
          1   -1    0    0  501    0  0.00000000000E+00 -0.00000000000E+00 -0.98775988786E+02  0.98775988914E+02  0.50400000000E-02 0. -1.
    5000001    1    1    2    0    0 -0.47825027352E+02  0.28337995566E+03  0.41302427537E+03  0.51895036811E+03  0.12700000000E+03 0.  0.
   -5000001    1    1    2    0    0  0.47825027352E+02 -0.28337995566E+03  0.49290181338E+03  0.58452769836E+03  0.12700000000E+03 0.  0.
<mgrwt>
<rscale>  0 0.63004902E+03</rscale>
<asrwt>0</asrwt>
<pdfrwt beam="1">  1        1 0.14110855E-01 0.63004902E+03</pdfrwt>
<pdfrwt beam="2">  1       -1 0.14352887E+00 0.63004902E+03</pdfrwt>
<totfact> 0.16790333E+02</totfact>
</mgrwt>
</event>
<event>
 4    1  0.6376580E-005  0.3683769E+03  0.7818608E-02  0.1055315E+00
         -1   -1    0    0    0  501 -0.00000000000E+00  0.00000000000E+00  0.14169593663E+03  0.14169593672E+03  0.50400000000E-02 0. -1.
          1   -1    0    0  501    0  0.00000000000E+00 -0.00000000000E+00 -0.23942387120E+03  0.23942387125E+03  0.50400000000E-02 0.  1.
    5000001    1    1    2    0    0 -0.39935271606E+02 -0.12717404387E+03 -0.54370325508E+02  0.19197186161E+03  0.12700000000E+03 0.  0.
   -5000001    1    1    2    0    0  0.39935271606E+02  0.12717404387E+03 -0.43357609059E+02  0.18914794637E+03  0.12700000000E+03 0.  0.
<mgrwt>
<rscale>  0 0.36837692E+03</rscale>
<asrwt>0</asrwt>
<pdfrwt beam="1">  1        1 0.34203410E-01 0.36837692E+03</pdfrwt>
<pdfrwt beam="2">  1       -1 0.20242277E-01 0.36837692E+03</pdfrwt>
<totfact> 0.25456570E+03</totfact>
</mgrwt>
</event>
<event>
 4    1  0.6376580E-005  0.4563826E+03  0.7818608E-02  0.1025836E+00
          1   -1    0    0  501    0  0.00000000000E+00  0.00000000000E+00  0.27794575029E+03  0.27794575034E+03  0.50400000000E-02 0.  1.
         -1   -1    0    0    0  501 -0.00000000000E+00 -0.00000000000E+00 -0.18734328876E+03  0.18734328883E+03  0.50400000000E-02 0. -1.
    5000001    1    1    2    0    0 -0.18348001575E+03 -0.42162114312E+02  0.68091694230E+02  0.23708234621E+03  0.12700000000E+03 0.  0.
   -5000001    1    1    2    0    0  0.18348001575E+03  0.42162114312E+02  0.22510767304E+02  0.22820669295E+03  0.12700000000E+03 0.  0.
<mgrwt>
<rscale>  0 0.45638261E+03</rscale>
<asrwt>0</asrwt>
<pdfrwt beam="1">  1        1 0.39706536E-01 0.45638261E+03</pdfrwt>
<pdfrwt beam="2">  1       -1 0.26763327E-01 0.45638261E+03</pdfrwt>
<totfact> 0.13238632E+03</totfact>
</mgrwt>
</event>
<event>
 4    1  0.6376580E-005  0.7878770E+03  0.7818608E-02  0.9577732E-01
         -1   -1    0    0    0  501 -0.00000000000E+00  0.00000000000E+00  0.47566398206E+03  0.47566398209E+03  0.50400000000E-02 0. -1.
          1   -1    0    0  501    0  0.00000000000E+00 -0.00000000000E+00 -0.32625457372E+03  0.32625457376E+03  0.50400000000E-02 0.  1.
    5000001    1    1    2    0    0 -0.42512396092E+02 -0.31604162360E+03  0.27146035191E+03  0.43761779480E+03  0.12700000000E+03 0.  0.
   -5000001    1    1    2    0    0  0.42512396092E+02  0.31604162360E+03 -0.12205094357E+03  0.36430076104E+03  0.12700000000E+03 0.  0.
<mgrwt>
<rscale>  0 0.78787702E+03</rscale>
<asrwt>0</asrwt>
<pdfrwt beam="1">  1        1 0.46607797E-01 0.78787702E+03</pdfrwt>
<pdfrwt beam="2">  1       -1 0.67951996E-01 0.78787702E+03</pdfrwt>
<totfact> 0.19199816E+02</totfact>
</mgrwt>
</event>
<event>
 4    1  0.6376580E-005  0.3756318E+03  0.7818608E-02  0.1052560E+00
          1   -1    0    0  501    0  0.00000000000E+00  0.00000000000E+00  0.18424528862E+04  0.18424528862E+04  0.50400000000E-02 0.  1.
         -1   -1    0    0    0  501 -0.00000000000E+00 -0.00000000000E+00 -0.19145574699E+02  0.19145575362E+02  0.50400000000E-02 0. -1.
    5000001    1    1    2    0    0 -0.12062438760E+03 -0.68072464875E+01  0.12459202415E+04  0.12581902994E+04  0.12700000000E+03 0.  0.
   -5000001    1    1    2    0    0  0.12062438760E+03  0.68072464875E+01  0.57738707001E+03  0.60340816211E+03  0.12700000000E+03 0.  0.
<mgrwt>
<rscale>  0 0.37563184E+03</rscale>
<asrwt>0</asrwt>
<pdfrwt beam="1">  1        1 0.26320748E+00 0.37563184E+03</pdfrwt>
<pdfrwt beam="2">  1       -1 0.27350829E-02 0.37563184E+03</pdfrwt>
<totfact> 0.22448435E+03</totfact>
</mgrwt>
</event>
<event>
 4    1  0.6376580E-005  0.6547062E+03  0.7818608E-02  0.9797988E-01
          1   -1    0    0  501    0  0.00000000000E+00  0.00000000000E+00  0.12941988667E+04  0.12941988667E+04  0.50400000000E-02 0.  1.
         -1   -1    0    0    0  501 -0.00000000000E+00 -0.00000000000E+00 -0.82800308874E+02  0.82800309028E+02  0.50400000000E-02 0. -1.
    5000001    1    1    2    0    0  0.15311475503E+03  0.25886623296E+03  0.65614227611E+03  0.73287621143E+03  0.12700000000E+03 0.  0.
   -5000001    1    1    2    0    0 -0.15311475503E+03 -0.25886623296E+03  0.55525628173E+03  0.64412296433E+03  0.12700000000E+03 0.  0.
<mgrwt>
<rscale>  0 0.65470624E+03</rscale>
<asrwt>0</asrwt>
<pdfrwt beam="1">  1        1 0.18488553E+00 0.65470624E+03</pdfrwt>
<pdfrwt beam="2">  1       -1 0.11828617E-01 0.65470624E+03</pdfrwt>
<totfact> 0.52283571E+02</totfact>
</mgrwt>
</event>
<event>
 4    1  0.6376580E-005  0.3793326E+03  0.7818608E-02  0.1051181E+00
          1   -1    0    0  501    0  0.00000000000E+00  0.00000000000E+00  0.54439581454E+03  0.54439581456E+03  0.50400000000E-02 0.  1.
         -1   -1    0    0    0  501 -0.00000000000E+00 -0.00000000000E+00 -0.66079330276E+02  0.66079330469E+02  0.50400000000E-02 0. -1.
    5000001    1    1    2    0    0 -0.11882312411E+03 -0.58593902775E+01  0.11775123797E+03  0.21011335350E+03  0.12700000000E+03 0.  0.
   -5000001    1    1    2    0    0  0.11882312411E+03  0.58593902775E+01  0.36056524629E+03  0.40036179152E+03  0.12700000000E+03 0.  0.
<mgrwt>
<rscale>  0 0.37933263E+03</rscale>
<asrwt>0</asrwt>
<pdfrwt beam="1">  1        1 0.77770828E-01 0.37933263E+03</pdfrwt>
<pdfrwt beam="2">  1       -1 0.94399046E-02 0.37933263E+03</pdfrwt>
<totfact> 0.29804039E+03</totfact>
</mgrwt>
</event>
<event>
 4    1  0.6376580E-005  0.3223622E+03  0.7818608E-02  0.1074567E+00
          1   -1    0    0  501    0  0.00000000000E+00  0.00000000000E+00  0.20155866449E+03  0.20155866455E+03  0.50400000000E-02 0.  1.
         -1   -1    0    0    0  501 -0.00000000000E+00 -0.00000000000E+00 -0.12889221085E+03  0.12889221095E+03  0.50400000000E-02 0. -1.
    5000001    1    1    2    0    0  0.77127551403E+02  0.59047971934E+02  0.57216434736E+02  0.16981767452E+03  0.12700000000E+03 0.  0.
   -5000001    1    1    2    0    0 -0.77127551403E+02 -0.59047971934E+02  0.15450018903E+02  0.16063320099E+03  0.12700000000E+03 0.  0.
<mgrwt>
<rscale>  0 0.32236217E+03</rscale>
<asrwt>0</asrwt>
<pdfrwt beam="1">  1        1 0.28794095E-01 0.32236217E+03</pdfrwt>
<pdfrwt beam="2">  1       -1 0.18413173E-01 0.32236217E+03</pdfrwt>
<totfact> 0.36862833E+03</totfact>
</mgrwt>
</event>
<event>
 4    1  0.6376580E-005  0.4688463E+03  0.7818608E-02  0.1022246E+00
         -1   -1    0    0    0  501 -0.00000000000E+00  0.00000000000E+00  0.36193107580E+02  0.36193107931E+02  0.50400000000E-02 0. -1.
          1   -1    0    0  501    0  0.00000000000E+00 -0.00000000000E+00 -0.15183610303E+04  0.15183610303E+04  0.50400000000E-02 0.  1.
    5000001    1    1    2    0    0  0.16504078390E+03  0.63636365795E+01 -0.10973675657E+04  0.11169706936E+04  0.12700000000E+03 0.  0.
   -5000001    1    1    2    0    0 -0.16504078390E+03 -0.63636365795E+01 -0.38480035708E+03  0.43758344465E+03  0.12700000000E+03 0.  0.
<mgrwt>
<rscale>  0 0.46884626E+03</rscale>
<asrwt>0</asrwt>
<pdfrwt beam="1">  1        1 0.21690868E+00 0.46884626E+03</pdfrwt>
<pdfrwt beam="2">  1       -1 0.51704449E-02 0.46884626E+03</pdfrwt>
<totfact> 0.13662479E+03</totfact>
</mgrwt>
</event>
<event>
 4    1  0.6376580E-005  0.5365437E+03  0.7818608E-02  0.1004657E+00
         -1   -1    0    0    0  501 -0.00000000000E+00  0.00000000000E+00  0.22190860727E+03  0.22190860733E+03  0.50400000000E-02 0. -1.
          1   -1    0    0  501    0  0.00000000000E+00 -0.00000000000E+00 -0.32432169623E+03  0.32432169627E+03  0.50400000000E-02 0.  1.
    5000001    1    1    2    0    0  0.19333905308E+03 -0.38228898555E+02 -0.18394193176E+03  0.29800179931E+03  0.12700000000E+03 0.  0.
   -5000001    1    1    2    0    0 -0.19333905308E+03  0.38228898555E+02  0.81528842804E+02  0.24822850429E+03  0.12700000000E+03 0.  0.
<mgrwt>
<rscale>  0 0.53654366E+03</rscale>
<asrwt>0</asrwt>
<pdfrwt beam="1">  1        1 0.46331671E-01 0.53654366E+03</pdfrwt>
<pdfrwt beam="2">  1       -1 0.31701230E-01 0.53654366E+03</pdfrwt>
<totfact> 0.81161479E+02</totfact>
</mgrwt>
</event>
<event>
 4    1  0.6376580E-005  0.4683108E+03  0.7818608E-02  0.1022398E+00
          1   -1    0    0  501    0  0.00000000000E+00  0.00000000000E+00  0.38502992250E+03  0.38502992253E+03  0.50400000000E-02 0. -1.
         -1   -1    0    0    0  501 -0.00000000000E+00 -0.00000000000E+00 -0.14240128559E+03  0.14240128568E+03  0.50400000000E-02 0.  1.
    5000001    1    1    2    0    0 -0.76300206510E+02  0.75432717522E+02  0.30701768627E+03  0.34914277318E+03  0.12700000000E+03 0.  0.
   -5000001    1    1    2    0    0  0.76300206510E+02 -0.75432717522E+02 -0.64389049363E+02  0.17828843503E+03  0.12700000000E+03 0.  0.
<mgrwt>
<rscale>  0 0.46831082E+03</rscale>
<asrwt>0</asrwt>
<pdfrwt beam="1">  1        1 0.55004275E-01 0.46831082E+03</pdfrwt>
<pdfrwt beam="2">  1       -1 0.20343041E-01 0.46831082E+03</pdfrwt>
<totfact> 0.13801679E+03</totfact>
</mgrwt>
</event>
<event>
 4    1  0.6376580E-005  0.4170992E+03  0.7818608E-02  0.1038015E+00
         -1   -1    0    0    0  501 -0.00000000000E+00  0.00000000000E+00  0.13531553043E+03  0.13531553052E+03  0.50400000000E-02 0.  1.
          1   -1    0    0  501    0  0.00000000000E+00 -0.00000000000E+00 -0.32141867491E+03  0.32141867495E+03  0.50400000000E-02 0. -1.
    5000001    1    1    2    0    0  0.12551231875E+03 -0.21914271076E+02  0.22474176894E+02  0.18129441818E+03  0.12700000000E+03 0.  0.
   -5000001    1    1    2    0    0 -0.12551231875E+03  0.21914271076E+02 -0.20857732138E+03  0.27543978730E+03  0.12700000000E+03 0.  0.
<mgrwt>
<rscale>  0 0.41709921E+03</rscale>
<asrwt>0</asrwt>
<pdfrwt beam="1">  1        1 0.45916954E-01 0.41709921E+03</pdfrwt>
<pdfrwt beam="2">  1       -1 0.19330790E-01 0.41709921E+03</pdfrwt>
<totfact> 0.18914741E+03</totfact>
</mgrwt>
</event>
<event>
 4    1  0.6376580E-005  0.3844746E+03  0.7818608E-02  0.1049292E+00
          1   -1    0    0  501    0  0.00000000000E+00  0.00000000000E+00  0.20478144933E+03  0.20478144939E+03  0.50400000000E-02 0.  1.
         -1   -1    0    0    0  501 -0.00000000000E+00 -0.00000000000E+00 -0.18046160299E+03  0.18046160306E+03  0.50400000000E-02 0. -1.
    5000001    1    1    2    0    0  0.13348572087E+03  0.26483401017E+02  0.60280694485E+02  0.19565932212E+03  0.12700000000E+03 0.  0.
   -5000001    1    1    2    0    0 -0.13348572087E+03 -0.26483401017E+02 -0.35960848144E+02  0.18958373033E+03  0.12700000000E+03 0.  0.
<mgrwt>
<rscale>  0 0.38447465E+03</rscale>
<asrwt>0</asrwt>
<pdfrwt beam="1">  1        1 0.29254493E-01 0.38447465E+03</pdfrwt>
<pdfrwt beam="2">  1       -1 0.25780229E-01 0.38447465E+03</pdfrwt>
<totfact> 0.20793757E+03</totfact>
</mgrwt>
</event>
<event>
 4    1  0.6376580E-005  0.4168905E+03  0.7818608E-02  0.1038083E+00
         -1   -1    0    0    0  501 -0.00000000000E+00  0.00000000000E+00  0.55443650572E+02  0.55443650801E+02  0.50400000000E-02 0. -1.
          1   -1    0    0  501    0  0.00000000000E+00 -0.00000000000E+00 -0.78366810511E+03  0.78366810513E+03  0.50400000000E-02 0.  1.
    5000001    1    1    2    0    0  0.12678396134E+03  0.48161519460E+02 -0.55428295606E+03  0.58459584346E+03  0.12700000000E+03 0.  0.
   -5000001    1    1    2    0    0 -0.12678396134E+03 -0.48161519460E+02 -0.17394149848E+03  0.25451591248E+03  0.12700000000E+03 0.  0.
<mgrwt>
<rscale>  0 0.41689049E+03</rscale>
<asrwt>0</asrwt>
<pdfrwt beam="1">  1        1 0.11195258E+00 0.41689049E+03</pdfrwt>
<pdfrwt beam="2">  1       -1 0.79205220E-02 0.41689049E+03</pdfrwt>
<totfact> 0.23361585E+03</totfact>
</mgrwt>
</event>
<event>
 4    1  0.6376580E-005  0.3391051E+03  0.7818608E-02  0.1067178E+00
         -1   -1    0    0    0  501 -0.00000000000E+00  0.00000000000E+00  0.47561751721E+02  0.47561751988E+02  0.50400000000E-02 0. -1.
          1   -1    0    0  501    0  0.00000000000E+00 -0.00000000000E+00 -0.60443684275E+03  0.60443684278E+03  0.50400000000E-02 0.  1.
    5000001    1    1    2    0    0 -0.73857825187E+02 -0.23422693138E+02 -0.12205338257E+03  0.19243084236E+03  0.12700000000E+03 0.  0.
   -5000001    1    1    2    0    0  0.73857825187E+02  0.23422693138E+02 -0.43482170847E+03  0.45956775240E+03  0.12700000000E+03 0.  0.
<mgrwt>
<rscale>  0 0.33910515E+03</rscale>
<asrwt>0</asrwt>
<pdfrwt beam="1">  1        1 0.86348116E-01 0.33910515E+03</pdfrwt>
<pdfrwt beam="2">  1       -1 0.67945363E-02 0.33910515E+03</pdfrwt>
<totfact> 0.42800587E+03</totfact>
</mgrwt>
</event>
<event>
 4    1  0.6376580E-005  0.3378790E+03  0.7818608E-02  0.1067703E+00
         -1   -1    0    0    0  501 -0.00000000000E+00  0.00000000000E+00  0.17348918254E+03  0.17348918261E+03  0.50400000000E-02 0. -1.
          1   -1    0    0  501    0  0.00000000000E+00 -0.00000000000E+00 -0.16450913354E+03  0.16450913362E+03  0.50400000000E-02 0.  1.
    5000001    1    1    2    0    0 -0.46447950743E+02 -0.92228091188E+02 -0.37335291040E+02  0.16788792955E+03  0.12700000000E+03 0.  0.
   -5000001    1    1    2    0    0  0.46447950743E+02  0.92228091188E+02  0.46315340041E+02  0.17011038668E+03  0.12700000000E+03 0.  0.
<mgrwt>
<rscale>  0 0.33787900E+03</rscale>
<asrwt>0</asrwt>
<pdfrwt beam="1">  1        1 0.23501305E-01 0.33787900E+03</pdfrwt>
<pdfrwt beam="2">  1       -1 0.24784169E-01 0.33787900E+03</pdfrwt>
<totfact> 0.29344195E+03</totfact>
</mgrwt>
</event>
<event>
 4    1  0.6376580E-005  0.6579076E+03  0.7818608E-02  0.9792053E-01
          1   -1    0    0  501    0  0.00000000000E+00  0.00000000000E+00  0.32415791464E+04  0.32415791464E+04  0.50400000000E-02 0.  1.
         -1   -1    0    0    0  501 -0.00000000000E+00 -0.00000000000E+00 -0.33382063211E+02  0.33382063592E+02  0.50400000000E-02 0. -1.
    5000001    1    1    2    0    0  0.29897296719E+03  0.38521535771E+02  0.14307396908E+04  0.14676558884E+04  0.12700000000E+03 0.  0.
   -5000001    1    1    2    0    0 -0.29897296719E+03 -0.38521535771E+02  0.17774573923E+04  0.18073053215E+04  0.12700000000E+03 0.  0.
<mgrwt>
<rscale>  0 0.65790759E+03</rscale>
<asrwt>0</asrwt>
<pdfrwt beam="1">  1        1 0.46308288E+00 0.65790759E+03</pdfrwt>
<pdfrwt beam="2">  1       -1 0.47688647E-02 0.65790759E+03</pdfrwt>
<totfact> 0.12552572E+02</totfact>
</mgrwt>
</event>
<event>
 4    1  0.6376580E-005  0.3362339E+03  0.7818608E-02  0.1068411E+00
          1   -1    0    0  501    0  0.00000000000E+00  0.00000000000E+00  0.87951016593E+02  0.87951016738E+02  0.50400000000E-02 0.  1.
         -1   -1    0    0    0  501 -0.00000000000E+00 -0.00000000000E+00 -0.32135282119E+03  0.32135282123E+03  0.50400000000E-02 0. -1.
    5000001    1    1    2    0    0  0.25719974831E+02  0.10675830977E+03 -0.10612678490E+03  0.19862212435E+03  0.12700000000E+03 0.  0.
   -5000001    1    1    2    0    0 -0.25719974831E+02 -0.10675830977E+03 -0.12727501970E+03  0.21068171361E+03  0.12700000000E+03 0.  0.
<mgrwt>
<rscale>  0 0.33623389E+03</rscale>
<asrwt>0</asrwt>
<pdfrwt beam="1">  1        1 0.12564431E-01 0.33623389E+03</pdfrwt>
<pdfrwt beam="2">  1       -1 0.45907545E-01 0.33623389E+03</pdfrwt>
<totfact> 0.22763609E+03</totfact>
</mgrwt>
</event>
<event>
 4    1  0.6376580E-005  0.5495030E+03  0.7818608E-02  0.1001609E+00
         -1   -1    0    0    0  501 -0.00000000000E+00  0.00000000000E+00  0.72325481392E+03  0.72325481394E+03  0.50400000000E-02 0.  1.
          1   -1    0    0  501    0  0.00000000000E+00 -0.00000000000E+00 -0.10437314383E+03  0.10437314395E+03  0.50400000000E-02 0. -1.
    5000001    1    1    2    0    0 -0.18424320635E+03 -0.52129737952E+01  0.69464862874E+02  0.23436531603E+03  0.12700000000E+03 0.  0.
   -5000001    1    1    2    0    0  0.18424320635E+03  0.52129737952E+01  0.54941680722E+03  0.59326264187E+03  0.12700000000E+03 0.  0.
<mgrwt>
<rscale>  0 0.54950297E+03</rscale>
<asrwt>0</asrwt>
<pdfrwt beam="1">  1        1 0.14910449E-01 0.54950297E+03</pdfrwt>
<pdfrwt beam="2">  1       -1 0.10332212E+00 0.54950297E+03</pdfrwt>
<totfact> 0.34936012E+02</totfact>
</mgrwt>
</event>
<event>
 4    1  0.6376580E-005  0.9808489E+03  0.7818608E-02  0.9329802E-01
          1   -1    0    0  501    0  0.00000000000E+00  0.00000000000E+00  0.24244337637E+04  0.24244337637E+04  0.50400000000E-02 0.  1.
         -1   -1    0    0    0  501 -0.00000000000E+00 -0.00000000000E+00 -0.99205080018E+02  0.99205080146E+02  0.50400000000E-02 0. -1.
    5000001    1    1    2    0    0  0.21917408695E+03 -0.35498577724E+03  0.58536962342E+03  0.72995806623E+03  0.12700000000E+03 0.  0.
   -5000001    1    1    2    0    0 -0.21917408695E+03  0.35498577724E+03  0.17398590602E+04  0.17936807776E+04  0.12700000000E+03 0.  0.
<mgrwt>
<rscale>  0 0.98084891E+03</rscale>
<asrwt>0</asrwt>
<pdfrwt beam="1">  1        1 0.34634765E+00 0.98084891E+03</pdfrwt>
<pdfrwt beam="2">  1       -1 0.14172155E-01 0.98084891E+03</pdfrwt>
<totfact> 0.73507839E+01</totfact>
</mgrwt>
</event>
<event>
 4    1  0.6376580E-005  0.4273914E+03  0.7818608E-02  0.1034687E+00
         -1   -1    0    0    0  501 -0.00000000000E+00  0.00000000000E+00  0.36078467714E+02  0.36078468066E+02  0.50400000000E-02 0.  1.
          1   -1    0    0  501    0  0.00000000000E+00 -0.00000000000E+00 -0.12657367376E+04  0.12657367376E+04  0.50400000000E-02 0. -1.
    5000001    1    1    2    0    0  0.11561689253E+03  0.34580082118E+02 -0.98755500753E+03  0.10029740479E+04  0.12700000000E+03 0.  0.
   -5000001    1    1    2    0    0 -0.11561689253E+03 -0.34580082118E+02 -0.24210326232E+03  0.29884115771E+03  0.12700000000E+03 0.  0.
<mgrwt>
<rscale>  0 0.42739135E+03</rscale>
<asrwt>0</asrwt>
<pdfrwt beam="1">  1        1 0.18081951E+00 0.42739135E+03</pdfrwt>
<pdfrwt beam="2">  1       -1 0.51540676E-02 0.42739135E+03</pdfrwt>
<totfact> 0.20035148E+03</totfact>
</mgrwt>
</event>
<event>
 4    1  0.6376580E-005  0.4250461E+03  0.7818608E-02  0.1035436E+00
         -1   -1    0    0    0  501 -0.00000000000E+00  0.00000000000E+00  0.52142679208E+03  0.52142679210E+03  0.50400000000E-02 0. -1.
          1   -1    0    0  501    0  0.00000000000E+00 -0.00000000000E+00 -0.86620101011E+02  0.86620101158E+02  0.50400000000E-02 0.  1.
    5000001    1    1    2    0    0  0.15347649147E+03 -0.99757999354E+01  0.11245085777E+03  0.22897324173E+03  0.12700000000E+03 0.  0.
   -5000001    1    1    2    0    0 -0.15347649147E+03  0.99757999354E+01  0.32235583330E+03  0.37907365153E+03  0.12700000000E+03 0.  0.
<mgrwt>
<rscale>  0 0.42504607E+03</rscale>
<asrwt>0</asrwt>
<pdfrwt beam="1">  1        1 0.12374300E-01 0.42504607E+03</pdfrwt>
<pdfrwt beam="2">  1       -1 0.74489543E-01 0.42504607E+03</pdfrwt>
<totfact> 0.91358817E+02</totfact>
</mgrwt>
</event>
<event>
 4    1  0.6376580E-005  0.7705955E+03  0.7818608E-02  0.9603582E-01
         -1   -1    0    0    0  501 -0.00000000000E+00  0.00000000000E+00  0.21947487509E+03  0.21947487514E+03  0.50400000000E-02 0.  1.
          1   -1    0    0  501    0  0.00000000000E+00 -0.00000000000E+00 -0.67640708090E+03  0.67640708092E+03  0.50400000000E-02 0. -1.
    5000001    1    1    2    0    0  0.27000945385E+03 -0.18872158564E+03 -0.49094745020E+02  0.35645509681E+03  0.12700000000E+03 0.  0.
   -5000001    1    1    2    0    0 -0.27000945385E+03  0.18872158564E+03 -0.40783746080E+03  0.53942685926E+03  0.12700000000E+03 0.  0.
<mgrwt>
<rscale>  0 0.77059551E+03</rscale>
<asrwt>0</asrwt>
<pdfrwt beam="1">  1        1 0.96629582E-01 0.77059551E+03</pdfrwt>
<pdfrwt beam="2">  1       -1 0.31353554E-01 0.77059551E+03</pdfrwt>
<totfact> 0.30517128E+02</totfact>
</mgrwt>
</event>
<event>
 4    1  0.6376580E-005  0.3833487E+03  0.7818608E-02  0.1049703E+00
          1   -1    0    0  501    0  0.00000000000E+00  0.00000000000E+00  0.19972242169E+03  0.19972242176E+03  0.50400000000E-02 0.  1.
         -1   -1    0    0    0  501 -0.00000000000E+00 -0.00000000000E+00 -0.18395053901E+03  0.18395053908E+03  0.50400000000E-02 0. -1.
    5000001    1    1    2    0    0 -0.24229864029E+02 -0.93821908415E+02 -0.98130109766E+02  0.18747841276E+03  0.12700000000E+03 0.  0.
   -5000001    1    1    2    0    0  0.24229864029E+02  0.93821908415E+02  0.11390199245E+03  0.19619454807E+03  0.12700000000E+03 0.  0.
<mgrwt>
<rscale>  0 0.38334865E+03</rscale>
<asrwt>0</asrwt>
<pdfrwt beam="1">  1        1 0.28531774E-01 0.38334865E+03</pdfrwt>
<pdfrwt beam="2">  1       -1 0.26278649E-01 0.38334865E+03</pdfrwt>
<totfact> 0.20785928E+03</totfact>
</mgrwt>
</event>
<event>
 4    1  0.6376580E-005  0.4916580E+03  0.7818608E-02  0.1015980E+00
          1   -1    0    0  501    0  0.00000000000E+00  0.00000000000E+00  0.95021215627E+02  0.95021215761E+02  0.50400000000E-02 0. -1.
         -1   -1    0    0    0  501 -0.00000000000E+00 -0.00000000000E+00 -0.63598316113E+03  0.63598316115E+03  0.50400000000E-02 0.  1.
    5000001    1    1    2    0    0 -0.69100214670E+02  0.19532130079E+03 -0.32566650257E+03  0.40634089273E+03  0.12700000000E+03 0.  0.
   -5000001    1    1    2    0    0  0.69100214670E+02 -0.19532130079E+03 -0.21529544293E+03  0.32466348417E+03  0.12700000000E+03 0.  0.
<mgrwt>
<rscale>  0 0.49165798E+03</rscale>
<asrwt>0</asrwt>
<pdfrwt beam="1">  1        1 0.13574460E-01 0.49165798E+03</pdfrwt>
<pdfrwt beam="2">  1       -1 0.90854736E-01 0.49165798E+03</pdfrwt>
<totfact> 0.52925995E+02</totfact>
</mgrwt>
</event>
<event>
 4    1  0.6376580E-005  0.3065024E+03  0.7818608E-02  0.1082035E+00
         -1   -1    0    0    0  501 -0.00000000000E+00  0.00000000000E+00  0.12741734378E+02  0.12741735375E+02  0.50400000000E-02 0. -1.
          1   -1    0    0  501    0  0.00000000000E+00 -0.00000000000E+00 -0.18432287960E+04  0.18432287960E+04  0.50400000000E-02 0.  1.
    5000001    1    1    2    0    0  0.35746058356E+00 -0.64527178712E+02 -0.57307512687E+03  0.59051501726E+03  0.12700000000E+03 0.  0.
   -5000001    1    1    2    0    0 -0.35746058356E+00  0.64527178712E+02 -0.12574119348E+04  0.12654555141E+04  0.12700000000E+03 0.  0.
<mgrwt>
<rscale>  0 0.30650242E+03</rscale>
<asrwt>0</asrwt>
<pdfrwt beam="1">  1        1 0.26331823E+00 0.30650242E+03</pdfrwt>
<pdfrwt beam="2">  1       -1 0.18202490E-02 0.30650242E+03</pdfrwt>
<totfact> 0.40921792E+03</totfact>
</mgrwt>
</event>
<event>
 4    1  0.6376580E-005  0.3504777E+03  0.7818608E-02  0.1062419E+00
         -1   -1    0    0    0  501 -0.00000000000E+00  0.00000000000E+00  0.15084212018E+02  0.15084212860E+02  0.50400000000E-02 0. -1.
          1   -1    0    0  501    0  0.00000000000E+00 -0.00000000000E+00 -0.20358138647E+04  0.20358138647E+04  0.50400000000E-02 0.  1.
    5000001    1    1    2    0    0  0.93613906572E+02 -0.69280960267E+02 -0.82382113679E+03  0.84164938091E+03  0.12700000000E+03 0.  0.
   -5000001    1    1    2    0    0 -0.93613906572E+02  0.69280960267E+02 -0.11969085159E+04  0.12092486967E+04  0.12700000000E+03 0.  0.
<mgrwt>
<rscale>  0 0.35047767E+03</rscale>
<asrwt>0</asrwt>
<pdfrwt beam="1">  1        1 0.29083038E+00 0.35047767E+03</pdfrwt>
<pdfrwt beam="2">  1       -1 0.21548888E-02 0.35047767E+03</pdfrwt>
<totfact> 0.24376742E+03</totfact>
</mgrwt>
</event>
<event>
 4    1  0.6376580E-005  0.3751722E+03  0.7818608E-02  0.1052733E+00
         -1   -1    0    0    0  501 -0.00000000000E+00  0.00000000000E+00  0.89571117136E+03  0.89571117137E+03  0.50400000000E-02 0. -1.
          1   -1    0    0  501    0  0.00000000000E+00 -0.00000000000E+00 -0.39285590795E+02  0.39285591118E+02  0.50400000000E-02 0.  1.
    5000001    1    1    2    0    0 -0.99138151288E+02  0.95475256003E+02  0.40141227183E+03  0.44295000793E+03  0.12700000000E+03 0.  0.
   -5000001    1    1    2    0    0  0.99138151288E+02 -0.95475256003E+02  0.45501330873E+03  0.49204675456E+03  0.12700000000E+03 0.  0.
<mgrwt>
<rscale>  0 0.37517219E+03</rscale>
<asrwt>0</asrwt>
<pdfrwt beam="1">  1        1 0.56122282E-02 0.37517219E+03</pdfrwt>
<pdfrwt beam="2">  1       -1 0.12795872E+00 0.37517219E+03</pdfrwt>
<totfact> 0.80465975E+02</totfact>
</mgrwt>
</event>
<event>
 4    1  0.6376580E-005  0.5434128E+03  0.7818608E-02  0.1003030E+00
         -1   -1    0    0    0  501 -0.00000000000E+00  0.00000000000E+00  0.14643007706E+03  0.14643007715E+03  0.50400000000E-02 0. -1.
          1   -1    0    0  501    0  0.00000000000E+00 -0.00000000000E+00 -0.50416123987E+03  0.50416123989E+03  0.50400000000E-02 0.  1.
    5000001    1    1    2    0    0 -0.17666002501E+03 -0.16174369024E+03 -0.20046835776E+03  0.33717406222E+03  0.12700000000E+03 0.  0.
   -5000001    1    1    2    0    0  0.17666002501E+03  0.16174369024E+03 -0.15726280504E+03  0.31341725482E+03  0.12700000000E+03 0.  0.
<mgrwt>
<rscale>  0 0.54341281E+03</rscale>
<asrwt>0</asrwt>
<pdfrwt beam="1">  1        1 0.72023034E-01 0.54341281E+03</pdfrwt>
<pdfrwt beam="2">  1       -1 0.20918583E-01 0.54341281E+03</pdfrwt>
<totfact> 0.92392099E+02</totfact>
</mgrwt>
</event>
<event>
 4    1  0.6376580E-005  0.2768047E+03  0.7818608E-02  0.1097447E+00
         -1   -1    0    0    0  501 -0.00000000000E+00  0.00000000000E+00  0.22461714557E+02  0.22461715123E+02  0.50400000000E-02 0. -1.
          1   -1    0    0  501    0  0.00000000000E+00 -0.00000000000E+00 -0.85279356986E+03  0.85279356987E+03  0.50400000000E-02 0.  1.
    5000001    1    1    2    0    0 -0.13995780130E+02  0.49001527300E+02 -0.34966035220E+03  0.37548421198E+03  0.12700000000E+03 0.  0.
   -5000001    1    1    2    0    0  0.13995780130E+02 -0.49001527300E+02 -0.48067150310E+03  0.49977107302E+03  0.12700000000E+03 0.  0.
<mgrwt>
<rscale>  0 0.27680467E+03</rscale>
<asrwt>0</asrwt>
<pdfrwt beam="1">  1        1 0.12182763E+00 0.27680467E+03</pdfrwt>
<pdfrwt beam="2">  1       -1 0.32088169E-02 0.27680467E+03</pdfrwt>
<totfact> 0.79784338E+03</totfact>
</mgrwt>
</event>
<event>
 4    1  0.6376580E-005  0.3986248E+03  0.7818608E-02  0.1044257E+00
          1   -1    0    0  501    0  0.00000000000E+00  0.00000000000E+00  0.29369832576E+04  0.29369832576E+04  0.50400000000E-02 0. -1.
         -1   -1    0    0    0  501 -0.00000000000E+00 -0.00000000000E+00 -0.13525929464E+02  0.13525930403E+02  0.50400000000E-02 0.  1.
    5000001    1    1    2    0    0  0.11646103200E+03  0.81405316276E+02  0.18937274768E+04  0.19032926085E+04  0.12700000000E+03 0.  0.
   -5000001    1    1    2    0    0 -0.11646103200E+03 -0.81405316276E+02  0.10297298514E+04  0.10472165795E+04  0.12700000000E+03 0.  0.
<mgrwt>
<rscale>  0 0.39862478E+03</rscale>
<asrwt>0</asrwt>
<pdfrwt beam="1">  1        1 0.41956911E+00 0.39862478E+03</pdfrwt>
<pdfrwt beam="2">  1       -1 0.19322754E-02 0.39862478E+03</pdfrwt>
<totfact> 0.79252746E+02</totfact>
</mgrwt>
</event>
<event>
 4    1  0.6376580E-005  0.6173483E+03  0.7818608E-02  0.9870053E-01
         -1   -1    0    0    0  501 -0.00000000000E+00  0.00000000000E+00  0.48697593663E+02  0.48697593924E+02  0.50400000000E-02 0.  1.
          1   -1    0    0  501    0  0.00000000000E+00 -0.00000000000E+00 -0.19565595890E+04  0.19565595890E+04  0.50400000000E-02 0. -1.
    5000001    1    1    2    0    0 -0.21666587032E+03  0.16582189259E+03 -0.11768455783E+04  0.12147162280E+04  0.12700000000E+03 0.  0.
   -5000001    1    1    2    0    0  0.21666587032E+03 -0.16582189259E+03 -0.73101641700E+03  0.79054095488E+03  0.12700000000E+03 0.  0.
<mgrwt>
<rscale>  0 0.61734834E+03</rscale>
<asrwt>0</asrwt>
<pdfrwt beam="1">  1        1 0.27950846E+00 0.61734834E+03</pdfrwt>
<pdfrwt beam="2">  1       -1 0.69568003E-02 0.61734834E+03</pdfrwt>
<totfact> 0.45750801E+02</totfact>
</mgrwt>
</event>
<event>
 4    1  0.6376580E-005  0.4685465E+03  0.7818608E-02  0.1022331E+00
         -1   -1    0    0    0  501 -0.00000000000E+00  0.00000000000E+00  0.35816517081E+03  0.35816517084E+03  0.50400000000E-02 0.  1.
          1   -1    0    0  501    0  0.00000000000E+00 -0.00000000000E+00 -0.15323642725E+03  0.15323642733E+03  0.50400000000E-02 0. -1.
    5000001    1    1    2    0    0 -0.14471452855E+03  0.13128280329E+03  0.76235560414E+02  0.24519039517E+03  0.12700000000E+03 0.  0.
   -5000001    1    1    2    0    0  0.14471452855E+03 -0.13128280329E+03  0.12869318315E+03  0.26621120300E+03  0.12700000000E+03 0.  0.
<mgrwt>
<rscale>  0 0.46854648E+03</rscale>
<asrwt>0</asrwt>
<pdfrwt beam="1">  1        1 0.21890918E-01 0.46854648E+03</pdfrwt>
<pdfrwt beam="2">  1       -1 0.51166454E-01 0.46854648E+03</pdfrwt>
<totfact> 0.89722213E+02</totfact>
</mgrwt>
</event>
<event>
 4    1  0.6376580E-005  0.3414013E+03  0.7818608E-02  0.1066201E+00
          1   -1    0    0  501    0  0.00000000000E+00  0.00000000000E+00  0.72224040691E+02  0.72224040867E+02  0.50400000000E-02 0. -1.
         -1   -1    0    0    0  501 -0.00000000000E+00 -0.00000000000E+00 -0.40344888732E+03  0.40344888735E+03  0.50400000000E-02 0.  1.
    5000001    1    1    2    0    0  0.89810578175E+02  0.58506952426E+02 -0.21994569304E+03  0.27567029459E+03  0.12700000000E+03 0.  0.
   -5000001    1    1    2    0    0 -0.89810578175E+02 -0.58506952426E+02 -0.11127915359E+03  0.20000263363E+03  0.12700000000E+03 0.  0.
<mgrwt>
<rscale>  0 0.34140128E+03</rscale>
<asrwt>0</asrwt>
<pdfrwt beam="1">  1        1 0.10317720E-01 0.34140128E+03</pdfrwt>
<pdfrwt beam="2">  1       -1 0.57635554E-01 0.34140128E+03</pdfrwt>
<totfact> 0.19383244E+03</totfact>
</mgrwt>
</event>
<event>
 4    1  0.6376580E-005  0.2835531E+03  0.7818608E-02  0.1093764E+00
         -1   -1    0    0    0  501 -0.00000000000E+00  0.00000000000E+00  0.29351208000E+02  0.29351208433E+02  0.50400000000E-02 0. -1.
          1   -1    0    0  501    0  0.00000000000E+00 -0.00000000000E+00 -0.68482985892E+03  0.68482985894E+03  0.50400000000E-02 0.  1.
    5000001    1    1    2    0    0 -0.52305958283E+02 -0.20141382549E+02 -0.40030175253E+03  0.42368866122E+03  0.12700000000E+03 0.  0.
   -5000001    1    1    2    0    0  0.52305958283E+02  0.20141382549E+02 -0.25517689838E+03  0.29049240615E+03  0.12700000000E+03 0.  0.
<mgrwt>
<rscale>  0 0.28355306E+03</rscale>
<asrwt>0</asrwt>
<pdfrwt beam="1">  1        1 0.97832827E-01 0.28355306E+03</pdfrwt>
<pdfrwt beam="2">  1       -1 0.41930302E-02 0.28355306E+03</pdfrwt>
<totfact> 0.74102967E+03</totfact>
</mgrwt>
</event>
<event>
 4    1  0.6376580E-005  0.3039826E+03  0.7818608E-02  0.1083267E+00
          1   -1    0    0  501    0  0.00000000000E+00  0.00000000000E+00  0.27770489514E+03  0.27770489518E+03  0.50400000000E-02 0.  1.
         -1   -1    0    0    0  501 -0.00000000000E+00 -0.00000000000E+00 -0.83186687277E+02  0.83186687429E+02  0.50400000000E-02 0. -1.
    5000001    1    1    2    0    0  0.14806759251E+02 -0.75067982082E+02  0.57564529085E+02  0.15905067451E+03  0.12700000000E+03 0.  0.
   -5000001    1    1    2    0    0 -0.14806759251E+02  0.75067982082E+02  0.13695367877E+03  0.20184090810E+03  0.12700000000E+03 0.  0.
<mgrwt>
<rscale>  0 0.30398257E+03</rscale>
<asrwt>0</asrwt>
<pdfrwt beam="1">  1        1 0.39672128E-01 0.30398257E+03</pdfrwt>
<pdfrwt beam="2">  1       -1 0.11883812E-01 0.30398257E+03</pdfrwt>
<totfact> 0.49279179E+03</totfact>
</mgrwt>
</event>
<event>
 4    1  0.6376580E-005  0.3904367E+03  0.7818608E-02  0.1047142E+00
         -1   -1    0    0    0  501 -0.00000000000E+00  0.00000000000E+00  0.40174308700E+02  0.40174309016E+02  0.50400000000E-02 0.  1.
          1   -1    0    0  501    0  0.00000000000E+00 -0.00000000000E+00 -0.94862134848E+03  0.94862134850E+03  0.50400000000E-02 0. -1.
    5000001    1    1    2    0    0 -0.14277777624E+03  0.23942551976E+02 -0.53520407250E+03  0.56879797679E+03  0.12700000000E+03 0.  0.
   -5000001    1    1    2    0    0  0.14277777624E+03 -0.23942551976E+02 -0.37324296728E+03  0.41999768072E+03  0.12700000000E+03 0.  0.
<mgrwt>
<rscale>  0 0.39043671E+03</rscale>
<asrwt>0</asrwt>
<pdfrwt beam="1">  1        1 0.13551732E+00 0.39043671E+03</pdfrwt>
<pdfrwt beam="2">  1       -1 0.57391875E-02 0.39043671E+03</pdfrwt>
<totfact> 0.28374225E+03</totfact>
</mgrwt>
</event>
<event>
 4    1  0.6376580E-005  0.2805767E+03  0.7818608E-02  0.1095374E+00
         -1   -1    0    0    0  501 -0.00000000000E+00  0.00000000000E+00  0.21541175793E+02  0.21541176382E+02  0.50400000000E-02 0. -1.
          1   -1    0    0  501    0  0.00000000000E+00 -0.00000000000E+00 -0.91363750042E+03  0.91363750043E+03  0.50400000000E-02 0.  1.
    5000001    1    1    2    0    0 -0.44548344881E+02 -0.28376440842E+02 -0.53805801721E+03  0.55536043009E+03  0.12700000000E+03 0.  0.
   -5000001    1    1    2    0    0  0.44548344881E+02  0.28376440842E+02 -0.35403830741E+03  0.37981824672E+03  0.12700000000E+03 0.  0.
<mgrwt>
<rscale>  0 0.28057674E+03</rscale>
<asrwt>0</asrwt>
<pdfrwt beam="1">  1        1 0.13051962E+00 0.28057674E+03</pdfrwt>
<pdfrwt beam="2">  1       -1 0.30773115E-02 0.28057674E+03</pdfrwt>
<totfact> 0.76263881E+03</totfact>
</mgrwt>
</event>
<event>
 4    1  0.6376580E-005  0.3937555E+03  0.7818608E-02  0.1045964E+00
          1   -1    0    0  501    0  0.00000000000E+00  0.00000000000E+00  0.40926414725E+03  0.40926414728E+03  0.50400000000E-02 0.  1.
         -1   -1    0    0    0  501 -0.00000000000E+00 -0.00000000000E+00 -0.94708653573E+02  0.94708653707E+02  0.50400000000E-02 0. -1.
    5000001    1    1    2    0    0 -0.19058880588E+02 -0.14915760479E+03  0.15146513996E+03  0.24835845188E+03  0.12700000000E+03 0.  0.
   -5000001    1    1    2    0    0  0.19058880588E+02  0.14915760479E+03  0.16309035372E+03  0.25561434911E+03  0.12700000000E+03 0.  0.
<mgrwt>
<rscale>  0 0.39375554E+03</rscale>
<asrwt>0</asrwt>
<pdfrwt beam="1">  1        1 0.58466308E-01 0.39375554E+03</pdfrwt>
<pdfrwt beam="2">  1       -1 0.13529807E-01 0.39375554E+03</pdfrwt>
<totfact> 0.24657694E+03</totfact>
</mgrwt>
</event>
<event>
 4    1  0.6376580E-005  0.3803789E+03  0.7818608E-02  0.1050794E+00
          1   -1    0    0  501    0  0.00000000000E+00  0.00000000000E+00  0.41763324686E+03  0.41763324689E+03  0.50400000000E-02 0.  1.
         -1   -1    0    0    0  501 -0.00000000000E+00 -0.00000000000E+00 -0.86611924881E+02  0.86611925028E+02  0.50400000000E-02 0. -1.
    5000001    1    1    2    0    0  0.71877603024E+02 -0.63106288658E+02  0.27146515726E+02  0.16129081437E+03  0.12700000000E+03 0.  0.
   -5000001    1    1    2    0    0 -0.71877603024E+02  0.63106288658E+02  0.30387480625E+03  0.34295435754E+03  0.12700000000E+03 0.  0.
<mgrwt>
<rscale>  0 0.38037886E+03</rscale>
<asrwt>0</asrwt>
<pdfrwt beam="1">  1        1 0.59661893E-01 0.38037886E+03</pdfrwt>
<pdfrwt beam="2">  1       -1 0.12373132E-01 0.38037886E+03</pdfrwt>
<totfact> 0.27662114E+03</totfact>
</mgrwt>
</event>
<event>
 4    1  0.6376580E-005  0.4012643E+03  0.7818608E-02  0.1043343E+00
          1   -1    0    0  501    0  0.00000000000E+00  0.00000000000E+00  0.21863590043E+03  0.21863590048E+03  0.50400000000E-02 0.  1.
         -1   -1    0    0    0  501 -0.00000000000E+00 -0.00000000000E+00 -0.18411093820E+03  0.18411093827E+03  0.50400000000E-02 0. -1.
    5000001    1    1    2    0    0 -0.36295755946E+02  0.83405559701E+02  0.14362596988E+03  0.21220576927E+03  0.12700000000E+03 0.  0.
   -5000001    1    1    2    0    0  0.36295755946E+02 -0.83405559701E+02 -0.10910100765E+03  0.19054106948E+03  0.12700000000E+03 0.  0.
<mgrwt>
<rscale>  0 0.40126431E+03</rscale>
<asrwt>0</asrwt>
<pdfrwt beam="1">  1        1 0.31233700E-01 0.40126431E+03</pdfrwt>
<pdfrwt beam="2">  1       -1 0.26301563E-01 0.40126431E+03</pdfrwt>
<totfact> 0.18501721E+03</totfact>
</mgrwt>
</event>
<event>
 4    1  0.6376580E-005  0.3764534E+03  0.7818608E-02  0.1052252E+00
         -1   -1    0    0    0  501 -0.00000000000E+00  0.00000000000E+00  0.53628784937E+02  0.53628785174E+02  0.50400000000E-02 0. -1.
          1   -1    0    0  501    0  0.00000000000E+00 -0.00000000000E+00 -0.66063933620E+03  0.66063933622E+03  0.50400000000E-02 0.  1.
    5000001    1    1    2    0    0 -0.11921721029E+03 -0.45820385528E+02 -0.19978997116E+03  0.26899309199E+03  0.12700000000E+03 0.  0.
   -5000001    1    1    2    0    0  0.11921721029E+03  0.45820385528E+02 -0.40722058010E+03  0.44527502941E+03  0.12700000000E+03 0.  0.
<mgrwt>
<rscale>  0 0.37645337E+03</rscale>
<asrwt>0</asrwt>
<pdfrwt beam="1">  1        1 0.94377043E-01 0.37645337E+03</pdfrwt>
<pdfrwt beam="2">  1       -1 0.76612554E-02 0.37645337E+03</pdfrwt>
<totfact> 0.31511992E+03</totfact>
</mgrwt>
</event>
<event>
 4    1  0.6376580E-005  0.6268520E+03  0.7818608E-02  0.9851211E-01
         -1   -1    0    0    0  501 -0.00000000000E+00  0.00000000000E+00  0.10699803678E+03  0.10699803690E+03  0.50400000000E-02 0. -1.
          1   -1    0    0  501    0  0.00000000000E+00 -0.00000000000E+00 -0.91810889440E+03  0.91810889441E+03  0.50400000000E-02 0.  1.
    5000001    1    1    2    0    0  0.23049355194E+03  0.11761512629E+03 -0.60681511377E+03  0.67179920938E+03  0.12700000000E+03 0.  0.
   -5000001    1    1    2    0    0 -0.23049355194E+03 -0.11761512629E+03 -0.20429574386E+03  0.35330772193E+03  0.12700000000E+03 0.  0.
<mgrwt>
<rscale>  0 0.62685197E+03</rscale>
<asrwt>0</asrwt>
<pdfrwt beam="1">  1        1 0.13115841E+00 0.62685197E+03</pdfrwt>
<pdfrwt beam="2">  1       -1 0.15285434E-01 0.62685197E+03</pdfrwt>
<totfact> 0.64226384E+02</totfact>
</mgrwt>
</event>
<event>
 4    1  0.6376580E-005  0.2774511E+03  0.7818608E-02  0.1097089E+00
         -1   -1    0    0    0  501 -0.00000000000E+00  0.00000000000E+00  0.11557507311E+03  0.11557507322E+03  0.50400000000E-02 0.  1.
          1   -1    0    0  501    0  0.00000000000E+00 -0.00000000000E+00 -0.16651323974E+03  0.16651323981E+03  0.50400000000E-02 0. -1.
    5000001    1    1    2    0    0  0.24696772706E+02 -0.49276268490E+02 -0.16507073808E+02  0.13942583944E+03  0.12700000000E+03 0.  0.
   -5000001    1    1    2    0    0 -0.24696772706E+02  0.49276268490E+02 -0.34431092819E+02  0.14266247359E+03  0.12700000000E+03 0.  0.
<mgrwt>
<rscale>  0 0.27745111E+03</rscale>
<asrwt>0</asrwt>
<pdfrwt beam="1">  1        1 0.23787606E-01 0.27745111E+03</pdfrwt>
<pdfrwt beam="2">  1       -1 0.16510725E-01 0.27745111E+03</pdfrwt>
<totfact> 0.55784963E+03</totfact>
</mgrwt>
</event>
<event>
 4    1  0.6376580E-005  0.4115880E+03  0.7818608E-02  0.1039839E+00
          1   -1    0    0  501    0  0.00000000000E+00  0.00000000000E+00  0.48702008595E+03  0.48702008597E+03  0.50400000000E-02 0. -1.
         -1   -1    0    0    0  501 -0.00000000000E+00 -0.00000000000E+00 -0.86959792743E+02  0.86959792889E+02  0.50400000000E-02 0.  1.
    5000001    1    1    2    0    0  0.99070438638E+02 -0.10655537080E+03  0.29916258993E+03  0.35608461645E+03  0.12700000000E+03 0.  0.
   -5000001    1    1    2    0    0 -0.99070438638E+02  0.10655537080E+03  0.10089770328E+03  0.21789526242E+03  0.12700000000E+03 0.  0.
<mgrwt>
<rscale>  0 0.41158798E+03</rscale>
<asrwt>0</asrwt>
<pdfrwt beam="1">  1        1 0.69574296E-01 0.41158798E+03</pdfrwt>
<pdfrwt beam="2">  1       -1 0.12422828E-01 0.41158798E+03</pdfrwt>
<totfact> 0.22504491E+03</totfact>
</mgrwt>
</event>
<event>
 4    1  0.6376580E-005  0.2964734E+03  0.7818608E-02  0.1087017E+00
          1   -1    0    0  501    0  0.00000000000E+00  0.00000000000E+00  0.10748880230E+04  0.10748880230E+04  0.50400000000E-02 0.  1.
         -1   -1    0    0    0  501 -0.00000000000E+00 -0.00000000000E+00 -0.20443168137E+02  0.20443168758E+02  0.50400000000E-02 0. -1.
    5000001    1    1    2    0    0 -0.48632306799E+02  0.42691530319E+02  0.67763350355E+03  0.69246215287E+03  0.12700000000E+03 0.  0.
   -5000001    1    1    2    0    0  0.48632306799E+02 -0.42691530319E+02  0.37681135133E+03  0.40286903892E+03  0.12700000000E+03 0.  0.
<mgrwt>
<rscale>  0 0.29647338E+03</rscale>
<asrwt>0</asrwt>
<pdfrwt beam="1">  1        1 0.15355542E+00 0.29647338E+03</pdfrwt>
<pdfrwt beam="2">  1       -1 0.29204528E-02 0.29647338E+03</pdfrwt>
<totfact> 0.63076271E+03</totfact>
</mgrwt>
</event>
<event>
 4    1  0.6376580E-005  0.1323067E+04  0.7818608E-02  0.9011470E-01
          1   -1    0    0  501    0  0.00000000000E+00  0.00000000000E+00  0.86776257852E+03  0.86776257854E+03  0.50400000000E-02 0. -1.
         -1   -1    0    0    0  501 -0.00000000000E+00 -0.00000000000E+00 -0.50431577225E+03  0.50431577227E+03  0.50400000000E-02 0.  1.
    5000001    1    1    2    0    0 -0.56322471341E+03  0.48105621770E+02 -0.14941876972E+03  0.59832365604E+03  0.12700000000E+03 0.  0.
   -5000001    1    1    2    0    0  0.56322471341E+03 -0.48105621770E+02  0.51286557599E+03  0.77375469477E+03  0.12700000000E+03 0.  0.
<mgrwt>
<rscale>  0 0.13230667E+04</rscale>
<asrwt>0</asrwt>
<pdfrwt beam="1">  1        1 0.12396608E+00 0.13230667E+04</pdfrwt>
<pdfrwt beam="2">  1       -1 0.72045111E-01 0.13230667E+04</pdfrwt>
<totfact> 0.41757894E+01</totfact>
</mgrwt>
</event>
<event>
 4    1  0.6376580E-005  0.3545583E+03  0.7818608E-02  0.1060760E+00
         -1   -1    0    0    0  501 -0.00000000000E+00  0.00000000000E+00  0.60890169763E+02  0.60890169971E+02  0.50400000000E-02 0. -1.
          1   -1    0    0  501    0  0.00000000000E+00 -0.00000000000E+00 -0.51614085500E+03  0.51614085503E+03  0.50400000000E-02 0.  1.
    5000001    1    1    2    0    0 -0.11132402433E+03  0.13326897273E+02 -0.14261841564E+03  0.22144899427E+03  0.12700000000E+03 0.  0.
   -5000001    1    1    2    0    0  0.11132402433E+03 -0.13326897273E+02 -0.31263226960E+03  0.35558203073E+03  0.12700000000E+03 0.  0.
<mgrwt>
<rscale>  0 0.35455834E+03</rscale>
<asrwt>0</asrwt>
<pdfrwt beam="1">  1        1 0.73734406E-01 0.35455834E+03</pdfrwt>
<pdfrwt beam="2">  1       -1 0.86985960E-02 0.35455834E+03</pdfrwt>
<totfact> 0.36294078E+03</totfact>
</mgrwt>
</event>
<event>
 4    1  0.6376580E-005  0.4101990E+03  0.7818608E-02  0.1040304E+00
         -1   -1    0    0    0  501 -0.00000000000E+00  0.00000000000E+00  0.33153336788E+02  0.33153337171E+02  0.50400000000E-02 0. -1.
          1   -1    0    0  501    0  0.00000000000E+00 -0.00000000000E+00 -0.12688257217E+04  0.12688257217E+04  0.50400000000E-02 0.  1.
    5000001    1    1    2    0    0  0.43150536107E+02  0.14407788760E+03 -0.80062216478E+03  0.82446665014E+03  0.12700000000E+03 0.  0.
   -5000001    1    1    2    0    0 -0.43150536107E+02 -0.14407788760E+03 -0.43505022015E+03  0.47751240875E+03  0.12700000000E+03 0.  0.
<mgrwt>
<rscale>  0 0.41019901E+03</rscale>
<asrwt>0</asrwt>
<pdfrwt beam="1">  1        1 0.18126079E+00 0.41019901E+03</pdfrwt>
<pdfrwt beam="2">  1       -1 0.47361918E-02 0.41019901E+03</pdfrwt>
<totfact> 0.22672127E+03</totfact>
</mgrwt>
</event>
<event>
 4    1  0.6376580E-005  0.3707369E+03  0.7818608E-02  0.1054412E+00
         -1   -1    0    0    0  501 -0.00000000000E+00  0.00000000000E+00  0.70268972469E+02  0.70268972650E+02  0.50400000000E-02 0.  1.
          1   -1    0    0  501    0  0.00000000000E+00 -0.00000000000E+00 -0.48899914597E+03  0.48899914599E+03  0.50400000000E-02 0. -1.
    5000001    1    1    2    0    0  0.15645154078E+02  0.10098552704E+03 -0.76223921701E+02  0.17994980899E+03  0.12700000000E+03 0.  0.
   -5000001    1    1    2    0    0 -0.15645154078E+02 -0.10098552704E+03 -0.34250625180E+03  0.37931830965E+03  0.12700000000E+03 0.  0.
<mgrwt>
<rscale>  0 0.37073693E+03</rscale>
<asrwt>0</asrwt>
<pdfrwt beam="1">  1        1 0.69857019E-01 0.37073693E+03</pdfrwt>
<pdfrwt beam="2">  1       -1 0.10038425E-01 0.37073693E+03</pdfrwt>
<totfact> 0.31239978E+03</totfact>
</mgrwt>
</event>
<event>
 4    1  0.6376580E-005  0.3321551E+03  0.7818608E-02  0.1070187E+00
          1   -1    0    0  501    0  0.00000000000E+00  0.00000000000E+00  0.78288162127E+03  0.78288162128E+03  0.50400000000E-02 0.  1.
         -1   -1    0    0    0  501 -0.00000000000E+00 -0.00000000000E+00 -0.35231059276E+02  0.35231059636E+02  0.50400000000E-02 0. -1.
    5000001    1    1    2    0    0 -0.94110120610E+02 -0.15776795277E+02  0.25449778911E+03  0.30000624449E+03  0.12700000000E+03 0.  0.
   -5000001    1    1    2    0    0  0.94110120610E+02  0.15776795277E+02  0.49315277288E+03  0.51810643643E+03  0.12700000000E+03 0.  0.
<mgrwt>
<rscale>  0 0.33215508E+03</rscale>
<asrwt>0</asrwt>
<pdfrwt beam="1">  1        1 0.11184022E+00 0.33215508E+03</pdfrwt>
<pdfrwt beam="2">  1       -1 0.50330088E-02 0.33215508E+03</pdfrwt>
<totfact> 0.46592664E+03</totfact>
</mgrwt>
</event>
<event>
 4    1  0.6376580E-005  0.7028076E+03  0.7818608E-02  0.9712443E-01
          1   -1    0    0  501    0  0.00000000000E+00  0.00000000000E+00  0.19940609449E+04  0.19940609450E+04  0.50400000000E-02 0.  1.
         -1   -1    0    0    0  501 -0.00000000000E+00 -0.00000000000E+00 -0.61926204821E+02  0.61926205026E+02  0.50400000000E-02 0. -1.
    5000001    1    1    2    0    0 -0.83615481352E+01 -0.16666026486E+03  0.17909554243E+04  0.18031904756E+04  0.12700000000E+03 0.  0.
   -5000001    1    1    2    0    0  0.83615481352E+01  0.16666026486E+03  0.14117931581E+03  0.25279667439E+03  0.12700000000E+03 0.  0.
<mgrwt>
<rscale>  0 0.70280759E+03</rscale>
<asrwt>0</asrwt>
<pdfrwt beam="1">  1        1 0.28486576E+00 0.70280759E+03</pdfrwt>
<pdfrwt beam="2">  1       -1 0.88466036E-02 0.70280759E+03</pdfrwt>
<totfact> 0.29616326E+02</totfact>
</mgrwt>
</event>
<event>
 4    1  0.6376580E-005  0.6219834E+03  0.7818608E-02  0.9860819E-01
          1   -1    0    0  501    0  0.00000000000E+00  0.00000000000E+00  0.11499851501E+04  0.11499851501E+04  0.50400000000E-02 0.  1.
         -1   -1    0    0    0  501 -0.00000000000E+00 -0.00000000000E+00 -0.84101816192E+02  0.84101816343E+02  0.50400000000E-02 0. -1.
    5000001    1    1    2    0    0  0.16324410736E+03  0.23004557425E+03  0.59622329046E+03  0.67169994559E+03  0.12700000000E+03 0.  0.
   -5000001    1    1    2    0    0 -0.16324410736E+03 -0.23004557425E+03  0.46966004341E+03  0.56238702082E+03  0.12700000000E+03 0.  0.
<mgrwt>
<rscale>  0 0.62198341E+03</rscale>
<asrwt>0</asrwt>
<pdfrwt beam="1">  1        1 0.16428358E+00 0.62198341E+03</pdfrwt>
<pdfrwt beam="2">  1       -1 0.12014546E-01 0.62198341E+03</pdfrwt>
<totfact> 0.64061951E+02</totfact>
</mgrwt>
</event>
<event>
 4    1  0.6376580E-005  0.5451317E+03  0.7818608E-02  0.1002627E+00
          1   -1    0    0  501    0  0.00000000000E+00  0.00000000000E+00  0.22569132197E+04  0.22569132197E+04  0.50400000000E-02 0.  1.
         -1   -1    0    0    0  501 -0.00000000000E+00 -0.00000000000E+00 -0.32917590208E+02  0.32917590594E+02  0.50400000000E-02 0. -1.
    5000001    1    1    2    0    0  0.17073610069E+03 -0.43050765693E+02  0.18042407330E+04  0.18172555701E+04  0.12700000000E+03 0.  0.
   -5000001    1    1    2    0    0 -0.17073610069E+03  0.43050765693E+02  0.41975489651E+03  0.47257524020E+03  0.12700000000E+03 0.  0.
<mgrwt>
<rscale>  0 0.54513171E+03</rscale>
<asrwt>0</asrwt>
<pdfrwt beam="1">  1        1 0.32241618E+00 0.54513171E+03</pdfrwt>
<pdfrwt beam="2">  1       -1 0.47025129E-02 0.54513171E+03</pdfrwt>
<totfact> 0.54803256E+02</totfact>
</mgrwt>
</event>
<event>
 4    1  0.6376580E-005  0.5625404E+03  0.7818608E-02  0.9986323E-01
          1   -1    0    0  501    0  0.00000000000E+00  0.00000000000E+00  0.75404424095E+02  0.75404424264E+02  0.50400000000E-02 0. -1.
         -1   -1    0    0    0  501 -0.00000000000E+00 -0.00000000000E+00 -0.10491816082E+04  0.10491816082E+04  0.50400000000E-02 0.  1.
    5000001    1    1    2    0    0  0.16985614985E+03  0.15035035279E+03 -0.27224976192E+03  0.37643760849E+03  0.12700000000E+03 0.  0.
   -5000001    1    1    2    0    0 -0.16985614985E+03 -0.15035035279E+03 -0.70152742215E+03  0.74814842395E+03  0.12700000000E+03 0.  0.
<mgrwt>
<rscale>  0 0.56254043E+03</rscale>
<asrwt>0</asrwt>
<pdfrwt beam="1">  1        1 0.10772061E-01 0.56254043E+03</pdfrwt>
<pdfrwt beam="2">  1       -1 0.14988308E+00 0.56254043E+03</pdfrwt>
<totfact> 0.21677504E+02</totfact>
</mgrwt>
</event>
<event>
 4    1  0.6376580E-005  0.3685320E+03  0.7818608E-02  0.1055256E+00
          1   -1    0    0  501    0  0.00000000000E+00  0.00000000000E+00  0.10207474554E+04  0.10207474554E+04  0.50400000000E-02 0.  1.
         -1   -1    0    0    0  501 -0.00000000000E+00 -0.00000000000E+00 -0.33263814867E+02  0.33263815249E+02  0.50400000000E-02 0. -1.
    5000001    1    1    2    0    0  0.10488204768E+03 -0.82600745570E+02  0.49760814567E+03  0.53062792400E+03  0.12700000000E+03 0.  0.
   -5000001    1    1    2    0    0 -0.10488204768E+03  0.82600745570E+02  0.48987549488E+03  0.52338334668E+03  0.12700000000E+03 0.  0.
<mgrwt>
<rscale>  0 0.36853198E+03</rscale>
<asrwt>0</asrwt>
<pdfrwt beam="1">  1        1 0.14582105E+00 0.36853198E+03</pdfrwt>
<pdfrwt beam="2">  1       -1 0.47519741E-02 0.36853198E+03</pdfrwt>
<totfact> 0.33421108E+03</totfact>
</mgrwt>
</event>
<event>
 4    1  0.6376580E-005  0.3951563E+03  0.7818608E-02  0.1045470E+00
          1   -1    0    0  501    0  0.00000000000E+00  0.00000000000E+00  0.70415598540E+02  0.70415598721E+02  0.50400000000E-02 0.  1.
         -1   -1    0    0    0  501 -0.00000000000E+00 -0.00000000000E+00 -0.55438191884E+03  0.55438191886E+03  0.50400000000E-02 0. -1.
    5000001    1    1    2    0    0  0.66022689047E+02  0.13021785453E+03 -0.30507935659E+03  0.36127288706E+03  0.12700000000E+03 0.  0.
   -5000001    1    1    2    0    0 -0.66022689047E+02 -0.13021785453E+03 -0.17888696371E+03  0.26352463052E+03  0.12700000000E+03 0.  0.
<mgrwt>
<rscale>  0 0.39515635E+03</rscale>
<asrwt>0</asrwt>
<pdfrwt beam="1">  1        1 0.10059372E-01 0.39515635E+03</pdfrwt>
<pdfrwt beam="2">  1       -1 0.79197414E-01 0.39515635E+03</pdfrwt>
<totfact> 0.10647298E+03</totfact>
</mgrwt>
</event>
<event>
 4    1  0.6376580E-005  0.6410947E+03  0.7818608E-02  0.9823634E-01
          1   -1    0    0  501    0  0.00000000000E+00  0.00000000000E+00  0.52142962192E+03  0.52142962195E+03  0.50400000000E-02 0.  1.
         -1   -1    0    0    0  501 -0.00000000000E+00 -0.00000000000E+00 -0.19705555082E+03  0.19705555089E+03  0.50400000000E-02 0. -1.
    5000001    1    1    2    0    0  0.42166431694E+02 -0.29127360410E+03  0.16015702652E+03  0.35832609946E+03  0.12700000000E+03 0.  0.
   -5000001    1    1    2    0    0 -0.42166431694E+02  0.29127360410E+03  0.16421704458E+03  0.36015907338E+03  0.12700000000E+03 0.  0.
<mgrwt>
<rscale>  0 0.64109469E+03</rscale>
<asrwt>0</asrwt>
<pdfrwt beam="1">  1        1 0.74489946E-01 0.64109469E+03</pdfrwt>
<pdfrwt beam="2">  1       -1 0.28150793E-01 0.64109469E+03</pdfrwt>
<totfact> 0.53305602E+02</totfact>
</mgrwt>
</event>
<event>
 4    1  0.6376580E-005  0.5474024E+03  0.7818608E-02  0.1002097E+00
          1   -1    0    0  501    0  0.00000000000E+00  0.00000000000E+00  0.18828344622E+04  0.18828344622E+04  0.50400000000E-02 0.  1.
         -1   -1    0    0    0  501 -0.00000000000E+00 -0.00000000000E+00 -0.39787004350E+02  0.39787004669E+02  0.50400000000E-02 0. -1.
    5000001    1    1    2    0    0  0.79099754266E+02 -0.16023685841E+03  0.14970499025E+04  0.15130168646E+04  0.12700000000E+03 0.  0.
   -5000001    1    1    2    0    0 -0.79099754266E+02  0.16023685841E+03  0.34599755537E+03  0.40960460232E+03  0.12700000000E+03 0.  0.
<mgrwt>
<rscale>  0 0.54740239E+03</rscale>
<asrwt>0</asrwt>
<pdfrwt beam="1">  1        1 0.26897643E+00 0.54740239E+03</pdfrwt>
<pdfrwt beam="2">  1       -1 0.56838562E-02 0.54740239E+03</pdfrwt>
<totfact> 0.69722281E+02</totfact>
</mgrwt>
</event>
<event>
 4    1  0.6376580E-005  0.6077114E+03  0.7818608E-02  0.9889535E-01
          1   -1    0    0  501    0  0.00000000000E+00  0.00000000000E+00  0.36773447575E+04  0.36773447575E+04  0.50400000000E-02 0. -1.
         -1   -1    0    0    0  501 -0.00000000000E+00 -0.00000000000E+00 -0.25107323544E+02  0.25107324049E+02  0.50400000000E-02 0.  1.
    5000001    1    1    2    0    0  0.24055595162E+03 -0.26480607441E+02  0.26350828575E+04  0.26492185742E+04  0.12700000000E+03 0.  0.
   -5000001    1    1    2    0    0 -0.24055595162E+03  0.26480607441E+02  0.10171545764E+04  0.10532335073E+04  0.12700000000E+03 0.  0.
<mgrwt>
<rscale>  0 0.60771140E+03</rscale>
<asrwt>0</asrwt>
<pdfrwt beam="1">  1        1 0.52533509E+00 0.60771140E+03</pdfrwt>
<pdfrwt beam="2">  1       -1 0.35867597E-02 0.60771140E+03</pdfrwt>
<totfact> 0.98157737E+01</totfact>
</mgrwt>
</event>
<event>
 4    1  0.6376580E-005  0.5135095E+03  0.7818608E-02  0.1010312E+00
          1   -1    0    0  501    0  0.00000000000E+00  0.00000000000E+00  0.44034695402E+03  0.44034695405E+03  0.50400000000E-02 0.  1.
         -1   -1    0    0    0  501 -0.00000000000E+00 -0.00000000000E+00 -0.14970695027E+03  0.14970695035E+03  0.50400000000E-02 0. -1.
    5000001    1    1    2    0    0 -0.30758220825E+02 -0.22093089094E+03  0.15235398976E+03  0.29849164966E+03  0.12700000000E+03 0.  0.
   -5000001    1    1    2    0    0  0.30758220825E+02  0.22093089094E+03  0.13828601400E+03  0.29156225474E+03  0.12700000000E+03 0.  0.
<mgrwt>
<rscale>  0 0.51350949E+03</rscale>
<asrwt>0</asrwt>
<pdfrwt beam="1">  1        1 0.62906706E-01 0.51350949E+03</pdfrwt>
<pdfrwt beam="2">  1       -1 0.21386708E-01 0.51350949E+03</pdfrwt>
<totfact> 0.10663338E+03</totfact>
</mgrwt>
</event>
<event>
 4    1  0.6376580E-005  0.4966698E+03  0.7818608E-02  0.1014652E+00
         -1   -1    0    0    0  501 -0.00000000000E+00  0.00000000000E+00  0.92423607004E+02  0.92423607142E+02  0.50400000000E-02 0. -1.
          1   -1    0    0  501    0  0.00000000000E+00 -0.00000000000E+00 -0.66725619164E+03  0.66725619166E+03  0.50400000000E-02 0.  1.
    5000001    1    1    2    0    0 -0.61663441302E+02  0.19034102544E+03 -0.40094472696E+03  0.46574430757E+03  0.12700000000E+03 0.  0.
   -5000001    1    1    2    0    0  0.61663441302E+02 -0.19034102544E+03 -0.17388785768E+03  0.29393549123E+03  0.12700000000E+03 0.  0.
<mgrwt>
<rscale>  0 0.49666981E+03</rscale>
<asrwt>0</asrwt>
<pdfrwt beam="1">  1        1 0.95322311E-01 0.49666981E+03</pdfrwt>
<pdfrwt beam="2">  1       -1 0.13203373E-01 0.49666981E+03</pdfrwt>
<totfact> 0.13263829E+03</totfact>
</mgrwt>
</event>
<event>
 4    1  0.6376580E-005  0.3527879E+03  0.7818608E-02  0.1061477E+00
          1   -1    0    0  501    0  0.00000000000E+00  0.00000000000E+00  0.63105288213E+03  0.63105288215E+03  0.50400000000E-02 0. -1.
         -1   -1    0    0    0  501 -0.00000000000E+00 -0.00000000000E+00 -0.49306221974E+02  0.49306222231E+02  0.50400000000E-02 0.  1.
    5000001    1    1    2    0    0  0.11112115384E+03  0.50966040913E+02  0.30312899213E+03  0.35065885704E+03  0.12700000000E+03 0.  0.
   -5000001    1    1    2    0    0 -0.11112115384E+03 -0.50966040913E+02  0.27861766803E+03  0.32970024734E+03  0.12700000000E+03 0.  0.
<mgrwt>
<rscale>  0 0.35278795E+03</rscale>
<asrwt>0</asrwt>
<pdfrwt beam="1">  1        1 0.90150407E-01 0.35278795E+03</pdfrwt>
<pdfrwt beam="2">  1       -1 0.70437464E-02 0.35278795E+03</pdfrwt>
<totfact> 0.38191015E+03</totfact>
</mgrwt>
</event>
<event>
 4    1  0.6376580E-005  0.3472070E+03  0.7818608E-02  0.1063767E+00
         -1   -1    0    0    0  501 -0.00000000000E+00  0.00000000000E+00  0.22559924474E+03  0.22559924480E+03  0.50400000000E-02 0. -1.
          1   -1    0    0  501    0  0.00000000000E+00 -0.00000000000E+00 -0.13359167812E+03  0.13359167821E+03  0.50400000000E-02 0.  1.
    5000001    1    1    2    0    0 -0.65435739216E+01 -0.11748779966E+03  0.32796777379E+02  0.17621245709E+03  0.12700000000E+03 0.  0.
   -5000001    1    1    2    0    0  0.65435739216E+01  0.11748779966E+03  0.59210789244E+02  0.18297846592E+03  0.12700000000E+03 0.  0.
<mgrwt>
<rscale>  0 0.34720704E+03</rscale>
<asrwt>0</asrwt>
<pdfrwt beam="1">  1        1 0.19084526E-01 0.34720704E+03</pdfrwt>
<pdfrwt beam="2">  1       -1 0.32228463E-01 0.34720704E+03</pdfrwt>
<totfact> 0.24598908E+03</totfact>
</mgrwt>
</event>
<event>
 4    1  0.6376580E-005  0.3477308E+03  0.7818608E-02  0.1063550E+00
         -1   -1    0    0    0  501 -0.00000000000E+00  0.00000000000E+00  0.34554061219E+02  0.34554061586E+02  0.50400000000E-02 0. -1.
          1   -1    0    0  501    0  0.00000000000E+00 -0.00000000000E+00 -0.87483705092E+03  0.87483705093E+03  0.50400000000E-02 0.  1.
    5000001    1    1    2    0    0  0.33752383452E+02 -0.11324909971E+03 -0.38968896694E+03  0.42655723289E+03  0.12700000000E+03 0.  0.
   -5000001    1    1    2    0    0 -0.33752383452E+02  0.11324909971E+03 -0.45059402276E+03  0.48283387963E+03  0.12700000000E+03 0.  0.
<mgrwt>
<rscale>  0 0.34773078E+03</rscale>
<asrwt>0</asrwt>
<pdfrwt beam="1">  1        1 0.12497671E+00 0.34773078E+03</pdfrwt>
<pdfrwt beam="2">  1       -1 0.49362950E-02 0.34773078E+03</pdfrwt>
<totfact> 0.40524757E+03</totfact>
</mgrwt>
</event>
<event>
 4    1  0.6376580E-005  0.2823345E+03  0.7818608E-02  0.1094421E+00
         -1   -1    0    0    0  501 -0.00000000000E+00  0.00000000000E+00  0.79224577393E+02  0.79224577554E+02  0.50400000000E-02 0. -1.
          1   -1    0    0  501    0  0.00000000000E+00 -0.00000000000E+00 -0.25154045677E+03  0.25154045682E+03  0.50400000000E-02 0.  1.
    5000001    1    1    2    0    0  0.13223337331E+02 -0.58262395086E+02 -0.10391833128E+03  0.17463499909E+03  0.12700000000E+03 0.  0.
   -5000001    1    1    2    0    0 -0.13223337331E+02  0.58262395086E+02 -0.68397548092E+02  0.15613003528E+03  0.12700000000E+03 0.  0.
<mgrwt>
<rscale>  0 0.28233446E+03</rscale>
<asrwt>0</asrwt>
<pdfrwt beam="1">  1        1 0.35934351E-01 0.28233446E+03</pdfrwt>
<pdfrwt beam="2">  1       -1 0.11317797E-01 0.28233446E+03</pdfrwt>
<totfact> 0.60094330E+03</totfact>
</mgrwt>
</event>
<event>
 4    1  0.6376580E-005  0.5164213E+03  0.7818608E-02  0.1009579E+00
          1   -1    0    0  501    0  0.00000000000E+00  0.00000000000E+00  0.28007791136E+03  0.28007791140E+03  0.50400000000E-02 0. -1.
         -1   -1    0    0    0  501 -0.00000000000E+00 -0.00000000000E+00 -0.23805068530E+03  0.23805068535E+03  0.50400000000E-02 0.  1.
    5000001    1    1    2    0    0 -0.14190482718E+02  0.22271330348E+03 -0.63005235627E+01  0.25684875305E+03  0.12700000000E+03 0.  0.
   -5000001    1    1    2    0    0  0.14190482718E+02 -0.22271330348E+03  0.48327749618E+02  0.26127984371E+03  0.12700000000E+03 0.  0.
<mgrwt>
<rscale>  0 0.51642130E+03</rscale>
<asrwt>0</asrwt>
<pdfrwt beam="1">  1        1 0.40011130E-01 0.51642130E+03</pdfrwt>
<pdfrwt beam="2">  1       -1 0.34007241E-01 0.51642130E+03</pdfrwt>
<totfact> 0.86644279E+02</totfact>
</mgrwt>
</event>
<event>
 4    1  0.6376580E-005  0.5437779E+03  0.7818608E-02  0.1002944E+00
         -1   -1    0    0    0  501 -0.00000000000E+00  0.00000000000E+00  0.28317590424E+02  0.28317590872E+02  0.50400000000E-02 0. -1.
          1   -1    0    0  501    0  0.00000000000E+00 -0.00000000000E+00 -0.26105188932E+04  0.26105188932E+04  0.50400000000E-02 0.  1.
    5000001    1    1    2    0    0 -0.23302995497E+03  0.56016771031E+02 -0.11998261463E+04  0.12301026867E+04  0.12700000000E+03 0.  0.
   -5000001    1    1    2    0    0  0.23302995497E+03 -0.56016771031E+02 -0.13823751565E+04  0.14087337974E+04  0.12700000000E+03 0.  0.
<mgrwt>
<rscale>  0 0.54377792E+03</rscale>
<asrwt>0</asrwt>
<pdfrwt beam="1">  1        1 0.37293112E+00 0.54377792E+03</pdfrwt>
<pdfrwt beam="2">  1       -1 0.40453718E-02 0.54377792E+03</pdfrwt>
<totfact> 0.41575360E+02</totfact>
</mgrwt>
</event>
<event>
 4    1  0.6376580E-005  0.3400591E+03  0.7818608E-02  0.1066771E+00
          1   -1    0    0  501    0  0.00000000000E+00  0.00000000000E+00  0.29925564127E+04  0.29925564127E+04  0.50400000000E-02 0.  1.
         -1   -1    0    0    0  501 -0.00000000000E+00 -0.00000000000E+00 -0.96606546900E+01  0.96606560047E+01  0.50400000000E-02 0. -1.
    5000001    1    1    2    0    0  0.27734816733E+02 -0.54135907016E+02  0.65013448417E+03  0.66520956397E+03  0.12700000000E+03 0.  0.
   -5000001    1    1    2    0    0 -0.27734816733E+02  0.54135907016E+02  0.23327612739E+04  0.23370075048E+04  0.12700000000E+03 0.  0.
<mgrwt>
<rscale>  0 0.34005915E+03</rscale>
<asrwt>0</asrwt>
<pdfrwt beam="1">  1        1 0.42750804E+00 0.34005915E+03</pdfrwt>
<pdfrwt beam="2">  1       -1 0.13800937E-02 0.34005915E+03</pdfrwt>
<totfact> 0.12048125E+03</totfact>
</mgrwt>
</event>
<event>
 4    1  0.6376580E-005  0.5299489E+03  0.7818608E-02  0.1006245E+00
         -1   -1    0    0    0  501 -0.00000000000E+00  0.00000000000E+00  0.21274569650E+03  0.21274569656E+03  0.50400000000E-02 0.  1.
          1   -1    0    0  501    0  0.00000000000E+00 -0.00000000000E+00 -0.33002526272E+03  0.33002526276E+03  0.50400000000E-02 0. -1.
    5000001    1    1    2    0    0  0.20799011314E+03  0.10724674364E+02 -0.16462069445E+03  0.29428536974E+03  0.12700000000E+03 0.  0.
   -5000001    1    1    2    0    0 -0.20799011314E+03 -0.10724674364E+02  0.47341128229E+02  0.24848558957E+03  0.12700000000E+03 0.  0.
<mgrwt>
<rscale>  0 0.52994888E+03</rscale>
<asrwt>0</asrwt>
<pdfrwt beam="1">  1        1 0.47146466E-01 0.52994888E+03</pdfrwt>
<pdfrwt beam="2">  1       -1 0.30392242E-01 0.52994888E+03</pdfrwt>
<totfact> 0.85405582E+02</totfact>
</mgrwt>
</event>
<event>
 4    1  0.6376580E-005  0.7686853E+03  0.7818608E-02  0.9606484E-01
         -1   -1    0    0    0  501 -0.00000000000E+00  0.00000000000E+00  0.72284115943E+03  0.72284115944E+03  0.50400000000E-02 0. -1.
          1   -1    0    0  501    0  0.00000000000E+00 -0.00000000000E+00 -0.20435923244E+03  0.20435923250E+03  0.50400000000E-02 0.  1.
    5000001    1    1    2    0    0 -0.80503970287E+02  0.35370168861E+03  0.25668481093E+03  0.46217081898E+03  0.12700000000E+03 0.  0.
   -5000001    1    1    2    0    0  0.80503970287E+02 -0.35370168861E+03  0.26179711606E+03  0.46502957296E+03  0.12700000000E+03 0.  0.
<mgrwt>
<rscale>  0 0.76868528E+03</rscale>
<asrwt>0</asrwt>
<pdfrwt beam="1">  1        1 0.29194176E-01 0.76868528E+03</pdfrwt>
<pdfrwt beam="2">  1       -1 0.10326302E+00 0.76868528E+03</pdfrwt>
<totfact> 0.14284071E+02</totfact>
</mgrwt>
</event>
<event>
 4    1  0.6376580E-005  0.3248787E+03  0.7818608E-02  0.1073426E+00
          1   -1    0    0  501    0  0.00000000000E+00  0.00000000000E+00  0.72999033072E+03  0.72999033074E+03  0.50400000000E-02 0.  1.
         -1   -1    0    0    0  501 -0.00000000000E+00 -0.00000000000E+00 -0.36146436564E+02  0.36146436915E+02  0.50400000000E-02 0. -1.
    5000001    1    1    2    0    0 -0.34233965630E+02  0.72825971006E+02  0.20189669137E+03  0.25172775064E+03  0.12700000000E+03 0.  0.
   -5000001    1    1    2    0    0  0.34233965630E+02 -0.72825971006E+02  0.49194720278E+03  0.51440901701E+03  0.12700000000E+03 0.  0.
<mgrwt>
<rscale>  0 0.32487874E+03</rscale>
<asrwt>0</asrwt>
<pdfrwt beam="1">  1        1 0.10428433E+00 0.32487874E+03</pdfrwt>
<pdfrwt beam="2">  1       -1 0.51637769E-02 0.32487874E+03</pdfrwt>
<totfact> 0.49663284E+03</totfact>
</mgrwt>
</event>
<event>
 4    1  0.6376580E-005  0.2615364E+03  0.7818608E-02  0.1106224E+00
          1   -1    0    0  501    0  0.00000000000E+00  0.00000000000E+00  0.18904703581E+02  0.18904704253E+02  0.50400000000E-02 0.  1.
         -1   -1    0    0    0  501 -0.00000000000E+00 -0.00000000000E+00 -0.90455371771E+03  0.90455371772E+03  0.50400000000E-02 0. -1.
    5000001    1    1    2    0    0  0.11228001156E+02 -0.26562257706E+02 -0.48455767742E+03  0.50175368887E+03  0.12700000000E+03 0.  0.
   -5000001    1    1    2    0    0 -0.11228001156E+02  0.26562257706E+02 -0.40109133670E+03  0.42170473311E+03  0.12700000000E+03 0.  0.
<mgrwt>
<rscale>  0 0.26153639E+03</rscale>
<asrwt>0</asrwt>
<pdfrwt beam="1">  1        1 0.27006726E-02 0.26153639E+03</pdfrwt>
<pdfrwt beam="2">  1       -1 0.12922193E+00 0.26153639E+03</pdfrwt>
<totfact> 0.21793373E+03</totfact>
</mgrwt>
</event>
<event>
 4    1  0.6376580E-005  0.5870048E+03  0.7818608E-02  0.9932740E-01
         -1   -1    0    0    0  501 -0.00000000000E+00  0.00000000000E+00  0.45083033622E+03  0.45083033625E+03  0.50400000000E-02 0.  1.
          1   -1    0    0  501    0  0.00000000000E+00 -0.00000000000E+00 -0.19107778648E+03  0.19107778655E+03  0.50400000000E-02 0. -1.
    5000001    1    1    2    0    0 -0.13389544561E+03  0.22469916861E+03  0.17357589765E+03  0.33863741520E+03  0.12700000000E+03 0.  0.
   -5000001    1    1    2    0    0  0.13389544561E+03 -0.22469916861E+03  0.86176652094E+02  0.30327070761E+03  0.12700000000E+03 0.  0.
<mgrwt>
<rscale>  0 0.58700481E+03</rscale>
<asrwt>0</asrwt>
<pdfrwt beam="1">  1        1 0.27296827E-01 0.58700481E+03</pdfrwt>
<pdfrwt beam="2">  1       -1 0.64404333E-01 0.58700481E+03</pdfrwt>
<totfact> 0.43043192E+02</totfact>
</mgrwt>
</event>
<event>
 4    1  0.6376580E-005  0.8268249E+03  0.7818608E-02  0.9521981E-01
          1   -1    0    0  501    0  0.00000000000E+00  0.00000000000E+00  0.42702317049E+04  0.42702317049E+04  0.50400000000E-02 0. -1.
         -1   -1    0    0    0  501 -0.00000000000E+00 -0.00000000000E+00 -0.40023556362E+02  0.40023556679E+02  0.50400000000E-02 0.  1.
    5000001    1    1    2    0    0 -0.48871837414E+02 -0.35927076868E+03  0.13190821833E+04  0.13738889140E+04  0.12700000000E+03 0.  0.
   -5000001    1    1    2    0    0  0.48871837414E+02  0.35927076868E+03  0.29111259652E+04  0.29363663476E+04  0.12700000000E+03 0.  0.
<mgrwt>
<rscale>  0 0.82682491E+03</rscale>
<asrwt>0</asrwt>
<pdfrwt beam="1">  1        1 0.61003277E+00 0.82682491E+03</pdfrwt>
<pdfrwt beam="2">  1       -1 0.57176541E-02 0.82682491E+03</pdfrwt>
<totfact> 0.16835812E+01</totfact>
</mgrwt>
</event>
<event>
 4    1  0.6376580E-005  0.5550608E+03  0.7818608E-02  0.1000329E+00
          1   -1    0    0  501    0  0.00000000000E+00  0.00000000000E+00  0.71271237833E+03  0.71271237835E+03  0.50400000000E-02 0.  1.
         -1   -1    0    0    0  501 -0.00000000000E+00 -0.00000000000E+00 -0.10807042762E+03  0.10807042774E+03  0.50400000000E-02 0. -1.
    5000001    1    1    2    0    0 -0.10392830312E+03  0.21275395027E+03  0.40507695359E+03  0.48608813386E+03  0.12700000000E+03 0.  0.
   -5000001    1    1    2    0    0  0.10392830312E+03 -0.21275395027E+03  0.19956499712E+03  0.33469467223E+03  0.12700000000E+03 0.  0.
<mgrwt>
<rscale>  0 0.55506083E+03</rscale>
<asrwt>0</asrwt>
<pdfrwt beam="1">  1        1 0.10181605E+00 0.55506083E+03</pdfrwt>
<pdfrwt beam="2">  1       -1 0.15438632E-01 0.55506083E+03</pdfrwt>
<totfact> 0.93648154E+02</totfact>
</mgrwt>
</event>
<event>
 4    1  0.6376580E-005  0.3224018E+03  0.7818608E-02  0.1074549E+00
          1   -1    0    0  501    0  0.00000000000E+00  0.00000000000E+00  0.41961839519E+03  0.41961839522E+03  0.50400000000E-02 0.  1.
         -1   -1    0    0    0  501 -0.00000000000E+00 -0.00000000000E+00 -0.61927066361E+02  0.61927066566E+02  0.50400000000E-02 0. -1.
    5000001    1    1    2    0    0 -0.32792566059E+02  0.92325786156E+02  0.20280570768E+03  0.25857021918E+03  0.12700000000E+03 0.  0.
   -5000001    1    1    2    0    0  0.32792566059E+02 -0.92325786156E+02  0.15488562115E+03  0.22297524261E+03  0.12700000000E+03 0.  0.
<mgrwt>
<rscale>  0 0.32240184E+03</rscale>
<asrwt>0</asrwt>
<pdfrwt beam="1">  1        1 0.59945482E-01 0.32240184E+03</pdfrwt>
<pdfrwt beam="2">  1       -1 0.88467243E-02 0.32240184E+03</pdfrwt>
<totfact> 0.46247880E+03</totfact>
</mgrwt>
</event>
<event>
 4    1  0.6376580E-005  0.3525951E+03  0.7818608E-02  0.1061555E+00
         -1   -1    0    0    0  501 -0.00000000000E+00  0.00000000000E+00  0.14834147588E+03  0.14834147597E+03  0.50400000000E-02 0. -1.
          1   -1    0    0  501    0  0.00000000000E+00 -0.00000000000E+00 -0.20952215366E+03  0.20952215372E+03  0.50400000000E-02 0.  1.
    5000001    1    1    2    0    0 -0.36456207526E+02  0.11549764933E+03 -0.47666223091E+02  0.18185112288E+03  0.12700000000E+03 0.  0.
   -5000001    1    1    2    0    0  0.36456207526E+02 -0.11549764933E+03 -0.13514454685E+02  0.17601250681E+03  0.12700000000E+03 0.  0.
<mgrwt>
<rscale>  0 0.35259510E+03</rscale>
<asrwt>0</asrwt>
<pdfrwt beam="1">  1        1 0.29931736E-01 0.35259510E+03</pdfrwt>
<pdfrwt beam="2">  1       -1 0.21191639E-01 0.35259510E+03</pdfrwt>
<totfact> 0.27949373E+03</totfact>
</mgrwt>
</event>
<event>
 4    1  0.6376580E-005  0.3201082E+03  0.7818608E-02  0.1075599E+00
          1   -1    0    0  501    0  0.00000000000E+00  0.00000000000E+00  0.44919716382E+02  0.44919716665E+02  0.50400000000E-02 0.  1.
         -1   -1    0    0    0  501 -0.00000000000E+00 -0.00000000000E+00 -0.57029125953E+03  0.57029125955E+03  0.50400000000E-02 0. -1.
    5000001    1    1    2    0    0  0.90554703718E+02 -0.31040672728E+02 -0.29731405054E+03  0.33717698969E+03  0.12700000000E+03 0.  0.
   -5000001    1    1    2    0    0 -0.90554703718E+02  0.31040672728E+02 -0.22805749261E+03  0.27803398653E+03  0.12700000000E+03 0.  0.
<mgrwt>
<rscale>  0 0.32010824E+03</rscale>
<asrwt>0</asrwt>
<pdfrwt beam="1">  1        1 0.64171027E-02 0.32010824E+03</pdfrwt>
<pdfrwt beam="2">  1       -1 0.81470175E-01 0.32010824E+03</pdfrwt>
<totfact> 0.18539791E+03</totfact>
</mgrwt>
</event>
<event>
 4    1  0.6376580E-005  0.3425293E+03  0.7818608E-02  0.1065724E+00
         -1   -1    0    0    0  501 -0.00000000000E+00  0.00000000000E+00  0.27961940147E+02  0.27961940602E+02  0.50400000000E-02 0. -1.
          1   -1    0    0  501    0  0.00000000000E+00 -0.00000000000E+00 -0.10489823533E+04  0.10489823533E+04  0.50400000000E-02 0.  1.
    5000001    1    1    2    0    0 -0.10238033792E+03  0.38797851492E+02 -0.40089106222E+03  0.43454533785E+03  0.12700000000E+03 0.  0.
   -5000001    1    1    2    0    0  0.10238033792E+03 -0.38797851492E+02 -0.62012935096E+03  0.64239895610E+03  0.12700000000E+03 0.  0.
<mgrwt>
<rscale>  0 0.34252931E+03</rscale>
<asrwt>0</asrwt>
<pdfrwt beam="1">  1        1 0.14985460E+00 0.34252931E+03</pdfrwt>
<pdfrwt beam="2">  1       -1 0.39945636E-02 0.34252931E+03</pdfrwt>
<totfact> 0.41384719E+03</totfact>
</mgrwt>
</event>
<event>
 4    1  0.6376580E-005  0.2817542E+03  0.7818608E-02  0.1094735E+00
         -1   -1    0    0    0  501 -0.00000000000E+00  0.00000000000E+00  0.17153569053E+02  0.17153569794E+02  0.50400000000E-02 0.  1.
          1   -1    0    0  501    0  0.00000000000E+00 -0.00000000000E+00 -0.11569813362E+04  0.11569813362E+04  0.50400000000E-02 0. -1.
    5000001    1    1    2    0    0  0.22300525875E+02 -0.54406435108E+02 -0.50272110543E+03  0.52183798585E+03  0.12700000000E+03 0.  0.
   -5000001    1    1    2    0    0 -0.22300525875E+02  0.54406435108E+02 -0.63710666176E+03  0.65229692019E+03  0.12700000000E+03 0.  0.
<mgrwt>
<rscale>  0 0.28175422E+03</rscale>
<asrwt>0</asrwt>
<pdfrwt beam="1">  1        1 0.16528300E+00 0.28175422E+03</pdfrwt>
<pdfrwt beam="2">  1       -1 0.24505107E-02 0.28175422E+03</pdfrwt>
<totfact> 0.71664304E+03</totfact>
</mgrwt>
</event>
<event>
 4    1  0.6376580E-005  0.4182087E+03  0.7818608E-02  0.1037651E+00
          1   -1    0    0  501    0  0.00000000000E+00  0.00000000000E+00  0.11940254548E+04  0.11940254548E+04  0.50400000000E-02 0.  1.
         -1   -1    0    0    0  501 -0.00000000000E+00 -0.00000000000E+00 -0.36619519253E+02  0.36619519600E+02  0.50400000000E-02 0. -1.
    5000001    1    1    2    0    0 -0.12270687330E+03 -0.75281924044E+02  0.82262943374E+03  0.84473222390E+03  0.12700000000E+03 0.  0.
   -5000001    1    1    2    0    0  0.12270687330E+03  0.75281924044E+02  0.33477650179E+03  0.38591275049E+03  0.12700000000E+03 0.  0.
<mgrwt>
<rscale>  0 0.41820874E+03</rscale>
<asrwt>0</asrwt>
<pdfrwt beam="1">  1        1 0.17057502E+00 0.41820874E+03</pdfrwt>
<pdfrwt beam="2">  1       -1 0.52313612E-02 0.41820874E+03</pdfrwt>
<totfact> 0.21885166E+03</totfact>
</mgrwt>
</event>
<event>
 4    1  0.6376580E-005  0.3820289E+03  0.7818608E-02  0.1050186E+00
         -1   -1    0    0    0  501 -0.00000000000E+00  0.00000000000E+00  0.31555573327E+03  0.31555573331E+03  0.50400000000E-02 0. -1.
          1   -1    0    0  501    0  0.00000000000E+00 -0.00000000000E+00 -0.11562624888E+03  0.11562624899E+03  0.50400000000E-02 0.  1.
    5000001    1    1    2    0    0  0.10575945571E+03  0.21334774014E+02 -0.54145114154E+01  0.16672897765E+03  0.12700000000E+03 0.  0.
   -5000001    1    1    2    0    0 -0.10575945571E+03 -0.21334774014E+02  0.20534399581E+03  0.26445300465E+03  0.12700000000E+03 0.  0.
<mgrwt>
<rscale>  0 0.38202893E+03</rscale>
<asrwt>0</asrwt>
<pdfrwt beam="1">  1        1 0.16518036E-01 0.38202893E+03</pdfrwt>
<pdfrwt beam="2">  1       -1 0.45079390E-01 0.38202893E+03</pdfrwt>
<totfact> 0.16400676E+03</totfact>
</mgrwt>
</event>
<event>
 4    1  0.6376580E-005  0.6074753E+03  0.7818608E-02  0.9890017E-01
          1   -1    0    0  501    0  0.00000000000E+00  0.00000000000E+00  0.67645862131E+02  0.67645862319E+02  0.50400000000E-02 0.  1.
         -1   -1    0    0    0  501 -0.00000000000E+00 -0.00000000000E+00 -0.13638166661E+04  0.13638166661E+04  0.50400000000E-02 0. -1.
    5000001    1    1    2    0    0  0.14447165758E+03 -0.15643600987E+03 -0.23464897007E+03  0.34136992279E+03  0.12700000000E+03 0.  0.
   -5000001    1    1    2    0    0 -0.14447165758E+03  0.15643600987E+03 -0.10615218339E+04  0.10900926056E+04  0.12700000000E+03 0.  0.
<mgrwt>
<rscale>  0 0.60747528E+03</rscale>
<asrwt>0</asrwt>
<pdfrwt beam="1">  1        1 0.96636955E-02 0.60747528E+03</pdfrwt>
<pdfrwt beam="2">  1       -1 0.19483094E+00 0.60747528E+03</pdfrwt>
<totfact> 0.11846757E+02</totfact>
</mgrwt>
</event>
<event>
 4    1  0.6376580E-005  0.3002729E+03  0.7818608E-02  0.1085104E+00
          1   -1    0    0  501    0  0.00000000000E+00  0.00000000000E+00  0.13965668028E+03  0.13965668037E+03  0.50400000000E-02 0. -1.
         -1   -1    0    0    0  501 -0.00000000000E+00 -0.00000000000E+00 -0.16140261447E+03  0.16140261455E+03  0.50400000000E-02 0.  1.
    5000001    1    1    2    0    0 -0.54668557089E+02  0.30152178783E+02 -0.61145567815E+02  0.15416090777E+03  0.12700000000E+03 0.  0.
   -5000001    1    1    2    0    0  0.54668557089E+02 -0.30152178783E+02  0.39399633625E+02  0.14689838716E+03  0.12700000000E+03 0.  0.
<mgrwt>
<rscale>  0 0.30027290E+03</rscale>
<asrwt>0</asrwt>
<pdfrwt beam="1">  1        1 0.19950954E-01 0.30027290E+03</pdfrwt>
<pdfrwt beam="2">  1       -1 0.23057516E-01 0.30027290E+03</pdfrwt>
<totfact> 0.40740820E+03</totfact>
</mgrwt>
</event>
<event>
 4    1  0.6376580E-005  0.5099453E+03  0.7818608E-02  0.1011215E+00
         -1   -1    0    0    0  501 -0.00000000000E+00  0.00000000000E+00  0.15894391411E+03  0.15894391419E+03  0.50400000000E-02 0. -1.
          1   -1    0    0  501    0  0.00000000000E+00 -0.00000000000E+00 -0.40901878652E+03  0.40901878655E+03  0.50400000000E-02 0.  1.
    5000001    1    1    2    0    0 -0.28863174466E+02  0.18543714953E+03  0.51454272570E+01  0.22666163038E+03  0.12700000000E+03 0.  0.
   -5000001    1    1    2    0    0  0.28863174466E+02 -0.18543714953E+03 -0.25522029967E+03  0.34130107036E+03  0.12700000000E+03 0.  0.
<mgrwt>
<rscale>  0 0.50994528E+03</rscale>
<asrwt>0</asrwt>
<pdfrwt beam="1">  1        1 0.58431255E-01 0.50994528E+03</pdfrwt>
<pdfrwt beam="2">  1       -1 0.22706274E-01 0.50994528E+03</pdfrwt>
<totfact> 0.10628564E+03</totfact>
</mgrwt>
</event>
<event>
 4    1  0.6376580E-005  0.4529420E+03  0.7818608E-02  0.1026848E+00
          1   -1    0    0  501    0  0.00000000000E+00  0.00000000000E+00  0.24366186872E+04  0.24366186872E+04  0.50400000000E-02 0.  1.
         -1   -1    0    0    0  501 -0.00000000000E+00 -0.00000000000E+00 -0.21049299262E+02  0.21049299865E+02  0.50400000000E-02 0. -1.
    5000001    1    1    2    0    0  0.13555092574E+03 -0.17282870271E+02  0.19045014273E+04  0.19136163246E+04  0.12700000000E+03 0.  0.
   -5000001    1    1    2    0    0 -0.13555092574E+03  0.17282870271E+02  0.51106796058E+03  0.54405166244E+03  0.12700000000E+03 0.  0.
<mgrwt>
<rscale>  0 0.45294201E+03</rscale>
<asrwt>0</asrwt>
<pdfrwt beam="1">  1        1 0.34808840E+00 0.45294201E+03</pdfrwt>
<pdfrwt beam="2">  1       -1 0.30070427E-02 0.45294201E+03</pdfrwt>
<totfact> 0.84011958E+02</totfact>
</mgrwt>
</event>
<event>
 4    1  0.6376580E-005  0.3578614E+03  0.7818608E-02  0.1059434E+00
         -1   -1    0    0    0  501 -0.00000000000E+00  0.00000000000E+00  0.11628083254E+03  0.11628083265E+03  0.50400000000E-02 0. -1.
          1   -1    0    0  501    0  0.00000000000E+00 -0.00000000000E+00 -0.27533512578E+03  0.27533512582E+03  0.50400000000E-02 0.  1.
    5000001    1    1    2    0    0  0.94368440905E+02  0.52912418178E+02 -0.15029584572E+03  0.22455059091E+03  0.12700000000E+03 0.  0.
   -5000001    1    1    2    0    0 -0.94368440905E+02 -0.52912418178E+02 -0.87584475112E+01  0.16706536756E+03  0.12700000000E+03 0.  0.
<mgrwt>
<rscale>  0 0.35786141E+03</rscale>
<asrwt>0</asrwt>
<pdfrwt beam="1">  1        1 0.39333589E-01 0.35786141E+03</pdfrwt>
<pdfrwt beam="2">  1       -1 0.16611548E-01 0.35786141E+03</pdfrwt>
<totfact> 0.29388314E+03</totfact>
</mgrwt>
</event>
<event>
 4    1  0.6376580E-005  0.5591152E+03  0.7818608E-02  0.9994059E-01
          1   -1    0    0  501    0  0.00000000000E+00  0.00000000000E+00  0.72067558531E+02  0.72067558708E+02  0.50400000000E-02 0.  1.
         -1   -1    0    0    0  501 -0.00000000000E+00 -0.00000000000E+00 -0.10844331053E+04  0.10844331053E+04  0.50400000000E-02 0. -1.
    5000001    1    1    2    0    0 -0.24076274498E+03 -0.14541045303E+02 -0.37791723154E+03  0.46597057339E+03  0.12700000000E+03 0.  0.
   -5000001    1    1    2    0    0  0.24076274498E+03  0.14541045303E+02 -0.63444831525E+03  0.69053009065E+03  0.12700000000E+03 0.  0.
<mgrwt>
<rscale>  0 0.55911518E+03</rscale>
<asrwt>0</asrwt>
<pdfrwt beam="1">  1        1 0.10295366E-01 0.55911518E+03</pdfrwt>
<pdfrwt beam="2">  1       -1 0.15491901E+00 0.55911518E+03</pdfrwt>
<totfact> 0.21107010E+02</totfact>
</mgrwt>
</event>
<event>
 4    1  0.6376580E-005  0.2886341E+03  0.7818608E-02  0.1091064E+00
          1   -1    0    0  501    0  0.00000000000E+00  0.00000000000E+00  0.77062404229E+03  0.77062404231E+03  0.50400000000E-02 0.  1.
         -1   -1    0    0    0  501 -0.00000000000E+00 -0.00000000000E+00 -0.27026685375E+02  0.27026685845E+02  0.50400000000E-02 0. -1.
    5000001    1    1    2    0    0 -0.60950867501E+02 -0.12915618449E+02  0.45076969578E+03  0.47244485401E+03  0.12700000000E+03 0.  0.
   -5000001    1    1    2    0    0  0.60950867501E+02  0.12915618449E+02  0.29282766113E+03  0.32520587414E+03  0.12700000000E+03 0.  0.
<mgrwt>
<rscale>  0 0.28863412E+03</rscale>
<asrwt>0</asrwt>
<pdfrwt beam="1">  1        1 0.11008916E+00 0.28863412E+03</pdfrwt>
<pdfrwt beam="2">  1       -1 0.38609548E-02 0.28863412E+03</pdfrwt>
<totfact> 0.70698489E+03</totfact>
</mgrwt>
</event>
<event>
 4    1  0.6376580E-005  0.5604961E+03  0.7818608E-02  0.9990933E-01
         -1   -1    0    0    0  501 -0.00000000000E+00  0.00000000000E+00  0.25996969279E+02  0.25996969767E+02  0.50400000000E-02 0.  1.
          1   -1    0    0  501    0  0.00000000000E+00 -0.00000000000E+00 -0.30210814793E+04  0.30210814793E+04  0.50400000000E-02 0. -1.
    5000001    1    1    2    0    0  0.59747687397E+01  0.24839890472E+03 -0.13565886203E+04  0.13849907575E+04  0.12700000000E+03 0.  0.
   -5000001    1    1    2    0    0 -0.59747687397E+01 -0.24839890472E+03 -0.16384958897E+04  0.16620876915E+04  0.12700000000E+03 0.  0.
<mgrwt>
<rscale>  0 0.56049608E+03</rscale>
<asrwt>0</asrwt>
<pdfrwt beam="1">  1        1 0.43158284E+00 0.56049608E+03</pdfrwt>
<pdfrwt beam="2">  1       -1 0.37138547E-02 0.56049608E+03</pdfrwt>
<totfact> 0.25905344E+02</totfact>
</mgrwt>
</event>
<event>
 4    1  0.6376580E-005  0.4086613E+03  0.7818608E-02  0.1040821E+00
          1   -1    0    0  501    0  0.00000000000E+00  0.00000000000E+00  0.14554744233E+03  0.14554744242E+03  0.50400000000E-02 0.  1.
         -1   -1    0    0    0  501 -0.00000000000E+00 -0.00000000000E+00 -0.28685501902E+03  0.28685501906E+03  0.50400000000E-02 0. -1.
    5000001    1    1    2    0    0  0.22476148998E+02  0.15505367030E+03 -0.35958655812E+02  0.20486298562E+03  0.12700000000E+03 0.  0.
   -5000001    1    1    2    0    0 -0.22476148998E+02 -0.15505367030E+03 -0.10534892088E+03  0.22753947587E+03  0.12700000000E+03 0.  0.
<mgrwt>
<rscale>  0 0.40866130E+03</rscale>
<asrwt>0</asrwt>
<pdfrwt beam="1">  1        1 0.20792492E-01 0.40866130E+03</pdfrwt>
<pdfrwt beam="2">  1       -1 0.40979288E-01 0.40866130E+03</pdfrwt>
<totfact> 0.14434297E+03</totfact>
</mgrwt>
</event>
<event>
 4    1  0.6376580E-005  0.4036778E+03  0.7818608E-02  0.1042514E+00
         -1   -1    0    0    0  501 -0.00000000000E+00  0.00000000000E+00  0.12771728103E+02  0.12771729097E+02  0.50400000000E-02 0. -1.
          1   -1    0    0  501    0  0.00000000000E+00 -0.00000000000E+00 -0.31897747660E+04  0.31897747660E+04  0.50400000000E-02 0.  1.
    5000001    1    1    2    0    0  0.13827449422E+03  0.11097029934E+01 -0.21762643079E+04  0.21843480503E+04  0.12700000000E+03 0.  0.
   -5000001    1    1    2    0    0 -0.13827449422E+03 -0.11097029934E+01 -0.10007387299E+04  0.10181984447E+04  0.12700000000E+03 0.  0.
<mgrwt>
<rscale>  0 0.40367778E+03</rscale>
<asrwt>0</asrwt>
<pdfrwt beam="1">  1        1 0.45568160E+00 0.40367778E+03</pdfrwt>
<pdfrwt beam="2">  1       -1 0.18245347E-02 0.40367778E+03</pdfrwt>
<totfact> 0.59237093E+02</totfact>
</mgrwt>
</event>
<event>
 4    1  0.6376580E-005  0.3347291E+03  0.7818608E-02  0.1069063E+00
          1   -1    0    0  501    0  0.00000000000E+00  0.00000000000E+00  0.53987891762E+02  0.53987891998E+02  0.50400000000E-02 0.  1.
         -1   -1    0    0    0  501 -0.00000000000E+00 -0.00000000000E+00 -0.51883667908E+03  0.51883667911E+03  0.50400000000E-02 0. -1.
    5000001    1    1    2    0    0 -0.71188744287E+02 -0.18260771973E+02 -0.37018844730E+03  0.39820821139E+03  0.12700000000E+03 0.  0.
   -5000001    1    1    2    0    0  0.71188744287E+02  0.18260771973E+02 -0.94660340020E+02  0.17461635971E+03  0.12700000000E+03 0.  0.
<mgrwt>
<rscale>  0 0.33472914E+03</rscale>
<asrwt>0</asrwt>
<pdfrwt beam="1">  1        1 0.77125563E-02 0.33472914E+03</pdfrwt>
<pdfrwt beam="2">  1       -1 0.74119523E-01 0.33472914E+03</pdfrwt>
<totfact> 0.17515547E+03</totfact>
</mgrwt>
</event>
<event>
 4    1  0.6376580E-005  0.5230494E+03  0.7818608E-02  0.1007932E+00
         -1   -1    0    0    0  501 -0.00000000000E+00  0.00000000000E+00  0.85147326379E+02  0.85147326529E+02  0.50400000000E-02 0. -1.
          1   -1    0    0  501    0  0.00000000000E+00 -0.00000000000E+00 -0.80325664817E+03  0.80325664818E+03  0.50400000000E-02 0.  1.
    5000001    1    1    2    0    0 -0.11514578298E+03  0.67356544048E+02 -0.67440469376E+03  0.69910381656E+03  0.12700000000E+03 0.  0.
   -5000001    1    1    2    0    0  0.11514578298E+03 -0.67356544048E+02 -0.43704628024E+02  0.18930015815E+03  0.12700000000E+03 0.  0.
<mgrwt>
<rscale>  0 0.52304935E+03</rscale>
<asrwt>0</asrwt>
<pdfrwt beam="1">  1        1 0.11475095E+00 0.52304935E+03</pdfrwt>
<pdfrwt beam="2">  1       -1 0.12163904E-01 0.52304935E+03</pdfrwt>
<totfact> 0.11483690E+03</totfact>
</mgrwt>
</event>
<event>
 4    1  0.6376580E-005  0.3059338E+03  0.7818608E-02  0.1082311E+00
          1   -1    0    0  501    0  0.00000000000E+00  0.00000000000E+00  0.11451906468E+04  0.11451906468E+04  0.50400000000E-02 0. -1.
         -1   -1    0    0    0  501 -0.00000000000E+00 -0.00000000000E+00 -0.20432287554E+02  0.20432288175E+02  0.50400000000E-02 0.  1.
    5000001    1    1    2    0    0  0.31691730637E+02 -0.65710731469E+02  0.39423553440E+03  0.42056262626E+03  0.12700000000E+03 0.  0.
   -5000001    1    1    2    0    0 -0.31691730637E+02  0.65710731469E+02  0.73052282484E+03  0.74506030872E+03  0.12700000000E+03 0.  0.
<mgrwt>
<rscale>  0 0.30593375E+03</rscale>
<asrwt>0</asrwt>
<pdfrwt beam="1">  1        1 0.16359869E+00 0.30593375E+03</pdfrwt>
<pdfrwt beam="2">  1       -1 0.29188979E-02 0.30593375E+03</pdfrwt>
<totfact> 0.56496908E+03</totfact>
</mgrwt>
</event>
<event>
 4    1  0.6376580E-005  0.3725821E+03  0.7818608E-02  0.1053710E+00
         -1   -1    0    0    0  501 -0.00000000000E+00  0.00000000000E+00  0.36801996758E+02  0.36801997103E+02  0.50400000000E-02 0. -1.
          1   -1    0    0  501    0  0.00000000000E+00 -0.00000000000E+00 -0.94300215489E+03  0.94300215491E+03  0.50400000000E-02 0.  1.
    5000001    1    1    2    0    0 -0.10175306246E+03 -0.20962071984E+02 -0.68509065485E+03  0.70446525787E+03  0.12700000000E+03 0.  0.
   -5000001    1    1    2    0    0  0.10175306246E+03  0.20962071984E+02 -0.22110950328E+03  0.27533889414E+03  0.12700000000E+03 0.  0.
<mgrwt>
<rscale>  0 0.37258214E+03</rscale>
<asrwt>0</asrwt>
<pdfrwt beam="1">  1        1 0.13471458E+00 0.37258214E+03</pdfrwt>
<pdfrwt beam="2">  1       -1 0.52574287E-02 0.37258214E+03</pdfrwt>
<totfact> 0.32715767E+03</totfact>
</mgrwt>
</event>
<event>
 4    1  0.6376580E-005  0.4380697E+03  0.7818608E-02  0.1031341E+00
         -1   -1    0    0    0  501 -0.00000000000E+00  0.00000000000E+00  0.39734045862E+02  0.39734046182E+02  0.50400000000E-02 0. -1.
          1   -1    0    0  501    0  0.00000000000E+00 -0.00000000000E+00 -0.12074346151E+04  0.12074346151E+04  0.50400000000E-02 0.  1.
    5000001    1    1    2    0    0 -0.35116298125E+02 -0.13102536762E+03 -0.25371952647E+03  0.31448910866E+03  0.12700000000E+03 0.  0.
   -5000001    1    1    2    0    0  0.35116298125E+02  0.13102536762E+03 -0.91398104274E+03  0.93267955260E+03  0.12700000000E+03 0.  0.
<mgrwt>
<rscale>  0 0.43806969E+03</rscale>
<asrwt>0</asrwt>
<pdfrwt beam="1">  1        1 0.17249064E+00 0.43806969E+03</pdfrwt>
<pdfrwt beam="2">  1       -1 0.56762930E-02 0.43806969E+03</pdfrwt>
<totfact> 0.18924298E+03</totfact>
</mgrwt>
</event>
<event>
 4    1  0.6376580E-005  0.3356341E+03  0.7818608E-02  0.1068671E+00
         -1   -1    0    0    0  501 -0.00000000000E+00  0.00000000000E+00  0.83668360506E+02  0.83668360657E+02  0.50400000000E-02 0. -1.
          1   -1    0    0  501    0  0.00000000000E+00 -0.00000000000E+00 -0.33659746044E+03  0.33659746048E+03  0.50400000000E-02 0.  1.
    5000001    1    1    2    0    0  0.36548684898E+02 -0.10331055093E+03 -0.12024379702E+03  0.20638906711E+03  0.12700000000E+03 0.  0.
   -5000001    1    1    2    0    0 -0.36548684898E+02  0.10331055093E+03 -0.13268530292E+03  0.21387675403E+03  0.12700000000E+03 0.  0.
<mgrwt>
<rscale>  0 0.33563407E+03</rscale>
<asrwt>0</asrwt>
<pdfrwt beam="1">  1        1 0.48085351E-01 0.33563407E+03</pdfrwt>
<pdfrwt beam="2">  1       -1 0.11952623E-01 0.33563407E+03</pdfrwt>
<totfact> 0.38408398E+03</totfact>
</mgrwt>
</event>
<event>
 4    1  0.6376580E-005  0.4598649E+03  0.7818608E-02  0.1024820E+00
         -1   -1    0    0    0  501 -0.00000000000E+00  0.00000000000E+00  0.41163136977E+02  0.41163137285E+02  0.50400000000E-02 0. -1.
          1   -1    0    0  501    0  0.00000000000E+00 -0.00000000000E+00 -0.12843755835E+04  0.12843755835E+04  0.50400000000E-02 0.  1.
    5000001    1    1    2    0    0  0.91698679135E+02  0.16781344163E+03 -0.65918099480E+03  0.69801044609E+03  0.12700000000E+03 0.  0.
   -5000001    1    1    2    0    0 -0.91698679135E+02 -0.16781344163E+03 -0.58403145170E+03  0.62752827468E+03  0.12700000000E+03 0.  0.
<mgrwt>
<rscale>  0 0.45986489E+03</rscale>
<asrwt>0</asrwt>
<pdfrwt beam="1">  1        1 0.18348220E+00 0.45986489E+03</pdfrwt>
<pdfrwt beam="2">  1       -1 0.58804490E-02 0.45986489E+03</pdfrwt>
<totfact> 0.15917852E+03</totfact>
</mgrwt>
</event>
<event>
 4    1  0.6376580E-005  0.3363305E+03  0.7818608E-02  0.1068370E+00
         -1   -1    0    0    0  501 -0.00000000000E+00  0.00000000000E+00  0.44804784122E+03  0.44804784125E+03  0.50400000000E-02 0. -1.
          1   -1    0    0  501    0  0.00000000000E+00 -0.00000000000E+00 -0.63117272132E+02  0.63117272333E+02  0.50400000000E-02 0.  1.
    5000001    1    1    2    0    0 -0.80131320352E+02  0.57986244859E+02  0.26640971258E+03  0.31126607276E+03  0.12700000000E+03 0.  0.
   -5000001    1    1    2    0    0  0.80131320352E+02 -0.57986244859E+02  0.11852085651E+03  0.19989904082E+03  0.12700000000E+03 0.  0.
<mgrwt>
<rscale>  0 0.33633054E+03</rscale>
<asrwt>0</asrwt>
<pdfrwt beam="1">  1        1 0.90167527E-02 0.33633054E+03</pdfrwt>
<pdfrwt beam="2">  1       -1 0.64006838E-01 0.33633054E+03</pdfrwt>
<totfact> 0.18980162E+03</totfact>
</mgrwt>
</event>
<event>
 4    1  0.6376580E-005  0.4114692E+03  0.7818608E-02  0.1039879E+00
         -1   -1    0    0    0  501 -0.00000000000E+00  0.00000000000E+00  0.10913171255E+03  0.10913171266E+03  0.50400000000E-02 0. -1.
          1   -1    0    0  501    0  0.00000000000E+00 -0.00000000000E+00 -0.38784984515E+03  0.38784984518E+03  0.50400000000E-02 0.  1.
    5000001    1    1    2    0    0 -0.11480196246E+03 -0.32417640936E+00 -0.27716793019E+03  0.32577700533E+03  0.12700000000E+03 0.  0.
   -5000001    1    1    2    0    0  0.11480196246E+03  0.32417640936E+00 -0.15502024112E+01  0.17120455252E+03  0.12700000000E+03 0.  0.
<mgrwt>
<rscale>  0 0.41146916E+03</rscale>
<asrwt>0</asrwt>
<pdfrwt beam="1">  1        1 0.55407120E-01 0.41146916E+03</pdfrwt>
<pdfrwt beam="2">  1       -1 0.15590245E-01 0.41146916E+03</pdfrwt>
<totfact> 0.21078152E+03</totfact>
</mgrwt>
</event>
<event>
 4    1  0.6376580E-005  0.4362933E+03  0.7818608E-02  0.1031890E+00
         -1   -1    0    0    0  501 -0.00000000000E+00  0.00000000000E+00  0.11264177377E+03  0.11264177389E+03  0.50400000000E-02 0. -1.
          1   -1    0    0  501    0  0.00000000000E+00 -0.00000000000E+00 -0.42247174542E+03  0.42247174545E+03  0.50400000000E-02 0.  1.
    5000001    1    1    2    0    0 -0.15043573503E+03 -0.85816068992E+02 -0.20183814757E+03  0.29472520403E+03  0.12700000000E+03 0.  0.
   -5000001    1    1    2    0    0  0.15043573503E+03  0.85816068992E+02 -0.10799182408E+03  0.24038831531E+03  0.12700000000E+03 0.  0.
<mgrwt>
<rscale>  0 0.43629333E+03</rscale>
<asrwt>0</asrwt>
<pdfrwt beam="1">  1        1 0.60353106E-01 0.43629333E+03</pdfrwt>
<pdfrwt beam="2">  1       -1 0.16091682E-01 0.43629333E+03</pdfrwt>
<totfact> 0.17938278E+03</totfact>
</mgrwt>
</event>
<event>
 4    1  0.6376580E-005  0.5319197E+03  0.7818608E-02  0.1005768E+00
          1   -1    0    0  501    0  0.00000000000E+00  0.00000000000E+00  0.40972528976E+03  0.40972528979E+03  0.50400000000E-02 0. -1.
         -1   -1    0    0    0  501 -0.00000000000E+00 -0.00000000000E+00 -0.17263919410E+03  0.17263919418E+03  0.50400000000E-02 0.  1.
    5000001    1    1    2    0    0 -0.72998852575E+01 -0.22899651276E+03  0.68216900425E+02  0.27069399085E+03  0.12700000000E+03 0.  0.
   -5000001    1    1    2    0    0  0.72998852575E+01  0.22899651276E+03  0.16886919524E+03  0.31167049312E+03  0.12700000000E+03 0.  0.
<mgrwt>
<rscale>  0 0.53191971E+03</rscale>
<asrwt>0</asrwt>
<pdfrwt beam="1">  1        1 0.58532185E-01 0.53191971E+03</pdfrwt>
<pdfrwt beam="2">  1       -1 0.24662742E-01 0.53191971E+03</pdfrwt>
<totfact> 0.92267148E+02</totfact>
</mgrwt>
</event>
<event>
 4    1  0.6376580E-005  0.4136198E+03  0.7818608E-02  0.1039163E+00
          1   -1    0    0  501    0  0.00000000000E+00  0.00000000000E+00  0.30094746494E+03  0.30094746498E+03  0.50400000000E-02 0.  1.
         -1   -1    0    0    0  501 -0.00000000000E+00 -0.00000000000E+00 -0.14211894978E+03  0.14211894986E+03  0.50400000000E-02 0. -1.
    5000001    1    1    2    0    0  0.11393687143E+03  0.48956519042E+02  0.19309692963E+03  0.26228567567E+03  0.12700000000E+03 0.  0.
   -5000001    1    1    2    0    0 -0.11393687143E+03 -0.48956519042E+02 -0.34268414470E+02  0.18078073918E+03  0.12700000000E+03 0.  0.
<mgrwt>
<rscale>  0 0.41361981E+03</rscale>
<asrwt>0</asrwt>
<pdfrwt beam="1">  1        1 0.42992495E-01 0.41361981E+03</pdfrwt>
<pdfrwt beam="2">  1       -1 0.20302707E-01 0.41361981E+03</pdfrwt>
<totfact> 0.18974968E+03</totfact>
</mgrwt>
</event>
<event>
 4    1  0.6376580E-005  0.5970337E+03  0.7818608E-02  0.9911579E-01
          1   -1    0    0  501    0  0.00000000000E+00  0.00000000000E+00  0.31646375406E+04  0.31646375406E+04  0.50400000000E-02 0.  1.
         -1   -1    0    0    0  501 -0.00000000000E+00 -0.00000000000E+00 -0.28158774201E+02  0.28158774652E+02  0.50400000000E-02 0. -1.
    5000001    1    1    2    0    0  0.21101587284E+03 -0.16383821859E+03  0.13534845327E+04  0.13854313555E+04  0.12700000000E+03 0.  0.
   -5000001    1    1    2    0    0 -0.21101587284E+03  0.16383821859E+03  0.17829942337E+04  0.18073649598E+04  0.12700000000E+03 0.  0.
<mgrwt>
<rscale>  0 0.59703372E+03</rscale>
<asrwt>0</asrwt>
<pdfrwt beam="1">  1        1 0.45209086E+00 0.59703372E+03</pdfrwt>
<pdfrwt beam="2">  1       -1 0.40226840E-02 0.59703372E+03</pdfrwt>
<totfact> 0.18421360E+02</totfact>
</mgrwt>
</event>
<event>
 4    1  0.6376580E-005  0.3738709E+03  0.7818608E-02  0.1053223E+00
          1   -1    0    0  501    0  0.00000000000E+00  0.00000000000E+00  0.13904904327E+04  0.13904904327E+04  0.50400000000E-02 0.  1.
         -1   -1    0    0    0  501 -0.00000000000E+00 -0.00000000000E+00 -0.25131321241E+02  0.25131321747E+02  0.50400000000E-02 0. -1.
    5000001    1    1    2    0    0  0.79881338851E+02  0.10802600420E+03  0.57793832958E+03  0.60678856175E+03  0.12700000000E+03 0.  0.
   -5000001    1    1    2    0    0 -0.79881338851E+02 -0.10802600420E+03  0.78742078190E+03  0.80883319272E+03  0.12700000000E+03 0.  0.
<mgrwt>
<rscale>  0 0.37387090E+03</rscale>
<asrwt>0</asrwt>
<pdfrwt beam="1">  1        1 0.19864154E+00 0.37387090E+03</pdfrwt>
<pdfrwt beam="2">  1       -1 0.35901878E-02 0.37387090E+03</pdfrwt>
<totfact> 0.28649762E+03</totfact>
</mgrwt>
</event>
<event>
 4    1  0.6376580E-005  0.1149017E+04  0.7818608E-02  0.9158691E-01
          1   -1    0    0  501    0  0.00000000000E+00  0.00000000000E+00  0.10461553070E+04  0.10461553070E+04  0.50400000000E-02 0.  1.
         -1   -1    0    0    0  501 -0.00000000000E+00 -0.00000000000E+00 -0.31549786040E+03  0.31549786044E+03  0.50400000000E-02 0. -1.
    5000001    1    1    2    0    0  0.11283071201E+03 -0.46025183028E+03  0.71959664312E+03  0.87092528131E+03  0.12700000000E+03 0.  0.
   -5000001    1    1    2    0    0 -0.11283071201E+03  0.46025183028E+03  0.11060803469E+02  0.49072788612E+03  0.12700000000E+03 0.  0.
<mgrwt>
<rscale>  0 0.11490166E+04</rscale>
<asrwt>0</asrwt>
<pdfrwt beam="1">  1        1 0.14945076E+00 0.11490166E+04</pdfrwt>
<pdfrwt beam="2">  1       -1 0.45071123E-01 0.11490166E+04</pdfrwt>
<totfact> 0.77291414E+01</totfact>
</mgrwt>
</event>
<event>
 4    1  0.6376580E-005  0.3365221E+03  0.7818608E-02  0.1068287E+00
          1   -1    0    0  501    0  0.00000000000E+00  0.00000000000E+00  0.31235989052E+03  0.31235989056E+03  0.50400000000E-02 0.  1.
         -1   -1    0    0    0  501 -0.00000000000E+00 -0.00000000000E+00 -0.90638342449E+02  0.90638342589E+02  0.50400000000E-02 0. -1.
    5000001    1    1    2    0    0  0.98684765275E+02 -0.37963239559E+02  0.14878499666E+03  0.22236426351E+03  0.12700000000E+03 0.  0.
   -5000001    1    1    2    0    0 -0.98684765275E+02  0.37963239559E+02  0.72936551402E+02  0.18063396963E+03  0.12700000000E+03 0.  0.
<mgrwt>
<rscale>  0 0.33652211E+03</rscale>
<asrwt>0</asrwt>
<pdfrwt beam="1">  1        1 0.44622842E-01 0.33652211E+03</pdfrwt>
<pdfrwt beam="2">  1       -1 0.12948335E-01 0.33652211E+03</pdfrwt>
<totfact> 0.37226043E+03</totfact>
</mgrwt>
</event>
<event>
 4    1  0.6376580E-005  0.3716010E+03  0.7818608E-02  0.1054082E+00
         -1   -1    0    0    0  501 -0.00000000000E+00  0.00000000000E+00  0.49796610522E+02  0.49796610777E+02  0.50400000000E-02 0.  1.
          1   -1    0    0  501    0  0.00000000000E+00 -0.00000000000E+00 -0.69325642179E+03  0.69325642180E+03  0.50400000000E-02 0. -1.
    5000001    1    1    2    0    0 -0.10794092149E+03 -0.29873101233E+02 -0.47465906306E+03  0.50395820348E+03  0.12700000000E+03 0.  0.
   -5000001    1    1    2    0    0  0.10794092149E+03  0.29873101233E+02 -0.16880074821E+03  0.23909482910E+03  0.12700000000E+03 0.  0.
<mgrwt>
<rscale>  0 0.37160097E+03</rscale>
<asrwt>0</asrwt>
<pdfrwt beam="1">  1        1 0.99036626E-01 0.37160097E+03</pdfrwt>
<pdfrwt beam="2">  1       -1 0.71138020E-02 0.37160097E+03</pdfrwt>
<totfact> 0.32961937E+03</totfact>
</mgrwt>
</event>
<event>
 4    1  0.6376580E-005  0.3174355E+03  0.7818608E-02  0.1076836E+00
         -1   -1    0    0    0  501 -0.00000000000E+00  0.00000000000E+00  0.26618695849E+02  0.26618696326E+02  0.50400000000E-02 0.  1.
          1   -1    0    0  501    0  0.00000000000E+00 -0.00000000000E+00 -0.94637690261E+03  0.94637690262E+03  0.50400000000E-02 0. -1.
    5000001    1    1    2    0    0  0.63463582702E+02  0.70764922639E+02 -0.44394650754E+03  0.47143695460E+03  0.12700000000E+03 0.  0.
   -5000001    1    1    2    0    0 -0.63463582702E+02 -0.70764922639E+02 -0.47581169922E+03  0.50155864435E+03  0.12700000000E+03 0.  0.
<mgrwt>
<rscale>  0 0.31743547E+03</rscale>
<asrwt>0</asrwt>
<pdfrwt beam="1">  1        1 0.13519668E+00 0.31743547E+03</pdfrwt>
<pdfrwt beam="2">  1       -1 0.38026715E-02 0.31743547E+03</pdfrwt>
<totfact> 0.52803237E+03</totfact>
</mgrwt>
</event>
<event>
 4    1  0.6376580E-005  0.3570054E+03  0.7818608E-02  0.1059776E+00
         -1   -1    0    0    0  501 -0.00000000000E+00  0.00000000000E+00  0.24919812492E+03  0.24919812497E+03  0.50400000000E-02 0. -1.
          1   -1    0    0  501    0  0.00000000000E+00 -0.00000000000E+00 -0.12786297870E+03  0.12786297880E+03  0.50400000000E-02 0.  1.
    5000001    1    1    2    0    0 -0.12250427638E+03  0.53616355464E+01  0.88574848808E+02  0.19751088251E+03  0.12700000000E+03 0.  0.
   -5000001    1    1    2    0    0  0.12250427638E+03 -0.53616355464E+01  0.32760297416E+02  0.17955022126E+03  0.12700000000E+03 0.  0.
<mgrwt>
<rscale>  0 0.35700540E+03</rscale>
<asrwt>0</asrwt>
<pdfrwt beam="1">  1        1 0.18266140E-01 0.35700540E+03</pdfrwt>
<pdfrwt beam="2">  1       -1 0.35599732E-01 0.35700540E+03</pdfrwt>
<totfact> 0.21913219E+03</totfact>
</mgrwt>
</event>
<event>
 4    1  0.6376580E-005  0.1025475E+04  0.7818608E-02  0.9281037E-01
          1   -1    0    0  501    0  0.00000000000E+00  0.00000000000E+00  0.50638223443E+03  0.50638223446E+03  0.50400000000E-02 0. -1.
         -1   -1    0    0    0  501 -0.00000000000E+00 -0.00000000000E+00 -0.51917265715E+03  0.51917265717E+03  0.50400000000E-02 0.  1.
    5000001    1    1    2    0    0  0.34357627234E+03 -0.11443591119E+03  0.33367620160E+03  0.50853617393E+03  0.12700000000E+03 0.  0.
   -5000001    1    1    2    0    0 -0.34357627234E+03  0.11443591119E+03 -0.34646662432E+03  0.51701871770E+03  0.12700000000E+03 0.  0.
<mgrwt>
<rscale>  0 0.10254751E+04</rscale>
<asrwt>0</asrwt>
<pdfrwt beam="1">  1        1 0.72340319E-01 0.10254751E+04</pdfrwt>
<pdfrwt beam="2">  1       -1 0.74167522E-01 0.10254751E+04</pdfrwt>
<totfact> 0.88441759E+01</totfact>
</mgrwt>
</event>
<event>
 4    1  0.6376580E-005  0.4896951E+03  0.7818608E-02  0.1016504E+00
          1   -1    0    0  501    0  0.00000000000E+00  0.00000000000E+00  0.39255559315E+03  0.39255559318E+03  0.50400000000E-02 0.  1.
         -1   -1    0    0    0  501 -0.00000000000E+00 -0.00000000000E+00 -0.15271803197E+03  0.15271803206E+03  0.50400000000E-02 0. -1.
    5000001    1    1    2    0    0  0.15523421845E+03  0.13983281504E+03  0.13445572518E+03  0.27903085989E+03  0.12700000000E+03 0.  0.
   -5000001    1    1    2    0    0 -0.15523421845E+03 -0.13983281504E+03  0.10538183600E+03  0.26624276534E+03  0.12700000000E+03 0.  0.
<mgrwt>
<rscale>  0 0.48969508E+03</rscale>
<asrwt>0</asrwt>
<pdfrwt beam="1">  1        1 0.56079370E-01 0.48969508E+03</pdfrwt>
<pdfrwt beam="2">  1       -1 0.21816862E-01 0.48969508E+03</pdfrwt>
<totfact> 0.11986350E+03</totfact>
</mgrwt>
</event>
<event>
 4    1  0.6376580E-005  0.3724844E+03  0.7818608E-02  0.1053747E+00
         -1   -1    0    0    0  501 -0.00000000000E+00  0.00000000000E+00  0.32518472910E+02  0.32518473301E+02  0.50400000000E-02 0.  1.
          1   -1    0    0  501    0  0.00000000000E+00 -0.00000000000E+00 -0.10666602066E+04  0.10666602066E+04  0.50400000000E-02 0. -1.
    5000001    1    1    2    0    0  0.55439771130E+02  0.97514242866E+02 -0.74516459477E+03  0.76418706419E+03  0.12700000000E+03 0.  0.
   -5000001    1    1    2    0    0 -0.55439771130E+02 -0.97514242866E+02 -0.28897713894E+03  0.33499161574E+03  0.12700000000E+03 0.  0.
<mgrwt>
<rscale>  0 0.37248442E+03</rscale>
<asrwt>0</asrwt>
<pdfrwt beam="1">  1        1 0.15238001E+00 0.37248442E+03</pdfrwt>
<pdfrwt beam="2">  1       -1 0.46454968E-02 0.37248442E+03</pdfrwt>
<totfact> 0.32074964E+03</totfact>
</mgrwt>
</event>
<event>
 4    1  0.6376580E-005  0.5744038E+03  0.7818608E-02  0.9959981E-01
          1   -1    0    0  501    0  0.00000000000E+00  0.00000000000E+00  0.13936649917E+03  0.13936649926E+03  0.50400000000E-02 0.  1.
         -1   -1    0    0    0  501 -0.00000000000E+00 -0.00000000000E+00 -0.59185633121E+03  0.59185633123E+03  0.50400000000E-02 0. -1.
    5000001    1    1    2    0    0 -0.12842990356E+03  0.20702341966E+03 -0.11971422850E+03  0.29968889356E+03  0.12700000000E+03 0.  0.
   -5000001    1    1    2    0    0  0.12842990356E+03 -0.20702341966E+03 -0.33277560353E+03  0.43153393693E+03  0.12700000000E+03 0.  0.
<mgrwt>
<rscale>  0 0.57440385E+03</rscale>
<asrwt>0</asrwt>
<pdfrwt beam="1">  1        1 0.19909500E-01 0.57440385E+03</pdfrwt>
<pdfrwt beam="2">  1       -1 0.84550903E-01 0.57440385E+03</pdfrwt>
<totfact> 0.37065769E+02</totfact>
</mgrwt>
</event>
<event>
 4    1  0.6376580E-005  0.2557827E+04  0.7818608E-02  0.8382669E-01
         -1   -1    0    0    0  501 -0.00000000000E+00  0.00000000000E+00  0.98935124568E+03  0.98935124570E+03  0.50400000000E-02 0. -1.
          1   -1    0    0  501    0  0.00000000000E+00 -0.00000000000E+00 -0.16532250482E+04  0.16532250482E+04  0.50400000000E-02 0.  1.
    5000001    1    1    2    0    0  0.31239288340E+03 -0.12173332106E+04 -0.53856818537E+03  0.13731985106E+04  0.12700000000E+03 0.  0.
   -5000001    1    1    2    0    0 -0.31239288340E+03  0.12173332106E+04 -0.12530561713E+03  0.12693777833E+04  0.12700000000E+03 0.  0.
<mgrwt>
<rscale>  0 0.25578274E+04</rscale>
<asrwt>0</asrwt>
<pdfrwt beam="1">  1        1 0.23617501E+00 0.25578274E+04</pdfrwt>
<pdfrwt beam="2">  1       -1 0.14133589E+00 0.25578274E+04</pdfrwt>
<totfact> 0.22496819E+00</totfact>
</mgrwt>
</event>
<event>
 4    1  0.6376580E-005  0.4461443E+03  0.7818608E-02  0.1028878E+00
         -1   -1    0    0    0  501 -0.00000000000E+00  0.00000000000E+00  0.67006068469E+02  0.67006068658E+02  0.50400000000E-02 0. -1.
          1   -1    0    0  501    0  0.00000000000E+00 -0.00000000000E+00 -0.74263689884E+03  0.74263689886E+03  0.50400000000E-02 0.  1.
    5000001    1    1    2    0    0  0.92945760229E+01  0.16110176777E+03 -0.49593898651E+03  0.53677243508E+03  0.12700000000E+03 0.  0.
   -5000001    1    1    2    0    0 -0.92945760229E+01 -0.16110176777E+03 -0.17969184386E+03  0.27287053244E+03  0.12700000000E+03 0.  0.
<mgrwt>
<rscale>  0 0.44614428E+03</rscale>
<asrwt>0</asrwt>
<pdfrwt beam="1">  1        1 0.10609098E+00 0.44614428E+03</pdfrwt>
<pdfrwt beam="2">  1       -1 0.95722960E-02 0.44614428E+03</pdfrwt>
<totfact> 0.18864016E+03</totfact>
</mgrwt>
</event>
<event>
 4    1  0.6376580E-005  0.5381781E+03  0.7818608E-02  0.1004268E+00
         -1   -1    0    0    0  501 -0.00000000000E+00  0.00000000000E+00  0.77179673029E+02  0.77179673194E+02  0.50400000000E-02 0.  1.
          1   -1    0    0  501    0  0.00000000000E+00 -0.00000000000E+00 -0.93818627396E+03  0.93818627397E+03  0.50400000000E-02 0. -1.
    5000001    1    1    2    0    0  0.48263510785E+02  0.17937858868E+03 -0.15210642249E+03  0.27160892532E+03  0.12700000000E+03 0.  0.
   -5000001    1    1    2    0    0 -0.48263510785E+02 -0.17937858868E+03 -0.70890017844E+03  0.74375702184E+03  0.12700000000E+03 0.  0.
<mgrwt>
<rscale>  0 0.53817807E+03</rscale>
<asrwt>0</asrwt>
<pdfrwt beam="1">  1        1 0.13402660E+00 0.53817807E+03</pdfrwt>
<pdfrwt beam="2">  1       -1 0.11025668E-01 0.53817807E+03</pdfrwt>
<totfact> 0.10490281E+03</totfact>
</mgrwt>
</event>
<event>
 4    1  0.6376580E-005  0.4777571E+03  0.7818608E-02  0.1019753E+00
          1   -1    0    0  501    0  0.00000000000E+00  0.00000000000E+00  0.11424753913E+04  0.11424753913E+04  0.50400000000E-02 0.  1.
         -1   -1    0    0    0  501 -0.00000000000E+00 -0.00000000000E+00 -0.49946766506E+02  0.49946766761E+02  0.50400000000E-02 0. -1.
    5000001    1    1    2    0    0  0.69311722402E+02  0.17582764161E+03  0.36603379971E+03  0.43107913073E+03  0.12700000000E+03 0.  0.
   -5000001    1    1    2    0    0 -0.69311722402E+02 -0.17582764161E+03  0.72649482510E+03  0.76134302736E+03  0.12700000000E+03 0.  0.
<mgrwt>
<rscale>  0 0.47775706E+03</rscale>
<asrwt>0</asrwt>
<pdfrwt beam="1">  1        1 0.16321076E+00 0.47775706E+03</pdfrwt>
<pdfrwt beam="2">  1       -1 0.71352530E-02 0.47775706E+03</pdfrwt>
<totfact> 0.14749199E+03</totfact>
</mgrwt>
</event>
<event>
 4    1  0.6376580E-005  0.4422823E+03  0.7818608E-02  0.1030049E+00
         -1   -1    0    0    0  501 -0.00000000000E+00  0.00000000000E+00  0.27184958305E+02  0.27184958772E+02  0.50400000000E-02 0. -1.
          1   -1    0    0  501    0  0.00000000000E+00 -0.00000000000E+00 -0.17989143219E+04  0.17989143219E+04  0.50400000000E-02 0.  1.
    5000001    1    1    2    0    0  0.14939836978E+03  0.57554136877E+02 -0.53693609570E+03  0.57450998462E+03  0.12700000000E+03 0.  0.
   -5000001    1    1    2    0    0 -0.14939836978E+03 -0.57554136877E+02 -0.12347932679E+04  0.12515892960E+04  0.12700000000E+03 0.  0.
<mgrwt>
<rscale>  0 0.44228231E+03</rscale>
<asrwt>0</asrwt>
<pdfrwt beam="1">  1        1 0.25698768E+00 0.44228231E+03</pdfrwt>
<pdfrwt beam="2">  1       -1 0.38835667E-02 0.44228231E+03</pdfrwt>
<totfact> 0.14095397E+03</totfact>
</mgrwt>
</event>
<event>
 4    1  0.6376580E-005  0.4483636E+03  0.7818608E-02  0.1028211E+00
         -1   -1    0    0    0  501 -0.00000000000E+00  0.00000000000E+00  0.87855061730E+02  0.87855061874E+02  0.50400000000E-02 0.  1.
          1   -1    0    0  501    0  0.00000000000E+00 -0.00000000000E+00 -0.57204985452E+03  0.57204985454E+03  0.50400000000E-02 0. -1.
    5000001    1    1    2    0    0  0.16656982219E+03  0.69355388203E+02 -0.30046713611E+03  0.37278033132E+03  0.12700000000E+03 0.  0.
   -5000001    1    1    2    0    0 -0.16656982219E+03 -0.69355388203E+02 -0.18372765669E+03  0.28712458510E+03  0.12700000000E+03 0.  0.
<mgrwt>
<rscale>  0 0.44836358E+03</rscale>
<asrwt>0</asrwt>
<pdfrwt beam="1">  1        1 0.81721406E-01 0.44836358E+03</pdfrwt>
<pdfrwt beam="2">  1       -1 0.12550723E-01 0.44836358E+03</pdfrwt>
<totfact> 0.17839203E+03</totfact>
</mgrwt>
</event>
<event>
 4    1  0.6376580E-005  0.4242386E+03  0.7818608E-02  0.1035696E+00
         -1   -1    0    0    0  501 -0.00000000000E+00  0.00000000000E+00  0.36911160650E+02  0.36911160994E+02  0.50400000000E-02 0. -1.
          1   -1    0    0  501    0  0.00000000000E+00 -0.00000000000E+00 -0.12189970778E+04  0.12189970778E+04  0.50400000000E-02 0.  1.
    5000001    1    1    2    0    0  0.41781200148E+02 -0.16440574086E+03 -0.56285227582E+03  0.60142048578E+03  0.12700000000E+03 0.  0.
   -5000001    1    1    2    0    0 -0.41781200148E+02  0.16440574086E+03 -0.61923364135E+03  0.65448775306E+03  0.12700000000E+03 0.  0.
<mgrwt>
<rscale>  0 0.42423860E+03</rscale>
<asrwt>0</asrwt>
<pdfrwt beam="1">  1        1 0.17414241E+00 0.42423860E+03</pdfrwt>
<pdfrwt beam="2">  1       -1 0.52730237E-02 0.42423860E+03</pdfrwt>
<totfact> 0.20797974E+03</totfact>
</mgrwt>
</event>
<event>
 4    1  0.6376580E-005  0.3632540E+03  0.7818608E-02  0.1057303E+00
         -1   -1    0    0    0  501 -0.00000000000E+00  0.00000000000E+00  0.22668779588E+02  0.22668780149E+02  0.50400000000E-02 0.  1.
          1   -1    0    0  501    0  0.00000000000E+00 -0.00000000000E+00 -0.14552333119E+04  0.14552333119E+04  0.50400000000E-02 0. -1.
    5000001    1    1    2    0    0 -0.10548752094E+03  0.50937001779E+02 -0.48840332273E+03  0.51806273836E+03  0.12700000000E+03 0.  0.
   -5000001    1    1    2    0    0  0.10548752094E+03 -0.50937001779E+02 -0.94416120957E+03  0.95983935368E+03  0.12700000000E+03 0.  0.
<mgrwt>
<rscale>  0 0.36325398E+03</rscale>
<asrwt>0</asrwt>
<pdfrwt beam="1">  1        1 0.20789041E+00 0.36325398E+03</pdfrwt>
<pdfrwt beam="2">  1       -1 0.32383980E-02 0.36325398E+03</pdfrwt>
<totfact> 0.30382785E+03</totfact>
</mgrwt>
</event>
<event>
 4    1  0.6376580E-005  0.3447703E+03  0.7818608E-02  0.1064782E+00
         -1   -1    0    0    0  501 -0.00000000000E+00  0.00000000000E+00  0.73757912602E+02  0.73757912774E+02  0.50400000000E-02 0. -1.
          1   -1    0    0  501    0  0.00000000000E+00 -0.00000000000E+00 -0.40289426100E+03  0.40289426103E+03  0.50400000000E-02 0.  1.
    5000001    1    1    2    0    0  0.28046733437E+01  0.70525948363E+02 -0.29282160042E+03  0.32688723630E+03  0.12700000000E+03 0.  0.
   -5000001    1    1    2    0    0 -0.28046733437E+01 -0.70525948363E+02 -0.36314747980E+02  0.14976493751E+03  0.12700000000E+03 0.  0.
<mgrwt>
<rscale>  0 0.34477030E+03</rscale>
<asrwt>0</asrwt>
<pdfrwt beam="1">  1        1 0.57556321E-01 0.34477030E+03</pdfrwt>
<pdfrwt beam="2">  1       -1 0.10536845E-01 0.34477030E+03</pdfrwt>
<totfact> 0.37216625E+03</totfact>
</mgrwt>
</event>
<event>
 4    1  0.6376580E-005  0.3960029E+03  0.7818608E-02  0.1045173E+00
         -1   -1    0    0    0  501 -0.00000000000E+00  0.00000000000E+00  0.23876710010E+02  0.23876710542E+02  0.50400000000E-02 0. -1.
          1   -1    0    0  501    0  0.00000000000E+00 -0.00000000000E+00 -0.16419585692E+04  0.16419585692E+04  0.50400000000E-02 0.  1.
    5000001    1    1    2    0    0  0.81179538530E+02 -0.12793733429E+03 -0.76344413594E+03  0.78862793996E+03  0.12700000000E+03 0.  0.
   -5000001    1    1    2    0    0 -0.81179538530E+02  0.12793733429E+03 -0.85463772326E+03  0.87720733980E+03  0.12700000000E+03 0.  0.
<mgrwt>
<rscale>  0 0.39600287E+03</rscale>
<asrwt>0</asrwt>
<pdfrwt beam="1">  1        1 0.23456544E+00 0.39600287E+03</pdfrwt>
<pdfrwt beam="2">  1       -1 0.34109596E-02 0.39600287E+03</pdfrwt>
<totfact> 0.21454842E+03</totfact>
</mgrwt>
</event>
<event>
 4    1  0.6376580E-005  0.3125965E+03  0.7818608E-02  0.1079108E+00
          1   -1    0    0  501    0  0.00000000000E+00  0.00000000000E+00  0.73567310080E+03  0.73567310082E+03  0.50400000000E-02 0. -1.
         -1   -1    0    0    0  501 -0.00000000000E+00 -0.00000000000E+00 -0.33206510896E+02  0.33206511279E+02  0.50400000000E-02 0.  1.
    5000001    1    1    2    0    0 -0.87361562674E+02  0.20394611598E+02  0.31217553157E+03  0.34875571010E+03  0.12700000000E+03 0.  0.
   -5000001    1    1    2    0    0  0.87361562674E+02 -0.20394611598E+02  0.39029105833E+03  0.42012390200E+03  0.12700000000E+03 0.  0.
<mgrwt>
<rscale>  0 0.31259646E+03</rscale>
<asrwt>0</asrwt>
<pdfrwt beam="1">  1        1 0.10509615E+00 0.31259646E+03</pdfrwt>
<pdfrwt beam="2">  1       -1 0.47437874E-02 0.31259646E+03</pdfrwt>
<totfact> 0.55741277E+03</totfact>
</mgrwt>
</event>
<event>
 4    1  0.6376580E-005  0.1317916E+04  0.7818608E-02  0.9015477E-01
          1   -1    0    0  501    0  0.00000000000E+00  0.00000000000E+00  0.41520105429E+03  0.41520105432E+03  0.50400000000E-02 0. -1.
         -1   -1    0    0    0  501 -0.00000000000E+00 -0.00000000000E+00 -0.10458207633E+04  0.10458207633E+04  0.50400000000E-02 0.  1.
    5000001    1    1    2    0    0 -0.60351037525E+03  0.64105143964E+02 -0.56260783089E+03  0.83725194171E+03  0.12700000000E+03 0.  0.
   -5000001    1    1    2    0    0  0.60351037525E+03 -0.64105143964E+02 -0.68011878083E+02  0.62376987589E+03  0.12700000000E+03 0.  0.
<mgrwt>
<rscale>  0 0.13179164E+04</rscale>
<asrwt>0</asrwt>
<pdfrwt beam="1">  1        1 0.59314437E-01 0.13179164E+04</pdfrwt>
<pdfrwt beam="2">  1       -1 0.14940296E+00 0.13179164E+04</pdfrwt>
<totfact> 0.21838080E+01</totfact>
</mgrwt>
</event>
<event>
 4    1  0.6376580E-005  0.4245063E+03  0.7818608E-02  0.1035610E+00
         -1   -1    0    0    0  501 -0.00000000000E+00  0.00000000000E+00  0.21332587296E+03  0.21332587302E+03  0.50400000000E-02 0. -1.
          1   -1    0    0  501    0  0.00000000000E+00 -0.00000000000E+00 -0.21118577886E+03  0.21118577892E+03  0.50400000000E-02 0.  1.
    5000001    1    1    2    0    0  0.61938777454E+02  0.15707835085E+03  0.21377205420E+02  0.21235820062E+03  0.12700000000E+03 0.  0.
   -5000001    1    1    2    0    0 -0.61938777454E+02 -0.15707835085E+03 -0.19237111329E+02  0.21215345133E+03  0.12700000000E+03 0.  0.
<mgrwt>
<rscale>  0 0.42450626E+03</rscale>
<asrwt>0</asrwt>
<pdfrwt beam="1">  1        1 0.30169397E-01 0.42450626E+03</pdfrwt>
<pdfrwt beam="2">  1       -1 0.30475125E-01 0.42450626E+03</pdfrwt>
<totfact> 0.15047116E+03</totfact>
</mgrwt>
</event>
<event>
 4    1  0.6376580E-005  0.3078287E+03  0.7818608E-02  0.1081391E+00
         -1   -1    0    0    0  501 -0.00000000000E+00  0.00000000000E+00  0.64754340457E+02  0.64754340653E+02  0.50400000000E-02 0. -1.
          1   -1    0    0  501    0  0.00000000000E+00 -0.00000000000E+00 -0.36583851484E+03  0.36583851487E+03  0.50400000000E-02 0.  1.
    5000001    1    1    2    0    0  0.30080641971E+02  0.76812009460E+02 -0.11208884646E+03  0.18840870287E+03  0.12700000000E+03 0.  0.
   -5000001    1    1    2    0    0 -0.30080641971E+02 -0.76812009460E+02 -0.18899532793E+03  0.24218415265E+03  0.12700000000E+03 0.  0.
<mgrwt>
<rscale>  0 0.30782873E+03</rscale>
<asrwt>0</asrwt>
<pdfrwt beam="1">  1        1 0.52262644E-01 0.30782873E+03</pdfrwt>
<pdfrwt beam="2">  1       -1 0.92506203E-02 0.30782873E+03</pdfrwt>
<totfact> 0.51376099E+03</totfact>
</mgrwt>
</event>
<event>
 4    1  0.6376580E-005  0.4472804E+03  0.7818608E-02  0.1028536E+00
          1   -1    0    0  501    0  0.00000000000E+00  0.00000000000E+00  0.30460834376E+03  0.30460834380E+03  0.50400000000E-02 0.  1.
         -1   -1    0    0    0  501 -0.00000000000E+00 -0.00000000000E+00 -0.16419426586E+03  0.16419426594E+03  0.50400000000E-02 0. -1.
    5000001    1    1    2    0    0 -0.14066857961E+02  0.10266259793E+03 -0.89260086752E+02  0.18663828277E+03  0.12700000000E+03 0.  0.
   -5000001    1    1    2    0    0  0.14066857961E+02 -0.10266259793E+03  0.22967416465E+03  0.28216432697E+03  0.12700000000E+03 0.  0.
<mgrwt>
<rscale>  0 0.44728042E+03</rscale>
<asrwt>0</asrwt>
<pdfrwt beam="1">  1        1 0.43515477E-01 0.44728042E+03</pdfrwt>
<pdfrwt beam="2">  1       -1 0.23456324E-01 0.44728042E+03</pdfrwt>
<totfact> 0.14711039E+03</totfact>
</mgrwt>
</event>
<event>
 4    1  0.6376580E-005  0.4203818E+03  0.7818608E-02  0.1036942E+00
          1   -1    0    0  501    0  0.00000000000E+00  0.00000000000E+00  0.55732944197E+03  0.55732944200E+03  0.50400000000E-02 0.  1.
         -1   -1    0    0    0  501 -0.00000000000E+00 -0.00000000000E+00 -0.79271276703E+02  0.79271276863E+02  0.50400000000E-02 0. -1.
    5000001    1    1    2    0    0  0.31801204669E+01  0.16443813742E+03  0.28694547592E+03  0.35428338989E+03  0.12700000000E+03 0.  0.
   -5000001    1    1    2    0    0 -0.31801204669E+01 -0.16443813742E+03  0.19111268935E+03  0.28231732897E+03  0.12700000000E+03 0.  0.
<mgrwt>
<rscale>  0 0.42038181E+03</rscale>
<asrwt>0</asrwt>
<pdfrwt beam="1">  1        1 0.79618491E-01 0.42038181E+03</pdfrwt>
<pdfrwt beam="2">  1       -1 0.11324468E-01 0.42038181E+03</pdfrwt>
<totfact> 0.21741406E+03</totfact>
</mgrwt>
</event>
<event>
 4    1  0.6376580E-005  0.2887920E+03  0.7818608E-02  0.1090982E+00
          1   -1    0    0  501    0  0.00000000000E+00  0.00000000000E+00  0.14056012428E+04  0.14056012428E+04  0.50400000000E-02 0.  1.
         -1   -1    0    0    0  501 -0.00000000000E+00 -0.00000000000E+00 -0.14833655982E+02  0.14833656838E+02  0.50400000000E-02 0. -1.
    5000001    1    1    2    0    0  0.36249301335E+02  0.53791234488E+02  0.58390564677E+03  0.60106764435E+03  0.12700000000E+03 0.  0.
   -5000001    1    1    2    0    0 -0.36249301335E+02 -0.53791234488E+02  0.80686194005E+03  0.81936725530E+03  0.12700000000E+03 0.  0.
<mgrwt>
<rscale>  0 0.28879201E+03</rscale>
<asrwt>0</asrwt>
<pdfrwt beam="1">  1        1 0.20080006E+00 0.28879201E+03</pdfrwt>
<pdfrwt beam="2">  1       -1 0.21190951E-02 0.28879201E+03</pdfrwt>
<totfact> 0.61043590E+03</totfact>
</mgrwt>
</event>
<event>
 4    1  0.6376580E-005  0.5154917E+03  0.7818608E-02  0.1009813E+00
         -1   -1    0    0    0  501 -0.00000000000E+00  0.00000000000E+00  0.67088525835E+02  0.67088526024E+02  0.50400000000E-02 0. -1.
          1   -1    0    0  501    0  0.00000000000E+00 -0.00000000000E+00 -0.99022795948E+03  0.99022795950E+03  0.50400000000E-02 0.  1.
    5000001    1    1    2    0    0  0.22168197347E+03  0.24432012161E+02 -0.41285428425E+03  0.48612496398E+03  0.12700000000E+03 0.  0.
   -5000001    1    1    2    0    0 -0.22168197347E+03 -0.24432012161E+02 -0.51028514940E+03  0.57119152154E+03  0.12700000000E+03 0.  0.
<mgrwt>
<rscale>  0 0.51549174E+03</rscale>
<asrwt>0</asrwt>
<pdfrwt beam="1">  1        1 0.14146113E+00 0.51549174E+03</pdfrwt>
<pdfrwt beam="2">  1       -1 0.95840757E-02 0.51549174E+03</pdfrwt>
<totfact> 0.11964113E+03</totfact>
</mgrwt>
</event>
<event>
 4    1  0.6376580E-005  0.4100269E+03  0.7818608E-02  0.1040362E+00
         -1   -1    0    0    0  501 -0.00000000000E+00  0.00000000000E+00  0.16749638462E+03  0.16749638470E+03  0.50400000000E-02 0. -1.
          1   -1    0    0  501    0  0.00000000000E+00 -0.00000000000E+00 -0.25093380430E+03  0.25093380435E+03  0.50400000000E-02 0.  1.
    5000001    1    1    2    0    0  0.15574189079E+03  0.36432175307E+02 -0.59935755574E+02  0.21284767967E+03  0.12700000000E+03 0.  0.
   -5000001    1    1    2    0    0 -0.15574189079E+03 -0.36432175307E+02 -0.23501664097E+02  0.20558250937E+03  0.12700000000E+03 0.  0.
<mgrwt>
<rscale>  0 0.41002685E+03</rscale>
<asrwt>0</asrwt>
<pdfrwt beam="1">  1        1 0.35847686E-01 0.41002685E+03</pdfrwt>
<pdfrwt beam="2">  1       -1 0.23928055E-01 0.41002685E+03</pdfrwt>
<totfact> 0.18203427E+03</totfact>
</mgrwt>
</event>
<event>
 4    1  0.6376580E-005  0.2689969E+03  0.7818608E-02  0.1101855E+00
          1   -1    0    0  501    0  0.00000000000E+00  0.00000000000E+00  0.66307032215E+02  0.66307032406E+02  0.50400000000E-02 0.  1.
         -1   -1    0    0    0  501 -0.00000000000E+00 -0.00000000000E+00 -0.27281932339E+03  0.27281932344E+03  0.50400000000E-02 0. -1.
    5000001    1    1    2    0    0 -0.17342789718E+02 -0.40462678575E+02 -0.10928108470E+03  0.17323208763E+03  0.12700000000E+03 0.  0.
   -5000001    1    1    2    0    0  0.17342789718E+02  0.40462678575E+02 -0.97231206484E+02  0.16589426822E+03  0.12700000000E+03 0.  0.
<mgrwt>
<rscale>  0 0.26899695E+03</rscale>
<asrwt>0</asrwt>
<pdfrwt beam="1">  1        1 0.94724334E-02 0.26899695E+03</pdfrwt>
<pdfrwt beam="2">  1       -1 0.38974188E-01 0.26899695E+03</pdfrwt>
<totfact> 0.44370767E+03</totfact>
</mgrwt>
</event>
<event>
 4    1  0.6376580E-005  0.3531137E+03  0.7818608E-02  0.1061344E+00
         -1   -1    0    0    0  501 -0.00000000000E+00  0.00000000000E+00  0.27246165221E+02  0.27246165687E+02  0.50400000000E-02 0. -1.
          1   -1    0    0  501    0  0.00000000000E+00 -0.00000000000E+00 -0.11440995168E+04  0.11440995168E+04  0.50400000000E-02 0.  1.
    5000001    1    1    2    0    0  0.70696069104E+02 -0.21782025592E+02 -0.88295129443E+03  0.89510020621E+03  0.12700000000E+03 0.  0.
   -5000001    1    1    2    0    0 -0.70696069104E+02  0.21782025592E+02 -0.23390205710E+03  0.27624547624E+03  0.12700000000E+03 0.  0.
<mgrwt>
<rscale>  0 0.35311372E+03</rscale>
<asrwt>0</asrwt>
<pdfrwt beam="1">  1        1 0.16344276E+00 0.35311372E+03</pdfrwt>
<pdfrwt beam="2">  1       -1 0.38923101E-02 0.35311372E+03</pdfrwt>
<totfact> 0.36947398E+03</totfact>
</mgrwt>
</event>
<event>
 4    1  0.6376580E-005  0.3455374E+03  0.7818608E-02  0.1064462E+00
         -1   -1    0    0    0  501 -0.00000000000E+00  0.00000000000E+00  0.11117419444E+02  0.11117420587E+02  0.50400000000E-02 0. -1.
          1   -1    0    0  501    0  0.00000000000E+00 -0.00000000000E+00 -0.26848873416E+04  0.26848873416E+04  0.50400000000E-02 0.  1.
    5000001    1    1    2    0    0  0.15585389484E+01  0.99719374255E+02 -0.18161830708E+04  0.18233475613E+04  0.12700000000E+03 0.  0.
   -5000001    1    1    2    0    0 -0.15585389484E+01 -0.99719374255E+02 -0.85758685136E+03  0.87265720089E+03  0.12700000000E+03 0.  0.
<mgrwt>
<rscale>  0 0.34553738E+03</rscale>
<asrwt>0</asrwt>
<pdfrwt beam="1">  1        1 0.38355492E+00 0.34553738E+03</pdfrwt>
<pdfrwt beam="2">  1       -1 0.15882046E-02 0.34553738E+03</pdfrwt>
<totfact> 0.15306313E+03</totfact>
</mgrwt>
</event>
<event>
 4    1  0.6376580E-005  0.4449710E+03  0.7818608E-02  0.1029232E+00
          1   -1    0    0  501    0  0.00000000000E+00  0.00000000000E+00  0.17325741540E+04  0.17325741540E+04  0.50400000000E-02 0.  1.
         -1   -1    0    0    0  501 -0.00000000000E+00 -0.00000000000E+00 -0.28570085291E+02  0.28570085736E+02  0.50400000000E-02 0. -1.
    5000001    1    1    2    0    0  0.41228032883E+02  0.13307875667E+03  0.13196540814E+04  0.13330512371E+04  0.12700000000E+03 0.  0.
   -5000001    1    1    2    0    0 -0.41228032883E+02 -0.13307875667E+03  0.38434998735E+03  0.42809300269E+03  0.12700000000E+03 0.  0.
<mgrwt>
<rscale>  0 0.44497097E+03</rscale>
<asrwt>0</asrwt>
<pdfrwt beam="1">  1        1 0.24751062E+00 0.44497097E+03</pdfrwt>
<pdfrwt beam="2">  1       -1 0.40814403E-02 0.44497097E+03</pdfrwt>
<totfact> 0.14370832E+03</totfact>
</mgrwt>
</event>
<event>
 4    1  0.6376580E-005  0.6451388E+03  0.7818608E-02  0.9815944E-01
         -1   -1    0    0    0  501 -0.00000000000E+00  0.00000000000E+00  0.99046660736E+02  0.99046660864E+02  0.50400000000E-02 0.  1.
          1   -1    0    0  501    0  0.00000000000E+00 -0.00000000000E+00 -0.10505252300E+04  0.10505252300E+04  0.50400000000E-02 0. -1.
    5000001    1    1    2    0    0  0.18788465053E+03 -0.10565287785E+03 -0.83855957761E+03  0.87508533167E+03  0.12700000000E+03 0.  0.
   -5000001    1    1    2    0    0 -0.18788465053E+03  0.10565287785E+03 -0.11291899163E+03  0.27448655919E+03  0.12700000000E+03 0.  0.
<mgrwt>
<rscale>  0 0.64513879E+03</rscale>
<asrwt>0</asrwt>
<pdfrwt beam="1">  1        1 0.15007503E+00 0.64513879E+03</pdfrwt>
<pdfrwt beam="2">  1       -1 0.14149524E-01 0.64513879E+03</pdfrwt>
<totfact> 0.57912768E+02</totfact>
</mgrwt>
</event>
<event>
 4    1  0.6376580E-005  0.5568395E+03  0.7818608E-02  0.9999231E-01
          1   -1    0    0  501    0  0.00000000000E+00  0.00000000000E+00  0.13721228867E+04  0.13721228867E+04  0.50400000000E-02 0. -1.
         -1   -1    0    0    0  501 -0.00000000000E+00 -0.00000000000E+00 -0.56494620378E+02  0.56494620603E+02  0.50400000000E-02 0.  1.
    5000001    1    1    2    0    0 -0.63103067203E+02  0.23830485045E+03  0.59406765557E+03  0.65560397973E+03  0.12700000000E+03 0.  0.
   -5000001    1    1    2    0    0  0.63103067203E+02 -0.23830485045E+03  0.72156061076E+03  0.77301352759E+03  0.12700000000E+03 0.  0.
<mgrwt>
<rscale>  0 0.55683952E+03</rscale>
<asrwt>0</asrwt>
<pdfrwt beam="1">  1        1 0.19601753E+00 0.55683952E+03</pdfrwt>
<pdfrwt beam="2">  1       -1 0.80706610E-02 0.55683952E+03</pdfrwt>
<totfact> 0.85204648E+02</totfact>
</mgrwt>
</event>
<event>
 4    1  0.6376580E-005  0.2910801E+03  0.7818608E-02  0.1089787E+00
         -1   -1    0    0    0  501 -0.00000000000E+00  0.00000000000E+00  0.28621597487E+02  0.28621597931E+02  0.50400000000E-02 0. -1.
          1   -1    0    0  501    0  0.00000000000E+00 -0.00000000000E+00 -0.74006734819E+03  0.74006734821E+03  0.50400000000E-02 0.  1.
    5000001    1    1    2    0    0  0.11321772487E+02 -0.57330538128E+02 -0.24884528556E+03  0.28542590856E+03  0.12700000000E+03 0.  0.
   -5000001    1    1    2    0    0 -0.11321772487E+02  0.57330538128E+02 -0.46260046515E+03  0.48326303758E+03  0.12700000000E+03 0.  0.
<mgrwt>
<rscale>  0 0.29108013E+03</rscale>
<asrwt>0</asrwt>
<pdfrwt beam="1">  1        1 0.10572389E+00 0.29108013E+03</pdfrwt>
<pdfrwt beam="2">  1       -1 0.40888001E-02 0.29108013E+03</pdfrwt>
<totfact> 0.68889104E+03</totfact>
</mgrwt>
</event>
<event>
 4    1  0.6376580E-005  0.4951588E+03  0.7818608E-02  0.1015050E+00
          1   -1    0    0  501    0  0.00000000000E+00  0.00000000000E+00  0.11832965110E+03  0.11832965121E+03  0.50400000000E-02 0.  1.
         -1   -1    0    0    0  501 -0.00000000000E+00 -0.00000000000E+00 -0.51800675270E+03  0.51800675273E+03  0.50400000000E-02 0. -1.
    5000001    1    1    2    0    0 -0.18184269386E+03 -0.71612430529E+02 -0.30713958745E+03  0.38556300613E+03  0.12700000000E+03 0.  0.
   -5000001    1    1    2    0    0  0.18184269386E+03  0.71612430529E+02 -0.92537514150E+02  0.25077339780E+03  0.12700000000E+03 0.  0.
<mgrwt>
<rscale>  0 0.49515880E+03</rscale>
<asrwt>0</asrwt>
<pdfrwt beam="1">  1        1 0.16904236E-01 0.49515880E+03</pdfrwt>
<pdfrwt beam="2">  1       -1 0.74000964E-01 0.49515880E+03</pdfrwt>
<totfact> 0.61006483E+02</totfact>
</mgrwt>
</event>
<event>
 4    1  0.6376580E-005  0.3394154E+03  0.7818608E-02  0.1067045E+00
          1   -1    0    0  501    0  0.00000000000E+00  0.00000000000E+00  0.49312526188E+03  0.49312526191E+03  0.50400000000E-02 0. -1.
         -1   -1    0    0    0  501 -0.00000000000E+00 -0.00000000000E+00 -0.58404423389E+02  0.58404423607E+02  0.50400000000E-02 0.  1.
    5000001    1    1    2    0    0  0.64823477816E+02  0.57767148634E+02  0.10094651961E+03  0.18400632206E+03  0.12700000000E+03 0.  0.
   -5000001    1    1    2    0    0 -0.64823477816E+02 -0.57767148634E+02  0.33377431888E+03  0.36752336345E+03  0.12700000000E+03 0.  0.
<mgrwt>
<rscale>  0 0.33941536E+03</rscale>
<asrwt>0</asrwt>
<pdfrwt beam="1">  1        1 0.70446467E-01 0.33941536E+03</pdfrwt>
<pdfrwt beam="2">  1       -1 0.83434889E-02 0.33941536E+03</pdfrwt>
<totfact> 0.41078694E+03</totfact>
</mgrwt>
</event>
<event>
 4    1  0.6376580E-005  0.3907530E+03  0.7818608E-02  0.1047029E+00
         -1   -1    0    0    0  501 -0.00000000000E+00  0.00000000000E+00  0.25808006333E+02  0.25808006825E+02  0.50400000000E-02 0. -1.
          1   -1    0    0  501    0  0.00000000000E+00 -0.00000000000E+00 -0.14790752949E+04  0.14790752949E+04  0.50400000000E-02 0.  1.
    5000001    1    1    2    0    0 -0.11320114779E+03 -0.96064178660E+02 -0.72816772852E+03  0.75392311753E+03  0.12700000000E+03 0.  0.
   -5000001    1    1    2    0    0  0.11320114779E+03  0.96064178660E+02 -0.72509956005E+03  0.75096018421E+03  0.12700000000E+03 0.  0.
<mgrwt>
<rscale>  0 0.39075304E+03</rscale>
<asrwt>0</asrwt>
<pdfrwt beam="1">  1        1 0.21129642E+00 0.39075304E+03</pdfrwt>
<pdfrwt beam="2">  1       -1 0.36868590E-02 0.39075304E+03</pdfrwt>
<totfact> 0.24166159E+03</totfact>
</mgrwt>
</event>
<event>
 4    1  0.6376580E-005  0.4835962E+03  0.7818608E-02  0.1018151E+00
          1   -1    0    0  501    0  0.00000000000E+00  0.00000000000E+00  0.90572140876E+03  0.90572140877E+03  0.50400000000E-02 0.  1.
         -1   -1    0    0    0  501 -0.00000000000E+00 -0.00000000000E+00 -0.64552224492E+02  0.64552224689E+02  0.50400000000E-02 0. -1.
    5000001    1    1    2    0    0 -0.28277651852E+02 -0.18433452486E+03  0.24615152874E+03  0.33391378790E+03  0.12700000000E+03 0.  0.
   -5000001    1    1    2    0    0  0.28277651852E+02  0.18433452486E+03  0.59501765553E+03  0.63635984556E+03  0.12700000000E+03 0.  0.
<mgrwt>
<rscale>  0 0.48359624E+03</rscale>
<asrwt>0</asrwt>
<pdfrwt beam="1">  1        1 0.12938877E+00 0.48359624E+03</pdfrwt>
<pdfrwt beam="2">  1       -1 0.92217468E-02 0.48359624E+03</pdfrwt>
<totfact> 0.14726730E+03</totfact>
</mgrwt>
</event>
<event>
 4    1  0.6376580E-005  0.4144642E+03  0.7818608E-02  0.1038883E+00
          1   -1    0    0  501    0  0.00000000000E+00  0.00000000000E+00  0.32358155059E+02  0.32358155452E+02  0.50400000000E-02 0.  1.
         -1   -1    0    0    0  501 -0.00000000000E+00 -0.00000000000E+00 -0.13271813424E+04  0.13271813424E+04  0.50400000000E-02 0. -1.
    5000001    1    1    2    0    0  0.88891883481E+02 -0.11528901374E+03 -0.40144180370E+03  0.44550852449E+03  0.12700000000E+03 0.  0.
   -5000001    1    1    2    0    0 -0.88891883481E+02  0.11528901374E+03 -0.89338138364E+03  0.91403097337E+03  0.12700000000E+03 0.  0.
<mgrwt>
<rscale>  0 0.41446418E+03</rscale>
<asrwt>0</asrwt>
<pdfrwt beam="1">  1        1 0.46225945E-02 0.41446418E+03</pdfrwt>
<pdfrwt beam="2">  1       -1 0.18959730E+00 0.41446418E+03</pdfrwt>
<totfact> 0.36357173E+02</totfact>
</mgrwt>
</event>
<event>
 4    1  0.6376580E-005  0.4957775E+03  0.7818608E-02  0.1014887E+00
         -1   -1    0    0    0  501 -0.00000000000E+00  0.00000000000E+00  0.10258828570E+03  0.10258828583E+03  0.50400000000E-02 0. -1.
          1   -1    0    0  501    0  0.00000000000E+00 -0.00000000000E+00 -0.59898495882E+03  0.59898495884E+03  0.50400000000E-02 0.  1.
    5000001    1    1    2    0    0  0.14953586659E+03 -0.84258646927E+02 -0.42640699600E+03  0.47687778436E+03  0.12700000000E+03 0.  0.
   -5000001    1    1    2    0    0 -0.14953586659E+03  0.84258646927E+02 -0.69989677112E+02  0.22469546030E+03  0.12700000000E+03 0.  0.
<mgrwt>
<rscale>  0 0.49577753E+03</rscale>
<asrwt>0</asrwt>
<pdfrwt beam="1">  1        1 0.85569278E-01 0.49577753E+03</pdfrwt>
<pdfrwt beam="2">  1       -1 0.14655470E-01 0.49577753E+03</pdfrwt>
<totfact> 0.13067148E+03</totfact>
</mgrwt>
</event>
<event>
 4    1  0.6376580E-005  0.3506705E+03  0.7818608E-02  0.1062340E+00
          1   -1    0    0  501    0  0.00000000000E+00  0.00000000000E+00  0.10378360610E+03  0.10378360622E+03  0.50400000000E-02 0.  1.
         -1   -1    0    0    0  501 -0.00000000000E+00 -0.00000000000E+00 -0.29621684992E+03  0.29621684996E+03  0.50400000000E-02 0. -1.
    5000001    1    1    2    0    0 -0.75711182411E+01  0.94911498301E+02 -0.18117907719E+03  0.24087418366E+03  0.12700000000E+03 0.  0.
   -5000001    1    1    2    0    0  0.75711182411E+01 -0.94911498301E+02 -0.11254166627E+02  0.15912627252E+03  0.12700000000E+03 0.  0.
<mgrwt>
<rscale>  0 0.35067052E+03</rscale>
<asrwt>0</asrwt>
<pdfrwt beam="1">  1        1 0.14826230E-01 0.35067052E+03</pdfrwt>
<pdfrwt beam="2">  1       -1 0.42316693E-01 0.35067052E+03</pdfrwt>
<totfact> 0.21195589E+03</totfact>
</mgrwt>
</event>
<event>
 4    1  0.6376580E-005  0.3121679E+03  0.7818608E-02  0.1079311E+00
         -1   -1    0    0    0  501 -0.00000000000E+00  0.00000000000E+00  0.58672570272E+01  0.58672591919E+01  0.50400000000E-02 0.  1.
          1   -1    0    0  501    0  0.00000000000E+00 -0.00000000000E+00 -0.41522292024E+04  0.41522292024E+04  0.50400000000E-02 0. -1.
    5000001    1    1    2    0    0 -0.68132297750E+02  0.59515137456E+02 -0.19798084739E+04  0.19859392374E+04  0.12700000000E+03 0.  0.
   -5000001    1    1    2    0    0  0.68132297750E+02 -0.59515137456E+02 -0.21665534716E+04  0.21721572242E+04  0.12700000000E+03 0.  0.
<mgrwt>
<rscale>  0 0.31216791E+03</rscale>
<asrwt>0</asrwt>
<pdfrwt beam="1">  1        1 0.59317372E+00 0.31216791E+03</pdfrwt>
<pdfrwt beam="2">  1       -1 0.83818239E-03 0.31216791E+03</pdfrwt>
<totfact> 0.39814801E+02</totfact>
</mgrwt>
</event>
<event>
 4    1  0.6376580E-005  0.3675662E+03  0.7818608E-02  0.1055627E+00
         -1   -1    0    0    0  501 -0.00000000000E+00  0.00000000000E+00  0.42281931020E+02  0.42281931320E+02  0.50400000000E-02 0.  1.
          1   -1    0    0  501    0  0.00000000000E+00 -0.00000000000E+00 -0.79883370772E+03  0.79883370774E+03  0.50400000000E-02 0. -1.
    5000001    1    1    2    0    0 -0.84950779042E+01  0.12316019893E+03 -0.26601593460E+03  0.31958422741E+03  0.12700000000E+03 0.  0.
   -5000001    1    1    2    0    0  0.84950779042E+01 -0.12316019893E+03 -0.49053584211E+03  0.52153141165E+03  0.12700000000E+03 0.  0.
<mgrwt>
<rscale>  0 0.36756622E+03</rscale>
<asrwt>0</asrwt>
<pdfrwt beam="1">  1        1 0.11411909E+00 0.36756622E+03</pdfrwt>
<pdfrwt beam="2">  1       -1 0.60402763E-02 0.36756622E+03</pdfrwt>
<totfact> 0.34348273E+03</totfact>
</mgrwt>
</event>
<event>
 4    1  0.6376580E-005  0.2745538E+03  0.7818608E-02  0.1098701E+00
          1   -1    0    0  501    0  0.00000000000E+00  0.00000000000E+00  0.39753302667E+04  0.39753302667E+04  0.50400000000E-02 0.  1.
         -1   -1    0    0    0  501 -0.00000000000E+00 -0.00000000000E+00 -0.47404708003E+01  0.47404734795E+01  0.50400000000E-02 0. -1.
    5000001    1    1    2    0    0  0.12848606666E+02 -0.24171730091E+02  0.26281595495E+04  0.26313686509E+04  0.12700000000E+03 0.  0.
   -5000001    1    1    2    0    0 -0.12848606666E+02  0.24171730091E+02  0.13424302464E+04  0.13487020893E+04  0.12700000000E+03 0.  0.
<mgrwt>
<rscale>  0 0.27455376E+03</rscale>
<asrwt>0</asrwt>
<pdfrwt beam="1">  1        1 0.56790741E+00 0.27455376E+03</pdfrwt>
<pdfrwt beam="2">  1       -1 0.67720663E-03 0.27455376E+03</pdfrwt>
<totfact> 0.73815399E+02</totfact>
</mgrwt>
</event>
<event>
 4    1  0.6376580E-005  0.4933076E+03  0.7818608E-02  0.1015541E+00
          1   -1    0    0  501    0  0.00000000000E+00  0.00000000000E+00  0.22229851605E+04  0.22229851605E+04  0.50400000000E-02 0.  1.
         -1   -1    0    0    0  501 -0.00000000000E+00 -0.00000000000E+00 -0.27367745327E+02  0.27367745791E+02  0.50400000000E-02 0. -1.
    5000001    1    1    2    0    0  0.95688554385E+02 -0.18583963238E+03  0.12432441538E+04  0.12670744629E+04  0.12700000000E+03 0.  0.
   -5000001    1    1    2    0    0 -0.95688554385E+02  0.18583963238E+03  0.95237326135E+03  0.98327844344E+03  0.12700000000E+03 0.  0.
<mgrwt>
<rscale>  0 0.49330758E+03</rscale>
<asrwt>0</asrwt>
<pdfrwt beam="1">  1        1 0.31756929E+00 0.49330758E+03</pdfrwt>
<pdfrwt beam="2">  1       -1 0.39096782E-02 0.49330758E+03</pdfrwt>
<totfact> 0.76388213E+02</totfact>
</mgrwt>
</event>
<event>
 4    1  0.6376580E-005  0.3408261E+03  0.7818608E-02  0.1066445E+00
          1   -1    0    0  501    0  0.00000000000E+00  0.00000000000E+00  0.52417960197E+03  0.52417960199E+03  0.50400000000E-02 0. -1.
         -1   -1    0    0    0  501 -0.00000000000E+00 -0.00000000000E+00 -0.55402003075E+02  0.55402003304E+02  0.50400000000E-02 0.  1.
    5000001    1    1    2    0    0  0.99635409007E+02  0.32570972141E+02  0.15980752089E+03  0.22946792082E+03  0.12700000000E+03 0.  0.
   -5000001    1    1    2    0    0 -0.99635409007E+02 -0.32570972141E+02  0.30897007801E+03  0.35011368448E+03  0.12700000000E+03 0.  0.
<mgrwt>
<rscale>  0 0.34082606E+03</rscale>
<asrwt>0</asrwt>
<pdfrwt beam="1">  1        1 0.74882802E-01 0.34082606E+03</pdfrwt>
<pdfrwt beam="2">  1       -1 0.79145717E-02 0.34082606E+03</pdfrwt>
<totfact> 0.41092276E+03</totfact>
</mgrwt>
</event>
<event>
 4    1  0.6376580E-005  0.3738464E+03  0.7818608E-02  0.1053232E+00
          1   -1    0    0  501    0  0.00000000000E+00  0.00000000000E+00  0.36684372263E+03  0.36684372267E+03  0.50400000000E-02 0. -1.
         -1   -1    0    0    0  501 -0.00000000000E+00 -0.00000000000E+00 -0.95245707313E+02  0.95245707446E+02  0.50400000000E-02 0.  1.
    5000001    1    1    2    0    0 -0.93121432785E+02 -0.10067500121E+03  0.13834199775E+03  0.23253938474E+03  0.12700000000E+03 0.  0.
   -5000001    1    1    2    0    0  0.93121432785E+02  0.10067500121E+03  0.13325601757E+03  0.22955004537E+03  0.12700000000E+03 0.  0.
<mgrwt>
<rscale>  0 0.37384644E+03</rscale>
<asrwt>0</asrwt>
<pdfrwt beam="1">  1        1 0.52406247E-01 0.37384644E+03</pdfrwt>
<pdfrwt beam="2">  1       -1 0.13606529E-01 0.37384644E+03</pdfrwt>
<totfact> 0.28107486E+03</totfact>
</mgrwt>
</event>
<event>
 4    1  0.6376580E-005  0.3544412E+03  0.7818608E-02  0.1060807E+00
         -1   -1    0    0    0  501 -0.00000000000E+00  0.00000000000E+00  0.47273980247E+02  0.47273980515E+02  0.50400000000E-02 0. -1.
          1   -1    0    0  501    0  0.00000000000E+00 -0.00000000000E+00 -0.66436431679E+03  0.66436431681E+03  0.50400000000E-02 0.  1.
    5000001    1    1    2    0    0 -0.96217297070E+02  0.76851743244E+02 -0.28709042089E+03  0.33721486987E+03  0.12700000000E+03 0.  0.
   -5000001    1    1    2    0    0  0.96217297070E+02 -0.76851743244E+02 -0.32999991566E+03  0.37442342746E+03  0.12700000000E+03 0.  0.
<mgrwt>
<rscale>  0 0.35444123E+03</rscale>
<asrwt>0</asrwt>
<pdfrwt beam="1">  1        1 0.94909183E-01 0.35444123E+03</pdfrwt>
<pdfrwt beam="2">  1       -1 0.67534262E-02 0.35444123E+03</pdfrwt>
<totfact> 0.37894686E+03</totfact>
</mgrwt>
</event>
<event>
 4    1  0.6376580E-005  0.3617855E+03  0.7818608E-02  0.1057879E+00
         -1   -1    0    0    0  501 -0.00000000000E+00  0.00000000000E+00  0.10844217300E+03  0.10844217312E+03  0.50400000000E-02 0. -1.
          1   -1    0    0  501    0  0.00000000000E+00 -0.00000000000E+00 -0.30174781764E+03  0.30174781768E+03  0.50400000000E-02 0.  1.
    5000001    1    1    2    0    0 -0.11639393885E+03 -0.16099193337E+01 -0.15919720443E+03  0.23456958614E+03  0.12700000000E+03 0.  0.
   -5000001    1    1    2    0    0  0.11639393885E+03  0.16099193337E+01 -0.34108440200E+02  0.17562040466E+03  0.12700000000E+03 0.  0.
<mgrwt>
<rscale>  0 0.36178551E+03</rscale>
<asrwt>0</asrwt>
<pdfrwt beam="1">  1        1 0.43106831E-01 0.36178551E+03</pdfrwt>
<pdfrwt beam="2">  1       -1 0.15491739E-01 0.36178551E+03</pdfrwt>
<totfact> 0.29281383E+03</totfact>
</mgrwt>
</event>
<event>
 4    1  0.6376580E-005  0.4146687E+03  0.7818608E-02  0.1038816E+00
         -1   -1    0    0    0  501 -0.00000000000E+00  0.00000000000E+00  0.20430880477E+03  0.20430880484E+03  0.50400000000E-02 0. -1.
          1   -1    0    0  501    0  0.00000000000E+00 -0.00000000000E+00 -0.21040465973E+03  0.21040465979E+03  0.50400000000E-02 0.  1.
    5000001    1    1    2    0    0  0.14627237124E+03 -0.45118402049E+02 -0.61596953345E+02  0.20821734187E+03  0.12700000000E+03 0.  0.
   -5000001    1    1    2    0    0 -0.14627237124E+03  0.45118402049E+02  0.55501098388E+02  0.20649612276E+03  0.12700000000E+03 0.  0.
<mgrwt>
<rscale>  0 0.41466866E+03</rscale>
<asrwt>0</asrwt>
<pdfrwt beam="1">  1        1 0.30057808E-01 0.41466866E+03</pdfrwt>
<pdfrwt beam="2">  1       -1 0.29186972E-01 0.41466866E+03</pdfrwt>
<totfact> 0.16281327E+03</totfact>
</mgrwt>
</event>
<event>
 4    1  0.6376580E-005  0.2950532E+03  0.7818608E-02  0.1087740E+00
         -1   -1    0    0    0  501 -0.00000000000E+00  0.00000000000E+00  0.16906724520E+03  0.16906724528E+03  0.50400000000E-02 0.  1.
          1   -1    0    0  501    0  0.00000000000E+00 -0.00000000000E+00 -0.12873045795E+03  0.12873045805E+03  0.50400000000E-02 0. -1.
    5000001    1    1    2    0    0  0.48313905458E+01  0.54725093194E+02  0.71800120948E+02  0.15589238444E+03  0.12700000000E+03 0.  0.
   -5000001    1    1    2    0    0 -0.48313905458E+01 -0.54725093194E+02 -0.31463333701E+02  0.14190531888E+03  0.12700000000E+03 0.  0.
<mgrwt>
<rscale>  0 0.29505324E+03</rscale>
<asrwt>0</asrwt>
<pdfrwt beam="1">  1        1 0.18390065E-01 0.29505324E+03</pdfrwt>
<pdfrwt beam="2">  1       -1 0.24152464E-01 0.29505324E+03</pdfrwt>
<totfact> 0.41905223E+03</totfact>
</mgrwt>
</event>
<event>
 4    1  0.6376580E-005  0.6894800E+03  0.7818608E-02  0.9735394E-01
         -1   -1    0    0    0  501 -0.00000000000E+00  0.00000000000E+00  0.36474123859E+03  0.36474123863E+03  0.50400000000E-02 0. -1.
          1   -1    0    0  501    0  0.00000000000E+00 -0.00000000000E+00 -0.32583555855E+03  0.32583555859E+03  0.50400000000E-02 0.  1.
    5000001    1    1    2    0    0 -0.28617879218E+03 -0.13178958667E+03 -0.39376180096E+02  0.34197409231E+03  0.12700000000E+03 0.  0.
   -5000001    1    1    2    0    0  0.28617879218E+03  0.13178958667E+03  0.78281860137E+02  0.34860270492E+03  0.12700000000E+03 0.  0.
<mgrwt>
<rscale>  0 0.68947999E+03</rscale>
<asrwt>0</asrwt>
<pdfrwt beam="1">  1        1 0.46547937E-01 0.68947999E+03</pdfrwt>
<pdfrwt beam="2">  1       -1 0.52105891E-01 0.68947999E+03</pdfrwt>
<totfact> 0.32548806E+02</totfact>
</mgrwt>
</event>
<event>
 4    1  0.6376580E-005  0.5984001E+03  0.7818608E-02  0.9908731E-01
          1   -1    0    0  501    0  0.00000000000E+00  0.00000000000E+00  0.31328213194E+03  0.31328213198E+03  0.50400000000E-02 0. -1.
         -1   -1    0    0    0  501 -0.00000000000E+00 -0.00000000000E+00 -0.28575093721E+03  0.28575093725E+03  0.50400000000E-02 0.  1.
    5000001    1    1    2    0    0  0.25141962848E+03  0.93223845114E+02  0.52395897518E+02  0.30129195966E+03  0.12700000000E+03 0.  0.
   -5000001    1    1    2    0    0 -0.25141962848E+03 -0.93223845114E+02 -0.24864702789E+02  0.29774110957E+03  0.12700000000E+03 0.  0.
<mgrwt>
<rscale>  0 0.59840008E+03</rscale>
<asrwt>0</asrwt>
<pdfrwt beam="1">  1        1 0.44754590E-01 0.59840008E+03</pdfrwt>
<pdfrwt beam="2">  1       -1 0.40821562E-01 0.59840008E+03</pdfrwt>
<totfact> 0.54066155E+02</totfact>
</mgrwt>
</event>
<event>
 4    1  0.6376580E-005  0.4091894E+03  0.7818608E-02  0.1040643E+00
          1   -1    0    0  501    0  0.00000000000E+00  0.00000000000E+00  0.22430847308E+03  0.22430847314E+03  0.50400000000E-02 0.  1.
         -1   -1    0    0    0  501 -0.00000000000E+00 -0.00000000000E+00 -0.18661351771E+03  0.18661351777E+03  0.50400000000E-02 0. -1.
    5000001    1    1    2    0    0 -0.12477383752E+03 -0.65116451651E+02  0.96123480047E+02  0.21254972647E+03  0.12700000000E+03 0.  0.
   -5000001    1    1    2    0    0  0.12477383752E+03  0.65116451651E+02 -0.58428524673E+02  0.19837226444E+03  0.12700000000E+03 0.  0.
<mgrwt>
<rscale>  0 0.40918941E+03</rscale>
<asrwt>0</asrwt>
<pdfrwt beam="1">  1        1 0.32044068E-01 0.40918941E+03</pdfrwt>
<pdfrwt beam="2">  1       -1 0.26659074E-01 0.40918941E+03</pdfrwt>
<totfact> 0.17506313E+03</totfact>
</mgrwt>
</event>
<event>
 4    1  0.6376580E-005  0.4974671E+03  0.7818608E-02  0.1014442E+00
         -1   -1    0    0    0  501 -0.00000000000E+00  0.00000000000E+00  0.14542689964E+03  0.14542689973E+03  0.50400000000E-02 0.  1.
          1   -1    0    0  501    0  0.00000000000E+00 -0.00000000000E+00 -0.42542594088E+03  0.42542594091E+03  0.50400000000E-02 0. -1.
    5000001    1    1    2    0    0 -0.20772445626E+03  0.40276762992E+01 -0.81783959129E+02  0.25687212359E+03  0.12700000000E+03 0.  0.
   -5000001    1    1    2    0    0  0.20772445626E+03 -0.40276762992E+01 -0.19821508211E+03  0.31398071705E+03  0.12700000000E+03 0.  0.
<mgrwt>
<rscale>  0 0.49746709E+03</rscale>
<asrwt>0</asrwt>
<pdfrwt beam="1">  1        1 0.60775134E-01 0.49746709E+03</pdfrwt>
<pdfrwt beam="2">  1       -1 0.20775272E-01 0.49746709E+03</pdfrwt>
<totfact> 0.11708237E+03</totfact>
</mgrwt>
</event>
<event>
 4    1  0.6376580E-005  0.5171990E+03  0.7818608E-02  0.1009385E+00
          1   -1    0    0  501    0  0.00000000000E+00  0.00000000000E+00  0.14128037276E+04  0.14128037276E+04  0.50400000000E-02 0.  1.
         -1   -1    0    0    0  501 -0.00000000000E+00 -0.00000000000E+00 -0.47334037848E+02  0.47334038116E+02  0.50400000000E-02 0. -1.
    5000001    1    1    2    0    0 -0.78016853118E+02 -0.20569056130E+03  0.54589234532E+03  0.60209857089E+03  0.12700000000E+03 0.  0.
   -5000001    1    1    2    0    0  0.78016853118E+02  0.20569056130E+03  0.81957734440E+03  0.85803919482E+03  0.12700000000E+03 0.  0.
<mgrwt>
<rscale>  0 0.51719902E+03</rscale>
<asrwt>0</asrwt>
<pdfrwt beam="1">  1        1 0.20182907E+00 0.51719902E+03</pdfrwt>
<pdfrwt beam="2">  1       -1 0.67620066E-02 0.51719902E+03</pdfrwt>
<totfact> 0.10562862E+03</totfact>
</mgrwt>
</event>
<event>
 4    1  0.6376580E-005  0.4107411E+03  0.7818608E-02  0.1040123E+00
          1   -1    0    0  501    0  0.00000000000E+00  0.00000000000E+00  0.46432215501E+03  0.46432215504E+03  0.50400000000E-02 0.  1.
         -1   -1    0    0    0  501 -0.00000000000E+00 -0.00000000000E+00 -0.90835763333E+02  0.90835763473E+02  0.50400000000E-02 0. -1.
    5000001    1    1    2    0    0  0.90042125827E+02  0.11828843055E+03  0.27167191760E+03  0.33471535375E+03  0.12700000000E+03 0.  0.
   -5000001    1    1    2    0    0 -0.90042125827E+02 -0.11828843055E+03  0.10181447408E+03  0.22044256476E+03  0.12700000000E+03 0.  0.
<mgrwt>
<rscale>  0 0.41074107E+03</rscale>
<asrwt>0</asrwt>
<pdfrwt beam="1">  1        1 0.66331737E-01 0.41074107E+03</pdfrwt>
<pdfrwt beam="2">  1       -1 0.12976538E-01 0.41074107E+03</pdfrwt>
<totfact> 0.22365579E+03</totfact>
</mgrwt>
</event>
<event>
 4    1  0.6376580E-005  0.9503931E+03  0.7818608E-02  0.9364691E-01
         -1   -1    0    0    0  501 -0.00000000000E+00  0.00000000000E+00  0.18775910893E+03  0.18775910900E+03  0.50400000000E-02 0. -1.
          1   -1    0    0  501    0  0.00000000000E+00 -0.00000000000E+00 -0.12026675003E+04  0.12026675003E+04  0.50400000000E-02 0.  1.
    5000001    1    1    2    0    0 -0.44691316714E+03 -0.16494764248E+02 -0.36351891826E+03  0.59015121803E+03  0.12700000000E+03 0.  0.
   -5000001    1    1    2    0    0  0.44691316714E+03  0.16494764248E+02 -0.65138947313E+03  0.80027539129E+03  0.12700000000E+03 0.  0.
<mgrwt>
<rscale>  0 0.95039314E+03</rscale>
<asrwt>0</asrwt>
<pdfrwt beam="1">  1        1 0.17180964E+00 0.95039314E+03</pdfrwt>
<pdfrwt beam="2">  1       -1 0.26822731E-01 0.95039314E+03</pdfrwt>
<totfact> 0.15325687E+02</totfact>
</mgrwt>
</event>
<event>
 4    1  0.6376580E-005  0.3294699E+03  0.7818608E-02  0.1071372E+00
          1   -1    0    0  501    0  0.00000000000E+00  0.00000000000E+00  0.12100662467E+04  0.12100662467E+04  0.50400000000E-02 0.  1.
         -1   -1    0    0    0  501 -0.00000000000E+00 -0.00000000000E+00 -0.22426540170E+02  0.22426540736E+02  0.50400000000E-02 0. -1.
    5000001    1    1    2    0    0 -0.20240413977E+02  0.35403728720E+02  0.95545445349E+03  0.96472032790E+03  0.12700000000E+03 0.  0.
   -5000001    1    1    2    0    0  0.20240413977E+02 -0.35403728720E+02  0.23218525307E+03  0.26777245957E+03  0.12700000000E+03 0.  0.
<mgrwt>
<rscale>  0 0.32946988E+03</rscale>
<asrwt>0</asrwt>
<pdfrwt beam="1">  1        1 0.17286666E+00 0.32946988E+03</pdfrwt>
<pdfrwt beam="2">  1       -1 0.32037905E-02 0.32946988E+03</pdfrwt>
<totfact> 0.44540196E+03</totfact>
</mgrwt>
</event>
<event>
 4    1  0.6376580E-005  0.3376832E+03  0.7818608E-02  0.1067787E+00
         -1   -1    0    0    0  501 -0.00000000000E+00  0.00000000000E+00  0.32701467097E+02  0.32701467486E+02  0.50400000000E-02 0. -1.
          1   -1    0    0  501    0  0.00000000000E+00 -0.00000000000E+00 -0.87174941714E+03  0.87174941716E+03  0.50400000000E-02 0.  1.
    5000001    1    1    2    0    0  0.64624231991E+02 -0.85831230274E+02 -0.34211895598E+03  0.38041775917E+03  0.12700000000E+03 0.  0.
   -5000001    1    1    2    0    0 -0.64624231991E+02  0.85831230274E+02 -0.49692899407E+03  0.52403312548E+03  0.12700000000E+03 0.  0.
<mgrwt>
<rscale>  0 0.33768320E+03</rscale>
<asrwt>0</asrwt>
<pdfrwt beam="1">  1        1 0.12453562E+00 0.33768320E+03</pdfrwt>
<pdfrwt beam="2">  1       -1 0.46716387E-02 0.33768320E+03</pdfrwt>
<totfact> 0.44255454E+03</totfact>
</mgrwt>
</event>
<event>
 4    1  0.6376580E-005  0.1592788E+04  0.7818608E-02  0.8824991E-01
          1   -1    0    0  501    0  0.00000000000E+00  0.00000000000E+00  0.23401179547E+04  0.23401179547E+04  0.50400000000E-02 0. -1.
         -1   -1    0    0    0  501 -0.00000000000E+00 -0.00000000000E+00 -0.27103043955E+03  0.27103043960E+03  0.50400000000E-02 0.  1.
    5000001    1    1    2    0    0  0.47309535470E+03  0.61908603703E+03  0.86239201014E+03  0.11691602606E+04  0.12700000000E+03 0.  0.
   -5000001    1    1    2    0    0 -0.47309535470E+03 -0.61908603703E+03  0.12066955050E+04  0.14419881337E+04  0.12700000000E+03 0.  0.
<mgrwt>
<rscale>  0 0.15927877E+04</rscale>
<asrwt>0</asrwt>
<pdfrwt beam="1">  1        1 0.33430257E+00 0.15927877E+04</pdfrwt>
<pdfrwt beam="2">  1       -1 0.38718634E-01 0.15927877E+04</pdfrwt>
<totfact> 0.14142934E+01</totfact>
</mgrwt>
</event>
<event>
 4    1  0.6376580E-005  0.3713015E+03  0.7818608E-02  0.1054196E+00
          1   -1    0    0  501    0  0.00000000000E+00  0.00000000000E+00  0.39336435484E+02  0.39336435807E+02  0.50400000000E-02 0. -1.
         -1   -1    0    0    0  501 -0.00000000000E+00 -0.00000000000E+00 -0.87619019998E+03  0.87619019999E+03  0.50400000000E-02 0.  1.
    5000001    1    1    2    0    0 -0.79207208549E+02  0.10705276276E+03 -0.35787224249E+03  0.40241224863E+03  0.12700000000E+03 0.  0.
   -5000001    1    1    2    0    0  0.79207208549E+02 -0.10705276276E+03 -0.47898152201E+03  0.51311438717E+03  0.12700000000E+03 0.  0.
<mgrwt>
<rscale>  0 0.37130149E+03</rscale>
<asrwt>0</asrwt>
<pdfrwt beam="1">  1        1 0.56194913E-02 0.37130149E+03</pdfrwt>
<pdfrwt beam="2">  1       -1 0.12517002E+00 0.37130149E+03</pdfrwt>
<totfact> 0.84781177E+02</totfact>
</mgrwt>
</event>
<event>
 4    1  0.6376580E-005  0.6174798E+03  0.7818608E-02  0.9869790E-01
         -1   -1    0    0    0  501 -0.00000000000E+00  0.00000000000E+00  0.20031437661E+03  0.20031437668E+03  0.50400000000E-02 0. -1.
          1   -1    0    0  501    0  0.00000000000E+00 -0.00000000000E+00 -0.47585363603E+03  0.47585363606E+03  0.50400000000E-02 0.  1.
    5000001    1    1    2    0    0  0.25206200127E+03 -0.12402595362E+03 -0.11965549620E+03  0.33070247569E+03  0.12700000000E+03 0.  0.
   -5000001    1    1    2    0    0 -0.25206200127E+03  0.12402595362E+03 -0.15588376321E+03  0.34546553705E+03  0.12700000000E+03 0.  0.
<mgrwt>
<rscale>  0 0.61747980E+03</rscale>
<asrwt>0</asrwt>
<pdfrwt beam="1">  1        1 0.67979090E-01 0.61747980E+03</pdfrwt>
<pdfrwt beam="2">  1       -1 0.28616340E-01 0.61747980E+03</pdfrwt>
<totfact> 0.58654832E+02</totfact>
</mgrwt>
</event>
<event>
 4    1  0.6376580E-005  0.3337506E+03  0.7818608E-02  0.1069489E+00
         -1   -1    0    0    0  501 -0.00000000000E+00  0.00000000000E+00  0.42039206400E+02  0.42039206702E+02  0.50400000000E-02 0. -1.
          1   -1    0    0  501    0  0.00000000000E+00 -0.00000000000E+00 -0.66241419358E+03  0.66241419360E+03  0.50400000000E-02 0.  1.
    5000001    1    1    2    0    0  0.77125826185E+02  0.71515050019E+02 -0.25614438841E+03  0.30463378532E+03  0.12700000000E+03 0.  0.
   -5000001    1    1    2    0    0 -0.77125826185E+02 -0.71515050019E+02 -0.36423059877E+03  0.39981961498E+03  0.12700000000E+03 0.  0.
<mgrwt>
<rscale>  0 0.33375061E+03</rscale>
<asrwt>0</asrwt>
<pdfrwt beam="1">  1        1 0.94630593E-01 0.33375061E+03</pdfrwt>
<pdfrwt beam="2">  1       -1 0.60056014E-02 0.33375061E+03</pdfrwt>
<totfact> 0.45443434E+03</totfact>
</mgrwt>
</event>
<event>
 4    1  0.6376580E-005  0.7389325E+03  0.7818608E-02  0.9652875E-01
          1   -1    0    0  501    0  0.00000000000E+00  0.00000000000E+00  0.11544956737E+04  0.11544956737E+04  0.50400000000E-02 0.  1.
         -1   -1    0    0    0  501 -0.00000000000E+00 -0.00000000000E+00 -0.11823804982E+03  0.11823804993E+03  0.50400000000E-02 0. -1.
    5000001    1    1    2    0    0 -0.24548236204E+03 -0.24496043476E+03  0.50013721119E+03  0.62171813122E+03  0.12700000000E+03 0.  0.
   -5000001    1    1    2    0    0  0.24548236204E+03  0.24496043476E+03  0.53612041265E+03  0.65101559239E+03  0.12700000000E+03 0.  0.
<mgrwt>
<rscale>  0 0.73893252E+03</rscale>
<asrwt>0</asrwt>
<pdfrwt beam="1">  1        1 0.16492795E+00 0.73893252E+03</pdfrwt>
<pdfrwt beam="2">  1       -1 0.16891150E-01 0.73893252E+03</pdfrwt>
<totfact> 0.36450327E+02</totfact>
</mgrwt>
</event>
<event>
 4    1  0.6376580E-005  0.3664832E+03  0.7818608E-02  0.1056046E+00
          1   -1    0    0  501    0  0.00000000000E+00  0.00000000000E+00  0.83699967982E+02  0.83699968133E+02  0.50400000000E-02 0.  1.
         -1   -1    0    0    0  501 -0.00000000000E+00 -0.00000000000E+00 -0.40116486874E+03  0.40116486877E+03  0.50400000000E-02 0. -1.
    5000001    1    1    2    0    0 -0.13088899593E+03 -0.96185426891E+01 -0.17853542555E+03  0.25539840210E+03  0.12700000000E+03 0.  0.
   -5000001    1    1    2    0    0  0.13088899593E+03  0.96185426891E+01 -0.13892947521E+03  0.22946643480E+03  0.12700000000E+03 0.  0.
<mgrwt>
<rscale>  0 0.36648321E+03</rscale>
<asrwt>0</asrwt>
<pdfrwt beam="1">  1        1 0.11957138E-01 0.36648321E+03</pdfrwt>
<pdfrwt beam="2">  1       -1 0.57309266E-01 0.36648321E+03</pdfrwt>
<totfact> 0.16080193E+03</totfact>
</mgrwt>
</event>
<event>
 4    1  0.6376580E-005  0.3142343E+03  0.7818608E-02  0.1078334E+00
         -1   -1    0    0    0  501 -0.00000000000E+00  0.00000000000E+00  0.16979028769E+03  0.16979028777E+03  0.50400000000E-02 0.  1.
          1   -1    0    0  501    0  0.00000000000E+00 -0.00000000000E+00 -0.14538989385E+03  0.14538989394E+03  0.50400000000E-02 0. -1.
    5000001    1    1    2    0    0  0.58780058788E+02 -0.65590922789E+02 -0.16160837566E+02  0.15539445658E+03  0.12700000000E+03 0.  0.
   -5000001    1    1    2    0    0 -0.58780058788E+02  0.65590922789E+02  0.40561231408E+02  0.15978572513E+03  0.12700000000E+03 0.  0.
<mgrwt>
<rscale>  0 0.31423426E+03</rscale>
<asrwt>0</asrwt>
<pdfrwt beam="1">  1        1 0.20769985E-01 0.31423426E+03</pdfrwt>
<pdfrwt beam="2">  1       -1 0.24255755E-01 0.31423426E+03</pdfrwt>
<totfact> 0.35604035E+03</totfact>
</mgrwt>
</event>
<event>
 4    1  0.6376580E-005  0.3095330E+03  0.7818608E-02  0.1080570E+00
         -1   -1    0    0    0  501 -0.00000000000E+00  0.00000000000E+00  0.45959991657E+02  0.45959991934E+02  0.50400000000E-02 0. -1.
          1   -1    0    0  501    0  0.00000000000E+00 -0.00000000000E+00 -0.52116360952E+03  0.52116360954E+03  0.50400000000E-02 0.  1.
    5000001    1    1    2    0    0 -0.37399978113E+02  0.80131368923E+02 -0.23399254056E+03  0.28053752634E+03  0.12700000000E+03 0.  0.
   -5000001    1    1    2    0    0  0.37399978113E+02 -0.80131368923E+02 -0.24121107730E+03  0.28658607514E+03  0.12700000000E+03 0.  0.
<mgrwt>
<rscale>  0 0.30953304E+03</rscale>
<asrwt>0</asrwt>
<pdfrwt beam="1">  1        1 0.74451941E-01 0.30953304E+03</pdfrwt>
<pdfrwt beam="2">  1       -1 0.65657134E-02 0.30953304E+03</pdfrwt>
<totfact> 0.54955675E+03</totfact>
</mgrwt>
</event>
<event>
 4    1  0.6376580E-005  0.2803117E+03  0.7818608E-02  0.1095519E+00
          1   -1    0    0  501    0  0.00000000000E+00  0.00000000000E+00  0.13183706701E+03  0.13183706710E+03  0.50400000000E-02 0. -1.
         -1   -1    0    0    0  501 -0.00000000000E+00 -0.00000000000E+00 -0.14899953811E+03  0.14899953819E+03  0.50400000000E-02 0.  1.
    5000001    1    1    2    0    0 -0.20274981566E+02  0.39591899315E+02  0.30684868924E+02  0.13801867464E+03  0.12700000000E+03 0.  0.
   -5000001    1    1    2    0    0  0.20274981566E+02 -0.39591899315E+02 -0.47847340027E+02  0.14281793065E+03  0.12700000000E+03 0.  0.
<mgrwt>
<rscale>  0 0.28031170E+03</rscale>
<asrwt>0</asrwt>
<pdfrwt beam="1">  1        1 0.18833867E-01 0.28031170E+03</pdfrwt>
<pdfrwt beam="2">  1       -1 0.21285648E-01 0.28031170E+03</pdfrwt>
<totfact> 0.49958395E+03</totfact>
</mgrwt>
</event>
<event>
 4    1  0.6376580E-005  0.4303112E+03  0.7818608E-02  0.1033762E+00
          1   -1    0    0  501    0  0.00000000000E+00  0.00000000000E+00  0.22098370034E+04  0.22098370034E+04  0.50400000000E-02 0. -1.
         -1   -1    0    0    0  501 -0.00000000000E+00 -0.00000000000E+00 -0.20948125100E+02  0.20948125706E+02  0.50400000000E-02 0.  1.
    5000001    1    1    2    0    0 -0.17266349419E+03 -0.18668332994E+02  0.10875790585E+04  0.11086561223E+04  0.12700000000E+03 0.  0.
   -5000001    1    1    2    0    0  0.17266349419E+03  0.18668332994E+02  0.11013098198E+04  0.11221290069E+04  0.12700000000E+03 0.  0.
<mgrwt>
<rscale>  0 0.43031125E+03</rscale>
<asrwt>0</asrwt>
<pdfrwt beam="1">  1        1 0.31569084E+00 0.43031125E+03</pdfrwt>
<pdfrwt beam="2">  1       -1 0.29925909E-02 0.43031125E+03</pdfrwt>
<totfact> 0.11679840E+03</totfact>
</mgrwt>
</event>
<event>
 4    1  0.6376580E-005  0.3661120E+03  0.7818608E-02  0.1056190E+00
          1   -1    0    0  501    0  0.00000000000E+00  0.00000000000E+00  0.14404218444E+04  0.14404218444E+04  0.50400000000E-02 0. -1.
         -1   -1    0    0    0  501 -0.00000000000E+00 -0.00000000000E+00 -0.23263665938E+02  0.23263666484E+02  0.50400000000E-02 0.  1.
    5000001    1    1    2    0    0  0.12666738599E+03  0.23807448094E+02  0.59770826462E+03  0.62449626969E+03  0.12700000000E+03 0.  0.
   -5000001    1    1    2    0    0 -0.12666738599E+03 -0.23807448094E+02  0.81944991383E+03  0.83918924119E+03  0.12700000000E+03 0.  0.
<mgrwt>
<rscale>  0 0.36611197E+03</rscale>
<asrwt>0</asrwt>
<pdfrwt beam="1">  1        1 0.20577458E+00 0.36611197E+03</pdfrwt>
<pdfrwt beam="2">  1       -1 0.33233804E-02 0.36611197E+03</pdfrwt>
<totfact> 0.29872417E+03</totfact>
</mgrwt>
</event>
<event>
 4    1  0.6376580E-005  0.4420395E+03  0.7818608E-02  0.1030123E+00
         -1   -1    0    0    0  501 -0.00000000000E+00  0.00000000000E+00  0.19277577596E+02  0.19277578255E+02  0.50400000000E-02 0. -1.
          1   -1    0    0  501    0  0.00000000000E+00 -0.00000000000E+00 -0.25340175716E+04  0.25340175716E+04  0.50400000000E-02 0.  1.
    5000001    1    1    2    0    0  0.96522297919E+02 -0.15202029950E+03 -0.13564099696E+04  0.13741920285E+04  0.12700000000E+03 0.  0.
   -5000001    1    1    2    0    0 -0.96522297919E+02  0.15202029950E+03 -0.11583300244E+04  0.11791031214E+04  0.12700000000E+03 0.  0.
<mgrwt>
<rscale>  0 0.44203946E+03</rscale>
<asrwt>0</asrwt>
<pdfrwt beam="1">  1        1 0.36200230E+00 0.44203946E+03</pdfrwt>
<pdfrwt beam="2">  1       -1 0.27539413E-02 0.44203946E+03</pdfrwt>
<totfact> 0.83479604E+02</totfact>
</mgrwt>
</event>
<event>
 4    1  0.6376580E-005  0.2889020E+03  0.7818608E-02  0.1090924E+00
          1   -1    0    0  501    0  0.00000000000E+00  0.00000000000E+00  0.52846370463E+03  0.52846370465E+03  0.50400000000E-02 0.  1.
         -1   -1    0    0    0  501 -0.00000000000E+00 -0.00000000000E+00 -0.39484422669E+02  0.39484422991E+02  0.50400000000E-02 0. -1.
    5000001    1    1    2    0    0 -0.82158421344E+01 -0.35689455856E+02  0.35904944391E+03  0.38260520186E+03  0.12700000000E+03 0.  0.
   -5000001    1    1    2    0    0  0.82158421344E+01  0.35689455856E+02  0.12992983805E+03  0.18534292578E+03  0.12700000000E+03 0.  0.
<mgrwt>
<rscale>  0 0.28890195E+03</rscale>
<asrwt>0</asrwt>
<pdfrwt beam="1">  1        1 0.75494816E-01 0.28890195E+03</pdfrwt>
<pdfrwt beam="2">  1       -1 0.56406317E-02 0.28890195E+03</pdfrwt>
<totfact> 0.67750709E+03</totfact>
</mgrwt>
</event>
<event>
 4    1  0.6376580E-005  0.6772908E+03  0.7818608E-02  0.9756876E-01
          1   -1    0    0  501    0  0.00000000000E+00  0.00000000000E+00  0.23137707432E+03  0.23137707438E+03  0.50400000000E-02 0.  1.
         -1   -1    0    0    0  501 -0.00000000000E+00 -0.00000000000E+00 -0.49564420228E+03  0.49564420230E+03  0.50400000000E-02 0. -1.
    5000001    1    1    2    0    0  0.24868000591E+03 -0.10111452025E+03 -0.30682781337E+03  0.42701077106E+03  0.12700000000E+03 0.  0.
   -5000001    1    1    2    0    0 -0.24868000591E+03  0.10111452025E+03  0.42560685412E+02  0.30001050563E+03  0.12700000000E+03 0.  0.
<mgrwt>
<rscale>  0 0.67729080E+03</rscale>
<asrwt>0</asrwt>
<pdfrwt beam="1">  1        1 0.33053868E-01 0.67729080E+03</pdfrwt>
<pdfrwt beam="2">  1       -1 0.70806314E-01 0.67729080E+03</pdfrwt>
<totfact> 0.27662048E+02</totfact>
</mgrwt>
</event>
<event>
 4    1  0.6376580E-005  0.6888085E+03  0.7818608E-02  0.9736565E-01
         -1   -1    0    0    0  501 -0.00000000000E+00  0.00000000000E+00  0.14516395095E+04  0.14516395095E+04  0.50400000000E-02 0. -1.
          1   -1    0    0  501    0  0.00000000000E+00 -0.00000000000E+00 -0.81710568216E+02  0.81710568371E+02  0.50400000000E-02 0.  1.
    5000001    1    1    2    0    0 -0.25134883972E+03 -0.16601411108E+03  0.92625014272E+03  0.98224500569E+03  0.12700000000E+03 0.  0.
   -5000001    1    1    2    0    0  0.25134883972E+03  0.16601411108E+03  0.44367879857E+03  0.55110507220E+03  0.12700000000E+03 0.  0.
<mgrwt>
<rscale>  0 0.68880851E+03</rscale>
<asrwt>0</asrwt>
<pdfrwt beam="1">  1        1 0.11672940E-01 0.68880851E+03</pdfrwt>
<pdfrwt beam="2">  1       -1 0.20737704E+00 0.68880851E+03</pdfrwt>
<totfact> 0.74688713E+01</totfact>
</mgrwt>
</event>
<event>
 4    1  0.6376580E-005  0.2967214E+03  0.7818608E-02  0.1086891E+00
          1   -1    0    0  501    0  0.00000000000E+00  0.00000000000E+00  0.32152799822E+02  0.32152800217E+02  0.50400000000E-02 0.  1.
         -1   -1    0    0    0  501 -0.00000000000E+00 -0.00000000000E+00 -0.68457164553E+03  0.68457164555E+03  0.50400000000E-02 0. -1.
    5000001    1    1    2    0    0 -0.45105355064E+02 -0.29960629289E+02 -0.45739827153E+03  0.47778060986E+03  0.12700000000E+03 0.  0.
   -5000001    1    1    2    0    0  0.45105355064E+02  0.29960629289E+02 -0.19502057418E+03  0.23894383591E+03  0.12700000000E+03 0.  0.
<mgrwt>
<rscale>  0 0.29672139E+03</rscale>
<asrwt>0</asrwt>
<pdfrwt beam="1">  1        1 0.45932575E-02 0.29672139E+03</pdfrwt>
<pdfrwt beam="2">  1       -1 0.97795941E-01 0.29672139E+03</pdfrwt>
<totfact> 0.19873148E+03</totfact>
</mgrwt>
</event>
<event>
 4    1  0.6376580E-005  0.3635738E+03  0.7818608E-02  0.1057178E+00
         -1   -1    0    0    0  501 -0.00000000000E+00  0.00000000000E+00  0.46629096616E+03  0.46629096618E+03  0.50400000000E-02 0. -1.
          1   -1    0    0  501    0  0.00000000000E+00 -0.00000000000E+00 -0.70870948675E+02  0.70870948854E+02  0.50400000000E-02 0.  1.
    5000001    1    1    2    0    0  0.95886855471E+02  0.73268315099E+02  0.26940738564E+03  0.32135941636E+03  0.12700000000E+03 0.  0.
   -5000001    1    1    2    0    0 -0.95886855471E+02 -0.73268315099E+02  0.12601263184E+03  0.21580249867E+03  0.12700000000E+03 0.  0.
<mgrwt>
<rscale>  0 0.36357383E+03</rscale>
<asrwt>0</asrwt>
<pdfrwt beam="1">  1        1 0.10124421E-01 0.36357383E+03</pdfrwt>
<pdfrwt beam="2">  1       -1 0.66612998E-01 0.36357383E+03</pdfrwt>
<totfact> 0.15002256E+03</totfact>
</mgrwt>
</event>
<event>
 4    1  0.6376580E-005  0.3302144E+03  0.7818608E-02  0.1071042E+00
          1   -1    0    0  501    0  0.00000000000E+00  0.00000000000E+00  0.34208543089E+03  0.34208543093E+03  0.50400000000E-02 0.  1.
         -1   -1    0    0    0  501 -0.00000000000E+00 -0.00000000000E+00 -0.79688823290E+02  0.79688823449E+02  0.50400000000E-02 0. -1.
    5000001    1    1    2    0    0  0.31164003351E+02  0.39367530192E+02  0.24971933845E+03  0.28462211005E+03  0.12700000000E+03 0.  0.
   -5000001    1    1    2    0    0 -0.31164003351E+02 -0.39367530192E+02  0.12677269153E+02  0.13715214432E+03  0.12700000000E+03 0.  0.
<mgrwt>
<rscale>  0 0.33021439E+03</rscale>
<asrwt>0</asrwt>
<pdfrwt beam="1">  1        1 0.48869348E-01 0.33021439E+03</pdfrwt>
<pdfrwt beam="2">  1       -1 0.11384118E-01 0.33021439E+03</pdfrwt>
<totfact> 0.40599478E+03</totfact>
</mgrwt>
</event>
<event>
 4    1  0.6376580E-005  0.4296040E+03  0.7818608E-02  0.1033985E+00
          1   -1    0    0  501    0  0.00000000000E+00  0.00000000000E+00  0.68613264412E+03  0.68613264414E+03  0.50400000000E-02 0.  1.
         -1   -1    0    0    0  501 -0.00000000000E+00 -0.00000000000E+00 -0.67246337484E+02  0.67246337673E+02  0.50400000000E-02 0. -1.
    5000001    1    1    2    0    0  0.13351609139E+03  0.61812938609E+02  0.14906702289E+03  0.24494359219E+03  0.12700000000E+03 0.  0.
   -5000001    1    1    2    0    0 -0.13351609139E+03 -0.61812938609E+02  0.46981928375E+03  0.50843538963E+03  0.12700000000E+03 0.  0.
<mgrwt>
<rscale>  0 0.42960404E+03</rscale>
<asrwt>0</asrwt>
<pdfrwt beam="1">  1        1 0.98018958E-01 0.42960404E+03</pdfrwt>
<pdfrwt beam="2">  1       -1 0.96066188E-02 0.42960404E+03</pdfrwt>
<totfact> 0.21051287E+03</totfact>
</mgrwt>
</event>
<event>
 4    1  0.6376580E-005  0.4791411E+03  0.7818608E-02  0.1019371E+00
         -1   -1    0    0    0  501 -0.00000000000E+00  0.00000000000E+00  0.26995166113E+03  0.26995166118E+03  0.50400000000E-02 0.  1.
          1   -1    0    0  501    0  0.00000000000E+00 -0.00000000000E+00 -0.21260862663E+03  0.21260862669E+03  0.50400000000E-02 0. -1.
    5000001    1    1    2    0    0  0.99248930610E+02  0.12768206172E+03 -0.95136568726E+02  0.22656792761E+03  0.12700000000E+03 0.  0.
   -5000001    1    1    2    0    0 -0.99248930610E+02 -0.12768206172E+03  0.15247960323E+03  0.25599236026E+03  0.12700000000E+03 0.  0.
<mgrwt>
<rscale>  0 0.47914111E+03</rscale>
<asrwt>0</asrwt>
<pdfrwt beam="1">  1        1 0.30372661E-01 0.47914111E+03</pdfrwt>
<pdfrwt beam="2">  1       -1 0.38564523E-01 0.47914111E+03</pdfrwt>
<totfact> 0.98702695E+02</totfact>
</mgrwt>
</event>
<event>
 4    1  0.6376580E-005  0.3520176E+03  0.7818608E-02  0.1061790E+00
         -1   -1    0    0    0  501 -0.00000000000E+00  0.00000000000E+00  0.28997896253E+03  0.28997896257E+03  0.50400000000E-02 0. -1.
          1   -1    0    0  501    0  0.00000000000E+00 -0.00000000000E+00 -0.10683221678E+03  0.10683221690E+03  0.50400000000E-02 0.  1.
    5000001    1    1    2    0    0 -0.45908695468E+02 -0.17434190174E+01  0.21880492801E+03  0.25712884776E+03  0.12700000000E+03 0.  0.
   -5000001    1    1    2    0    0  0.45908695468E+02  0.17434190174E+01 -0.35658182264E+02  0.13968233171E+03  0.12700000000E+03 0.  0.
<mgrwt>
<rscale>  0 0.35201759E+03</rscale>
<asrwt>0</asrwt>
<pdfrwt beam="1">  1        1 0.15261745E-01 0.35201759E+03</pdfrwt>
<pdfrwt beam="2">  1       -1 0.41425566E-01 0.35201759E+03</pdfrwt>
<totfact> 0.21198054E+03</totfact>
</mgrwt>
</event>
<event>
 4    1  0.6376580E-005  0.3445672E+03  0.7818608E-02  0.1064867E+00
          1   -1    0    0  501    0  0.00000000000E+00  0.00000000000E+00  0.33652018978E+03  0.33652018982E+03  0.50400000000E-02 0.  1.
         -1   -1    0    0    0  501 -0.00000000000E+00 -0.00000000000E+00 -0.88201667208E+02  0.88201667352E+02  0.50400000000E-02 0. -1.
    5000001    1    1    2    0    0  0.10913146122E+03  0.37558956930E+02  0.10537272933E+03  0.20137716643E+03  0.12700000000E+03 0.  0.
   -5000001    1    1    2    0    0 -0.10913146122E+03 -0.37558956930E+02  0.14294579325E+03  0.22334469074E+03  0.12700000000E+03 0.  0.
<mgrwt>
<rscale>  0 0.34456722E+03</rscale>
<asrwt>0</asrwt>
<pdfrwt beam="1">  1        1 0.48074314E-01 0.34456722E+03</pdfrwt>
<pdfrwt beam="2">  1       -1 0.12600238E-01 0.34456722E+03</pdfrwt>
<totfact> 0.35378849E+03</totfact>
</mgrwt>
</event>
<event>
 4    1  0.6376580E-005  0.3949610E+03  0.7818608E-02  0.1045539E+00
          1   -1    0    0  501    0  0.00000000000E+00  0.00000000000E+00  0.21102872460E+02  0.21102873062E+02  0.50400000000E-02 0.  1.
         -1   -1    0    0    0  501 -0.00000000000E+00 -0.00000000000E+00 -0.18480204136E+04  0.18480204136E+04  0.50400000000E-02 0. -1.
    5000001    1    1    2    0    0  0.82375232558E+02 -0.12612804228E+03 -0.85075142421E+03  0.87327026044E+03  0.12700000000E+03 0.  0.
   -5000001    1    1    2    0    0 -0.82375232558E+02  0.12612804228E+03 -0.97616611694E+03  0.99585302623E+03  0.12700000000E+03 0.  0.
<mgrwt>
<rscale>  0 0.39496096E+03</rscale>
<asrwt>0</asrwt>
<pdfrwt beam="1">  1        1 0.30146973E-02 0.39496096E+03</pdfrwt>
<pdfrwt beam="2">  1       -1 0.26400281E+00 0.39496096E+03</pdfrwt>
<totfact> 0.21775906E+02</totfact>
</mgrwt>
</event>
<event>
 4    1  0.6376580E-005  0.8299827E+03  0.7818608E-02  0.9517604E-01
          1   -1    0    0  501    0  0.00000000000E+00  0.00000000000E+00  0.82912116542E+03  0.82912116544E+03  0.50400000000E-02 0.  1.
         -1   -1    0    0    0  501 -0.00000000000E+00 -0.00000000000E+00 -0.20771129797E+03  0.20771129803E+03  0.50400000000E-02 0. -1.
    5000001    1    1    2    0    0 -0.30501442441E+03  0.18620917543E+03  0.10025212119E+03  0.39228451909E+03  0.12700000000E+03 0.  0.
   -5000001    1    1    2    0    0  0.30501442441E+03 -0.18620917543E+03  0.52115774626E+03  0.64454794438E+03  0.12700000000E+03 0.  0.
<mgrwt>
<rscale>  0 0.82998273E+03</rscale>
<asrwt>0</asrwt>
<pdfrwt beam="1">  1        1 0.11844588E+00 0.82998273E+03</pdfrwt>
<pdfrwt beam="2">  1       -1 0.29673042E-01 0.82998273E+03</pdfrwt>
<totfact> 0.24632184E+02</totfact>
</mgrwt>
</event>
<event>
 4    1  0.6376580E-005  0.2951911E+03  0.7818608E-02  0.1087670E+00
         -1   -1    0    0    0  501 -0.00000000000E+00  0.00000000000E+00  0.13408644607E+02  0.13408645554E+02  0.50400000000E-02 0.  1.
          1   -1    0    0  501    0  0.00000000000E+00 -0.00000000000E+00 -0.16246564301E+04  0.16246564301E+04  0.50400000000E-02 0. -1.
    5000001    1    1    2    0    0  0.65718186269E+02  0.76884917383E+01 -0.60728876077E+03  0.62394441409E+03  0.12700000000E+03 0.  0.
   -5000001    1    1    2    0    0 -0.65718186269E+02 -0.76884917383E+01 -0.10039590247E+04  0.10141206616E+04  0.12700000000E+03 0.  0.
<mgrwt>
<rscale>  0 0.29519107E+03</rscale>
<asrwt>0</asrwt>
<pdfrwt beam="1">  1        1 0.23209365E+00 0.29519107E+03</pdfrwt>
<pdfrwt beam="2">  1       -1 0.19155218E-02 0.29519107E+03</pdfrwt>
<totfact> 0.51653519E+03</totfact>
</mgrwt>
</event>
<event>
 4    1  0.6376580E-005  0.3282694E+03  0.7818608E-02  0.1071905E+00
         -1   -1    0    0    0  501 -0.00000000000E+00  0.00000000000E+00  0.44351990760E+03  0.44351990763E+03  0.50400000000E-02 0. -1.
          1   -1    0    0  501    0  0.00000000000E+00 -0.00000000000E+00 -0.60741808345E+02  0.60741808554E+02  0.50400000000E-02 0.  1.
    5000001    1    1    2    0    0  0.91885476063E+02  0.13174919071E+02  0.11942569624E+03  0.19750447116E+03  0.12700000000E+03 0.  0.
   -5000001    1    1    2    0    0 -0.91885476063E+02 -0.13174919071E+02  0.26335240301E+03  0.30675724502E+03  0.12700000000E+03 0.  0.
<mgrwt>
<rscale>  0 0.32826941E+03</rscale>
<asrwt>0</asrwt>
<pdfrwt beam="1">  1        1 0.86774012E-02 0.32826941E+03</pdfrwt>
<pdfrwt beam="2">  1       -1 0.63359987E-01 0.32826941E+03</pdfrwt>
<totfact> 0.20391298E+03</totfact>
</mgrwt>
</event>
<event>
 4    1  0.6376580E-005  0.4408639E+03  0.7818608E-02  0.1030482E+00
          1   -1    0    0  501    0  0.00000000000E+00  0.00000000000E+00  0.54666711381E+03  0.54666711384E+03  0.50400000000E-02 0.  1.
         -1   -1    0    0    0  501 -0.00000000000E+00 -0.00000000000E+00 -0.88884514994E+02  0.88884515137E+02  0.50400000000E-02 0. -1.
    5000001    1    1    2    0    0 -0.38627690234E+02 -0.17093762598E+03  0.16859374835E+03  0.27434398556E+03  0.12700000000E+03 0.  0.
   -5000001    1    1    2    0    0  0.38627690234E+02  0.17093762598E+03  0.28918885047E+03  0.36120764342E+03  0.12700000000E+03 0.  0.
<mgrwt>
<rscale>  0 0.44086389E+03</rscale>
<asrwt>0</asrwt>
<pdfrwt beam="1">  1        1 0.78095302E-01 0.44086389E+03</pdfrwt>
<pdfrwt beam="2">  1       -1 0.12697788E-01 0.44086389E+03</pdfrwt>
<totfact> 0.18628726E+03</totfact>
</mgrwt>
</event>
<event>
 4    1  0.6376580E-005  0.3000314E+03  0.7818608E-02  0.1085225E+00
         -1   -1    0    0    0  501 -0.00000000000E+00  0.00000000000E+00  0.52149452271E+01  0.52149476626E+01  0.50400000000E-02 0.  1.
          1   -1    0    0  501    0  0.00000000000E+00 -0.00000000000E+00 -0.43154256494E+04  0.43154256494E+04  0.50400000000E-02 0. -1.
    5000001    1    1    2    0    0  0.70667341254E+02  0.23695046564E+02 -0.17426372788E+04  0.17488479104E+04  0.12700000000E+03 0.  0.
   -5000001    1    1    2    0    0 -0.70667341254E+02 -0.23695046564E+02 -0.25675734254E+04  0.25717926867E+04  0.12700000000E+03 0.  0.
<mgrwt>
<rscale>  0 0.30003142E+03</rscale>
<asrwt>0</asrwt>
<pdfrwt beam="1">  1        1 0.61648709E+00 0.30003142E+03</pdfrwt>
<pdfrwt beam="2">  1       -1 0.74499511E-03 0.30003142E+03</pdfrwt>
<totfact> 0.35421223E+02</totfact>
</mgrwt>
</event>
<event>
 4    1  0.6376580E-005  0.4498653E+03  0.7818608E-02  0.1027762E+00
         -1   -1    0    0    0  501 -0.00000000000E+00  0.00000000000E+00  0.40105896416E+03  0.40105896419E+03  0.50400000000E-02 0. -1.
          1   -1    0    0  501    0  0.00000000000E+00 -0.00000000000E+00 -0.12615278348E+03  0.12615278358E+03  0.50400000000E-02 0.  1.
    5000001    1    1    2    0    0  0.12659110453E+02 -0.11713922722E+03  0.30559109423E+03  0.35127876181E+03  0.12700000000E+03 0.  0.
   -5000001    1    1    2    0    0 -0.12659110453E+02  0.11713922722E+03 -0.30684913550E+02  0.17593298596E+03  0.12700000000E+03 0.  0.
<mgrwt>
<rscale>  0 0.44986533E+03</rscale>
<asrwt>0</asrwt>
<pdfrwt beam="1">  1        1 0.18021826E-01 0.44986533E+03</pdfrwt>
<pdfrwt beam="2">  1       -1 0.57294138E-01 0.44986533E+03</pdfrwt>
<totfact> 0.93328639E+02</totfact>
</mgrwt>
</event>
<event>
 4    1  0.6376580E-005  0.3082916E+03  0.7818608E-02  0.1081168E+00
         -1   -1    0    0    0  501 -0.00000000000E+00  0.00000000000E+00  0.40212160897E+03  0.40212160900E+03  0.50400000000E-02 0. -1.
          1   -1    0    0  501    0  0.00000000000E+00 -0.00000000000E+00 -0.59088914284E+02  0.59088914499E+02  0.50400000000E-02 0.  1.
    5000001    1    1    2    0    0  0.45863509739E+02  0.59770513604E+02  0.23767958759E+03  0.27981522864E+03  0.12700000000E+03 0.  0.
   -5000001    1    1    2    0    0 -0.45863509739E+02 -0.59770513604E+02  0.10535310709E+03  0.18139529485E+03  0.12700000000E+03 0.  0.
<mgrwt>
<rscale>  0 0.30829161E+03</rscale>
<asrwt>0</asrwt>
<pdfrwt beam="1">  1        1 0.84412733E-02 0.30829161E+03</pdfrwt>
<pdfrwt beam="2">  1       -1 0.57445945E-01 0.30829161E+03</pdfrwt>
<totfact> 0.25558615E+03</totfact>
</mgrwt>
</event>
<event>
 4    1  0.6376580E-005  0.9137138E+03  0.7818608E-02  0.9408599E-01
          1   -1    0    0  501    0  0.00000000000E+00  0.00000000000E+00  0.23387211371E+03  0.23387211376E+03  0.50400000000E-02 0.  1.
         -1   -1    0    0    0  501 -0.00000000000E+00 -0.00000000000E+00 -0.89244606224E+03  0.89244606226E+03  0.50400000000E-02 0. -1.
    5000001    1    1    2    0    0  0.14510284807E+03 -0.36222373358E+03 -0.81740775694E+02  0.41841537268E+03  0.12700000000E+03 0.  0.
   -5000001    1    1    2    0    0 -0.14510284807E+03  0.36222373358E+03 -0.57683317284E+03  0.70790280334E+03  0.12700000000E+03 0.  0.
<mgrwt>
<rscale>  0 0.91371384E+03</rscale>
<asrwt>0</asrwt>
<pdfrwt beam="1">  1        1 0.33410302E-01 0.91371384E+03</pdfrwt>
<pdfrwt beam="2">  1       -1 0.12749229E+00 0.91371384E+03</pdfrwt>
<totfact> 0.71690955E+01</totfact>
</mgrwt>
</event>
<event>
 4    1  0.6376580E-005  0.4512457E+03  0.7818608E-02  0.1027351E+00
          1   -1    0    0  501    0  0.00000000000E+00  0.00000000000E+00  0.25214099589E+03  0.25214099594E+03  0.50400000000E-02 0. -1.
         -1   -1    0    0    0  501 -0.00000000000E+00 -0.00000000000E+00 -0.20189363136E+03  0.20189363143E+03  0.50400000000E-02 0.  1.
    5000001    1    1    2    0    0 -0.18312785644E+03  0.33624179978E+02  0.35689250172E+02  0.22818659001E+03  0.12700000000E+03 0.  0.
   -5000001    1    1    2    0    0  0.18312785644E+03 -0.33624179978E+02  0.14558114357E+02  0.22584803736E+03  0.12700000000E+03 0.  0.
<mgrwt>
<rscale>  0 0.45124566E+03</rscale>
<asrwt>0</asrwt>
<pdfrwt beam="1">  1        1 0.36020143E-01 0.45124566E+03</pdfrwt>
<pdfrwt beam="2">  1       -1 0.28841947E-01 0.45124566E+03</pdfrwt>
<totfact> 0.13194052E+03</totfact>
</mgrwt>
</event>
<event>
 4    1  0.6376580E-005  0.8085665E+03  0.7818608E-02  0.9547700E-01
         -1   -1    0    0    0  501 -0.00000000000E+00  0.00000000000E+00  0.28304281971E+03  0.28304281976E+03  0.50400000000E-02 0. -1.
          1   -1    0    0  501    0  0.00000000000E+00 -0.00000000000E+00 -0.57745664407E+03  0.57745664409E+03  0.50400000000E-02 0.  1.
    5000001    1    1    2    0    0 -0.26162622921E+02  0.28687482894E+03 -0.41714002190E+03  0.52260544217E+03  0.12700000000E+03 0.  0.
   -5000001    1    1    2    0    0  0.26162622921E+02 -0.28687482894E+03  0.12272619755E+03  0.33789402167E+03  0.12700000000E+03 0.  0.
<mgrwt>
<rscale>  0 0.80856653E+03</rscale>
<asrwt>0</asrwt>
<pdfrwt beam="1">  1        1 0.82493806E-01 0.80856653E+03</pdfrwt>
<pdfrwt beam="2">  1       -1 0.40434689E-01 0.80856653E+03</pdfrwt>
<totfact> 0.24232804E+02</totfact>
</mgrwt>
</event>
<event>
 4    1  0.6376580E-005  0.3973274E+03  0.7818608E-02  0.1044709E+00
         -1   -1    0    0    0  501 -0.00000000000E+00  0.00000000000E+00  0.15944342238E+03  0.15944342246E+03  0.50400000000E-02 0. -1.
          1   -1    0    0  501    0  0.00000000000E+00 -0.00000000000E+00 -0.24753148409E+03  0.24753148414E+03  0.50400000000E-02 0.  1.
    5000001    1    1    2    0    0 -0.14284748681E+03  0.27180473010E+02  0.39343705839E+01  0.19310272363E+03  0.12700000000E+03 0.  0.
   -5000001    1    1    2    0    0  0.14284748681E+03 -0.27180473010E+02 -0.92022432292E+02  0.21387218297E+03  0.12700000000E+03 0.  0.
<mgrwt>
<rscale>  0 0.39732741E+03</rscale>
<asrwt>0</asrwt>
<pdfrwt beam="1">  1        1 0.35361640E-01 0.39732741E+03</pdfrwt>
<pdfrwt beam="2">  1       -1 0.22777632E-01 0.39732741E+03</pdfrwt>
<totfact> 0.20101977E+03</totfact>
</mgrwt>
</event>
<event>
 4    1  0.6376580E-005  0.3300182E+03  0.7818608E-02  0.1071129E+00
          1   -1    0    0  501    0  0.00000000000E+00  0.00000000000E+00  0.96901996930E+02  0.96901997061E+02  0.50400000000E-02 0. -1.
         -1   -1    0    0    0  501 -0.00000000000E+00 -0.00000000000E+00 -0.28098487575E+03  0.28098487579E+03  0.50400000000E-02 0.  1.
    5000001    1    1    2    0    0  0.21215555581E+02 -0.90315816718E+02 -0.14920161490E+03  0.21678830327E+03  0.12700000000E+03 0.  0.
   -5000001    1    1    2    0    0 -0.21215555581E+02  0.90315816718E+02 -0.34881263920E+02  0.16109856958E+03  0.12700000000E+03 0.  0.
<mgrwt>
<rscale>  0 0.33001815E+03</rscale>
<asrwt>0</asrwt>
<pdfrwt beam="1">  1        1 0.13843143E-01 0.33001815E+03</pdfrwt>
<pdfrwt beam="2">  1       -1 0.40140696E-01 0.33001815E+03</pdfrwt>
<totfact> 0.25491761E+03</totfact>
</mgrwt>
</event>
<event>
 4    1  0.6376580E-005  0.4241728E+03  0.7818608E-02  0.1035717E+00
         -1   -1    0    0    0  501 -0.00000000000E+00  0.00000000000E+00  0.87128464662E+02  0.87128464808E+02  0.50400000000E-02 0. -1.
          1   -1    0    0  501    0  0.00000000000E+00 -0.00000000000E+00 -0.51625661481E+03  0.51625661484E+03  0.50400000000E-02 0.  1.
    5000001    1    1    2    0    0  0.15929993706E+03  0.19762768420E+02 -0.29356857131E+03  0.35788062678E+03  0.12700000000E+03 0.  0.
   -5000001    1    1    2    0    0 -0.15929993706E+03 -0.19762768420E+02 -0.13555957884E+03  0.24550445287E+03  0.12700000000E+03 0.  0.
<mgrwt>
<rscale>  0 0.42417282E+03</rscale>
<asrwt>0</asrwt>
<pdfrwt beam="1">  1        1 0.73750944E-01 0.42417282E+03</pdfrwt>
<pdfrwt beam="2">  1       -1 0.12446924E-01 0.42417282E+03</pdfrwt>
<totfact> 0.20764808E+03</totfact>
</mgrwt>
</event>
<event>
 4    1  0.6376580E-005  0.6532227E+03  0.7818608E-02  0.9800751E-01
          1   -1    0    0  501    0  0.00000000000E+00  0.00000000000E+00  0.87539066704E+02  0.87539066849E+02  0.50400000000E-02 0. -1.
         -1   -1    0    0    0  501 -0.00000000000E+00 -0.00000000000E+00 -0.12185985819E+04  0.12185985819E+04  0.50400000000E-02 0.  1.
    5000001    1    1    2    0    0 -0.26665718438E+03 -0.10038627017E+03 -0.37205506427E+03  0.48552798897E+03  0.12700000000E+03 0.  0.
   -5000001    1    1    2    0    0  0.26665718438E+03  0.10038627017E+03 -0.75900445094E+03  0.82060965980E+03  0.12700000000E+03 0.  0.
<mgrwt>
<rscale>  0 0.65322273E+03</rscale>
<asrwt>0</asrwt>
<pdfrwt beam="1">  1        1 0.12505582E-01 0.65322273E+03</pdfrwt>
<pdfrwt beam="2">  1       -1 0.17408550E+00 0.65322273E+03</pdfrwt>
<totfact> 0.11616372E+02</totfact>
</mgrwt>
</event>
<event>
 4    1  0.6376580E-005  0.3753660E+03  0.7818608E-02  0.1052660E+00
         -1   -1    0    0    0  501 -0.00000000000E+00  0.00000000000E+00  0.76052495211E+02  0.76052495378E+02  0.50400000000E-02 0.  1.
          1   -1    0    0  501    0  0.00000000000E+00 -0.00000000000E+00 -0.46316579327E+03  0.46316579330E+03  0.50400000000E-02 0. -1.
    5000001    1    1    2    0    0 -0.11834758231E+03 -0.57125569366E+01 -0.29571214527E+03  0.34294818327E+03  0.12700000000E+03 0.  0.
   -5000001    1    1    2    0    0  0.11834758231E+03  0.57125569366E+01 -0.91401152793E+02  0.19627010541E+03  0.12700000000E+03 0.  0.
<mgrwt>
<rscale>  0 0.37536603E+03</rscale>
<asrwt>0</asrwt>
<pdfrwt beam="1">  1        1 0.66166540E-01 0.37536603E+03</pdfrwt>
<pdfrwt beam="2">  1       -1 0.10864642E-01 0.37536603E+03</pdfrwt>
<totfact> 0.29656374E+03</totfact>
</mgrwt>
</event>
<event>
 4    1  0.6376580E-005  0.3428882E+03  0.7818608E-02  0.1065572E+00
         -1   -1    0    0    0  501 -0.00000000000E+00  0.00000000000E+00  0.17621432647E+03  0.17621432654E+03  0.50400000000E-02 0.  1.
          1   -1    0    0  501    0  0.00000000000E+00 -0.00000000000E+00 -0.16680301972E+03  0.16680301980E+03  0.50400000000E-02 0. -1.
    5000001    1    1    2    0    0 -0.31580149082E+02  0.98807506000E+02 -0.45351703825E+02  0.17013525824E+03  0.12700000000E+03 0.  0.
   -5000001    1    1    2    0    0  0.31580149082E+02 -0.98807506000E+02  0.54763010575E+02  0.17288208810E+03  0.12700000000E+03 0.  0.
<mgrwt>
<rscale>  0 0.34288821E+03</rscale>
<asrwt>0</asrwt>
<pdfrwt beam="1">  1        1 0.23829003E-01 0.34288821E+03</pdfrwt>
<pdfrwt beam="2">  1       -1 0.25173475E-01 0.34288821E+03</pdfrwt>
<totfact> 0.28092887E+03</totfact>
</mgrwt>
</event>
<event>
 4    1  0.6376580E-005  0.3421018E+03  0.7818608E-02  0.1065904E+00
          1   -1    0    0  501    0  0.00000000000E+00  0.00000000000E+00  0.72624343463E+03  0.72624343465E+03  0.50400000000E-02 0. -1.
         -1   -1    0    0    0  501 -0.00000000000E+00 -0.00000000000E+00 -0.40287336102E+02  0.40287336417E+02  0.50400000000E-02 0.  1.
    5000001    1    1    2    0    0 -0.40846057160E+02 -0.10428430049E+03  0.28874699297E+03  0.33473488265E+03  0.12700000000E+03 0.  0.
   -5000001    1    1    2    0    0  0.40846057160E+02  0.10428430049E+03  0.39720910555E+03  0.43179588841E+03  0.12700000000E+03 0.  0.
<mgrwt>
<rscale>  0 0.34210182E+03</rscale>
<asrwt>0</asrwt>
<pdfrwt beam="1">  1        1 0.10374906E+00 0.34210182E+03</pdfrwt>
<pdfrwt beam="2">  1       -1 0.57553341E-02 0.34210182E+03</pdfrwt>
<totfact> 0.42515321E+03</totfact>
</mgrwt>
</event>
<event>
 4    1  0.6376580E-005  0.4050212E+03  0.7818608E-02  0.1042055E+00
          1   -1    0    0  501    0  0.00000000000E+00  0.00000000000E+00  0.13540037401E+04  0.13540037401E+04  0.50400000000E-02 0.  1.
         -1   -1    0    0    0  501 -0.00000000000E+00 -0.00000000000E+00 -0.30288347132E+02  0.30288347551E+02  0.50400000000E-02 0. -1.
    5000001    1    1    2    0    0 -0.38669771703E+02 -0.14521674183E+03  0.82570967929E+03  0.84882785523E+03  0.12700000000E+03 0.  0.
   -5000001    1    1    2    0    0  0.38669771703E+02  0.14521674183E+03  0.49800571368E+03  0.53546423243E+03  0.12700000000E+03 0.  0.
<mgrwt>
<rscale>  0 0.40502116E+03</rscale>
<asrwt>0</asrwt>
<pdfrwt beam="1">  1        1 0.19342911E+00 0.40502116E+03</pdfrwt>
<pdfrwt beam="2">  1       -1 0.43269067E-02 0.40502116E+03</pdfrwt>
<totfact> 0.22850105E+03</totfact>
</mgrwt>
</event>
<event>
 4    1  0.6376580E-005  0.3226960E+03  0.7818608E-02  0.1074415E+00
          1   -1    0    0  501    0  0.00000000000E+00  0.00000000000E+00  0.54227620735E+02  0.54227620969E+02  0.50400000000E-02 0.  1.
         -1   -1    0    0    0  501 -0.00000000000E+00 -0.00000000000E+00 -0.48007236950E+03  0.48007236953E+03  0.50400000000E-02 0. -1.
    5000001    1    1    2    0    0 -0.99742402383E+01  0.96744015912E+02 -0.24786167154E+03  0.29499711575E+03  0.12700000000E+03 0.  0.
   -5000001    1    1    2    0    0  0.99742402383E+01 -0.96744015912E+02 -0.17798307723E+03  0.23930287475E+03  0.12700000000E+03 0.  0.
<mgrwt>
<rscale>  0 0.32269603E+03</rscale>
<asrwt>0</asrwt>
<pdfrwt beam="1">  1        1 0.77468033E-02 0.32269603E+03</pdfrwt>
<pdfrwt beam="2">  1       -1 0.68581765E-01 0.32269603E+03</pdfrwt>
<totfact> 0.20350181E+03</totfact>
</mgrwt>
</event>
<event>
 4    1  0.6376580E-005  0.5710881E+03  0.7818608E-02  0.9967274E-01
          1   -1    0    0  501    0  0.00000000000E+00  0.00000000000E+00  0.23127520109E+03  0.23127520115E+03  0.50400000000E-02 0.  1.
         -1   -1    0    0    0  501 -0.00000000000E+00 -0.00000000000E+00 -0.35254716947E+03  0.35254716951E+03  0.50400000000E-02 0. -1.
    5000001    1    1    2    0    0  0.22514159997E+02  0.25078314310E+03 -0.14833542867E+02  0.28239707197E+03  0.12700000000E+03 0.  0.
   -5000001    1    1    2    0    0 -0.22514159997E+02 -0.25078314310E+03 -0.10643842551E+03  0.30142529869E+03  0.12700000000E+03 0.  0.
<mgrwt>
<rscale>  0 0.57108815E+03</rscale>
<asrwt>0</asrwt>
<pdfrwt beam="1">  1        1 0.33039315E-01 0.57108815E+03</pdfrwt>
<pdfrwt beam="2">  1       -1 0.50363881E-01 0.57108815E+03</pdfrwt>
<totfact> 0.54190019E+02</totfact>
</mgrwt>
</event>
<event>
 4    1  0.6376580E-005  0.2843320E+03  0.7818608E-02  0.1093346E+00
          1   -1    0    0  501    0  0.00000000000E+00  0.00000000000E+00  0.15454781944E+03  0.15454781952E+03  0.50400000000E-02 0.  1.
         -1   -1    0    0    0  501 -0.00000000000E+00 -0.00000000000E+00 -0.13077613010E+03  0.13077613019E+03  0.50400000000E-02 0. -1.
    5000001    1    1    2    0    0  0.24636690744E+01  0.63352784430E+02  0.39512483487E+01  0.14200090607E+03  0.12700000000E+03 0.  0.
   -5000001    1    1    2    0    0 -0.24636690744E+01 -0.63352784430E+02  0.19820440996E+02  0.14332304365E+03  0.12700000000E+03 0.  0.
<mgrwt>
<rscale>  0 0.28433196E+03</rscale>
<asrwt>0</asrwt>
<pdfrwt beam="1">  1        1 0.22078260E-01 0.28433196E+03</pdfrwt>
<pdfrwt beam="2">  1       -1 0.18682304E-01 0.28433196E+03</pdfrwt>
<totfact> 0.50355005E+03</totfact>
</mgrwt>
</event>
<event>
 4    1  0.6376580E-005  0.2949951E+03  0.7818608E-02  0.1087770E+00
          1   -1    0    0  501    0  0.00000000000E+00  0.00000000000E+00  0.98349608079E+02  0.98349608208E+02  0.50400000000E-02 0.  1.
         -1   -1    0    0    0  501 -0.00000000000E+00 -0.00000000000E+00 -0.22120596771E+03  0.22120596776E+03  0.50400000000E-02 0. -1.
    5000001    1    1    2    0    0 -0.73537769396E+02  0.93272941144E+01 -0.73860573416E+02  0.16455754692E+03  0.12700000000E+03 0.  0.
   -5000001    1    1    2    0    0  0.73537769396E+02 -0.93272941144E+01 -0.48995786212E+02  0.15499802905E+03  0.12700000000E+03 0.  0.
<mgrwt>
<rscale>  0 0.29499505E+03</rscale>
<asrwt>0</asrwt>
<pdfrwt beam="1">  1        1 0.14049944E-01 0.29499505E+03</pdfrwt>
<pdfrwt beam="2">  1       -1 0.31600853E-01 0.29499505E+03</pdfrwt>
<totfact> 0.37879465E+03</totfact>
</mgrwt>
</event>
<event>
 4    1  0.6376580E-005  0.5656604E+03  0.7818608E-02  0.9979328E-01
         -1   -1    0    0    0  501 -0.00000000000E+00  0.00000000000E+00  0.10930234526E+03  0.10930234537E+03  0.50400000000E-02 0. -1.
          1   -1    0    0  501    0  0.00000000000E+00 -0.00000000000E+00 -0.73185003331E+03  0.73185003332E+03  0.50400000000E-02 0.  1.
    5000001    1    1    2    0    0 -0.15088736722E+03 -0.20075739107E+03 -0.26938828809E+03  0.38957615099E+03  0.12700000000E+03 0.  0.
   -5000001    1    1    2    0    0  0.15088736722E+03  0.20075739107E+03 -0.35315939996E+03  0.45157622771E+03  0.12700000000E+03 0.  0.
<mgrwt>
<rscale>  0 0.56566041E+03</rscale>
<asrwt>0</asrwt>
<pdfrwt beam="1">  1        1 0.10455000E+00 0.56566041E+03</pdfrwt>
<pdfrwt beam="2">  1       -1 0.15614621E-01 0.56566041E+03</pdfrwt>
<totfact> 0.88395455E+02</totfact>
</mgrwt>
</event>
<event>
 4    1  0.6376580E-005  0.5207106E+03  0.7818608E-02  0.1008510E+00
          1   -1    0    0  501    0  0.00000000000E+00  0.00000000000E+00  0.42008743845E+03  0.42008743848E+03  0.50400000000E-02 0.  1.
         -1   -1    0    0    0  501 -0.00000000000E+00 -0.00000000000E+00 -0.16135900843E+03  0.16135900851E+03  0.50400000000E-02 0. -1.
    5000001    1    1    2    0    0  0.64191779371E+02  0.20639044849E+03  0.50894586040E+02  0.25580629518E+03  0.12700000000E+03 0.  0.
   -5000001    1    1    2    0    0 -0.64191779371E+02 -0.20639044849E+03  0.20783384398E+03  0.32564015181E+03  0.12700000000E+03 0.  0.
<mgrwt>
<rscale>  0 0.52071064E+03</rscale>
<asrwt>0</asrwt>
<pdfrwt beam="1">  1        1 0.60012490E-01 0.52071064E+03</pdfrwt>
<pdfrwt beam="2">  1       -1 0.23051287E-01 0.52071064E+03</pdfrwt>
<totfact> 0.10007419E+03</totfact>
</mgrwt>
</event>
<event>
 4    1  0.6376580E-005  0.6071646E+03  0.7818608E-02  0.9890652E-01
          1   -1    0    0  501    0  0.00000000000E+00  0.00000000000E+00  0.10974868705E+03  0.10974868717E+03  0.50400000000E-02 0.  1.
         -1   -1    0    0    0  501 -0.00000000000E+00 -0.00000000000E+00 -0.83975687150E+03  0.83975687152E+03  0.50400000000E-02 0. -1.
    5000001    1    1    2    0    0 -0.14729532233E+02 -0.25870708709E+03 -0.51242740522E+03  0.58809621802E+03  0.12700000000E+03 0.  0.
   -5000001    1    1    2    0    0  0.14729532233E+02  0.25870708709E+03 -0.21758077923E+03  0.36140934067E+03  0.12700000000E+03 0.  0.
<mgrwt>
<rscale>  0 0.60716460E+03</rscale>
<asrwt>0</asrwt>
<pdfrwt beam="1">  1        1 0.15678384E-01 0.60716460E+03</pdfrwt>
<pdfrwt beam="2">  1       -1 0.11996526E+00 0.60716460E+03</pdfrwt>
<totfact> 0.22925969E+02</totfact>
</mgrwt>
</event>
<event>
 4    1  0.6376580E-005  0.2147578E+04  0.7818608E-02  0.8540570E-01
         -1   -1    0    0    0  501 -0.00000000000E+00  0.00000000000E+00  0.96857578361E+03  0.96857578362E+03  0.50400000000E-02 0. -1.
          1   -1    0    0  501    0  0.00000000000E+00 -0.00000000000E+00 -0.11904310046E+04  0.11904310046E+04  0.50400000000E-02 0.  1.
    5000001    1    1    2    0    0 -0.83823217243E+03  0.56568300300E+03 -0.45075493886E+03  0.11144233709E+04  0.12700000000E+03 0.  0.
   -5000001    1    1    2    0    0  0.83823217243E+03 -0.56568300300E+03  0.22889971790E+03  0.10445834173E+04  0.12700000000E+03 0.  0.
<mgrwt>
<rscale>  0 0.21475778E+04</rscale>
<asrwt>0</asrwt>
<pdfrwt beam="1">  1        1 0.17006157E+00 0.21475778E+04</pdfrwt>
<pdfrwt beam="2">  1       -1 0.13836797E+00 0.21475778E+04</pdfrwt>
<totfact> 0.49980296E+00</totfact>
</mgrwt>
</event>
<event>
 4    1  0.6376580E-005  0.3395863E+03  0.7818608E-02  0.1066972E+00
         -1   -1    0    0    0  501 -0.00000000000E+00  0.00000000000E+00  0.13777605625E+04  0.13777605625E+04  0.50400000000E-02 0. -1.
          1   -1    0    0  501    0  0.00000000000E+00 -0.00000000000E+00 -0.20925058722E+02  0.20925059329E+02  0.50400000000E-02 0.  1.
    5000001    1    1    2    0    0 -0.10699317476E+03 -0.13620207381E+02  0.54383520517E+03  0.56878711296E+03  0.12700000000E+03 0.  0.
   -5000001    1    1    2    0    0  0.10699317476E+03  0.13620207381E+02  0.81300029863E+03  0.82989850889E+03  0.12700000000E+03 0.  0.
<mgrwt>
<rscale>  0 0.33958634E+03</rscale>
<asrwt>0</asrwt>
<pdfrwt beam="1">  1        1 0.29892938E-02 0.33958634E+03</pdfrwt>
<pdfrwt beam="2">  1       -1 0.19682296E+00 0.33958634E+03</pdfrwt>
<totfact> 0.60148550E+02</totfact>
</mgrwt>
</event>
<event>
 4    1  0.6376580E-005  0.5964075E+03  0.7818608E-02  0.9912888E-01
          1   -1    0    0  501    0  0.00000000000E+00  0.00000000000E+00  0.92951218146E+03  0.92951218148E+03  0.50400000000E-02 0.  1.
         -1   -1    0    0    0  501 -0.00000000000E+00 -0.00000000000E+00 -0.95668964517E+02  0.95668964650E+02  0.50400000000E-02 0. -1.
    5000001    1    1    2    0    0 -0.77279138725E+02 -0.23092380575E+03  0.61663255839E+03  0.67502783751E+03  0.12700000000E+03 0.  0.
   -5000001    1    1    2    0    0  0.77279138725E+02  0.23092380575E+03  0.21721065856E+03  0.35015330862E+03  0.12700000000E+03 0.  0.
<mgrwt>
<rscale>  0 0.59640747E+03</rscale>
<asrwt>0</asrwt>
<pdfrwt beam="1">  1        1 0.13278745E+00 0.59640747E+03</pdfrwt>
<pdfrwt beam="2">  1       -1 0.13666996E-01 0.59640747E+03</pdfrwt>
<totfact> 0.75496456E+02</totfact>
</mgrwt>
</event>
<event>
 4    1  0.6376580E-005  0.3220094E+03  0.7818608E-02  0.1074728E+00
          1   -1    0    0  501    0  0.00000000000E+00  0.00000000000E+00  0.50032130154E+02  0.50032130408E+02  0.50400000000E-02 0. -1.
         -1   -1    0    0    0  501 -0.00000000000E+00 -0.00000000000E+00 -0.51811731099E+03  0.51811731101E+03  0.50400000000E-02 0.  1.
    5000001    1    1    2    0    0 -0.52879244956E+02  0.78796862128E+02 -0.28358240122E+03  0.32488942474E+03  0.12700000000E+03 0.  0.
   -5000001    1    1    2    0    0  0.52879244956E+02 -0.78796862128E+02 -0.18450277962E+03  0.24326001668E+03  0.12700000000E+03 0.  0.
<mgrwt>
<rscale>  0 0.32200940E+03</rscale>
<asrwt>0</asrwt>
<pdfrwt beam="1">  1        1 0.71474475E-02 0.32200940E+03</pdfrwt>
<pdfrwt beam="2">  1       -1 0.74016756E-01 0.32200940E+03</pdfrwt>
<totfact> 0.19485716E+03</totfact>
</mgrwt>
</event>
<event>
 4    1  0.6376580E-005  0.3281213E+03  0.7818608E-02  0.1071971E+00
         -1   -1    0    0    0  501 -0.00000000000E+00  0.00000000000E+00  0.26236438728E+02  0.26236439213E+02  0.50400000000E-02 0. -1.
          1   -1    0    0  501    0  0.00000000000E+00 -0.00000000000E+00 -0.10258977591E+04  0.10258977591E+04  0.50400000000E-02 0.  1.
    5000001    1    1    2    0    0 -0.78088702297E+02  0.24980051651E+02 -0.29538876471E+03  0.33182129335E+03  0.12700000000E+03 0.  0.
   -5000001    1    1    2    0    0  0.78088702297E+02 -0.24980051651E+02 -0.70427255562E+03  0.72031290493E+03  0.12700000000E+03 0.  0.
<mgrwt>
<rscale>  0 0.32812134E+03</rscale>
<asrwt>0</asrwt>
<pdfrwt beam="1">  1        1 0.14655680E+00 0.32812134E+03</pdfrwt>
<pdfrwt beam="2">  1       -1 0.37480634E-02 0.32812134E+03</pdfrwt>
<totfact> 0.47245554E+03</totfact>
</mgrwt>
</event>
<event>
 4    1  0.6376580E-005  0.4138505E+03  0.7818608E-02  0.1039087E+00
         -1   -1    0    0    0  501 -0.00000000000E+00  0.00000000000E+00  0.13375300264E+03  0.13375300273E+03  0.50400000000E-02 0. -1.
          1   -1    0    0  501    0  0.00000000000E+00 -0.00000000000E+00 -0.32012780537E+03  0.32012780541E+03  0.50400000000E-02 0.  1.
    5000001    1    1    2    0    0  0.12134791913E+03 -0.10853607270E+03 -0.10805031912E+03  0.23304348954E+03  0.12700000000E+03 0.  0.
   -5000001    1    1    2    0    0 -0.12134791913E+03  0.10853607270E+03 -0.78324483617E+02  0.22083731861E+03  0.12700000000E+03 0.  0.
<mgrwt>
<rscale>  0 0.41385048E+03</rscale>
<asrwt>0</asrwt>
<pdfrwt beam="1">  1        1 0.45732544E-01 0.41385048E+03</pdfrwt>
<pdfrwt beam="2">  1       -1 0.19107572E-01 0.41385048E+03</pdfrwt>
<totfact> 0.19375947E+03</totfact>
</mgrwt>
</event>
<event>
 4    1  0.6376580E-005  0.2824232E+03  0.7818608E-02  0.1094373E+00
          1   -1    0    0  501    0  0.00000000000E+00  0.00000000000E+00  0.26002274624E+04  0.26002274624E+04  0.50400000000E-02 0.  1.
         -1   -1    0    0    0  501 -0.00000000000E+00 -0.00000000000E+00 -0.76688325887E+01  0.76688342449E+01  0.50400000000E-02 0. -1.
    5000001    1    1    2    0    0 -0.49820429286E+02 -0.99986739145E+01  0.16200838924E+04  0.16258483530E+04  0.12700000000E+03 0.  0.
   -5000001    1    1    2    0    0  0.49820429286E+02  0.99986739145E+01  0.97247473743E+03  0.98204794363E+03  0.12700000000E+03 0.  0.
<mgrwt>
<rscale>  0 0.28242317E+03</rscale>
<asrwt>0</asrwt>
<pdfrwt beam="1">  1        1 0.37146035E+00 0.28242317E+03</pdfrwt>
<pdfrwt beam="2">  1       -1 0.10955498E-02 0.28242317E+03</pdfrwt>
<totfact> 0.29777750E+03</totfact>
</mgrwt>
</event>
<event>
 4    1  0.6376580E-005  0.5561993E+03  0.7818608E-02  0.1000069E+00
         -1   -1    0    0    0  501 -0.00000000000E+00  0.00000000000E+00  0.97660999325E+03  0.97660999326E+03  0.50400000000E-02 0. -1.
          1   -1    0    0  501    0  0.00000000000E+00 -0.00000000000E+00 -0.79191697058E+02  0.79191697218E+02  0.50400000000E-02 0.  1.
    5000001    1    1    2    0    0  0.22918929479E+03  0.81941109102E+02  0.53292625383E+03  0.59948433693E+03  0.12700000000E+03 0.  0.
   -5000001    1    1    2    0    0 -0.22918929479E+03 -0.81941109102E+02  0.36449204236E+03  0.45631735355E+03  0.12700000000E+03 0.  0.
<mgrwt>
<rscale>  0 0.55619926E+03</rscale>
<asrwt>0</asrwt>
<pdfrwt beam="1">  1        1 0.11313100E-01 0.55619926E+03</pdfrwt>
<pdfrwt beam="2">  1       -1 0.13951571E+00 0.55619926E+03</pdfrwt>
<totfact> 0.24478931E+02</totfact>
</mgrwt>
</event>
<event>
 4    1  0.6376580E-005  0.3907817E+03  0.7818608E-02  0.1047019E+00
          1   -1    0    0  501    0  0.00000000000E+00  0.00000000000E+00  0.49288352146E+02  0.49288352404E+02  0.50400000000E-02 0. -1.
         -1   -1    0    0    0  501 -0.00000000000E+00 -0.00000000000E+00 -0.77457614011E+03  0.77457614013E+03  0.50400000000E-02 0.  1.
    5000001    1    1    2    0    0 -0.10195588392E+03 -0.10458684332E+03 -0.41902410740E+03  0.46156647695E+03  0.12700000000E+03 0.  0.
   -5000001    1    1    2    0    0  0.10195588392E+03  0.10458684332E+03 -0.30626368057E+03  0.36229801558E+03  0.12700000000E+03 0.  0.
<mgrwt>
<rscale>  0 0.39078169E+03</rscale>
<asrwt>0</asrwt>
<pdfrwt beam="1">  1        1 0.70411937E-02 0.39078169E+03</pdfrwt>
<pdfrwt beam="2">  1       -1 0.11065373E+00 0.39078169E+03</pdfrwt>
<totfact> 0.83162022E+02</totfact>
</mgrwt>
</event>
<event>
 4    1  0.6376580E-005  0.5387234E+03  0.7818608E-02  0.1004138E+00
          1   -1    0    0  501    0  0.00000000000E+00  0.00000000000E+00  0.19472475169E+04  0.19472475169E+04  0.50400000000E-02 0.  1.
         -1   -1    0    0    0  501 -0.00000000000E+00 -0.00000000000E+00 -0.37260657941E+02  0.37260658282E+02  0.50400000000E-02 0. -1.
    5000001    1    1    2    0    0  0.65900627504E+02 -0.44145661887E+02  0.13017656733E+03  0.19841035973E+03  0.12700000000E+03 0.  0.
   -5000001    1    1    2    0    0 -0.65900627504E+02  0.44145661887E+02  0.17798102916E+04  0.17860978154E+04  0.12700000000E+03 0.  0.
<mgrwt>
<rscale>  0 0.53872339E+03</rscale>
<asrwt>0</asrwt>
<pdfrwt beam="1">  1        1 0.27817832E+00 0.53872339E+03</pdfrwt>
<pdfrwt beam="2">  1       -1 0.53229491E-02 0.53872339E+03</pdfrwt>
<totfact> 0.70387381E+02</totfact>
</mgrwt>
</event>
<event>
 4    1  0.6376580E-005  0.5492491E+03  0.7818608E-02  0.1001668E+00
          1   -1    0    0  501    0  0.00000000000E+00  0.00000000000E+00  0.52142464822E+03  0.52142464825E+03  0.50400000000E-02 0.  1.
         -1   -1    0    0    0  501 -0.00000000000E+00 -0.00000000000E+00 -0.14463957172E+03  0.14463957181E+03  0.50400000000E-02 0. -1.
    5000001    1    1    2    0    0 -0.16876269292E+03  0.10921775289E+03  0.35502166205E+03  0.42729234090E+03  0.12700000000E+03 0.  0.
   -5000001    1    1    2    0    0  0.16876269292E+03 -0.10921775289E+03  0.21763414454E+02  0.23877187916E+03  0.12700000000E+03 0.  0.
<mgrwt>
<rscale>  0 0.54924908E+03</rscale>
<asrwt>0</asrwt>
<pdfrwt beam="1">  1        1 0.74489236E-01 0.54924908E+03</pdfrwt>
<pdfrwt beam="2">  1       -1 0.20662796E-01 0.54924908E+03</pdfrwt>
<totfact> 0.90106037E+02</totfact>
</mgrwt>
</event>
<event>
 4    1  0.6376580E-005  0.2710622E+03  0.7818608E-02  0.1100673E+00
         -1   -1    0    0    0  501 -0.00000000000E+00  0.00000000000E+00  0.17023123086E+03  0.17023123093E+03  0.50400000000E-02 0. -1.
          1   -1    0    0  501    0  0.00000000000E+00 -0.00000000000E+00 -0.10790425982E+03  0.10790425994E+03  0.50400000000E-02 0.  1.
    5000001    1    1    2    0    0  0.27161365806E+02 -0.31244217031E+02  0.76362677216E+01  0.13379556598E+03  0.12700000000E+03 0.  0.
   -5000001    1    1    2    0    0 -0.27161365806E+02  0.31244217031E+02  0.54690703309E+02  0.14433992490E+03  0.12700000000E+03 0.  0.
<mgrwt>
<rscale>  0 0.27106217E+03</rscale>
<asrwt>0</asrwt>
<pdfrwt beam="1">  1        1 0.15414894E-01 0.27106217E+03</pdfrwt>
<pdfrwt beam="2">  1       -1 0.24318747E-01 0.27106217E+03</pdfrwt>
<totfact> 0.52009685E+03</totfact>
</mgrwt>
</event>
<event>
 4    1  0.6376580E-005  0.3392761E+03  0.7818608E-02  0.1067105E+00
          1   -1    0    0  501    0  0.00000000000E+00  0.00000000000E+00  0.11927719705E+03  0.11927719716E+03  0.50400000000E-02 0.  1.
         -1   -1    0    0    0  501 -0.00000000000E+00 -0.00000000000E+00 -0.24126217557E+03  0.24126217562E+03  0.50400000000E-02 0. -1.
    5000001    1    1    2    0    0 -0.98576061282E+02 -0.52231996196E+02 -0.76120360498E+02  0.18538805400E+03  0.12700000000E+03 0.  0.
   -5000001    1    1    2    0    0  0.98576061282E+02  0.52231996196E+02 -0.45864618019E+02  0.17515131878E+03  0.12700000000E+03 0.  0.
<mgrwt>
<rscale>  0 0.33927615E+03</rscale>
<asrwt>0</asrwt>
<pdfrwt beam="1">  1        1 0.17039600E-01 0.33927615E+03</pdfrwt>
<pdfrwt beam="2">  1       -1 0.34466025E-01 0.33927615E+03</pdfrwt>
<totfact> 0.25376672E+03</totfact>
</mgrwt>
</event>
<event>
 4    1  0.6376580E-005  0.5336489E+03  0.7818608E-02  0.1005351E+00
          1   -1    0    0  501    0  0.00000000000E+00  0.00000000000E+00  0.19544816481E+03  0.19544816488E+03  0.50400000000E-02 0. -1.
         -1   -1    0    0    0  501 -0.00000000000E+00 -0.00000000000E+00 -0.36426688041E+03  0.36426688044E+03  0.50400000000E-02 0.  1.
    5000001    1    1    2    0    0  0.14705857510E+03  0.10752946606E+03 -0.23954443938E+03  0.32664866297E+03  0.12700000000E+03 0.  0.
   -5000001    1    1    2    0    0 -0.14705857510E+03 -0.10752946606E+03  0.70725723780E+02  0.23306638236E+03  0.12700000000E+03 0.  0.
<mgrwt>
<rscale>  0 0.53364892E+03</rscale>
<asrwt>0</asrwt>
<pdfrwt beam="1">  1        1 0.27921166E-01 0.53364892E+03</pdfrwt>
<pdfrwt beam="2">  1       -1 0.52038126E-01 0.53364892E+03</pdfrwt>
<totfact> 0.63331320E+02</totfact>
</mgrwt>
</event>
<event>
 4    1  0.6376580E-005  0.2709523E+03  0.7818608E-02  0.1100736E+00
         -1   -1    0    0    0  501 -0.00000000000E+00  0.00000000000E+00  0.10285948383E+03  0.10285948395E+03  0.50400000000E-02 0. -1.
          1   -1    0    0  501    0  0.00000000000E+00 -0.00000000000E+00 -0.17843556977E+03  0.17843556984E+03  0.50400000000E-02 0.  1.
    5000001    1    1    2    0    0 -0.26380413970E+02 -0.36346292141E+02 -0.22822105160E+02  0.13662659945E+03  0.12700000000E+03 0.  0.
   -5000001    1    1    2    0    0  0.26380413970E+02  0.36346292141E+02 -0.52753980774E+02  0.14466845434E+03  0.12700000000E+03 0.  0.
<mgrwt>
<rscale>  0 0.27095233E+03</rscale>
<asrwt>0</asrwt>
<pdfrwt beam="1">  1        1 0.25490796E-01 0.27095233E+03</pdfrwt>
<pdfrwt beam="2">  1       -1 0.14694212E-01 0.27095233E+03</pdfrwt>
<totfact> 0.61436472E+03</totfact>
</mgrwt>
</event>
<event>
 4    1  0.6376580E-005  0.2736530E+03  0.7818608E-02  0.1099207E+00
         -1   -1    0    0    0  501 -0.00000000000E+00  0.00000000000E+00  0.37793812618E+03  0.37793812622E+03  0.50400000000E-02 0.  1.
          1   -1    0    0  501    0  0.00000000000E+00 -0.00000000000E+00 -0.49535854672E+02  0.49535854928E+02  0.50400000000E-02 0. -1.
    5000001    1    1    2    0    0  0.48630334766E+02 -0.15078929283E+02  0.16349457515E+03  0.21319418301E+03  0.12700000000E+03 0.  0.
   -5000001    1    1    2    0    0 -0.48630334766E+02  0.15078929283E+02  0.16490769636E+03  0.21427979813E+03  0.12700000000E+03 0.  0.
<mgrwt>
<rscale>  0 0.27365298E+03</rscale>
<asrwt>0</asrwt>
<pdfrwt beam="1">  1        1 0.70765505E-02 0.27365298E+03</pdfrwt>
<pdfrwt beam="2">  1       -1 0.53991162E-01 0.27365298E+03</pdfrwt>
<totfact> 0.36448996E+03</totfact>
</mgrwt>
</event>
<event>
 4    1  0.6376580E-005  0.4013639E+03  0.7818608E-02  0.1043308E+00
          1   -1    0    0  501    0  0.00000000000E+00  0.00000000000E+00  0.12434041362E+03  0.12434041372E+03  0.50400000000E-02 0.  1.
         -1   -1    0    0    0  501 -0.00000000000E+00 -0.00000000000E+00 -0.32389497861E+03  0.32389497865E+03  0.50400000000E-02 0. -1.
    5000001    1    1    2    0    0  0.11158323275E+03  0.73495916659E+02 -0.11193496138E+02  0.18468016123E+03  0.12700000000E+03 0.  0.
   -5000001    1    1    2    0    0 -0.11158323275E+03 -0.73495916659E+02 -0.18836106886E+03  0.26355523113E+03  0.12700000000E+03 0.  0.
<mgrwt>
<rscale>  0 0.40136385E+03</rscale>
<asrwt>0</asrwt>
<pdfrwt beam="1">  1        1 0.17762916E-01 0.40136385E+03</pdfrwt>
<pdfrwt beam="2">  1       -1 0.46270711E-01 0.40136385E+03</pdfrwt>
<totfact> 0.14215441E+03</totfact>
</mgrwt>
</event>
<event>
 4    1  0.6376580E-005  0.6048572E+03  0.7818608E-02  0.9895380E-01
         -1   -1    0    0    0  501 -0.00000000000E+00  0.00000000000E+00  0.86337731926E+02  0.86337732073E+02  0.50400000000E-02 0. -1.
          1   -1    0    0  501    0  0.00000000000E+00 -0.00000000000E+00 -0.10593635597E+04  0.10593635597E+04  0.50400000000E-02 0.  1.
    5000001    1    1    2    0    0 -0.11545650831E+03 -0.22650733463E+03 -0.68243136305E+03  0.73924105894E+03  0.12700000000E+03 0.  0.
   -5000001    1    1    2    0    0  0.11545650831E+03  0.22650733463E+03 -0.29059446471E+03  0.40646023283E+03  0.12700000000E+03 0.  0.
<mgrwt>
<rscale>  0 0.60485716E+03</rscale>
<asrwt>0</asrwt>
<pdfrwt beam="1">  1        1 0.15133764E+00 0.60485716E+03</pdfrwt>
<pdfrwt beam="2">  1       -1 0.12333962E-01 0.60485716E+03</pdfrwt>
<totfact> 0.71265384E+02</totfact>
</mgrwt>
</event>
<event>
 4    1  0.6376580E-005  0.3235935E+03  0.7818608E-02  0.1074007E+00
         -1   -1    0    0    0  501 -0.00000000000E+00  0.00000000000E+00  0.73585502568E+02  0.73585502741E+02  0.50400000000E-02 0. -1.
          1   -1    0    0  501    0  0.00000000000E+00 -0.00000000000E+00 -0.35575199569E+03  0.35575199572E+03  0.50400000000E-02 0.  1.
    5000001    1    1    2    0    0  0.98671475481E+02 -0.11926813829E+02 -0.12373940713E+03  0.20327014006E+03  0.12700000000E+03 0.  0.
   -5000001    1    1    2    0    0 -0.98671475481E+02  0.11926813829E+02 -0.15842708599E+03  0.22606735841E+03  0.12700000000E+03 0.  0.
<mgrwt>
<rscale>  0 0.32359351E+03</rscale>
<asrwt>0</asrwt>
<pdfrwt beam="1">  1        1 0.50821713E-01 0.32359351E+03</pdfrwt>
<pdfrwt beam="2">  1       -1 0.10512215E-01 0.32359351E+03</pdfrwt>
<totfact> 0.43723028E+03</totfact>
</mgrwt>
</event>
<event>
 4    1  0.6376580E-005  0.3144442E+03  0.7818608E-02  0.1078235E+00
          1   -1    0    0  501    0  0.00000000000E+00  0.00000000000E+00  0.97207831731E+03  0.97207831732E+03  0.50400000000E-02 0.  1.
         -1   -1    0    0    0  501 -0.00000000000E+00 -0.00000000000E+00 -0.25428807800E+02  0.25428808299E+02  0.50400000000E-02 0. -1.
    5000001    1    1    2    0    0  0.45867009451E+02 -0.76813207810E+02  0.39654877280E+03  0.42589198239E+03  0.12700000000E+03 0.  0.
   -5000001    1    1    2    0    0 -0.45867009451E+02  0.76813207810E+02  0.55010073670E+03  0.57161514323E+03  0.12700000000E+03 0.  0.
<mgrwt>
<rscale>  0 0.31444423E+03</rscale>
<asrwt>0</asrwt>
<pdfrwt beam="1">  1        1 0.13886832E+00 0.31444423E+03</pdfrwt>
<pdfrwt beam="2">  1       -1 0.36326871E-02 0.31444423E+03</pdfrwt>
<totfact> 0.54103445E+03</totfact>
</mgrwt>
</event>
<event>
 4    1  0.6376580E-005  0.4275436E+03  0.7818608E-02  0.1034639E+00
         -1   -1    0    0    0  501 -0.00000000000E+00  0.00000000000E+00  0.29817897035E+02  0.29817897461E+02  0.50400000000E-02 0. -1.
          1   -1    0    0  501    0  0.00000000000E+00 -0.00000000000E+00 -0.15325821138E+04  0.15325821139E+04  0.50400000000E-02 0.  1.
    5000001    1    1    2    0    0  0.10595493955E+03  0.13409472838E+03 -0.82086604153E+03  0.84803178215E+03  0.12700000000E+03 0.  0.
   -5000001    1    1    2    0    0 -0.10595493955E+03 -0.13409472838E+03 -0.68189817528E+03  0.71436822917E+03  0.12700000000E+03 0.  0.
<mgrwt>
<rscale>  0 0.42754357E+03</rscale>
<asrwt>0</asrwt>
<pdfrwt beam="1">  1        1 0.21894025E+00 0.42754357E+03</pdfrwt>
<pdfrwt beam="2">  1       -1 0.42597006E-02 0.42754357E+03</pdfrwt>
<totfact> 0.17975285E+03</totfact>
</mgrwt>
</event>
<event>
 4    1  0.6376580E-005  0.4517497E+03  0.7818608E-02  0.1027202E+00
          1   -1    0    0  501    0  0.00000000000E+00  0.00000000000E+00  0.13483315871E+04  0.13483315871E+04  0.50400000000E-02 0.  1.
         -1   -1    0    0    0  501 -0.00000000000E+00 -0.00000000000E+00 -0.37838945664E+02  0.37838946000E+02  0.50400000000E-02 0. -1.
    5000001    1    1    2    0    0 -0.66519579206E+02 -0.72253311203E+02  0.11427825790E+04  0.11540045140E+04  0.12700000000E+03 0.  0.
   -5000001    1    1    2    0    0  0.66519579206E+02  0.72253311203E+02  0.16771006241E+03  0.23216601912E+03  0.12700000000E+03 0.  0.
<mgrwt>
<rscale>  0 0.45174969E+03</rscale>
<asrwt>0</asrwt>
<pdfrwt beam="1">  1        1 0.19261879E+00 0.45174969E+03</pdfrwt>
<pdfrwt beam="2">  1       -1 0.54055639E-02 0.45174969E+03</pdfrwt>
<totfact> 0.16432253E+03</totfact>
</mgrwt>
</event>
<event>
 4    1  0.6376580E-005  0.4385589E+03  0.7818608E-02  0.1031190E+00
          1   -1    0    0  501    0  0.00000000000E+00  0.00000000000E+00  0.64153808352E+03  0.64153808354E+03  0.50400000000E-02 0. -1.
         -1   -1    0    0    0  501 -0.00000000000E+00 -0.00000000000E+00 -0.74950308625E+02  0.74950308794E+02  0.50400000000E-02 0.  1.
    5000001    1    1    2    0    0  0.21561108414E+02 -0.10326668651E+03  0.47528601646E+02  0.17180470865E+03  0.12700000000E+03 0.  0.
   -5000001    1    1    2    0    0 -0.21561108414E+02  0.10326668651E+03  0.51905917325E+03  0.54468368369E+03  0.12700000000E+03 0.  0.
<mgrwt>
<rscale>  0 0.43855890E+03</rscale>
<asrwt>0</asrwt>
<pdfrwt beam="1">  1        1 0.91648298E-01 0.43855890E+03</pdfrwt>
<pdfrwt beam="2">  1       -1 0.10707187E-01 0.43855890E+03</pdfrwt>
<totfact> 0.19547747E+03</totfact>
</mgrwt>
</event>
<event>
 4    1  0.6376580E-005  0.3295768E+03  0.7818608E-02  0.1071324E+00
         -1   -1    0    0    0  501 -0.00000000000E+00  0.00000000000E+00  0.21344482060E+03  0.21344482066E+03  0.50400000000E-02 0. -1.
          1   -1    0    0  501    0  0.00000000000E+00 -0.00000000000E+00 -0.12722356123E+03  0.12722356133E+03  0.50400000000E-02 0.  1.
    5000001    1    1    2    0    0  0.33752977608E+02  0.33309881020E+02 -0.53730123159E+02  0.14582433887E+03  0.12700000000E+03 0.  0.
   -5000001    1    1    2    0    0 -0.33752977608E+02 -0.33309881020E+02  0.13995138253E+03  0.19484404313E+03  0.12700000000E+03 0.  0.
<mgrwt>
<rscale>  0 0.32957676E+03</rscale>
<asrwt>0</asrwt>
<pdfrwt beam="1">  1        1 0.18174794E-01 0.32957676E+03</pdfrwt>
<pdfrwt beam="2">  1       -1 0.30492117E-01 0.32957676E+03</pdfrwt>
<totfact> 0.28806889E+03</totfact>
</mgrwt>
</event>
<event>
 4    1  0.6376580E-005  0.5767198E+03  0.7818608E-02  0.9954918E-01
          1   -1    0    0  501    0  0.00000000000E+00  0.00000000000E+00  0.37077532707E+03  0.37077532711E+03  0.50400000000E-02 0.  1.
         -1   -1    0    0    0  501 -0.00000000000E+00 -0.00000000000E+00 -0.22426369644E+03  0.22426369650E+03  0.50400000000E-02 0. -1.
    5000001    1    1    2    0    0  0.11912881194E+01  0.25888379861E+03  0.73723049575E+02  0.29763455510E+03  0.12700000000E+03 0.  0.
   -5000001    1    1    2    0    0 -0.11912881194E+01 -0.25888379861E+03  0.72788581054E+02  0.29740446850E+03  0.12700000000E+03 0.  0.
<mgrwt>
<rscale>  0 0.57671985E+03</rscale>
<asrwt>0</asrwt>
<pdfrwt beam="1">  1        1 0.52967903E-01 0.57671985E+03</pdfrwt>
<pdfrwt beam="2">  1       -1 0.32037671E-01 0.57671985E+03</pdfrwt>
<totfact> 0.66985269E+02</totfact>
</mgrwt>
</event>
<event>
 4    1  0.6376580E-005  0.2823607E+03  0.7818608E-02  0.1094407E+00
         -1   -1    0    0    0  501 -0.00000000000E+00  0.00000000000E+00  0.25242739096E+03  0.25242739101E+03  0.50400000000E-02 0. -1.
          1   -1    0    0  501    0  0.00000000000E+00 -0.00000000000E+00 -0.78960878089E+02  0.78960878250E+02  0.50400000000E-02 0.  1.
    5000001    1    1    2    0    0  0.43165817262E+02  0.14809061383E+02  0.38055108497E+02  0.14021336371E+03  0.12700000000E+03 0.  0.
   -5000001    1    1    2    0    0 -0.43165817262E+02 -0.14809061383E+02  0.13541140437E+03  0.19117490555E+03  0.12700000000E+03 0.  0.
<mgrwt>
<rscale>  0 0.28236068E+03</rscale>
<asrwt>0</asrwt>
<pdfrwt beam="1">  1        1 0.11280125E-01 0.28236068E+03</pdfrwt>
<pdfrwt beam="2">  1       -1 0.36061056E-01 0.28236068E+03</pdfrwt>
<totfact> 0.40296994E+03</totfact>
</mgrwt>
</event>
<event>
 4    1  0.6376580E-005  0.4316300E+03  0.7818608E-02  0.1033346E+00
         -1   -1    0    0    0  501 -0.00000000000E+00  0.00000000000E+00  0.55495363568E+02  0.55495363797E+02  0.50400000000E-02 0. -1.
          1   -1    0    0  501    0  0.00000000000E+00 -0.00000000000E+00 -0.83927924469E+03  0.83927924470E+03  0.50400000000E-02 0.  1.
    5000001    1    1    2    0    0  0.91530922669E+02 -0.12428027090E+03 -0.22317857645E+03  0.29960168979E+03  0.12700000000E+03 0.  0.
   -5000001    1    1    2    0    0 -0.91530922669E+02  0.12428027090E+03 -0.56060530467E+03  0.59517291871E+03  0.12700000000E+03 0.  0.
<mgrwt>
<rscale>  0 0.43162997E+03</rscale>
<asrwt>0</asrwt>
<pdfrwt beam="1">  1        1 0.11989703E+00 0.43162997E+03</pdfrwt>
<pdfrwt beam="2">  1       -1 0.79279096E-02 0.43162997E+03</pdfrwt>
<totfact> 0.21013056E+03</totfact>
</mgrwt>
</event>
<event>
 4    1  0.6376580E-005  0.2635574E+03  0.7818608E-02  0.1105025E+00
         -1   -1    0    0    0  501 -0.00000000000E+00  0.00000000000E+00  0.35858420889E+03  0.35858420892E+03  0.50400000000E-02 0. -1.
          1   -1    0    0  501    0  0.00000000000E+00 -0.00000000000E+00 -0.48428291922E+02  0.48428292184E+02  0.50400000000E-02 0.  1.
    5000001    1    1    2    0    0 -0.10069899580E+02 -0.69733219714E+01  0.10417235505E+03  0.16471463096E+03  0.12700000000E+03 0.  0.
   -5000001    1    1    2    0    0  0.10069899580E+02  0.69733219714E+01  0.20598356192E+03  0.24229787015E+03  0.12700000000E+03 0.  0.
<mgrwt>
<rscale>  0 0.26355736E+03</rscale>
<asrwt>0</asrwt>
<pdfrwt beam="1">  1        1 0.69183278E-02 0.26355736E+03</pdfrwt>
<pdfrwt beam="2">  1       -1 0.51226313E-01 0.26355736E+03</pdfrwt>
<totfact> 0.41418845E+03</totfact>
</mgrwt>
</event>
<event>
 4    1  0.6376580E-005  0.5991049E+03  0.7818608E-02  0.9907265E-01
         -1   -1    0    0    0  501 -0.00000000000E+00  0.00000000000E+00  0.62821305181E+03  0.62821305183E+03  0.50400000000E-02 0. -1.
          1   -1    0    0  501    0  0.00000000000E+00 -0.00000000000E+00 -0.14283635339E+03  0.14283635348E+03  0.50400000000E-02 0.  1.
    5000001    1    1    2    0    0 -0.98937298231E+02  0.25138672393E+03  0.21067359693E+03  0.36537137052E+03  0.12700000000E+03 0.  0.
   -5000001    1    1    2    0    0  0.98937298231E+02 -0.25138672393E+03  0.27470310149E+03  0.40567803480E+03  0.12700000000E+03 0.  0.
<mgrwt>
<rscale>  0 0.59910487E+03</rscale>
<asrwt>0</asrwt>
<pdfrwt beam="1">  1        1 0.20405193E-01 0.59910487E+03</pdfrwt>
<pdfrwt beam="2">  1       -1 0.89744724E-01 0.59910487E+03</pdfrwt>
<totfact> 0.31510581E+02</totfact>
</mgrwt>
</event>
<event>
 4    1  0.6376580E-005  0.4896681E+03  0.7818608E-02  0.1016511E+00
         -1   -1    0    0    0  501 -0.00000000000E+00  0.00000000000E+00  0.66128221587E+02  0.66128221779E+02  0.50400000000E-02 0.  1.
          1   -1    0    0  501    0  0.00000000000E+00 -0.00000000000E+00 -0.90647707740E+03  0.90647707742E+03  0.50400000000E-02 0. -1.
    5000001    1    1    2    0    0 -0.16851164733E+03  0.25186110203E+02 -0.17866519403E+03  0.27763423238E+03  0.12700000000E+03 0.  0.
   -5000001    1    1    2    0    0  0.16851164733E+03 -0.25186110203E+02 -0.66168366178E+03  0.69497106681E+03  0.12700000000E+03 0.  0.
<mgrwt>
<rscale>  0 0.48966812E+03</rscale>
<asrwt>0</asrwt>
<pdfrwt beam="1">  1        1 0.12949672E+00 0.48966812E+03</pdfrwt>
<pdfrwt beam="2">  1       -1 0.94468894E-02 0.48966812E+03</pdfrwt>
<totfact> 0.14161403E+03</totfact>
</mgrwt>
</event>
<event>
 4    1  0.6376580E-005  0.3397745E+03  0.7818608E-02  0.1066892E+00
         -1   -1    0    0    0  501 -0.00000000000E+00  0.00000000000E+00  0.60898211368E+02  0.60898211577E+02  0.50400000000E-02 0. -1.
          1   -1    0    0  501    0  0.00000000000E+00 -0.00000000000E+00 -0.47393312447E+03  0.47393312450E+03  0.50400000000E-02 0.  1.
    5000001    1    1    2    0    0  0.72974351779E+02  0.66287270065E+02 -0.12010905193E+03  0.20068493353E+03  0.12700000000E+03 0.  0.
   -5000001    1    1    2    0    0 -0.72974351779E+02 -0.66287270065E+02 -0.29292586117E+03  0.33414640254E+03  0.12700000000E+03 0.  0.
<mgrwt>
<rscale>  0 0.33977451E+03</rscale>
<asrwt>0</asrwt>
<pdfrwt beam="1">  1        1 0.67704730E-01 0.33977451E+03</pdfrwt>
<pdfrwt beam="2">  1       -1 0.86997447E-02 0.33977451E+03</pdfrwt>
<totfact> 0.40577377E+03</totfact>
</mgrwt>
</event>
<event>
 4    1  0.6376580E-005  0.9946214E+03  0.7818608E-02  0.9314464E-01
         -1   -1    0    0    0  501 -0.00000000000E+00  0.00000000000E+00  0.31751525192E+03  0.31751525196E+03  0.50400000000E-02 0. -1.
          1   -1    0    0  501    0  0.00000000000E+00 -0.00000000000E+00 -0.77891675513E+03  0.77891675515E+03  0.50400000000E-02 0.  1.
    5000001    1    1    2    0    0 -0.33712261125E+03  0.34280139804E+03 -0.23615674352E+03  0.55051199898E+03  0.12700000000E+03 0.  0.
   -5000001    1    1    2    0    0  0.33712261125E+03 -0.34280139804E+03 -0.22524475969E+03  0.54592000813E+03  0.12700000000E+03 0.  0.
<mgrwt>
<rscale>  0 0.99462144E+03</rscale>
<asrwt>0</asrwt>
<pdfrwt beam="1">  1        1 0.11127382E+00 0.99462144E+03</pdfrwt>
<pdfrwt beam="2">  1       -1 0.45359322E-01 0.99462144E+03</pdfrwt>
<totfact> 0.12531272E+02</totfact>
</mgrwt>
</event>
<event>
 4    1  0.6376580E-005  0.2797806E+03  0.7818608E-02  0.1095809E+00
          1   -1    0    0  501    0  0.00000000000E+00  0.00000000000E+00  0.10861202820E+04  0.10861202820E+04  0.50400000000E-02 0. -1.
         -1   -1    0    0    0  501 -0.00000000000E+00 -0.00000000000E+00 -0.18017608843E+02  0.18017609547E+02  0.50400000000E-02 0.  1.
    5000001    1    1    2    0    0  0.19053170503E+02 -0.35975216194E+02  0.36740809882E+03  0.39086436339E+03  0.12700000000E+03 0.  0.
   -5000001    1    1    2    0    0 -0.19053170503E+02  0.35975216194E+02  0.70069457431E+03  0.71327352814E+03  0.12700000000E+03 0.  0.
<mgrwt>
<rscale>  0 0.27978056E+03</rscale>
<asrwt>0</asrwt>
<pdfrwt beam="1">  1        1 0.15516009E+00 0.27978056E+03</pdfrwt>
<pdfrwt beam="2">  1       -1 0.25739433E-02 0.27978056E+03</pdfrwt>
<totfact> 0.74533096E+03</totfact>
</mgrwt>
</event>
<event>
 4    1  0.6376580E-005  0.2815364E+03  0.7818608E-02  0.1094853E+00
         -1   -1    0    0    0  501 -0.00000000000E+00  0.00000000000E+00  0.67437274595E+02  0.67437274784E+02  0.50400000000E-02 0. -1.
          1   -1    0    0  501    0  0.00000000000E+00 -0.00000000000E+00 -0.29383880048E+03  0.29383880052E+03  0.50400000000E-02 0.  1.
    5000001    1    1    2    0    0  0.63341253949E+01  0.59924424884E+02 -0.10362971592E+03  0.17464013246E+03  0.12700000000E+03 0.  0.
   -5000001    1    1    2    0    0 -0.63341253949E+01 -0.59924424884E+02 -0.12277180996E+03  0.18663594285E+03  0.12700000000E+03 0.  0.
<mgrwt>
<rscale>  0 0.28153641E+03</rscale>
<asrwt>0</asrwt>
<pdfrwt beam="1">  1        1 0.41976971E-01 0.28153641E+03</pdfrwt>
<pdfrwt beam="2">  1       -1 0.96338965E-02 0.28153641E+03</pdfrwt>
<totfact> 0.63452520E+03</totfact>
</mgrwt>
</event>
<event>
 4    1  0.6376580E-005  0.3276774E+03  0.7818608E-02  0.1072169E+00
          1   -1    0    0  501    0  0.00000000000E+00  0.00000000000E+00  0.37899374743E+04  0.37899374743E+04  0.50400000000E-02 0.  1.
         -1   -1    0    0    0  501 -0.00000000000E+00 -0.00000000000E+00 -0.70827343466E+01  0.70827361398E+01  0.50400000000E-02 0. -1.
    5000001    1    1    2    0    0 -0.69342211595E+02 -0.76250922104E+02  0.20023174450E+04  0.20089864848E+04  0.12700000000E+03 0.  0.
   -5000001    1    1    2    0    0  0.69342211595E+02  0.76250922104E+02  0.17805372949E+04  0.17880337257E+04  0.12700000000E+03 0.  0.
<mgrwt>
<rscale>  0 0.32767743E+03</rscale>
<asrwt>0</asrwt>
<pdfrwt beam="1">  1        1 0.54142022E+00 0.32767743E+03</pdfrwt>
<pdfrwt beam="2">  1       -1 0.10118182E-02 0.32767743E+03</pdfrwt>
<totfact> 0.55609202E+02</totfact>
</mgrwt>
</event>
<event>
 4    1  0.6376580E-005  0.4700580E+03  0.7818608E-02  0.1021904E+00
         -1   -1    0    0    0  501 -0.00000000000E+00  0.00000000000E+00  0.93625034607E+02  0.93625034742E+02  0.50400000000E-02 0. -1.
          1   -1    0    0  501    0  0.00000000000E+00 -0.00000000000E+00 -0.58999857459E+03  0.58999857461E+03  0.50400000000E-02 0.  1.
    5000001    1    1    2    0    0  0.13742978460E+03  0.11528077270E+03 -0.36928206492E+03  0.42973811295E+03  0.12700000000E+03 0.  0.
   -5000001    1    1    2    0    0 -0.13742978460E+03 -0.11528077270E+03 -0.12709147506E+03  0.25388549640E+03  0.12700000000E+03 0.  0.
<mgrwt>
<rscale>  0 0.47005803E+03</rscale>
<asrwt>0</asrwt>
<pdfrwt beam="1">  1        1 0.84285509E-01 0.47005803E+03</pdfrwt>
<pdfrwt beam="2">  1       -1 0.13375005E-01 0.47005803E+03</pdfrwt>
<totfact> 0.15451000E+03</totfact>
</mgrwt>
</event>
<event>
 4    1  0.6376580E-005  0.3596625E+03  0.7818608E-02  0.1058718E+00
         -1   -1    0    0    0  501 -0.00000000000E+00  0.00000000000E+00  0.13288481719E+03  0.13288481728E+03  0.50400000000E-02 0. -1.
          1   -1    0    0  501    0  0.00000000000E+00 -0.00000000000E+00 -0.24336327040E+03  0.24336327045E+03  0.50400000000E-02 0.  1.
    5000001    1    1    2    0    0 -0.53431892888E+02 -0.11389741489E+03 -0.75703943709E+02  0.19413313830E+03  0.12700000000E+03 0.  0.
   -5000001    1    1    2    0    0  0.53431892888E+02  0.11389741489E+03 -0.34774509506E+02  0.18211494943E+03  0.12700000000E+03 0.  0.
<mgrwt>
<rscale>  0 0.35966253E+03</rscale>
<asrwt>0</asrwt>
<pdfrwt beam="1">  1        1 0.34766181E-01 0.35966253E+03</pdfrwt>
<pdfrwt beam="2">  1       -1 0.18983545E-01 0.35966253E+03</pdfrwt>
<totfact> 0.27683964E+03</totfact>
</mgrwt>
</event>
<event>
 4    1  0.6376580E-005  0.6673373E+03  0.7818608E-02  0.9774780E-01
          1   -1    0    0  501    0  0.00000000000E+00  0.00000000000E+00  0.78087514403E+03  0.78087514404E+03  0.50400000000E-02 0.  1.
         -1   -1    0    0    0  501 -0.00000000000E+00 -0.00000000000E+00 -0.14257690396E+03  0.14257690404E+03  0.50400000000E-02 0. -1.
    5000001    1    1    2    0    0 -0.28228406078E+03  0.91575970538E+00  0.49154371634E+03  0.58088669692E+03  0.12700000000E+03 0.  0.
   -5000001    1    1    2    0    0  0.28228406078E+03 -0.91575970538E+00  0.14675452373E+03  0.34256535116E+03  0.12700000000E+03 0.  0.
<mgrwt>
<rscale>  0 0.66733728E+03</rscale>
<asrwt>0</asrwt>
<pdfrwt beam="1">  1        1 0.11155359E+00 0.66733728E+03</pdfrwt>
<pdfrwt beam="2">  1       -1 0.20368130E-01 0.66733728E+03</pdfrwt>
<totfact> 0.51652840E+02</totfact>
</mgrwt>
</event>
<event>
 4    1  0.6376580E-005  0.3138760E+03  0.7818608E-02  0.1078503E+00
          1   -1    0    0  501    0  0.00000000000E+00  0.00000000000E+00  0.29372333078E+04  0.29372333078E+04  0.50400000000E-02 0.  1.
         -1   -1    0    0    0  501 -0.00000000000E+00 -0.00000000000E+00 -0.83852832127E+01  0.83852847273E+01  0.50400000000E-02 0. -1.
    5000001    1    1    2    0    0  0.61445461671E+02 -0.52867765178E+02  0.10521405260E+04  0.10628731024E+04  0.12700000000E+03 0.  0.
   -5000001    1    1    2    0    0 -0.61445461671E+02  0.52867765178E+02  0.18767074986E+04  0.18827454902E+04  0.12700000000E+03 0.  0.
<mgrwt>
<rscale>  0 0.31387600E+03</rscale>
<asrwt>0</asrwt>
<pdfrwt beam="1">  1        1 0.41960573E+00 0.31387600E+03</pdfrwt>
<pdfrwt beam="2">  1       -1 0.11978949E-02 0.31387600E+03</pdfrwt>
<totfact> 0.16099475E+03</totfact>
</mgrwt>
</event>
<event>
 4    1  0.6376580E-005  0.2671717E+03  0.7818608E-02  0.1102909E+00
         -1   -1    0    0    0  501 -0.00000000000E+00  0.00000000000E+00  0.13099021863E+03  0.13099021873E+03  0.50400000000E-02 0. -1.
          1   -1    0    0  501    0  0.00000000000E+00 -0.00000000000E+00 -0.13623292899E+03  0.13623292908E+03  0.50400000000E-02 0.  1.
    5000001    1    1    2    0    0  0.21376753184E+02  0.17899614021E+02  0.28024703680E+02  0.13301032206E+03  0.12700000000E+03 0.  0.
   -5000001    1    1    2    0    0 -0.21376753184E+02 -0.17899614021E+02 -0.33267414038E+02  0.13421282575E+03  0.12700000000E+03 0.  0.
<mgrwt>
<rscale>  0 0.26717171E+03</rscale>
<asrwt>0</asrwt>
<pdfrwt beam="1">  1        1 0.19461847E-01 0.26717171E+03</pdfrwt>
<pdfrwt beam="2">  1       -1 0.18712888E-01 0.26717171E+03</pdfrwt>
<totfact> 0.58936604E+03</totfact>
</mgrwt>
</event>
<event>
 4    1  0.6376580E-005  0.4376726E+03  0.7818608E-02  0.1031463E+00
         -1   -1    0    0    0  501 -0.00000000000E+00  0.00000000000E+00  0.24601200187E+03  0.24601200192E+03  0.50400000000E-02 0.  1.
          1   -1    0    0  501    0  0.00000000000E+00 -0.00000000000E+00 -0.19466259998E+03  0.19466260004E+03  0.50400000000E-02 0. -1.
    5000001    1    1    2    0    0 -0.12944445287E+03 -0.61017912219E+02 -0.81267195903E+02  0.20787594647E+03  0.12700000000E+03 0.  0.
   -5000001    1    1    2    0    0  0.12944445287E+03  0.61017912219E+02  0.13261659779E+03  0.23279865549E+03  0.12700000000E+03 0.  0.
<mgrwt>
<rscale>  0 0.43767264E+03</rscale>
<asrwt>0</asrwt>
<pdfrwt beam="1">  1        1 0.27808943E-01 0.43767264E+03</pdfrwt>
<pdfrwt beam="2">  1       -1 0.35144572E-01 0.43767264E+03</pdfrwt>
<totfact> 0.13032147E+03</totfact>
</mgrwt>
</event>
<event>
 4    1  0.6376580E-005  0.4683664E+03  0.7818608E-02  0.1022382E+00
          1   -1    0    0  501    0  0.00000000000E+00  0.00000000000E+00  0.19735099546E+04  0.19735099546E+04  0.50400000000E-02 0.  1.
         -1   -1    0    0    0  501 -0.00000000000E+00 -0.00000000000E+00 -0.27788954296E+02  0.27788954753E+02  0.50400000000E-02 0. -1.
    5000001    1    1    2    0    0  0.17573107206E+03 -0.81558407884E+02  0.11196154049E+04  0.11433288409E+04  0.12700000000E+03 0.  0.
   -5000001    1    1    2    0    0 -0.17573107206E+03  0.81558407884E+02  0.82610559538E+03  0.85797006842E+03  0.12700000000E+03 0.  0.
<mgrwt>
<rscale>  0 0.46836643E+03</rscale>
<asrwt>0</asrwt>
<pdfrwt beam="1">  1        1 0.28193006E+00 0.46836643E+03</pdfrwt>
<pdfrwt beam="2">  1       -1 0.39698497E-02 0.46836643E+03</pdfrwt>
<totfact> 0.10635824E+03</totfact>
</mgrwt>
</event>
<event>
 4    1  0.6376580E-005  0.3507281E+03  0.7818608E-02  0.1062317E+00
         -1   -1    0    0    0  501 -0.00000000000E+00  0.00000000000E+00  0.17690752290E+02  0.17690753008E+02  0.50400000000E-02 0. -1.
          1   -1    0    0  501    0  0.00000000000E+00 -0.00000000000E+00 -0.17383405275E+04  0.17383405275E+04  0.50400000000E-02 0.  1.
    5000001    1    1    2    0    0 -0.74461378724E+02  0.91554643255E+02 -0.72815985244E+03  0.74851354051E+03  0.12700000000E+03 0.  0.
   -5000001    1    1    2    0    0  0.74461378724E+02 -0.91554643255E+02 -0.99248992281E+03  0.10075177400E+04  0.12700000000E+03 0.  0.
<mgrwt>
<rscale>  0 0.35072811E+03</rscale>
<asrwt>0</asrwt>
<pdfrwt beam="1">  1        1 0.24833425E+00 0.35072811E+03</pdfrwt>
<pdfrwt beam="2">  1       -1 0.25272515E-02 0.35072811E+03</pdfrwt>
<totfact> 0.29250268E+03</totfact>
</mgrwt>
</event>
<event>
 4    1  0.6376580E-005  0.4845020E+03  0.7818608E-02  0.1017905E+00
         -1   -1    0    0    0  501 -0.00000000000E+00  0.00000000000E+00  0.32612400604E+02  0.32612400994E+02  0.50400000000E-02 0. -1.
          1   -1    0    0  501    0  0.00000000000E+00 -0.00000000000E+00 -0.17994853923E+04  0.17994853923E+04  0.50400000000E-02 0.  1.
    5000001    1    1    2    0    0  0.19835354059E+03  0.38907074442E+02 -0.10392859309E+04  0.10663499114E+04  0.12700000000E+03 0.  0.
   -5000001    1    1    2    0    0 -0.19835354059E+03 -0.38907074442E+02 -0.72758706081E+03  0.76574788185E+03  0.12700000000E+03 0.  0.
<mgrwt>
<rscale>  0 0.48450197E+03</rscale>
<asrwt>0</asrwt>
<pdfrwt beam="1">  1        1 0.25706928E+00 0.48450197E+03</pdfrwt>
<pdfrwt beam="2">  1       -1 0.46589155E-02 0.48450197E+03</pdfrwt>
<totfact> 0.10672424E+03</totfact>
</mgrwt>
</event>
<event>
 4    1  0.6376580E-005  0.3815827E+03  0.7818608E-02  0.1050350E+00
         -1   -1    0    0    0  501 -0.00000000000E+00  0.00000000000E+00  0.34526431429E+03  0.34526431432E+03  0.50400000000E-02 0. -1.
          1   -1    0    0  501    0  0.00000000000E+00 -0.00000000000E+00 -0.10543033785E+03  0.10543033797E+03  0.50400000000E-02 0.  1.
    5000001    1    1    2    0    0  0.10531538079E+03  0.74763292215E+02  0.19069998088E+03  0.26301399582E+03  0.12700000000E+03 0.  0.
   -5000001    1    1    2    0    0 -0.10531538079E+03 -0.74763292215E+02  0.49133995562E+02  0.18768065647E+03  0.12700000000E+03 0.  0.
<mgrwt>
<rscale>  0 0.38158267E+03</rscale>
<asrwt>0</asrwt>
<pdfrwt beam="1">  1        1 0.15061477E-01 0.38158267E+03</pdfrwt>
<pdfrwt beam="2">  1       -1 0.49323473E-01 0.38158267E+03</pdfrwt>
<totfact> 0.15695685E+03</totfact>
</mgrwt>
</event>
<event>
 4    1  0.6376580E-005  0.2885879E+03  0.7818608E-02  0.1091089E+00
         -1   -1    0    0    0  501 -0.00000000000E+00  0.00000000000E+00  0.57402254913E+02  0.57402255134E+02  0.50400000000E-02 0. -1.
          1   -1    0    0  501    0  0.00000000000E+00 -0.00000000000E+00 -0.36271637809E+03  0.36271637813E+03  0.50400000000E-02 0.  1.
    5000001    1    1    2    0    0  0.35678064304E+02  0.47473931295E+02 -0.20234651695E+03  0.24617028933E+03  0.12700000000E+03 0.  0.
   -5000001    1    1    2    0    0 -0.35678064304E+02 -0.47473931295E+02 -0.10296760623E+03  0.17394834393E+03  0.12700000000E+03 0.  0.
<mgrwt>
<rscale>  0 0.28858786E+03</rscale>
<asrwt>0</asrwt>
<pdfrwt beam="1">  1        1 0.51816624E-01 0.28858786E+03</pdfrwt>
<pdfrwt beam="2">  1       -1 0.82003224E-02 0.28858786E+03</pdfrwt>
<totfact> 0.62387547E+03</totfact>
</mgrwt>
</event>
<event>
 4    1  0.6376580E-005  0.3703937E+03  0.7818608E-02  0.1054543E+00
          1   -1    0    0  501    0  0.00000000000E+00  0.00000000000E+00  0.55914444365E+03  0.55914444367E+03  0.50400000000E-02 0.  1.
         -1   -1    0    0    0  501 -0.00000000000E+00 -0.00000000000E+00 -0.61339914733E+02  0.61339914940E+02  0.50400000000E-02 0. -1.
    5000001    1    1    2    0    0  0.26446413284E+02 -0.13067616052E+03  0.21568418779E+03  0.28359185561E+03  0.12700000000E+03 0.  0.
   -5000001    1    1    2    0    0 -0.26446413284E+02  0.13067616052E+03  0.28212034112E+03  0.33689250300E+03  0.12700000000E+03 0.  0.
<mgrwt>
<rscale>  0 0.37039370E+03</rscale>
<asrwt>0</asrwt>
<pdfrwt beam="1">  1        1 0.79877775E-01 0.37039370E+03</pdfrwt>
<pdfrwt beam="2">  1       -1 0.87628453E-02 0.37039370E+03</pdfrwt>
<totfact> 0.32252785E+03</totfact>
</mgrwt>
</event>
<event>
 4    1  0.6376580E-005  0.5379679E+03  0.7818608E-02  0.1004318E+00
         -1   -1    0    0    0  501 -0.00000000000E+00  0.00000000000E+00  0.53637766992E+02  0.53637767228E+02  0.50400000000E-02 0. -1.
          1   -1    0    0  501    0  0.00000000000E+00 -0.00000000000E+00 -0.13489072577E+04  0.13489072577E+04  0.50400000000E-02 0.  1.
    5000001    1    1    2    0    0  0.18094261020E+03  0.75952266602E+02 -0.30063941612E+03  0.38081758562E+03  0.12700000000E+03 0.  0.
   -5000001    1    1    2    0    0 -0.18094261020E+03 -0.75952266602E+02 -0.99463007455E+03  0.10217274393E+04  0.12700000000E+03 0.  0.
<mgrwt>
<rscale>  0 0.53796793E+03</rscale>
<asrwt>0</asrwt>
<pdfrwt beam="1">  1        1 0.19270102E+00 0.53796793E+03</pdfrwt>
<pdfrwt beam="2">  1       -1 0.76625390E-02 0.53796793E+03</pdfrwt>
<totfact> 0.95734690E+02</totfact>
</mgrwt>
</event>
<event>
 4    1  0.6376580E-005  0.3248953E+03  0.7818608E-02  0.1073418E+00
         -1   -1    0    0    0  501 -0.00000000000E+00  0.00000000000E+00  0.24221850242E+02  0.24221850766E+02  0.50400000000E-02 0.  1.
          1   -1    0    0  501    0  0.00000000000E+00 -0.00000000000E+00 -0.10894809227E+04  0.10894809227E+04  0.50400000000E-02 0. -1.
    5000001    1    1    2    0    0 -0.55601680731E+02 -0.83093956838E+02 -0.47692340072E+03  0.50356834960E+03  0.12700000000E+03 0.  0.
   -5000001    1    1    2    0    0  0.55601680731E+02  0.83093956838E+02 -0.58833567173E+03  0.61013442387E+03  0.12700000000E+03 0.  0.
<mgrwt>
<rscale>  0 0.32489533E+03</rscale>
<asrwt>0</asrwt>
<pdfrwt beam="1">  1        1 0.15564010E+00 0.32489533E+03</pdfrwt>
<pdfrwt beam="2">  1       -1 0.34602650E-02 0.32489533E+03</pdfrwt>
<totfact> 0.47990252E+03</totfact>
</mgrwt>
</event>
<event>
 4    1  0.6376580E-005  0.3347961E+03  0.7818608E-02  0.1069034E+00
         -1   -1    0    0    0  501 -0.00000000000E+00  0.00000000000E+00  0.23949467730E+02  0.23949468260E+02  0.50400000000E-02 0. -1.
          1   -1    0    0  501    0  0.00000000000E+00 -0.00000000000E+00 -0.11700514767E+04  0.11700514767E+04  0.50400000000E-02 0.  1.
    5000001    1    1    2    0    0  0.78949107642E+02 -0.47703628923E+02 -0.36557287580E+03  0.39784560489E+03  0.12700000000E+03 0.  0.
   -5000001    1    1    2    0    0 -0.78949107642E+02  0.47703628923E+02 -0.78052913313E+03  0.79615534004E+03  0.12700000000E+03 0.  0.
<mgrwt>
<rscale>  0 0.33479612E+03</rscale>
<asrwt>0</asrwt>
<pdfrwt beam="1">  1        1 0.16715018E+00 0.33479612E+03</pdfrwt>
<pdfrwt beam="2">  1       -1 0.34213533E-02 0.33479612E+03</pdfrwt>
<totfact> 0.42984944E+03</totfact>
</mgrwt>
</event>
<event>
 4    1  0.6376580E-005  0.3712836E+03  0.7818608E-02  0.1054203E+00
         -1   -1    0    0    0  501 -0.00000000000E+00  0.00000000000E+00  0.26990881156E+02  0.26990881626E+02  0.50400000000E-02 0.  1.
          1   -1    0    0  501    0  0.00000000000E+00 -0.00000000000E+00 -0.12768342722E+04  0.12768342722E+04  0.50400000000E-02 0. -1.
    5000001    1    1    2    0    0 -0.81137846873E+02  0.10416097055E+03 -0.51951168813E+03  0.55086681882E+03  0.12700000000E+03 0.  0.
   -5000001    1    1    2    0    0  0.81137846873E+02 -0.10416097055E+03 -0.73033170294E+03  0.75295833503E+03  0.12700000000E+03 0.  0.
<mgrwt>
<rscale>  0 0.37128362E+03</rscale>
<asrwt>0</asrwt>
<pdfrwt beam="1">  1        1 0.18240486E+00 0.37128362E+03</pdfrwt>
<pdfrwt beam="2">  1       -1 0.38558410E-02 0.37128362E+03</pdfrwt>
<totfact> 0.30527749E+03</totfact>
</mgrwt>
</event>
<event>
 4    1  0.6376580E-005  0.4355389E+03  0.7818608E-02  0.1032124E+00
          1   -1    0    0  501    0  0.00000000000E+00  0.00000000000E+00  0.27713574855E+03  0.27713574860E+03  0.50400000000E-02 0. -1.
         -1   -1    0    0    0  501 -0.00000000000E+00 -0.00000000000E+00 -0.17112021052E+03  0.17112021060E+03  0.50400000000E-02 0.  1.
    5000001    1    1    2    0    0  0.16931532375E+03  0.26274324176E+02  0.98298452383E+02  0.23483952970E+03  0.12700000000E+03 0.  0.
   -5000001    1    1    2    0    0 -0.16931532375E+03 -0.26274324176E+02  0.77170856488E+01  0.21341642950E+03  0.12700000000E+03 0.  0.
<mgrwt>
<rscale>  0 0.43553887E+03</rscale>
<asrwt>0</asrwt>
<pdfrwt beam="1">  1        1 0.39590821E-01 0.43553887E+03</pdfrwt>
<pdfrwt beam="2">  1       -1 0.24445744E-01 0.43553887E+03</pdfrwt>
<totfact> 0.15481813E+03</totfact>
</mgrwt>
</event>
<event>
 4    1  0.6376580E-005  0.4258455E+03  0.7818608E-02  0.1035180E+00
          1   -1    0    0  501    0  0.00000000000E+00  0.00000000000E+00  0.49408746435E+03  0.49408746438E+03  0.50400000000E-02 0. -1.
         -1   -1    0    0    0  501 -0.00000000000E+00 -0.00000000000E+00 -0.91757230956E+02  0.91757231094E+02  0.50400000000E-02 0.  1.
    5000001    1    1    2    0    0  0.10625285907E+03  0.13344185542E+03  0.18669067341E+03  0.28298198949E+03  0.12700000000E+03 0.  0.
   -5000001    1    1    2    0    0 -0.10625285907E+03 -0.13344185542E+03  0.21563955999E+03  0.30286270598E+03  0.12700000000E+03 0.  0.
<mgrwt>
<rscale>  0 0.42584550E+03</rscale>
<asrwt>0</asrwt>
<pdfrwt beam="1">  1        1 0.70583922E-01 0.42584550E+03</pdfrwt>
<pdfrwt beam="2">  1       -1 0.13108176E-01 0.42584550E+03</pdfrwt>
<totfact> 0.20280547E+03</totfact>
</mgrwt>
</event>
<event>
 4    1  0.6376580E-005  0.2607955E+03  0.7818608E-02  0.1106666E+00
         -1   -1    0    0    0  501 -0.00000000000E+00  0.00000000000E+00  0.14188183709E+03  0.14188183718E+03  0.50400000000E-02 0. -1.
          1   -1    0    0  501    0  0.00000000000E+00 -0.00000000000E+00 -0.11984320550E+03  0.11984320561E+03  0.50400000000E-02 0.  1.
    5000001    1    1    2    0    0 -0.25160701061E+02 -0.11460587448E+02  0.48579921156E+00  0.12997554364E+03  0.12700000000E+03 0.  0.
   -5000001    1    1    2    0    0  0.25160701061E+02  0.11460587448E+02  0.21552832372E+02  0.13174949915E+03  0.12700000000E+03 0.  0.
<mgrwt>
<rscale>  0 0.26079551E+03</rscale>
<asrwt>0</asrwt>
<pdfrwt beam="1">  1        1 0.17120458E-01 0.26079551E+03</pdfrwt>
<pdfrwt beam="2">  1       -1 0.20268834E-01 0.26079551E+03</pdfrwt>
<totfact> 0.61073403E+03</totfact>
</mgrwt>
</event>
<event>
 4    1  0.6376580E-005  0.2940759E+03  0.7818608E-02  0.1088240E+00
         -1   -1    0    0    0  501 -0.00000000000E+00  0.00000000000E+00  0.24172963587E+03  0.24172963592E+03  0.50400000000E-02 0.  1.
          1   -1    0    0  501    0  0.00000000000E+00 -0.00000000000E+00 -0.89439415163E+02  0.89439415305E+02  0.50400000000E-02 0. -1.
    5000001    1    1    2    0    0  0.28762904747E+02 -0.64986793396E+02  0.99782386690E+02  0.17645427934E+03  0.12700000000E+03 0.  0.
   -5000001    1    1    2    0    0 -0.28762904747E+02  0.64986793396E+02  0.52507834016E+02  0.15471477188E+03  0.12700000000E+03 0.  0.
<mgrwt>
<rscale>  0 0.29407589E+03</rscale>
<asrwt>0</asrwt>
<pdfrwt beam="1">  1        1 0.12777059E-01 0.29407589E+03</pdfrwt>
<pdfrwt beam="2">  1       -1 0.34532805E-01 0.29407589E+03</pdfrwt>
<totfact> 0.36850444E+03</totfact>
</mgrwt>
</event>
<event>
 4    1  0.6376580E-005  0.2666820E+03  0.7818608E-02  0.1103194E+00
          1   -1    0    0  501    0  0.00000000000E+00  0.00000000000E+00  0.49311948640E+03  0.49311948643E+03  0.50400000000E-02 0.  1.
         -1   -1    0    0    0  501 -0.00000000000E+00 -0.00000000000E+00 -0.36055822261E+02  0.36055822613E+02  0.50400000000E-02 0. -1.
    5000001    1    1    2    0    0  0.35869355748E+02 -0.17529395785E+02  0.21355886486E+03  0.25165507974E+03  0.12700000000E+03 0.  0.
   -5000001    1    1    2    0    0 -0.35869355748E+02  0.17529395785E+02  0.24350479928E+03  0.27752022930E+03  0.12700000000E+03 0.  0.
<mgrwt>
<rscale>  0 0.26668205E+03</rscale>
<asrwt>0</asrwt>
<pdfrwt beam="1">  1        1 0.70445637E-01 0.26668205E+03</pdfrwt>
<pdfrwt beam="2">  1       -1 0.51508321E-02 0.26668205E+03</pdfrwt>
<totfact> 0.84827458E+03</totfact>
</mgrwt>
</event>
<event>
 4    1  0.6376580E-005  0.4619340E+03  0.7818608E-02  0.1024222E+00
          1   -1    0    0  501    0  0.00000000000E+00  0.00000000000E+00  0.13601219046E+04  0.13601219046E+04  0.50400000000E-02 0.  1.
         -1   -1    0    0    0  501 -0.00000000000E+00 -0.00000000000E+00 -0.39221301444E+02  0.39221301768E+02  0.50400000000E-02 0. -1.
    5000001    1    1    2    0    0 -0.13509264252E+03  0.35334356312E+01  0.10775093669E+04  0.10933517014E+04  0.12700000000E+03 0.  0.
   -5000001    1    1    2    0    0  0.13509264252E+03 -0.35334356312E+01  0.24339123631E+03  0.30599150501E+03  0.12700000000E+03 0.  0.
<mgrwt>
<rscale>  0 0.46193398E+03</rscale>
<asrwt>0</asrwt>
<pdfrwt beam="1">  1        1 0.19430306E+00 0.46193398E+03</pdfrwt>
<pdfrwt beam="2">  1       -1 0.56030450E-02 0.46193398E+03</pdfrwt>
<totfact> 0.15279956E+03</totfact>
</mgrwt>
</event>
<event>
 4    1  0.6376580E-005  0.3582631E+03  0.7818608E-02  0.1059274E+00
          1   -1    0    0  501    0  0.00000000000E+00  0.00000000000E+00  0.28370817706E+04  0.28370817706E+04  0.50400000000E-02 0.  1.
         -1   -1    0    0    0  501 -0.00000000000E+00 -0.00000000000E+00 -0.11310254011E+02  0.11310255134E+02  0.50400000000E-02 0. -1.
    5000001    1    1    2    0    0 -0.11803412991E+03  0.42521896792E+02  0.15305297301E+04  0.15409057150E+04  0.12700000000E+03 0.  0.
   -5000001    1    1    2    0    0  0.11803412991E+03 -0.42521896792E+02  0.12952417864E+04  0.13074863108E+04  0.12700000000E+03 0.  0.
<mgrwt>
<rscale>  0 0.35826313E+03</rscale>
<asrwt>0</asrwt>
<pdfrwt beam="1">  1        1 0.40529683E+00 0.35826313E+03</pdfrwt>
<pdfrwt beam="2">  1       -1 0.16157529E-02 0.35826313E+03</pdfrwt>
<totfact> 0.11976696E+03</totfact>
</mgrwt>
</event>
<event>
 4    1  0.6376580E-005  0.3194872E+03  0.7818608E-02  0.1075886E+00
         -1   -1    0    0    0  501 -0.00000000000E+00  0.00000000000E+00  0.11480696773E+02  0.11480697879E+02  0.50400000000E-02 0. -1.
          1   -1    0    0  501    0  0.00000000000E+00 -0.00000000000E+00 -0.22226893994E+04  0.22226893994E+04  0.50400000000E-02 0.  1.
    5000001    1    1    2    0    0  0.96168355667E+02 -0.10630931222E+02 -0.10688296656E+04  0.10806883100E+04  0.12700000000E+03 0.  0.
   -5000001    1    1    2    0    0 -0.96168355667E+02  0.10630931222E+02 -0.11423790370E+04  0.11534817873E+04  0.12700000000E+03 0.  0.
<mgrwt>
<rscale>  0 0.31948724E+03</rscale>
<asrwt>0</asrwt>
<pdfrwt beam="1">  1        1 0.31752678E+00 0.31948724E+03</pdfrwt>
<pdfrwt beam="2">  1       -1 0.16401010E-02 0.31948724E+03</pdfrwt>
<totfact> 0.28068727E+03</totfact>
</mgrwt>
</event>
<event>
 4    1  0.6376580E-005  0.4377050E+03  0.7818608E-02  0.1031453E+00
          1   -1    0    0  501    0  0.00000000000E+00  0.00000000000E+00  0.13743385454E+03  0.13743385464E+03  0.50400000000E-02 0.  1.
         -1   -1    0    0    0  501 -0.00000000000E+00 -0.00000000000E+00 -0.34850524863E+03  0.34850524867E+03  0.50400000000E-02 0. -1.
    5000001    1    1    2    0    0  0.10713370471E+03  0.94472613305E+02 -0.22388878368E+03  0.29437712684E+03  0.12700000000E+03 0.  0.
   -5000001    1    1    2    0    0 -0.10713370471E+03 -0.94472613305E+02  0.12817389590E+02  0.19156197646E+03  0.12700000000E+03 0.  0.
<mgrwt>
<rscale>  0 0.43770501E+03</rscale>
<asrwt>0</asrwt>
<pdfrwt beam="1">  1        1 0.19633408E-01 0.43770501E+03</pdfrwt>
<pdfrwt beam="2">  1       -1 0.49786464E-01 0.43770501E+03</pdfrwt>
<totfact> 0.10887158E+03</totfact>
</mgrwt>
</event>
<event>
 4    1  0.6376580E-005  0.2927368E+03  0.7818608E-02  0.1088929E+00
         -1   -1    0    0    0  501 -0.00000000000E+00  0.00000000000E+00  0.39674379908E+02  0.39674380228E+02  0.50400000000E-02 0. -1.
          1   -1    0    0  501    0  0.00000000000E+00 -0.00000000000E+00 -0.53998856061E+03  0.53998856064E+03  0.50400000000E-02 0.  1.
    5000001    1    1    2    0    0  0.57090664934E+02 -0.23272035068E+02 -0.32668880982E+03  0.35588693444E+03  0.12700000000E+03 0.  0.
   -5000001    1    1    2    0    0 -0.57090664934E+02  0.23272035068E+02 -0.17362537088E+03  0.22377600643E+03  0.12700000000E+03 0.  0.
<mgrwt>
<rscale>  0 0.29273682E+03</rscale>
<asrwt>0</asrwt>
<pdfrwt beam="1">  1        1 0.77141218E-01 0.29273682E+03</pdfrwt>
<pdfrwt beam="2">  1       -1 0.56677689E-02 0.29273682E+03</pdfrwt>
<totfact> 0.65386878E+03</totfact>
</mgrwt>
</event>
<event>
 4    1  0.6376580E-005  0.4483632E+03  0.7818608E-02  0.1028211E+00
         -1   -1    0    0    0  501 -0.00000000000E+00  0.00000000000E+00  0.61182557034E+02  0.61182557241E+02  0.50400000000E-02 0. -1.
          1   -1    0    0  501    0  0.00000000000E+00 -0.00000000000E+00 -0.82143325188E+03  0.82143325189E+03  0.50400000000E-02 0.  1.
    5000001    1    1    2    0    0  0.17508121958E+03 -0.58772733382E+02 -0.37116492075E+03  0.43358974392E+03  0.12700000000E+03 0.  0.
   -5000001    1    1    2    0    0 -0.17508121958E+03  0.58772733382E+02 -0.38908577410E+03  0.44902606521E+03  0.12700000000E+03 0.  0.
<mgrwt>
<rscale>  0 0.44836319E+03</rscale>
<asrwt>0</asrwt>
<pdfrwt beam="1">  1        1 0.11734760E+00 0.44836319E+03</pdfrwt>
<pdfrwt beam="2">  1       -1 0.87403658E-02 0.44836319E+03</pdfrwt>
<totfact> 0.18672539E+03</totfact>
</mgrwt>
</event>
<event>
 4    1  0.6376580E-005  0.3079644E+03  0.7818608E-02  0.1081326E+00
          1   -1    0    0  501    0  0.00000000000E+00  0.00000000000E+00  0.42462749695E+03  0.42462749698E+03  0.50400000000E-02 0.  1.
         -1   -1    0    0    0  501 -0.00000000000E+00 -0.00000000000E+00 -0.55838392850E+02  0.55838393077E+02  0.50400000000E-02 0. -1.
    5000001    1    1    2    0    0 -0.43946252663E+01  0.82414679290E+02  0.22768723031E+03  0.27346291693E+03  0.12700000000E+03 0.  0.
   -5000001    1    1    2    0    0  0.43946252663E+01 -0.82414679290E+02  0.14110187380E+03  0.20700297313E+03  0.12700000000E+03 0.  0.
<mgrwt>
<rscale>  0 0.30796439E+03</rscale>
<asrwt>0</asrwt>
<pdfrwt beam="1">  1        1 0.60661073E-01 0.30796439E+03</pdfrwt>
<pdfrwt beam="2">  1       -1 0.79769130E-02 0.30796439E+03</pdfrwt>
<totfact> 0.53333993E+03</totfact>
</mgrwt>
</event>
<event>
 4    1  0.6376580E-005  0.5113946E+03  0.7818608E-02  0.1010847E+00
          1   -1    0    0  501    0  0.00000000000E+00  0.00000000000E+00  0.30003149421E+04  0.30003149421E+04  0.50400000000E-02 0.  1.
         -1   -1    0    0    0  501 -0.00000000000E+00 -0.00000000000E+00 -0.21791410946E+02  0.21791411529E+02  0.50400000000E-02 0. -1.
    5000001    1    1    2    0    0  0.92119858618E+00  0.17800909594E+03  0.22724487912E+04  0.22829455962E+04  0.12700000000E+03 0.  0.
   -5000001    1    1    2    0    0 -0.92119858618E+00 -0.17800909594E+03  0.70607473997E+03  0.73916075739E+03  0.12700000000E+03 0.  0.
<mgrwt>
<rscale>  0 0.51139455E+03</rscale>
<asrwt>0</asrwt>
<pdfrwt beam="1">  1        1 0.42861638E+00 0.51139455E+03</pdfrwt>
<pdfrwt beam="2">  1       -1 0.31130591E-02 0.51139455E+03</pdfrwt>
<totfact> 0.35051237E+02</totfact>
</mgrwt>
</event>
<event>
 4    1  0.6376580E-005  0.3030996E+03  0.7818608E-02  0.1083701E+00
         -1   -1    0    0    0  501 -0.00000000000E+00  0.00000000000E+00  0.52049585448E+02  0.52049585692E+02  0.50400000000E-02 0. -1.
          1   -1    0    0  501    0  0.00000000000E+00 -0.00000000000E+00 -0.44125899478E+03  0.44125899481E+03  0.50400000000E-02 0.  1.
    5000001    1    1    2    0    0  0.70990850031E+01 -0.81424328062E+02 -0.17414485269E+03  0.23051192578E+03  0.12700000000E+03 0.  0.
   -5000001    1    1    2    0    0 -0.70990850031E+01  0.81424328062E+02 -0.21506455664E+03  0.26279665472E+03  0.12700000000E+03 0.  0.
<mgrwt>
<rscale>  0 0.30309964E+03</rscale>
<asrwt>0</asrwt>
<pdfrwt beam="1">  1        1 0.63036997E-01 0.30309964E+03</pdfrwt>
<pdfrwt beam="2">  1       -1 0.74356553E-02 0.30309964E+03</pdfrwt>
<totfact> 0.56489940E+03</totfact>
</mgrwt>
</event>
<event>
 4    1  0.6376580E-005  0.3302129E+03  0.7818608E-02  0.1071043E+00
          1   -1    0    0  501    0  0.00000000000E+00  0.00000000000E+00  0.12559353348E+03  0.12559353358E+03  0.50400000000E-02 0.  1.
         -1   -1    0    0    0  501 -0.00000000000E+00 -0.00000000000E+00 -0.21705050381E+03  0.21705050387E+03  0.50400000000E-02 0. -1.
    5000001    1    1    2    0    0  0.81199755937E+02  0.59454125618E+02 -0.12866939249E+02  0.16255076605E+03  0.12700000000E+03 0.  0.
   -5000001    1    1    2    0    0 -0.81199755937E+02 -0.59454125618E+02 -0.78590031088E+02  0.18009327140E+03  0.12700000000E+03 0.  0.
<mgrwt>
<rscale>  0 0.33021290E+03</rscale>
<asrwt>0</asrwt>
<pdfrwt beam="1">  1        1 0.17941933E-01 0.33021290E+03</pdfrwt>
<pdfrwt beam="2">  1       -1 0.31007215E-01 0.33021290E+03</pdfrwt>
<totfact> 0.28467113E+03</totfact>
</mgrwt>
</event>
<event>
 4    1  0.6376580E-005  0.3835866E+03  0.7818608E-02  0.1049616E+00
          1   -1    0    0  501    0  0.00000000000E+00  0.00000000000E+00  0.80619596313E+03  0.80619596315E+03  0.50400000000E-02 0.  1.
         -1   -1    0    0    0  501 -0.00000000000E+00 -0.00000000000E+00 -0.45627456311E+02  0.45627456590E+02  0.50400000000E-02 0. -1.
    5000001    1    1    2    0    0  0.10848315918E+03  0.93976499903E+02  0.39682688759E+03  0.44068214971E+03  0.12700000000E+03 0.  0.
   -5000001    1    1    2    0    0 -0.10848315918E+03 -0.93976499903E+02  0.36374161923E+03  0.41114127002E+03  0.12700000000E+03 0.  0.
<mgrwt>
<rscale>  0 0.38358661E+03</rscale>
<asrwt>0</asrwt>
<pdfrwt beam="1">  1        1 0.11517085E+00 0.38358661E+03</pdfrwt>
<pdfrwt beam="2">  1       -1 0.65182080E-02 0.38358661E+03</pdfrwt>
<totfact> 0.30175558E+03</totfact>
</mgrwt>
</event>
<event>
 4    1  0.6376580E-005  0.5323238E+03  0.7818608E-02  0.1005670E+00
         -1   -1    0    0    0  501 -0.00000000000E+00  0.00000000000E+00  0.24564042073E+03  0.24564042079E+03  0.50400000000E-02 0. -1.
          1   -1    0    0  501    0  0.00000000000E+00 -0.00000000000E+00 -0.28839780441E+03  0.28839780445E+03  0.50400000000E-02 0.  1.
    5000001    1    1    2    0    0  0.13063554638E+03  0.13248078111E+03  0.12083948298E+03  0.25563251747E+03  0.12700000000E+03 0.  0.
   -5000001    1    1    2    0    0 -0.13063554638E+03 -0.13248078111E+03 -0.16359686665E+03  0.27840570777E+03  0.12700000000E+03 0.  0.
<mgrwt>
<rscale>  0 0.53232380E+03</rscale>
<asrwt>0</asrwt>
<pdfrwt beam="1">  1        1 0.41199686E-01 0.53232380E+03</pdfrwt>
<pdfrwt beam="2">  1       -1 0.35091489E-01 0.53232380E+03</pdfrwt>
<totfact> 0.78946539E+02</totfact>
</mgrwt>
</event>
<event>
 4    1  0.6376580E-005  0.8315545E+03  0.7818608E-02  0.9515434E-01
         -1   -1    0    0    0  501 -0.00000000000E+00  0.00000000000E+00  0.54323620122E+03  0.54323620125E+03  0.50400000000E-02 0. -1.
          1   -1    0    0  501    0  0.00000000000E+00 -0.00000000000E+00 -0.31822389012E+03  0.31822389016E+03  0.50400000000E-02 0.  1.
    5000001    1    1    2    0    0  0.29739515466E+03 -0.15976756132E+03  0.32675828460E+03  0.48669243699E+03  0.12700000000E+03 0.  0.
   -5000001    1    1    2    0    0 -0.29739515466E+03  0.15976756132E+03 -0.10174597350E+03  0.37476765441E+03  0.12700000000E+03 0.  0.
<mgrwt>
<rscale>  0 0.83155454E+03</rscale>
<asrwt>0</asrwt>
<pdfrwt beam="1">  1        1 0.45460556E-01 0.83155454E+03</pdfrwt>
<pdfrwt beam="2">  1       -1 0.77605171E-01 0.83155454E+03</pdfrwt>
<totfact> 0.15036006E+02</totfact>
</mgrwt>
</event>
<event>
 4    1  0.6376580E-005  0.3164165E+03  0.7818608E-02  0.1077310E+00
         -1   -1    0    0    0  501 -0.00000000000E+00  0.00000000000E+00  0.26505156154E+02  0.26505156633E+02  0.50400000000E-02 0. -1.
          1   -1    0    0  501    0  0.00000000000E+00 -0.00000000000E+00 -0.94433897818E+03  0.94433897819E+03  0.50400000000E-02 0.  1.
    5000001    1    1    2    0    0 -0.16120915359E+02  0.45751223840E+02 -0.21063911968E+03  0.25070081200E+03  0.12700000000E+03 0.  0.
   -5000001    1    1    2    0    0  0.16120915359E+02 -0.45751223840E+02 -0.70719470234E+03  0.72014332283E+03  0.12700000000E+03 0.  0.
<mgrwt>
<rscale>  0 0.31641651E+03</rscale>
<asrwt>0</asrwt>
<pdfrwt beam="1">  1        1 0.13490555E+00 0.31641651E+03</pdfrwt>
<pdfrwt beam="2">  1       -1 0.37864515E-02 0.31641651E+03</pdfrwt>
<totfact> 0.53323110E+03</totfact>
</mgrwt>
</event>
<event>
 4    1  0.6376580E-005  0.9821548E+03  0.7818608E-02  0.9328337E-01
         -1   -1    0    0    0  501 -0.00000000000E+00  0.00000000000E+00  0.15032158882E+03  0.15032158891E+03  0.50400000000E-02 0.  1.
          1   -1    0    0  501    0  0.00000000000E+00 -0.00000000000E+00 -0.16042739088E+04  0.16042739088E+04  0.50400000000E-02 0. -1.
    5000001    1    1    2    0    0  0.36865290830E+03  0.46008688437E+02 -0.20002269043E+03  0.44063572585E+03  0.12700000000E+03 0.  0.
   -5000001    1    1    2    0    0 -0.36865290830E+03 -0.46008688437E+02 -0.12539296296E+04  0.13139597719E+04  0.12700000000E+03 0.  0.
<mgrwt>
<rscale>  0 0.98215478E+03</rscale>
<asrwt>0</asrwt>
<pdfrwt beam="1">  1        1 0.22918198E+00 0.98215478E+03</pdfrwt>
<pdfrwt beam="2">  1       -1 0.21474514E-01 0.98215478E+03</pdfrwt>
<totfact> 0.12106302E+02</totfact>
</mgrwt>
</event>
<event>
 4    1  0.6376580E-005  0.7033064E+03  0.7818608E-02  0.9711594E-01
          1   -1    0    0  501    0  0.00000000000E+00  0.00000000000E+00  0.38422860407E+03  0.38422860411E+03  0.50400000000E-02 0. -1.
         -1   -1    0    0    0  501 -0.00000000000E+00 -0.00000000000E+00 -0.32183961093E+03  0.32183961097E+03  0.50400000000E-02 0.  1.
    5000001    1    1    2    0    0  0.24705843987E+03 -0.19792543762E+03  0.11707944392E+03  0.36062299948E+03  0.12700000000E+03 0.  0.
   -5000001    1    1    2    0    0 -0.24705843987E+03  0.19792543762E+03 -0.54690450775E+02  0.34544521559E+03  0.12700000000E+03 0.  0.
<mgrwt>
<rscale>  0 0.70330643E+03</rscale>
<asrwt>0</asrwt>
<pdfrwt beam="1">  1        1 0.54889801E-01 0.70330643E+03</pdfrwt>
<pdfrwt beam="2">  1       -1 0.45977087E-01 0.70330643E+03</pdfrwt>
<totfact> 0.33229819E+02</totfact>
</mgrwt>
</event>
<event>
 4    1  0.6376580E-005  0.6865734E+03  0.7818608E-02  0.9740473E-01
         -1   -1    0    0    0  501 -0.00000000000E+00  0.00000000000E+00  0.17983481038E+03  0.17983481045E+03  0.50400000000E-02 0. -1.
          1   -1    0    0  501    0  0.00000000000E+00 -0.00000000000E+00 -0.65530005224E+03  0.65530005226E+03  0.50400000000E-02 0.  1.
    5000001    1    1    2    0    0  0.15269371521E+03  0.28000138431E+03 -0.23677886991E+03  0.41702443467E+03  0.12700000000E+03 0.  0.
   -5000001    1    1    2    0    0 -0.15269371521E+03 -0.28000138431E+03 -0.23868637195E+03  0.41811042804E+03  0.12700000000E+03 0.  0.
<mgrwt>
<rscale>  0 0.68657341E+03</rscale>
<asrwt>0</asrwt>
<pdfrwt beam="1">  1        1 0.93614292E-01 0.68657341E+03</pdfrwt>
<pdfrwt beam="2">  1       -1 0.25690688E-01 0.68657341E+03</pdfrwt>
<totfact> 0.45250139E+02</totfact>
</mgrwt>
</event>
<event>
 4    1  0.6376580E-005  0.2655828E+03  0.7818608E-02  0.1103835E+00
         -1   -1    0    0    0  501 -0.00000000000E+00  0.00000000000E+00  0.57172328078E+01  0.57172350293E+01  0.50400000000E-02 0. -1.
          1   -1    0    0  501    0  0.00000000000E+00 -0.00000000000E+00 -0.30842819556E+04  0.30842819556E+04  0.50400000000E-02 0.  1.
    5000001    1    1    2    0    0 -0.30236245722E+02  0.20756888078E+02 -0.16862138314E+04  0.16913873489E+04  0.12700000000E+03 0.  0.
   -5000001    1    1    2    0    0  0.30236245722E+02 -0.20756888078E+02 -0.13923508914E+04  0.13986118417E+04  0.12700000000E+03 0.  0.
<mgrwt>
<rscale>  0 0.26558284E+03</rscale>
<asrwt>0</asrwt>
<pdfrwt beam="1">  1        1 0.44061064E+00 0.26558284E+03</pdfrwt>
<pdfrwt beam="2">  1       -1 0.81674968E-03 0.26558284E+03</pdfrwt>
<totfact> 0.22696881E+03</totfact>
</mgrwt>
</event>
<event>
 4    1  0.6376580E-005  0.8639194E+03  0.7818608E-02  0.9471843E-01
         -1   -1    0    0    0  501 -0.00000000000E+00  0.00000000000E+00  0.37082113674E+03  0.37082113677E+03  0.50400000000E-02 0. -1.
          1   -1    0    0  501    0  0.00000000000E+00 -0.00000000000E+00 -0.50317840755E+03  0.50317840757E+03  0.50400000000E-02 0.  1.
    5000001    1    1    2    0    0 -0.65885882045E+02  0.37213220725E+03 -0.23436172289E+03  0.46246918414E+03  0.12700000000E+03 0.  0.
   -5000001    1    1    2    0    0  0.65885882045E+02 -0.37213220725E+03  0.10200445208E+03  0.41153036020E+03  0.12700000000E+03 0.  0.
<mgrwt>
<rscale>  0 0.86391942E+03</rscale>
<asrwt>0</asrwt>
<pdfrwt beam="1">  1        1 0.71882630E-01 0.86391942E+03</pdfrwt>
<pdfrwt beam="2">  1       -1 0.52974448E-01 0.86391942E+03</pdfrwt>
<totfact> 0.17632113E+02</totfact>
</mgrwt>
</event>
<event>
 4    1  0.6376580E-005  0.2865971E+03  0.7818608E-02  0.1092139E+00
         -1   -1    0    0    0  501 -0.00000000000E+00  0.00000000000E+00  0.10072464533E+03  0.10072464546E+03  0.50400000000E-02 0. -1.
          1   -1    0    0  501    0  0.00000000000E+00 -0.00000000000E+00 -0.20386744549E+03  0.20386744555E+03  0.50400000000E-02 0.  1.
    5000001    1    1    2    0    0  0.25188882365E+02  0.49830845363E+02 -0.13431016560E+02  0.13938072015E+03  0.12700000000E+03 0.  0.
   -5000001    1    1    2    0    0 -0.25188882365E+02 -0.49830845363E+02 -0.89711783595E+02  0.16521137086E+03  0.12700000000E+03 0.  0.
<mgrwt>
<rscale>  0 0.28659711E+03</rscale>
<asrwt>0</asrwt>
<pdfrwt beam="1">  1        1 0.29123921E-01 0.28659711E+03</pdfrwt>
<pdfrwt beam="2">  1       -1 0.14389235E-01 0.28659711E+03</pdfrwt>
<totfact> 0.53746404E+03</totfact>
</mgrwt>
</event>
<event>
 4    1  0.6376580E-005  0.3383809E+03  0.7818608E-02  0.1067488E+00
         -1   -1    0    0    0  501 -0.00000000000E+00  0.00000000000E+00  0.93374737544E+02  0.93374737680E+02  0.50400000000E-02 0. -1.
          1   -1    0    0  501    0  0.00000000000E+00 -0.00000000000E+00 -0.30656473344E+03  0.30656473348E+03  0.50400000000E-02 0.  1.
    5000001    1    1    2    0    0  0.78845086649E+02  0.59258808329E+02 -0.44409239261E+02  0.16682126539E+03  0.12700000000E+03 0.  0.
   -5000001    1    1    2    0    0 -0.78845086649E+02 -0.59258808329E+02 -0.16878075664E+03  0.23311820578E+03  0.12700000000E+03 0.  0.
<mgrwt>
<rscale>  0 0.33838086E+03</rscale>
<asrwt>0</asrwt>
<pdfrwt beam="1">  1        1 0.43794961E-01 0.33838086E+03</pdfrwt>
<pdfrwt beam="2">  1       -1 0.13339248E-01 0.33838086E+03</pdfrwt>
<totfact> 0.36372372E+03</totfact>
</mgrwt>
</event>
<event>
 4    1  0.6376580E-005  0.1110281E+04  0.7818608E-02  0.9195229E-01
          1   -1    0    0  501    0  0.00000000000E+00  0.00000000000E+00  0.21638904040E+04  0.21638904040E+04  0.50400000000E-02 0.  1.
         -1   -1    0    0    0  501 -0.00000000000E+00 -0.00000000000E+00 -0.14241988230E+03  0.14241988239E+03  0.50400000000E-02 0. -1.
    5000001    1    1    2    0    0  0.14271408803E+03 -0.22505552268E+03  0.19873314943E+04  0.20091373192E+04  0.12700000000E+03 0.  0.
   -5000001    1    1    2    0    0 -0.14271408803E+03  0.22505552268E+03  0.34139027363E+02  0.29717296715E+03  0.12700000000E+03 0.  0.
<mgrwt>
<rscale>  0 0.11102811E+04</rscale>
<asrwt>0</asrwt>
<pdfrwt beam="1">  1        1 0.30912719E+00 0.11102811E+04</pdfrwt>
<pdfrwt beam="2">  1       -1 0.20345698E-01 0.11102811E+04</pdfrwt>
<totfact> 0.58300843E+01</totfact>
</mgrwt>
</event>
<event>
 4    1  0.6376580E-005  0.3902035E+03  0.7818608E-02  0.1047226E+00
          1   -1    0    0  501    0  0.00000000000E+00  0.00000000000E+00  0.12239227520E+04  0.12239227520E+04  0.50400000000E-02 0.  1.
         -1   -1    0    0    0  501 -0.00000000000E+00 -0.00000000000E+00 -0.31100560245E+02  0.31100560653E+02  0.50400000000E-02 0. -1.
    5000001    1    1    2    0    0 -0.15773404285E+02  0.13592974448E+03  0.41418424139E+03  0.45431627918E+03  0.12700000000E+03 0.  0.
   -5000001    1    1    2    0    0  0.15773404285E+02 -0.13592974448E+03  0.77863795040E+03  0.80070703351E+03  0.12700000000E+03 0.  0.
<mgrwt>
<rscale>  0 0.39020345E+03</rscale>
<asrwt>0</asrwt>
<pdfrwt beam="1">  1        1 0.17484609E+00 0.39020345E+03</pdfrwt>
<pdfrwt beam="2">  1       -1 0.44429376E-02 0.39020345E+03</pdfrwt>
<totfact> 0.26753892E+03</totfact>
</mgrwt>
</event>
<event>
 4    1  0.6376580E-005  0.4578031E+03  0.7818608E-02  0.1025420E+00
          1   -1    0    0  501    0  0.00000000000E+00  0.00000000000E+00  0.88825311587E+02  0.88825311730E+02  0.50400000000E-02 0.  1.
         -1   -1    0    0    0  501 -0.00000000000E+00 -0.00000000000E+00 -0.58987597683E+03  0.58987597685E+03  0.50400000000E-02 0. -1.
    5000001    1    1    2    0    0  0.23672572380E+02 -0.18717315105E+03 -0.28897769640E+03  0.36773807006E+03  0.12700000000E+03 0.  0.
   -5000001    1    1    2    0    0 -0.23672572380E+02  0.18717315105E+03 -0.21207296885E+03  0.31096321852E+03  0.12700000000E+03 0.  0.
<mgrwt>
<rscale>  0 0.45780309E+03</rscale>
<asrwt>0</asrwt>
<pdfrwt beam="1">  1        1 0.12689331E-01 0.45780309E+03</pdfrwt>
<pdfrwt beam="2">  1       -1 0.84267994E-01 0.45780309E+03</pdfrwt>
<totfact> 0.68213418E+02</totfact>
</mgrwt>
</event>
<event>
 4    1  0.6376580E-005  0.3899092E+03  0.7818608E-02  0.1047331E+00
          1   -1    0    0  501    0  0.00000000000E+00  0.00000000000E+00  0.21022274955E+04  0.21022274955E+04  0.50400000000E-02 0.  1.
         -1   -1    0    0    0  501 -0.00000000000E+00 -0.00000000000E+00 -0.18079539336E+02  0.18079540039E+02  0.50400000000E-02 0. -1.
    5000001    1    1    2    0    0 -0.11020513742E+02 -0.14083321156E+03  0.80361752553E+03  0.82576362995E+03  0.12700000000E+03 0.  0.
   -5000001    1    1    2    0    0  0.11020513742E+02  0.14083321156E+03  0.12805304306E+04  0.12945434056E+04  0.12700000000E+03 0.  0.
<mgrwt>
<rscale>  0 0.38990925E+03</rscale>
<asrwt>0</asrwt>
<pdfrwt beam="1">  1        1 0.30031795E+00 0.38990925E+03</pdfrwt>
<pdfrwt beam="2">  1       -1 0.25827937E-02 0.38990925E+03</pdfrwt>
<totfact> 0.16959986E+03</totfact>
</mgrwt>
</event>
<event>
 4    1  0.6376580E-005  0.3189614E+03  0.7818608E-02  0.1076128E+00
          1   -1    0    0  501    0  0.00000000000E+00  0.00000000000E+00  0.19411827730E+03  0.19411827736E+03  0.50400000000E-02 0.  1.
         -1   -1    0    0    0  501 -0.00000000000E+00 -0.00000000000E+00 -0.13102366310E+03  0.13102366319E+03  0.50400000000E-02 0. -1.
    5000001    1    1    2    0    0  0.47959585250E+02  0.72545880360E+02 -0.10999465388E+02  0.15431466169E+03  0.12700000000E+03 0.  0.
   -5000001    1    1    2    0    0 -0.47959585250E+02 -0.72545880360E+02  0.74094079588E+02  0.17082727887E+03  0.12700000000E+03 0.  0.
<mgrwt>
<rscale>  0 0.31896136E+03</rscale>
<asrwt>0</asrwt>
<pdfrwt beam="1">  1        1 0.27731182E-01 0.31896136E+03</pdfrwt>
<pdfrwt beam="2">  1       -1 0.18717666E-01 0.31896136E+03</pdfrwt>
<totfact> 0.37643076E+03</totfact>
</mgrwt>
</event>
<event>
 4    1  0.6376580E-005  0.3041596E+03  0.7818608E-02  0.1083180E+00
          1   -1    0    0  501    0  0.00000000000E+00  0.00000000000E+00  0.63817852031E+03  0.63817852033E+03  0.50400000000E-02 0.  1.
         -1   -1    0    0    0  501 -0.00000000000E+00 -0.00000000000E+00 -0.36241068850E+02  0.36241069201E+02  0.50400000000E-02 0. -1.
    5000001    1    1    2    0    0  0.37608780861E+02 -0.65467380995E+02  0.38088072729E+03  0.40853338517E+03  0.12700000000E+03 0.  0.
   -5000001    1    1    2    0    0 -0.37608780861E+02  0.65467380995E+02  0.22105672417E+03  0.26588620437E+03  0.12700000000E+03 0.  0.
<mgrwt>
<rscale>  0 0.30415964E+03</rscale>
<asrwt>0</asrwt>
<pdfrwt beam="1">  1        1 0.91168359E-01 0.30415964E+03</pdfrwt>
<pdfrwt beam="2">  1       -1 0.51772956E-02 0.30415964E+03</pdfrwt>
<totfact> 0.59774621E+03</totfact>
</mgrwt>
</event>
<event>
 4    1  0.6376580E-005  0.6097968E+03  0.7818608E-02  0.9885287E-01
          1   -1    0    0  501    0  0.00000000000E+00  0.00000000000E+00  0.86970931463E+02  0.86970931609E+02  0.50400000000E-02 0. -1.
         -1   -1    0    0    0  501 -0.00000000000E+00 -0.00000000000E+00 -0.10688976930E+04  0.10688976930E+04  0.50400000000E-02 0.  1.
    5000001    1    1    2    0    0 -0.21181562154E+03 -0.15645065254E+03 -0.65502379179E+03  0.71730595426E+03  0.12700000000E+03 0.  0.
   -5000001    1    1    2    0    0  0.21181562154E+03  0.15645065254E+03 -0.32690296977E+03  0.43856267039E+03  0.12700000000E+03 0.  0.
<mgrwt>
<rscale>  0 0.60979678E+03</rscale>
<asrwt>0</asrwt>
<pdfrwt beam="1">  1        1 0.12424419E-01 0.60979678E+03</pdfrwt>
<pdfrwt beam="2">  1       -1 0.15269966E+00 0.60979678E+03</pdfrwt>
<totfact> 0.16937890E+02</totfact>
</mgrwt>
</event>
<event>
 4    1  0.6376580E-005  0.3738625E+03  0.7818608E-02  0.1053226E+00
         -1   -1    0    0    0  501 -0.00000000000E+00  0.00000000000E+00  0.13593159651E+02  0.13593160586E+02  0.50400000000E-02 0. -1.
          1   -1    0    0  501    0  0.00000000000E+00 -0.00000000000E+00 -0.25706530989E+04  0.25706530989E+04  0.50400000000E-02 0.  1.
    5000001    1    1    2    0    0  0.10117076450E+03 -0.37847458190E+02 -0.69419220855E+03  0.71393261313E+03  0.12700000000E+03 0.  0.
   -5000001    1    1    2    0    0 -0.10117076450E+03  0.37847458190E+02 -0.18628677307E+04  0.18703136463E+04  0.12700000000E+03 0.  0.
<mgrwt>
<rscale>  0 0.37386254E+03</rscale>
<asrwt>0</asrwt>
<pdfrwt beam="1">  1        1 0.36723585E+00 0.37386254E+03</pdfrwt>
<pdfrwt beam="2">  1       -1 0.19418817E-02 0.37386254E+03</pdfrwt>
<totfact> 0.13376998E+03</totfact>
</mgrwt>
</event>
<event>
 4    1  0.6376580E-005  0.3727347E+03  0.7818608E-02  0.1053652E+00
         -1   -1    0    0    0  501 -0.00000000000E+00  0.00000000000E+00  0.81476149869E+01  0.81476165457E+01  0.50400000000E-02 0. -1.
          1   -1    0    0  501    0  0.00000000000E+00 -0.00000000000E+00 -0.42629396004E+04  0.42629396004E+04  0.50400000000E-02 0.  1.
    5000001    1    1    2    0    0  0.10341840006E+03 -0.67483935257E+02 -0.27910513023E+04  0.27966669124E+04  0.12700000000E+03 0.  0.
   -5000001    1    1    2    0    0 -0.10341840006E+03  0.67483935257E+02 -0.14637406832E+04  0.14744203046E+04  0.12700000000E+03 0.  0.
<mgrwt>
<rscale>  0 0.37273473E+03</rscale>
<asrwt>0</asrwt>
<pdfrwt beam="1">  1        1 0.60898994E+00 0.37273473E+03</pdfrwt>
<pdfrwt beam="2">  1       -1 0.11639478E-02 0.37273473E+03</pdfrwt>
<totfact> 0.20056365E+02</totfact>
</mgrwt>
</event>
<event>
 4    1  0.6376580E-005  0.4597662E+03  0.7818608E-02  0.1024849E+00
         -1   -1    0    0    0  501 -0.00000000000E+00  0.00000000000E+00  0.25011073812E+02  0.25011074320E+02  0.50400000000E-02 0. -1.
          1   -1    0    0  501    0  0.00000000000E+00 -0.00000000000E+00 -0.21129135521E+04  0.21129135521E+04  0.50400000000E-02 0.  1.
    5000001    1    1    2    0    0 -0.76846099777E+02 -0.15688260068E+03 -0.67781481596E+03  0.71139257670E+03  0.12700000000E+03 0.  0.
   -5000001    1    1    2    0    0  0.76846099777E+02  0.15688260068E+03 -0.14100876624E+04  0.14265320497E+04  0.12700000000E+03 0.  0.
<mgrwt>
<rscale>  0 0.45976619E+03</rscale>
<asrwt>0</asrwt>
<pdfrwt beam="1">  1        1 0.30184468E+00 0.45976619E+03</pdfrwt>
<pdfrwt beam="2">  1       -1 0.35730119E-02 0.45976619E+03</pdfrwt>
<totfact> 0.10244735E+03</totfact>
</mgrwt>
</event>
<event>
 4    1  0.6376580E-005  0.6918690E+03  0.7818608E-02  0.9731239E-01
         -1   -1    0    0    0  501 -0.00000000000E+00  0.00000000000E+00  0.91006391205E+03  0.91006391206E+03  0.50400000000E-02 0. -1.
          1   -1    0    0  501    0  0.00000000000E+00 -0.00000000000E+00 -0.13149698955E+03  0.13149698965E+03  0.50400000000E-02 0.  1.
    5000001    1    1    2    0    0  0.12747502110E+03 -0.26965339142E+03  0.20751346788E+03  0.38490735490E+03  0.12700000000E+03 0.  0.
   -5000001    1    1    2    0    0 -0.12747502110E+03  0.26965339142E+03  0.57105345462E+03  0.65665354681E+03  0.12700000000E+03 0.  0.
<mgrwt>
<rscale>  0 0.69186896E+03</rscale>
<asrwt>0</asrwt>
<pdfrwt beam="1">  1        1 0.18785284E-01 0.69186896E+03</pdfrwt>
<pdfrwt beam="2">  1       -1 0.13000913E+00 0.69186896E+03</pdfrwt>
<totfact> 0.14707945E+02</totfact>
</mgrwt>
</event>
<event>
 4    1  0.6376580E-005  0.3799973E+03  0.7818608E-02  0.1050935E+00
         -1   -1    0    0    0  501 -0.00000000000E+00  0.00000000000E+00  0.23021747708E+02  0.23021748260E+02  0.50400000000E-02 0.  1.
          1   -1    0    0  501    0  0.00000000000E+00 -0.00000000000E+00 -0.15680603268E+04  0.15680603269E+04  0.50400000000E-02 0. -1.
    5000001    1    1    2    0    0  0.10465153006E+03 -0.25672447719E+02 -0.11553453457E+04  0.11672886897E+04  0.12700000000E+03 0.  0.
   -5000001    1    1    2    0    0 -0.10465153006E+03  0.25672447719E+02 -0.38969323342E+03  0.42379338538E+03  0.12700000000E+03 0.  0.
<mgrwt>
<rscale>  0 0.37999731E+03</rscale>
<asrwt>0</asrwt>
<pdfrwt beam="1">  1        1 0.22400855E+00 0.37999731E+03</pdfrwt>
<pdfrwt beam="2">  1       -1 0.32888221E-02 0.37999731E+03</pdfrwt>
<totfact> 0.25202096E+03</totfact>
</mgrwt>
</event>
<event>
 4    1  0.6376580E-005  0.4718178E+03  0.7818608E-02  0.1021408E+00
          1   -1    0    0  501    0  0.00000000000E+00  0.00000000000E+00  0.11534025249E+03  0.11534025260E+03  0.50400000000E-02 0.  1.
         -1   -1    0    0    0  501 -0.00000000000E+00 -0.00000000000E+00 -0.48251168864E+03  0.48251168867E+03  0.50400000000E-02 0. -1.
    5000001    1    1    2    0    0 -0.18097934001E+03  0.82107872428E+02 -0.17678610880E+03  0.29474998302E+03  0.12700000000E+03 0.  0.
   -5000001    1    1    2    0    0  0.18097934001E+03 -0.82107872428E+02 -0.19038532735E+03  0.30310195825E+03  0.12700000000E+03 0.  0.
<mgrwt>
<rscale>  0 0.47181785E+03</rscale>
<asrwt>0</asrwt>
<pdfrwt beam="1">  1        1 0.16477179E-01 0.47181785E+03</pdfrwt>
<pdfrwt beam="2">  1       -1 0.68930240E-01 0.47181785E+03</pdfrwt>
<totfact> 0.72956443E+02</totfact>
</mgrwt>
</event>
<event>
 4    1  0.6376580E-005  0.4201812E+03  0.7818608E-02  0.1037007E+00
          1   -1    0    0  501    0  0.00000000000E+00  0.00000000000E+00  0.26306969623E+03  0.26306969628E+03  0.50400000000E-02 0.  1.
         -1   -1    0    0    0  501 -0.00000000000E+00 -0.00000000000E+00 -0.16778088151E+03  0.16778088158E+03  0.50400000000E-02 0. -1.
    5000001    1    1    2    0    0  0.13546028029E+03  0.28542606378E+01  0.14838068441E+03  0.23770456841E+03  0.12700000000E+03 0.  0.
   -5000001    1    1    2    0    0 -0.13546028029E+03 -0.28542606378E+01 -0.53091869682E+02  0.19314600945E+03  0.12700000000E+03 0.  0.
<mgrwt>
<rscale>  0 0.42018123E+03</rscale>
<asrwt>0</asrwt>
<pdfrwt beam="1">  1        1 0.37581385E-01 0.42018123E+03</pdfrwt>
<pdfrwt beam="2">  1       -1 0.23968698E-01 0.42018123E+03</pdfrwt>
<totfact> 0.17095904E+03</totfact>
</mgrwt>
</event>
<event>
 4    1  0.6376580E-005  0.4323645E+03  0.7818608E-02  0.1033116E+00
         -1   -1    0    0    0  501 -0.00000000000E+00  0.00000000000E+00  0.21592378856E+02  0.21592379444E+02  0.50400000000E-02 0.  1.
          1   -1    0    0  501    0  0.00000000000E+00 -0.00000000000E+00 -0.21644099593E+04  0.21644099593E+04  0.50400000000E-02 0. -1.
    5000001    1    1    2    0    0  0.80214069052E+02 -0.10279836579E+03 -0.16611117164E+04  0.16710544382E+04  0.12700000000E+03 0.  0.
   -5000001    1    1    2    0    0 -0.80214069052E+02  0.10279836579E+03 -0.48170586405E+03  0.51494790061E+03  0.12700000000E+03 0.  0.
<mgrwt>
<rscale>  0 0.43236448E+03</rscale>
<asrwt>0</asrwt>
<pdfrwt beam="1">  1        1 0.30920128E+00 0.43236448E+03</pdfrwt>
<pdfrwt beam="2">  1       -1 0.30846270E-02 0.43236448E+03</pdfrwt>
<totfact> 0.11898523E+03</totfact>
</mgrwt>
</event>
<event>
 4    1  0.6376580E-005  0.5265212E+03  0.7818608E-02  0.1007079E+00
          1   -1    0    0  501    0  0.00000000000E+00  0.00000000000E+00  0.18850669021E+03  0.18850669028E+03  0.50400000000E-02 0.  1.
         -1   -1    0    0    0  501 -0.00000000000E+00 -0.00000000000E+00 -0.36765886164E+03  0.36765886167E+03  0.50400000000E-02 0. -1.
    5000001    1    1    2    0    0  0.16811062144E+03  0.14985506680E+03 -0.14196093414E+03  0.29495699501E+03  0.12700000000E+03 0.  0.
   -5000001    1    1    2    0    0 -0.16811062144E+03 -0.14985506680E+03 -0.37191237293E+02  0.26120855694E+03  0.12700000000E+03 0.  0.
<mgrwt>
<rscale>  0 0.52652124E+03</rscale>
<asrwt>0</asrwt>
<pdfrwt beam="1">  1        1 0.26929527E-01 0.52652124E+03</pdfrwt>
<pdfrwt beam="2">  1       -1 0.52522694E-01 0.52652124E+03</pdfrwt>
<totfact> 0.65213460E+02</totfact>
</mgrwt>
</event>
<event>
 4    1  0.6376580E-005  0.4706485E+03  0.7818608E-02  0.1021737E+00
         -1   -1    0    0    0  501 -0.00000000000E+00  0.00000000000E+00  0.25561942746E+03  0.25561942751E+03  0.50400000000E-02 0. -1.
          1   -1    0    0  501    0  0.00000000000E+00 -0.00000000000E+00 -0.21664039987E+03  0.21664039992E+03  0.50400000000E-02 0.  1.
    5000001    1    1    2    0    0  0.10510502186E+03 -0.16760522791E+03  0.89694902012E+01  0.23526161989E+03  0.12700000000E+03 0.  0.
   -5000001    1    1    2    0    0 -0.10510502186E+03  0.16760522791E+03  0.30009537389E+02  0.23699820754E+03  0.12700000000E+03 0.  0.
<mgrwt>
<rscale>  0 0.47064847E+03</rscale>
<asrwt>0</asrwt>
<pdfrwt beam="1">  1        1 0.30948629E-01 0.47064847E+03</pdfrwt>
<pdfrwt beam="2">  1       -1 0.36517061E-01 0.47064847E+03</pdfrwt>
<totfact> 0.10618728E+03</totfact>
</mgrwt>
</event>
<event>
 4    1  0.6376580E-005  0.7612214E+03  0.7818608E-02  0.9617908E-01
         -1   -1    0    0    0  501 -0.00000000000E+00  0.00000000000E+00  0.93528666443E+02  0.93528666579E+02  0.50400000000E-02 0.  1.
          1   -1    0    0  501    0  0.00000000000E+00 -0.00000000000E+00 -0.15488781820E+04  0.15488781820E+04  0.50400000000E-02 0. -1.
    5000001    1    1    2    0    0  0.67668715232E+02  0.31481719482E+03 -0.10691380717E+04  0.11237767294E+04  0.12700000000E+03 0.  0.
   -5000001    1    1    2    0    0 -0.67668715232E+02 -0.31481719482E+03 -0.38621144390E+03  0.51863011923E+03  0.12700000000E+03 0.  0.
<mgrwt>
<rscale>  0 0.76122142E+03</rscale>
<asrwt>0</asrwt>
<pdfrwt beam="1">  1        1 0.22126830E+00 0.76122142E+03</pdfrwt>
<pdfrwt beam="2">  1       -1 0.13361239E-01 0.76122142E+03</pdfrwt>
<totfact> 0.29130525E+02</totfact>
</mgrwt>
</event>
<event>
 4    1  0.6376580E-005  0.2940866E+03  0.7818608E-02  0.1088235E+00
         -1   -1    0    0    0  501 -0.00000000000E+00  0.00000000000E+00  0.52121137042E+03  0.52121137045E+03  0.50400000000E-02 0.  1.
          1   -1    0    0  501    0  0.00000000000E+00 -0.00000000000E+00 -0.41483601210E+02  0.41483601516E+02  0.50400000000E-02 0. -1.
    5000001    1    1    2    0    0  0.51120780458E+02 -0.44635428547E+02  0.29685098845E+03  0.32993206121E+03  0.12700000000E+03 0.  0.
   -5000001    1    1    2    0    0 -0.51120780458E+02  0.44635428547E+02  0.18287678077E+03  0.23276291075E+03  0.12700000000E+03 0.  0.
<mgrwt>
<rscale>  0 0.29408655E+03</rscale>
<asrwt>0</asrwt>
<pdfrwt beam="1">  1        1 0.59262293E-02 0.29408655E+03</pdfrwt>
<pdfrwt beam="2">  1       -1 0.74458761E-01 0.29408655E+03</pdfrwt>
<totfact> 0.24872822E+03</totfact>
</mgrwt>
</event>
<event>
 4    1  0.6376580E-005  0.4825236E+03  0.7818608E-02  0.1018444E+00
         -1   -1    0    0    0  501 -0.00000000000E+00  0.00000000000E+00  0.21530591644E+03  0.21530591650E+03  0.50400000000E-02 0. -1.
          1   -1    0    0  501    0  0.00000000000E+00 -0.00000000000E+00 -0.27034671811E+03  0.27034671815E+03  0.50400000000E-02 0.  1.
    5000001    1    1    2    0    0  0.60131370099E+02 -0.12398016208E+03 -0.18046432109E+03  0.26016001508E+03  0.12700000000E+03 0.  0.
   -5000001    1    1    2    0    0 -0.60131370099E+02  0.12398016208E+03  0.12542351943E+03  0.22549261958E+03  0.12700000000E+03 0.  0.
<mgrwt>
<rscale>  0 0.48252357E+03</rscale>
<asrwt>0</asrwt>
<pdfrwt beam="1">  1        1 0.38620960E-01 0.48252357E+03</pdfrwt>
<pdfrwt beam="2">  1       -1 0.30757988E-01 0.48252357E+03</pdfrwt>
<totfact> 0.10804473E+03</totfact>
</mgrwt>
</event>
<event>
 4    1  0.6376580E-005  0.3108778E+03  0.7818608E-02  0.1079926E+00
          1   -1    0    0  501    0  0.00000000000E+00  0.00000000000E+00  0.37204383162E+02  0.37204383504E+02  0.50400000000E-02 0.  1.
         -1   -1    0    0    0  501 -0.00000000000E+00 -0.00000000000E+00 -0.64941961213E+03  0.64941961215E+03  0.50400000000E-02 0. -1.
    5000001    1    1    2    0    0 -0.12074062278E+02  0.56677200195E+02 -0.45710916065E+03  0.47794965504E+03  0.12700000000E+03 0.  0.
   -5000001    1    1    2    0    0  0.12074062278E+02 -0.56677200195E+02 -0.15510606832E+03  0.20867434061E+03  0.12700000000E+03 0.  0.
<mgrwt>
<rscale>  0 0.31087783E+03</rscale>
<asrwt>0</asrwt>
<pdfrwt beam="1">  1        1 0.53149123E-02 0.31087783E+03</pdfrwt>
<pdfrwt beam="2">  1       -1 0.92774224E-01 0.31087783E+03</pdfrwt>
<totfact> 0.18228224E+03</totfact>
</mgrwt>
</event>
<event>
 4    1  0.6376580E-005  0.5092431E+03  0.7818608E-02  0.1011394E+00
          1   -1    0    0  501    0  0.00000000000E+00  0.00000000000E+00  0.20819124870E+03  0.20819124876E+03  0.50400000000E-02 0.  1.
         -1   -1    0    0    0  501 -0.00000000000E+00 -0.00000000000E+00 -0.31140660096E+03  0.31140660100E+03  0.50400000000E-02 0. -1.
    5000001    1    1    2    0    0  0.44419182807E+02 -0.80164798888E+02 -0.25644755310E+03  0.30048927814E+03  0.12700000000E+03 0.  0.
   -5000001    1    1    2    0    0 -0.44419182807E+02  0.80164798888E+02  0.15323220085E+03  0.21910857162E+03  0.12700000000E+03 0.  0.
<mgrwt>
<rscale>  0 0.50924308E+03</rscale>
<asrwt>0</asrwt>
<pdfrwt beam="1">  1        1 0.29741607E-01 0.50924308E+03</pdfrwt>
<pdfrwt beam="2">  1       -1 0.44486657E-01 0.50924308E+03</pdfrwt>
<totfact> 0.78243434E+02</totfact>
</mgrwt>
</event>
<event>
 4    1  0.6376580E-005  0.1000292E+04  0.7818608E-02  0.9308225E-01
         -1   -1    0    0    0  501 -0.00000000000E+00  0.00000000000E+00  0.83941077720E+02  0.83941077871E+02  0.50400000000E-02 0. -1.
          1   -1    0    0  501    0  0.00000000000E+00 -0.00000000000E+00 -0.29800184653E+04  0.29800184653E+04  0.50400000000E-02 0.  1.
    5000001    1    1    2    0    0 -0.28375412815E+03 -0.37660913534E+03 -0.11171976185E+04  0.12192663223E+04  0.12700000000E+03 0.  0.
   -5000001    1    1    2    0    0  0.28375412815E+03  0.37660913534E+03 -0.17788797691E+04  0.18446932209E+04  0.12700000000E+03 0.  0.
<mgrwt>
<rscale>  0 0.10002919E+04</rscale>
<asrwt>0</asrwt>
<pdfrwt beam="1">  1        1 0.42571686E+00 0.10002919E+04</pdfrwt>
<pdfrwt beam="2">  1       -1 0.11991584E-01 0.10002919E+04</pdfrwt>
<totfact> 0.42453328E+01</totfact>
</mgrwt>
</event>
<event>
 4    1  0.6376580E-005  0.3029723E+03  0.7818608E-02  0.1083764E+00
          1   -1    0    0  501    0  0.00000000000E+00  0.00000000000E+00  0.13999624816E+03  0.13999624825E+03  0.50400000000E-02 0.  1.
         -1   -1    0    0    0  501 -0.00000000000E+00 -0.00000000000E+00 -0.16391909834E+03  0.16391909842E+03  0.50400000000E-02 0. -1.
    5000001    1    1    2    0    0  0.62849367489E+02 -0.19408555847E+02 -0.62039991436E+02  0.15589963301E+03  0.12700000000E+03 0.  0.
   -5000001    1    1    2    0    0 -0.62849367489E+02  0.19408555847E+02  0.38117141250E+02  0.14801571366E+03  0.12700000000E+03 0.  0.
<mgrwt>
<rscale>  0 0.30297233E+03</rscale>
<asrwt>0</asrwt>
<pdfrwt beam="1">  1        1 0.19999464E-01 0.30297233E+03</pdfrwt>
<pdfrwt beam="2">  1       -1 0.23417014E-01 0.30297233E+03</pdfrwt>
<totfact> 0.39596636E+03</totfact>
</mgrwt>
</event>
<event>
 4    1  0.6376580E-005  0.3648069E+03  0.7818608E-02  0.1056697E+00
          1   -1    0    0  501    0  0.00000000000E+00  0.00000000000E+00  0.14817733521E+04  0.14817733521E+04  0.50400000000E-02 0.  1.
         -1   -1    0    0    0  501 -0.00000000000E+00 -0.00000000000E+00 -0.22453518076E+02  0.22453518641E+02  0.50400000000E-02 0. -1.
    5000001    1    1    2    0    0 -0.43242426320E+02  0.98971772580E+02  0.10348075238E+04  0.10481511964E+04  0.12700000000E+03 0.  0.
   -5000001    1    1    2    0    0  0.43242426320E+02 -0.98971772580E+02  0.42451231022E+03  0.45607567435E+03  0.12700000000E+03 0.  0.
<mgrwt>
<rscale>  0 0.36480694E+03</rscale>
<asrwt>0</asrwt>
<pdfrwt beam="1">  1        1 0.21168192E+00 0.36480694E+03</pdfrwt>
<pdfrwt beam="2">  1       -1 0.32076453E-02 0.36480694E+03</pdfrwt>
<totfact> 0.29646855E+03</totfact>
</mgrwt>
</event>
<event>
 4    1  0.6376580E-005  0.3572584E+03  0.7818608E-02  0.1059675E+00
         -1   -1    0    0    0  501 -0.00000000000E+00  0.00000000000E+00  0.15824721506E+03  0.15824721514E+03  0.50400000000E-02 0. -1.
          1   -1    0    0  501    0  0.00000000000E+00 -0.00000000000E+00 -0.20163637439E+03  0.20163637445E+03  0.50400000000E-02 0.  1.
    5000001    1    1    2    0    0  0.62145173135E+02 -0.83789647559E+02  0.48795801957E+02  0.17144316222E+03  0.12700000000E+03 0.  0.
   -5000001    1    1    2    0    0 -0.62145173135E+02  0.83789647559E+02 -0.92184961282E+02  0.18844042737E+03  0.12700000000E+03 0.  0.
<mgrwt>
<rscale>  0 0.35725842E+03</rscale>
<asrwt>0</asrwt>
<pdfrwt beam="1">  1        1 0.28805196E-01 0.35725842E+03</pdfrwt>
<pdfrwt beam="2">  1       -1 0.22606745E-01 0.35725842E+03</pdfrwt>
<totfact> 0.26382814E+03</totfact>
</mgrwt>
</event>
<event>
 4    1  0.6376580E-005  0.6994951E+03  0.7818608E-02  0.9718096E-01
          1   -1    0    0  501    0  0.00000000000E+00  0.00000000000E+00  0.19098166757E+04  0.19098166757E+04  0.50400000000E-02 0.  1.
         -1   -1    0    0    0  501 -0.00000000000E+00 -0.00000000000E+00 -0.64049789764E+02  0.64049789962E+02  0.50400000000E-02 0. -1.
    5000001    1    1    2    0    0  0.31837683402E+03  0.64233902956E+02  0.99778489397E+03  0.10569737449E+04  0.12700000000E+03 0.  0.
   -5000001    1    1    2    0    0 -0.31837683402E+03 -0.64233902956E+02  0.84798199192E+03  0.91689272074E+03  0.12700000000E+03 0.  0.
<mgrwt>
<rscale>  0 0.69949512E+03</rscale>
<asrwt>0</asrwt>
<pdfrwt beam="1">  1        1 0.27283092E+00 0.69949512E+03</pdfrwt>
<pdfrwt beam="2">  1       -1 0.91499710E-02 0.69949512E+03</pdfrwt>
<totfact> 0.31688518E+02</totfact>
</mgrwt>
</event>
<event>
 4    1  0.6376580E-005  0.3268656E+03  0.7818608E-02  0.1072532E+00
          1   -1    0    0  501    0  0.00000000000E+00  0.00000000000E+00  0.98618975964E+03  0.98618975965E+03  0.50400000000E-02 0.  1.
         -1   -1    0    0    0  501 -0.00000000000E+00 -0.00000000000E+00 -0.27084321219E+02  0.27084321688E+02  0.50400000000E-02 0. -1.
    5000001    1    1    2    0    0  0.43933872216E+02 -0.64946983220E+02  0.68595088390E+03  0.70200136102E+03  0.12700000000E+03 0.  0.
   -5000001    1    1    2    0    0 -0.43933872216E+02  0.64946983220E+02  0.27315455452E+03  0.31127272032E+03  0.12700000000E+03 0.  0.
<mgrwt>
<rscale>  0 0.32686560E+03</rscale>
<asrwt>0</asrwt>
<pdfrwt beam="1">  1        1 0.14088428E+00 0.32686560E+03</pdfrwt>
<pdfrwt beam="2">  1       -1 0.38691880E-02 0.32686560E+03</pdfrwt>
<totfact> 0.48125141E+03</totfact>
</mgrwt>
</event>
<event>
 4    1  0.6376580E-005  0.2765965E+03  0.7818608E-02  0.1097562E+00
         -1   -1    0    0    0  501 -0.00000000000E+00  0.00000000000E+00  0.33733693759E+02  0.33733694136E+02  0.50400000000E-02 0. -1.
          1   -1    0    0  501    0  0.00000000000E+00 -0.00000000000E+00 -0.56698241167E+03  0.56698241169E+03  0.50400000000E-02 0.  1.
    5000001    1    1    2    0    0  0.23819756365E+02  0.42194699196E+02 -0.32197952477E+03  0.34949619141E+03  0.12700000000E+03 0.  0.
   -5000001    1    1    2    0    0 -0.23819756365E+02 -0.42194699196E+02 -0.21126919313E+03  0.25121991442E+03  0.12700000000E+03 0.  0.
<mgrwt>
<rscale>  0 0.27659654E+03</rscale>
<asrwt>0</asrwt>
<pdfrwt beam="1">  1        1 0.80997482E-01 0.27659654E+03</pdfrwt>
<pdfrwt beam="2">  1       -1 0.48190995E-02 0.27659654E+03</pdfrwt>
<totfact> 0.78012251E+03</totfact>
</mgrwt>
</event>
<event>
 4    1  0.6376580E-005  0.4036434E+03  0.7818608E-02  0.1042525E+00
          1   -1    0    0  501    0  0.00000000000E+00  0.00000000000E+00  0.42967270072E+03  0.42967270075E+03  0.50400000000E-02 0.  1.
         -1   -1    0    0    0  501 -0.00000000000E+00 -0.00000000000E+00 -0.94797720901E+02  0.94797721035E+02  0.50400000000E-02 0. -1.
    5000001    1    1    2    0    0 -0.12926760576E+03 -0.62166014136E+02  0.24990487503E+03  0.31489073307E+03  0.12700000000E+03 0.  0.
   -5000001    1    1    2    0    0  0.12926760576E+03  0.62166014136E+02  0.84970104796E+02  0.20957968872E+03  0.12700000000E+03 0.  0.
<mgrwt>
<rscale>  0 0.40364337E+03</rscale>
<asrwt>0</asrwt>
<pdfrwt beam="1">  1        1 0.61381814E-01 0.40364337E+03</pdfrwt>
<pdfrwt beam="2">  1       -1 0.13542532E-01 0.40364337E+03</pdfrwt>
<totfact> 0.23122992E+03</totfact>
</mgrwt>
</event>
<event>
 4    1  0.6376580E-005  0.4063427E+03  0.7818608E-02  0.1041605E+00
          1   -1    0    0  501    0  0.00000000000E+00  0.00000000000E+00  0.13478638097E+03  0.13478638106E+03  0.50400000000E-02 0.  1.
         -1   -1    0    0    0  501 -0.00000000000E+00 -0.00000000000E+00 -0.30625195328E+03  0.30625195333E+03  0.50400000000E-02 0. -1.
    5000001    1    1    2    0    0 -0.11024471570E+03 -0.10042814914E+03 -0.27183501604E+02  0.19775655043E+03  0.12700000000E+03 0.  0.
   -5000001    1    1    2    0    0  0.11024471570E+03  0.10042814914E+03 -0.14428207071E+03  0.24328178396E+03  0.12700000000E+03 0.  0.
<mgrwt>
<rscale>  0 0.40634268E+03</rscale>
<asrwt>0</asrwt>
<pdfrwt beam="1">  1        1 0.19255197E-01 0.40634268E+03</pdfrwt>
<pdfrwt beam="2">  1       -1 0.43750279E-01 0.40634268E+03</pdfrwt>
<totfact> 0.14171513E+03</totfact>
</mgrwt>
</event>
<event>
 4    1  0.6376580E-005  0.3720423E+03  0.7818608E-02  0.1053915E+00
         -1   -1    0    0    0  501 -0.00000000000E+00  0.00000000000E+00  0.27819591126E+02  0.27819591582E+02  0.50400000000E-02 0.  1.
          1   -1    0    0  501    0  0.00000000000E+00 -0.00000000000E+00 -0.12438670894E+04  0.12438670894E+04  0.50400000000E-02 0. -1.
    5000001    1    1    2    0    0 -0.92311656556E+02 -0.99456395566E+02 -0.63490715199E+03  0.66155053337E+03  0.12700000000E+03 0.  0.
   -5000001    1    1    2    0    0  0.92311656556E+02  0.99456395566E+02 -0.58114034627E+03  0.61013614761E+03  0.12700000000E+03 0.  0.
<mgrwt>
<rscale>  0 0.37204233E+03</rscale>
<asrwt>0</asrwt>
<pdfrwt beam="1">  1        1 0.17769526E+00 0.37204233E+03</pdfrwt>
<pdfrwt beam="2">  1       -1 0.39742281E-02 0.37204233E+03</pdfrwt>
<totfact> 0.30679211E+03</totfact>
</mgrwt>
</event>
<event>
 4    1  0.6376580E-005  0.3350102E+03  0.7818608E-02  0.1068941E+00
         -1   -1    0    0    0  501 -0.00000000000E+00  0.00000000000E+00  0.18656909732E+02  0.18656910413E+02  0.50400000000E-02 0. -1.
          1   -1    0    0  501    0  0.00000000000E+00 -0.00000000000E+00 -0.15038906423E+04  0.15038906423E+04  0.50400000000E-02 0.  1.
    5000001    1    1    2    0    0  0.71197830881E+02  0.81886504290E+02 -0.79909328568E+03  0.81636610043E+03  0.12700000000E+03 0.  0.
   -5000001    1    1    2    0    0 -0.71197830881E+02 -0.81886504290E+02 -0.68614044684E+03  0.70618145225E+03  0.12700000000E+03 0.  0.
<mgrwt>
<rscale>  0 0.33501016E+03</rscale>
<asrwt>0</asrwt>
<pdfrwt beam="1">  1        1 0.21484144E+00 0.33501016E+03</pdfrwt>
<pdfrwt beam="2">  1       -1 0.26652738E-02 0.33501016E+03</pdfrwt>
<totfact> 0.37796522E+03</totfact>
</mgrwt>
</event>
<event>
 4    1  0.6376580E-005  0.4813258E+03  0.7818608E-02  0.1018771E+00
         -1   -1    0    0    0  501 -0.00000000000E+00  0.00000000000E+00  0.14891037696E+03  0.14891037704E+03  0.50400000000E-02 0. -1.
          1   -1    0    0  501    0  0.00000000000E+00 -0.00000000000E+00 -0.38894961447E+03  0.38894961450E+03  0.50400000000E-02 0.  1.
    5000001    1    1    2    0    0 -0.18783170980E+03 -0.79087670644E+02 -0.13782972516E+03  0.27687839206E+03  0.12700000000E+03 0.  0.
   -5000001    1    1    2    0    0  0.18783170980E+03  0.79087670644E+02 -0.10220951235E+03  0.26098159948E+03  0.12700000000E+03 0.  0.
<mgrwt>
<rscale>  0 0.48132581E+03</rscale>
<asrwt>0</asrwt>
<pdfrwt beam="1">  1        1 0.55564230E-01 0.48132581E+03</pdfrwt>
<pdfrwt beam="2">  1       -1 0.21272911E-01 0.48132581E+03</pdfrwt>
<totfact> 0.12650612E+03</totfact>
</mgrwt>
</event>
<event>
 4    1  0.6376580E-005  0.2722263E+03  0.7818608E-02  0.1100012E+00
         -1   -1    0    0    0  501 -0.00000000000E+00  0.00000000000E+00  0.55970633501E+02  0.55970633727E+02  0.50400000000E-02 0. -1.
          1   -1    0    0  501    0  0.00000000000E+00 -0.00000000000E+00 -0.33100922081E+03  0.33100922085E+03  0.50400000000E-02 0.  1.
    5000001    1    1    2    0    0 -0.45364234715E+02  0.14521815425E+02 -0.12137380323E+03  0.18201482639E+03  0.12700000000E+03 0.  0.
   -5000001    1    1    2    0    0  0.45364234715E+02 -0.14521815425E+02 -0.15366478408E+03  0.20496502819E+03  0.12700000000E+03 0.  0.
<mgrwt>
<rscale>  0 0.27222635E+03</rscale>
<asrwt>0</asrwt>
<pdfrwt beam="1">  1        1 0.47287030E-01 0.27222635E+03</pdfrwt>
<pdfrwt beam="2">  1       -1 0.79958050E-02 0.27222635E+03</pdfrwt>
<totfact> 0.72631710E+03</totfact>
</mgrwt>
</event>
<event>
 4    1  0.6376580E-005  0.3327096E+03  0.7818608E-02  0.1069944E+00
          1   -1    0    0  501    0  0.00000000000E+00  0.00000000000E+00  0.19973011121E+04  0.19973011122E+04  0.50400000000E-02 0.  1.
         -1   -1    0    0    0  501 -0.00000000000E+00 -0.00000000000E+00 -0.13855656219E+02  0.13855657136E+02  0.50400000000E-02 0. -1.
    5000001    1    1    2    0    0  0.10452249839E+03 -0.14605532788E+02  0.11136182965E+04  0.11257943794E+04  0.12700000000E+03 0.  0.
   -5000001    1    1    2    0    0 -0.10452249839E+03  0.14605532788E+02  0.86982715941E+03  0.88536238993E+03  0.12700000000E+03 0.  0.
<mgrwt>
<rscale>  0 0.33270959E+03</rscale>
<asrwt>0</asrwt>
<pdfrwt beam="1">  1        1 0.28532864E+00 0.33270959E+03</pdfrwt>
<pdfrwt beam="2">  1       -1 0.19793801E-02 0.33270959E+03</pdfrwt>
<totfact> 0.29167745E+03</totfact>
</mgrwt>
</event>
<event>
 4    1  0.6376580E-005  0.3155944E+03  0.7818608E-02  0.1077695E+00
         -1   -1    0    0    0  501 -0.00000000000E+00  0.00000000000E+00  0.36047037845E+02  0.36047038197E+02  0.50400000000E-02 0. -1.
          1   -1    0    0  501    0  0.00000000000E+00 -0.00000000000E+00 -0.69076270354E+03  0.69076270356E+03  0.50400000000E-02 0.  1.
    5000001    1    1    2    0    0 -0.50893408702E+02 -0.76713030200E+02 -0.28774100508E+03  0.32771773534E+03  0.12700000000E+03 0.  0.
   -5000001    1    1    2    0    0  0.50893408702E+02  0.76713030200E+02 -0.36697466061E+03  0.39909200642E+03  0.12700000000E+03 0.  0.
<mgrwt>
<rscale>  0 0.31559436E+03</rscale>
<asrwt>0</asrwt>
<pdfrwt beam="1">  1        1 0.98680378E-01 0.31559436E+03</pdfrwt>
<pdfrwt beam="2">  1       -1 0.51495773E-02 0.31559436E+03</pdfrwt>
<totfact> 0.53958921E+03</totfact>
</mgrwt>
</event>
<event>
 4    1  0.6376580E-005  0.3840408E+03  0.7818608E-02  0.1049450E+00
          1   -1    0    0  501    0  0.00000000000E+00  0.00000000000E+00  0.20370037328E+04  0.20370037328E+04  0.50400000000E-02 0.  1.
         -1   -1    0    0    0  501 -0.00000000000E+00 -0.00000000000E+00 -0.18101012539E+02  0.18101013241E+02  0.50400000000E-02 0. -1.
    5000001    1    1    2    0    0 -0.99188225529E+02 -0.88006591824E+02  0.13102366709E+04  0.13230391521E+04  0.12700000000E+03 0.  0.
   -5000001    1    1    2    0    0  0.99188225529E+02  0.88006591824E+02  0.70866604940E+03  0.73206559396E+03  0.12700000000E+03 0.  0.
<mgrwt>
<rscale>  0 0.38404078E+03</rscale>
<asrwt>0</asrwt>
<pdfrwt beam="1">  1        1 0.29100048E+00 0.38404078E+03</pdfrwt>
<pdfrwt beam="2">  1       -1 0.25858594E-02 0.38404078E+03</pdfrwt>
<totfact> 0.18557483E+03</totfact>
</mgrwt>
</event>
<event>
 4    1  0.6376580E-005  0.2879905E+03  0.7818608E-02  0.1091403E+00
          1   -1    0    0  501    0  0.00000000000E+00  0.00000000000E+00  0.21186349776E+04  0.21186349776E+04  0.50400000000E-02 0.  1.
         -1   -1    0    0    0  501 -0.00000000000E+00 -0.00000000000E+00 -0.97867848458E+01  0.97867861436E+01  0.50400000000E-02 0. -1.
    5000001    1    1    2    0    0 -0.39348083201E+02  0.45796174525E+02  0.82542705511E+03  0.83731976243E+03  0.12700000000E+03 0.  0.
   -5000001    1    1    2    0    0  0.39348083201E+02 -0.45796174525E+02  0.12834211377E+04  0.12911020013E+04  0.12700000000E+03 0.  0.
<mgrwt>
<rscale>  0 0.28799046E+03</rscale>
<asrwt>0</asrwt>
<pdfrwt beam="1">  1        1 0.30266234E+00 0.28799046E+03</pdfrwt>
<pdfrwt beam="2">  1       -1 0.13981113E-02 0.28799046E+03</pdfrwt>
<totfact> 0.40982777E+03</totfact>
</mgrwt>
</event>
<event>
 4    1  0.6376580E-005  0.3424856E+03  0.7818608E-02  0.1065742E+00
         -1   -1    0    0    0  501 -0.00000000000E+00  0.00000000000E+00  0.49316595743E+02  0.49316596000E+02  0.50400000000E-02 0. -1.
          1   -1    0    0  501    0  0.00000000000E+00 -0.00000000000E+00 -0.59460914846E+03  0.59460914848E+03  0.50400000000E-02 0.  1.
    5000001    1    1    2    0    0  0.10570077599E+03 -0.17472521573E+02 -0.35055719660E+03  0.38793980350E+03  0.12700000000E+03 0.  0.
   -5000001    1    1    2    0    0 -0.10570077599E+03  0.17472521573E+02 -0.19473535612E+03  0.25598594098E+03  0.12700000000E+03 0.  0.
<mgrwt>
<rscale>  0 0.34248561E+03</rscale>
<asrwt>0</asrwt>
<pdfrwt beam="1">  1        1 0.84944160E-01 0.34248561E+03</pdfrwt>
<pdfrwt beam="2">  1       -1 0.70452284E-02 0.34248561E+03</pdfrwt>
<totfact> 0.41426910E+03</totfact>
</mgrwt>
</event>
<event>
 4    1  0.6376580E-005  0.3466942E+03  0.7818608E-02  0.1063980E+00
          1   -1    0    0  501    0  0.00000000000E+00  0.00000000000E+00  0.36720279578E+02  0.36720279924E+02  0.50400000000E-02 0.  1.
         -1   -1    0    0    0  501 -0.00000000000E+00 -0.00000000000E+00 -0.81832752663E+03  0.81832752665E+03  0.50400000000E-02 0. -1.
    5000001    1    1    2    0    0 -0.77543402526E+02  0.21977159429E+02 -0.60330896886E+03  0.62177703940E+03  0.12700000000E+03 0.  0.
   -5000001    1    1    2    0    0  0.77543402526E+02 -0.21977159429E+02 -0.17829827819E+03  0.23327076718E+03  0.12700000000E+03 0.  0.
<mgrwt>
<rscale>  0 0.34669419E+03</rscale>
<asrwt>0</asrwt>
<pdfrwt beam="1">  1        1 0.52457548E-02 0.34669419E+03</pdfrwt>
<pdfrwt beam="2">  1       -1 0.11690392E+00 0.34669419E+03</pdfrwt>
<totfact> 0.10996393E+03</totfact>
</mgrwt>
</event>
<event>
 4    1  0.6376580E-005  0.3325561E+03  0.7818608E-02  0.1070011E+00
         -1   -1    0    0    0  501 -0.00000000000E+00  0.00000000000E+00  0.18082513564E+03  0.18082513571E+03  0.50400000000E-02 0. -1.
          1   -1    0    0  501    0  0.00000000000E+00 -0.00000000000E+00 -0.15290128397E+03  0.15290128405E+03  0.50400000000E-02 0.  1.
    5000001    1    1    2    0    0  0.58479504026E+02 -0.17220713935E+02 -0.74683464025E+02  0.15944599455E+03  0.12700000000E+03 0.  0.
   -5000001    1    1    2    0    0 -0.58479504026E+02  0.17220713935E+02  0.10260731570E+03  0.17428042522E+03  0.12700000000E+03 0.  0.
<mgrwt>
<rscale>  0 0.33255613E+03</rscale>
<asrwt>0</asrwt>
<pdfrwt beam="1">  1        1 0.21843041E-01 0.33255613E+03</pdfrwt>
<pdfrwt beam="2">  1       -1 0.25832162E-01 0.33255613E+03</pdfrwt>
<totfact> 0.30072179E+03</totfact>
</mgrwt>
</event>
<event>
 4    1  0.6376580E-005  0.3478034E+03  0.7818608E-02  0.1063520E+00
          1   -1    0    0  501    0  0.00000000000E+00  0.00000000000E+00  0.13733188640E+04  0.13733188641E+04  0.50400000000E-02 0. -1.
         -1   -1    0    0    0  501 -0.00000000000E+00 -0.00000000000E+00 -0.22020958908E+02  0.22020959485E+02  0.50400000000E-02 0.  1.
    5000001    1    1    2    0    0  0.95615440486E+02 -0.65863608090E+02  0.77654324852E+03  0.79537962266E+03  0.12700000000E+03 0.  0.
   -5000001    1    1    2    0    0 -0.95615440486E+02  0.65863608090E+02  0.57475465662E+03  0.59996020088E+03  0.12700000000E+03 0.  0.
<mgrwt>
<rscale>  0 0.34780339E+03</rscale>
<asrwt>0</asrwt>
<pdfrwt beam="1">  1        1 0.19618845E+00 0.34780339E+03</pdfrwt>
<pdfrwt beam="2">  1       -1 0.31458506E-02 0.34780339E+03</pdfrwt>
<totfact> 0.35786195E+03</totfact>
</mgrwt>
</event>
<event>
 4    1  0.6376580E-005  0.3491178E+03  0.7818608E-02  0.1062978E+00
         -1   -1    0    0    0  501 -0.00000000000E+00  0.00000000000E+00  0.47045524350E+03  0.47045524353E+03  0.50400000000E-02 0. -1.
          1   -1    0    0  501    0  0.00000000000E+00 -0.00000000000E+00 -0.64768792231E+02  0.64768792427E+02  0.50400000000E-02 0.  1.
    5000001    1    1    2    0    0 -0.11899685008E+03 -0.12716194953E+02  0.19601010355E+03  0.26243268211E+03  0.12700000000E+03 0.  0.
   -5000001    1    1    2    0    0  0.11899685008E+03  0.12716194953E+02  0.20967634772E+03  0.27279135385E+03  0.12700000000E+03 0.  0.
<mgrwt>
<rscale>  0 0.34911785E+03</rscale>
<asrwt>0</asrwt>
<pdfrwt beam="1">  1        1 0.92526844E-02 0.34911785E+03</pdfrwt>
<pdfrwt beam="2">  1       -1 0.67207893E-01 0.34911785E+03</pdfrwt>
<totfact> 0.16647946E+03</totfact>
</mgrwt>
</event>
<event>
 4    1  0.6376580E-005  0.2795249E+03  0.7818608E-02  0.1095949E+00
         -1   -1    0    0    0  501 -0.00000000000E+00  0.00000000000E+00  0.83847030166E+01  0.83847045313E+01  0.50400000000E-02 0. -1.
          1   -1    0    0  501    0  0.00000000000E+00 -0.00000000000E+00 -0.23296644053E+04  0.23296644053E+04  0.50400000000E-02 0.  1.
    5000001    1    1    2    0    0 -0.57269046518E+02 -0.10230819245E+02 -0.11231094731E+04  0.11317633596E+04  0.12700000000E+03 0.  0.
   -5000001    1    1    2    0    0  0.57269046518E+02  0.10230819245E+02 -0.11981702291E+04  0.12062857503E+04  0.12700000000E+03 0.  0.
<mgrwt>
<rscale>  0 0.27952493E+03</rscale>
<asrwt>0</asrwt>
<pdfrwt beam="1">  1        1 0.33280879E+00 0.27952493E+03</pdfrwt>
<pdfrwt beam="2">  1       -1 0.11978163E-02 0.27952493E+03</pdfrwt>
<totfact> 0.38252211E+03</totfact>
</mgrwt>
</event>
<event>
 4    1  0.6376580E-005  0.5028849E+03  0.7818608E-02  0.1013029E+00
          1   -1    0    0  501    0  0.00000000000E+00  0.00000000000E+00  0.91727992994E+03  0.91727992995E+03  0.50400000000E-02 0.  1.
         -1   -1    0    0    0  501 -0.00000000000E+00 -0.00000000000E+00 -0.68924771684E+02  0.68924771868E+02  0.50400000000E-02 0. -1.
    5000001    1    1    2    0    0 -0.22901704318E+02  0.11098801549E+03  0.61234813732E+02  0.18089093415E+03  0.12700000000E+03 0.  0.
   -5000001    1    1    2    0    0  0.22901704318E+02 -0.11098801549E+03  0.78712034452E+03  0.80531376767E+03  0.12700000000E+03 0.  0.
<mgrwt>
<rscale>  0 0.50288492E+03</rscale>
<asrwt>0</asrwt>
<pdfrwt beam="1">  1        1 0.13104000E+00 0.50288492E+03</pdfrwt>
<pdfrwt beam="2">  1       -1 0.98463956E-02 0.50288492E+03</pdfrwt>
<totfact> 0.13016856E+03</totfact>
</mgrwt>
</event>
<event>
 4    1  0.6376580E-005  0.3614108E+03  0.7818608E-02  0.1058027E+00
          1   -1    0    0  501    0  0.00000000000E+00  0.00000000000E+00  0.14643393971E+04  0.14643393971E+04  0.50400000000E-02 0. -1.
         -1   -1    0    0    0  501 -0.00000000000E+00 -0.00000000000E+00 -0.22299773476E+02  0.22299774045E+02  0.50400000000E-02 0.  1.
    5000001    1    1    2    0    0 -0.53981127931E+02 -0.96103547600E+02  0.44892362897E+03  0.47938635638E+03  0.12700000000E+03 0.  0.
   -5000001    1    1    2    0    0  0.53981127931E+02  0.96103547600E+02  0.99311599463E+03  0.10072528148E+04  0.12700000000E+03 0.  0.
<mgrwt>
<rscale>  0 0.36141078E+03</rscale>
<asrwt>0</asrwt>
<pdfrwt beam="1">  1        1 0.20919145E+00 0.36141078E+03</pdfrwt>
<pdfrwt beam="2">  1       -1 0.31856803E-02 0.36141078E+03</pdfrwt>
<totfact> 0.30723463E+03</totfact>
</mgrwt>
</event>
<event>
 4    1  0.6376580E-005  0.3981020E+03  0.7818608E-02  0.1044439E+00
         -1   -1    0    0    0  501 -0.00000000000E+00  0.00000000000E+00  0.11245973226E+03  0.11245973237E+03  0.50400000000E-02 0. -1.
          1   -1    0    0  501    0  0.00000000000E+00 -0.00000000000E+00 -0.35231549566E+03  0.35231549570E+03  0.50400000000E-02 0.  1.
    5000001    1    1    2    0    0  0.86140923381E+02  0.12336894804E+03 -0.85847324338E+02  0.21479971862E+03  0.12700000000E+03 0.  0.
   -5000001    1    1    2    0    0 -0.86140923381E+02 -0.12336894804E+03 -0.15400843907E+03  0.24997550945E+03  0.12700000000E+03 0.  0.
<mgrwt>
<rscale>  0 0.39810203E+03</rscale>
<asrwt>0</asrwt>
<pdfrwt beam="1">  1        1 0.50330785E-01 0.39810203E+03</pdfrwt>
<pdfrwt beam="2">  1       -1 0.16065676E-01 0.39810203E+03</pdfrwt>
<totfact> 0.22710605E+03</totfact>
</mgrwt>
</event>
<event>
 4    1  0.6376580E-005  0.3850115E+03  0.7818608E-02  0.1049097E+00
          1   -1    0    0  501    0  0.00000000000E+00  0.00000000000E+00  0.18074230388E+04  0.18074230388E+04  0.50400000000E-02 0. -1.
         -1   -1    0    0    0  501 -0.00000000000E+00 -0.00000000000E+00 -0.20503475674E+02  0.20503476294E+02  0.50400000000E-02 0.  1.
    5000001    1    1    2    0    0  0.12908297817E+03  0.64690440590E+02  0.85041848057E+03  0.87188752741E+03  0.12700000000E+03 0.  0.
   -5000001    1    1    2    0    0 -0.12908297817E+03 -0.64690440590E+02  0.93650108257E+03  0.95603898771E+03  0.12700000000E+03 0.  0.
<mgrwt>
<rscale>  0 0.38501145E+03</rscale>
<asrwt>0</asrwt>
<pdfrwt beam="1">  1        1 0.25820315E+00 0.38501145E+03</pdfrwt>
<pdfrwt beam="2">  1       -1 0.29290696E-02 0.38501145E+03</pdfrwt>
<totfact> 0.21294367E+03</totfact>
</mgrwt>
</event>
<event>
 4    1  0.6376580E-005  0.3799987E+03  0.7818608E-02  0.1050934E+00
          1   -1    0    0  501    0  0.00000000000E+00  0.00000000000E+00  0.30432231716E+04  0.30432231716E+04  0.50400000000E-02 0.  1.
         -1   -1    0    0    0  501 -0.00000000000E+00 -0.00000000000E+00 -0.11862338493E+02  0.11862339563E+02  0.50400000000E-02 0. -1.
    5000001    1    1    2    0    0 -0.14805120320E+01 -0.11580636186E+03  0.21667215954E+04  0.21735281864E+04  0.12700000000E+03 0.  0.
   -5000001    1    1    2    0    0  0.14805120320E+01  0.11580636186E+03  0.86463923770E+03  0.88155732470E+03  0.12700000000E+03 0.  0.
<mgrwt>
<rscale>  0 0.37999866E+03</rscale>
<asrwt>0</asrwt>
<pdfrwt beam="1">  1        1 0.43474668E+00 0.37999866E+03</pdfrwt>
<pdfrwt beam="2">  1       -1 0.16946179E-02 0.37999866E+03</pdfrwt>
<totfact> 0.82410661E+02</totfact>
</mgrwt>
</event>
<event>
 4    1  0.6376580E-005  0.2797225E+03  0.7818608E-02  0.1095841E+00
          1   -1    0    0  501    0  0.00000000000E+00  0.00000000000E+00  0.15437910812E+04  0.15437910812E+04  0.50400000000E-02 0.  1.
         -1   -1    0    0    0  501 -0.00000000000E+00 -0.00000000000E+00 -0.12670867931E+02  0.12670868934E+02  0.50400000000E-02 0. -1.
    5000001    1    1    2    0    0  0.52118060286E+02 -0.24867302978E+02  0.82050287320E+03  0.83227918386E+03  0.12700000000E+03 0.  0.
   -5000001    1    1    2    0    0 -0.52118060286E+02  0.24867302978E+02  0.71061734005E+03  0.72418276626E+03  0.12700000000E+03 0.  0.
<mgrwt>
<rscale>  0 0.27972253E+03</rscale>
<asrwt>0</asrwt>
<pdfrwt beam="1">  1        1 0.22054135E+00 0.27972253E+03</pdfrwt>
<pdfrwt beam="2">  1       -1 0.18101260E-02 0.27972253E+03</pdfrwt>
<totfact> 0.62921933E+03</totfact>
</mgrwt>
</event>
<event>
 4    1  0.6376580E-005  0.5040418E+03  0.7818608E-02  0.1012729E+00
          1   -1    0    0  501    0  0.00000000000E+00  0.00000000000E+00  0.12435410645E+04  0.12435410646E+04  0.50400000000E-02 0. -1.
         -1   -1    0    0    0  501 -0.00000000000E+00 -0.00000000000E+00 -0.51075534915E+02  0.51075535164E+02  0.50400000000E-02 0.  1.
    5000001    1    1    2    0    0  0.20841012007E+03  0.60015134509E+02  0.64421099744E+03  0.69150083423E+03  0.12700000000E+03 0.  0.
   -5000001    1    1    2    0    0 -0.20841012007E+03 -0.60015134509E+02  0.54825453219E+03  0.60311576549E+03  0.12700000000E+03 0.  0.
<mgrwt>
<rscale>  0 0.50404177E+03</rscale>
<asrwt>0</asrwt>
<pdfrwt beam="1">  1        1 0.17764871E+00 0.50404177E+03</pdfrwt>
<pdfrwt beam="2">  1       -1 0.72965058E-02 0.50404177E+03</pdfrwt>
<totfact> 0.12148869E+03</totfact>
</mgrwt>
</event>
<event>
 4    1  0.6376580E-005  0.6390041E+03  0.7818608E-02  0.9827634E-01
         -1   -1    0    0    0  501 -0.00000000000E+00  0.00000000000E+00  0.75456510565E+03  0.75456510567E+03  0.50400000000E-02 0.  1.
          1   -1    0    0  501    0  0.00000000000E+00 -0.00000000000E+00 -0.13528531121E+03  0.13528531131E+03  0.50400000000E-02 0. -1.
    5000001    1    1    2    0    0 -0.75092482036E+02 -0.28072616764E+03  0.36369040688E+03  0.48254095589E+03  0.12700000000E+03 0.  0.
   -5000001    1    1    2    0    0  0.75092482036E+02  0.28072616764E+03  0.25558938756E+03  0.40730946108E+03  0.12700000000E+03 0.  0.
<mgrwt>
<rscale>  0 0.63900415E+03</rscale>
<asrwt>0</asrwt>
<pdfrwt beam="1">  1        1 0.19326472E-01 0.63900415E+03</pdfrwt>
<pdfrwt beam="2">  1       -1 0.10779502E+00 0.63900415E+03</pdfrwt>
<totfact> 0.22342147E+02</totfact>
</mgrwt>
</event>
<event>
 4    1  0.6376580E-005  0.3809591E+03  0.7818608E-02  0.1050580E+00
          1   -1    0    0  501    0  0.00000000000E+00  0.00000000000E+00  0.40819792265E+03  0.40819792268E+03  0.50400000000E-02 0.  1.
         -1   -1    0    0    0  501 -0.00000000000E+00 -0.00000000000E+00 -0.88884462011E+02  0.88884462154E+02  0.50400000000E-02 0. -1.
    5000001    1    1    2    0    0  0.13958132693E+03 -0.22380250866E+02  0.17665097307E+03  0.25945787470E+03  0.12700000000E+03 0.  0.
   -5000001    1    1    2    0    0 -0.13958132693E+03  0.22380250866E+02  0.14266248757E+03  0.23762451014E+03  0.12700000000E+03 0.  0.
<mgrwt>
<rscale>  0 0.38095907E+03</rscale>
<asrwt>0</asrwt>
<pdfrwt beam="1">  1        1 0.58313989E-01 0.38095907E+03</pdfrwt>
<pdfrwt beam="2">  1       -1 0.12697780E-01 0.38095907E+03</pdfrwt>
<totfact> 0.27348800E+03</totfact>
</mgrwt>
</event>
<event>
 4    1  0.6376580E-005  0.3573634E+03  0.7818608E-02  0.1059633E+00
         -1   -1    0    0    0  501 -0.00000000000E+00  0.00000000000E+00  0.12303195884E+03  0.12303195894E+03  0.50400000000E-02 0. -1.
          1   -1    0    0  501    0  0.00000000000E+00 -0.00000000000E+00 -0.25950284598E+03  0.25950284603E+03  0.50400000000E-02 0.  1.
    5000001    1    1    2    0    0 -0.10282342778E+02 -0.12060347571E+03 -0.10449178782E+03  0.20420200452E+03  0.12700000000E+03 0.  0.
   -5000001    1    1    2    0    0  0.10282342778E+02  0.12060347571E+03 -0.31979099310E+02  0.17833280045E+03  0.12700000000E+03 0.  0.
<mgrwt>
<rscale>  0 0.35736336E+03</rscale>
<asrwt>0</asrwt>
<pdfrwt beam="1">  1        1 0.37071835E-01 0.35736336E+03</pdfrwt>
<pdfrwt beam="2">  1       -1 0.17575994E-01 0.35736336E+03</pdfrwt>
<totfact> 0.28918024E+03</totfact>
</mgrwt>
</event>
<event>
 4    1  0.6376580E-005  0.3909586E+03  0.7818608E-02  0.1046956E+00
         -1   -1    0    0    0  501 -0.00000000000E+00  0.00000000000E+00  0.19954288807E+03  0.19954288813E+03  0.50400000000E-02 0. -1.
          1   -1    0    0  501    0  0.00000000000E+00 -0.00000000000E+00 -0.19149843022E+03  0.19149843029E+03  0.50400000000E-02 0.  1.
    5000001    1    1    2    0    0  0.25071364238E+02  0.13046336151E+03 -0.62579310692E+02  0.19415053986E+03  0.12700000000E+03 0.  0.
   -5000001    1    1    2    0    0 -0.25071364238E+02 -0.13046336151E+03  0.70623768541E+02  0.19689077856E+03  0.12700000000E+03 0.  0.
<mgrwt>
<rscale>  0 0.39095856E+03</rscale>
<asrwt>0</asrwt>
<pdfrwt beam="1">  1        1 0.27356918E-01 0.39095856E+03</pdfrwt>
<pdfrwt beam="2">  1       -1 0.28506127E-01 0.39095856E+03</pdfrwt>
<totfact> 0.19110727E+03</totfact>
</mgrwt>
</event>
<event>
 4    1  0.6376580E-005  0.5026405E+03  0.7818608E-02  0.1013092E+00
         -1   -1    0    0    0  501 -0.00000000000E+00  0.00000000000E+00  0.11149140561E+03  0.11149140573E+03  0.50400000000E-02 0. -1.
          1   -1    0    0  501    0  0.00000000000E+00 -0.00000000000E+00 -0.56651787206E+03  0.56651787208E+03  0.50400000000E-02 0.  1.
    5000001    1    1    2    0    0 -0.20541475059E+03 -0.51973587841E+02 -0.28986079213E+03  0.38084741355E+03  0.12700000000E+03 0.  0.
   -5000001    1    1    2    0    0  0.20541475059E+03  0.51973587841E+02 -0.16516567431E+03  0.29716186425E+03  0.12700000000E+03 0.  0.
<mgrwt>
<rscale>  0 0.50264052E+03</rscale>
<asrwt>0</asrwt>
<pdfrwt beam="1">  1        1 0.80931123E-01 0.50264052E+03</pdfrwt>
<pdfrwt beam="2">  1       -1 0.15927344E-01 0.50264052E+03</pdfrwt>
<totfact> 0.12338150E+03</totfact>
</mgrwt>
</event>
<event>
 4    1  0.6376580E-005  0.2710227E+03  0.7818608E-02  0.1100696E+00
         -1   -1    0    0    0  501 -0.00000000000E+00  0.00000000000E+00  0.21080510442E+02  0.21080511044E+02  0.50400000000E-02 0.  1.
          1   -1    0    0  501    0  0.00000000000E+00 -0.00000000000E+00 -0.87110422685E+03  0.87110422687E+03  0.50400000000E-02 0. -1.
    5000001    1    1    2    0    0  0.25404756253E+02 -0.38717501699E+02 -0.39380358773E+03  0.41635887440E+03  0.12700000000E+03 0.  0.
   -5000001    1    1    2    0    0 -0.25404756253E+02  0.38717501699E+02 -0.45622012868E+03  0.47582586351E+03  0.12700000000E+03 0.  0.
<mgrwt>
<rscale>  0 0.27102267E+03</rscale>
<asrwt>0</asrwt>
<pdfrwt beam="1">  1        1 0.12444344E+00 0.27102267E+03</pdfrwt>
<pdfrwt beam="2">  1       -1 0.30115021E-02 0.27102267E+03</pdfrwt>
<totfact> 0.84746704E+03</totfact>
</mgrwt>
</event>
<event>
 4    1  0.6376580E-005  0.3730622E+03  0.7818608E-02  0.1053528E+00
          1   -1    0    0  501    0  0.00000000000E+00  0.00000000000E+00  0.10920649224E+04  0.10920649224E+04  0.50400000000E-02 0.  1.
         -1   -1    0    0    0  501 -0.00000000000E+00 -0.00000000000E+00 -0.31860603900E+02  0.31860604298E+02  0.50400000000E-02 0. -1.
    5000001    1    1    2    0    0 -0.22454238450E+02 -0.78544202030E+02  0.86000982379E+03  0.87316623934E+03  0.12700000000E+03 0.  0.
   -5000001    1    1    2    0    0  0.22454238450E+02  0.78544202030E+02  0.20019449475E+03  0.25075928741E+03  0.12700000000E+03 0.  0.
<mgrwt>
<rscale>  0 0.37306218E+03</rscale>
<asrwt>0</asrwt>
<pdfrwt beam="1">  1        1 0.15600926E+00 0.37306218E+03</pdfrwt>
<pdfrwt beam="2">  1       -1 0.45515153E-02 0.37306218E+03</pdfrwt>
<totfact> 0.31746816E+03</totfact>
</mgrwt>
</event>
<event>
 4    1  0.6376580E-005  0.3589618E+03  0.7818608E-02  0.1058996E+00
         -1   -1    0    0    0  501 -0.00000000000E+00  0.00000000000E+00  0.54374576145E+03  0.54374576147E+03  0.50400000000E-02 0.  1.
          1   -1    0    0  501    0  0.00000000000E+00 -0.00000000000E+00 -0.59243468858E+02  0.59243469073E+02  0.50400000000E-02 0. -1.
    5000001    1    1    2    0    0  0.65009055290E+02 -0.69413868296E+02  0.10130755770E+03  0.18824633762E+03  0.12700000000E+03 0.  0.
   -5000001    1    1    2    0    0 -0.65009055290E+02  0.69413868296E+02  0.38319473489E+03  0.41474289292E+03  0.12700000000E+03 0.  0.
<mgrwt>
<rscale>  0 0.35896175E+03</rscale>
<asrwt>0</asrwt>
<pdfrwt beam="1">  1        1 0.84633525E-02 0.35896175E+03</pdfrwt>
<pdfrwt beam="2">  1       -1 0.77677968E-01 0.35896175E+03</pdfrwt>
<totfact> 0.14018841E+03</totfact>
</mgrwt>
</event>
<event>
 4    1  0.6376580E-005  0.2861415E+03  0.7818608E-02  0.1092381E+00
          1   -1    0    0  501    0  0.00000000000E+00  0.00000000000E+00  0.16553541389E+04  0.16553541389E+04  0.50400000000E-02 0.  1.
         -1   -1    0    0    0  501 -0.00000000000E+00 -0.00000000000E+00 -0.12365470065E+02  0.12365471092E+02  0.50400000000E-02 0. -1.
    5000001    1    1    2    0    0 -0.17063604213E+02  0.63399398293E+02  0.78979423823E+03  0.80262979576E+03  0.12700000000E+03 0.  0.
   -5000001    1    1    2    0    0  0.17063604213E+02 -0.63399398293E+02  0.85319443059E+03  0.86508981423E+03  0.12700000000E+03 0.  0.
<mgrwt>
<rscale>  0 0.28614145E+03</rscale>
<asrwt>0</asrwt>
<pdfrwt beam="1">  1        1 0.23647910E+00 0.28614145E+03</pdfrwt>
<pdfrwt beam="2">  1       -1 0.17664963E-02 0.28614145E+03</pdfrwt>
<totfact> 0.55656292E+03</totfact>
</mgrwt>
</event>
<event>
 4    1  0.6376580E-005  0.3202626E+03  0.7818608E-02  0.1075529E+00
          1   -1    0    0  501    0  0.00000000000E+00  0.00000000000E+00  0.50599653169E+03  0.50599653172E+03  0.50400000000E-02 0. -1.
         -1   -1    0    0    0  501 -0.00000000000E+00 -0.00000000000E+00 -0.50676309528E+02  0.50676309779E+02  0.50400000000E-02 0.  1.
    5000001    1    1    2    0    0  0.80258675064E+02  0.26895371684E+01  0.32387955620E+03  0.35703733062E+03  0.12700000000E+03 0.  0.
   -5000001    1    1    2    0    0 -0.80258675064E+02 -0.26895371684E+01  0.13144066596E+03  0.19963551087E+03  0.12700000000E+03 0.  0.
<mgrwt>
<rscale>  0 0.32026262E+03</rscale>
<asrwt>0</asrwt>
<pdfrwt beam="1">  1        1 0.72285220E-01 0.32026262E+03</pdfrwt>
<pdfrwt beam="2">  1       -1 0.72394727E-02 0.32026262E+03</pdfrwt>
<totfact> 0.49290102E+03</totfact>
</mgrwt>
</event>
<event>
 4    1  0.6376580E-005  0.6670596E+03  0.7818608E-02  0.9775284E-01
          1   -1    0    0  501    0  0.00000000000E+00  0.00000000000E+00  0.10084582012E+04  0.10084582012E+04  0.50400000000E-02 0.  1.
         -1   -1    0    0    0  501 -0.00000000000E+00 -0.00000000000E+00 -0.11030910102E+03  0.11030910114E+03  0.50400000000E-02 0. -1.
    5000001    1    1    2    0    0  0.40673289250E+02 -0.29531355025E+03  0.31649691452E+03  0.45295000422E+03  0.12700000000E+03 0.  0.
   -5000001    1    1    2    0    0 -0.40673289250E+02  0.29531355025E+03  0.58165218563E+03  0.66581729811E+03  0.12700000000E+03 0.  0.
<mgrwt>
<rscale>  0 0.66705957E+03</rscale>
<asrwt>0</asrwt>
<pdfrwt beam="1">  1        1 0.14406546E+00 0.66705957E+03</pdfrwt>
<pdfrwt beam="2">  1       -1 0.15758442E-01 0.66705957E+03</pdfrwt>
<totfact> 0.52154254E+02</totfact>
</mgrwt>
</event>
<event>
 4    1  0.6376580E-005  0.3716221E+03  0.7818608E-02  0.1054074E+00
          1   -1    0    0  501    0  0.00000000000E+00  0.00000000000E+00  0.16414849397E+03  0.16414849405E+03  0.50400000000E-02 0. -1.
         -1   -1    0    0    0  501 -0.00000000000E+00 -0.00000000000E+00 -0.21033245310E+03  0.21033245316E+03  0.50400000000E-02 0.  1.
    5000001    1    1    2    0    0  0.13482763289E+03  0.67177615827E+01 -0.36351337153E+02  0.18887572270E+03  0.12700000000E+03 0.  0.
   -5000001    1    1    2    0    0 -0.13482763289E+03 -0.67177615827E+01 -0.98326219742E+01  0.18560522451E+03  0.12700000000E+03 0.  0.
<mgrwt>
<rscale>  0 0.37162215E+03</rscale>
<asrwt>0</asrwt>
<pdfrwt beam="1">  1        1 0.23449785E-01 0.37162215E+03</pdfrwt>
<pdfrwt beam="2">  1       -1 0.30047493E-01 0.37162215E+03</pdfrwt>
<totfact> 0.21275868E+03</totfact>
</mgrwt>
</event>
<event>
 4    1  0.6376580E-005  0.3203904E+03  0.7818608E-02  0.1075470E+00
         -1   -1    0    0    0  501 -0.00000000000E+00  0.00000000000E+00  0.12897601184E+02  0.12897602169E+02  0.50400000000E-02 0.  1.
          1   -1    0    0  501    0  0.00000000000E+00 -0.00000000000E+00 -0.19897112830E+04  0.19897112830E+04  0.50400000000E-02 0. -1.
    5000001    1    1    2    0    0  0.78164669064E+02  0.50614711813E+02 -0.80489887984E+03  0.82016021076E+03  0.12700000000E+03 0.  0.
   -5000001    1    1    2    0    0 -0.78164669064E+02 -0.50614711813E+02 -0.11719148020E+04  0.11824486744E+04  0.12700000000E+03 0.  0.
<mgrwt>
<rscale>  0 0.32039041E+03</rscale>
<asrwt>0</asrwt>
<pdfrwt beam="1">  1        1 0.28424427E+00 0.32039041E+03</pdfrwt>
<pdfrwt beam="2">  1       -1 0.18425158E-02 0.32039041E+03</pdfrwt>
<totfact> 0.32757213E+03</totfact>
</mgrwt>
</event>
<event>
 4    1  0.6376580E-005  0.3978496E+03  0.7818608E-02  0.1044527E+00
         -1   -1    0    0    0  501 -0.00000000000E+00  0.00000000000E+00  0.92544079742E+01  0.92544093466E+01  0.50400000000E-02 0. -1.
          1   -1    0    0  501    0  0.00000000000E+00 -0.00000000000E+00 -0.42759161347E+04  0.42759161347E+04  0.50400000000E-02 0.  1.
    5000001    1    1    2    0    0  0.12023957285E+03  0.71397539463E+01 -0.11152996632E+04  0.11289512256E+04  0.12700000000E+03 0.  0.
   -5000001    1    1    2    0    0 -0.12023957285E+03 -0.71397539463E+01 -0.31513620634E+04  0.31562193184E+04  0.12700000000E+03 0.  0.
<mgrwt>
<rscale>  0 0.39784960E+03</rscale>
<asrwt>0</asrwt>
<pdfrwt beam="1">  1        1 0.61084390E+00 0.39784960E+03</pdfrwt>
<pdfrwt beam="2">  1       -1 0.13220611E-02 0.39784960E+03</pdfrwt>
<totfact> 0.16177181E+02</totfact>
</mgrwt>
</event>
<event>
 4    1  0.6376580E-005  0.4191292E+03  0.7818608E-02  0.1037350E+00
          1   -1    0    0  501    0  0.00000000000E+00  0.00000000000E+00  0.13873891385E+04  0.13873891386E+04  0.50400000000E-02 0.  1.
         -1   -1    0    0    0  501 -0.00000000000E+00 -0.00000000000E+00 -0.31654654037E+02  0.31654654438E+02  0.50400000000E-02 0. -1.
    5000001    1    1    2    0    0  0.93429015302E+02  0.68571269313E+02  0.27218629164E+03  0.32194002117E+03  0.12700000000E+03 0.  0.
   -5000001    1    1    2    0    0 -0.93429015302E+02 -0.68571269313E+02  0.10835481929E+04  0.10971037718E+04  0.12700000000E+03 0.  0.
<mgrwt>
<rscale>  0 0.41912921E+03</rscale>
<asrwt>0</asrwt>
<pdfrwt beam="1">  1        1 0.19819847E+00 0.41912921E+03</pdfrwt>
<pdfrwt beam="2">  1       -1 0.45220930E-02 0.41912921E+03</pdfrwt>
<totfact> 0.20334475E+03</totfact>
</mgrwt>
</event>
<event>
 4    1  0.6376580E-005  0.7907236E+03  0.7818608E-02  0.9573542E-01
          1   -1    0    0  501    0  0.00000000000E+00  0.00000000000E+00  0.65724196294E+03  0.65724196296E+03  0.50400000000E-02 0.  1.
         -1   -1    0    0    0  501 -0.00000000000E+00 -0.00000000000E+00 -0.23782861015E+03  0.23782861020E+03  0.50400000000E-02 0. -1.
    5000001    1    1    2    0    0  0.15638024888E+03 -0.33615972818E+03  0.15062946293E+03  0.41985280777E+03  0.12700000000E+03 0.  0.
   -5000001    1    1    2    0    0 -0.15638024888E+03  0.33615972818E+03  0.26878388986E+03  0.47521776539E+03  0.12700000000E+03 0.  0.
<mgrwt>
<rscale>  0 0.79072357E+03</rscale>
<asrwt>0</asrwt>
<pdfrwt beam="1">  1        1 0.93891708E-01 0.79072357E+03</pdfrwt>
<pdfrwt beam="2">  1       -1 0.33975516E-01 0.79072357E+03</pdfrwt>
<totfact> 0.27590554E+02</totfact>
</mgrwt>
</event>
<event>
 4    1  0.6376580E-005  0.3137038E+03  0.7818608E-02  0.1078584E+00
          1   -1    0    0  501    0  0.00000000000E+00  0.00000000000E+00  0.16487278241E+04  0.16487278241E+04  0.50400000000E-02 0. -1.
         -1   -1    0    0    0  501 -0.00000000000E+00 -0.00000000000E+00 -0.14922123299E+02  0.14922124150E+02  0.50400000000E-02 0.  1.
    5000001    1    1    2    0    0 -0.24079917903E+02 -0.82040269905E+02  0.99776408957E+03  0.10094417402E+04  0.12700000000E+03 0.  0.
   -5000001    1    1    2    0    0  0.24079917903E+02  0.82040269905E+02  0.63604161126E+03  0.65420820813E+03  0.12700000000E+03 0.  0.
<mgrwt>
<rscale>  0 0.31370381E+03</rscale>
<asrwt>0</asrwt>
<pdfrwt beam="1">  1        1 0.23553237E+00 0.31370381E+03</pdfrwt>
<pdfrwt beam="2">  1       -1 0.21317336E-02 0.31370381E+03</pdfrwt>
<totfact> 0.42687389E+03</totfact>
</mgrwt>
</event>
<event>
 4    1  0.6376580E-005  0.4082592E+03  0.7818608E-02  0.1040957E+00
         -1   -1    0    0    0  501 -0.00000000000E+00  0.00000000000E+00  0.10727447888E+03  0.10727447900E+03  0.50400000000E-02 0. -1.
          1   -1    0    0  501    0  0.00000000000E+00 -0.00000000000E+00 -0.38843245633E+03  0.38843245636E+03  0.50400000000E-02 0.  1.
    5000001    1    1    2    0    0  0.12127943297E+03 -0.10304975202E+03 -0.15825533695E+03  0.25787924291E+03  0.12700000000E+03 0.  0.
   -5000001    1    1    2    0    0 -0.12127943297E+03  0.10304975202E+03 -0.12290264050E+03  0.23782769244E+03  0.12700000000E+03 0.  0.
<mgrwt>
<rscale>  0 0.40825918E+03</rscale>
<asrwt>0</asrwt>
<pdfrwt beam="1">  1        1 0.55490350E-01 0.40825918E+03</pdfrwt>
<pdfrwt beam="2">  1       -1 0.15324926E-01 0.40825918E+03</pdfrwt>
<totfact> 0.21624345E+03</totfact>
</mgrwt>
</event>
<event>
 4    1  0.6376580E-005  0.4354076E+03  0.7818608E-02  0.1032165E+00
         -1   -1    0    0    0  501 -0.00000000000E+00  0.00000000000E+00  0.15350431546E+03  0.15350431555E+03  0.50400000000E-02 0. -1.
          1   -1    0    0  501    0  0.00000000000E+00 -0.00000000000E+00 -0.30875310891E+03  0.30875310895E+03  0.50400000000E-02 0.  1.
    5000001    1    1    2    0    0  0.12503154290E+03 -0.15452725827E+02 -0.20934913999E+03  0.27536836396E+03  0.12700000000E+03 0.  0.
   -5000001    1    1    2    0    0 -0.12503154290E+03  0.15452725827E+02  0.54100346542E+02  0.18688906054E+03  0.12700000000E+03 0.  0.
<mgrwt>
<rscale>  0 0.43540755E+03</rscale>
<asrwt>0</asrwt>
<pdfrwt beam="1">  1        1 0.44107587E-01 0.43540755E+03</pdfrwt>
<pdfrwt beam="2">  1       -1 0.21929188E-01 0.43540755E+03</pdfrwt>
<totfact> 0.16174678E+03</totfact>
</mgrwt>
</event>
<event>
 4    1  0.6376580E-005  0.5170336E+03  0.7818608E-02  0.1009426E+00
          1   -1    0    0  501    0  0.00000000000E+00  0.00000000000E+00  0.41486351366E+03  0.41486351369E+03  0.50400000000E-02 0.  1.
         -1   -1    0    0    0  501 -0.00000000000E+00 -0.00000000000E+00 -0.16109139207E+03  0.16109139215E+03  0.50400000000E-02 0. -1.
    5000001    1    1    2    0    0  0.72043402143E+02 -0.83360490490E+02  0.34563880775E+03  0.38436234023E+03  0.12700000000E+03 0.  0.
   -5000001    1    1    2    0    0 -0.72043402143E+02  0.83360490490E+02 -0.91866686166E+02  0.19159256560E+03  0.12700000000E+03 0.  0.
<mgrwt>
<rscale>  0 0.51703362E+03</rscale>
<asrwt>0</asrwt>
<pdfrwt beam="1">  1        1 0.59266217E-01 0.51703362E+03</pdfrwt>
<pdfrwt beam="2">  1       -1 0.23013056E-01 0.51703362E+03</pdfrwt>
<totfact> 0.10201127E+03</totfact>
</mgrwt>
</event>
<event>
 4    1  0.6376580E-005  0.3938749E+03  0.7818608E-02  0.1045921E+00
          1   -1    0    0  501    0  0.00000000000E+00  0.00000000000E+00  0.11223518936E+04  0.11223518937E+04  0.50400000000E-02 0.  1.
         -1   -1    0    0    0  501 -0.00000000000E+00 -0.00000000000E+00 -0.34556327295E+02  0.34556327662E+02  0.50400000000E-02 0. -1.
    5000001    1    1    2    0    0  0.75938543784E+02 -0.14334043197E+02  0.92328325731E+03  0.93517543833E+03  0.12700000000E+03 0.  0.
   -5000001    1    1    2    0    0 -0.75938543784E+02  0.14334043197E+02  0.16451230904E+03  0.22173278299E+03  0.12700000000E+03 0.  0.
<mgrwt>
<rscale>  0 0.39387490E+03</rscale>
<asrwt>0</asrwt>
<pdfrwt beam="1">  1        1 0.16033601E+00 0.39387490E+03</pdfrwt>
<pdfrwt beam="2">  1       -1 0.49366174E-02 0.39387490E+03</pdfrwt>
<totfact> 0.26757806E+03</totfact>
</mgrwt>
</event>
<event>
 4    1  0.6376580E-005  0.3851833E+03  0.7818608E-02  0.1049034E+00
          1   -1    0    0  501    0  0.00000000000E+00  0.00000000000E+00  0.85732425411E+03  0.85732425413E+03  0.50400000000E-02 0. -1.
         -1   -1    0    0    0  501 -0.00000000000E+00 -0.00000000000E+00 -0.43264318803E+02  0.43264319096E+02  0.50400000000E-02 0.  1.
    5000001    1    1    2    0    0 -0.95226986430E+02 -0.10897104187E+03  0.41740299272E+03  0.45967067042E+03  0.12700000000E+03 0.  0.
   -5000001    1    1    2    0    0  0.95226986430E+02  0.10897104187E+03  0.39665694259E+03  0.44091790280E+03  0.12700000000E+03 0.  0.
<mgrwt>
<rscale>  0 0.38518333E+03</rscale>
<asrwt>0</asrwt>
<pdfrwt beam="1">  1        1 0.12247489E+00 0.38518333E+03</pdfrwt>
<pdfrwt beam="2">  1       -1 0.61806174E-02 0.38518333E+03</pdfrwt>
<totfact> 0.29778678E+03</totfact>
</mgrwt>
</event>
<event>
 4    1  0.6376580E-005  0.3500175E+03  0.7818608E-02  0.1062608E+00
         -1   -1    0    0    0  501 -0.00000000000E+00  0.00000000000E+00  0.16276508264E+02  0.16276509045E+02  0.50400000000E-02 0. -1.
          1   -1    0    0  501    0  0.00000000000E+00 -0.00000000000E+00 -0.18817336674E+04  0.18817336675E+04  0.50400000000E-02 0.  1.
    5000001    1    1    2    0    0 -0.33695385479E+02  0.11509872251E+03 -0.99112172069E+03  0.10063967211E+04  0.12700000000E+03 0.  0.
   -5000001    1    1    2    0    0  0.33695385479E+02 -0.11509872251E+03 -0.87433543849E+03  0.89161345544E+03  0.12700000000E+03 0.  0.
<mgrwt>
<rscale>  0 0.35001745E+03</rscale>
<asrwt>0</asrwt>
<pdfrwt beam="1">  1        1 0.26881896E+00 0.35001745E+03</pdfrwt>
<pdfrwt beam="2">  1       -1 0.23252167E-02 0.35001745E+03</pdfrwt>
<totfact> 0.27035360E+03</totfact>
</mgrwt>
</event>
<event>
 4    1  0.6376580E-005  0.3903853E+03  0.7818608E-02  0.1047161E+00
          1   -1    0    0  501    0  0.00000000000E+00  0.00000000000E+00  0.24846593353E+03  0.24846593358E+03  0.50400000000E-02 0.  1.
         -1   -1    0    0    0  501 -0.00000000000E+00 -0.00000000000E+00 -0.15334162061E+03  0.15334162070E+03  0.50400000000E-02 0. -1.
    5000001    1    1    2    0    0 -0.10273435894E+03 -0.77668091356E+02 -0.27963908654E+02  0.18302366270E+03  0.12700000000E+03 0.  0.
   -5000001    1    1    2    0    0  0.10273435894E+03  0.77668091356E+02  0.12308822157E+03  0.21878389157E+03  0.12700000000E+03 0.  0.
<mgrwt>
<rscale>  0 0.39038529E+03</rscale>
<asrwt>0</asrwt>
<pdfrwt beam="1">  1        1 0.35495133E-01 0.39038529E+03</pdfrwt>
<pdfrwt beam="2">  1       -1 0.21905946E-01 0.39038529E+03</pdfrwt>
<totfact> 0.21339502E+03</totfact>
</mgrwt>
</event>
<event>
 4    1  0.6376580E-005  0.3662579E+03  0.7818608E-02  0.1056133E+00
          1   -1    0    0  501    0  0.00000000000E+00  0.00000000000E+00  0.30990533942E+04  0.30990533942E+04  0.50400000000E-02 0. -1.
         -1   -1    0    0    0  501 -0.00000000000E+00 -0.00000000000E+00 -0.10821434524E+02  0.10821435698E+02  0.50400000000E-02 0.  1.
    5000001    1    1    2    0    0 -0.16654136082E+02  0.12173793792E+03  0.11360451325E+04  0.11497064968E+04  0.12700000000E+03 0.  0.
   -5000001    1    1    2    0    0  0.16654136082E+02 -0.12173793792E+03  0.19521868272E+04  0.19601683331E+04  0.12700000000E+03 0.  0.
<mgrwt>
<rscale>  0 0.36625786E+03</rscale>
<asrwt>0</asrwt>
<pdfrwt beam="1">  1        1 0.44272237E+00 0.36625786E+03</pdfrwt>
<pdfrwt beam="2">  1       -1 0.15459177E-02 0.36625786E+03</pdfrwt>
<totfact> 0.86957025E+02</totfact>
</mgrwt>
</event>
<event>
 4    1  0.6376580E-005  0.3185912E+03  0.7818608E-02  0.1076299E+00
          1   -1    0    0  501    0  0.00000000000E+00  0.00000000000E+00  0.44685572484E+03  0.44685572487E+03  0.50400000000E-02 0.  1.
         -1   -1    0    0    0  501 -0.00000000000E+00 -0.00000000000E+00 -0.56785873996E+02  0.56785874220E+02  0.50400000000E-02 0. -1.
    5000001    1    1    2    0    0  0.64993943290E+02  0.70853677151E+02  0.19301248942E+03  0.25025442514E+03  0.12700000000E+03 0.  0.
   -5000001    1    1    2    0    0 -0.64993943290E+02 -0.70853677151E+02  0.19705736142E+03  0.25338717395E+03  0.12700000000E+03 0.  0.
<mgrwt>
<rscale>  0 0.31859123E+03</rscale>
<asrwt>0</asrwt>
<pdfrwt beam="1">  1        1 0.63836531E-01 0.31859123E+03</pdfrwt>
<pdfrwt beam="2">  1       -1 0.81122678E-02 0.31859123E+03</pdfrwt>
<totfact> 0.48707902E+03</totfact>
</mgrwt>
</event>
<event>
 4    1  0.6376580E-005  0.3628308E+03  0.7818608E-02  0.1057469E+00
          1   -1    0    0  501    0  0.00000000000E+00  0.00000000000E+00  0.34878243087E+02  0.34878243451E+02  0.50400000000E-02 0. -1.
         -1   -1    0    0    0  501 -0.00000000000E+00 -0.00000000000E+00 -0.94361276932E+03  0.94361276934E+03  0.50400000000E-02 0.  1.
    5000001    1    1    2    0    0 -0.20469031724E+02  0.12380663169E+03 -0.54114855323E+03  0.56984017055E+03  0.12700000000E+03 0.  0.
   -5000001    1    1    2    0    0  0.20469031724E+02 -0.12380663169E+03 -0.36758597301E+03  0.40865084224E+03  0.12700000000E+03 0.  0.
<mgrwt>
<rscale>  0 0.36283085E+03</rscale>
<asrwt>0</asrwt>
<pdfrwt beam="1">  1        1 0.49826068E-02 0.36283085E+03</pdfrwt>
<pdfrwt beam="2">  1       -1 0.13480181E+00 0.36283085E+03</pdfrwt>
<totfact> 0.83454182E+02</totfact>
</mgrwt>
</event>
<event>
 4    1  0.6376580E-005  0.3654623E+03  0.7818608E-02  0.1056442E+00
         -1   -1    0    0    0  501 -0.00000000000E+00  0.00000000000E+00  0.26312856450E+02  0.26312856933E+02  0.50400000000E-02 0.  1.
          1   -1    0    0  501    0  0.00000000000E+00 -0.00000000000E+00 -0.12689870550E+04  0.12689870550E+04  0.50400000000E-02 0. -1.
    5000001    1    1    2    0    0  0.12447001818E+03  0.22173838561E+02 -0.49467143704E+03  0.52613049253E+03  0.12700000000E+03 0.  0.
   -5000001    1    1    2    0    0 -0.12447001818E+03 -0.22173838561E+02 -0.74800276152E+03  0.76916941943E+03  0.12700000000E+03 0.  0.
<mgrwt>
<rscale>  0 0.36546231E+03</rscale>
<asrwt>0</asrwt>
<pdfrwt beam="1">  1        1 0.18128383E+00 0.36546231E+03</pdfrwt>
<pdfrwt beam="2">  1       -1 0.37589803E-02 0.36546231E+03</pdfrwt>
<totfact> 0.32092601E+03</totfact>
</mgrwt>
</event>
<event>
 4    1  0.6376580E-005  0.3548137E+03  0.7818608E-02  0.1060656E+00
          1   -1    0    0  501    0  0.00000000000E+00  0.00000000000E+00  0.30612353102E+03  0.30612353106E+03  0.50400000000E-02 0.  1.
         -1   -1    0    0    0  501 -0.00000000000E+00 -0.00000000000E+00 -0.10281203577E+03  0.10281203589E+03  0.50400000000E-02 0. -1.
    5000001    1    1    2    0    0 -0.11718679288E+03  0.38013813726E+02  0.11652252550E+03  0.21185913577E+03  0.12700000000E+03 0.  0.
   -5000001    1    1    2    0    0  0.11718679288E+03 -0.38013813726E+02  0.86788969754E+02  0.19707643119E+03  0.12700000000E+03 0.  0.
<mgrwt>
<rscale>  0 0.35481366E+03</rscale>
<asrwt>0</asrwt>
<pdfrwt beam="1">  1        1 0.43731933E-01 0.35481366E+03</pdfrwt>
<pdfrwt beam="2">  1       -1 0.14687434E-01 0.35481366E+03</pdfrwt>
<totfact> 0.31299646E+03</totfact>
</mgrwt>
</event>
<event>
 4    1  0.6376580E-005  0.3318247E+03  0.7818608E-02  0.1070332E+00
          1   -1    0    0  501    0  0.00000000000E+00  0.00000000000E+00  0.81271838737E+02  0.81271838894E+02  0.50400000000E-02 0.  1.
         -1   -1    0    0    0  501 -0.00000000000E+00 -0.00000000000E+00 -0.33870166900E+03  0.33870166904E+03  0.50400000000E-02 0. -1.
    5000001    1    1    2    0    0 -0.18217008850E+02 -0.89133697478E+02 -0.19942416272E+03  0.25332917738E+03  0.12700000000E+03 0.  0.
   -5000001    1    1    2    0    0  0.18217008850E+02  0.89133697478E+02 -0.58005667548E+02  0.16664433055E+03  0.12700000000E+03 0.  0.
<mgrwt>
<rscale>  0 0.33182470E+03</rscale>
<asrwt>0</asrwt>
<pdfrwt beam="1">  1        1 0.11610263E-01 0.33182470E+03</pdfrwt>
<pdfrwt beam="2">  1       -1 0.48385952E-01 0.33182470E+03</pdfrwt>
<totfact> 0.22964741E+03</totfact>
</mgrwt>
</event>
<event>
 4    1  0.6376580E-005  0.5824524E+03  0.7818608E-02  0.9942496E-01
          1   -1    0    0  501    0  0.00000000000E+00  0.00000000000E+00  0.14153800456E+04  0.14153800456E+04  0.50400000000E-02 0.  1.
         -1   -1    0    0    0  501 -0.00000000000E+00 -0.00000000000E+00 -0.59922208052E+02  0.59922208264E+02  0.50400000000E-02 0. -1.
    5000001    1    1    2    0    0  0.12503312176E+03  0.18397049501E+03  0.32670976432E+03  0.41514659420E+03  0.12700000000E+03 0.  0.
   -5000001    1    1    2    0    0 -0.12503312176E+03 -0.18397049501E+03  0.10287480733E+04  0.10601556597E+04  0.12700000000E+03 0.  0.
<mgrwt>
<rscale>  0 0.58245239E+03</rscale>
<asrwt>0</asrwt>
<pdfrwt beam="1">  1        1 0.20219716E+00 0.58245239E+03</pdfrwt>
<pdfrwt beam="2">  1       -1 0.85603150E-02 0.58245239E+03</pdfrwt>
<totfact> 0.72749544E+02</totfact>
</mgrwt>
</event>
<event>
 4    1  0.6376580E-005  0.3362237E+03  0.7818608E-02  0.1068416E+00
         -1   -1    0    0    0  501 -0.00000000000E+00  0.00000000000E+00  0.16095732945E+02  0.16095733734E+02  0.50400000000E-02 0. -1.
          1   -1    0    0  501    0  0.00000000000E+00 -0.00000000000E+00 -0.17558438718E+04  0.17558438718E+04  0.50400000000E-02 0.  1.
    5000001    1    1    2    0    0  0.20912323741E+02  0.10597881189E+03 -0.75638144088E+03  0.77453903579E+03  0.12700000000E+03 0.  0.
   -5000001    1    1    2    0    0 -0.20912323741E+02 -0.10597881189E+03 -0.98336669800E+03  0.99740056977E+03  0.12700000000E+03 0.  0.
<mgrwt>
<rscale>  0 0.33622370E+03</rscale>
<asrwt>0</asrwt>
<pdfrwt beam="1">  1        1 0.25083472E+00 0.33622370E+03</pdfrwt>
<pdfrwt beam="2">  1       -1 0.22993916E-02 0.33622370E+03</pdfrwt>
<totfact> 0.32816240E+03</totfact>
</mgrwt>
</event>
<event>
 4    1  0.6376580E-005  0.3975280E+03  0.7818608E-02  0.1044639E+00
         -1   -1    0    0    0  501 -0.00000000000E+00  0.00000000000E+00  0.75347267319E+03  0.75347267321E+03  0.50400000000E-02 0. -1.
          1   -1    0    0  501    0  0.00000000000E+00 -0.00000000000E+00 -0.52433402510E+02  0.52433402752E+02  0.50400000000E-02 0.  1.
    5000001    1    1    2    0    0  0.13826907739E+03  0.65159497850E+02  0.34292387281E+03  0.39634565781E+03  0.12700000000E+03 0.  0.
   -5000001    1    1    2    0    0 -0.13826907739E+03 -0.65159497850E+02  0.35811539787E+03  0.40956041815E+03  0.12700000000E+03 0.  0.
<mgrwt>
<rscale>  0 0.39752804E+03</rscale>
<asrwt>0</asrwt>
<pdfrwt beam="1">  1        1 0.74904862E-02 0.39752804E+03</pdfrwt>
<pdfrwt beam="2">  1       -1 0.10763895E+00 0.39752804E+03</pdfrwt>
<totfact> 0.81401973E+02</totfact>
</mgrwt>
</event>
<event>
 4    1  0.6376580E-005  0.3450150E+03  0.7818608E-02  0.1064680E+00
          1   -1    0    0  501    0  0.00000000000E+00  0.00000000000E+00  0.34529528080E+03  0.34529528083E+03  0.50400000000E-02 0.  1.
         -1   -1    0    0    0  501 -0.00000000000E+00 -0.00000000000E+00 -0.86183740555E+02  0.86183740702E+02  0.50400000000E-02 0. -1.
    5000001    1    1    2    0    0 -0.80243772559E+02  0.82765277147E+02  0.15263907971E+03  0.22960148691E+03  0.12700000000E+03 0.  0.
   -5000001    1    1    2    0    0  0.80243772559E+02 -0.82765277147E+02  0.10647246053E+03  0.20187753463E+03  0.12700000000E+03 0.  0.
<mgrwt>
<rscale>  0 0.34501501E+03</rscale>
<asrwt>0</asrwt>
<pdfrwt beam="1">  1        1 0.49327897E-01 0.34501501E+03</pdfrwt>
<pdfrwt beam="2">  1       -1 0.12311963E-01 0.34501501E+03</pdfrwt>
<totfact> 0.35513306E+03</totfact>
</mgrwt>
</event>
<event>
 4    1  0.6376580E-005  0.3664420E+03  0.7818608E-02  0.1056062E+00
          1   -1    0    0  501    0  0.00000000000E+00  0.00000000000E+00  0.23979777135E+03  0.23979777140E+03  0.50400000000E-02 0.  1.
         -1   -1    0    0    0  501 -0.00000000000E+00 -0.00000000000E+00 -0.13999267066E+03  0.13999267075E+03  0.50400000000E-02 0. -1.
    5000001    1    1    2    0    0 -0.12086191241E+03  0.24508509844E+02  0.98874823048E+02  0.20276464080E+03  0.12700000000E+03 0.  0.
   -5000001    1    1    2    0    0  0.12086191241E+03 -0.24508509844E+02  0.93027764039E+00  0.17702580135E+03  0.12700000000E+03 0.  0.
<mgrwt>
<rscale>  0 0.36644198E+03</rscale>
<asrwt>0</asrwt>
<pdfrwt beam="1">  1        1 0.34256825E-01 0.36644198E+03</pdfrwt>
<pdfrwt beam="2">  1       -1 0.19998953E-01 0.36644198E+03</pdfrwt>
<totfact> 0.25912779E+03</totfact>
</mgrwt>
</event>
<event>
 4    1  0.6376580E-005  0.6556038E+03  0.7818608E-02  0.9796320E-01
         -1   -1    0    0    0  501 -0.00000000000E+00  0.00000000000E+00  0.28476226159E+03  0.28476226163E+03  0.50400000000E-02 0. -1.
          1   -1    0    0  501    0  0.00000000000E+00 -0.00000000000E+00 -0.37734666899E+03  0.37734666903E+03  0.50400000000E-02 0.  1.
    5000001    1    1    2    0    0  0.64232739806E+02  0.27740729028E+03 -0.14851131781E+03  0.34534802892E+03  0.12700000000E+03 0.  0.
   -5000001    1    1    2    0    0 -0.64232739806E+02 -0.27740729028E+03  0.55926910406E+02  0.31676090174E+03  0.12700000000E+03 0.  0.
<mgrwt>
<rscale>  0 0.65560382E+03</rscale>
<asrwt>0</asrwt>
<pdfrwt beam="1">  1        1 0.53906667E-01 0.65560382E+03</pdfrwt>
<pdfrwt beam="2">  1       -1 0.40680323E-01 0.65560382E+03</pdfrwt>
<totfact> 0.42686004E+02</totfact>
</mgrwt>
</event>
<event>
 4    1  0.6376580E-005  0.3156143E+03  0.7818608E-02  0.1077686E+00
          1   -1    0    0  501    0  0.00000000000E+00  0.00000000000E+00  0.47519017511E+03  0.47519017514E+03  0.50400000000E-02 0.  1.
         -1   -1    0    0    0  501 -0.00000000000E+00 -0.00000000000E+00 -0.52406580770E+02  0.52406581012E+02  0.50400000000E-02 0. -1.
    5000001    1    1    2    0    0  0.55668304167E+02  0.75331047322E+02  0.21240253746E+03  0.26460832319E+03  0.12700000000E+03 0.  0.
   -5000001    1    1    2    0    0 -0.55668304167E+02 -0.75331047322E+02  0.21038105688E+03  0.26298843296E+03  0.12700000000E+03 0.  0.
<mgrwt>
<rscale>  0 0.31561427E+03</rscale>
<asrwt>0</asrwt>
<pdfrwt beam="1">  1        1 0.67884313E-01 0.31561427E+03</pdfrwt>
<pdfrwt beam="2">  1       -1 0.74866541E-02 0.31561427E+03</pdfrwt>
<totfact> 0.50832981E+03</totfact>
</mgrwt>
</event>
<event>
 4    1  0.6376580E-005  0.2930926E+03  0.7818608E-02  0.1088745E+00
          1   -1    0    0  501    0  0.00000000000E+00  0.00000000000E+00  0.36642407249E+03  0.36642407252E+03  0.50400000000E-02 0.  1.
         -1   -1    0    0    0  501 -0.00000000000E+00 -0.00000000000E+00 -0.58609208235E+02  0.58609208452E+02  0.50400000000E-02 0. -1.
    5000001    1    1    2    0    0 -0.28136519793E+02 -0.57482179419E+02  0.20519826467E+03  0.24966215676E+03  0.12700000000E+03 0.  0.
   -5000001    1    1    2    0    0  0.28136519793E+02  0.57482179419E+02  0.10261659958E+03  0.17537112421E+03  0.12700000000E+03 0.  0.
<mgrwt>
<rscale>  0 0.29309265E+03</rscale>
<asrwt>0</asrwt>
<pdfrwt beam="1">  1        1 0.52346298E-01 0.29309265E+03</pdfrwt>
<pdfrwt beam="2">  1       -1 0.83727437E-02 0.29309265E+03</pdfrwt>
<totfact> 0.59684814E+03</totfact>
</mgrwt>
</event>
<event>
 4    1  0.6376580E-005  0.3192960E+03  0.7818608E-02  0.1075974E+00
         -1   -1    0    0    0  501 -0.00000000000E+00  0.00000000000E+00  0.13643080972E+02  0.13643081903E+02  0.50400000000E-02 0. -1.
          1   -1    0    0  501    0  0.00000000000E+00 -0.00000000000E+00 -0.18681624019E+04  0.18681624019E+04  0.50400000000E-02 0.  1.
    5000001    1    1    2    0    0  0.25816437635E+02 -0.64548050206E+02 -0.53078358003E+03  0.55017556114E+03  0.12700000000E+03 0.  0.
   -5000001    1    1    2    0    0 -0.25816437635E+02  0.64548050206E+02 -0.13237357409E+04  0.13316299226E+04  0.12700000000E+03 0.  0.
<mgrwt>
<rscale>  0 0.31929605E+03</rscale>
<asrwt>0</asrwt>
<pdfrwt beam="1">  1        1 0.26688018E+00 0.31929605E+03</pdfrwt>
<pdfrwt beam="2">  1       -1 0.19490128E-02 0.31929605E+03</pdfrwt>
<totfact> 0.35749553E+03</totfact>
</mgrwt>
</event>
<event>
 4    1  0.6376580E-005  0.3225982E+03  0.7818608E-02  0.1074460E+00
          1   -1    0    0  501    0  0.00000000000E+00  0.00000000000E+00  0.10691812305E+04  0.10691812306E+04  0.50400000000E-02 0.  1.
         -1   -1    0    0    0  501 -0.00000000000E+00 -0.00000000000E+00 -0.24333946953E+02  0.24333947475E+02  0.50400000000E-02 0. -1.
    5000001    1    1    2    0    0  0.55698001697E+02  0.31659731189E+02  0.26463173936E+03  0.30043895128E+03  0.12700000000E+03 0.  0.
   -5000001    1    1    2    0    0 -0.55698001697E+02 -0.31659731189E+02  0.78021554424E+03  0.79307622675E+03  0.12700000000E+03 0.  0.
<mgrwt>
<rscale>  0 0.32259820E+03</rscale>
<asrwt>0</asrwt>
<pdfrwt beam="1">  1        1 0.15274017E+00 0.32259820E+03</pdfrwt>
<pdfrwt beam="2">  1       -1 0.34762783E-02 0.32259820E+03</pdfrwt>
<totfact> 0.49238969E+03</totfact>
</mgrwt>
</event>
<event>
 4    1  0.6376580E-005  0.4181776E+03  0.7818608E-02  0.1037661E+00
          1   -1    0    0  501    0  0.00000000000E+00  0.00000000000E+00  0.73462437819E+03  0.73462437821E+03  0.50400000000E-02 0.  1.
         -1   -1    0    0    0  501 -0.00000000000E+00 -0.00000000000E+00 -0.59510854012E+02  0.59510854225E+02  0.50400000000E-02 0. -1.
    5000001    1    1    2    0    0 -0.48205826290E+02  0.10446524136E+03  0.56506388765E+03  0.59047691358E+03  0.12700000000E+03 0.  0.
   -5000001    1    1    2    0    0  0.48205826290E+02 -0.10446524136E+03  0.11004963653E+03  0.20365831886E+03  0.12700000000E+03 0.  0.
<mgrwt>
<rscale>  0 0.41817759E+03</rscale>
<asrwt>0</asrwt>
<pdfrwt beam="1">  1        1 0.10494634E+00 0.41817759E+03</pdfrwt>
<pdfrwt beam="2">  1       -1 0.85015509E-02 0.41817759E+03</pdfrwt>
<totfact> 0.23049736E+03</totfact>
</mgrwt>
</event>
<event>
 4    1  0.6376580E-005  0.3643489E+03  0.7818608E-02  0.1056875E+00
         -1   -1    0    0    0  501 -0.00000000000E+00  0.00000000000E+00  0.32897643363E+03  0.32897643367E+03  0.50400000000E-02 0. -1.
          1   -1    0    0  501    0  0.00000000000E+00 -0.00000000000E+00 -0.10088116578E+03  0.10088116590E+03  0.50400000000E-02 0.  1.
    5000001    1    1    2    0    0 -0.97224334181E+02  0.79902084054E+02  0.72811891847E+02  0.19304788470E+03  0.12700000000E+03 0.  0.
   -5000001    1    1    2    0    0  0.97224334181E+02 -0.79902084054E+02  0.15528337601E+03  0.23680971487E+03  0.12700000000E+03 0.  0.
<mgrwt>
<rscale>  0 0.36434888E+03</rscale>
<asrwt>0</asrwt>
<pdfrwt beam="1">  1        1 0.14411595E-01 0.36434888E+03</pdfrwt>
<pdfrwt beam="2">  1       -1 0.46996635E-01 0.36434888E+03</pdfrwt>
<totfact> 0.18188103E+03</totfact>
</mgrwt>
</event>
<event>
 4    1  0.6376580E-005  0.3200630E+03  0.7818608E-02  0.1075620E+00
          1   -1    0    0  501    0  0.00000000000E+00  0.00000000000E+00  0.38874931956E+03  0.38874931959E+03  0.50400000000E-02 0.  1.
         -1   -1    0    0    0  501 -0.00000000000E+00 -0.00000000000E+00 -0.65878122285E+02  0.65878122478E+02  0.50400000000E-02 0. -1.
    5000001    1    1    2    0    0  0.76582446562E+02 -0.38857589047E+02  0.96245820313E+02  0.18101668784E+03  0.12700000000E+03 0.  0.
   -5000001    1    1    2    0    0 -0.76582446562E+02  0.38857589047E+02  0.22662537696E+03  0.27361075423E+03  0.12700000000E+03 0.  0.
<mgrwt>
<rscale>  0 0.32006296E+03</rscale>
<asrwt>0</asrwt>
<pdfrwt beam="1">  1        1 0.55535617E-01 0.32006296E+03</pdfrwt>
<pdfrwt beam="2">  1       -1 0.94111603E-02 0.32006296E+03</pdfrwt>
<totfact> 0.46351858E+03</totfact>
</mgrwt>
</event>
<event>
 4    1  0.6376580E-005  0.5770630E+03  0.7818608E-02  0.9954170E-01
          1   -1    0    0  501    0  0.00000000000E+00  0.00000000000E+00  0.13233115975E+04  0.13233115975E+04  0.50400000000E-02 0.  1.
         -1   -1    0    0    0  501 -0.00000000000E+00 -0.00000000000E+00 -0.62910673041E+02  0.62910673243E+02  0.50400000000E-02 0. -1.
    5000001    1    1    2    0    0  0.19470849315E+03 -0.71663199050E+02  0.10029245796E+04  0.10320047111E+04  0.12700000000E+03 0.  0.
   -5000001    1    1    2    0    0 -0.19470849315E+03  0.71663199050E+02  0.25747634492E+03  0.35421755969E+03  0.12700000000E+03 0.  0.
<mgrwt>
<rscale>  0 0.57706299E+03</rscale>
<asrwt>0</asrwt>
<pdfrwt beam="1">  1        1 0.18904452E+00 0.57706299E+03</pdfrwt>
<pdfrwt beam="2">  1       -1 0.89872390E-02 0.57706299E+03</pdfrwt>
<totfact> 0.77486581E+02</totfact>
</mgrwt>
</event>
<event>
 4    1  0.6376580E-005  0.6380482E+03  0.7818608E-02  0.9829468E-01
          1   -1    0    0  501    0  0.00000000000E+00  0.00000000000E+00  0.22740881932E+04  0.22740881932E+04  0.50400000000E-02 0.  1.
         -1   -1    0    0    0  501 -0.00000000000E+00 -0.00000000000E+00 -0.44754804950E+02  0.44754805234E+02  0.50400000000E-02 0. -1.
    5000001    1    1    2    0    0 -0.12205706333E+03  0.24090533364E+02  0.15196708599E+03  0.23388303857E+03  0.12700000000E+03 0.  0.
   -5000001    1    1    2    0    0  0.12205706333E+03 -0.24090533364E+02  0.20773663022E+04  0.20849599598E+04  0.12700000000E+03 0.  0.
<mgrwt>
<rscale>  0 0.63804819E+03</rscale>
<asrwt>0</asrwt>
<pdfrwt beam="1">  1        1 0.32486972E+00 0.63804819E+03</pdfrwt>
<pdfrwt beam="2">  1       -1 0.63935441E-02 0.63804819E+03</pdfrwt>
<totfact> 0.33129434E+02</totfact>
</mgrwt>
</event>
<event>
 4    1  0.6376580E-005  0.3600962E+03  0.7818608E-02  0.1058546E+00
          1   -1    0    0  501    0  0.00000000000E+00  0.00000000000E+00  0.93671326477E+03  0.93671326478E+03  0.50400000000E-02 0.  1.
         -1   -1    0    0    0  501 -0.00000000000E+00 -0.00000000000E+00 -0.34607510298E+02  0.34607510665E+02  0.50400000000E-02 0. -1.
    5000001    1    1    2    0    0  0.81960055592E+01 -0.11289268260E+03  0.61009344019E+03  0.63336793261E+03  0.12700000000E+03 0.  0.
   -5000001    1    1    2    0    0 -0.81960055592E+01  0.11289268260E+03  0.29201231427E+03  0.33795284283E+03  0.12700000000E+03 0.  0.
<mgrwt>
<rscale>  0 0.36009618E+03</rscale>
<asrwt>0</asrwt>
<pdfrwt beam="1">  1        1 0.13381618E+00 0.36009618E+03</pdfrwt>
<pdfrwt beam="2">  1       -1 0.49439303E-02 0.36009618E+03</pdfrwt>
<totfact> 0.36281774E+03</totfact>
</mgrwt>
</event>
<event>
 4    1  0.6376580E-005  0.3662848E+03  0.7818608E-02  0.1056123E+00
         -1   -1    0    0    0  501 -0.00000000000E+00  0.00000000000E+00  0.25039820620E+02  0.25039821127E+02  0.50400000000E-02 0.  1.
          1   -1    0    0  501    0  0.00000000000E+00 -0.00000000000E+00 -0.13395117500E+04  0.13395117501E+04  0.50400000000E-02 0. -1.
    5000001    1    1    2    0    0 -0.56007381321E+02  0.11765818028E+03 -0.73465408950E+03  0.75685263121E+03  0.12700000000E+03 0.  0.
   -5000001    1    1    2    0    0  0.56007381321E+02 -0.11765818028E+03 -0.57981783992E+03  0.60769893997E+03  0.12700000000E+03 0.  0.
<mgrwt>
<rscale>  0 0.36628478E+03</rscale>
<asrwt>0</asrwt>
<pdfrwt beam="1">  1        1 0.19135878E+00 0.36628478E+03</pdfrwt>
<pdfrwt beam="2">  1       -1 0.35771181E-02 0.36628478E+03</pdfrwt>
<totfact> 0.31076828E+03</totfact>
</mgrwt>
</event>
<event>
 4    1  0.6376580E-005  0.4345964E+03  0.7818608E-02  0.1032418E+00
          1   -1    0    0  501    0  0.00000000000E+00  0.00000000000E+00  0.11346143601E+03  0.11346143612E+03  0.50400000000E-02 0.  1.
         -1   -1    0    0    0  501 -0.00000000000E+00 -0.00000000000E+00 -0.41616346722E+03  0.41616346725E+03  0.50400000000E-02 0. -1.
    5000001    1    1    2    0    0 -0.12572877993E+03  0.62856260304E+02 -0.28107309400E+03  0.33895386077E+03  0.12700000000E+03 0.  0.
   -5000001    1    1    2    0    0  0.12572877993E+03 -0.62856260304E+02 -0.21628937213E+02  0.19067104260E+03  0.12700000000E+03 0.  0.
<mgrwt>
<rscale>  0 0.43459639E+03</rscale>
<asrwt>0</asrwt>
<pdfrwt beam="1">  1        1 0.16208777E-01 0.43459639E+03</pdfrwt>
<pdfrwt beam="2">  1       -1 0.59451923E-01 0.43459639E+03</pdfrwt>
<totfact> 0.99944807E+02</totfact>
</mgrwt>
</event>
<event>
 4    1  0.6376580E-005  0.7285450E+03  0.7818608E-02  0.9669624E-01
         -1   -1    0    0    0  501 -0.00000000000E+00  0.00000000000E+00  0.79128133614E+03  0.79128133616E+03  0.50400000000E-02 0. -1.
          1   -1    0    0  501    0  0.00000000000E+00 -0.00000000000E+00 -0.16769569015E+03  0.16769569022E+03  0.50400000000E-02 0.  1.
    5000001    1    1    2    0    0  0.17792845444E+03 -0.11069657471E+03 -0.43003556320E+02  0.24877815902E+03  0.12700000000E+03 0.  0.
   -5000001    1    1    2    0    0 -0.17792845444E+03  0.11069657471E+03  0.66658920232E+03  0.71019886736E+03  0.12700000000E+03 0.  0.
<mgrwt>
<rscale>  0 0.72854504E+03</rscale>
<asrwt>0</asrwt>
<pdfrwt beam="1">  1        1 0.23956527E-01 0.72854504E+03</pdfrwt>
<pdfrwt beam="2">  1       -1 0.11304019E+00 0.72854504E+03</pdfrwt>
<totfact> 0.14991702E+02</totfact>
</mgrwt>
</event>
<event>
 4    1  0.6376580E-005  0.3633875E+03  0.7818608E-02  0.1057251E+00
          1   -1    0    0  501    0  0.00000000000E+00  0.00000000000E+00  0.39868767354E+04  0.39868767354E+04  0.50400000000E-02 0.  1.
         -1   -1    0    0    0  501 -0.00000000000E+00 -0.00000000000E+00 -0.82803213653E+01  0.82803228992E+01  0.50400000000E-02 0. -1.
    5000001    1    1    2    0    0 -0.22485528382E+01  0.12991729211E+03  0.19864972917E+04  0.19947892241E+04  0.12700000000E+03 0.  0.
   -5000001    1    1    2    0    0  0.22485528382E+01 -0.12991729211E+03  0.19920991223E+04  0.20003678342E+04  0.12700000000E+03 0.  0.
<mgrwt>
<rscale>  0 0.36338753E+03</rscale>
<asrwt>0</asrwt>
<pdfrwt beam="1">  1        1 0.56955586E+00 0.36338753E+03</pdfrwt>
<pdfrwt beam="2">  1       -1 0.11828989E-02 0.36338753E+03</pdfrwt>
<totfact> 0.31743561E+02</totfact>
</mgrwt>
</event>
<event>
 4    1  0.6376580E-005  0.2882567E+03  0.7818608E-02  0.1091263E+00
          1   -1    0    0  501    0  0.00000000000E+00  0.00000000000E+00  0.90328790848E+02  0.90328790989E+02  0.50400000000E-02 0. -1.
         -1   -1    0    0    0  501 -0.00000000000E+00 -0.00000000000E+00 -0.22997078956E+03  0.22997078962E+03  0.50400000000E-02 0.  1.
    5000001    1    1    2    0    0 -0.48820019474E+02  0.47128600970E+02 -0.76803127195E+02  0.16319381017E+03  0.12700000000E+03 0.  0.
   -5000001    1    1    2    0    0  0.48820019474E+02 -0.47128600970E+02 -0.62838871520E+02  0.15710577044E+03  0.12700000000E+03 0.  0.
<mgrwt>
<rscale>  0 0.28825671E+03</rscale>
<asrwt>0</asrwt>
<pdfrwt beam="1">  1        1 0.12904113E-01 0.28825671E+03</pdfrwt>
<pdfrwt beam="2">  1       -1 0.32852970E-01 0.28825671E+03</pdfrwt>
<totfact> 0.39626447E+03</totfact>
</mgrwt>
</event>
<event>
 4    1  0.6376580E-005  0.5249999E+03  0.7818608E-02  0.1007452E+00
         -1   -1    0    0    0  501 -0.00000000000E+00  0.00000000000E+00  0.26831781064E+03  0.26831781069E+03  0.50400000000E-02 0.  1.
          1   -1    0    0  501    0  0.00000000000E+00 -0.00000000000E+00 -0.25680823165E+03  0.25680823170E+03  0.50400000000E-02 0. -1.
    5000001    1    1    2    0    0  0.13452761580E+03 -0.11443970088E+03  0.15270196089E+03  0.26578377191E+03  0.12700000000E+03 0.  0.
   -5000001    1    1    2    0    0 -0.13452761580E+03  0.11443970088E+03 -0.14119238190E+03  0.25934227048E+03  0.12700000000E+03 0.  0.
<mgrwt>
<rscale>  0 0.52499990E+03</rscale>
<asrwt>0</asrwt>
<pdfrwt beam="1">  1        1 0.36686890E-01 0.52499990E+03</pdfrwt>
<pdfrwt beam="2">  1       -1 0.38331116E-01 0.52499990E+03</pdfrwt>
<totfact> 0.78288512E+02</totfact>
</mgrwt>
</event>
<event>
 4    1  0.6376580E-005  0.4210069E+03  0.7818608E-02  0.1036739E+00
          1   -1    0    0  501    0  0.00000000000E+00  0.00000000000E+00  0.12323792056E+04  0.12323792056E+04  0.50400000000E-02 0.  1.
         -1   -1    0    0    0  501 -0.00000000000E+00 -0.00000000000E+00 -0.35956228081E+02  0.35956228434E+02  0.50400000000E-02 0. -1.
    5000001    1    1    2    0    0  0.12693594367E+03 -0.10684363208E+03  0.52114409308E+03  0.56146991128E+03  0.12700000000E+03 0.  0.
   -5000001    1    1    2    0    0 -0.12693594367E+03  0.10684363208E+03  0.67527888441E+03  0.70686552274E+03  0.12700000000E+03 0.  0.
<mgrwt>
<rscale>  0 0.42100693E+03</rscale>
<asrwt>0</asrwt>
<pdfrwt beam="1">  1        1 0.17605414E+00 0.42100693E+03</pdfrwt>
<pdfrwt beam="2">  1       -1 0.51366051E-02 0.42100693E+03</pdfrwt>
<totfact> 0.21200011E+03</totfact>
</mgrwt>
</event>
<event>
 4    1  0.6376580E-005  0.4048561E+03  0.7818608E-02  0.1042111E+00
          1   -1    0    0  501    0  0.00000000000E+00  0.00000000000E+00  0.27122431260E+04  0.27122431260E+04  0.50400000000E-02 0.  1.
         -1   -1    0    0    0  501 -0.00000000000E+00 -0.00000000000E+00 -0.15108200212E+02  0.15108201052E+02  0.50400000000E-02 0. -1.
    5000001    1    1    2    0    0 -0.23956112200E+02  0.23840251054E+02  0.31135369885E+03  0.33795321964E+03  0.12700000000E+03 0.  0.
   -5000001    1    1    2    0    0  0.23956112200E+02 -0.23840251054E+02  0.23857812270E+04  0.23893981075E+04  0.12700000000E+03 0.  0.
<mgrwt>
<rscale>  0 0.40485609E+03</rscale>
<asrwt>0</asrwt>
<pdfrwt beam="1">  1        1 0.38746370E+00 0.40485609E+03</pdfrwt>
<pdfrwt beam="2">  1       -1 0.21583122E-02 0.40485609E+03</pdfrwt>
<totfact> 0.93197130E+02</totfact>
</mgrwt>
</event>
<event>
 4    1  0.6376580E-005  0.3094291E+03  0.7818608E-02  0.1080620E+00
         -1   -1    0    0    0  501 -0.00000000000E+00  0.00000000000E+00  0.53170404905E+02  0.53170405144E+02  0.50400000000E-02 0. -1.
          1   -1    0    0  501    0  0.00000000000E+00 -0.00000000000E+00 -0.45018630031E+03  0.45018630034E+03  0.50400000000E-02 0.  1.
    5000001    1    1    2    0    0 -0.21913725896E+02 -0.76628336730E+02 -0.13644719320E+03  0.20272875945E+03  0.12700000000E+03 0.  0.
   -5000001    1    1    2    0    0  0.21913725896E+02  0.76628336730E+02 -0.26056870220E+03  0.30062794604E+03  0.12700000000E+03 0.  0.
<mgrwt>
<rscale>  0 0.30942907E+03</rscale>
<asrwt>0</asrwt>
<pdfrwt beam="1">  1        1 0.64312326E-01 0.30942907E+03</pdfrwt>
<pdfrwt beam="2">  1       -1 0.75957724E-02 0.30942907E+03</pdfrwt>
<totfact> 0.53314043E+03</totfact>
</mgrwt>
</event>
<event>
 4    1  0.6376580E-005  0.3536495E+03  0.7818608E-02  0.1061127E+00
          1   -1    0    0  501    0  0.00000000000E+00  0.00000000000E+00  0.47197154482E+02  0.47197154751E+02  0.50400000000E-02 0.  1.
         -1   -1    0    0    0  501 -0.00000000000E+00 -0.00000000000E+00 -0.66247625055E+03  0.66247625057E+03  0.50400000000E-02 0. -1.
    5000001    1    1    2    0    0  0.14009700868E+01 -0.72557154744E+02 -0.50701736570E+03  0.52769509429E+03  0.12700000000E+03 0.  0.
   -5000001    1    1    2    0    0 -0.14009700868E+01  0.72557154744E+02 -0.10826173037E+03  0.18197831103E+03  0.12700000000E+03 0.  0.
<mgrwt>
<rscale>  0 0.35364951E+03</rscale>
<asrwt>0</asrwt>
<pdfrwt beam="1">  1        1 0.67424511E-02 0.35364951E+03</pdfrwt>
<pdfrwt beam="2">  1       -1 0.94639459E-01 0.35364951E+03</pdfrwt>
<totfact> 0.12573664E+03</totfact>
</mgrwt>
</event>
<event>
 4    1  0.6376580E-005  0.3443724E+03  0.7818608E-02  0.1064949E+00
         -1   -1    0    0    0  501 -0.00000000000E+00  0.00000000000E+00  0.19040028931E+03  0.19040028937E+03  0.50400000000E-02 0. -1.
          1   -1    0    0  501    0  0.00000000000E+00 -0.00000000000E+00 -0.15571449995E+03  0.15571450003E+03  0.50400000000E-02 0.  1.
    5000001    1    1    2    0    0 -0.11892943429E+02 -0.79338599601E+02 -0.67243669282E+02  0.16458057768E+03  0.12700000000E+03 0.  0.
   -5000001    1    1    2    0    0  0.11892943429E+02  0.79338599601E+02  0.10192945864E+03  0.18153421173E+03  0.12700000000E+03 0.  0.
<mgrwt>
<rscale>  0 0.34437239E+03</rscale>
<asrwt>0</asrwt>
<pdfrwt beam="1">  1        1 0.22244929E-01 0.34437239E+03</pdfrwt>
<pdfrwt beam="2">  1       -1 0.27200041E-01 0.34437239E+03</pdfrwt>
<totfact> 0.26947949E+03</totfact>
</mgrwt>
</event>
<event>
 4    1  0.6376580E-005  0.3671193E+03  0.7818608E-02  0.1055800E+00
         -1   -1    0    0    0  501 -0.00000000000E+00  0.00000000000E+00  0.18061236370E+02  0.18061237073E+02  0.50400000000E-02 0. -1.
          1   -1    0    0  501    0  0.00000000000E+00 -0.00000000000E+00 -0.18655502188E+04  0.18655502188E+04  0.50400000000E-02 0.  1.
    5000001    1    1    2    0    0  0.23199560922E+02  0.13019883802E+03 -0.87925517532E+03  0.89816959444E+03  0.12700000000E+03 0.  0.
   -5000001    1    1    2    0    0 -0.23199560922E+02 -0.13019883802E+03 -0.96823380709E+03  0.98544186142E+03  0.12700000000E+03 0.  0.
<mgrwt>
<rscale>  0 0.36711929E+03</rscale>
<asrwt>0</asrwt>
<pdfrwt beam="1">  1        1 0.26650705E+00 0.36711929E+03</pdfrwt>
<pdfrwt beam="2">  1       -1 0.25801779E-02 0.36711929E+03</pdfrwt>
<totfact> 0.23700084E+03</totfact>
</mgrwt>
</event>
<event>
 4    1  0.6376580E-005  0.2583287E+03  0.7818608E-02  0.1108152E+00
         -1   -1    0    0    0  501 -0.00000000000E+00  0.00000000000E+00  0.49792303664E+03  0.49792303667E+03  0.50400000000E-02 0. -1.
          1   -1    0    0  501    0  0.00000000000E+00 -0.00000000000E+00 -0.33506041750E+02  0.33506042129E+02  0.50400000000E-02 0.  1.
    5000001    1    1    2    0    0  0.10347285587E+02 -0.18817460654E+02  0.21234129633E+03  0.24835255036E+03  0.12700000000E+03 0.  0.
   -5000001    1    1    2    0    0 -0.10347285587E+02  0.18817460654E+02  0.25207569856E+03  0.28307652843E+03  0.12700000000E+03 0.  0.
<mgrwt>
<rscale>  0 0.25832871E+03</rscale>
<asrwt>0</asrwt>
<pdfrwt beam="1">  1        1 0.47865776E-02 0.25832871E+03</pdfrwt>
<pdfrwt beam="2">  1       -1 0.71131860E-01 0.25832871E+03</pdfrwt>
<totfact> 0.36519240E+03</totfact>
</mgrwt>
</event>
<event>
 4    1  0.6376580E-005  0.4700375E+03  0.7818608E-02  0.1021910E+00
          1   -1    0    0  501    0  0.00000000000E+00  0.00000000000E+00  0.18742002183E+03  0.18742002189E+03  0.50400000000E-02 0.  1.
         -1   -1    0    0    0  501 -0.00000000000E+00 -0.00000000000E+00 -0.29470607136E+03  0.29470607140E+03  0.50400000000E-02 0. -1.
    5000001    1    1    2    0    0 -0.39290745496E+02 -0.18384119276E+03 -0.11656790883E+03  0.25506552924E+03  0.12700000000E+03 0.  0.
   -5000001    1    1    2    0    0  0.39290745496E+02  0.18384119276E+03  0.92818592957E+01  0.22706056406E+03  0.12700000000E+03 0.  0.
<mgrwt>
<rscale>  0 0.47003752E+03</rscale>
<asrwt>0</asrwt>
<pdfrwt beam="1">  1        1 0.26774289E-01 0.47003752E+03</pdfrwt>
<pdfrwt beam="2">  1       -1 0.42100867E-01 0.47003752E+03</pdfrwt>
<totfact> 0.99102136E+02</totfact>
</mgrwt>
</event>
<event>
 4    1  0.6376580E-005  0.4904919E+03  0.7818608E-02  0.1016291E+00
          1   -1    0    0  501    0  0.00000000000E+00  0.00000000000E+00  0.15073625729E+04  0.15073625729E+04  0.50400000000E-02 0.  1.
         -1   -1    0    0    0  501 -0.00000000000E+00 -0.00000000000E+00 -0.39901195680E+02  0.39901195999E+02  0.50400000000E-02 0. -1.
    5000001    1    1    2    0    0 -0.31162751626E+02 -0.17866754906E+03  0.10664289404E+04  0.10891707374E+04  0.12700000000E+03 0.  0.
   -5000001    1    1    2    0    0  0.31162751626E+02  0.17866754906E+03  0.40103243676E+03  0.45809303150E+03  0.12700000000E+03 0.  0.
<mgrwt>
<rscale>  0 0.49049187E+03</rscale>
<asrwt>0</asrwt>
<pdfrwt beam="1">  1        1 0.21533745E+00 0.49049187E+03</pdfrwt>
<pdfrwt beam="2">  1       -1 0.57001725E-02 0.49049187E+03</pdfrwt>
<totfact> 0.11953799E+03</totfact>
</mgrwt>
</event>
<event>
 4    1  0.6376580E-005  0.1365383E+04  0.7818608E-02  0.8979265E-01
          1   -1    0    0  501    0  0.00000000000E+00  0.00000000000E+00  0.17111339786E+04  0.17111339786E+04  0.50400000000E-02 0.  1.
         -1   -1    0    0    0  501 -0.00000000000E+00 -0.00000000000E+00 -0.27237339541E+03  0.27237339546E+03  0.50400000000E-02 0. -1.
    5000001    1    1    2    0    0  0.32496445181E+03 -0.58475165385E+03  0.64818288338E+03  0.94010980312E+03  0.12700000000E+03 0.  0.
   -5000001    1    1    2    0    0 -0.32496445181E+03  0.58475165385E+03  0.79057769980E+03  0.10433975709E+04  0.12700000000E+03 0.  0.
<mgrwt>
<rscale>  0 0.13653825E+04</rscale>
<asrwt>0</asrwt>
<pdfrwt beam="1">  1        1 0.24444770E+00 0.13653825E+04</pdfrwt>
<pdfrwt beam="2">  1       -1 0.38910487E-01 0.13653825E+04</pdfrwt>
<totfact> 0.35602379E+01</totfact>
</mgrwt>
</event>
<event>
 4    1  0.6376580E-005  0.3579450E+03  0.7818608E-02  0.1059401E+00
         -1   -1    0    0    0  501 -0.00000000000E+00  0.00000000000E+00  0.26369629641E+03  0.26369629645E+03  0.50400000000E-02 0. -1.
          1   -1    0    0  501    0  0.00000000000E+00 -0.00000000000E+00 -0.12146989771E+03  0.12146989782E+03  0.50400000000E-02 0.  1.
    5000001    1    1    2    0    0  0.91477422473E+02  0.81848075396E+02  0.40020502738E+02  0.18110181365E+03  0.12700000000E+03 0.  0.
   -5000001    1    1    2    0    0 -0.91477422473E+02 -0.81848075396E+02  0.10220589596E+03  0.20406438062E+03  0.12700000000E+03 0.  0.
<mgrwt>
<rscale>  0 0.35794504E+03</rscale>
<asrwt>0</asrwt>
<pdfrwt beam="1">  1        1 0.17352843E-01 0.35794504E+03</pdfrwt>
<pdfrwt beam="2">  1       -1 0.37670899E-01 0.35794504E+03</pdfrwt>
<totfact> 0.21213363E+03</totfact>
</mgrwt>
</event>
<event>
 4    1  0.6376580E-005  0.3293530E+03  0.7818608E-02  0.1071424E+00
          1   -1    0    0  501    0  0.00000000000E+00  0.00000000000E+00  0.47399724259E+03  0.47399724262E+03  0.50400000000E-02 0.  1.
         -1   -1    0    0    0  501 -0.00000000000E+00 -0.00000000000E+00 -0.57212041409E+02  0.57212041631E+02  0.50400000000E-02 0. -1.
    5000001    1    1    2    0    0  0.98159258898E+02  0.32564742397E+02  0.23603126788E+03  0.28728985706E+03  0.12700000000E+03 0.  0.
   -5000001    1    1    2    0    0 -0.98159258898E+02 -0.32564742397E+02  0.18075393331E+03  0.24391942719E+03  0.12700000000E+03 0.  0.
<mgrwt>
<rscale>  0 0.32935300E+03</rscale>
<asrwt>0</asrwt>
<pdfrwt beam="1">  1        1 0.67713890E-01 0.32935300E+03</pdfrwt>
<pdfrwt beam="2">  1       -1 0.81731490E-02 0.32935300E+03</pdfrwt>
<totfact> 0.44631880E+03</totfact>
</mgrwt>
</event>
<event>
 4    1  0.6376580E-005  0.3428685E+03  0.7818608E-02  0.1065581E+00
          1   -1    0    0  501    0  0.00000000000E+00  0.00000000000E+00  0.92106299249E+03  0.92106299250E+03  0.50400000000E-02 0.  1.
         -1   -1    0    0    0  501 -0.00000000000E+00 -0.00000000000E+00 -0.31908452102E+02  0.31908452500E+02  0.50400000000E-02 0. -1.
    5000001    1    1    2    0    0 -0.10098026379E+03 -0.33607281514E+02  0.32233917194E+03  0.36243344881E+03  0.12700000000E+03 0.  0.
   -5000001    1    1    2    0    0  0.10098026379E+03  0.33607281514E+02  0.56681536844E+03  0.59053799619E+03  0.12700000000E+03 0.  0.
<mgrwt>
<rscale>  0 0.34286846E+03</rscale>
<asrwt>0</asrwt>
<pdfrwt beam="1">  1        1 0.13158042E+00 0.34286846E+03</pdfrwt>
<pdfrwt beam="2">  1       -1 0.45583506E-02 0.34286846E+03</pdfrwt>
<totfact> 0.42103880E+03</totfact>
</mgrwt>
</event>
<event>
 4    1  0.6376580E-005  0.3821306E+03  0.7818608E-02  0.1050149E+00
         -1   -1    0    0    0  501 -0.00000000000E+00  0.00000000000E+00  0.68871235163E+02  0.68871235348E+02  0.50400000000E-02 0. -1.
          1   -1    0    0  501    0  0.00000000000E+00 -0.00000000000E+00 -0.53006092407E+03  0.53006092409E+03  0.50400000000E-02 0.  1.
    5000001    1    1    2    0    0 -0.29263760005E+02 -0.11629241391E+03 -0.10922230846E+03  0.20600681020E+03  0.12700000000E+03 0.  0.
   -5000001    1    1    2    0    0  0.29263760005E+02  0.11629241391E+03 -0.35196738044E+03  0.39292534924E+03  0.12700000000E+03 0.  0.
<mgrwt>
<rscale>  0 0.38213061E+03</rscale>
<asrwt>0</asrwt>
<pdfrwt beam="1">  1        1 0.75722987E-01 0.38213061E+03</pdfrwt>
<pdfrwt beam="2">  1       -1 0.98387482E-02 0.38213061E+03</pdfrwt>
<totfact> 0.28968596E+03</totfact>
</mgrwt>
</event>
<event>
 4    1  0.6376580E-005  0.7477027E+03  0.7818608E-02  0.9638961E-01
         -1   -1    0    0    0  501 -0.00000000000E+00  0.00000000000E+00  0.99514804996E+02  0.99514805124E+02  0.50400000000E-02 0. -1.
          1   -1    0    0  501    0  0.00000000000E+00 -0.00000000000E+00 -0.14044627834E+04  0.14044627834E+04  0.50400000000E-02 0.  1.
    5000001    1    1    2    0    0 -0.20334229830E+03  0.22115644523E+03 -0.10199591472E+04  0.10708426241E+04  0.12700000000E+03 0.  0.
   -5000001    1    1    2    0    0  0.20334229830E+03 -0.22115644523E+03 -0.28498883122E+03  0.43313496449E+03  0.12700000000E+03 0.  0.
<mgrwt>
<rscale>  0 0.74770272E+03</rscale>
<asrwt>0</asrwt>
<pdfrwt beam="1">  1        1 0.20063753E+00 0.74770272E+03</pdfrwt>
<pdfrwt beam="2">  1       -1 0.14216402E-01 0.74770272E+03</pdfrwt>
<totfact> 0.32714241E+02</totfact>
</mgrwt>
</event>
<event>
 4    1  0.6376580E-005  0.3549764E+03  0.7818608E-02  0.1060591E+00
         -1   -1    0    0    0  501 -0.00000000000E+00  0.00000000000E+00  0.66810216328E+02  0.66810216519E+02  0.50400000000E-02 0. -1.
          1   -1    0    0  501    0  0.00000000000E+00 -0.00000000000E+00 -0.47151560606E+03  0.47151560609E+03  0.50400000000E-02 0.  1.
    5000001    1    1    2    0    0  0.13581506699E+02  0.12213781663E+03 -0.17738978376E+03  0.25039616402E+03  0.12700000000E+03 0.  0.
   -5000001    1    1    2    0    0 -0.13581506699E+02 -0.12213781663E+03 -0.22731560598E+03  0.28792965859E+03  0.12700000000E+03 0.  0.
<mgrwt>
<rscale>  0 0.35497639E+03</rscale>
<asrwt>0</asrwt>
<pdfrwt beam="1">  1        1 0.67359370E-01 0.35497639E+03</pdfrwt>
<pdfrwt beam="2">  1       -1 0.95443169E-02 0.35497639E+03</pdfrwt>
<totfact> 0.35422891E+03</totfact>
</mgrwt>
</event>
<event>
 4    1  0.6376580E-005  0.4108582E+03  0.7818608E-02  0.1040083E+00
          1   -1    0    0  501    0  0.00000000000E+00  0.00000000000E+00  0.49930473322E+03  0.49930473325E+03  0.50400000000E-02 0.  1.
         -1   -1    0    0    0  501 -0.00000000000E+00 -0.00000000000E+00 -0.84519777922E+02  0.84519778073E+02  0.50400000000E-02 0. -1.
    5000001    1    1    2    0    0 -0.73124243450E+02  0.13380239335E+03  0.13190753384E+03  0.23828309409E+03  0.12700000000E+03 0.  0.
   -5000001    1    1    2    0    0  0.73124243450E+02 -0.13380239335E+03  0.28287742146E+03  0.34554141723E+03  0.12700000000E+03 0.  0.
<mgrwt>
<rscale>  0 0.41085825E+03</rscale>
<asrwt>0</asrwt>
<pdfrwt beam="1">  1        1 0.71329246E-01 0.41085825E+03</pdfrwt>
<pdfrwt beam="2">  1       -1 0.12074254E-01 0.41085825E+03</pdfrwt>
<totfact> 0.22774911E+03</totfact>
</mgrwt>
</event>
<event>
 4    1  0.6376580E-005  0.3642957E+03  0.7818608E-02  0.1056896E+00
         -1   -1    0    0    0  501 -0.00000000000E+00  0.00000000000E+00  0.10683072097E+03  0.10683072108E+03  0.50400000000E-02 0.  1.
          1   -1    0    0  501    0  0.00000000000E+00 -0.00000000000E+00 -0.31056452954E+03  0.31056452958E+03  0.50400000000E-02 0. -1.
    5000001    1    1    2    0    0 -0.74533998429E+02 -0.83048038700E+02 -0.17954686102E+03  0.24661380528E+03  0.12700000000E+03 0.  0.
   -5000001    1    1    2    0    0  0.74533998429E+02  0.83048038700E+02 -0.24186947549E+02  0.17078144538E+03  0.12700000000E+03 0.  0.
<mgrwt>
<rscale>  0 0.36429566E+03</rscale>
<asrwt>0</asrwt>
<pdfrwt beam="1">  1        1 0.44366361E-01 0.36429566E+03</pdfrwt>
<pdfrwt beam="2">  1       -1 0.15261532E-01 0.36429566E+03</pdfrwt>
<totfact> 0.28920408E+03</totfact>
</mgrwt>
</event>
<event>
 4    1  0.6376580E-005  0.3156562E+03  0.7818608E-02  0.1077666E+00
         -1   -1    0    0    0  501 -0.00000000000E+00  0.00000000000E+00  0.38349351148E+02  0.38349351479E+02  0.50400000000E-02 0. -1.
          1   -1    0    0  501    0  0.00000000000E+00 -0.00000000000E+00 -0.64954709812E+03  0.64954709814E+03  0.50400000000E-02 0.  1.
    5000001    1    1    2    0    0 -0.76782608503E+02 -0.47836064195E+02 -0.25235838688E+03  0.29664391690E+03  0.12700000000E+03 0.  0.
   -5000001    1    1    2    0    0  0.76782608503E+02  0.47836064195E+02 -0.35883936010E+03  0.39125253272E+03  0.12700000000E+03 0.  0.
<mgrwt>
<rscale>  0 0.31565620E+03</rscale>
<asrwt>0</asrwt>
<pdfrwt beam="1">  1        1 0.92792436E-01 0.31565620E+03</pdfrwt>
<pdfrwt beam="2">  1       -1 0.54784792E-02 0.31565620E+03</pdfrwt>
<totfact> 0.53609034E+03</totfact>
</mgrwt>
</event>
<event>
 4    1  0.6376580E-005  0.4215380E+03  0.7818608E-02  0.1036567E+00
          1   -1    0    0  501    0  0.00000000000E+00  0.00000000000E+00  0.96108397015E+03  0.96108397017E+03  0.50400000000E-02 0.  1.
         -1   -1    0    0    0  501 -0.00000000000E+00 -0.00000000000E+00 -0.46222364261E+02  0.46222364536E+02  0.50400000000E-02 0. -1.
    5000001    1    1    2    0    0 -0.43305251699E+02  0.16127535666E+03  0.40907535413E+03  0.45973550097E+03  0.12700000000E+03 0.  0.
   -5000001    1    1    2    0    0  0.43305251699E+02 -0.16127535666E+03  0.50578625176E+03  0.54757083374E+03  0.12700000000E+03 0.  0.
<mgrwt>
<rscale>  0 0.42153801E+03</rscale>
<asrwt>0</asrwt>
<pdfrwt beam="1">  1        1 0.13729772E+00 0.42153801E+03</pdfrwt>
<pdfrwt beam="2">  1       -1 0.66031946E-02 0.42153801E+03</pdfrwt>
<totfact> 0.22425904E+03</totfact>
</mgrwt>
</event>
<event>
 4    1  0.6376580E-005  0.4211323E+03  0.7818608E-02  0.1036698E+00
         -1   -1    0    0    0  501 -0.00000000000E+00  0.00000000000E+00  0.13681855913E+03  0.13681855922E+03  0.50400000000E-02 0. -1.
          1   -1    0    0  501    0  0.00000000000E+00 -0.00000000000E+00 -0.32406500256E+03  0.32406500260E+03  0.50400000000E-02 0.  1.
    5000001    1    1    2    0    0  0.12231286697E+03 -0.11290142123E+03 -0.69104497876E+02  0.22048038455E+03  0.12700000000E+03 0.  0.
   -5000001    1    1    2    0    0 -0.12231286697E+03  0.11290142123E+03 -0.11814194556E+03  0.24040317727E+03  0.12700000000E+03 0.  0.
<mgrwt>
<rscale>  0 0.42113232E+03</rscale>
<asrwt>0</asrwt>
<pdfrwt beam="1">  1        1 0.46295000E-01 0.42113232E+03</pdfrwt>
<pdfrwt beam="2">  1       -1 0.19545509E-01 0.42113232E+03</pdfrwt>
<totfact> 0.18383261E+03</totfact>
</mgrwt>
</event>
<event>
 4    1  0.6376580E-005  0.5058007E+03  0.7818608E-02  0.1012276E+00
          1   -1    0    0  501    0  0.00000000000E+00  0.00000000000E+00  0.78794840606E+03  0.78794840608E+03  0.50400000000E-02 0.  1.
         -1   -1    0    0    0  501 -0.00000000000E+00 -0.00000000000E+00 -0.81171036869E+02  0.81171037025E+02  0.50400000000E-02 0. -1.
    5000001    1    1    2    0    0  0.21151839281E+03  0.55537247845E+02  0.34948060948E+03  0.43138163242E+03  0.12700000000E+03 0.  0.
   -5000001    1    1    2    0    0 -0.21151839281E+03 -0.55537247845E+02  0.35729675972E+03  0.43773781068E+03  0.12700000000E+03 0.  0.
<mgrwt>
<rscale>  0 0.50580071E+03</rscale>
<asrwt>0</asrwt>
<pdfrwt beam="1">  1        1 0.11256406E+00 0.50580071E+03</pdfrwt>
<pdfrwt beam="2">  1       -1 0.11595862E-01 0.50580071E+03</pdfrwt>
<totfact> 0.12761931E+03</totfact>
</mgrwt>
</event>
<event>
 4    1  0.6376580E-005  0.4585723E+03  0.7818608E-02  0.1025196E+00
          1   -1    0    0  501    0  0.00000000000E+00  0.00000000000E+00  0.15598640587E+04  0.15598640587E+04  0.50400000000E-02 0.  1.
         -1   -1    0    0    0  501 -0.00000000000E+00 -0.00000000000E+00 -0.33703029568E+02  0.33703029945E+02  0.50400000000E-02 0. -1.
    5000001    1    1    2    0    0  0.42160905044E+02  0.16109542922E+03  0.43869015704E+03  0.48611452674E+03  0.12700000000E+03 0.  0.
   -5000001    1    1    2    0    0 -0.42160905044E+02 -0.16109542922E+03  0.10874708721E+04  0.11074525619E+04  0.12700000000E+03 0.  0.
<mgrwt>
<rscale>  0 0.45857233E+03</rscale>
<asrwt>0</asrwt>
<pdfrwt beam="1">  1        1 0.22283774E+00 0.45857233E+03</pdfrwt>
<pdfrwt beam="2">  1       -1 0.48147182E-02 0.45857233E+03</pdfrwt>
<totfact> 0.14338596E+03</totfact>
</mgrwt>
</event>
<event>
 4    1  0.6376580E-005  0.5825533E+03  0.7818608E-02  0.9942278E-01
          1   -1    0    0  501    0  0.00000000000E+00  0.00000000000E+00  0.84160681540E+03  0.84160681541E+03  0.50400000000E-02 0.  1.
         -1   -1    0    0    0  501 -0.00000000000E+00 -0.00000000000E+00 -0.10080965209E+03  0.10080965222E+03  0.50400000000E-02 0. -1.
    5000001    1    1    2    0    0 -0.27751103846E+02  0.21570822473E+03  0.13367298358E+03  0.28512738998E+03  0.12700000000E+03 0.  0.
   -5000001    1    1    2    0    0  0.27751103846E+02 -0.21570822473E+03  0.60712417973E+03  0.65728907765E+03  0.12700000000E+03 0.  0.
<mgrwt>
<rscale>  0 0.58255331E+03</rscale>
<asrwt>0</asrwt>
<pdfrwt beam="1">  1        1 0.12022954E+00 0.58255331E+03</pdfrwt>
<pdfrwt beam="2">  1       -1 0.14401379E-01 0.58255331E+03</pdfrwt>
<totfact> 0.81403938E+02</totfact>
</mgrwt>
</event>
<event>
 4    1  0.6376580E-005  0.3649151E+03  0.7818608E-02  0.1056654E+00
         -1   -1    0    0    0  501 -0.00000000000E+00  0.00000000000E+00  0.16851195059E+02  0.16851195813E+02  0.50400000000E-02 0. -1.
          1   -1    0    0  501    0  0.00000000000E+00 -0.00000000000E+00 -0.19755728310E+04  0.19755728310E+04  0.50400000000E-02 0.  1.
    5000001    1    1    2    0    0  0.10668191588E+03  0.70708607508E+02 -0.82677206953E+03  0.84620434489E+03  0.12700000000E+03 0.  0.
   -5000001    1    1    2    0    0 -0.10668191588E+03 -0.70708607508E+02 -0.11319495664E+04  0.11462196819E+04  0.12700000000E+03 0.  0.
<mgrwt>
<rscale>  0 0.36491513E+03</rscale>
<asrwt>0</asrwt>
<pdfrwt beam="1">  1        1 0.28222455E+00 0.36491513E+03</pdfrwt>
<pdfrwt beam="2">  1       -1 0.24073149E-02 0.36491513E+03</pdfrwt>
<totfact> 0.22506895E+03</totfact>
</mgrwt>
</event>
<event>
 4    1  0.6376580E-005  0.4677860E+03  0.7818608E-02  0.1022547E+00
          1   -1    0    0  501    0  0.00000000000E+00  0.00000000000E+00  0.19903325561E+03  0.19903325567E+03  0.50400000000E-02 0.  1.
         -1   -1    0    0    0  501 -0.00000000000E+00 -0.00000000000E+00 -0.27485822583E+03  0.27485822588E+03  0.50400000000E-02 0. -1.
    5000001    1    1    2    0    0  0.12353626384E+02 -0.15824079195E+03  0.79287455207E+02  0.21819317330E+03  0.12700000000E+03 0.  0.
   -5000001    1    1    2    0    0 -0.12353626384E+02  0.15824079195E+03 -0.15511242543E+03  0.25569830825E+03  0.12700000000E+03 0.  0.
<mgrwt>
<rscale>  0 0.46778597E+03</rscale>
<asrwt>0</asrwt>
<pdfrwt beam="1">  1        1 0.28433322E-01 0.46778597E+03</pdfrwt>
<pdfrwt beam="2">  1       -1 0.39265461E-01 0.46778597E+03</pdfrwt>
<totfact> 0.10402297E+03</totfact>
</mgrwt>
</event>
<event>
 4    1  0.6376580E-005  0.4009596E+03  0.7818608E-02  0.1043448E+00
          1   -1    0    0  501    0  0.00000000000E+00  0.00000000000E+00  0.11453645005E+04  0.11453645005E+04  0.50400000000E-02 0.  1.
         -1   -1    0    0    0  501 -0.00000000000E+00 -0.00000000000E+00 -0.35091150895E+02  0.35091151257E+02  0.50400000000E-02 0. -1.
    5000001    1    1    2    0    0  0.12000676413E+03  0.12670904391E+02  0.84210455862E+03  0.86013444466E+03  0.12700000000E+03 0.  0.
   -5000001    1    1    2    0    0 -0.12000676413E+03 -0.12670904391E+02  0.26816879095E+03  0.32032120707E+03  0.12700000000E+03 0.  0.
<mgrwt>
<rscale>  0 0.40095964E+03</rscale>
<asrwt>0</asrwt>
<pdfrwt beam="1">  1        1 0.16362349E+00 0.40095964E+03</pdfrwt>
<pdfrwt beam="2">  1       -1 0.50130218E-02 0.40095964E+03</pdfrwt>
<totfact> 0.25204562E+03</totfact>
</mgrwt>
</event>
<event>
 4    1  0.6376580E-005  0.8917042E+03  0.7818608E-02  0.9436011E-01
          1   -1    0    0  501    0  0.00000000000E+00  0.00000000000E+00  0.10629030902E+04  0.10629030902E+04  0.50400000000E-02 0.  1.
         -1   -1    0    0    0  501 -0.00000000000E+00 -0.00000000000E+00 -0.18701997704E+03  0.18701997711E+03  0.50400000000E-02 0. -1.
    5000001    1    1    2    0    0 -0.27359714637E+03  0.75506539935E+02 -0.99491812276E+01  0.31110226981E+03  0.12700000000E+03 0.  0.
   -5000001    1    1    2    0    0  0.27359714637E+03 -0.75506539935E+02  0.88583229442E+03  0.93882079755E+03  0.12700000000E+03 0.  0.
<mgrwt>
<rscale>  0 0.89170424E+03</rscale>
<asrwt>0</asrwt>
<pdfrwt beam="1">  1        1 0.15184330E+00 0.89170424E+03</pdfrwt>
<pdfrwt beam="2">  1       -1 0.26717140E-01 0.89170424E+03</pdfrwt>
<totfact> 0.19452775E+02</totfact>
</mgrwt>
</event>
<event>
 4    1  0.6376580E-005  0.5042895E+03  0.7818608E-02  0.1012665E+00
         -1   -1    0    0    0  501 -0.00000000000E+00  0.00000000000E+00  0.21481590825E+03  0.21481590831E+03  0.50400000000E-02 0. -1.
          1   -1    0    0  501    0  0.00000000000E+00 -0.00000000000E+00 -0.29596032001E+03  0.29596032005E+03  0.50400000000E-02 0.  1.
    5000001    1    1    2    0    0 -0.13678728848E+03 -0.16537572479E+03 -0.28358555501E+01  0.24939313286E+03  0.12700000000E+03 0.  0.
   -5000001    1    1    2    0    0  0.13678728848E+03  0.16537572479E+03 -0.78308556209E+02  0.26138309550E+03  0.12700000000E+03 0.  0.
<mgrwt>
<rscale>  0 0.50428954E+03</rscale>
<asrwt>0</asrwt>
<pdfrwt beam="1">  1        1 0.42280046E-01 0.50428954E+03</pdfrwt>
<pdfrwt beam="2">  1       -1 0.30687987E-01 0.50428954E+03</pdfrwt>
<totfact> 0.96606148E+02</totfact>
</mgrwt>
</event>
<event>
 4    1  0.6376580E-005  0.2894651E+03  0.7818608E-02  0.1090629E+00
          1   -1    0    0  501    0  0.00000000000E+00  0.00000000000E+00  0.51690293525E+03  0.51690293527E+03  0.50400000000E-02 0.  1.
         -1   -1    0    0    0  501 -0.00000000000E+00 -0.00000000000E+00 -0.40525048590E+02  0.40525048903E+02  0.50400000000E-02 0. -1.
    5000001    1    1    2    0    0 -0.49196953372E+02 -0.39506209281E+02  0.29391627885E+03  0.32633856616E+03  0.12700000000E+03 0.  0.
   -5000001    1    1    2    0    0  0.49196953372E+02  0.39506209281E+02  0.18246160781E+03  0.23108941801E+03  0.12700000000E+03 0.  0.
<mgrwt>
<rscale>  0 0.28946514E+03</rscale>
<asrwt>0</asrwt>
<pdfrwt beam="1">  1        1 0.73843277E-01 0.28946514E+03</pdfrwt>
<pdfrwt beam="2">  1       -1 0.57892927E-02 0.28946514E+03</pdfrwt>
<totfact> 0.67084404E+03</totfact>
</mgrwt>
</event>
<event>
 4    1  0.6376580E-005  0.4059090E+03  0.7818608E-02  0.1041753E+00
          1   -1    0    0  501    0  0.00000000000E+00  0.00000000000E+00  0.46640374817E+02  0.46640375089E+02  0.50400000000E-02 0.  1.
         -1   -1    0    0    0  501 -0.00000000000E+00 -0.00000000000E+00 -0.88315173973E+03  0.88315173975E+03  0.50400000000E-02 0. -1.
    5000001    1    1    2    0    0 -0.11611996697E+03  0.95929503844E+02 -0.52989273420E+03  0.56533319927E+03  0.12700000000E+03 0.  0.
   -5000001    1    1    2    0    0  0.11611996697E+03 -0.95929503844E+02 -0.30661863071E+03  0.36445891557E+03  0.12700000000E+03 0.  0.
<mgrwt>
<rscale>  0 0.40590900E+03</rscale>
<asrwt>0</asrwt>
<pdfrwt beam="1">  1        1 0.66629112E-02 0.40590900E+03</pdfrwt>
<pdfrwt beam="2">  1       -1 0.12616452E+00 0.40590900E+03</pdfrwt>
<totfact> 0.65615168E+02</totfact>
</mgrwt>
</event>
<event>
 4    1  0.6376580E-005  0.3111873E+03  0.7818608E-02  0.1079778E+00
         -1   -1    0    0    0  501 -0.00000000000E+00  0.00000000000E+00  0.20850330451E+02  0.20850331060E+02  0.50400000000E-02 0.  1.
          1   -1    0    0  501    0  0.00000000000E+00 -0.00000000000E+00 -0.11611029051E+04  0.11611029051E+04  0.50400000000E-02 0. -1.
    5000001    1    1    2    0    0 -0.32983245825E+02  0.76200329133E+02 -0.70092994539E+03  0.71716537355E+03  0.12700000000E+03 0.  0.
   -5000001    1    1    2    0    0  0.32983245825E+02 -0.76200329133E+02 -0.43932262922E+03  0.46478786259E+03  0.12700000000E+03 0.  0.
<mgrwt>
<rscale>  0 0.31118727E+03</rscale>
<asrwt>0</asrwt>
<pdfrwt beam="1">  1        1 0.16587180E+00 0.31118727E+03</pdfrwt>
<pdfrwt beam="2">  1       -1 0.29786194E-02 0.31118727E+03</pdfrwt>
<totfact> 0.53496005E+03</totfact>
</mgrwt>
</event>
<event>
 4    1  0.6376580E-005  0.3331660E+03  0.7818608E-02  0.1069745E+00
         -1   -1    0    0    0  501 -0.00000000000E+00  0.00000000000E+00  0.13392270614E+02  0.13392271563E+02  0.50400000000E-02 0. -1.
          1   -1    0    0  501    0  0.00000000000E+00 -0.00000000000E+00 -0.20720832428E+04  0.20720832428E+04  0.50400000000E-02 0.  1.
    5000001    1    1    2    0    0  0.97573722336E+02  0.36976401242E+02 -0.85987237235E+03  0.87544125004E+03  0.12700000000E+03 0.  0.
   -5000001    1    1    2    0    0 -0.97573722336E+02 -0.36976401242E+02 -0.11988185998E+04  0.12100342643E+04  0.12700000000E+03 0.  0.
<mgrwt>
<rscale>  0 0.33316603E+03</rscale>
<asrwt>0</asrwt>
<pdfrwt beam="1">  1        1 0.29601169E+00 0.33316603E+03</pdfrwt>
<pdfrwt beam="2">  1       -1 0.19131829E-02 0.33316603E+03</pdfrwt>
<totfact> 0.27621979E+03</totfact>
</mgrwt>
</event>
<event>
 4    1  0.6376580E-005  0.3784937E+03  0.7818608E-02  0.1051492E+00
         -1   -1    0    0    0  501 -0.00000000000E+00  0.00000000000E+00  0.10312342954E+03  0.10312342966E+03  0.50400000000E-02 0. -1.
          1   -1    0    0  501    0  0.00000000000E+00 -0.00000000000E+00 -0.34729609174E+03  0.34729609178E+03  0.50400000000E-02 0.  1.
    5000001    1    1    2    0    0 -0.18299071083E+02 -0.13896443213E+03 -0.12955558796E+03  0.22925884884E+03  0.12700000000E+03 0.  0.
   -5000001    1    1    2    0    0  0.18299071083E+02  0.13896443213E+03 -0.11461707424E+03  0.22116067261E+03  0.12700000000E+03 0.  0.
<mgrwt>
<rscale>  0 0.37849367E+03</rscale>
<asrwt>0</asrwt>
<pdfrwt beam="1">  1        1 0.49613727E-01 0.37849367E+03</pdfrwt>
<pdfrwt beam="2">  1       -1 0.14731919E-01 0.37849367E+03</pdfrwt>
<totfact> 0.26563356E+03</totfact>
</mgrwt>
</event>
<event>
 4    1  0.6376580E-005  0.8147827E+03  0.7818608E-02  0.9538863E-01
          1   -1    0    0  501    0  0.00000000000E+00  0.00000000000E+00  0.83980462197E+03  0.83980462199E+03  0.50400000000E-02 0.  1.
         -1   -1    0    0    0  501 -0.00000000000E+00 -0.00000000000E+00 -0.19762656704E+03  0.19762656710E+03  0.50400000000E-02 0. -1.
    5000001    1    1    2    0    0 -0.27341344446E+03 -0.14901167004E+03  0.61388184684E+03  0.69995664959E+03  0.12700000000E+03 0.  0.
   -5000001    1    1    2    0    0  0.27341344446E+03  0.14901167004E+03  0.28296208094E+02  0.33747453951E+03  0.12700000000E+03 0.  0.
<mgrwt>
<rscale>  0 0.81478268E+03</rscale>
<asrwt>0</asrwt>
<pdfrwt beam="1">  1        1 0.11997209E+00 0.81478268E+03</pdfrwt>
<pdfrwt beam="2">  1       -1 0.28232367E-01 0.81478268E+03</pdfrwt>
<totfact> 0.26340280E+02</totfact>
</mgrwt>
</event>
<event>
 4    1  0.6376580E-005  0.3387586E+03  0.7818608E-02  0.1067326E+00
          1   -1    0    0  501    0  0.00000000000E+00  0.00000000000E+00  0.24110355898E+04  0.24110355898E+04  0.50400000000E-02 0. -1.
         -1   -1    0    0    0  501 -0.00000000000E+00 -0.00000000000E+00 -0.11899182283E+02  0.11899183350E+02  0.50400000000E-02 0.  1.
    5000001    1    1    2    0    0  0.42950333806E+02  0.89437204913E+02  0.82677767184E+03  0.84233844946E+03  0.12700000000E+03 0.  0.
   -5000001    1    1    2    0    0 -0.42950333806E+02 -0.89437204913E+02  0.15723587357E+04  0.15805963237E+04  0.12700000000E+03 0.  0.
<mgrwt>
<rscale>  0 0.33875864E+03</rscale>
<asrwt>0</asrwt>
<pdfrwt beam="1">  1        1 0.34443348E+00 0.33875864E+03</pdfrwt>
<pdfrwt beam="2">  1       -1 0.16998841E-02 0.33875864E+03</pdfrwt>
<totfact> 0.20437261E+03</totfact>
</mgrwt>
</event>
<event>
 4    1  0.6376580E-005  0.4924347E+03  0.7818608E-02  0.1015773E+00
          1   -1    0    0  501    0  0.00000000000E+00  0.00000000000E+00  0.30616168832E+03  0.30616168836E+03  0.50400000000E-02 0.  1.
         -1   -1    0    0    0  501 -0.00000000000E+00 -0.00000000000E+00 -0.19800973780E+03  0.19800973787E+03  0.50400000000E-02 0. -1.
    5000001    1    1    2    0    0  0.73204227738E+02 -0.95059052404E+02  0.23170132416E+03  0.29018887991E+03  0.12700000000E+03 0.  0.
   -5000001    1    1    2    0    0 -0.73204227738E+02  0.95059052404E+02 -0.12354937364E+03  0.21398254632E+03  0.12700000000E+03 0.  0.
<mgrwt>
<rscale>  0 0.49243475E+03</rscale>
<asrwt>0</asrwt>
<pdfrwt beam="1">  1        1 0.43737384E-01 0.49243475E+03</pdfrwt>
<pdfrwt beam="2">  1       -1 0.28287105E-01 0.49243475E+03</pdfrwt>
<totfact> 0.10646043E+03</totfact>
</mgrwt>
</event>
<event>
 4    1  0.6376580E-005  0.8400307E+03  0.7818608E-02  0.9503816E-01
         -1   -1    0    0    0  501 -0.00000000000E+00  0.00000000000E+00  0.10657269141E+03  0.10657269153E+03  0.50400000000E-02 0. -1.
          1   -1    0    0  501    0  0.00000000000E+00 -0.00000000000E+00 -0.16553291265E+04  0.16553291265E+04  0.50400000000E-02 0.  1.
    5000001    1    1    2    0    0  0.26281659988E+03 -0.18985800376E+03 -0.12670065343E+04  0.13139837079E+04  0.12700000000E+03 0.  0.
   -5000001    1    1    2    0    0 -0.26281659988E+03  0.18985800376E+03 -0.28174990080E+03  0.44791811012E+03  0.12700000000E+03 0.  0.
<mgrwt>
<rscale>  0 0.84003067E+03</rscale>
<asrwt>0</asrwt>
<pdfrwt beam="1">  1        1 0.23647557E+00 0.84003067E+03</pdfrwt>
<pdfrwt beam="2">  1       -1 0.15224671E-01 0.84003067E+03</pdfrwt>
<totfact> 0.20053263E+02</totfact>
</mgrwt>
</event>
<event>
 4    1  0.6376580E-005  0.2993369E+03  0.7818608E-02  0.1085573E+00
         -1   -1    0    0    0  501 -0.00000000000E+00  0.00000000000E+00  0.36641162403E+02  0.36641162749E+02  0.50400000000E-02 0.  1.
          1   -1    0    0  501    0  0.00000000000E+00 -0.00000000000E+00 -0.61135193410E+03  0.61135193412E+03  0.50400000000E-02 0. -1.
    5000001    1    1    2    0    0 -0.56224921876E+02  0.47135352406E+02 -0.35188788771E+03  0.38123099140E+03  0.12700000000E+03 0.  0.
   -5000001    1    1    2    0    0  0.56224921876E+02 -0.47135352406E+02 -0.22282288399E+03  0.26676210547E+03  0.12700000000E+03 0.  0.
<mgrwt>
<rscale>  0 0.29933690E+03</rscale>
<asrwt>0</asrwt>
<pdfrwt beam="1">  1        1 0.87335984E-01 0.29933690E+03</pdfrwt>
<pdfrwt beam="2">  1       -1 0.52344522E-02 0.29933690E+03</pdfrwt>
<totfact> 0.62360979E+03</totfact>
</mgrwt>
</event>
<event>
 4    1  0.6376580E-005  0.5227742E+03  0.7818608E-02  0.1008000E+00
         -1   -1    0    0    0  501 -0.00000000000E+00  0.00000000000E+00  0.10408012863E+03  0.10408012876E+03  0.50400000000E-02 0. -1.
          1   -1    0    0  501    0  0.00000000000E+00 -0.00000000000E+00 -0.65644815913E+03  0.65644815915E+03  0.50400000000E-02 0.  1.
    5000001    1    1    2    0    0 -0.21313855304E+03  0.79417558533E+02 -0.30735251310E+03  0.40290167374E+03  0.12700000000E+03 0.  0.
   -5000001    1    1    2    0    0  0.21313855304E+03 -0.79417558533E+02 -0.24501551740E+03  0.35762661417E+03  0.12700000000E+03 0.  0.
<mgrwt>
<rscale>  0 0.52277417E+03</rscale>
<asrwt>0</asrwt>
<pdfrwt beam="1">  1        1 0.93778307E-01 0.52277417E+03</pdfrwt>
<pdfrwt beam="2">  1       -1 0.14868590E-01 0.52277417E+03</pdfrwt>
<totfact> 0.11217061E+03</totfact>
</mgrwt>
</event>
<event>
 4    1  0.6376580E-005  0.3271803E+03  0.7818608E-02  0.1072391E+00
         -1   -1    0    0    0  501 -0.00000000000E+00  0.00000000000E+00  0.61011180703E+03  0.61011180705E+03  0.50400000000E-02 0.  1.
          1   -1    0    0  501    0  0.00000000000E+00 -0.00000000000E+00 -0.43863660128E+02  0.43863660418E+02  0.50400000000E-02 0. -1.
    5000001    1    1    2    0    0 -0.10264945975E+03 -0.65645516967E+01  0.29763890245E+03  0.33955547585E+03  0.12700000000E+03 0.  0.
   -5000001    1    1    2    0    0  0.10264945975E+03  0.65645516967E+01  0.26860924445E+03  0.31441999162E+03  0.12700000000E+03 0.  0.
<mgrwt>
<rscale>  0 0.32718030E+03</rscale>
<asrwt>0</asrwt>
<pdfrwt beam="1">  1        1 0.62662376E-02 0.32718030E+03</pdfrwt>
<pdfrwt beam="2">  1       -1 0.87158824E-01 0.32718030E+03</pdfrwt>
<totfact> 0.16616297E+03</totfact>
</mgrwt>
</event>
<event>
 4    1  0.6376580E-005  0.4935155E+03  0.7818608E-02  0.1015485E+00
          1   -1    0    0  501    0  0.00000000000E+00  0.00000000000E+00  0.68283682237E+03  0.68283682239E+03  0.50400000000E-02 0.  1.
         -1   -1    0    0    0  501 -0.00000000000E+00 -0.00000000000E+00 -0.89171221094E+02  0.89171221236E+02  0.50400000000E-02 0. -1.
    5000001    1    1    2    0    0 -0.20208296708E+03  0.61454173232E+02  0.31575067793E+03  0.40055165909E+03  0.12700000000E+03 0.  0.
   -5000001    1    1    2    0    0  0.20208296708E+03 -0.61454173232E+02  0.27791492335E+03  0.37145638453E+03  0.12700000000E+03 0.  0.
<mgrwt>
<rscale>  0 0.49351552E+03</rscale>
<asrwt>0</asrwt>
<pdfrwt beam="1">  1        1 0.97548119E-01 0.49351552E+03</pdfrwt>
<pdfrwt beam="2">  1       -1 0.12738746E-01 0.49351552E+03</pdfrwt>
<totfact> 0.13585884E+03</totfact>
</mgrwt>
</event>
<event>
 4    1  0.6376580E-005  0.4349758E+03  0.7818608E-02  0.1032300E+00
          1   -1    0    0  501    0  0.00000000000E+00  0.00000000000E+00  0.10906036148E+04  0.10906036148E+04  0.50400000000E-02 0.  1.
         -1   -1    0    0    0  501 -0.00000000000E+00 -0.00000000000E+00 -0.43371386206E+02  0.43371386499E+02  0.50400000000E-02 0. -1.
    5000001    1    1    2    0    0  0.34544907928E+02 -0.15978905105E+03  0.69744740017E+03  0.72752166119E+03  0.12700000000E+03 0.  0.
   -5000001    1    1    2    0    0 -0.34544907928E+02  0.15978905105E+03  0.34978482841E+03  0.40645334011E+03  0.12700000000E+03 0.  0.
<mgrwt>
<rscale>  0 0.43497582E+03</rscale>
<asrwt>0</asrwt>
<pdfrwt beam="1">  1        1 0.15580052E+00 0.43497582E+03</pdfrwt>
<pdfrwt beam="2">  1       -1 0.61959122E-02 0.43497582E+03</pdfrwt>
<totfact> 0.19927298E+03</totfact>
</mgrwt>
</event>
<event>
 4    1  0.6376580E-005  0.5809356E+03  0.7818608E-02  0.9945768E-01
          1   -1    0    0  501    0  0.00000000000E+00  0.00000000000E+00  0.29699371239E+03  0.29699371243E+03  0.50400000000E-02 0.  1.
         -1   -1    0    0    0  501 -0.00000000000E+00 -0.00000000000E+00 -0.28408525285E+03  0.28408525290E+03  0.50400000000E-02 0. -1.
    5000001    1    1    2    0    0 -0.91911789182E+02  0.96570993087E+02 -0.21825384388E+03  0.28554767389E+03  0.12700000000E+03 0.  0.
   -5000001    1    1    2    0    0  0.91911789182E+02 -0.96570993087E+02  0.23116230341E+03  0.29553129143E+03  0.12700000000E+03 0.  0.
<mgrwt>
<rscale>  0 0.58093557E+03</rscale>
<asrwt>0</asrwt>
<pdfrwt beam="1">  1        1 0.42427673E-01 0.58093557E+03</pdfrwt>
<pdfrwt beam="2">  1       -1 0.40583607E-01 0.58093557E+03</pdfrwt>
<totfact> 0.58552274E+02</totfact>
</mgrwt>
</event>
<event>
 4    1  0.6376580E-005  0.2877305E+03  0.7818608E-02  0.1091540E+00
          1   -1    0    0  501    0  0.00000000000E+00  0.00000000000E+00  0.18990262633E+03  0.18990262640E+03  0.50400000000E-02 0.  1.
         -1   -1    0    0    0  501 -0.00000000000E+00 -0.00000000000E+00 -0.10898857359E+03  0.10898857371E+03  0.50400000000E-02 0. -1.
    5000001    1    1    2    0    0  0.23522617386E+02 -0.49997989492E+02  0.80891181462E+02  0.16039169467E+03  0.12700000000E+03 0.  0.
   -5000001    1    1    2    0    0 -0.23522617386E+02  0.49997989492E+02  0.22871280015E-01  0.13849950543E+03  0.12700000000E+03 0.  0.
<mgrwt>
<rscale>  0 0.28773054E+03</rscale>
<asrwt>0</asrwt>
<pdfrwt beam="1">  1        1 0.27128947E-01 0.28773054E+03</pdfrwt>
<pdfrwt beam="2">  1       -1 0.15569796E-01 0.28773054E+03</pdfrwt>
<totfact> 0.51885981E+03</totfact>
</mgrwt>
</event>
<event>
 4    1  0.6376580E-005  0.4364079E+03  0.7818608E-02  0.1031855E+00
          1   -1    0    0  501    0  0.00000000000E+00  0.00000000000E+00  0.13286823824E+04  0.13286823824E+04  0.50400000000E-02 0. -1.
         -1   -1    0    0    0  501 -0.00000000000E+00 -0.00000000000E+00 -0.35834722685E+02  0.35834723039E+02  0.50400000000E-02 0.  1.
    5000001    1    1    2    0    0  0.15500112965E+03  0.15882792670E+02  0.38099743951E+03  0.43077333043E+03  0.12700000000E+03 0.  0.
   -5000001    1    1    2    0    0 -0.15500112965E+03 -0.15882792670E+02  0.91185022018E+03  0.93374377499E+03  0.12700000000E+03 0.  0.
<mgrwt>
<rscale>  0 0.43640791E+03</rscale>
<asrwt>0</asrwt>
<pdfrwt beam="1">  1        1 0.18981177E+00 0.43640791E+03</pdfrwt>
<pdfrwt beam="2">  1       -1 0.51192461E-02 0.43640791E+03</pdfrwt>
<totfact> 0.18393332E+03</totfact>
</mgrwt>
</event>
<event>
 4    1  0.6376580E-005  0.4591094E+03  0.7818608E-02  0.1025040E+00
         -1   -1    0    0    0  501 -0.00000000000E+00  0.00000000000E+00  0.51005530958E+02  0.51005531207E+02  0.50400000000E-02 0. -1.
          1   -1    0    0  501    0  0.00000000000E+00 -0.00000000000E+00 -0.10331304682E+04  0.10331304682E+04  0.50400000000E-02 0.  1.
    5000001    1    1    2    0    0  0.33690166408E+02  0.18286649495E+03 -0.59643403985E+03  0.63752470241E+03  0.12700000000E+03 0.  0.
   -5000001    1    1    2    0    0 -0.33690166408E+02 -0.18286649495E+03 -0.38569089741E+03  0.44661129703E+03  0.12700000000E+03 0.  0.
<mgrwt>
<rscale>  0 0.45910943E+03</rscale>
<asrwt>0</asrwt>
<pdfrwt beam="1">  1        1 0.14759005E+00 0.45910943E+03</pdfrwt>
<pdfrwt beam="2">  1       -1 0.72865051E-02 0.45910943E+03</pdfrwt>
<totfact> 0.17064468E+03</totfact>
</mgrwt>
</event>
<event>
 4    1  0.6376580E-005  0.2892888E+03  0.7818608E-02  0.1090721E+00
          1   -1    0    0  501    0  0.00000000000E+00  0.00000000000E+00  0.17954805387E+04  0.17954805387E+04  0.50400000000E-02 0.  1.
         -1   -1    0    0    0  501 -0.00000000000E+00 -0.00000000000E+00 -0.11652588359E+02  0.11652589449E+02  0.50400000000E-02 0. -1.
    5000001    1    1    2    0    0  0.21207093860E+02 -0.13955329420E+02  0.48956363372E+03  0.50640501924E+03  0.12700000000E+03 0.  0.
   -5000001    1    1    2    0    0 -0.21207093860E+02  0.13955329420E+02  0.12942643166E+04  0.13007281089E+04  0.12700000000E+03 0.  0.
<mgrwt>
<rscale>  0 0.28928876E+03</rscale>
<asrwt>0</asrwt>
<pdfrwt beam="1">  1        1 0.25649704E+00 0.28928876E+03</pdfrwt>
<pdfrwt beam="2">  1       -1 0.16646567E-02 0.28928876E+03</pdfrwt>
<totfact> 0.49844324E+03</totfact>
</mgrwt>
</event>
<event>
 4    1  0.6376580E-005  0.3394850E+03  0.7818608E-02  0.1067015E+00
         -1   -1    0    0    0  501 -0.00000000000E+00  0.00000000000E+00  0.38864555513E+02  0.38864555840E+02  0.50400000000E-02 0. -1.
          1   -1    0    0  501    0  0.00000000000E+00 -0.00000000000E+00 -0.74135705226E+03  0.74135705227E+03  0.50400000000E-02 0.  1.
    5000001    1    1    2    0    0 -0.78206204302E+02 -0.71687220996E+02 -0.43810201904E+03  0.46831362049E+03  0.12700000000E+03 0.  0.
   -5000001    1    1    2    0    0  0.78206204302E+02  0.71687220996E+02 -0.26439047770E+03  0.31190798763E+03  0.12700000000E+03 0.  0.
<mgrwt>
<rscale>  0 0.33948498E+03</rscale>
<asrwt>0</asrwt>
<pdfrwt beam="1">  1        1 0.10590814E+00 0.33948498E+03</pdfrwt>
<pdfrwt beam="2">  1       -1 0.55520799E-02 0.33948498E+03</pdfrwt>
<totfact> 0.43560064E+03</totfact>
</mgrwt>
</event>
<event>
 4    1  0.6376580E-005  0.4668992E+03  0.7818608E-02  0.1022799E+00
          1   -1    0    0  501    0  0.00000000000E+00  0.00000000000E+00  0.43972841440E+02  0.43972841729E+02  0.50400000000E-02 0.  1.
         -1   -1    0    0    0  501 -0.00000000000E+00 -0.00000000000E+00 -0.12393720214E+04  0.12393720215E+04  0.50400000000E-02 0. -1.
    5000001    1    1    2    0    0 -0.15319800025E+03 -0.79257334063E+02 -0.34252788310E+03  0.40398725597E+03  0.12700000000E+03 0.  0.
   -5000001    1    1    2    0    0  0.15319800025E+03  0.79257334063E+02 -0.85287129691E+03  0.87935760722E+03  0.12700000000E+03 0.  0.
<mgrwt>
<rscale>  0 0.46689917E+03</rscale>
<asrwt>0</asrwt>
<pdfrwt beam="1">  1        1 0.62818353E-02 0.46689917E+03</pdfrwt>
<pdfrwt beam="2">  1       -1 0.17705312E+00 0.46689917E+03</pdfrwt>
<totfact> 0.28886958E+02</totfact>
</mgrwt>
</event>
<event>
 4    1  0.6376580E-005  0.9202820E+03  0.7818608E-02  0.9400577E-01
          1   -1    0    0  501    0  0.00000000000E+00  0.00000000000E+00  0.19109235291E+03  0.19109235297E+03  0.50400000000E-02 0.  1.
         -1   -1    0    0    0  501 -0.00000000000E+00 -0.00000000000E+00 -0.11079969300E+04  0.11079969300E+04  0.50400000000E-02 0. -1.
    5000001    1    1    2    0    0  0.27214599351E+03  0.29737085491E+03 -0.71530473933E+03  0.83083255668E+03  0.12700000000E+03 0.  0.
   -5000001    1    1    2    0    0 -0.27214599351E+03 -0.29737085491E+03 -0.20159983775E+03  0.46825672629E+03  0.12700000000E+03 0.  0.
<mgrwt>
<rscale>  0 0.92028200E+03</rscale>
<asrwt>0</asrwt>
<pdfrwt beam="1">  1        1 0.27298908E-01 0.92028200E+03</pdfrwt>
<pdfrwt beam="2">  1       -1 0.15828527E+00 0.92028200E+03</pdfrwt>
<totfact> 0.52803324E+01</totfact>
</mgrwt>
</event>
<event>
 4    1  0.6376580E-005  0.4679705E+03  0.7818608E-02  0.1022495E+00
          1   -1    0    0  501    0  0.00000000000E+00  0.00000000000E+00  0.28243471967E+03  0.28243471971E+03  0.50400000000E-02 0.  1.
         -1   -1    0    0    0  501 -0.00000000000E+00 -0.00000000000E+00 -0.19384692962E+03  0.19384692968E+03  0.50400000000E-02 0. -1.
    5000001    1    1    2    0    0 -0.11152553509E+03  0.33068766420E+02  0.20550081908E+03  0.26812511059E+03  0.12700000000E+03 0.  0.
   -5000001    1    1    2    0    0  0.11152553509E+03 -0.33068766420E+02 -0.11691302903E+03  0.20815653880E+03  0.12700000000E+03 0.  0.
<mgrwt>
<rscale>  0 0.46797053E+03</rscale>
<asrwt>0</asrwt>
<pdfrwt beam="1">  1        1 0.40347817E-01 0.46797053E+03</pdfrwt>
<pdfrwt beam="2">  1       -1 0.27692419E-01 0.46797053E+03</pdfrwt>
<totfact> 0.12238957E+03</totfact>
</mgrwt>
</event>
<event>
 4    1  0.6376580E-005  0.5521577E+03  0.7818608E-02  0.1000996E+00
          1   -1    0    0  501    0  0.00000000000E+00  0.00000000000E+00  0.69687568466E+02  0.69687568649E+02  0.50400000000E-02 0.  1.
         -1   -1    0    0    0  501 -0.00000000000E+00 -0.00000000000E+00 -0.10937322726E+04  0.10937322726E+04  0.50400000000E-02 0. -1.
    5000001    1    1    2    0    0 -0.88748442661E+02  0.22749246501E+03 -0.46676088949E+03  0.54187068168E+03  0.12700000000E+03 0.  0.
   -5000001    1    1    2    0    0  0.88748442661E+02 -0.22749246501E+03 -0.55728381468E+03  0.62154915962E+03  0.12700000000E+03 0.  0.
<mgrwt>
<rscale>  0 0.55215774E+03</rscale>
<asrwt>0</asrwt>
<pdfrwt beam="1">  1        1 0.99553676E-02 0.55215774E+03</pdfrwt>
<pdfrwt beam="2">  1       -1 0.15624746E+00 0.55215774E+03</pdfrwt>
<totfact> 0.21601678E+02</totfact>
</mgrwt>
</event>
<event>
 4    1  0.6376580E-005  0.2874295E+03  0.7818608E-02  0.1091699E+00
          1   -1    0    0  501    0  0.00000000000E+00  0.00000000000E+00  0.11512918240E+04  0.11512918240E+04  0.50400000000E-02 0. -1.
         -1   -1    0    0    0  501 -0.00000000000E+00 -0.00000000000E+00 -0.17939788509E+02  0.17939789217E+02  0.50400000000E-02 0.  1.
    5000001    1    1    2    0    0  0.58918356018E+02  0.32439907160E+02  0.57115439808E+03  0.58895676131E+03  0.12700000000E+03 0.  0.
   -5000001    1    1    2    0    0 -0.58918356018E+02 -0.32439907160E+02  0.56219763739E+03  0.58027485189E+03  0.12700000000E+03 0.  0.
<mgrwt>
<rscale>  0 0.28742952E+03</rscale>
<asrwt>0</asrwt>
<pdfrwt beam="1">  1        1 0.16447023E+00 0.28742952E+03</pdfrwt>
<pdfrwt beam="2">  1       -1 0.25628275E-02 0.28742952E+03</pdfrwt>
<totfact> 0.67720282E+03</totfact>
</mgrwt>
</event>
<event>
 4    1  0.6376580E-005  0.4959932E+03  0.7818608E-02  0.1014830E+00
         -1   -1    0    0    0  501 -0.00000000000E+00  0.00000000000E+00  0.43713186521E+03  0.43713186524E+03  0.50400000000E-02 0. -1.
          1   -1    0    0  501    0  0.00000000000E+00 -0.00000000000E+00 -0.14069509993E+03  0.14069510002E+03  0.50400000000E-02 0.  1.
    5000001    1    1    2    0    0 -0.16462290736E+03 -0.13161518937E+03  0.18412675591E+03  0.30733519476E+03  0.12700000000E+03 0.  0.
   -5000001    1    1    2    0    0  0.16462290736E+03  0.13161518937E+03  0.11231000937E+03  0.27049177049E+03  0.12700000000E+03 0.  0.
<mgrwt>
<rscale>  0 0.49599319E+03</rscale>
<asrwt>0</asrwt>
<pdfrwt beam="1">  1        1 0.20099299E-01 0.49599319E+03</pdfrwt>
<pdfrwt beam="2">  1       -1 0.62447411E-01 0.49599319E+03</pdfrwt>
<totfact> 0.68337764E+02</totfact>
</mgrwt>
</event>
<event>
 4    1  0.6376580E-005  0.3895403E+03  0.7818608E-02  0.1047463E+00
         -1   -1    0    0    0  501 -0.00000000000E+00  0.00000000000E+00  0.28381147523E+02  0.28381147971E+02  0.50400000000E-02 0.  1.
          1   -1    0    0  501    0  0.00000000000E+00 -0.00000000000E+00 -0.13366409469E+04  0.13366409469E+04  0.50400000000E-02 0. -1.
    5000001    1    1    2    0    0 -0.11460248055E+03  0.28166612442E+02 -0.96518092046E+03  0.98062750105E+03  0.12700000000E+03 0.  0.
   -5000001    1    1    2    0    0  0.11460248055E+03 -0.28166612442E+02 -0.34307887892E+03  0.38439459383E+03  0.12700000000E+03 0.  0.
<mgrwt>
<rscale>  0 0.38954026E+03</rscale>
<asrwt>0</asrwt>
<pdfrwt beam="1">  1        1 0.19094867E+00 0.38954026E+03</pdfrwt>
<pdfrwt beam="2">  1       -1 0.40544505E-02 0.38954026E+03</pdfrwt>
<totfact> 0.25867938E+03</totfact>
</mgrwt>
</event>
<event>
 4    1  0.6376580E-005  0.4824487E+03  0.7818608E-02  0.1018464E+00
          1   -1    0    0  501    0  0.00000000000E+00  0.00000000000E+00  0.26602191380E+03  0.26602191385E+03  0.50400000000E-02 0.  1.
         -1   -1    0    0    0  501 -0.00000000000E+00 -0.00000000000E+00 -0.21873829178E+03  0.21873829184E+03  0.50400000000E-02 0. -1.
    5000001    1    1    2    0    0 -0.80413815482E+02 -0.14675057102E+03  0.14277661597E+03  0.25400053913E+03  0.12700000000E+03 0.  0.
   -5000001    1    1    2    0    0  0.80413815482E+02  0.14675057102E+03 -0.95492993945E+02  0.23075966655E+03  0.12700000000E+03 0.  0.
<mgrwt>
<rscale>  0 0.48244867E+03</rscale>
<asrwt>0</asrwt>
<pdfrwt beam="1">  1        1 0.38003130E-01 0.48244867E+03</pdfrwt>
<pdfrwt beam="2">  1       -1 0.31248327E-01 0.48244867E+03</pdfrwt>
<totfact> 0.10731208E+03</totfact>
</mgrwt>
</event>
<event>
 4    1  0.6376580E-005  0.5748946E+03  0.7818608E-02  0.9958906E-01
          1   -1    0    0  501    0  0.00000000000E+00  0.00000000000E+00  0.25499110417E+04  0.25499110417E+04  0.50400000000E-02 0.  1.
         -1   -1    0    0    0  501 -0.00000000000E+00 -0.00000000000E+00 -0.32403466291E+02  0.32403466683E+02  0.50400000000E-02 0. -1.
    5000001    1    1    2    0    0  0.14001534916E+03 -0.20437886940E+03  0.15802219692E+04  0.16045577248E+04  0.12700000000E+03 0.  0.
   -5000001    1    1    2    0    0 -0.14001534916E+03  0.20437886940E+03  0.93728560622E+03  0.97775678360E+03  0.12700000000E+03 0.  0.
<mgrwt>
<rscale>  0 0.57489462E+03</rscale>
<asrwt>0</asrwt>
<pdfrwt beam="1">  1        1 0.36427301E+00 0.57489462E+03</pdfrwt>
<pdfrwt beam="2">  1       -1 0.46290666E-02 0.57489462E+03</pdfrwt>
<totfact> 0.36853278E+02</totfact>
</mgrwt>
</event>
<event>
 4    1  0.6376580E-005  0.5436297E+03  0.7818608E-02  0.1002979E+00
         -1   -1    0    0    0  501 -0.00000000000E+00  0.00000000000E+00  0.42457303437E+02  0.42457303736E+02  0.50400000000E-02 0.  1.
          1   -1    0    0  501    0  0.00000000000E+00 -0.00000000000E+00 -0.17401792231E+04  0.17401792231E+04  0.50400000000E-02 0. -1.
    5000001    1    1    2    0    0 -0.25538167162E+02 -0.21646154248E+03 -0.11807919582E+04  0.12074379677E+04  0.12700000000E+03 0.  0.
   -5000001    1    1    2    0    0  0.25538167162E+02  0.21646154248E+03 -0.51692996147E+03  0.57519855912E+03  0.12700000000E+03 0.  0.
<mgrwt>
<rscale>  0 0.54362972E+03</rscale>
<asrwt>0</asrwt>
<pdfrwt beam="1">  1        1 0.24859699E+00 0.54362972E+03</pdfrwt>
<pdfrwt beam="2">  1       -1 0.60653302E-02 0.54362972E+03</pdfrwt>
<totfact> 0.77379847E+02</totfact>
</mgrwt>
</event>
<event>
 4    1  0.6376580E-005  0.3496333E+03  0.7818608E-02  0.1062766E+00
         -1   -1    0    0    0  501 -0.00000000000E+00  0.00000000000E+00  0.21847025235E+02  0.21847025816E+02  0.50400000000E-02 0.  1.
          1   -1    0    0  501    0  0.00000000000E+00 -0.00000000000E+00 -0.13988567680E+04  0.13988567680E+04  0.50400000000E-02 0. -1.
    5000001    1    1    2    0    0 -0.83104604704E+02 -0.23606759587E+02 -0.34930847865E+03  0.38158756227E+03  0.12700000000E+03 0.  0.
   -5000001    1    1    2    0    0  0.83104604704E+02  0.23606759587E+02 -0.10277012641E+04  0.10391162316E+04  0.12700000000E+03 0.  0.
<mgrwt>
<rscale>  0 0.34963329E+03</rscale>
<asrwt>0</asrwt>
<pdfrwt beam="1">  1        1 0.19983662E+00 0.34963329E+03</pdfrwt>
<pdfrwt beam="2">  1       -1 0.31210045E-02 0.34963329E+03</pdfrwt>
<totfact> 0.34869483E+03</totfact>
</mgrwt>
</event>
<event>
 4    1  0.6376580E-005  0.3772494E+03  0.7818608E-02  0.1051955E+00
         -1   -1    0    0    0  501 -0.00000000000E+00  0.00000000000E+00  0.30309666266E+03  0.30309666271E+03  0.50400000000E-02 0. -1.
          1   -1    0    0  501    0  0.00000000000E+00 -0.00000000000E+00 -0.11738593642E+03  0.11738593653E+03  0.50400000000E-02 0.  1.
    5000001    1    1    2    0    0  0.10641257121E+03  0.60752831968E+02  0.16708932559E+03  0.24302753883E+03  0.12700000000E+03 0.  0.
   -5000001    1    1    2    0    0 -0.10641257121E+03 -0.60752831968E+02  0.18621400656E+02  0.17745506041E+03  0.12700000000E+03 0.  0.
<mgrwt>
<rscale>  0 0.37724944E+03</rscale>
<asrwt>0</asrwt>
<pdfrwt beam="1">  1        1 0.16769420E-01 0.37724944E+03</pdfrwt>
<pdfrwt beam="2">  1       -1 0.43299523E-01 0.37724944E+03</pdfrwt>
<totfact> 0.17299594E+03</totfact>
</mgrwt>
</event>
<event>
 4    1  0.6376580E-005  0.3654822E+03  0.7818608E-02  0.1056434E+00
         -1   -1    0    0    0  501 -0.00000000000E+00  0.00000000000E+00  0.73618679655E+02  0.73618679828E+02  0.50400000000E-02 0.  1.
          1   -1    0    0  501    0  0.00000000000E+00 -0.00000000000E+00 -0.45361187758E+03  0.45361187761E+03  0.50400000000E-02 0. -1.
    5000001    1    1    2    0    0 -0.30359600023E+02  0.12304673650E+03 -0.24003296255E+03  0.29967820706E+03  0.12700000000E+03 0.  0.
   -5000001    1    1    2    0    0  0.30359600023E+02 -0.12304673650E+03 -0.13996023537E+03  0.22755235038E+03  0.12700000000E+03 0.  0.
<mgrwt>
<rscale>  0 0.36548219E+03</rscale>
<asrwt>0</asrwt>
<pdfrwt beam="1">  1        1 0.64801695E-01 0.36548219E+03</pdfrwt>
<pdfrwt beam="2">  1       -1 0.10516955E-01 0.36548219E+03</pdfrwt>
<totfact> 0.32052151E+03</totfact>
</mgrwt>
</event>
<event>
 4    1  0.6376580E-005  0.7039432E+03  0.7818608E-02  0.9710512E-01
          1   -1    0    0  501    0  0.00000000000E+00  0.00000000000E+00  0.30765537483E+04  0.30765537483E+04  0.50400000000E-02 0.  1.
         -1   -1    0    0    0  501 -0.00000000000E+00 -0.00000000000E+00 -0.40267140279E+02  0.40267140595E+02  0.50400000000E-02 0. -1.
    5000001    1    1    2    0    0 -0.31713023835E+02  0.32567103275E+03  0.14020335273E+04  0.14453007815E+04  0.12700000000E+03 0.  0.
   -5000001    1    1    2    0    0  0.31713023835E+02 -0.32567103275E+03  0.16342530808E+04  0.16715201074E+04  0.12700000000E+03 0.  0.
<mgrwt>
<rscale>  0 0.70394324E+03</rscale>
<asrwt>0</asrwt>
<pdfrwt beam="1">  1        1 0.43950793E+00 0.70394324E+03</pdfrwt>
<pdfrwt beam="2">  1       -1 0.57524454E-02 0.70394324E+03</pdfrwt>
<totfact> 0.12026225E+02</totfact>
</mgrwt>
</event>
<event>
 4    1  0.6376580E-005  0.2672562E+03  0.7818608E-02  0.1102860E+00
          1   -1    0    0  501    0  0.00000000000E+00  0.00000000000E+00  0.41604079627E+02  0.41604079932E+02  0.50400000000E-02 0.  1.
         -1   -1    0    0    0  501 -0.00000000000E+00 -0.00000000000E+00 -0.42920011082E+03  0.42920011085E+03  0.50400000000E-02 0. -1.
    5000001    1    1    2    0    0  0.37797028068E+02 -0.98194539523E+01 -0.21886252316E+03  0.25603679628E+03  0.12700000000E+03 0.  0.
   -5000001    1    1    2    0    0 -0.37797028068E+02  0.98194539523E+01 -0.16873350803E+03  0.21476739450E+03  0.12700000000E+03 0.  0.
<mgrwt>
<rscale>  0 0.26725625E+03</rscale>
<asrwt>0</asrwt>
<pdfrwt beam="1">  1        1 0.59434402E-02 0.26725625E+03</pdfrwt>
<pdfrwt beam="2">  1       -1 0.61314299E-01 0.26725625E+03</pdfrwt>
<totfact> 0.36315532E+03</totfact>
</mgrwt>
</event>
<event>
 4    1  0.6376580E-005  0.4523451E+03  0.7818608E-02  0.1027025E+00
         -1   -1    0    0    0  501 -0.00000000000E+00  0.00000000000E+00  0.11584966662E+04  0.11584966663E+04  0.50400000000E-02 0. -1.
          1   -1    0    0  501    0  0.00000000000E+00 -0.00000000000E+00 -0.44155515694E+02  0.44155515982E+02  0.50400000000E-02 0.  1.
    5000001    1    1    2    0    0 -0.31508774695E+01  0.11566400942E+03  0.16608845567E+03  0.23896122324E+03  0.12700000000E+03 0.  0.
   -5000001    1    1    2    0    0  0.31508774695E+01 -0.11566400942E+03  0.94825269488E+03  0.96369095900E+03  0.12700000000E+03 0.  0.
<mgrwt>
<rscale>  0 0.45234508E+03</rscale>
<asrwt>0</asrwt>
<pdfrwt beam="1">  1        1 0.63079315E-02 0.45234508E+03</pdfrwt>
<pdfrwt beam="2">  1       -1 0.16549951E+00 0.45234508E+03</pdfrwt>
<totfact> 0.34814196E+02</totfact>
</mgrwt>
</event>
<event>
 4    1  0.6376580E-005  0.2806242E+03  0.7818608E-02  0.1095349E+00
          1   -1    0    0  501    0  0.00000000000E+00  0.00000000000E+00  0.43503714562E+03  0.43503714565E+03  0.50400000000E-02 0.  1.
         -1   -1    0    0    0  501 -0.00000000000E+00 -0.00000000000E+00 -0.45254719672E+02  0.45254719953E+02  0.50400000000E-02 0. -1.
    5000001    1    1    2    0    0  0.23918069401E+02  0.31736705992E+02  0.27103317158E+03  0.30193918700E+03  0.12700000000E+03 0.  0.
   -5000001    1    1    2    0    0 -0.23918069401E+02 -0.31736705992E+02  0.11874925437E+03  0.17835267860E+03  0.12700000000E+03 0.  0.
<mgrwt>
<rscale>  0 0.28062419E+03</rscale>
<asrwt>0</asrwt>
<pdfrwt beam="1">  1        1 0.62148164E-01 0.28062419E+03</pdfrwt>
<pdfrwt beam="2">  1       -1 0.64649599E-02 0.28062419E+03</pdfrwt>
<totfact> 0.70994377E+03</totfact>
</mgrwt>
</event>
<event>
 4    1  0.6376580E-005  0.5959591E+03  0.7818608E-02  0.9913825E-01
          1   -1    0    0  501    0  0.00000000000E+00  0.00000000000E+00  0.12720600017E+03  0.12720600027E+03  0.50400000000E-02 0.  1.
         -1   -1    0    0    0  501 -0.00000000000E+00 -0.00000000000E+00 -0.69801597026E+03  0.69801597028E+03  0.50400000000E-02 0. -1.
    5000001    1    1    2    0    0  0.10811653894E+03  0.15309375938E+03 -0.17131392803E+02  0.22704486291E+03  0.12700000000E+03 0.  0.
   -5000001    1    1    2    0    0 -0.10811653894E+03 -0.15309375938E+03 -0.55367857729E+03  0.59817710764E+03  0.12700000000E+03 0.  0.
<mgrwt>
<rscale>  0 0.59595913E+03</rscale>
<asrwt>0</asrwt>
<pdfrwt beam="1">  1        1 0.18172286E-01 0.59595913E+03</pdfrwt>
<pdfrwt beam="2">  1       -1 0.99716565E-01 0.59595913E+03</pdfrwt>
<totfact> 0.29054203E+02</totfact>
</mgrwt>
</event>
<event>
 4    1  0.6376580E-005  0.4315525E+03  0.7818608E-02  0.1033371E+00
          1   -1    0    0  501    0  0.00000000000E+00  0.00000000000E+00  0.16462788268E+04  0.16462788268E+04  0.50400000000E-02 0.  1.
         -1   -1    0    0    0  501 -0.00000000000E+00 -0.00000000000E+00 -0.28281593181E+02  0.28281593630E+02  0.50400000000E-02 0. -1.
    5000001    1    1    2    0    0  0.14954592426E+03 -0.19975746040E+02  0.11487729210E+04  0.11655776414E+04  0.12700000000E+03 0.  0.
   -5000001    1    1    2    0    0 -0.14954592426E+03  0.19975746040E+02  0.46922431253E+03  0.50898277905E+03  0.12700000000E+03 0.  0.
<mgrwt>
<rscale>  0 0.43155249E+03</rscale>
<asrwt>0</asrwt>
<pdfrwt beam="1">  1        1 0.23518265E+00 0.43155249E+03</pdfrwt>
<pdfrwt beam="2">  1       -1 0.40402282E-02 0.43155249E+03</pdfrwt>
<totfact> 0.16518174E+03</totfact>
</mgrwt>
</event>
<event>
 4    1  0.6376580E-005  0.3278628E+03  0.7818608E-02  0.1072086E+00
         -1   -1    0    0    0  501 -0.00000000000E+00  0.00000000000E+00  0.10956712726E+03  0.10956712738E+03  0.50400000000E-02 0.  1.
          1   -1    0    0  501    0  0.00000000000E+00 -0.00000000000E+00 -0.24526971141E+03  0.24526971146E+03  0.50400000000E-02 0. -1.
    5000001    1    1    2    0    0  0.52726931621E+02 -0.11141904957E+02  0.27978580050E+02  0.14076957166E+03  0.12700000000E+03 0.  0.
   -5000001    1    1    2    0    0 -0.52726931621E+02  0.11141904957E+02 -0.16368116419E+03  0.21406726717E+03  0.12700000000E+03 0.  0.
<mgrwt>
<rscale>  0 0.32786276E+03</rscale>
<asrwt>0</asrwt>
<pdfrwt beam="1">  1        1 0.35038530E-01 0.32786276E+03</pdfrwt>
<pdfrwt beam="2">  1       -1 0.15652447E-01 0.32786276E+03</pdfrwt>
<totfact> 0.37355606E+03</totfact>
</mgrwt>
</event>
<event>
 4    1  0.6376580E-005  0.4293215E+03  0.7818608E-02  0.1034075E+00
          1   -1    0    0  501    0  0.00000000000E+00  0.00000000000E+00  0.15706465373E+04  0.15706465373E+04  0.50400000000E-02 0.  1.
         -1   -1    0    0    0  501 -0.00000000000E+00 -0.00000000000E+00 -0.29337747832E+02  0.29337748265E+02  0.50400000000E-02 0. -1.
    5000001    1    1    2    0    0  0.11084643442E+03 -0.12774982859E+03  0.63406510471E+03  0.66841192968E+03  0.12700000000E+03 0.  0.
   -5000001    1    1    2    0    0 -0.11084643442E+03  0.12774982859E+03  0.90724368476E+03  0.93157235590E+03  0.12700000000E+03 0.  0.
<mgrwt>
<rscale>  0 0.42932148E+03</rscale>
<asrwt>0</asrwt>
<pdfrwt beam="1">  1        1 0.22437809E+00 0.42932148E+03</pdfrwt>
<pdfrwt beam="2">  1       -1 0.41911066E-02 0.42932148E+03</pdfrwt>
<totfact> 0.17430696E+03</totfact>
</mgrwt>
</event>
<event>
 4    1  0.6376580E-005  0.3048059E+03  0.7818608E-02  0.1082863E+00
         -1   -1    0    0    0  501 -0.00000000000E+00  0.00000000000E+00  0.52984325319E+03  0.52984325322E+03  0.50400000000E-02 0. -1.
          1   -1    0    0  501    0  0.00000000000E+00 -0.00000000000E+00 -0.43836845228E+02  0.43836845518E+02  0.50400000000E-02 0.  1.
    5000001    1    1    2    0    0  0.15980286030E+02  0.66888437979E+02  0.33459526579E+03  0.36443438993E+03  0.12700000000E+03 0.  0.
   -5000001    1    1    2    0    0 -0.15980286030E+02 -0.66888437979E+02  0.15141114217E+03  0.20924570880E+03  0.12700000000E+03 0.  0.
<mgrwt>
<rscale>  0 0.30480588E+03</rscale>
<asrwt>0</asrwt>
<pdfrwt beam="1">  1        1 0.62624068E-02 0.30480588E+03</pdfrwt>
<pdfrwt beam="2">  1       -1 0.75691890E-01 0.30480588E+03</pdfrwt>
<totfact> 0.22306813E+03</totfact>
</mgrwt>
</event>
