<event>
 4    1  0.1837449E-005  0.5272403E+03  0.7818608E-02  0.1006904E+00
         -2   -1    0    0    0  501 -0.00000000000E+00  0.00000000000E+00  0.32479927749E+02  0.32479927849E+02  0.25500000000E-02 0. -1.
          2   -1    0    0  501    0  0.00000000000E+00 -0.00000000000E+00 -0.21396467716E+04  0.21396467716E+04  0.25500000000E-02 0.  1.
    5000001    1    1    2    0    0 -0.13938868612E+03 -0.11593852067E+03 -0.65416151354E+03  0.69858659606E+03  0.16500000000E+03 0.  0.
   -5000001    1    1    2    0    0  0.13938868612E+03  0.11593852067E+03 -0.14530053303E+04  0.14735401034E+04  0.16500000000E+03 0.  0.
<mgrwt>
<rscale>  0 0.52724026E+03</rscale>
<asrwt>0</asrwt>
<pdfrwt beam="1">  1        2 0.30566374E+00 0.52724026E+03</pdfrwt>
<pdfrwt beam="2">  1       -2 0.46399910E-02 0.52724026E+03</pdfrwt>
<totfact> 0.16297211E+03</totfact>
</mgrwt>
</event>
<event>
 4    1  0.1837449E-005  0.4078492E+03  0.7818608E-02  0.1041095E+00
         -2   -1    0    0    0  501 -0.00000000000E+00  0.00000000000E+00  0.19472186764E+02  0.19472186931E+02  0.25500000000E-02 0. -1.
          2   -1    0    0  501    0  0.00000000000E+00 -0.00000000000E+00 -0.21356231241E+04  0.21356231241E+04  0.25500000000E-02 0.  1.
    5000001    1    1    2    0    0 -0.84718465062E+01 -0.11492148508E+03 -0.12318501981E+04  0.12481821303E+04  0.16500000000E+03 0.  0.
   -5000001    1    1    2    0    0  0.84718465062E+01  0.11492148508E+03 -0.88430073923E+03  0.90691318070E+03  0.16500000000E+03 0.  0.
<mgrwt>
<rscale>  0 0.40784925E+03</rscale>
<asrwt>0</asrwt>
<pdfrwt beam="1">  1        2 0.30508887E+00 0.40784925E+03</pdfrwt>
<pdfrwt beam="2">  1       -2 0.27817424E-02 0.40784925E+03</pdfrwt>
<totfact> 0.35826466E+03</totfact>
</mgrwt>
</event>
<event>
 4    1  0.1837449E-005  0.6757263E+03  0.7818608E-02  0.9759668E-01
          2   -1    0    0  501    0  0.00000000000E+00  0.00000000000E+00  0.16713182036E+04  0.16713182036E+04  0.25500000000E-02 0.  1.
         -2   -1    0    0    0  501 -0.00000000000E+00 -0.00000000000E+00 -0.68300276990E+02  0.68300277037E+02  0.25500000000E-02 0. -1.
    5000001    1    1    2    0    0  0.15589976268E+03 -0.24073220134E+03  0.97743529328E+03  0.10319212573E+04  0.16500000000E+03 0.  0.
   -5000001    1    1    2    0    0 -0.15589976268E+03  0.24073220134E+03  0.62558263334E+03  0.70769722332E+03  0.16500000000E+03 0.  0.
<mgrwt>
<rscale>  0 0.67572626E+03</rscale>
<asrwt>0</asrwt>
<pdfrwt beam="1">  1        2 0.23875972E+00 0.67572626E+03</pdfrwt>
<pdfrwt beam="2">  1       -2 0.97571835E-02 0.67572626E+03</pdfrwt>
<totfact> 0.86196984E+02</totfact>
</mgrwt>
</event>
<event>
 4    1  0.1837449E-005  0.5479409E+03  0.7818608E-02  0.1001972E+00
          2   -1    0    0  501    0  0.00000000000E+00  0.00000000000E+00  0.28785563006E+02  0.28785563119E+02  0.25500000000E-02 0.  1.
         -2   -1    0    0    0  501 -0.00000000000E+00 -0.00000000000E+00 -0.26075501910E+04  0.26075501910E+04  0.25500000000E-02 0. -1.
    5000001    1    1    2    0    0 -0.35201281701E+02 -0.19292461461E+03 -0.17552583149E+04  0.17738702853E+04  0.16500000000E+03 0.  0.
   -5000001    1    1    2    0    0  0.35201281701E+02  0.19292461461E+03 -0.82350631319E+03  0.86246546888E+03  0.16500000000E+03 0.  0.
<mgrwt>
<rscale>  0 0.54794087E+03</rscale>
<asrwt>0</asrwt>
<pdfrwt beam="1">  1        2 0.41122250E-02 0.54794087E+03</pdfrwt>
<pdfrwt beam="2">  1       -2 0.37250702E+00 0.54794087E+03</pdfrwt>
<totfact> 0.26238666E+01</totfact>
</mgrwt>
</event>
<event>
 4    1  0.1837449E-005  0.6471419E+03  0.7818608E-02  0.9812157E-01
         -2   -1    0    0    0  501 -0.00000000000E+00  0.00000000000E+00  0.35945413882E+02  0.35945413972E+02  0.25500000000E-02 0. -1.
          2   -1    0    0  501    0  0.00000000000E+00 -0.00000000000E+00 -0.29126989044E+04  0.29126989044E+04  0.25500000000E-02 0.  1.
    5000001    1    1    2    0    0  0.56430553397E+02  0.27245894316E+03 -0.14046209363E+04  0.14413893498E+04  0.16500000000E+03 0.  0.
   -5000001    1    1    2    0    0 -0.56430553397E+02 -0.27245894316E+03 -0.14721325543E+04  0.15072549686E+04  0.16500000000E+03 0.  0.
<mgrwt>
<rscale>  0 0.64714192E+03</rscale>
<asrwt>0</asrwt>
<pdfrwt beam="1">  1        2 0.41609970E+00 0.64714192E+03</pdfrwt>
<pdfrwt beam="2">  1       -2 0.51350610E-02 0.64714192E+03</pdfrwt>
<totfact> 0.55122994E+02</totfact>
</mgrwt>
</event>
<event>
 4    1  0.1837449E-005  0.7073810E+03  0.7818608E-02  0.9704692E-01
         -2   -1    0    0    0  501 -0.00000000000E+00  0.00000000000E+00  0.44825586539E+02  0.44825586612E+02  0.25500000000E-02 0. -1.
          2   -1    0    0  501    0  0.00000000000E+00 -0.00000000000E+00 -0.27907495107E+04  0.27907495107E+04  0.25500000000E-02 0.  1.
    5000001    1    1    2    0    0 -0.17622477440E+03 -0.18420815169E+03 -0.64605106733E+03  0.71385908683E+03  0.16500000000E+03 0.  0.
   -5000001    1    1    2    0    0  0.17622477440E+03  0.18420815169E+03 -0.20998728569E+04  0.21217160105E+04  0.16500000000E+03 0.  0.
<mgrwt>
<rscale>  0 0.70738104E+03</rscale>
<asrwt>0</asrwt>
<pdfrwt beam="1">  1        2 0.39867839E+00 0.70738104E+03</pdfrwt>
<pdfrwt beam="2">  1       -2 0.64036570E-02 0.70738104E+03</pdfrwt>
<totfact> 0.45084125E+02</totfact>
</mgrwt>
</event>
<event>
 4    1  0.1837449E-005  0.5217809E+03  0.7818608E-02  0.1008245E+00
          2   -1    0    0  501    0  0.00000000000E+00  0.00000000000E+00  0.49165146232E+03  0.49165146233E+03  0.25500000000E-02 0.  1.
         -2   -1    0    0    0  501 -0.00000000000E+00 -0.00000000000E+00 -0.13843918089E+03  0.13843918092E+03  0.25500000000E-02 0. -1.
    5000001    1    1    2    0    0 -0.19487196147E+03 -0.52848917991E+02  0.18676244808E+03  0.32073868104E+03  0.16500000000E+03 0.  0.
   -5000001    1    1    2    0    0  0.19487196147E+03  0.52848917991E+02  0.16644983334E+03  0.30935196221E+03  0.16500000000E+03 0.  0.
<mgrwt>
<rscale>  0 0.52178090E+03</rscale>
<asrwt>0</asrwt>
<pdfrwt beam="1">  1        2 0.70235924E-01 0.52178090E+03</pdfrwt>
<pdfrwt beam="2">  1       -2 0.19777026E-01 0.52178090E+03</pdfrwt>
<totfact> 0.14867632E+03</totfact>
</mgrwt>
</event>
<event>
 4    1  0.1837449E-005  0.5067180E+03  0.7818608E-02  0.1012040E+00
         -2   -1    0    0    0  501 -0.00000000000E+00  0.00000000000E+00  0.43797847133E+02  0.43797847207E+02  0.25500000000E-02 0. -1.
          2   -1    0    0  501    0  0.00000000000E+00 -0.00000000000E+00 -0.14656151253E+04  0.14656151253E+04  0.25500000000E-02 0.  1.
    5000001    1    1    2    0    0  0.16629529486E+03  0.52655980525E+02 -0.47003031069E+03  0.52780703893E+03  0.16500000000E+03 0.  0.
   -5000001    1    1    2    0    0 -0.16629529486E+03 -0.52655980525E+02 -0.95178696745E+03  0.98160593355E+03  0.16500000000E+03 0.  0.
<mgrwt>
<rscale>  0 0.50671802E+03</rscale>
<asrwt>0</asrwt>
<pdfrwt beam="1">  1        2 0.20937356E+00 0.50671802E+03</pdfrwt>
<pdfrwt beam="2">  1       -2 0.62568362E-02 0.50671802E+03</pdfrwt>
<totfact> 0.22457979E+03</totfact>
</mgrwt>
</event>
<event>
 4    1  0.1837449E-005  0.7681384E+03  0.7818608E-02  0.9607316E-01
         -2   -1    0    0    0  501 -0.00000000000E+00  0.00000000000E+00  0.15591605068E+03  0.15591605070E+03  0.25500000000E-02 0. -1.
          2   -1    0    0  501    0  0.00000000000E+00 -0.00000000000E+00 -0.94608060364E+03  0.94608060364E+03  0.25500000000E-02 0.  1.
    5000001    1    1    2    0    0 -0.58935048775E+02 -0.30013543988E+03 -0.62963282455E+03  0.71917808364E+03  0.16500000000E+03 0.  0.
   -5000001    1    1    2    0    0  0.58935048775E+02  0.30013543988E+03 -0.16053172841E+03  0.38281857070E+03  0.16500000000E+03 0.  0.
<mgrwt>
<rscale>  0 0.76813840E+03</rscale>
<asrwt>0</asrwt>
<pdfrwt beam="1">  1        2 0.13515437E+00 0.76813840E+03</pdfrwt>
<pdfrwt beam="2">  1       -2 0.22273722E-01 0.76813840E+03</pdfrwt>
<totfact> 0.53717848E+02</totfact>
</mgrwt>
</event>
<event>
 4    1  0.1837449E-005  0.7002001E+03  0.7818608E-02  0.9716890E-01
          2   -1    0    0  501    0  0.00000000000E+00  0.00000000000E+00  0.11380453379E+04  0.11380453379E+04  0.25500000000E-02 0.  1.
         -2   -1    0    0    0  501 -0.00000000000E+00 -0.00000000000E+00 -0.10770223760E+03  0.10770223763E+03  0.25500000000E-02 0. -1.
    5000001    1    1    2    0    0 -0.10417652732E+03 -0.24866641118E+03  0.78297240188E+03  0.84436870797E+03  0.16500000000E+03 0.  0.
   -5000001    1    1    2    0    0  0.10417652732E+03  0.24866641118E+03  0.24737069843E+03  0.40137886757E+03  0.16500000000E+03 0.  0.
<mgrwt>
<rscale>  0 0.70020006E+03</rscale>
<asrwt>0</asrwt>
<pdfrwt beam="1">  1        2 0.16257790E+00 0.70020006E+03</pdfrwt>
<pdfrwt beam="2">  1       -2 0.15386034E-01 0.70020006E+03</pdfrwt>
<totfact> 0.78317552E+02</totfact>
</mgrwt>
</event>
<event>
 4    1  0.1837449E-005  0.4885525E+03  0.7818608E-02  0.1016811E+00
          2   -1    0    0  501    0  0.00000000000E+00  0.00000000000E+00  0.27646097174E+04  0.27646097174E+04  0.25500000000E-02 0.  1.
         -2   -1    0    0    0  501 -0.00000000000E+00 -0.00000000000E+00 -0.21583833110E+02  0.21583833260E+02  0.25500000000E-02 0. -1.
    5000001    1    1    2    0    0  0.84755929061E+02 -0.12988894977E+03  0.84910316454E+03  0.87878091173E+03  0.16500000000E+03 0.  0.
   -5000001    1    1    2    0    0 -0.84755929061E+02  0.12988894977E+03  0.18939227197E+04  0.19074126389E+04  0.16500000000E+03 0.  0.
<mgrwt>
<rscale>  0 0.48855245E+03</rscale>
<asrwt>0</asrwt>
<pdfrwt beam="1">  1        2 0.39494414E+00 0.48855245E+03</pdfrwt>
<pdfrwt beam="2">  1       -2 0.30834056E-02 0.48855245E+03</pdfrwt>
<totfact> 0.14647586E+03</totfact>
</mgrwt>
</event>
<event>
 4    1  0.1837449E-005  0.3766044E+03  0.7818608E-02  0.1052196E+00
         -2   -1    0    0    0  501 -0.00000000000E+00  0.00000000000E+00  0.13940466055E+03  0.13940466058E+03  0.25500000000E-02 0. -1.
          2   -1    0    0  501    0  0.00000000000E+00 -0.00000000000E+00 -0.25435096062E+03  0.25435096063E+03  0.25500000000E-02 0.  1.
    5000001    1    1    2    0    0  0.10730751419E+02  0.89970995347E+02 -0.62463387176E+02  0.19833457532E+03  0.16500000000E+03 0.  0.
   -5000001    1    1    2    0    0 -0.10730751419E+02 -0.89970995347E+02 -0.52482912890E+02  0.19542104589E+03  0.16500000000E+03 0.  0.
<mgrwt>
<rscale>  0 0.37660435E+03</rscale>
<asrwt>0</asrwt>
<pdfrwt beam="1">  1        2 0.36335851E-01 0.37660435E+03</pdfrwt>
<pdfrwt beam="2">  1       -2 0.19914952E-01 0.37660435E+03</pdfrwt>
<totfact> 0.30237744E+03</totfact>
</mgrwt>
</event>
<event>
 4    1  0.1837449E-005  0.5798745E+03  0.7818608E-02  0.9948063E-01
          2   -1    0    0  501    0  0.00000000000E+00  0.00000000000E+00  0.38253823081E+04  0.38253823081E+04  0.25500000000E-02 0.  1.
         -2   -1    0    0    0  501 -0.00000000000E+00 -0.00000000000E+00 -0.21975216387E+02  0.21975216535E+02  0.25500000000E-02 0. -1.
    5000001    1    1    2    0    0 -0.14598173373E+03  0.16270083238E+03  0.12703017839E+04  0.12994898421E+04  0.16500000000E+03 0.  0.
   -5000001    1    1    2    0    0  0.14598173373E+03 -0.16270083238E+03  0.25331053077E+04  0.25478676825E+04  0.16500000000E+03 0.  0.
<mgrwt>
<rscale>  0 0.57987448E+03</rscale>
<asrwt>0</asrwt>
<pdfrwt beam="1">  1        2 0.54648326E+00 0.57987448E+03</pdfrwt>
<pdfrwt beam="2">  1       -2 0.31393162E-02 0.57987448E+03</pdfrwt>
<totfact> 0.34829976E+02</totfact>
</mgrwt>
</event>
<event>
 4    1  0.1837449E-005  0.4044403E+03  0.7818608E-02  0.1042253E+00
         -2   -1    0    0    0  501 -0.00000000000E+00  0.00000000000E+00  0.92099999650E+01  0.92100003180E+01  0.25500000000E-02 0. -1.
          2   -1    0    0  501    0  0.00000000000E+00 -0.00000000000E+00 -0.44400632397E+04  0.44400632397E+04  0.25500000000E-02 0.  1.
    5000001    1    1    2    0    0 -0.27458137822E+02 -0.11340315204E+03 -0.22960868857E+04  0.23049629522E+04  0.16500000000E+03 0.  0.
   -5000001    1    1    2    0    0  0.27458137822E+02  0.11340315204E+03 -0.21347663540E+04  0.21443102878E+04  0.16500000000E+03 0.  0.
<mgrwt>
<rscale>  0 0.40444027E+03</rscale>
<asrwt>0</asrwt>
<pdfrwt beam="1">  1        2 0.63429338E+00 0.40444027E+03</pdfrwt>
<pdfrwt beam="2">  1       -2 0.13157171E-02 0.40444027E+03</pdfrwt>
<totfact> 0.49610543E+02</totfact>
</mgrwt>
</event>
<event>
 4    1  0.1837449E-005  0.6463690E+03  0.7818608E-02  0.9813616E-01
          2   -1    0    0  501    0  0.00000000000E+00  0.00000000000E+00  0.93721436685E+03  0.93721436686E+03  0.25500000000E-02 0. -1.
         -2   -1    0    0    0  501 -0.00000000000E+00 -0.00000000000E+00 -0.11144538693E+03  0.11144538696E+03  0.25500000000E-02 0.  1.
    5000001    1    1    2    0    0 -0.93444150347E+02 -0.19339496016E+03  0.12682060151E+03  0.29906836144E+03  0.16500000000E+03 0.  0.
   -5000001    1    1    2    0    0  0.93444150347E+02  0.19339496016E+03  0.69894837841E+03  0.74959139238E+03  0.16500000000E+03 0.  0.
<mgrwt>
<rscale>  0 0.64636899E+03</rscale>
<asrwt>0</asrwt>
<pdfrwt beam="1">  1        2 0.13388777E+00 0.64636899E+03</pdfrwt>
<pdfrwt beam="2">  1       -2 0.15920770E-01 0.64636899E+03</pdfrwt>
<totfact> 0.97788530E+02</totfact>
</mgrwt>
</event>
<event>
 4    1  0.1837449E-005  0.4003228E+03  0.7818608E-02  0.1043668E+00
          2   -1    0    0  501    0  0.00000000000E+00  0.00000000000E+00  0.12196894055E+04  0.12196894055E+04  0.25500000000E-02 0.  1.
         -2   -1    0    0    0  501 -0.00000000000E+00 -0.00000000000E+00 -0.32848186617E+02  0.32848186716E+02  0.25500000000E-02 0. -1.
    5000001    1    1    2    0    0 -0.56281719919E+02  0.66081187229E+02  0.36552678596E+03  0.41032814497E+03  0.16500000000E+03 0.  0.
   -5000001    1    1    2    0    0  0.56281719919E+02 -0.66081187229E+02  0.82131443296E+03  0.84220944728E+03  0.16500000000E+03 0.  0.
<mgrwt>
<rscale>  0 0.40032280E+03</rscale>
<asrwt>0</asrwt>
<pdfrwt beam="1">  1        2 0.17424133E+00 0.40032280E+03</pdfrwt>
<pdfrwt beam="2">  1       -2 0.46925985E-02 0.40032280E+03</pdfrwt>
<totfact> 0.47398893E+03</totfact>
</mgrwt>
</event>
<event>
 4    1  0.1837449E-005  0.8474701E+03  0.7818608E-02  0.9493739E-01
         -2   -1    0    0    0  501 -0.00000000000E+00  0.00000000000E+00  0.98164567533E+03  0.98164567533E+03  0.25500000000E-02 0. -1.
          2   -1    0    0  501    0  0.00000000000E+00 -0.00000000000E+00 -0.18290856488E+03  0.18290856489E+03  0.25500000000E-02 0.  1.
    5000001    1    1    2    0    0  0.22416979828E+03  0.25127315278E+03  0.12821732273E+03  0.39630162455E+03  0.16500000000E+03 0.  0.
   -5000001    1    1    2    0    0 -0.22416979828E+03 -0.25127315278E+03  0.67051978772E+03  0.76825261568E+03  0.16500000000E+03 0.  0.
<mgrwt>
<rscale>  0 0.84747012E+03</rscale>
<asrwt>0</asrwt>
<pdfrwt beam="1">  1        2 0.26129795E-01 0.84747012E+03</pdfrwt>
<pdfrwt beam="2">  1       -2 0.14023510E+00 0.84747012E+03</pdfrwt>
<totfact> 0.74932492E+01</totfact>
</mgrwt>
</event>
<event>
 4    1  0.1837449E-005  0.4410536E+03  0.7818608E-02  0.1030424E+00
          2   -1    0    0  501    0  0.00000000000E+00  0.00000000000E+00  0.37528636569E+02  0.37528636656E+02  0.25500000000E-02 0.  1.
         -2   -1    0    0    0  501 -0.00000000000E+00 -0.00000000000E+00 -0.12958654829E+04  0.12958654829E+04  0.25500000000E-02 0. -1.
    5000001    1    1    2    0    0  0.49219537274E+02  0.11568931579E+03 -0.40292291146E+03  0.45318699586E+03  0.16500000000E+03 0.  0.
   -5000001    1    1    2    0    0 -0.49219537274E+02 -0.11568931579E+03 -0.85541393486E+03  0.88020712369E+03  0.16500000000E+03 0.  0.
<mgrwt>
<rscale>  0 0.44105358E+03</rscale>
<asrwt>0</asrwt>
<pdfrwt beam="1">  1        2 0.53612346E-02 0.44105358E+03</pdfrwt>
<pdfrwt beam="2">  1       -2 0.18512361E+00 0.44105358E+03</pdfrwt>
<totfact> 0.25775282E+02</totfact>
</mgrwt>
</event>
<event>
 4    1  0.1837449E-005  0.4608991E+03  0.7818608E-02  0.1024521E+00
          2   -1    0    0  501    0  0.00000000000E+00  0.00000000000E+00  0.69108549985E+03  0.69108549985E+03  0.25500000000E-02 0.  1.
         -2   -1    0    0    0  501 -0.00000000000E+00 -0.00000000000E+00 -0.76845776533E+02  0.76845776575E+02  0.25500000000E-02 0. -1.
    5000001    1    1    2    0    0 -0.85182264273E+02 -0.52478422660E+02  0.51702945176E+03  0.55186452774E+03  0.16500000000E+03 0.  0.
   -5000001    1    1    2    0    0  0.85182264273E+02  0.52478422660E+02  0.97210271552E+02  0.21606674868E+03  0.16500000000E+03 0.  0.
<mgrwt>
<rscale>  0 0.46089913E+03</rscale>
<asrwt>0</asrwt>
<pdfrwt beam="1">  1        2 0.98726496E-01 0.46089913E+03</pdfrwt>
<pdfrwt beam="2">  1       -2 0.10977969E-01 0.46089913E+03</pdfrwt>
<totfact> 0.26789300E+03</totfact>
</mgrwt>
</event>
<event>
 4    1  0.1837449E-005  0.4785903E+03  0.7818608E-02  0.1019523E+00
          2   -1    0    0  501    0  0.00000000000E+00  0.00000000000E+00  0.23349895471E+04  0.23349895471E+04  0.25500000000E-02 0. -1.
         -2   -1    0    0    0  501 -0.00000000000E+00 -0.00000000000E+00 -0.24523521448E+02  0.24523521580E+02  0.25500000000E-02 0.  1.
    5000001    1    1    2    0    0 -0.13998512670E+02  0.90540847509E+02  0.18805417050E+04  0.18899882825E+04  0.16500000000E+03 0.  0.
   -5000001    1    1    2    0    0  0.13998512670E+02 -0.90540847509E+02  0.42992432059E+03  0.46952478620E+03  0.16500000000E+03 0.  0.
<mgrwt>
<rscale>  0 0.47859029E+03</rscale>
<asrwt>0</asrwt>
<pdfrwt beam="1">  1        2 0.33357002E+00 0.47859029E+03</pdfrwt>
<pdfrwt beam="2">  1       -2 0.35033594E-02 0.47859029E+03</pdfrwt>
<totfact> 0.20045668E+03</totfact>
</mgrwt>
</event>
<event>
 4    1  0.1837449E-005  0.4141240E+03  0.7818608E-02  0.1038996E+00
          2   -1    0    0  501    0  0.00000000000E+00  0.00000000000E+00  0.12363888918E+04  0.12363888918E+04  0.25500000000E-02 0.  1.
         -2   -1    0    0    0  501 -0.00000000000E+00 -0.00000000000E+00 -0.34677337749E+02  0.34677337842E+02  0.25500000000E-02 0. -1.
    5000001    1    1    2    0    0  0.69740425137E+02 -0.13317251408E+01  0.91959185433E+03  0.93687762218E+03  0.16500000000E+03 0.  0.
   -5000001    1    1    2    0    0 -0.69740425137E+02  0.13317251408E+01  0.28211969973E+03  0.33418860748E+03  0.16500000000E+03 0.  0.
<mgrwt>
<rscale>  0 0.41412402E+03</rscale>
<asrwt>0</asrwt>
<pdfrwt beam="1">  1        2 0.17662701E+00 0.41412402E+03</pdfrwt>
<pdfrwt beam="2">  1       -2 0.49539048E-02 0.41412402E+03</pdfrwt>
<totfact> 0.42722218E+03</totfact>
</mgrwt>
</event>
<event>
 4    1  0.1837449E-005  0.9522408E+03  0.7818608E-02  0.9362535E-01
          2   -1    0    0  501    0  0.00000000000E+00  0.00000000000E+00  0.27234538422E+03  0.27234538423E+03  0.25500000000E-02 0.  1.
         -2   -1    0    0    0  501 -0.00000000000E+00 -0.00000000000E+00 -0.83236454321E+03  0.83236454321E+03  0.25500000000E-02 0. -1.
    5000001    1    1    2    0    0  0.39315742574E+02  0.40721468224E+03 -0.72170261804E+02  0.44699336878E+03  0.16500000000E+03 0.  0.
   -5000001    1    1    2    0    0 -0.39315742574E+02 -0.40721468224E+03 -0.48784889719E+03  0.65771655866E+03  0.16500000000E+03 0.  0.
<mgrwt>
<rscale>  0 0.95224081E+03</rscale>
<asrwt>0</asrwt>
<pdfrwt beam="1">  1        2 0.38906484E-01 0.95224081E+03</pdfrwt>
<pdfrwt beam="2">  1       -2 0.11890922E+00 0.95224081E+03</pdfrwt>
<totfact> 0.72223461E+01</totfact>
</mgrwt>
</event>
<event>
 4    1  0.1837449E-005  0.5190738E+03  0.7818608E-02  0.1008917E+00
          2   -1    0    0  501    0  0.00000000000E+00  0.00000000000E+00  0.70477130174E+03  0.70477130174E+03  0.25500000000E-02 0.  1.
         -2   -1    0    0    0  501 -0.00000000000E+00 -0.00000000000E+00 -0.95576238833E+02  0.95576238867E+02  0.25500000000E-02 0. -1.
    5000001    1    1    2    0    0  0.49669755788E+01  0.80587694850E+02  0.58729265565E+03  0.61535088428E+03  0.16500000000E+03 0.  0.
   -5000001    1    1    2    0    0 -0.49669755788E+01 -0.80587694850E+02  0.21902407253E+02  0.18499665632E+03  0.16500000000E+03 0.  0.
<mgrwt>
<rscale>  0 0.51907375E+03</rscale>
<asrwt>0</asrwt>
<pdfrwt beam="1">  1        2 0.10068161E+00 0.51907375E+03</pdfrwt>
<pdfrwt beam="2">  1       -2 0.13653749E-01 0.51907375E+03</pdfrwt>
<totfact> 0.18293553E+03</totfact>
</mgrwt>
</event>
<event>
 4    1  0.1837449E-005  0.5304392E+03  0.7818608E-02  0.1006126E+00
          2   -1    0    0  501    0  0.00000000000E+00  0.00000000000E+00  0.92933496484E+03  0.92933496484E+03  0.25500000000E-02 0.  1.
         -2   -1    0    0    0  501 -0.00000000000E+00 -0.00000000000E+00 -0.75690065471E+02  0.75690065514E+02  0.25500000000E-02 0. -1.
    5000001    1    1    2    0    0 -0.10878218359E+03 -0.53962170454E+02  0.74596021864E+03  0.77358071789E+03  0.16500000000E+03 0.  0.
   -5000001    1    1    2    0    0  0.10878218359E+03  0.53962170454E+02  0.10768468073E+03  0.23144431246E+03  0.16500000000E+03 0.  0.
<mgrwt>
<rscale>  0 0.53043916E+03</rscale>
<asrwt>0</asrwt>
<pdfrwt beam="1">  1        2 0.13276214E+00 0.53043916E+03</pdfrwt>
<pdfrwt beam="2">  1       -2 0.10812866E-01 0.53043916E+03</pdfrwt>
<totfact> 0.18840294E+03</totfact>
</mgrwt>
</event>
<event>
 4    1  0.1837449E-005  0.4651441E+03  0.7818608E-02  0.1023300E+00
          2   -1    0    0  501    0  0.00000000000E+00  0.00000000000E+00  0.62668393856E+03  0.62668393856E+03  0.25500000000E-02 0.  1.
         -2   -1    0    0    0  501 -0.00000000000E+00 -0.00000000000E+00 -0.86311047339E+02  0.86311047377E+02  0.25500000000E-02 0. -1.
    5000001    1    1    2    0    0  0.10161727391E+03  0.10808207175E+03  0.16335957997E+03  0.27553431176E+03  0.16500000000E+03 0.  0.
   -5000001    1    1    2    0    0 -0.10161727391E+03 -0.10808207175E+03  0.37701331125E+03  0.43746067418E+03  0.16500000000E+03 0.  0.
<mgrwt>
<rscale>  0 0.46514405E+03</rscale>
<asrwt>0</asrwt>
<pdfrwt beam="1">  1        2 0.89526275E-01 0.46514405E+03</pdfrwt>
<pdfrwt beam="2">  1       -2 0.12330150E-01 0.46514405E+03</pdfrwt>
<totfact> 0.24906838E+03</totfact>
</mgrwt>
</event>
<event>
 4    1  0.1837449E-005  0.5220446E+03  0.7818608E-02  0.1008180E+00
          2   -1    0    0  501    0  0.00000000000E+00  0.00000000000E+00  0.13794633001E+04  0.13794633001E+04  0.25500000000E-02 0.  1.
         -2   -1    0    0    0  501 -0.00000000000E+00 -0.00000000000E+00 -0.49390696388E+02  0.49390696454E+02  0.25500000000E-02 0. -1.
    5000001    1    1    2    0    0 -0.83722678484E+02 -0.61540884588E+02  0.19009277476E+03  0.27231788481E+03  0.16500000000E+03 0.  0.
   -5000001    1    1    2    0    0  0.83722678484E+02  0.61540884588E+02  0.11399798289E+04  0.11565361117E+04  0.16500000000E+03 0.  0.
<mgrwt>
<rscale>  0 0.52204465E+03</rscale>
<asrwt>0</asrwt>
<pdfrwt beam="1">  1        2 0.19706616E+00 0.52204465E+03</pdfrwt>
<pdfrwt beam="2">  1       -2 0.70558147E-02 0.52204465E+03</pdfrwt>
<totfact> 0.20634272E+03</totfact>
</mgrwt>
</event>
<event>
 4    1  0.1837449E-005  0.6007774E+03  0.7818608E-02  0.9903795E-01
          2   -1    0    0  501    0  0.00000000000E+00  0.00000000000E+00  0.68556165745E+03  0.68556165746E+03  0.25500000000E-02 0.  1.
         -2   -1    0    0    0  501 -0.00000000000E+00 -0.00000000000E+00 -0.13161962789E+03  0.13161962791E+03  0.25500000000E-02 0. -1.
    5000001    1    1    2    0    0  0.40696195675E+02 -0.24614996873E+03  0.23941397319E+03  0.38313188070E+03  0.16500000000E+03 0.  0.
   -5000001    1    1    2    0    0 -0.40696195675E+02  0.24614996873E+03  0.31452805638E+03  0.43404940467E+03  0.16500000000E+03 0.  0.
<mgrwt>
<rscale>  0 0.60077740E+03</rscale>
<asrwt>0</asrwt>
<pdfrwt beam="1">  1        2 0.97937380E-01 0.60077740E+03</pdfrwt>
<pdfrwt beam="2">  1       -2 0.18802804E-01 0.60077740E+03</pdfrwt>
<totfact> 0.10998401E+03</totfact>
</mgrwt>
</event>
<event>
 4    1  0.1837449E-005  0.5603978E+03  0.7818608E-02  0.9991155E-01
         -2   -1    0    0    0  501 -0.00000000000E+00  0.00000000000E+00  0.63853257858E+02  0.63853257909E+02  0.25500000000E-02 0. -1.
          2   -1    0    0  501    0  0.00000000000E+00 -0.00000000000E+00 -0.12295603544E+04  0.12295603544E+04  0.25500000000E-02 0.  1.
    5000001    1    1    2    0    0  0.17018734407E+03 -0.10896272733E+02 -0.92677267258E+03  0.95666872400E+03  0.16500000000E+03 0.  0.
   -5000001    1    1    2    0    0 -0.17018734407E+03  0.10896272733E+02 -0.23893442393E+03  0.33674488827E+03  0.16500000000E+03 0.  0.
<mgrwt>
<rscale>  0 0.56039784E+03</rscale>
<asrwt>0</asrwt>
<pdfrwt beam="1">  1        2 0.17565146E+00 0.56039784E+03</pdfrwt>
<pdfrwt beam="2">  1       -2 0.91218947E-02 0.56039784E+03</pdfrwt>
<totfact> 0.16518779E+03</totfact>
</mgrwt>
</event>
<event>
 4    1  0.1837449E-005  0.4403693E+03  0.7818608E-02  0.1030634E+00
          2   -1    0    0  501    0  0.00000000000E+00  0.00000000000E+00  0.71743654611E+03  0.71743654611E+03  0.25500000000E-02 0.  1.
         -2   -1    0    0    0  501 -0.00000000000E+00 -0.00000000000E+00 -0.67575713482E+02  0.67575713530E+02  0.25500000000E-02 0. -1.
    5000001    1    1    2    0    0  0.10252005348E+03 -0.98772611301E+02  0.26884444489E+03  0.34607618476E+03  0.16500000000E+03 0.  0.
   -5000001    1    1    2    0    0 -0.10252005348E+03  0.98772611301E+02  0.38101638774E+03  0.43893607488E+03  0.16500000000E+03 0.  0.
<mgrwt>
<rscale>  0 0.44036933E+03</rscale>
<asrwt>0</asrwt>
<pdfrwt beam="1">  1        2 0.10249093E+00 0.44036933E+03</pdfrwt>
<pdfrwt beam="2">  1       -2 0.96536740E-02 0.44036933E+03</pdfrwt>
<totfact> 0.31489287E+03</totfact>
</mgrwt>
</event>
<event>
 4    1  0.1837449E-005  0.4209251E+03  0.7818608E-02  0.1036766E+00
         -2   -1    0    0    0  501 -0.00000000000E+00  0.00000000000E+00  0.42186081143E+02  0.42186081220E+02  0.25500000000E-02 0. -1.
          2   -1    0    0  501    0  0.00000000000E+00 -0.00000000000E+00 -0.10499785736E+04  0.10499785736E+04  0.25500000000E-02 0.  1.
    5000001    1    1    2    0    0  0.89481932265E+02 -0.55370070276E+02 -0.70482245642E+03  0.73148653847E+03  0.16500000000E+03 0.  0.
   -5000001    1    1    2    0    0 -0.89481932265E+02  0.55370070276E+02 -0.30297003606E+03  0.36067811638E+03  0.16500000000E+03 0.  0.
<mgrwt>
<rscale>  0 0.42092508E+03</rscale>
<asrwt>0</asrwt>
<pdfrwt beam="1">  1        2 0.14999692E+00 0.42092508E+03</pdfrwt>
<pdfrwt beam="2">  1       -2 0.60265837E-02 0.42092508E+03</pdfrwt>
<totfact> 0.40225274E+03</totfact>
</mgrwt>
</event>
<event>
 4    1  0.1837449E-005  0.4362379E+03  0.7818608E-02  0.1031907E+00
          2   -1    0    0  501    0  0.00000000000E+00  0.00000000000E+00  0.47052113198E+03  0.47052113199E+03  0.25500000000E-02 0.  1.
         -2   -1    0    0    0  501 -0.00000000000E+00 -0.00000000000E+00 -0.10111316705E+03  0.10111316708E+03  0.25500000000E-02 0. -1.
    5000001    1    1    2    0    0 -0.94159993804E+02 -0.10207519533E+03  0.22747580020E+03  0.31345763607E+03  0.16500000000E+03 0.  0.
   -5000001    1    1    2    0    0  0.94159993804E+02  0.10207519533E+03  0.14193216473E+03  0.25817666301E+03  0.16500000000E+03 0.  0.
<mgrwt>
<rscale>  0 0.43623793E+03</rscale>
<asrwt>0</asrwt>
<pdfrwt beam="1">  1        2 0.67217304E-01 0.43623793E+03</pdfrwt>
<pdfrwt beam="2">  1       -2 0.14444738E-01 0.43623793E+03</pdfrwt>
<totfact> 0.26595332E+03</totfact>
</mgrwt>
</event>
<event>
 4    1  0.1837449E-005  0.4191504E+03  0.7818608E-02  0.1037343E+00
         -2   -1    0    0    0  501 -0.00000000000E+00  0.00000000000E+00  0.38259650374E+03  0.38259650375E+03  0.25500000000E-02 0. -1.
          2   -1    0    0  501    0  0.00000000000E+00 -0.00000000000E+00 -0.11479919544E+03  0.11479919547E+03  0.25500000000E-02 0.  1.
    5000001    1    1    2    0    0 -0.92970659485E+02  0.12318530782E+02  0.23938259874E+03  0.30549029167E+03  0.16500000000E+03 0.  0.
   -5000001    1    1    2    0    0  0.92970659485E+02 -0.12318530782E+02  0.28414709557E+02  0.19190540754E+03  0.16500000000E+03 0.  0.
<mgrwt>
<rscale>  0 0.41915043E+03</rscale>
<asrwt>0</asrwt>
<pdfrwt beam="1">  1        2 0.16399885E-01 0.41915043E+03</pdfrwt>
<pdfrwt beam="2">  1       -2 0.54656644E-01 0.41915043E+03</pdfrwt>
<totfact> 0.11327295E+03</totfact>
</mgrwt>
</event>
<event>
 4    1  0.1837449E-005  0.4030444E+03  0.7818608E-02  0.1042731E+00
         -2   -1    0    0    0  501 -0.00000000000E+00  0.00000000000E+00  0.11570269343E+03  0.11570269346E+03  0.25500000000E-02 0. -1.
          2   -1    0    0  501    0  0.00000000000E+00 -0.00000000000E+00 -0.35099615211E+03  0.35099615212E+03  0.25500000000E-02 0.  1.
    5000001    1    1    2    0    0  0.40033104852E+02  0.82734396102E+02 -0.19902050058E+03  0.27437527118E+03  0.16500000000E+03 0.  0.
   -5000001    1    1    2    0    0 -0.40033104852E+02 -0.82734396102E+02 -0.36272958093E+02  0.19232357440E+03  0.16500000000E+03 0.  0.
<mgrwt>
<rscale>  0 0.40304442E+03</rscale>
<asrwt>0</asrwt>
<pdfrwt beam="1">  1        2 0.50142307E-01 0.40304442E+03</pdfrwt>
<pdfrwt beam="2">  1       -2 0.16528956E-01 0.40304442E+03</pdfrwt>
<totfact> 0.29270951E+03</totfact>
</mgrwt>
</event>
<event>
 4    1  0.1837449E-005  0.4945875E+03  0.7818608E-02  0.1015201E+00
          2   -1    0    0  501    0  0.00000000000E+00  0.00000000000E+00  0.40054007985E+03  0.40054007985E+03  0.25500000000E-02 0.  1.
         -2   -1    0    0    0  501 -0.00000000000E+00 -0.00000000000E+00 -0.15267932533E+03  0.15267932535E+03  0.25500000000E-02 0. -1.
    5000001    1    1    2    0    0  0.18306262595E+03 -0.88876636664E+01  0.14450293759E+03  0.28582689614E+03  0.16500000000E+03 0.  0.
   -5000001    1    1    2    0    0 -0.18306262595E+03  0.88876636664E+01  0.10335781692E+03  0.26739250906E+03  0.16500000000E+03 0.  0.
<mgrwt>
<rscale>  0 0.49458746E+03</rscale>
<asrwt>0</asrwt>
<pdfrwt beam="1">  1        2 0.57220012E-01 0.49458746E+03</pdfrwt>
<pdfrwt beam="2">  1       -2 0.21811332E-01 0.49458746E+03</pdfrwt>
<totfact> 0.15752303E+03</totfact>
</mgrwt>
</event>
<event>
 4    1  0.1837449E-005  0.4879326E+03  0.7818608E-02  0.1016978E+00
          2   -1    0    0  501    0  0.00000000000E+00  0.00000000000E+00  0.21386872371E+03  0.21386872372E+03  0.25500000000E-02 0.  1.
         -2   -1    0    0    0  501 -0.00000000000E+00 -0.00000000000E+00 -0.27829948865E+03  0.27829948866E+03  0.25500000000E-02 0. -1.
    5000001    1    1    2    0    0 -0.17347661718E+03  0.31620506811E+02 -0.67165307819E+02  0.25065947365E+03  0.16500000000E+03 0.  0.
   -5000001    1    1    2    0    0  0.17347661718E+03 -0.31620506811E+02  0.27345428726E+01  0.24150873873E+03  0.16500000000E+03 0.  0.
<mgrwt>
<rscale>  0 0.48793260E+03</rscale>
<asrwt>0</asrwt>
<pdfrwt beam="1">  1        2 0.30552675E-01 0.48793260E+03</pdfrwt>
<pdfrwt beam="2">  1       -2 0.39757070E-01 0.48793260E+03</pdfrwt>
<totfact> 0.10442738E+03</totfact>
</mgrwt>
</event>
<event>
 4    1  0.1837449E-005  0.4530103E+03  0.7818608E-02  0.1026828E+00
          2   -1    0    0  501    0  0.00000000000E+00  0.00000000000E+00  0.20808192244E+04  0.20808192244E+04  0.25500000000E-02 0.  1.
         -2   -1    0    0    0  501 -0.00000000000E+00 -0.00000000000E+00 -0.24655951531E+02  0.24655951663E+02  0.25500000000E-02 0. -1.
    5000001    1    1    2    0    0  0.14489689323E+03  0.31722039464E+02  0.81620468508E+03  0.84582296340E+03  0.16500000000E+03 0.  0.
   -5000001    1    1    2    0    0 -0.14489689323E+03 -0.31722039464E+02  0.12399585878E+04  0.12596522126E+04  0.16500000000E+03 0.  0.
<mgrwt>
<rscale>  0 0.45301028E+03</rscale>
<asrwt>0</asrwt>
<pdfrwt beam="1">  1        2 0.29725996E+00 0.45301028E+03</pdfrwt>
<pdfrwt beam="2">  1       -2 0.35222779E-02 0.45301028E+03</pdfrwt>
<totfact> 0.26668555E+03</totfact>
</mgrwt>
</event>
<event>
 4    1  0.1837449E-005  0.3605124E+03  0.7818608E-02  0.1058381E+00
          2   -1    0    0  501    0  0.00000000000E+00  0.00000000000E+00  0.90969858067E+03  0.90969858067E+03  0.25500000000E-02 0.  1.
         -2   -1    0    0    0  501 -0.00000000000E+00 -0.00000000000E+00 -0.35717657122E+02  0.35717657213E+02  0.25500000000E-02 0. -1.
    5000001    1    1    2    0    0  0.10158829598E+02  0.69611167749E+02  0.39019761279E+03  0.42945092097E+03  0.16500000000E+03 0.  0.
   -5000001    1    1    2    0    0 -0.10158829598E+02 -0.69611167749E+02  0.48378331076E+03  0.51596531692E+03  0.16500000000E+03 0.  0.
<mgrwt>
<rscale>  0 0.36051242E+03</rscale>
<asrwt>0</asrwt>
<pdfrwt beam="1">  1        2 0.12995692E+00 0.36051242E+03</pdfrwt>
<pdfrwt beam="2">  1       -2 0.51025233E-02 0.36051242E+03</pdfrwt>
<totfact> 0.63103464E+03</totfact>
</mgrwt>
</event>
<event>
 4    1  0.1837449E-005  0.3909475E+03  0.7818608E-02  0.1046960E+00
          2   -1    0    0  501    0  0.00000000000E+00  0.00000000000E+00  0.15623063323E+03  0.15623063325E+03  0.25500000000E-02 0.  1.
         -2   -1    0    0    0  501 -0.00000000000E+00 -0.00000000000E+00 -0.24457426452E+03  0.24457426453E+03  0.25500000000E-02 0. -1.
    5000001    1    1    2    0    0  0.10276202255E+03  0.19900863491E+02 -0.49684625206E+02  0.20161755784E+03  0.16500000000E+03 0.  0.
   -5000001    1    1    2    0    0 -0.10276202255E+03 -0.19900863491E+02 -0.38659006076E+02  0.19918733995E+03  0.16500000000E+03 0.  0.
<mgrwt>
<rscale>  0 0.39094753E+03</rscale>
<asrwt>0</asrwt>
<pdfrwt beam="1">  1        2 0.22318662E-01 0.39094753E+03</pdfrwt>
<pdfrwt beam="2">  1       -2 0.34939181E-01 0.39094753E+03</pdfrwt>
<totfact> 0.19001918E+03</totfact>
</mgrwt>
</event>
<event>
 4    1  0.1837449E-005  0.5945644E+03  0.7818608E-02  0.9916748E-01
         -2   -1    0    0    0  501 -0.00000000000E+00  0.00000000000E+00  0.61143700803E+02  0.61143700857E+02  0.25500000000E-02 0. -1.
          2   -1    0    0  501    0  0.00000000000E+00 -0.00000000000E+00 -0.14453933357E+04  0.14453933357E+04  0.25500000000E-02 0.  1.
    5000001    1    1    2    0    0 -0.97200829188E+02  0.17244911297E+03 -0.10676564589E+04  0.10983178101E+04  0.16500000000E+03 0.  0.
   -5000001    1    1    2    0    0  0.97200829188E+02 -0.17244911297E+03 -0.31659317600E+03  0.40821922645E+03  0.16500000000E+03 0.  0.
<mgrwt>
<rscale>  0 0.59456437E+03</rscale>
<asrwt>0</asrwt>
<pdfrwt beam="1">  1        2 0.20648474E+00 0.59456437E+03</pdfrwt>
<pdfrwt beam="2">  1       -2 0.87348153E-02 0.59456437E+03</pdfrwt>
<totfact> 0.13538048E+03</totfact>
</mgrwt>
</event>
<event>
 4    1  0.1837449E-005  0.8703806E+03  0.7818608E-02  0.9463384E-01
          2   -1    0    0  501    0  0.00000000000E+00  0.00000000000E+00  0.30928402332E+04  0.30928402332E+04  0.25500000000E-02 0.  1.
         -2   -1    0    0    0  501 -0.00000000000E+00 -0.00000000000E+00 -0.61235168552E+02  0.61235168605E+02  0.25500000000E-02 0. -1.
    5000001    1    1    2    0    0 -0.91979917703E+02 -0.38754234207E+03  0.17306849839E+04  0.17835764311E+04  0.16500000000E+03 0.  0.
   -5000001    1    1    2    0    0  0.91979917703E+02  0.38754234207E+03  0.13009200808E+04  0.13704989707E+04  0.16500000000E+03 0.  0.
<mgrwt>
<rscale>  0 0.87038059E+03</rscale>
<asrwt>0</asrwt>
<pdfrwt beam="1">  1        2 0.44183440E+00 0.87038059E+03</pdfrwt>
<pdfrwt beam="2">  1       -2 0.87478796E-02 0.87038059E+03</pdfrwt>
<totfact> 0.18488394E+02</totfact>
</mgrwt>
</event>
<event>
 4    1  0.1837449E-005  0.4628223E+03  0.7818608E-02  0.1023966E+00
         -2   -1    0    0    0  501 -0.00000000000E+00  0.00000000000E+00  0.83162422850E+02  0.83162422889E+02  0.25500000000E-02 0. -1.
          2   -1    0    0  501    0  0.00000000000E+00 -0.00000000000E+00 -0.64393404765E+03  0.64393404766E+03  0.25500000000E-02 0.  1.
    5000001    1    1    2    0    0 -0.13640763525E+03  0.26179727378E+02 -0.41214154803E+03  0.46516456947E+03  0.16500000000E+03 0.  0.
   -5000001    1    1    2    0    0  0.13640763525E+03 -0.26179727378E+02 -0.14863007678E+03  0.26193190108E+03  0.16500000000E+03 0.  0.
<mgrwt>
<rscale>  0 0.46282228E+03</rscale>
<asrwt>0</asrwt>
<pdfrwt beam="1">  1        2 0.91990576E-01 0.46282228E+03</pdfrwt>
<pdfrwt beam="2">  1       -2 0.11880346E-01 0.46282228E+03</pdfrwt>
<totfact> 0.25633033E+03</totfact>
</mgrwt>
</event>
<event>
 4    1  0.1837449E-005  0.4811659E+03  0.7818608E-02  0.1018815E+00
         -2   -1    0    0    0  501 -0.00000000000E+00  0.00000000000E+00  0.51333447853E+02  0.51333447916E+02  0.25500000000E-02 0. -1.
          2   -1    0    0  501    0  0.00000000000E+00 -0.00000000000E+00 -0.11275331532E+04  0.11275331532E+04  0.25500000000E-02 0.  1.
    5000001    1    1    2    0    0  0.75265415103E+02  0.94349857055E+02 -0.22733919590E+03  0.30573663213E+03  0.16500000000E+03 0.  0.
   -5000001    1    1    2    0    0 -0.75265415103E+02 -0.94349857055E+02 -0.84886050947E+03  0.87312996900E+03  0.16500000000E+03 0.  0.
<mgrwt>
<rscale>  0 0.48116594E+03</rscale>
<asrwt>0</asrwt>
<pdfrwt beam="1">  1        2 0.16107615E+00 0.48116594E+03</pdfrwt>
<pdfrwt beam="2">  1       -2 0.73333504E-02 0.48116594E+03</pdfrwt>
<totfact> 0.26701541E+03</totfact>
</mgrwt>
</event>
<event>
 4    1  0.1837449E-005  0.3751575E+03  0.7818608E-02  0.1052738E+00
         -2   -1    0    0    0  501 -0.00000000000E+00  0.00000000000E+00  0.50120626312E+02  0.50120626376E+02  0.25500000000E-02 0. -1.
          2   -1    0    0  501    0  0.00000000000E+00 -0.00000000000E+00 -0.70202196262E+03  0.70202196262E+03  0.25500000000E-02 0.  1.
    5000001    1    1    2    0    0 -0.18708905580E+02 -0.50556073876E+02 -0.18340949514E+03  0.25252719192E+03  0.16500000000E+03 0.  0.
   -5000001    1    1    2    0    0  0.18708905580E+02  0.50556073876E+02 -0.46849184117E+03  0.49961539708E+03  0.16500000000E+03 0.  0.
<mgrwt>
<rscale>  0 0.37515746E+03</rscale>
<asrwt>0</asrwt>
<pdfrwt beam="1">  1        2 0.10028885E+00 0.37515746E+03</pdfrwt>
<pdfrwt beam="2">  1       -2 0.71600899E-02 0.37515746E+03</pdfrwt>
<totfact> 0.51760523E+03</totfact>
</mgrwt>
</event>
<event>
 4    1  0.1837449E-005  0.4720533E+03  0.7818608E-02  0.1021342E+00
         -2   -1    0    0    0  501 -0.00000000000E+00  0.00000000000E+00  0.63037228184E+02  0.63037228235E+02  0.25500000000E-02 0. -1.
          2   -1    0    0  501    0  0.00000000000E+00 -0.00000000000E+00 -0.88374096709E+03  0.88374096710E+03  0.25500000000E-02 0.  1.
    5000001    1    1    2    0    0 -0.16818658964E+03 -0.10030156755E+02 -0.43002861029E+03  0.49044565310E+03  0.16500000000E+03 0.  0.
   -5000001    1    1    2    0    0  0.16818658964E+03  0.10030156755E+02 -0.39067512862E+03  0.45633254223E+03  0.16500000000E+03 0.  0.
<mgrwt>
<rscale>  0 0.47205331E+03</rscale>
<asrwt>0</asrwt>
<pdfrwt beam="1">  1        2 0.12624870E+00 0.47205331E+03</pdfrwt>
<pdfrwt beam="2">  1       -2 0.90053189E-02 0.47205331E+03</pdfrwt>
<totfact> 0.27058152E+03</totfact>
</mgrwt>
</event>
<event>
 4    1  0.1837449E-005  0.1081775E+04  0.7818608E-02  0.9223139E-01
         -2   -1    0    0    0  501 -0.00000000000E+00  0.00000000000E+00  0.88538316807E+02  0.88538316844E+02  0.25500000000E-02 0. -1.
          2   -1    0    0  501    0  0.00000000000E+00 -0.00000000000E+00 -0.33043268611E+04  0.33043268611E+04  0.25500000000E-02 0.  1.
    5000001    1    1    2    0    0 -0.35603371975E+03  0.36831188119E+03 -0.14383875752E+04  0.15357725965E+04  0.16500000000E+03 0.  0.
   -5000001    1    1    2    0    0  0.35603371975E+03 -0.36831188119E+03 -0.17774009691E+04  0.18570925815E+04  0.16500000000E+03 0.  0.
<mgrwt>
<rscale>  0 0.10817755E+04</rscale>
<asrwt>0</asrwt>
<pdfrwt beam="1">  1        2 0.47204662E+00 0.10817755E+04</pdfrwt>
<pdfrwt beam="2">  1       -2 0.12648333E-01 0.10817755E+04</pdfrwt>
<totfact> 0.74939082E+01</totfact>
</mgrwt>
</event>
<event>
 4    1  0.1837449E-005  0.1072939E+04  0.7818608E-02  0.9231976E-01
         -2   -1    0    0    0  501 -0.00000000000E+00  0.00000000000E+00  0.68000526097E+02  0.68000526144E+02  0.25500000000E-02 0. -1.
          2   -1    0    0  501    0  0.00000000000E+00 -0.00000000000E+00 -0.42323129528E+04  0.42323129528E+04  0.25500000000E-02 0.  1.
    5000001    1    1    2    0    0  0.40999473866E+03 -0.19831952232E+03 -0.30061505966E+04  0.30449290185E+04  0.16500000000E+03 0.  0.
   -5000001    1    1    2    0    0 -0.40999473866E+03  0.19831952232E+03 -0.11581618302E+04  0.12553844604E+04  0.16500000000E+03 0.  0.
<mgrwt>
<rscale>  0 0.10729390E+04</rscale>
<asrwt>0</asrwt>
<pdfrwt beam="1">  1        2 0.60461597E+00 0.10729390E+04</pdfrwt>
<pdfrwt beam="2">  1       -2 0.97143636E-02 0.10729390E+04</pdfrwt>
<totfact> 0.29335762E+01</totfact>
</mgrwt>
</event>
<event>
 4    1  0.1837449E-005  0.4740746E+03  0.7818608E-02  0.1020776E+00
         -2   -1    0    0    0  501 -0.00000000000E+00  0.00000000000E+00  0.30468740813E+03  0.30468740814E+03  0.25500000000E-02 0. -1.
          2   -1    0    0  501    0  0.00000000000E+00 -0.00000000000E+00 -0.18440763416E+03  0.18440763418E+03  0.25500000000E-02 0.  1.
    5000001    1    1    2    0    0  0.29341632650E+02 -0.14826310953E+03 -0.20561277366E+02  0.22470123983E+03  0.16500000000E+03 0.  0.
   -5000001    1    1    2    0    0 -0.29341632650E+02  0.14826310953E+03  0.14084105133E+03  0.26439380249E+03  0.16500000000E+03 0.  0.
<mgrwt>
<rscale>  0 0.47407461E+03</rscale>
<asrwt>0</asrwt>
<pdfrwt beam="1">  1        2 0.26343948E-01 0.47407461E+03</pdfrwt>
<pdfrwt beam="2">  1       -2 0.43526772E-01 0.47407461E+03</pdfrwt>
<totfact> 0.10337862E+03</totfact>
</mgrwt>
</event>
<event>
 4    1  0.1837449E-005  0.6214969E+03  0.7818608E-02  0.9861784E-01
         -2   -1    0    0    0  501 -0.00000000000E+00  0.00000000000E+00  0.29750741642E+02  0.29750741751E+02  0.25500000000E-02 0. -1.
          2   -1    0    0  501    0  0.00000000000E+00 -0.00000000000E+00 -0.32457875454E+04  0.32457875454E+04  0.25500000000E-02 0.  1.
    5000001    1    1    2    0    0 -0.42525621448E+02 -0.22452631601E+03 -0.91843928386E+03  0.96071651032E+03  0.16500000000E+03 0.  0.
   -5000001    1    1    2    0    0  0.42525621448E+02  0.22452631601E+03 -0.22975975199E+04  0.23148217768E+04  0.16500000000E+03 0.  0.
<mgrwt>
<rscale>  0 0.62149686E+03</rscale>
<asrwt>0</asrwt>
<pdfrwt beam="1">  1        2 0.46368371E+00 0.62149686E+03</pdfrwt>
<pdfrwt beam="2">  1       -2 0.42501080E-02 0.62149686E+03</pdfrwt>
<totfact> 0.48508096E+02</totfact>
</mgrwt>
</event>
<event>
 4    1  0.1837449E-005  0.6055261E+03  0.7818608E-02  0.9894007E-01
          2   -1    0    0  501    0  0.00000000000E+00  0.00000000000E+00  0.23834180376E+04  0.23834180376E+04  0.25500000000E-02 0.  1.
         -2   -1    0    0    0  501 -0.00000000000E+00 -0.00000000000E+00 -0.38459672575E+02  0.38459672659E+02  0.25500000000E-02 0. -1.
    5000001    1    1    2    0    0  0.18995616262E+03  0.11671658371E+03  0.16579746047E+04  0.16810148407E+04  0.16500000000E+03 0.  0.
   -5000001    1    1    2    0    0 -0.18995616262E+03 -0.11671658371E+03  0.68698376032E+03  0.74086286962E+03  0.16500000000E+03 0.  0.
<mgrwt>
<rscale>  0 0.60552614E+03</rscale>
<asrwt>0</asrwt>
<pdfrwt beam="1">  1        2 0.34048838E+00 0.60552614E+03</pdfrwt>
<pdfrwt beam="2">  1       -2 0.54942374E-02 0.60552614E+03</pdfrwt>
<totfact> 0.94040804E+02</totfact>
</mgrwt>
</event>
<event>
 4    1  0.1837449E-005  0.7175742E+03  0.7818608E-02  0.9687641E-01
          2   -1    0    0  501    0  0.00000000000E+00  0.00000000000E+00  0.14534012658E+04  0.14534012658E+04  0.25500000000E-02 0.  1.
         -2   -1    0    0    0  501 -0.00000000000E+00 -0.00000000000E+00 -0.88570296586E+02  0.88570296623E+02  0.25500000000E-02 0. -1.
    5000001    1    1    2    0    0  0.31145116060E+03 -0.62859904565E+02  0.73281034218E+03  0.81559131349E+03  0.16500000000E+03 0.  0.
   -5000001    1    1    2    0    0 -0.31145116060E+03  0.62859904565E+02  0.63202062702E+03  0.72638024891E+03  0.16500000000E+03 0.  0.
<mgrwt>
<rscale>  0 0.71757419E+03</rscale>
<asrwt>0</asrwt>
<pdfrwt beam="1">  1        2 0.20762873E+00 0.71757419E+03</pdfrwt>
<pdfrwt beam="2">  1       -2 0.12652901E-01 0.71757419E+03</pdfrwt>
<totfact> 0.72900635E+02</totfact>
</mgrwt>
</event>
<event>
 4    1  0.1837449E-005  0.6810350E+03  0.7818608E-02  0.9750226E-01
         -2   -1    0    0    0  501 -0.00000000000E+00  0.00000000000E+00  0.41885320023E+02  0.41885320101E+02  0.25500000000E-02 0. -1.
          2   -1    0    0  501    0  0.00000000000E+00 -0.00000000000E+00 -0.27683248276E+04  0.27683248276E+04  0.25500000000E-02 0.  1.
    5000001    1    1    2    0    0  0.13788890634E+02  0.29722310928E+03 -0.13055298658E+04  0.13491348860E+04  0.16500000000E+03 0.  0.
   -5000001    1    1    2    0    0 -0.13788890634E+02 -0.29722310928E+03 -0.14209096417E+04  0.14610752616E+04  0.16500000000E+03 0.  0.
<mgrwt>
<rscale>  0 0.68103501E+03</rscale>
<asrwt>0</asrwt>
<pdfrwt beam="1">  1        2 0.39547486E+00 0.68103501E+03</pdfrwt>
<pdfrwt beam="2">  1       -2 0.59836189E-02 0.68103501E+03</pdfrwt>
<totfact> 0.51677328E+02</totfact>
</mgrwt>
</event>
<event>
 4    1  0.1837449E-005  0.5364043E+03  0.7818608E-02  0.1004691E+00
         -2   -1    0    0    0  501 -0.00000000000E+00  0.00000000000E+00  0.66912194287E+02  0.66912194335E+02  0.25500000000E-02 0. -1.
          2   -1    0    0  501    0  0.00000000000E+00 -0.00000000000E+00 -0.10750264753E+04  0.10750264753E+04  0.25500000000E-02 0.  1.
    5000001    1    1    2    0    0 -0.14492824984E+03 -0.14486428587E+03 -0.61503518319E+03  0.66894180276E+03  0.16500000000E+03 0.  0.
   -5000001    1    1    2    0    0  0.14492824984E+03  0.14486428587E+03 -0.39307909780E+03  0.47299686685E+03  0.16500000000E+03 0.  0.
<mgrwt>
<rscale>  0 0.53640425E+03</rscale>
<asrwt>0</asrwt>
<pdfrwt beam="1">  1        2 0.15357520E+00 0.53640425E+03</pdfrwt>
<pdfrwt beam="2">  1       -2 0.95588856E-02 0.53640425E+03</pdfrwt>
<totfact> 0.18763632E+03</totfact>
</mgrwt>
</event>
<event>
 4    1  0.1837449E-005  0.4091675E+03  0.7818608E-02  0.1040651E+00
         -2   -1    0    0    0  501 -0.00000000000E+00  0.00000000000E+00  0.75106196898E+02  0.75106196941E+02  0.25500000000E-02 0. -1.
          2   -1    0    0  501    0  0.00000000000E+00 -0.00000000000E+00 -0.55727113390E+03  0.55727113391E+03  0.25500000000E-02 0.  1.
    5000001    1    1    2    0    0  0.77278017160E+02  0.66274362962E+02 -0.34201974418E+03  0.39314970244E+03  0.16500000000E+03 0.  0.
   -5000001    1    1    2    0    0 -0.77278017160E+02 -0.66274362962E+02 -0.14014519283E+03  0.23922762841E+03  0.16500000000E+03 0.  0.
<mgrwt>
<rscale>  0 0.40916752E+03</rscale>
<asrwt>0</asrwt>
<pdfrwt beam="1">  1        2 0.79610160E-01 0.40916752E+03</pdfrwt>
<pdfrwt beam="2">  1       -2 0.10729457E-01 0.40916752E+03</pdfrwt>
<totfact> 0.35735582E+03</totfact>
</mgrwt>
</event>
<event>
 4    1  0.1837449E-005  0.5825661E+03  0.7818608E-02  0.9942251E-01
          2   -1    0    0  501    0  0.00000000000E+00  0.00000000000E+00  0.13099215071E+04  0.13099215071E+04  0.25500000000E-02 0.  1.
         -2   -1    0    0    0  501 -0.00000000000E+00 -0.00000000000E+00 -0.64771670877E+02  0.64771670928E+02  0.25500000000E-02 0. -1.
    5000001    1    1    2    0    0  0.14112311498E+03  0.41271339816E+02  0.10703113017E+04  0.10928908178E+04  0.16500000000E+03 0.  0.
   -5000001    1    1    2    0    0 -0.14112311498E+03 -0.41271339816E+02  0.17483853448E+03  0.28180236020E+03  0.16500000000E+03 0.  0.
<mgrwt>
<rscale>  0 0.58256606E+03</rscale>
<asrwt>0</asrwt>
<pdfrwt beam="1">  1        2 0.18713164E+00 0.58256606E+03</pdfrwt>
<pdfrwt beam="2">  1       -2 0.92530962E-02 0.58256606E+03</pdfrwt>
<totfact> 0.14580269E+03</totfact>
</mgrwt>
</event>
<event>
 4    1  0.1837449E-005  0.4129492E+03  0.7818608E-02  0.1039386E+00
          2   -1    0    0  501    0  0.00000000000E+00  0.00000000000E+00  0.27234293972E+03  0.27234293973E+03  0.25500000000E-02 0.  1.
         -2   -1    0    0    0  501 -0.00000000000E+00 -0.00000000000E+00 -0.15653703324E+03  0.15653703327E+03  0.25500000000E-02 0. -1.
    5000001    1    1    2    0    0 -0.11292231166E+03 -0.43156609625E+00  0.43872387388E+01  0.19998970619E+03  0.16500000000E+03 0.  0.
   -5000001    1    1    2    0    0  0.11292231166E+03  0.43156609625E+00  0.11141866774E+03  0.22889026681E+03  0.16500000000E+03 0.  0.
<mgrwt>
<rscale>  0 0.41294918E+03</rscale>
<asrwt>0</asrwt>
<pdfrwt beam="1">  1        2 0.38906134E-01 0.41294918E+03</pdfrwt>
<pdfrwt beam="2">  1       -2 0.22362434E-01 0.41294918E+03</pdfrwt>
<totfact> 0.22975361E+03</totfact>
</mgrwt>
</event>
<event>
 4    1  0.1837449E-005  0.6322135E+03  0.7818608E-02  0.9840739E-01
         -2   -1    0    0    0  501 -0.00000000000E+00  0.00000000000E+00  0.20752594404E+03  0.20752594406E+03  0.25500000000E-02 0. -1.
          2   -1    0    0  501    0  0.00000000000E+00 -0.00000000000E+00 -0.48149875998E+03  0.48149875998E+03  0.25500000000E-02 0.  1.
    5000001    1    1    2    0    0 -0.26184389381E+03 -0.11044273081E+02 -0.67934598913E+02  0.31705568978E+03  0.16500000000E+03 0.  0.
   -5000001    1    1    2    0    0  0.26184389381E+03  0.11044273081E+02 -0.20603821702E+03  0.37196901426E+03  0.16500000000E+03 0.  0.
<mgrwt>
<rscale>  0 0.63221352E+03</rscale>
<asrwt>0</asrwt>
<pdfrwt beam="1">  1        2 0.68785536E-01 0.63221352E+03</pdfrwt>
<pdfrwt beam="2">  1       -2 0.29646564E-01 0.63221352E+03</pdfrwt>
<totfact> 0.73774904E+02</totfact>
</mgrwt>
</event>
<event>
 4    1  0.1837449E-005  0.7384901E+03  0.7818608E-02  0.9653583E-01
         -2   -1    0    0    0  501 -0.00000000000E+00  0.00000000000E+00  0.10998924285E+03  0.10998924288E+03  0.25500000000E-02 0. -1.
          2   -1    0    0  501    0  0.00000000000E+00 -0.00000000000E+00 -0.12395930880E+04  0.12395930880E+04  0.25500000000E-02 0.  1.
    5000001    1    1    2    0    0 -0.25048426896E+02  0.26747023390E+03 -0.91608478841E+03  0.96881581803E+03  0.16500000000E+03 0.  0.
   -5000001    1    1    2    0    0  0.25048426896E+02 -0.26747023390E+03 -0.21351905671E+03  0.38076651282E+03  0.16500000000E+03 0.  0.
<mgrwt>
<rscale>  0 0.73849010E+03</rscale>
<asrwt>0</asrwt>
<pdfrwt beam="1">  1        2 0.17708472E+00 0.73849010E+03</pdfrwt>
<pdfrwt beam="2">  1       -2 0.15712750E-01 0.73849010E+03</pdfrwt>
<totfact> 0.66105158E+02</totfact>
</mgrwt>
</event>
<event>
 4    1  0.1837449E-005  0.6893739E+03  0.7818608E-02  0.9735579E-01
          2   -1    0    0  501    0  0.00000000000E+00  0.00000000000E+00  0.13524827422E+04  0.13524827422E+04  0.25500000000E-02 0.  1.
         -2   -1    0    0    0  501 -0.00000000000E+00 -0.00000000000E+00 -0.87845191341E+02  0.87845191378E+02  0.25500000000E-02 0. -1.
    5000001    1    1    2    0    0  0.25120415336E+03 -0.16545141784E+03  0.70181544257E+03  0.78118346997E+03  0.16500000000E+03 0.  0.
   -5000001    1    1    2    0    0 -0.25120415336E+03  0.16545141784E+03  0.56282210832E+03  0.65914446364E+03  0.16500000000E+03 0.  0.
<mgrwt>
<rscale>  0 0.68937393E+03</rscale>
<asrwt>0</asrwt>
<pdfrwt beam="1">  1        2 0.19321181E+00 0.68937393E+03</pdfrwt>
<pdfrwt beam="2">  1       -2 0.12549314E-01 0.68937393E+03</pdfrwt>
<totfact> 0.83762870E+02</totfact>
</mgrwt>
</event>
<event>
 4    1  0.1837449E-005  0.5460346E+03  0.7818608E-02  0.1002416E+00
          2   -1    0    0  501    0  0.00000000000E+00  0.00000000000E+00  0.22284799437E+04  0.22284799437E+04  0.25500000000E-02 0.  1.
         -2   -1    0    0    0  501 -0.00000000000E+00 -0.00000000000E+00 -0.33448113195E+02  0.33448113292E+02  0.25500000000E-02 0. -1.
    5000001    1    1    2    0    0 -0.18280165586E+03  0.10118739487E+03  0.84697001137E+03  0.88782798696E+03  0.16500000000E+03 0.  0.
   -5000001    1    1    2    0    0  0.18280165586E+03 -0.10118739487E+03  0.13480618192E+04  0.13741000701E+04  0.16500000000E+03 0.  0.
<mgrwt>
<rscale>  0 0.54603461E+03</rscale>
<asrwt>0</asrwt>
<pdfrwt beam="1">  1        2 0.31835425E+00 0.54603461E+03</pdfrwt>
<pdfrwt beam="2">  1       -2 0.47783023E-02 0.54603461E+03</pdfrwt>
<totfact> 0.14041613E+03</totfact>
</mgrwt>
</event>
<event>
 4    1  0.1837449E-005  0.8413753E+03  0.7818608E-02  0.9501986E-01
          2   -1    0    0  501    0  0.00000000000E+00  0.00000000000E+00  0.23385894815E+03  0.23385894817E+03  0.25500000000E-02 0.  1.
         -2   -1    0    0    0  501 -0.00000000000E+00 -0.00000000000E+00 -0.75677288671E+03  0.75677288672E+03  0.25500000000E-02 0. -1.
    5000001    1    1    2    0    0 -0.17148749723E+03  0.30826815067E+03 -0.44879207317E+03  0.59420243972E+03  0.16500000000E+03 0.  0.
   -5000001    1    1    2    0    0  0.17148749723E+03 -0.30826815067E+03 -0.74121865392E+02  0.39642939517E+03  0.16500000000E+03 0.  0.
<mgrwt>
<rscale>  0 0.84137533E+03</rscale>
<asrwt>0</asrwt>
<pdfrwt beam="1">  1        2 0.33408422E-01 0.84137533E+03</pdfrwt>
<pdfrwt beam="2">  1       -2 0.10811041E+00 0.84137533E+03</pdfrwt>
<totfact> 0.10860720E+02</totfact>
</mgrwt>
</event>
<event>
 4    1  0.1837449E-005  0.6596537E+03  0.7818608E-02  0.9788831E-01
          2   -1    0    0  501    0  0.00000000000E+00  0.00000000000E+00  0.26603529033E+03  0.26603529034E+03  0.25500000000E-02 0.  1.
         -2   -1    0    0    0  501 -0.00000000000E+00 -0.00000000000E+00 -0.40891475770E+03  0.40891475771E+03  0.25500000000E-02 0. -1.
    5000001    1    1    2    0    0  0.20487649970E+03 -0.47936342809E+02 -0.26901973234E+03  0.37930052660E+03  0.16500000000E+03 0.  0.
   -5000001    1    1    2    0    0 -0.20487649970E+03  0.47936342809E+02  0.12614026496E+03  0.29564952145E+03  0.16500000000E+03 0.  0.
<mgrwt>
<rscale>  0 0.65965372E+03</rscale>
<asrwt>0</asrwt>
<pdfrwt beam="1">  1        2 0.38005042E-01 0.65965372E+03</pdfrwt>
<pdfrwt beam="2">  1       -2 0.58416394E-01 0.65965372E+03</pdfrwt>
<totfact> 0.37707659E+02</totfact>
</mgrwt>
</event>
<event>
 4    1  0.1837449E-005  0.1414567E+04  0.7818608E-02  0.8943341E-01
          2   -1    0    0  501    0  0.00000000000E+00  0.00000000000E+00  0.13868031241E+04  0.13868031241E+04  0.25500000000E-02 0.  1.
         -2   -1    0    0    0  501 -0.00000000000E+00 -0.00000000000E+00 -0.36072155156E+03  0.36072155157E+03  0.25500000000E-02 0. -1.
    5000001    1    1    2    0    0  0.30779900186E+03 -0.61415769421E+03  0.55391809467E+03  0.89776397483E+03  0.16500000000E+03 0.  0.
   -5000001    1    1    2    0    0 -0.30779900186E+03  0.61415769421E+03  0.47216347792E+03  0.84976070089E+03  0.16500000000E+03 0.  0.
<mgrwt>
<rscale>  0 0.14145668E+04</rscale>
<asrwt>0</asrwt>
<pdfrwt beam="1">  1        2 0.19811473E+00 0.14145668E+04</pdfrwt>
<pdfrwt beam="2">  1       -2 0.51531650E-01 0.14145668E+04</pdfrwt>
<totfact> 0.58232644E+01</totfact>
</mgrwt>
</event>
<event>
 4    1  0.1837449E-005  0.1001516E+04  0.7818608E-02  0.9306884E-01
          2   -1    0    0  501    0  0.00000000000E+00  0.00000000000E+00  0.11116691499E+04  0.11116691499E+04  0.25500000000E-02 0.  1.
         -2   -1    0    0    0  501 -0.00000000000E+00 -0.00000000000E+00 -0.22556936359E+03  0.22556936361E+03  0.25500000000E-02 0. -1.
    5000001    1    1    2    0    0 -0.15400680586E+03 -0.29552514577E+03  0.89085523416E+03  0.96535032825E+03  0.16500000000E+03 0.  0.
   -5000001    1    1    2    0    0  0.15400680586E+03  0.29552514577E+03 -0.47554478769E+01  0.37188818523E+03  0.16500000000E+03 0.  0.
<mgrwt>
<rscale>  0 0.10015159E+04</rscale>
<asrwt>0</asrwt>
<pdfrwt beam="1">  1        2 0.15880988E+00 0.10015159E+04</pdfrwt>
<pdfrwt beam="2">  1       -2 0.32224195E-01 0.10015159E+04</pdfrwt>
<totfact> 0.21465764E+02</totfact>
</mgrwt>
</event>
<event>
 4    1  0.1837449E-005  0.6694252E+03  0.7818608E-02  0.9770997E-01
         -2   -1    0    0    0  501 -0.00000000000E+00  0.00000000000E+00  0.11780814581E+03  0.11780814584E+03  0.25500000000E-02 0. -1.
          2   -1    0    0  501    0  0.00000000000E+00 -0.00000000000E+00 -0.95097423455E+03  0.95097423456E+03  0.25500000000E-02 0.  1.
    5000001    1    1    2    0    0 -0.28885511065E+03 -0.19052509431E+02 -0.46725333063E+03  0.57389105939E+03  0.16500000000E+03 0.  0.
   -5000001    1    1    2    0    0  0.28885511065E+03  0.19052509431E+02 -0.36591275811E+03  0.49489132101E+03  0.16500000000E+03 0.  0.
<mgrwt>
<rscale>  0 0.66942516E+03</rscale>
<asrwt>0</asrwt>
<pdfrwt beam="1">  1        2 0.13585346E+00 0.66942516E+03</pdfrwt>
<pdfrwt beam="2">  1       -2 0.16829736E-01 0.66942516E+03</pdfrwt>
<totfact> 0.87154721E+02</totfact>
</mgrwt>
</event>
<event>
 4    1  0.1837449E-005  0.5231353E+03  0.7818608E-02  0.1007911E+00
          2   -1    0    0  501    0  0.00000000000E+00  0.00000000000E+00  0.38492937322E+03  0.38492937323E+03  0.25500000000E-02 0.  1.
         -2   -1    0    0    0  501 -0.00000000000E+00 -0.00000000000E+00 -0.17774074772E+03  0.17774074774E+03  0.25500000000E-02 0. -1.
    5000001    1    1    2    0    0 -0.93899377911E+02  0.12366608876E+03 -0.36982029612E+02  0.22957148167E+03  0.16500000000E+03 0.  0.
   -5000001    1    1    2    0    0  0.93899377911E+02 -0.12366608876E+03  0.24417065511E+03  0.33309863929E+03  0.16500000000E+03 0.  0.
<mgrwt>
<rscale>  0 0.52313530E+03</rscale>
<asrwt>0</asrwt>
<pdfrwt beam="1">  1        2 0.54989910E-01 0.52313530E+03</pdfrwt>
<pdfrwt beam="2">  1       -2 0.25391536E-01 0.52313530E+03</pdfrwt>
<totfact> 0.12571266E+03</totfact>
</mgrwt>
</event>
<event>
 4    1  0.1837449E-005  0.5686429E+03  0.7818608E-02  0.9972686E-01
         -2   -1    0    0    0  501 -0.00000000000E+00  0.00000000000E+00  0.13032675437E+03  0.13032675440E+03  0.25500000000E-02 0. -1.
          2   -1    0    0  501    0  0.00000000000E+00 -0.00000000000E+00 -0.62027708632E+03  0.62027708633E+03  0.25500000000E-02 0.  1.
    5000001    1    1    2    0    0 -0.12641750721E+03 -0.18454309489E+03 -0.32391197510E+03  0.42682725735E+03  0.16500000000E+03 0.  0.
   -5000001    1    1    2    0    0  0.12641750721E+03  0.18454309489E+03 -0.16603835685E+03  0.32377658338E+03  0.16500000000E+03 0.  0.
<mgrwt>
<rscale>  0 0.56864294E+03</rscale>
<asrwt>0</asrwt>
<pdfrwt beam="1">  1        2 0.88611010E-01 0.56864294E+03</pdfrwt>
<pdfrwt beam="2">  1       -2 0.18618108E-01 0.56864294E+03</pdfrwt>
<totfact> 0.12618413E+03</totfact>
</mgrwt>
</event>
<event>
 4    1  0.1837449E-005  0.4602889E+03  0.7818608E-02  0.1024697E+00
         -2   -1    0    0    0  501 -0.00000000000E+00  0.00000000000E+00  0.12472755362E+03  0.12472755365E+03  0.25500000000E-02 0. -1.
          2   -1    0    0  501    0  0.00000000000E+00 -0.00000000000E+00 -0.42465730544E+03  0.42465730545E+03  0.25500000000E-02 0.  1.
    5000001    1    1    2    0    0 -0.24182142438E+01  0.15997259277E+03 -0.13562277699E+03  0.26686254109E+03  0.16500000000E+03 0.  0.
   -5000001    1    1    2    0    0  0.24182142438E+01 -0.15997259277E+03 -0.16430697483E+03  0.28252231802E+03  0.16500000000E+03 0.  0.
<mgrwt>
<rscale>  0 0.46028890E+03</rscale>
<asrwt>0</asrwt>
<pdfrwt beam="1">  1        2 0.60665329E-01 0.46028890E+03</pdfrwt>
<pdfrwt beam="2">  1       -2 0.17818222E-01 0.46028890E+03</pdfrwt>
<totfact> 0.20939607E+03</totfact>
</mgrwt>
</event>
<event>
 4    1  0.1837449E-005  0.4911999E+03  0.7818608E-02  0.1016102E+00
         -2   -1    0    0    0  501 -0.00000000000E+00  0.00000000000E+00  0.19181134206E+03  0.19181134208E+03  0.25500000000E-02 0. -1.
          2   -1    0    0  501    0  0.00000000000E+00 -0.00000000000E+00 -0.31447220849E+03  0.31447220850E+03  0.25500000000E-02 0.  1.
    5000001    1    1    2    0    0 -0.77101284419E+02  0.39359919102E+02  0.10358449898E+03  0.21318667810E+03  0.16500000000E+03 0.  0.
   -5000001    1    1    2    0    0  0.77101284419E+02 -0.39359919102E+02 -0.22624536541E+03  0.29309687248E+03  0.16500000000E+03 0.  0.
<mgrwt>
<rscale>  0 0.49119990E+03</rscale>
<asrwt>0</asrwt>
<pdfrwt beam="1">  1        2 0.44924601E-01 0.49119990E+03</pdfrwt>
<pdfrwt beam="2">  1       -2 0.27401620E-01 0.49119990E+03</pdfrwt>
<totfact> 0.13684796E+03</totfact>
</mgrwt>
</event>
<event>
 4    1  0.1837449E-005  0.7311046E+03  0.7818608E-02  0.9665470E-01
         -2   -1    0    0    0  501 -0.00000000000E+00  0.00000000000E+00  0.20556517538E+03  0.20556517539E+03  0.25500000000E-02 0. -1.
          2   -1    0    0  501    0  0.00000000000E+00 -0.00000000000E+00 -0.65005417851E+03  0.65005417851E+03  0.25500000000E-02 0.  1.
    5000001    1    1    2    0    0  0.29071329072E+03  0.55069391930E+02 -0.38295094062E+03  0.51129568573E+03  0.16500000000E+03 0.  0.
   -5000001    1    1    2    0    0 -0.29071329072E+03 -0.55069391930E+02 -0.61538062514E+02  0.34432366817E+03  0.16500000000E+03 0.  0.
<mgrwt>
<rscale>  0 0.73110465E+03</rscale>
<asrwt>0</asrwt>
<pdfrwt beam="1">  1        2 0.92864882E-01 0.73110465E+03</pdfrwt>
<pdfrwt beam="2">  1       -2 0.29366454E-01 0.73110465E+03</pdfrwt>
<totfact> 0.52781372E+02</totfact>
</mgrwt>
</event>
<event>
 4    1  0.1837449E-005  0.6405542E+03  0.7818608E-02  0.9824667E-01
         -2   -1    0    0    0  501 -0.00000000000E+00  0.00000000000E+00  0.41490823718E+03  0.41490823719E+03  0.25500000000E-02 0. -1.
          2   -1    0    0  501    0  0.00000000000E+00 -0.00000000000E+00 -0.24722916171E+03  0.24722916173E+03  0.25500000000E-02 0.  1.
    5000001    1    1    2    0    0 -0.24007956630E+03  0.10817986473E+03  0.16398476956E+03  0.35136460541E+03  0.16500000000E+03 0.  0.
   -5000001    1    1    2    0    0  0.24007956630E+03 -0.10817986473E+03  0.36943059095E+01  0.31077279351E+03  0.16500000000E+03 0.  0.
<mgrwt>
<rscale>  0 0.64055418E+03</rscale>
<asrwt>0</asrwt>
<pdfrwt beam="1">  1        2 0.35318452E-01 0.64055418E+03</pdfrwt>
<pdfrwt beam="2">  1       -2 0.59272605E-01 0.64055418E+03</pdfrwt>
<totfact> 0.39700579E+02</totfact>
</mgrwt>
</event>
<event>
 4    1  0.1837449E-005  0.4354240E+03  0.7818608E-02  0.1032160E+00
         -2   -1    0    0    0  501 -0.00000000000E+00  0.00000000000E+00  0.28321567617E+02  0.28321567732E+02  0.25500000000E-02 0. -1.
          2   -1    0    0  501    0  0.00000000000E+00 -0.00000000000E+00 -0.16735833917E+04  0.16735833917E+04  0.25500000000E-02 0.  1.
    5000001    1    1    2    0    0  0.75637172002E+02  0.11125899847E+03 -0.10006321584E+04  0.10230294536E+04  0.16500000000E+03 0.  0.
   -5000001    1    1    2    0    0 -0.75637172002E+02 -0.11125899847E+03 -0.64462966564E+03  0.67887550578E+03  0.16500000000E+03 0.  0.
<mgrwt>
<rscale>  0 0.43542396E+03</rscale>
<asrwt>0</asrwt>
<pdfrwt beam="1">  1        2 0.23908328E+00 0.43542396E+03</pdfrwt>
<pdfrwt beam="2">  1       -2 0.40459393E-02 0.43542396E+03</pdfrwt>
<totfact> 0.34489054E+03</totfact>
</mgrwt>
</event>
<event>
 4    1  0.1837449E-005  0.3580041E+03  0.7818608E-02  0.1059377E+00
          2   -1    0    0  501    0  0.00000000000E+00  0.00000000000E+00  0.11357121015E+03  0.11357121018E+03  0.25500000000E-02 0.  1.
         -2   -1    0    0    0  501 -0.00000000000E+00 -0.00000000000E+00 -0.28212905076E+03  0.28212905078E+03  0.25500000000E-02 0. -1.
    5000001    1    1    2    0    0  0.36180214647E+02 -0.26023239698E+02 -0.25474295328E+02  0.17280091626E+03  0.16500000000E+03 0.  0.
   -5000001    1    1    2    0    0 -0.36180214647E+02  0.26023239698E+02 -0.14308354529E+03  0.22289934470E+03  0.16500000000E+03 0.  0.
<mgrwt>
<rscale>  0 0.35800412E+03</rscale>
<asrwt>0</asrwt>
<pdfrwt beam="1">  1        2 0.16224459E-01 0.35800412E+03</pdfrwt>
<pdfrwt beam="2">  1       -2 0.40304150E-01 0.35800412E+03</pdfrwt>
<totfact> 0.20958196E+03</totfact>
</mgrwt>
</event>
<event>
 4    1  0.1837449E-005  0.6859821E+03  0.7818608E-02  0.9741510E-01
          2   -1    0    0  501    0  0.00000000000E+00  0.00000000000E+00  0.80211954970E+03  0.80211954971E+03  0.25500000000E-02 0.  1.
         -2   -1    0    0    0  501 -0.00000000000E+00 -0.00000000000E+00 -0.14666499948E+03  0.14666499950E+03  0.25500000000E-02 0. -1.
    5000001    1    1    2    0    0  0.18402256309E+03 -0.18361846125E+03  0.11871001976E+03  0.32999562396E+03  0.16500000000E+03 0.  0.
   -5000001    1    1    2    0    0 -0.18402256309E+03  0.18361846125E+03  0.53674453046E+03  0.61878892526E+03  0.16500000000E+03 0.  0.
<mgrwt>
<rscale>  0 0.68598211E+03</rscale>
<asrwt>0</asrwt>
<pdfrwt beam="1">  1        2 0.11458851E+00 0.68598211E+03</pdfrwt>
<pdfrwt beam="2">  1       -2 0.20952143E-01 0.68598211E+03</pdfrwt>
<totfact> 0.74725447E+02</totfact>
</mgrwt>
</event>
<event>
 4    1  0.1837449E-005  0.5248421E+03  0.7818608E-02  0.1007491E+00
         -2   -1    0    0    0  501 -0.00000000000E+00  0.00000000000E+00  0.32435829511E+02  0.32435829611E+02  0.25500000000E-02 0. -1.
          2   -1    0    0  501    0  0.00000000000E+00 -0.00000000000E+00 -0.21231091178E+04  0.21231091178E+04  0.25500000000E-02 0.  1.
    5000001    1    1    2    0    0 -0.17648699658E+03 -0.67930011038E+02 -0.73046712361E+03  0.77237902939E+03  0.16500000000E+03 0.  0.
   -5000001    1    1    2    0    0  0.17648699658E+03  0.67930011038E+02 -0.13602061647E+04  0.13831659181E+04  0.16500000000E+03 0.  0.
<mgrwt>
<rscale>  0 0.52484209E+03</rscale>
<asrwt>0</asrwt>
<pdfrwt beam="1">  1        2 0.30330121E+00 0.52484209E+03</pdfrwt>
<pdfrwt beam="2">  1       -2 0.46336913E-02 0.52484209E+03</pdfrwt>
<totfact> 0.16647638E+03</totfact>
</mgrwt>
</event>
<event>
 4    1  0.1837449E-005  0.4990727E+03  0.7818608E-02  0.1014021E+00
          2   -1    0    0  501    0  0.00000000000E+00  0.00000000000E+00  0.13508820351E+04  0.13508820351E+04  0.25500000000E-02 0.  1.
         -2   -1    0    0    0  501 -0.00000000000E+00 -0.00000000000E+00 -0.46094618343E+02  0.46094618413E+02  0.25500000000E-02 0. -1.
    5000001    1    1    2    0    0  0.12058971985E+03 -0.14123196316E+03  0.58644762482E+03  0.63689415495E+03  0.16500000000E+03 0.  0.
   -5000001    1    1    2    0    0 -0.12058971985E+03  0.14123196316E+03  0.71833979194E+03  0.76008249857E+03  0.16500000000E+03 0.  0.
<mgrwt>
<rscale>  0 0.49907271E+03</rscale>
<asrwt>0</asrwt>
<pdfrwt beam="1">  1        2 0.19298315E+00 0.49907271E+03</pdfrwt>
<pdfrwt beam="2">  1       -2 0.65849454E-02 0.49907271E+03</pdfrwt>
<totfact> 0.23829463E+03</totfact>
</mgrwt>
</event>
<event>
 4    1  0.1837449E-005  0.3951889E+03  0.7818608E-02  0.1045458E+00
         -2   -1    0    0    0  501 -0.00000000000E+00  0.00000000000E+00  0.11302703267E+03  0.11302703270E+03  0.25500000000E-02 0. -1.
          2   -1    0    0  501    0  0.00000000000E+00 -0.00000000000E+00 -0.34543560173E+03  0.34543560174E+03  0.25500000000E-02 0.  1.
    5000001    1    1    2    0    0  0.10444853620E+03  0.20255230720E+02 -0.14211372848E+03  0.24236559762E+03  0.16500000000E+03 0.  0.
   -5000001    1    1    2    0    0 -0.10444853620E+03 -0.20255230720E+02 -0.90294840585E+02  0.21609703682E+03  0.16500000000E+03 0.  0.
<mgrwt>
<rscale>  0 0.39518887E+03</rscale>
<asrwt>0</asrwt>
<pdfrwt beam="1">  1        2 0.49347943E-01 0.39518887E+03</pdfrwt>
<pdfrwt beam="2">  1       -2 0.16146719E-01 0.39518887E+03</pdfrwt>
<totfact> 0.30970695E+03</totfact>
</mgrwt>
</event>
<event>
 4    1  0.1837449E-005  0.4485145E+03  0.7818608E-02  0.1028166E+00
          2   -1    0    0  501    0  0.00000000000E+00  0.00000000000E+00  0.20367484818E+03  0.20367484820E+03  0.25500000000E-02 0.  1.
         -2   -1    0    0    0  501 -0.00000000000E+00 -0.00000000000E+00 -0.24691965258E+03  0.24691965259E+03  0.25500000000E-02 0. -1.
    5000001    1    1    2    0    0  0.13097514141E+03  0.76876104077E+01 -0.98480356327E+02  0.23267352149E+03  0.16500000000E+03 0.  0.
   -5000001    1    1    2    0    0 -0.13097514141E+03 -0.76876104077E+01  0.55235551931E+02  0.21792097930E+03  0.16500000000E+03 0.  0.
<mgrwt>
<rscale>  0 0.44851454E+03</rscale>
<asrwt>0</asrwt>
<pdfrwt beam="1">  1        2 0.29096407E-01 0.44851454E+03</pdfrwt>
<pdfrwt beam="2">  1       -2 0.35274236E-01 0.44851454E+03</pdfrwt>
<totfact> 0.13851034E+03</totfact>
</mgrwt>
</event>
<event>
 4    1  0.1837449E-005  0.8691628E+03  0.7818608E-02  0.9464972E-01
          2   -1    0    0  501    0  0.00000000000E+00  0.00000000000E+00  0.23059585974E+04  0.23059585974E+04  0.25500000000E-02 0.  1.
         -2   -1    0    0    0  501 -0.00000000000E+00 -0.00000000000E+00 -0.81901297017E+02  0.81901297057E+02  0.25500000000E-02 0. -1.
    5000001    1    1    2    0    0  0.24886096994E+03 -0.46070293440E+02  0.19702355362E+04  0.19932654922E+04  0.16500000000E+03 0.  0.
   -5000001    1    1    2    0    0 -0.24886096994E+03  0.46070293440E+02  0.25382176410E+03  0.39459440218E+03  0.16500000000E+03 0.  0.
<mgrwt>
<rscale>  0 0.86916282E+03</rscale>
<asrwt>0</asrwt>
<pdfrwt beam="1">  1        2 0.32942269E+00 0.86916282E+03</pdfrwt>
<pdfrwt beam="2">  1       -2 0.11700184E-01 0.86916282E+03</pdfrwt>
<totfact> 0.30093836E+02</totfact>
</mgrwt>
</event>
<event>
 4    1  0.1837449E-005  0.4170863E+03  0.7818608E-02  0.1038019E+00
          2   -1    0    0  501    0  0.00000000000E+00  0.00000000000E+00  0.19554913413E+03  0.19554913415E+03  0.25500000000E-02 0.  1.
         -2   -1    0    0    0  501 -0.00000000000E+00 -0.00000000000E+00 -0.22240059557E+03  0.22240059558E+03  0.25500000000E-02 0. -1.
    5000001    1    1    2    0    0 -0.12363285182E+03 -0.31221248659E+02 -0.15753357298E+02  0.20912440480E+03  0.16500000000E+03 0.  0.
   -5000001    1    1    2    0    0  0.12363285182E+03  0.31221248659E+02 -0.11098104134E+02  0.20882532493E+03  0.16500000000E+03 0.  0.
<mgrwt>
<rscale>  0 0.41708629E+03</rscale>
<asrwt>0</asrwt>
<pdfrwt beam="1">  1        2 0.27935591E-01 0.41708629E+03</pdfrwt>
<pdfrwt beam="2">  1       -2 0.31771514E-01 0.41708629E+03</pdfrwt>
<totfact> 0.17613364E+03</totfact>
</mgrwt>
</event>
<event>
 4    1  0.1837449E-005  0.1368439E+04  0.7818608E-02  0.8976986E-01
          2   -1    0    0  501    0  0.00000000000E+00  0.00000000000E+00  0.87701184342E+03  0.87701184342E+03  0.25500000000E-02 0.  1.
         -2   -1    0    0    0  501 -0.00000000000E+00 -0.00000000000E+00 -0.53380856737E+03  0.53380856738E+03  0.25500000000E-02 0. -1.
    5000001    1    1    2    0    0 -0.34062058774E+03 -0.34123379315E+03  0.64232582240E+03  0.81992094040E+03  0.16500000000E+03 0.  0.
   -5000001    1    1    2    0    0  0.34062058774E+03  0.34123379315E+03 -0.29912254636E+03  0.59089947040E+03  0.16500000000E+03 0.  0.
<mgrwt>
<rscale>  0 0.13684392E+04</rscale>
<asrwt>0</asrwt>
<pdfrwt beam="1">  1        2 0.12528741E+00 0.13684392E+04</pdfrwt>
<pdfrwt beam="2">  1       -2 0.76258367E-01 0.13684392E+04</pdfrwt>
<totfact> 0.50632641E+01</totfact>
</mgrwt>
</event>
<event>
 4    1  0.1837449E-005  0.5478154E+03  0.7818608E-02  0.1002001E+00
          2   -1    0    0  501    0  0.00000000000E+00  0.00000000000E+00  0.32299295268E+03  0.32299295269E+03  0.25500000000E-02 0.  1.
         -2   -1    0    0    0  501 -0.00000000000E+00 -0.00000000000E+00 -0.23228193781E+03  0.23228193782E+03  0.25500000000E-02 0. -1.
    5000001    1    1    2    0    0 -0.18758784428E+03 -0.11201616504E+03  0.37271419558E+02  0.27631680960E+03  0.16500000000E+03 0.  0.
   -5000001    1    1    2    0    0  0.18758784428E+03  0.11201616504E+03  0.53439595318E+02  0.27895808090E+03  0.16500000000E+03 0.  0.
<mgrwt>
<rscale>  0 0.54781540E+03</rscale>
<asrwt>0</asrwt>
<pdfrwt beam="1">  1        2 0.46141850E-01 0.54781540E+03</pdfrwt>
<pdfrwt beam="2">  1       -2 0.33183134E-01 0.54781540E+03</pdfrwt>
<totfact> 0.93369921E+02</totfact>
</mgrwt>
</event>
<event>
 4    1  0.1837449E-005  0.3833339E+03  0.7818608E-02  0.1049708E+00
          2   -1    0    0  501    0  0.00000000000E+00  0.00000000000E+00  0.31084094513E+04  0.31084094513E+04  0.25500000000E-02 0.  1.
         -2   -1    0    0    0  501 -0.00000000000E+00 -0.00000000000E+00 -0.11818333114E+02  0.11818333389E+02  0.25500000000E-02 0. -1.
    5000001    1    1    2    0    0  0.81541006726E+02 -0.44345738035E+02  0.13046829834E+04  0.13183467554E+04  0.16500000000E+03 0.  0.
   -5000001    1    1    2    0    0 -0.81541006726E+02  0.44345738035E+02  0.17919081347E+04  0.18018810293E+04  0.16500000000E+03 0.  0.
<mgrwt>
<rscale>  0 0.38333390E+03</rscale>
<asrwt>0</asrwt>
<pdfrwt beam="1">  1        2 0.44405884E+00 0.38333390E+03</pdfrwt>
<pdfrwt beam="2">  1       -2 0.16883320E-02 0.38333390E+03</pdfrwt>
<totfact> 0.23844232E+03</totfact>
</mgrwt>
</event>
<event>
 4    1  0.1837449E-005  0.5966361E+03  0.7818608E-02  0.9912410E-01
          2   -1    0    0  501    0  0.00000000000E+00  0.00000000000E+00  0.11507825275E+04  0.11507825275E+04  0.25500000000E-02 0.  1.
         -2   -1    0    0    0  501 -0.00000000000E+00 -0.00000000000E+00 -0.77333174728E+02  0.77333174770E+02  0.25500000000E-02 0. -1.
    5000001    1    1    2    0    0  0.15521202379E+03 -0.18951984891E+03  0.62308235934E+03  0.68953982625E+03  0.16500000000E+03 0.  0.
   -5000001    1    1    2    0    0 -0.15521202379E+03  0.18951984891E+03  0.45036699340E+03  0.53857587599E+03  0.16500000000E+03 0.  0.
<mgrwt>
<rscale>  0 0.59663612E+03</rscale>
<asrwt>0</asrwt>
<pdfrwt beam="1">  1        2 0.16439751E+00 0.59663612E+03</pdfrwt>
<pdfrwt beam="2">  1       -2 0.11047596E-01 0.59663612E+03</pdfrwt>
<totfact> 0.13399657E+03</totfact>
</mgrwt>
</event>
<event>
 4    1  0.1837449E-005  0.5283058E+03  0.7818608E-02  0.1006644E+00
         -2   -1    0    0    0  501 -0.00000000000E+00  0.00000000000E+00  0.25872821864E+02  0.25872821989E+02  0.25500000000E-02 0. -1.
          2   -1    0    0  501    0  0.00000000000E+00 -0.00000000000E+00 -0.26969129502E+04  0.26969129502E+04  0.25500000000E-02 0.  1.
    5000001    1    1    2    0    0  0.18867598406E+03 -0.80576708840E+02 -0.14461188247E+04  0.14698897537E+04  0.16500000000E+03 0.  0.
   -5000001    1    1    2    0    0 -0.18867598406E+03  0.80576708840E+02 -0.12249213036E+04  0.12528960184E+04  0.16500000000E+03 0.  0.
<mgrwt>
<rscale>  0 0.52830578E+03</rscale>
<asrwt>0</asrwt>
<pdfrwt beam="1">  1        2 0.38527310E+00 0.52830578E+03</pdfrwt>
<pdfrwt beam="2">  1       -2 0.36961191E-02 0.52830578E+03</pdfrwt>
<totfact> 0.12025549E+03</totfact>
</mgrwt>
</event>
<event>
 4    1  0.1837449E-005  0.5391319E+03  0.7818608E-02  0.1004041E+00
          2   -1    0    0  501    0  0.00000000000E+00  0.00000000000E+00  0.12439838850E+04  0.12439838850E+04  0.25500000000E-02 0.  1.
         -2   -1    0    0    0  501 -0.00000000000E+00 -0.00000000000E+00 -0.58413787559E+02  0.58413787615E+02  0.25500000000E-02 0. -1.
    5000001    1    1    2    0    0 -0.46331625097E+02  0.18284353848E+03  0.83269074073E+03  0.86958452651E+03  0.16500000000E+03 0.  0.
   -5000001    1    1    2    0    0  0.46331625097E+02 -0.18284353848E+03  0.35287935669E+03  0.43281314609E+03  0.16500000000E+03 0.  0.
<mgrwt>
<rscale>  0 0.53913193E+03</rscale>
<asrwt>0</asrwt>
<pdfrwt beam="1">  1        2 0.17771198E+00 0.53913193E+03</pdfrwt>
<pdfrwt beam="2">  1       -2 0.83448267E-02 0.53913193E+03</pdfrwt>
<totfact> 0.18710747E+03</totfact>
</mgrwt>
</event>
<event>
 4    1  0.1837449E-005  0.4086708E+03  0.7818608E-02  0.1040818E+00
         -2   -1    0    0    0  501 -0.00000000000E+00  0.00000000000E+00  0.47308410590E+02  0.47308410659E+02  0.25500000000E-02 0. -1.
          2   -1    0    0  501    0  0.00000000000E+00 -0.00000000000E+00 -0.88256951503E+03  0.88256951504E+03  0.25500000000E-02 0.  1.
    5000001    1    1    2    0    0 -0.90373358700E+02 -0.78893851615E+02 -0.44420249148E+03  0.48880715750E+03  0.16500000000E+03 0.  0.
   -5000001    1    1    2    0    0  0.90373358700E+02  0.78893851615E+02 -0.39105861296E+03  0.44107076820E+03  0.16500000000E+03 0.  0.
<mgrwt>
<rscale>  0 0.40867083E+03</rscale>
<asrwt>0</asrwt>
<pdfrwt beam="1">  1        2 0.12608135E+00 0.40867083E+03</pdfrwt>
<pdfrwt beam="2">  1       -2 0.67583449E-02 0.40867083E+03</pdfrwt>
<totfact> 0.42602528E+03</totfact>
</mgrwt>
</event>
<event>
 4    1  0.1837449E-005  0.4152146E+03  0.7818608E-02  0.1038635E+00
          2   -1    0    0  501    0  0.00000000000E+00  0.00000000000E+00  0.30262993400E+03  0.30262993401E+03  0.25500000000E-02 0.  1.
         -2   -1    0    0    0  501 -0.00000000000E+00 -0.00000000000E+00 -0.14242075800E+03  0.14242075803E+03  0.25500000000E-02 0. -1.
    5000001    1    1    2    0    0 -0.59653565232E+02  0.66999418560E+02  0.17494010894E+03  0.25666420017E+03  0.16500000000E+03 0.  0.
   -5000001    1    1    2    0    0  0.59653565232E+02 -0.66999418560E+02 -0.14730932942E+02  0.18838649187E+03  0.16500000000E+03 0.  0.
<mgrwt>
<rscale>  0 0.41521457E+03</rscale>
<asrwt>0</asrwt>
<pdfrwt beam="1">  1        2 0.43232848E-01 0.41521457E+03</pdfrwt>
<pdfrwt beam="2">  1       -2 0.20345822E-01 0.41521457E+03</pdfrwt>
<totfact> 0.24141866E+03</totfact>
</mgrwt>
</event>
<event>
 4    1  0.1837449E-005  0.3989650E+03  0.7818608E-02  0.1044139E+00
         -2   -1    0    0    0  501 -0.00000000000E+00  0.00000000000E+00  0.29144338846E+03  0.29144338847E+03  0.25500000000E-02 0. -1.
          2   -1    0    0  501    0  0.00000000000E+00 -0.00000000000E+00 -0.13653857935E+03  0.13653857938E+03  0.25500000000E-02 0.  1.
    5000001    1    1    2    0    0 -0.52064349501E+02  0.98943001736E+02  0.68616063279E+02  0.21079273759E+03  0.16500000000E+03 0.  0.
   -5000001    1    1    2    0    0  0.52064349501E+02 -0.98943001736E+02  0.86288745823E+02  0.21718923025E+03  0.16500000000E+03 0.  0.
<mgrwt>
<rscale>  0 0.39896499E+03</rscale>
<asrwt>0</asrwt>
<pdfrwt beam="1">  1        2 0.19505511E-01 0.39896499E+03</pdfrwt>
<pdfrwt beam="2">  1       -2 0.41634770E-01 0.39896499E+03</pdfrwt>
<totfact> 0.15886218E+03</totfact>
</mgrwt>
</event>
<event>
 4    1  0.1837449E-005  0.4031933E+03  0.7818608E-02  0.1042680E+00
          2   -1    0    0  501    0  0.00000000000E+00  0.00000000000E+00  0.15636314454E+03  0.15636314456E+03  0.25500000000E-02 0.  1.
         -2   -1    0    0    0  501 -0.00000000000E+00 -0.00000000000E+00 -0.25991550850E+03  0.25991550851E+03  0.25500000000E-02 0. -1.
    5000001    1    1    2    0    0  0.41608668764E+02 -0.10700435716E+03 -0.67603153291E+02  0.21207640157E+03  0.16500000000E+03 0.  0.
   -5000001    1    1    2    0    0 -0.41608668764E+02  0.10700435716E+03 -0.35949210671E+02  0.20420225150E+03  0.16500000000E+03 0.  0.
<mgrwt>
<rscale>  0 0.40319328E+03</rscale>
<asrwt>0</asrwt>
<pdfrwt beam="1">  1        2 0.22337592E-01 0.40319328E+03</pdfrwt>
<pdfrwt beam="2">  1       -2 0.37130787E-01 0.40319328E+03</pdfrwt>
<totfact> 0.16930035E+03</totfact>
</mgrwt>
</event>
<event>
 4    1  0.1837449E-005  0.4582355E+03  0.7818608E-02  0.1025294E+00
          2   -1    0    0  501    0  0.00000000000E+00  0.00000000000E+00  0.79073715184E+03  0.79073715185E+03  0.25500000000E-02 0.  1.
         -2   -1    0    0    0  501 -0.00000000000E+00 -0.00000000000E+00 -0.66387363421E+02  0.66387363470E+02  0.25500000000E-02 0. -1.
    5000001    1    1    2    0    0 -0.94383770832E+02 -0.77944297235E+02  0.55188291028E+03  0.58888314318E+03  0.16500000000E+03 0.  0.
   -5000001    1    1    2    0    0  0.94383770832E+02  0.77944297235E+02  0.17246687815E+03  0.26824137214E+03  0.16500000000E+03 0.  0.
<mgrwt>
<rscale>  0 0.45823555E+03</rscale>
<asrwt>0</asrwt>
<pdfrwt beam="1">  1        2 0.11296245E+00 0.45823555E+03</pdfrwt>
<pdfrwt beam="2">  1       -2 0.94839094E-02 0.45823555E+03</pdfrwt>
<totfact> 0.28730890E+03</totfact>
</mgrwt>
</event>
<event>
 4    1  0.1837449E-005  0.4583892E+03  0.7818608E-02  0.1025249E+00
         -2   -1    0    0    0  501 -0.00000000000E+00  0.00000000000E+00  0.10412253616E+03  0.10412253619E+03  0.25500000000E-02 0. -1.
          2   -1    0    0  501    0  0.00000000000E+00 -0.00000000000E+00 -0.50450341321E+03  0.50450341322E+03  0.25500000000E-02 0.  1.
    5000001    1    1    2    0    0  0.28872480738E+02 -0.13981707202E+03 -0.10703256964E+03  0.24302963757E+03  0.16500000000E+03 0.  0.
   -5000001    1    1    2    0    0 -0.28872480738E+02  0.13981707202E+03 -0.29334830741E+03  0.36559631184E+03  0.16500000000E+03 0.  0.
<mgrwt>
<rscale>  0 0.45838924E+03</rscale>
<asrwt>0</asrwt>
<pdfrwt beam="1">  1        2 0.72071915E-01 0.45838924E+03</pdfrwt>
<pdfrwt beam="2">  1       -2 0.14874648E-01 0.45838924E+03</pdfrwt>
<totfact> 0.23430866E+03</totfact>
</mgrwt>
</event>
<event>
 4    1  0.1837449E-005  0.4276563E+03  0.7818608E-02  0.1034603E+00
          2   -1    0    0  501    0  0.00000000000E+00  0.00000000000E+00  0.33723088125E+03  0.33723088126E+03  0.25500000000E-02 0.  1.
         -2   -1    0    0    0  501 -0.00000000000E+00 -0.00000000000E+00 -0.13558210616E+03  0.13558210619E+03  0.25500000000E-02 0. -1.
    5000001    1    1    2    0    0 -0.13009488411E+03  0.36633798089E+02  0.11761915439E+03  0.24356924993E+03  0.16500000000E+03 0.  0.
   -5000001    1    1    2    0    0  0.13009488411E+03 -0.36633798089E+02  0.84029620695E+02  0.22924373751E+03  0.16500000000E+03 0.  0.
<mgrwt>
<rscale>  0 0.42765628E+03</rscale>
<asrwt>0</asrwt>
<pdfrwt beam="1">  1        2 0.48175840E-01 0.42765628E+03</pdfrwt>
<pdfrwt beam="2">  1       -2 0.19368872E-01 0.42765628E+03</pdfrwt>
<totfact> 0.23361864E+03</totfact>
</mgrwt>
</event>
<event>
 4    1  0.1837449E-005  0.6259554E+03  0.7818608E-02  0.9852974E-01
         -2   -1    0    0    0  501 -0.00000000000E+00  0.00000000000E+00  0.15869312615E+03  0.15869312617E+03  0.25500000000E-02 0. -1.
          2   -1    0    0  501    0  0.00000000000E+00 -0.00000000000E+00 -0.61726070501E+03  0.61726070502E+03  0.25500000000E-02 0.  1.
    5000001    1    1    2    0    0  0.22833459375E+03  0.12042002646E+03 -0.14998263562E+03  0.34111209369E+03  0.16500000000E+03 0.  0.
   -5000001    1    1    2    0    0 -0.22833459375E+03 -0.12042002646E+03 -0.30858494324E+03  0.43484173750E+03  0.16500000000E+03 0.  0.
<mgrwt>
<rscale>  0 0.62595537E+03</rscale>
<asrwt>0</asrwt>
<pdfrwt beam="1">  1        2 0.88180100E-01 0.62595537E+03</pdfrwt>
<pdfrwt beam="2">  1       -2 0.22670447E-01 0.62595537E+03</pdfrwt>
<totfact> 0.89891528E+02</totfact>
</mgrwt>
</event>
<event>
 4    1  0.1837449E-005  0.6662094E+03  0.7818608E-02  0.9776830E-01
          2   -1    0    0  501    0  0.00000000000E+00  0.00000000000E+00  0.74269777577E+03  0.74269777578E+03  0.25500000000E-02 0.  1.
         -2   -1    0    0    0  501 -0.00000000000E+00 -0.00000000000E+00 -0.14939956911E+03  0.14939956913E+03  0.25500000000E-02 0. -1.
    5000001    1    1    2    0    0 -0.20729966688E+03  0.20051159515E+03  0.32821457933E+03  0.46704160603E+03  0.16500000000E+03 0.  0.
   -5000001    1    1    2    0    0  0.20729966688E+03 -0.20051159515E+03  0.26508362733E+03  0.42505573888E+03  0.16500000000E+03 0.  0.
<mgrwt>
<rscale>  0 0.66620936E+03</rscale>
<asrwt>0</asrwt>
<pdfrwt beam="1">  1        2 0.10609968E+00 0.66620936E+03</pdfrwt>
<pdfrwt beam="2">  1       -2 0.21342796E-01 0.66620936E+03</pdfrwt>
<totfact> 0.79786679E+02</totfact>
</mgrwt>
</event>
<event>
 4    1  0.1837449E-005  0.5662227E+03  0.7818608E-02  0.9978072E-01
         -2   -1    0    0    0  501 -0.00000000000E+00  0.00000000000E+00  0.39105621936E+02  0.39105622019E+02  0.25500000000E-02 0. -1.
          2   -1    0    0  501    0  0.00000000000E+00 -0.00000000000E+00 -0.20496293694E+04  0.20496293694E+04  0.25500000000E-02 0.  1.
    5000001    1    1    2    0    0 -0.11957911556E+01  0.21253089547E+03 -0.13301404969E+04  0.13570812624E+04  0.16500000000E+03 0.  0.
   -5000001    1    1    2    0    0  0.11957911556E+01 -0.21253089547E+03 -0.68038325061E+03  0.73165372900E+03  0.16500000000E+03 0.  0.
<mgrwt>
<rscale>  0 0.56622268E+03</rscale>
<asrwt>0</asrwt>
<pdfrwt beam="1">  1        2 0.29280413E+00 0.56622268E+03</pdfrwt>
<pdfrwt beam="2">  1       -2 0.55865187E-02 0.56622268E+03</pdfrwt>
<totfact> 0.13532320E+03</totfact>
</mgrwt>
</event>
<event>
 4    1  0.1837449E-005  0.6719218E+03  0.7818608E-02  0.9766492E-01
          2   -1    0    0  501    0  0.00000000000E+00  0.00000000000E+00  0.11667776950E+03  0.11667776952E+03  0.25500000000E-02 0.  1.
         -2   -1    0    0    0  501 -0.00000000000E+00 -0.00000000000E+00 -0.96736260305E+03  0.96736260305E+03  0.25500000000E-02 0. -1.
    5000001    1    1    2    0    0 -0.23338995156E+03 -0.15997793915E+03 -0.54586790192E+03  0.63660079866E+03  0.16500000000E+03 0.  0.
   -5000001    1    1    2    0    0  0.23338995156E+03  0.15997793915E+03 -0.30481693163E+03  0.44743957392E+03  0.16500000000E+03 0.  0.
<mgrwt>
<rscale>  0 0.67192175E+03</rscale>
<asrwt>0</asrwt>
<pdfrwt beam="1">  1        2 0.16668253E-01 0.67192175E+03</pdfrwt>
<pdfrwt beam="2">  1       -2 0.13819465E+00 0.67192175E+03</pdfrwt>
<totfact> 0.13283296E+02</totfact>
</mgrwt>
</event>
<event>
 4    1  0.1837449E-005  0.5128635E+03  0.7818608E-02  0.1010475E+00
         -2   -1    0    0    0  501 -0.00000000000E+00  0.00000000000E+00  0.63881995691E+02  0.63881995742E+02  0.25500000000E-02 0.  1.
          2   -1    0    0  501    0  0.00000000000E+00 -0.00000000000E+00 -0.10293550450E+04  0.10293550450E+04  0.25500000000E-02 0. -1.
    5000001    1    1    2    0    0  0.18104405808E+03  0.30902738869E+02 -0.33504764467E+03  0.41618968564E+03  0.16500000000E+03 0.  0.
   -5000001    1    1    2    0    0 -0.18104405808E+03 -0.30902738869E+02 -0.63042540463E+03  0.67704735509E+03  0.16500000000E+03 0.  0.
<mgrwt>
<rscale>  0 0.51286355E+03</rscale>
<asrwt>0</asrwt>
<pdfrwt beam="1">  1        2 0.14705071E+00 0.51286355E+03</pdfrwt>
<pdfrwt beam="2">  1       -2 0.91260000E-02 0.51286355E+03</pdfrwt>
<totfact> 0.21516199E+03</totfact>
</mgrwt>
</event>
<event>
 4    1  0.1837449E-005  0.3634847E+03  0.7818608E-02  0.1057213E+00
          2   -1    0    0  501    0  0.00000000000E+00  0.00000000000E+00  0.54252397373E+03  0.54252397373E+03  0.25500000000E-02 0.  1.
         -2   -1    0    0    0  501 -0.00000000000E+00 -0.00000000000E+00 -0.60882615865E+02  0.60882615919E+02  0.25500000000E-02 0. -1.
    5000001    1    1    2    0    0  0.29561562416E+02  0.69995499740E+02  0.25021473739E+03  0.30920166682E+03  0.16500000000E+03 0.  0.
   -5000001    1    1    2    0    0 -0.29561562416E+02 -0.69995499740E+02  0.23142662047E+03  0.29420492283E+03  0.16500000000E+03 0.  0.
<mgrwt>
<rscale>  0 0.36348468E+03</rscale>
<asrwt>0</asrwt>
<pdfrwt beam="1">  1        2 0.77503428E-01 0.36348468E+03</pdfrwt>
<pdfrwt beam="2">  1       -2 0.86975162E-02 0.36348468E+03</pdfrwt>
<totfact> 0.51420468E+03</totfact>
</mgrwt>
</event>
<event>
 4    1  0.1837449E-005  0.7295502E+03  0.7818608E-02  0.9667991E-01
         -2   -1    0    0    0  501 -0.00000000000E+00  0.00000000000E+00  0.13389291950E+03  0.13389291952E+03  0.25500000000E-02 0. -1.
          2   -1    0    0  501    0  0.00000000000E+00 -0.00000000000E+00 -0.99378580767E+03  0.99378580767E+03  0.25500000000E-02 0.  1.
    5000001    1    1    2    0    0  0.26140627892E+03  0.79408291637E+01 -0.13086071086E+03  0.33577645104E+03  0.16500000000E+03 0.  0.
   -5000001    1    1    2    0    0 -0.26140627892E+03 -0.79408291637E+01 -0.72903217731E+03  0.79190227616E+03  0.16500000000E+03 0.  0.
<mgrwt>
<rscale>  0 0.72955023E+03</rscale>
<asrwt>0</asrwt>
<pdfrwt beam="1">  1        2 0.14196940E+00 0.72955023E+03</pdfrwt>
<pdfrwt beam="2">  1       -2 0.19127561E-01 0.72955023E+03</pdfrwt>
<totfact> 0.65628450E+02</totfact>
</mgrwt>
</event>
<event>
 4    1  0.1837449E-005  0.5062341E+03  0.7818608E-02  0.1012164E+00
         -2   -1    0    0    0  501 -0.00000000000E+00  0.00000000000E+00  0.21476504338E+02  0.21476504489E+02  0.25500000000E-02 0. -1.
          2   -1    0    0  501    0  0.00000000000E+00 -0.00000000000E+00 -0.29831779148E+04  0.29831779148E+04  0.25500000000E-02 0.  1.
    5000001    1    1    2    0    0  0.84729104436E+00  0.16848634073E+03 -0.20266042845E+04  0.20402789738E+04  0.16500000000E+03 0.  0.
   -5000001    1    1    2    0    0 -0.84729104436E+00 -0.16848634073E+03 -0.93509712601E+03  0.96437544556E+03  0.16500000000E+03 0.  0.
<mgrwt>
<rscale>  0 0.50623407E+03</rscale>
<asrwt>0</asrwt>
<pdfrwt beam="1">  1        2 0.42616801E+00 0.50623407E+03</pdfrwt>
<pdfrwt beam="2">  1       -2 0.30680740E-02 0.50623407E+03</pdfrwt>
<totfact> 0.11277905E+03</totfact>
</mgrwt>
</event>
<event>
 4    1  0.1837449E-005  0.5091860E+03  0.7818608E-02  0.1011409E+00
         -2   -1    0    0    0  501 -0.00000000000E+00  0.00000000000E+00  0.40762467340E+03  0.40762467341E+03  0.25500000000E-02 0. -1.
          2   -1    0    0  501    0  0.00000000000E+00 -0.00000000000E+00 -0.15901294929E+03  0.15901294931E+03  0.25500000000E-02 0.  1.
    5000001    1    1    2    0    0 -0.51223596614E+02  0.95467687055E+02  0.30324213767E+03  0.36182693401E+03  0.16500000000E+03 0.  0.
   -5000001    1    1    2    0    0  0.51223596614E+02 -0.95467687055E+02 -0.54630413554E+02  0.20481068870E+03  0.16500000000E+03 0.  0.
<mgrwt>
<rscale>  0 0.50918602E+03</rscale>
<asrwt>0</asrwt>
<pdfrwt beam="1">  1        2 0.22716136E-01 0.50918602E+03</pdfrwt>
<pdfrwt beam="2">  1       -2 0.58232096E-01 0.50918602E+03</pdfrwt>
<totfact> 0.67949182E+02</totfact>
</mgrwt>
</event>
<event>
 4    1  0.1837449E-005  0.3894151E+03  0.7818608E-02  0.1047508E+00
          2   -1    0    0  501    0  0.00000000000E+00  0.00000000000E+00  0.16152351848E+04  0.16152351848E+04  0.25500000000E-02 0.  1.
         -2   -1    0    0    0  501 -0.00000000000E+00 -0.00000000000E+00 -0.23470898607E+02  0.23470898746E+02  0.25500000000E-02 0. -1.
    5000001    1    1    2    0    0  0.90008913804E+02  0.22478449082E+02  0.60400210753E+03  0.63296953413E+03  0.16500000000E+03 0.  0.
   -5000001    1    1    2    0    0 -0.90008913804E+02 -0.22478449082E+02  0.98776217868E+03  0.10057365494E+04  0.16500000000E+03 0.  0.
<mgrwt>
<rscale>  0 0.38941506E+03</rscale>
<asrwt>0</asrwt>
<pdfrwt beam="1">  1        2 0.23074792E+00 0.38941506E+03</pdfrwt>
<pdfrwt beam="2">  1       -2 0.33529850E-02 0.38941506E+03</pdfrwt>
<totfact> 0.49079553E+03</totfact>
</mgrwt>
</event>
<event>
 4    1  0.1837449E-005  0.5785244E+03  0.7818608E-02  0.9950991E-01
          2   -1    0    0  501    0  0.00000000000E+00  0.00000000000E+00  0.55428727827E+03  0.55428727828E+03  0.25500000000E-02 0.  1.
         -2   -1    0    0    0  501 -0.00000000000E+00 -0.00000000000E+00 -0.15095533684E+03  0.15095533686E+03  0.25500000000E-02 0. -1.
    5000001    1    1    2    0    0 -0.21331107579E+03 -0.99618726443E+02  0.24063927113E+03  0.37491034198E+03  0.16500000000E+03 0.  0.
   -5000001    1    1    2    0    0  0.21331107579E+03  0.99618726443E+02  0.16269267030E+03  0.33033227315E+03  0.16500000000E+03 0.  0.
<mgrwt>
<rscale>  0 0.57852441E+03</rscale>
<asrwt>0</asrwt>
<pdfrwt beam="1">  1        2 0.79183899E-01 0.57852441E+03</pdfrwt>
<pdfrwt beam="2">  1       -2 0.21565048E-01 0.57852441E+03</pdfrwt>
<totfact> 0.11143432E+03</totfact>
</mgrwt>
</event>
<event>
 4    1  0.1837449E-005  0.4661452E+03  0.7818608E-02  0.1023014E+00
         -2   -1    0    0    0  501 -0.00000000000E+00  0.00000000000E+00  0.44557103972E+02  0.44557104045E+02  0.25500000000E-02 0. -1.
          2   -1    0    0  501    0  0.00000000000E+00 -0.00000000000E+00 -0.12191734365E+04  0.12191734365E+04  0.25500000000E-02 0.  1.
    5000001    1    1    2    0    0  0.14694582016E+03 -0.71304798704E+02 -0.64289335115E+03  0.68353076693E+03  0.16500000000E+03 0.  0.
   -5000001    1    1    2    0    0 -0.14694582016E+03  0.71304798704E+02 -0.53172298133E+03  0.58019977358E+03  0.16500000000E+03 0.  0.
<mgrwt>
<rscale>  0 0.46614520E+03</rscale>
<asrwt>0</asrwt>
<pdfrwt beam="1">  1        2 0.17416761E+00 0.46614520E+03</pdfrwt>
<pdfrwt beam="2">  1       -2 0.63653013E-02 0.46614520E+03</pdfrwt>
<totfact> 0.29623804E+03</totfact>
</mgrwt>
</event>
<event>
 4    1  0.1837449E-005  0.8087135E+03  0.7818608E-02  0.9547490E-01
          2   -1    0    0  501    0  0.00000000000E+00  0.00000000000E+00  0.24148272069E+04  0.24148272069E+04  0.25500000000E-02 0.  1.
         -2   -1    0    0    0  501 -0.00000000000E+00 -0.00000000000E+00 -0.67708513936E+02  0.67708513984E+02  0.25500000000E-02 0. -1.
    5000001    1    1    2    0    0  0.40115321219E+02 -0.34974390334E+03  0.83242735878E+03  0.91874389498E+03  0.16500000000E+03 0.  0.
   -5000001    1    1    2    0    0 -0.40115321219E+02  0.34974390334E+03  0.15146913342E+04  0.15637918259E+04  0.16500000000E+03 0.  0.
<mgrwt>
<rscale>  0 0.80871345E+03</rscale>
<asrwt>0</asrwt>
<pdfrwt beam="1">  1        2 0.34497532E+00 0.80871345E+03</pdfrwt>
<pdfrwt beam="2">  1       -2 0.96726447E-02 0.80871345E+03</pdfrwt>
<totfact> 0.36315418E+02</totfact>
</mgrwt>
</event>
<event>
 4    1  0.1837449E-005  0.6062810E+03  0.7818608E-02  0.9892460E-01
         -2   -1    0    0    0  501 -0.00000000000E+00  0.00000000000E+00  0.90925178793E+02  0.90925178829E+02  0.25500000000E-02 0. -1.
          2   -1    0    0  501    0  0.00000000000E+00 -0.00000000000E+00 -0.10106570255E+04  0.10106570255E+04  0.25500000000E-02 0.  1.
    5000001    1    1    2    0    0 -0.23609290485E+03 -0.94050346311E+02 -0.44322883262E+03  0.53690048000E+03  0.16500000000E+03 0.  0.
   -5000001    1    1    2    0    0  0.23609290485E+03  0.94050346311E+02 -0.47650301409E+03  0.56468172434E+03  0.16500000000E+03 0.  0.
<mgrwt>
<rscale>  0 0.60628103E+03</rscale>
<asrwt>0</asrwt>
<pdfrwt beam="1">  1        2 0.14437957E+00 0.60628103E+03</pdfrwt>
<pdfrwt beam="2">  1       -2 0.12989312E-01 0.60628103E+03</pdfrwt>
<totfact> 0.12402684E+03</totfact>
</mgrwt>
</event>
<event>
 4    1  0.1837449E-005  0.5429939E+03  0.7818608E-02  0.1003129E+00
          2   -1    0    0  501    0  0.00000000000E+00  0.00000000000E+00  0.19623587214E+04  0.19623587215E+04  0.25500000000E-02 0.  1.
         -2   -1    0    0    0  501 -0.00000000000E+00 -0.00000000000E+00 -0.37562237396E+02  0.37562237483E+02  0.25500000000E-02 0. -1.
    5000001    1    1    2    0    0  0.16769514508E+03  0.11703774853E+03  0.71080766527E+03  0.75782058119E+03  0.16500000000E+03 0.  0.
   -5000001    1    1    2    0    0 -0.16769514508E+03 -0.11703774853E+03  0.12139888188E+04  0.12421003777E+04  0.16500000000E+03 0.  0.
<mgrwt>
<rscale>  0 0.54299386E+03</rscale>
<asrwt>0</asrwt>
<pdfrwt beam="1">  1        2 0.28033696E+00 0.54299386E+03</pdfrwt>
<pdfrwt beam="2">  1       -2 0.53660340E-02 0.54299386E+03</pdfrwt>
<totfact> 0.15950773E+03</totfact>
</mgrwt>
</event>
<event>
 4    1  0.1837449E-005  0.7310285E+03  0.7818608E-02  0.9665593E-01
         -2   -1    0    0    0  501 -0.00000000000E+00  0.00000000000E+00  0.21497080952E+03  0.21497080954E+03  0.25500000000E-02 0. -1.
          2   -1    0    0  501    0  0.00000000000E+00 -0.00000000000E+00 -0.62148276659E+03  0.62148276659E+03  0.25500000000E-02 0.  1.
    5000001    1    1    2    0    0 -0.17756285722E+03  0.27357867638E+03 -0.20478812029E+03  0.41897140075E+03  0.16500000000E+03 0.  0.
   -5000001    1    1    2    0    0  0.17756285722E+03 -0.27357867638E+03 -0.20172383678E+03  0.41748217538E+03  0.16500000000E+03 0.  0.
<mgrwt>
<rscale>  0 0.73102846E+03</rscale>
<asrwt>0</asrwt>
<pdfrwt beam="1">  1        2 0.88783251E-01 0.73102846E+03</pdfrwt>
<pdfrwt beam="2">  1       -2 0.30710116E-01 0.73102846E+03</pdfrwt>
<totfact> 0.51272126E+02</totfact>
</mgrwt>
</event>
<event>
 4    1  0.1837449E-005  0.5070365E+03  0.7818608E-02  0.1011958E+00
         -2   -1    0    0    0  501 -0.00000000000E+00  0.00000000000E+00  0.83336690809E+02  0.83336690848E+02  0.25500000000E-02 0.  1.
          2   -1    0    0  501    0  0.00000000000E+00 -0.00000000000E+00 -0.77122688308E+03  0.77122688309E+03  0.25500000000E-02 0. -1.
    5000001    1    1    2    0    0 -0.15670893027E+03 -0.47634069767E+02 -0.17356202757E+03  0.29013009296E+03  0.16500000000E+03 0.  0.
   -5000001    1    1    2    0    0  0.15670893027E+03  0.47634069767E+02 -0.51432816471E+03  0.56443348097E+03  0.16500000000E+03 0.  0.
<mgrwt>
<rscale>  0 0.50703647E+03</rscale>
<asrwt>0</asrwt>
<pdfrwt beam="1">  1        2 0.11017526E+00 0.50703647E+03</pdfrwt>
<pdfrwt beam="2">  1       -2 0.11905242E-01 0.50703647E+03</pdfrwt>
<totfact> 0.20516800E+03</totfact>
</mgrwt>
</event>
<event>
 4    1  0.1837449E-005  0.5434068E+03  0.7818608E-02  0.1003032E+00
          2   -1    0    0  501    0  0.00000000000E+00  0.00000000000E+00  0.17733790411E+04  0.17733790411E+04  0.25500000000E-02 0.  1.
         -2   -1    0    0    0  501 -0.00000000000E+00 -0.00000000000E+00 -0.41628287400E+02  0.41628287478E+02  0.25500000000E-02 0. -1.
    5000001    1    1    2    0    0 -0.19084548383E+03 -0.13698428672E+02  0.11996816421E+04  0.12259978336E+04  0.16500000000E+03 0.  0.
   -5000001    1    1    2    0    0  0.19084548383E+03  0.13698428672E+02  0.53206911170E+03  0.58900949506E+03  0.16500000000E+03 0.  0.
<mgrwt>
<rscale>  0 0.54340678E+03</rscale>
<asrwt>0</asrwt>
<pdfrwt beam="1">  1        2 0.25333975E+00 0.54340678E+03</pdfrwt>
<pdfrwt beam="2">  1       -2 0.59469008E-02 0.54340678E+03</pdfrwt>
<totfact> 0.16908572E+03</totfact>
</mgrwt>
</event>
<event>
 4    1  0.1837449E-005  0.4156929E+03  0.7818608E-02  0.1038477E+00
         -2   -1    0    0    0  501 -0.00000000000E+00  0.00000000000E+00  0.13491926598E+03  0.13491926601E+03  0.25500000000E-02 0. -1.
          2   -1    0    0  501    0  0.00000000000E+00 -0.00000000000E+00 -0.32019250730E+03  0.32019250731E+03  0.25500000000E-02 0.  1.
    5000001    1    1    2    0    0  0.41558537104E+02  0.10084881400E+03 -0.22725740447E+02  0.19909559154E+03  0.16500000000E+03 0.  0.
   -5000001    1    1    2    0    0 -0.41558537104E+02 -0.10084881400E+03 -0.16254750086E+03  0.25601618177E+03  0.16500000000E+03 0.  0.
<mgrwt>
<rscale>  0 0.41569286E+03</rscale>
<asrwt>0</asrwt>
<pdfrwt beam="1">  1        2 0.45741786E-01 0.41569286E+03</pdfrwt>
<pdfrwt beam="2">  1       -2 0.19274181E-01 0.41569286E+03</pdfrwt>
<totfact> 0.24922595E+03</totfact>
</mgrwt>
</event>
<event>
 4    1  0.1837449E-005  0.5094421E+03  0.7818608E-02  0.1011343E+00
         -2   -1    0    0    0  501 -0.00000000000E+00  0.00000000000E+00  0.51002181268E+03  0.51002181269E+03  0.25500000000E-02 0. -1.
          2   -1    0    0  501    0  0.00000000000E+00 -0.00000000000E+00 -0.12721578372E+03  0.12721578374E+03  0.25500000000E-02 0.  1.
    5000001    1    1    2    0    0 -0.17449569557E+03  0.48222089287E+02  0.27881708000E+03  0.37113081490E+03  0.16500000000E+03 0.  0.
   -5000001    1    1    2    0    0  0.17449569557E+03 -0.48222089287E+02  0.10398894896E+03  0.26610678152E+03  0.16500000000E+03 0.  0.
<mgrwt>
<rscale>  0 0.50944214E+03</rscale>
<asrwt>0</asrwt>
<pdfrwt beam="1">  1        2 0.18173683E-01 0.50944214E+03</pdfrwt>
<pdfrwt beam="2">  1       -2 0.72860260E-01 0.50944214E+03</pdfrwt>
<totfact> 0.54615470E+02</totfact>
</mgrwt>
</event>
<event>
 4    1  0.1837449E-005  0.5096130E+03  0.7818608E-02  0.1011300E+00
         -2   -1    0    0    0  501 -0.00000000000E+00  0.00000000000E+00  0.48983458743E+02  0.48983458809E+02  0.25500000000E-02 0. -1.
          2   -1    0    0  501    0  0.00000000000E+00 -0.00000000000E+00 -0.13254752466E+04  0.13254752466E+04  0.25500000000E-02 0.  1.
    5000001    1    1    2    0    0 -0.13201282139E+03 -0.39701323911E+02 -0.10070419020E+04  0.10297387885E+04  0.16500000000E+03 0.  0.
   -5000001    1    1    2    0    0  0.13201282139E+03  0.39701323911E+02 -0.26944988584E+03  0.34471991690E+03  0.16500000000E+03 0.  0.
<mgrwt>
<rscale>  0 0.50961304E+03</rscale>
<asrwt>0</asrwt>
<pdfrwt beam="1">  1        2 0.18935358E+00 0.50961304E+03</pdfrwt>
<pdfrwt beam="2">  1       -2 0.69976378E-02 0.50961304E+03</pdfrwt>
<totfact> 0.22344212E+03</totfact>
</mgrwt>
</event>
<event>
 4    1  0.1837449E-005  0.1062353E+04  0.7818608E-02  0.9242682E-01
         -2   -1    0    0    0  501 -0.00000000000E+00  0.00000000000E+00  0.15385669947E+04  0.15385669947E+04  0.25500000000E-02 0. -1.
          2   -1    0    0  501    0  0.00000000000E+00 -0.00000000000E+00 -0.18338406250E+03  0.18338406252E+03  0.25500000000E-02 0.  1.
    5000001    1    1    2    0    0 -0.40928527071E+03  0.15571684249E+03  0.27023180729E+03  0.54038171465E+03  0.16500000000E+03 0.  0.
   -5000001    1    1    2    0    0  0.40928527071E+03 -0.15571684249E+03  0.10849511249E+04  0.11815693425E+04  0.16500000000E+03 0.  0.
<mgrwt>
<rscale>  0 0.10623534E+04</rscale>
<asrwt>0</asrwt>
<pdfrwt beam="1">  1        2 0.26197723E-01 0.10623534E+04</pdfrwt>
<pdfrwt beam="2">  1       -2 0.21979529E+00 0.10623534E+04</pdfrwt>
<totfact> 0.20560319E+01</totfact>
</mgrwt>
</event>
<event>
 4    1  0.1837449E-005  0.1069670E+04  0.7818608E-02  0.9235268E-01
          2   -1    0    0  501    0  0.00000000000E+00  0.00000000000E+00  0.73918520280E+03  0.73918520280E+03  0.25500000000E-02 0.  1.
         -2   -1    0    0    0  501 -0.00000000000E+00 -0.00000000000E+00 -0.38697816184E+03  0.38697816185E+03  0.25500000000E-02 0. -1.
    5000001    1    1    2    0    0  0.32345869037E+03  0.26451453831E+03  0.48165550465E+03  0.65864291579E+03  0.16500000000E+03 0.  0.
   -5000001    1    1    2    0    0 -0.32345869037E+03 -0.26451453831E+03 -0.12944846370E+03  0.46752044887E+03  0.16500000000E+03 0.  0.
<mgrwt>
<rscale>  0 0.10696701E+04</rscale>
<asrwt>0</asrwt>
<pdfrwt beam="1">  1        2 0.10559789E+00 0.10696701E+04</pdfrwt>
<pdfrwt beam="2">  1       -2 0.55282594E-01 0.10696701E+04</pdfrwt>
<totfact> 0.12867793E+02</totfact>
</mgrwt>
</event>
<event>
 4    1  0.1837449E-005  0.4447312E+03  0.7818608E-02  0.1029305E+00
         -2   -1    0    0    0  501 -0.00000000000E+00  0.00000000000E+00  0.37568792416E+02  0.37568792503E+02  0.25500000000E-02 0. -1.
          2   -1    0    0  501    0  0.00000000000E+00 -0.00000000000E+00 -0.13161579166E+04  0.13161579166E+04  0.25500000000E-02 0.  1.
    5000001    1    1    2    0    0 -0.10416125502E+03 -0.71480719662E+02 -0.88017631312E+03  0.90437514479E+03  0.16500000000E+03 0.  0.
   -5000001    1    1    2    0    0  0.10416125502E+03  0.71480719662E+02 -0.39841281103E+03  0.44935156428E+03  0.16500000000E+03 0.  0.
<mgrwt>
<rscale>  0 0.44473122E+03</rscale>
<asrwt>0</asrwt>
<pdfrwt beam="1">  1        2 0.18802253E+00 0.44473122E+03</pdfrwt>
<pdfrwt beam="2">  1       -2 0.53669712E-02 0.44473122E+03</pdfrwt>
<totfact> 0.34202316E+03</totfact>
</mgrwt>
</event>
<event>
 4    1  0.1837449E-005  0.5043946E+03  0.7818608E-02  0.1012638E+00
          2   -1    0    0  501    0  0.00000000000E+00  0.00000000000E+00  0.11608185068E+04  0.11608185068E+04  0.25500000000E-02 0.  1.
         -2   -1    0    0    0  501 -0.00000000000E+00 -0.00000000000E+00 -0.54791931875E+02  0.54791931934E+02  0.25500000000E-02 0. -1.
    5000001    1    1    2    0    0 -0.44847541553E+02 -0.16195377561E+03  0.33559949096E+03  0.40999066545E+03  0.16500000000E+03 0.  0.
   -5000001    1    1    2    0    0  0.44847541553E+02  0.16195377561E+03  0.77042708393E+03  0.80561977327E+03  0.16500000000E+03 0.  0.
<mgrwt>
<rscale>  0 0.50439464E+03</rscale>
<asrwt>0</asrwt>
<pdfrwt beam="1">  1        2 0.16583122E+00 0.50439464E+03</pdfrwt>
<pdfrwt beam="2">  1       -2 0.78274186E-02 0.50439464E+03</pdfrwt>
<totfact> 0.23058664E+03</totfact>
</mgrwt>
</event>
<event>
 4    1  0.1837449E-005  0.3865616E+03  0.7818608E-02  0.1048535E+00
          2   -1    0    0  501    0  0.00000000000E+00  0.00000000000E+00  0.15399749983E+03  0.15399749985E+03  0.25500000000E-02 0.  1.
         -2   -1    0    0    0  501 -0.00000000000E+00 -0.00000000000E+00 -0.24258487060E+03  0.24258487061E+03  0.25500000000E-02 0. -1.
    5000001    1    1    2    0    0  0.61412522961E+02 -0.74584893663E+02 -0.73275947624E+02  0.20476515534E+03  0.16500000000E+03 0.  0.
   -5000001    1    1    2    0    0 -0.61412522961E+02  0.74584893663E+02 -0.15311423147E+02  0.19181721512E+03  0.16500000000E+03 0.  0.
<mgrwt>
<rscale>  0 0.38656158E+03</rscale>
<asrwt>0</asrwt>
<pdfrwt beam="1">  1        2 0.21999643E-01 0.38656158E+03</pdfrwt>
<pdfrwt beam="2">  1       -2 0.34654981E-01 0.38656158E+03</pdfrwt>
<totfact> 0.19612468E+03</totfact>
</mgrwt>
</event>
<event>
 4    1  0.1837449E-005  0.3667506E+03  0.7818608E-02  0.1055942E+00
         -2   -1    0    0    0  501 -0.00000000000E+00  0.00000000000E+00  0.92281358408E+02  0.92281358443E+02  0.25500000000E-02 0. -1.
          2   -1    0    0  501    0  0.00000000000E+00 -0.00000000000E+00 -0.36439112533E+03  0.36439112534E+03  0.25500000000E-02 0.  1.
    5000001    1    1    2    0    0  0.47615199934E+02 -0.20864822922E+02 -0.60323868369E+02  0.18321167320E+03  0.16500000000E+03 0.  0.
   -5000001    1    1    2    0    0 -0.47615199934E+02  0.20864822922E+02 -0.21178589856E+03  0.27346081059E+03  0.16500000000E+03 0.  0.
<mgrwt>
<rscale>  0 0.36675064E+03</rscale>
<asrwt>0</asrwt>
<pdfrwt beam="1">  1        2 0.52055874E-01 0.36675064E+03</pdfrwt>
<pdfrwt beam="2">  1       -2 0.13183051E-01 0.36675064E+03</pdfrwt>
<totfact> 0.40857688E+03</totfact>
</mgrwt>
</event>
<event>
 4    1  0.1837449E-005  0.4716940E+03  0.7818608E-02  0.1021443E+00
          2   -1    0    0  501    0  0.00000000000E+00  0.00000000000E+00  0.32855100019E+03  0.32855100020E+03  0.25500000000E-02 0.  1.
         -2   -1    0    0    0  501 -0.00000000000E+00 -0.00000000000E+00 -0.16930037710E+03  0.16930037712E+03  0.25500000000E-02 0. -1.
    5000001    1    1    2    0    0 -0.19448582610E+02 -0.16216038447E+03  0.35794466474E+02  0.23490526066E+03  0.16500000000E+03 0.  0.
   -5000001    1    1    2    0    0  0.19448582610E+02  0.16216038447E+03  0.12345615662E+03  0.26294611666E+03  0.16500000000E+03 0.  0.
<mgrwt>
<rscale>  0 0.47169400E+03</rscale>
<asrwt>0</asrwt>
<pdfrwt beam="1">  1        2 0.46935857E-01 0.47169400E+03</pdfrwt>
<pdfrwt beam="2">  1       -2 0.24185768E-01 0.47169400E+03</pdfrwt>
<totfact> 0.16315644E+03</totfact>
</mgrwt>
</event>
<event>
 4    1  0.1837449E-005  0.7826038E+03  0.7818608E-02  0.9585544E-01
          2   -1    0    0  501    0  0.00000000000E+00  0.00000000000E+00  0.18029968537E+04  0.18029968537E+04  0.25500000000E-02 0. -1.
         -2   -1    0    0    0  501 -0.00000000000E+00 -0.00000000000E+00 -0.84923699230E+02  0.84923699268E+02  0.25500000000E-02 0.  1.
    5000001    1    1    2    0    0 -0.30075847838E+03 -0.18768104033E+03  0.89418814804E+03  0.97594942457E+03  0.16500000000E+03 0.  0.
   -5000001    1    1    2    0    0  0.30075847838E+03  0.18768104033E+03  0.82388500642E+03  0.91197112839E+03  0.16500000000E+03 0.  0.
<mgrwt>
<rscale>  0 0.78260376E+03</rscale>
<asrwt>0</asrwt>
<pdfrwt beam="1">  1        2 0.25757095E+00 0.78260376E+03</pdfrwt>
<pdfrwt beam="2">  1       -2 0.12131959E-01 0.78260376E+03</pdfrwt>
<totfact> 0.51373112E+02</totfact>
</mgrwt>
</event>
<event>
 4    1  0.1837449E-005  0.6157248E+03  0.7818608E-02  0.9873309E-01
          2   -1    0    0  501    0  0.00000000000E+00  0.00000000000E+00  0.31945324181E+03  0.31945324182E+03  0.25500000000E-02 0.  1.
         -2   -1    0    0    0  501 -0.00000000000E+00 -0.00000000000E+00 -0.29669213600E+03  0.29669213601E+03  0.25500000000E-02 0. -1.
    5000001    1    1    2    0    0  0.12801291225E+03  0.13495119735E+03  0.19304003348E+03  0.31478339520E+03  0.16500000000E+03 0.  0.
   -5000001    1    1    2    0    0 -0.12801291225E+03 -0.13495119735E+03 -0.17027892766E+03  0.30136198263E+03  0.16500000000E+03 0.  0.
<mgrwt>
<rscale>  0 0.61572482E+03</rscale>
<asrwt>0</asrwt>
<pdfrwt beam="1">  1        2 0.45636177E-01 0.61572482E+03</pdfrwt>
<pdfrwt beam="2">  1       -2 0.42384591E-01 0.61572482E+03</pdfrwt>
<totfact> 0.59062846E+02</totfact>
</mgrwt>
</event>
<event>
 4    1  0.1837449E-005  0.4015856E+03  0.7818608E-02  0.1043232E+00
         -2   -1    0    0    0  501 -0.00000000000E+00  0.00000000000E+00  0.24323825730E+02  0.24323825863E+02  0.25500000000E-02 0. -1.
          2   -1    0    0  501    0  0.00000000000E+00 -0.00000000000E+00 -0.16575413100E+04  0.16575413100E+04  0.25500000000E-02 0.  1.
    5000001    1    1    2    0    0  0.65609038012E+01 -0.11360822724E+03 -0.86666813517E+03  0.88954400188E+03  0.16500000000E+03 0.  0.
   -5000001    1    1    2    0    0 -0.65609038012E+01  0.11360822724E+03 -0.76654934905E+03  0.79232113394E+03  0.16500000000E+03 0.  0.
<mgrwt>
<rscale>  0 0.40158559E+03</rscale>
<asrwt>0</asrwt>
<pdfrwt beam="1">  1        2 0.23679155E+00 0.40158559E+03</pdfrwt>
<pdfrwt beam="2">  1       -2 0.34748333E-02 0.40158559E+03</pdfrwt>
<totfact> 0.44278595E+03</totfact>
</mgrwt>
</event>
<event>
 4    1  0.1837449E-005  0.3676578E+03  0.7818608E-02  0.1055592E+00
          2   -1    0    0  501    0  0.00000000000E+00  0.00000000000E+00  0.48277485375E+03  0.48277485375E+03  0.25500000000E-02 0.  1.
         -2   -1    0    0    0  501 -0.00000000000E+00 -0.00000000000E+00 -0.69997558679E+02  0.69997558726E+02  0.25500000000E-02 0. -1.
    5000001    1    1    2    0    0 -0.43258067949E+02 -0.11365546148E+02  0.10477598710E+03  0.20050796382E+03  0.16500000000E+03 0.  0.
   -5000001    1    1    2    0    0  0.43258067949E+02  0.11365546148E+02  0.30800130796E+03  0.35226444866E+03  0.16500000000E+03 0.  0.
<mgrwt>
<rscale>  0 0.36765778E+03</rscale>
<asrwt>0</asrwt>
<pdfrwt beam="1">  1        2 0.68967835E-01 0.36765778E+03</pdfrwt>
<pdfrwt beam="2">  1       -2 0.99996514E-02 0.36765778E+03</pdfrwt>
<totfact> 0.46950603E+03</totfact>
</mgrwt>
</event>
<event>
 4    1  0.1837449E-005  0.5655871E+03  0.7818608E-02  0.9979492E-01
          2   -1    0    0  501    0  0.00000000000E+00  0.00000000000E+00  0.90635607192E+03  0.90635607192E+03  0.25500000000E-02 0.  1.
         -2   -1    0    0    0  501 -0.00000000000E+00 -0.00000000000E+00 -0.88234852926E+02  0.88234852963E+02  0.25500000000E-02 0. -1.
    5000001    1    1    2    0    0  0.16199899333E+03  0.20028244714E+02  0.12495151972E+03  0.26359568795E+03  0.16500000000E+03 0.  0.
   -5000001    1    1    2    0    0 -0.16199899333E+03 -0.20028244714E+02  0.69316969928E+03  0.73099523693E+03  0.16500000000E+03 0.  0.
<mgrwt>
<rscale>  0 0.56558711E+03</rscale>
<asrwt>0</asrwt>
<pdfrwt beam="1">  1        2 0.12947943E+00 0.56558711E+03</pdfrwt>
<pdfrwt beam="2">  1       -2 0.12604979E-01 0.56558711E+03</pdfrwt>
<totfact> 0.15149639E+03</totfact>
</mgrwt>
</event>
<event>
 4    1  0.1837449E-005  0.5991111E+03  0.7818608E-02  0.9907252E-01
          2   -1    0    0  501    0  0.00000000000E+00  0.00000000000E+00  0.11775746024E+04  0.11775746024E+04  0.25500000000E-02 0.  1.
         -2   -1    0    0    0  501 -0.00000000000E+00 -0.00000000000E+00 -0.76201981042E+02  0.76201981084E+02  0.25500000000E-02 0. -1.
    5000001    1    1    2    0    0  0.16160630749E+03 -0.15414869562E+03  0.31549775638E+03  0.42028829780E+03  0.16500000000E+03 0.  0.
   -5000001    1    1    2    0    0 -0.16160630749E+03  0.15414869562E+03  0.78587486497E+03  0.83348828568E+03  0.16500000000E+03 0.  0.
<mgrwt>
<rscale>  0 0.59911107E+03</rscale>
<asrwt>0</asrwt>
<pdfrwt beam="1">  1        2 0.16822495E+00 0.59911107E+03</pdfrwt>
<pdfrwt beam="2">  1       -2 0.10885997E-01 0.59911107E+03</pdfrwt>
<totfact> 0.13253022E+03</totfact>
</mgrwt>
</event>
<event>
 4    1  0.1837449E-005  0.5697802E+03  0.7818608E-02  0.9970165E-01
          2   -1    0    0  501    0  0.00000000000E+00  0.00000000000E+00  0.14671202188E+03  0.14671202191E+03  0.25500000000E-02 0.  1.
         -2   -1    0    0    0  501 -0.00000000000E+00 -0.00000000000E+00 -0.55320881153E+03  0.55320881154E+03  0.25500000000E-02 0. -1.
    5000001    1    1    2    0    0  0.22155921963E+03 -0.58775391444E+02 -0.24911823720E+03  0.37660049197E+03  0.16500000000E+03 0.  0.
   -5000001    1    1    2    0    0 -0.22155921963E+03  0.58775391444E+02 -0.15737855245E+03  0.32332034148E+03  0.16500000000E+03 0.  0.
<mgrwt>
<rscale>  0 0.56978025E+03</rscale>
<asrwt>0</asrwt>
<pdfrwt beam="1">  1        2 0.20958861E-01 0.56978025E+03</pdfrwt>
<pdfrwt beam="2">  1       -2 0.79029829E-01 0.56978025E+03</pdfrwt>
<totfact> 0.38590172E+02</totfact>
</mgrwt>
</event>
<event>
 4    1  0.1837449E-005  0.3957496E+03  0.7818608E-02  0.1045261E+00
          2   -1    0    0  501    0  0.00000000000E+00  0.00000000000E+00  0.72985863381E+02  0.72985863426E+02  0.25500000000E-02 0.  1.
         -2   -1    0    0    0  501 -0.00000000000E+00 -0.00000000000E+00 -0.53646609128E+03  0.53646609129E+03  0.25500000000E-02 0. -1.
    5000001    1    1    2    0    0 -0.53929597430E+02 -0.38708906490E+02 -0.36530880824E+03  0.40630321965E+03  0.16500000000E+03 0.  0.
   -5000001    1    1    2    0    0  0.53929597430E+02  0.38708906490E+02 -0.98171419667E+02  0.20314873507E+03  0.16500000000E+03 0.  0.
<mgrwt>
<rscale>  0 0.39574962E+03</rscale>
<asrwt>0</asrwt>
<pdfrwt beam="1">  1        2 0.10426552E-01 0.39574962E+03</pdfrwt>
<pdfrwt beam="2">  1       -2 0.76638011E-01 0.39574962E+03</pdfrwt>
<totfact> 0.95965330E+02</totfact>
</mgrwt>
</event>
<event>
 4    1  0.1837449E-005  0.1028742E+04  0.7818608E-02  0.9277571E-01
         -2   -1    0    0    0  501 -0.00000000000E+00  0.00000000000E+00  0.11740750881E+03  0.11740750884E+03  0.25500000000E-02 0. -1.
          2   -1    0    0  501    0  0.00000000000E+00 -0.00000000000E+00 -0.22534958719E+04  0.22534958719E+04  0.25500000000E-02 0.  1.
    5000001    1    1    2    0    0 -0.19485250931E+03  0.28398850766E+03 -0.18621851178E+04  0.19009406581E+04  0.16500000000E+03 0.  0.
   -5000001    1    1    2    0    0  0.19485250931E+03 -0.28398850766E+03 -0.27390324535E+03  0.46996272265E+03  0.16500000000E+03 0.  0.
<mgrwt>
<rscale>  0 0.10287416E+04</rscale>
<asrwt>0</asrwt>
<pdfrwt beam="1">  1        2 0.32192795E+00 0.10287416E+04</pdfrwt>
<pdfrwt beam="2">  1       -2 0.16772503E-01 0.10287416E+04</pdfrwt>
<totfact> 0.17245307E+02</totfact>
</mgrwt>
</event>
<event>
 4    1  0.1837449E-005  0.4328480E+03  0.7818608E-02  0.1032964E+00
          2   -1    0    0  501    0  0.00000000000E+00  0.00000000000E+00  0.17618215750E+04  0.17618215750E+04  0.25500000000E-02 0. -1.
         -2   -1    0    0    0  501 -0.00000000000E+00 -0.00000000000E+00 -0.26585749471E+02  0.26585749594E+02  0.25500000000E-02 0.  1.
    5000001    1    1    2    0    0 -0.10860750489E+02  0.13510027825E+03  0.72187258834E+03  0.75279152152E+03  0.16500000000E+03 0.  0.
   -5000001    1    1    2    0    0  0.10860750489E+02 -0.13510027825E+03  0.10133632372E+04  0.10356158031E+04  0.16500000000E+03 0.  0.
<mgrwt>
<rscale>  0 0.43284800E+03</rscale>
<asrwt>0</asrwt>
<pdfrwt beam="1">  1        2 0.25168886E+00 0.43284800E+03</pdfrwt>
<pdfrwt beam="2">  1       -2 0.37979632E-02 0.43284800E+03</pdfrwt>
<totfact> 0.34296113E+03</totfact>
</mgrwt>
</event>
<event>
 4    1  0.1837449E-005  0.4261929E+03  0.7818608E-02  0.1035069E+00
          2   -1    0    0  501    0  0.00000000000E+00  0.00000000000E+00  0.25061696193E+03  0.25061696194E+03  0.25500000000E-02 0.  1.
         -2   -1    0    0    0  501 -0.00000000000E+00 -0.00000000000E+00 -0.18119325453E+03  0.18119325455E+03  0.25500000000E-02 0. -1.
    5000001    1    1    2    0    0 -0.11538803006E+03 -0.74994461586E+01 -0.35589006239E+02  0.20460258194E+03  0.16500000000E+03 0.  0.
   -5000001    1    1    2    0    0  0.11538803006E+03  0.74994461586E+01  0.10501271363E+03  0.22720763455E+03  0.16500000000E+03 0.  0.
<mgrwt>
<rscale>  0 0.42619293E+03</rscale>
<asrwt>0</asrwt>
<pdfrwt beam="1">  1        2 0.35802422E-01 0.42619293E+03</pdfrwt>
<pdfrwt beam="2">  1       -2 0.25884751E-01 0.42619293E+03</pdfrwt>
<totfact> 0.19431038E+03</totfact>
</mgrwt>
</event>
<event>
 4    1  0.1837449E-005  0.5432876E+03  0.7818608E-02  0.1003060E+00
          2   -1    0    0  501    0  0.00000000000E+00  0.00000000000E+00  0.14526446356E+04  0.14526446356E+04  0.25500000000E-02 0.  1.
         -2   -1    0    0    0  501 -0.00000000000E+00 -0.00000000000E+00 -0.50797248176E+02  0.50797248240E+02  0.25500000000E-02 0. -1.
    5000001    1    1    2    0    0 -0.17858734441E+03  0.10967137977E+03  0.84322068539E+03  0.88440227012E+03  0.16500000000E+03 0.  0.
   -5000001    1    1    2    0    0  0.17858734441E+03 -0.10967137977E+03  0.55862670199E+03  0.61903961368E+03  0.16500000000E+03 0.  0.
<mgrwt>
<rscale>  0 0.54328759E+03</rscale>
<asrwt>0</asrwt>
<pdfrwt beam="1">  1        2 0.20752069E+00 0.54328759E+03</pdfrwt>
<pdfrwt beam="2">  1       -2 0.72567487E-02 0.54328759E+03</pdfrwt>
<totfact> 0.18053450E+03</totfact>
</mgrwt>
</event>
<event>
 4    1  0.1837449E-005  0.6995072E+03  0.7818608E-02  0.9718075E-01
         -2   -1    0    0    0  501 -0.00000000000E+00  0.00000000000E+00  0.57363355943E+02  0.57363356000E+02  0.25500000000E-02 0.  1.
          2   -1    0    0  501    0  0.00000000000E+00 -0.00000000000E+00 -0.21325041477E+04  0.21325041477E+04  0.25500000000E-02 0. -1.
    5000001    1    1    2    0    0 -0.29885341534E+03 -0.36230522193E+02 -0.82811150595E+03  0.89644837045E+03  0.16500000000E+03 0.  0.
   -5000001    1    1    2    0    0  0.29885341534E+03  0.36230522193E+02 -0.12470292858E+04  0.12934191332E+04  0.16500000000E+03 0.  0.
<mgrwt>
<rscale>  0 0.69950724E+03</rscale>
<asrwt>0</asrwt>
<pdfrwt beam="1">  1        2 0.30464340E+00 0.69950724E+03</pdfrwt>
<pdfrwt beam="2">  1       -2 0.81947665E-02 0.69950724E+03</pdfrwt>
<totfact> 0.66598801E+02</totfact>
</mgrwt>
</event>
<event>
 4    1  0.1837449E-005  0.9684378E+03  0.7818608E-02  0.9343855E-01
         -2   -1    0    0    0  501 -0.00000000000E+00  0.00000000000E+00  0.63226820735E+03  0.63226820735E+03  0.25500000000E-02 0. -1.
          2   -1    0    0  501    0  0.00000000000E+00 -0.00000000000E+00 -0.37083621970E+03  0.37083621970E+03  0.25500000000E-02 0.  1.
    5000001    1    1    2    0    0  0.17777038183E+03  0.41902957217E+03  0.12304404572E+03  0.49955272814E+03  0.16500000000E+03 0.  0.
   -5000001    1    1    2    0    0 -0.17777038183E+03 -0.41902957217E+03  0.13838794194E+03  0.50355169892E+03  0.16500000000E+03 0.  0.
<mgrwt>
<rscale>  0 0.96843782E+03</rscale>
<asrwt>0</asrwt>
<pdfrwt beam="1">  1        2 0.52976603E-01 0.96843782E+03</pdfrwt>
<pdfrwt beam="2">  1       -2 0.90324028E-01 0.96843782E+03</pdfrwt>
<totfact> 0.98741230E+01</totfact>
</mgrwt>
</event>
<event>
 4    1  0.1837449E-005  0.5481940E+03  0.7818608E-02  0.1001913E+00
         -2   -1    0    0    0  501 -0.00000000000E+00  0.00000000000E+00  0.38108020864E+02  0.38108020949E+02  0.25500000000E-02 0. -1.
          2   -1    0    0  501    0  0.00000000000E+00 -0.00000000000E+00 -0.19714792706E+04  0.19714792706E+04  0.25500000000E-02 0.  1.
    5000001    1    1    2    0    0  0.16200875802E+03 -0.13186581017E+03 -0.72717619614E+03  0.77436790339E+03  0.16500000000E+03 0.  0.
   -5000001    1    1    2    0    0 -0.16200875802E+03  0.13186581017E+03 -0.12061950536E+04  0.12352193882E+04  0.16500000000E+03 0.  0.
<mgrwt>
<rscale>  0 0.54819403E+03</rscale>
<asrwt>0</asrwt>
<pdfrwt beam="1">  1        2 0.28163983E+00 0.54819403E+03</pdfrwt>
<pdfrwt beam="2">  1       -2 0.54440042E-02 0.54819403E+03</pdfrwt>
<totfact> 0.15430290E+03</totfact>
</mgrwt>
</event>
<event>
 4    1  0.1837449E-005  0.5843823E+03  0.7818608E-02  0.9938348E-01
         -2   -1    0    0    0  501 -0.00000000000E+00  0.00000000000E+00  0.71223161522E+02  0.71223161568E+02  0.25500000000E-02 0. -1.
          2   -1    0    0  501    0  0.00000000000E+00 -0.00000000000E+00 -0.11987065473E+04  0.11987065473E+04  0.25500000000E-02 0.  1.
    5000001    1    1    2    0    0  0.13269183675E+03  0.20079207929E+03 -0.53106629975E+03  0.60595461660E+03  0.16500000000E+03 0.  0.
   -5000001    1    1    2    0    0 -0.13269183675E+03 -0.20079207929E+03 -0.59641708600E+03  0.66397509224E+03  0.16500000000E+03 0.  0.
<mgrwt>
<rscale>  0 0.58438231E+03</rscale>
<asrwt>0</asrwt>
<pdfrwt beam="1">  1        2 0.17124378E+00 0.58438231E+03</pdfrwt>
<pdfrwt beam="2">  1       -2 0.10174738E-01 0.58438231E+03</pdfrwt>
<totfact> 0.14399103E+03</totfact>
</mgrwt>
</event>
<event>
 4    1  0.1837449E-005  0.4660237E+03  0.7818608E-02  0.1023049E+00
          2   -1    0    0  501    0  0.00000000000E+00  0.00000000000E+00  0.25900732941E+03  0.25900732942E+03  0.25500000000E-02 0.  1.
         -2   -1    0    0    0  501 -0.00000000000E+00 -0.00000000000E+00 -0.20962538565E+03  0.20962538567E+03  0.25500000000E-02 0. -1.
    5000001    1    1    2    0    0  0.11194876282E+03 -0.11953266729E+03  0.40556732049E+02  0.23598820428E+03  0.16500000000E+03 0.  0.
   -5000001    1    1    2    0    0 -0.11194876282E+03  0.11953266729E+03  0.88252117127E+01  0.23264451081E+03  0.16500000000E+03 0.  0.
<mgrwt>
<rscale>  0 0.46602365E+03</rscale>
<asrwt>0</asrwt>
<pdfrwt beam="1">  1        2 0.37001047E-01 0.46602365E+03</pdfrwt>
<pdfrwt beam="2">  1       -2 0.29946484E-01 0.46602365E+03</pdfrwt>
<totfact> 0.14396367E+03</totfact>
</mgrwt>
</event>
<event>
 4    1  0.1837449E-005  0.4282892E+03  0.7818608E-02  0.1034402E+00
         -2   -1    0    0    0  501 -0.00000000000E+00  0.00000000000E+00  0.38691025633E+02  0.38691025717E+02  0.25500000000E-02 0. -1.
          2   -1    0    0  501    0  0.00000000000E+00 -0.00000000000E+00 -0.11852337098E+04  0.11852337098E+04  0.25500000000E-02 0.  1.
    5000001    1    1    2    0    0  0.10032260644E+03 -0.81342413262E+02 -0.69951904911E+03  0.73022812437E+03  0.16500000000E+03 0.  0.
   -5000001    1    1    2    0    0 -0.10032260644E+03  0.81342413262E+02 -0.44702363504E+03  0.49369661113E+03  0.16500000000E+03 0.  0.
<mgrwt>
<rscale>  0 0.42828919E+03</rscale>
<asrwt>0</asrwt>
<pdfrwt beam="1">  1        2 0.16931908E+00 0.42828919E+03</pdfrwt>
<pdfrwt beam="2">  1       -2 0.55272901E-02 0.42828919E+03</pdfrwt>
<totfact> 0.38512668E+03</totfact>
</mgrwt>
</event>
<event>
 4    1  0.1837449E-005  0.6133597E+03  0.7818608E-02  0.9878070E-01
          2   -1    0    0  501    0  0.00000000000E+00  0.00000000000E+00  0.12280311561E+04  0.12280311561E+04  0.25500000000E-02 0.  1.
         -2   -1    0    0    0  501 -0.00000000000E+00 -0.00000000000E+00 -0.76588072842E+02  0.76588072885E+02  0.25500000000E-02 0. -1.
    5000001    1    1    2    0    0  0.23033535551E+03 -0.10714689710E+03  0.67756724469E+03  0.74219755095E+03  0.16500000000E+03 0.  0.
   -5000001    1    1    2    0    0 -0.23033535551E+03  0.10714689710E+03  0.47387583860E+03  0.56242167808E+03  0.16500000000E+03 0.  0.
<mgrwt>
<rscale>  0 0.61335973E+03</rscale>
<asrwt>0</asrwt>
<pdfrwt beam="1">  1        2 0.17543302E+00 0.61335973E+03</pdfrwt>
<pdfrwt beam="2">  1       -2 0.10941153E-01 0.61335973E+03</pdfrwt>
<totfact> 0.12311040E+03</totfact>
</mgrwt>
</event>
<event>
 4    1  0.1837449E-005  0.3449980E+03  0.7818608E-02  0.1064687E+00
          2   -1    0    0  501    0  0.00000000000E+00  0.00000000000E+00  0.16523368094E+04  0.16523368094E+04  0.25500000000E-02 0.  1.
         -2   -1    0    0    0  501 -0.00000000000E+00 -0.00000000000E+00 -0.18008380099E+02  0.18008380279E+02  0.25500000000E-02 0. -1.
    5000001    1    1    2    0    0 -0.24129667088E+02  0.44051618078E+02  0.83096371294E+03  0.84867454193E+03  0.16500000000E+03 0.  0.
   -5000001    1    1    2    0    0  0.24129667088E+02 -0.44051618078E+02  0.80336471634E+03  0.82167064774E+03  0.16500000000E+03 0.  0.
<mgrwt>
<rscale>  0 0.34499803E+03</rscale>
<asrwt>0</asrwt>
<pdfrwt beam="1">  1        2 0.23604813E+00 0.34499803E+03</pdfrwt>
<pdfrwt beam="2">  1       -2 0.25726256E-02 0.34499803E+03</pdfrwt>
<totfact> 0.69905194E+03</totfact>
</mgrwt>
</event>
<event>
 4    1  0.1837449E-005  0.9704210E+03  0.7818608E-02  0.9341595E-01
         -2   -1    0    0    0  501 -0.00000000000E+00  0.00000000000E+00  0.91191781993E+02  0.91191782029E+02  0.25500000000E-02 0. -1.
          2   -1    0    0  501    0  0.00000000000E+00 -0.00000000000E+00 -0.25816936938E+04  0.25816936938E+04  0.25500000000E-02 0.  1.
    5000001    1    1    2    0    0  0.43781799195E+03  0.68644387965E+02 -0.15445470223E+04  0.16153164242E+04  0.16500000000E+03 0.  0.
   -5000001    1    1    2    0    0 -0.43781799195E+03 -0.68644387965E+02 -0.94595488955E+03  0.10575690517E+04  0.16500000000E+03 0.  0.
<mgrwt>
<rscale>  0 0.97042104E+03</rscale>
<asrwt>0</asrwt>
<pdfrwt beam="1">  1        2 0.36881334E+00 0.97042104E+03</pdfrwt>
<pdfrwt beam="2">  1       -2 0.13027399E-01 0.97042104E+03</pdfrwt>
<totfact> 0.17975733E+02</totfact>
</mgrwt>
</event>
<event>
 4    1  0.1837449E-005  0.5231665E+03  0.7818608E-02  0.1007903E+00
         -2   -1    0    0    0  501 -0.00000000000E+00  0.00000000000E+00  0.36235507549E+02  0.36235507639E+02  0.25500000000E-02 0. -1.
          2   -1    0    0  501    0  0.00000000000E+00 -0.00000000000E+00 -0.18883631395E+04  0.18883631395E+04  0.25500000000E-02 0.  1.
    5000001    1    1    2    0    0  0.11122658016E+03 -0.95616712809E+02 -0.14422291037E+04  0.14590283395E+04  0.16500000000E+03 0.  0.
   -5000001    1    1    2    0    0 -0.11122658016E+03  0.95616712809E+02 -0.40989852831E+03  0.46557030770E+03  0.16500000000E+03 0.  0.
<mgrwt>
<rscale>  0 0.52316650E+03</rscale>
<asrwt>0</asrwt>
<pdfrwt beam="1">  1        2 0.26976610E+00 0.52316650E+03</pdfrwt>
<pdfrwt beam="2">  1       -2 0.51765023E-02 0.52316650E+03</pdfrwt>
<totfact> 0.18383139E+03</totfact>
</mgrwt>
</event>
<event>
 4    1  0.1837449E-005  0.8670273E+03  0.7818608E-02  0.9467764E-01
          2   -1    0    0  501    0  0.00000000000E+00  0.00000000000E+00  0.81441905312E+03  0.81441905312E+03  0.25500000000E-02 0.  1.
         -2   -1    0    0    0  501 -0.00000000000E+00 -0.00000000000E+00 -0.23075847820E+03  0.23075847821E+03  0.25500000000E-02 0. -1.
    5000001    1    1    2    0    0 -0.34855955215E+03  0.18111780984E+03  0.38835603090E+03  0.57649182923E+03  0.16500000000E+03 0.  0.
   -5000001    1    1    2    0    0  0.34855955215E+03 -0.18111780984E+03  0.19530454402E+03  0.46868570210E+03  0.16500000000E+03 0.  0.
<mgrwt>
<rscale>  0 0.86702734E+03</rscale>
<asrwt>0</asrwt>
<pdfrwt beam="1">  1        2 0.11634558E+00 0.86702734E+03</pdfrwt>
<pdfrwt beam="2">  1       -2 0.32965496E-01 0.86702734E+03</pdfrwt>
<totfact> 0.31931547E+02</totfact>
</mgrwt>
</event>
<event>
 4    1  0.1837449E-005  0.4650422E+03  0.7818608E-02  0.1023329E+00
         -2   -1    0    0    0  501 -0.00000000000E+00  0.00000000000E+00  0.24386751484E+02  0.24386751618E+02  0.25500000000E-02 0. -1.
          2   -1    0    0  501    0  0.00000000000E+00 -0.00000000000E+00 -0.22170264377E+04  0.22170264377E+04  0.25500000000E-02 0.  1.
    5000001    1    1    2    0    0 -0.84688529726E+02 -0.13693969207E+03 -0.95041050262E+03  0.97797226434E+03  0.16500000000E+03 0.  0.
   -5000001    1    1    2    0    0  0.84688529726E+02  0.13693969207E+03 -0.12422291836E+04  0.12634409250E+04  0.16500000000E+03 0.  0.
<mgrwt>
<rscale>  0 0.46504225E+03</rscale>
<asrwt>0</asrwt>
<pdfrwt beam="1">  1        2 0.31671793E+00 0.46504225E+03</pdfrwt>
<pdfrwt beam="2">  1       -2 0.34838231E-02 0.46504225E+03</pdfrwt>
<totfact> 0.23181818E+03</totfact>
</mgrwt>
</event>
<event>
 4    1  0.1837449E-005  0.3524596E+03  0.7818608E-02  0.1061610E+00
         -2   -1    0    0    0  501 -0.00000000000E+00  0.00000000000E+00  0.16984923871E+03  0.16984923873E+03  0.25500000000E-02 0. -1.
          2   -1    0    0  501    0  0.00000000000E+00 -0.00000000000E+00 -0.18285005402E+03  0.18285005404E+03  0.25500000000E-02 0.  1.
    5000001    1    1    2    0    0 -0.53873410748E+00 -0.57307913922E+02 -0.29914081055E+02  0.17721269559E+03  0.16500000000E+03 0.  0.
   -5000001    1    1    2    0    0  0.53873410748E+00  0.57307913922E+02  0.16913265739E+02  0.17548659718E+03  0.16500000000E+03 0.  0.
<mgrwt>
<rscale>  0 0.35245960E+03</rscale>
<asrwt>0</asrwt>
<pdfrwt beam="1">  1        2 0.26121436E-01 0.35245960E+03</pdfrwt>
<pdfrwt beam="2">  1       -2 0.24264177E-01 0.35245960E+03</pdfrwt>
<totfact> 0.30824855E+03</totfact>
</mgrwt>
</event>
<event>
 4    1  0.1837449E-005  0.5992486E+03  0.7818608E-02  0.9906966E-01
          2   -1    0    0  501    0  0.00000000000E+00  0.00000000000E+00  0.10413191495E+03  0.10413191499E+03  0.25500000000E-02 0.  1.
         -2   -1    0    0    0  501 -0.00000000000E+00 -0.00000000000E+00 -0.86212498008E+03  0.86212498008E+03  0.25500000000E-02 0. -1.
    5000001    1    1    2    0    0 -0.19404652769E+03 -0.15435952843E+03 -0.32628143076E+03  0.44177538522E+03  0.16500000000E+03 0.  0.
   -5000001    1    1    2    0    0  0.19404652769E+03  0.15435952843E+03 -0.43171163437E+03  0.52448150985E+03  0.16500000000E+03 0.  0.
<mgrwt>
<rscale>  0 0.59924861E+03</rscale>
<asrwt>0</asrwt>
<pdfrwt beam="1">  1        2 0.14875988E-01 0.59924861E+03</pdfrwt>
<pdfrwt beam="2">  1       -2 0.12316071E+00 0.59924861E+03</pdfrwt>
<totfact> 0.20428595E+02</totfact>
</mgrwt>
</event>
<event>
 4    1  0.1837449E-005  0.6279735E+03  0.7818608E-02  0.9849011E-01
          2   -1    0    0  501    0  0.00000000000E+00  0.00000000000E+00  0.18447825300E+04  0.18447825300E+04  0.25500000000E-02 0.  1.
         -2   -1    0    0    0  501 -0.00000000000E+00 -0.00000000000E+00 -0.53441350398E+02  0.53441350459E+02  0.25500000000E-02 0. -1.
    5000001    1    1    2    0    0 -0.22006292064E+03  0.27245593606E+02  0.13459797683E+04  0.13740657001E+04  0.16500000000E+03 0.  0.
   -5000001    1    1    2    0    0  0.22006292064E+03 -0.27245593606E+02  0.44536141135E+03  0.52415818045E+03  0.16500000000E+03 0.  0.
<mgrwt>
<rscale>  0 0.62797347E+03</rscale>
<asrwt>0</asrwt>
<pdfrwt beam="1">  1        2 0.26354038E+00 0.62797347E+03</pdfrwt>
<pdfrwt beam="2">  1       -2 0.76344782E-02 0.62797347E+03</pdfrwt>
<totfact> 0.10458347E+03</totfact>
</mgrwt>
</event>
<event>
 4    1  0.1837449E-005  0.5401268E+03  0.7818608E-02  0.1003805E+00
          2   -1    0    0  501    0  0.00000000000E+00  0.00000000000E+00  0.13345289430E+03  0.13345289432E+03  0.25500000000E-02 0.  1.
         -2   -1    0    0    0  501 -0.00000000000E+00 -0.00000000000E+00 -0.54651666978E+03  0.54651666978E+03  0.25500000000E-02 0. -1.
    5000001    1    1    2    0    0 -0.10417336056E+03  0.18641196142E+03 -0.19346572946E+03  0.33204743169E+03  0.16500000000E+03 0.  0.
   -5000001    1    1    2    0    0  0.10417336056E+03 -0.18641196142E+03 -0.21959804602E+03  0.34792213242E+03  0.16500000000E+03 0.  0.
<mgrwt>
<rscale>  0 0.54012677E+03</rscale>
<asrwt>0</asrwt>
<pdfrwt beam="1">  1        2 0.19064699E-01 0.54012677E+03</pdfrwt>
<pdfrwt beam="2">  1       -2 0.78073809E-01 0.54012677E+03</pdfrwt>
<totfact> 0.44312907E+02</totfact>
</mgrwt>
</event>
<event>
 4    1  0.1837449E-005  0.5878521E+03  0.7818608E-02  0.9930935E-01
         -2   -1    0    0    0  501 -0.00000000000E+00  0.00000000000E+00  0.91246217410E+02  0.91246217446E+02  0.25500000000E-02 0. -1.
          2   -1    0    0  501    0  0.00000000000E+00 -0.00000000000E+00 -0.94680655861E+03  0.94680655861E+03  0.25500000000E-02 0.  1.
    5000001    1    1    2    0    0 -0.18670314357E+03 -0.14829961903E+03 -0.34278699590E+03  0.44897523916E+03  0.16500000000E+03 0.  0.
   -5000001    1    1    2    0    0  0.18670314357E+03  0.14829961903E+03 -0.51277334530E+03  0.58907753690E+03  0.16500000000E+03 0.  0.
<mgrwt>
<rscale>  0 0.58785208E+03</rscale>
<asrwt>0</asrwt>
<pdfrwt beam="1">  1        2 0.13525807E+00 0.58785208E+03</pdfrwt>
<pdfrwt beam="2">  1       -2 0.13035174E-01 0.58785208E+03</pdfrwt>
<totfact> 0.13504799E+03</totfact>
</mgrwt>
</event>
<event>
 4    1  0.1837449E-005  0.6656738E+03  0.7818608E-02  0.9777805E-01
          2   -1    0    0  501    0  0.00000000000E+00  0.00000000000E+00  0.25677929246E+03  0.25677929248E+03  0.25500000000E-02 0.  1.
         -2   -1    0    0    0  501 -0.00000000000E+00 -0.00000000000E+00 -0.43142267275E+03  0.43142267276E+03  0.25500000000E-02 0. -1.
    5000001    1    1    2    0    0 -0.12030818636E+03 -0.16448329934E+03  0.12462006400E+03  0.29031702640E+03  0.16500000000E+03 0.  0.
   -5000001    1    1    2    0    0  0.12030818636E+03  0.16448329934E+03 -0.29926344429E+03  0.39788493884E+03  0.16500000000E+03 0.  0.
<mgrwt>
<rscale>  0 0.66567382E+03</rscale>
<asrwt>0</asrwt>
<pdfrwt beam="1">  1        2 0.36682756E-01 0.66567382E+03</pdfrwt>
<pdfrwt beam="2">  1       -2 0.61631811E-01 0.66567382E+03</pdfrwt>
<totfact> 0.35032434E+02</totfact>
</mgrwt>
</event>
<event>
 4    1  0.1837449E-005  0.7278001E+03  0.7818608E-02  0.9670837E-01
          2   -1    0    0  501    0  0.00000000000E+00  0.00000000000E+00  0.30376893776E+04  0.30376893776E+04  0.25500000000E-02 0.  1.
         -2   -1    0    0    0  501 -0.00000000000E+00 -0.00000000000E+00 -0.43593411597E+02  0.43593411672E+02  0.25500000000E-02 0. -1.
    5000001    1    1    2    0    0 -0.30707825843E+03 -0.59934938792E+02  0.18589976065E+04  0.18923494272E+04  0.16500000000E+03 0.  0.
   -5000001    1    1    2    0    0  0.30707825843E+03  0.59934938792E+02  0.11350983596E+04  0.11889333621E+04  0.16500000000E+03 0.  0.
<mgrwt>
<rscale>  0 0.72780009E+03</rscale>
<asrwt>0</asrwt>
<pdfrwt beam="1">  1        2 0.43395560E+00 0.72780009E+03</pdfrwt>
<pdfrwt beam="2">  1       -2 0.62276306E-02 0.72780009E+03</pdfrwt>
<totfact> 0.34578340E+02</totfact>
</mgrwt>
</event>
<event>
 4    1  0.1837449E-005  0.4093672E+03  0.7818608E-02  0.1040584E+00
          2   -1    0    0  501    0  0.00000000000E+00  0.00000000000E+00  0.57087618441E+03  0.57087618442E+03  0.25500000000E-02 0.  1.
         -2   -1    0    0    0  501 -0.00000000000E+00 -0.00000000000E+00 -0.73387844675E+02  0.73387844720E+02  0.25500000000E-02 0. -1.
    5000001    1    1    2    0    0 -0.97781244789E+02 -0.50673918781E+02  0.16940575533E+03  0.26086841092E+03  0.16500000000E+03 0.  0.
   -5000001    1    1    2    0    0  0.97781244789E+02  0.50673918781E+02  0.32808258440E+03  0.38339561822E+03  0.16500000000E+03 0.  0.
<mgrwt>
<rscale>  0 0.40936718E+03</rscale>
<asrwt>0</asrwt>
<pdfrwt beam="1">  1        2 0.81553743E-01 0.40936718E+03</pdfrwt>
<pdfrwt beam="2">  1       -2 0.10483978E-01 0.40936718E+03</pdfrwt>
<totfact> 0.36084389E+03</totfact>
</mgrwt>
</event>
<event>
 4    1  0.1837449E-005  0.6083562E+03  0.7818608E-02  0.9888220E-01
          2   -1    0    0  501    0  0.00000000000E+00  0.00000000000E+00  0.18110308952E+04  0.18110308952E+04  0.25500000000E-02 0.  1.
         -2   -1    0    0    0  501 -0.00000000000E+00 -0.00000000000E+00 -0.51089311985E+02  0.51089312048E+02  0.25500000000E-02 0. -1.
    5000001    1    1    2    0    0 -0.10116268122E+03 -0.21025238525E+03  0.11989424189E+04  0.12325290574E+04  0.16500000000E+03 0.  0.
   -5000001    1    1    2    0    0  0.10116268122E+03  0.21025238525E+03  0.56099916436E+03  0.62959114986E+03  0.16500000000E+03 0.  0.
<mgrwt>
<rscale>  0 0.60835622E+03</rscale>
<asrwt>0</asrwt>
<pdfrwt beam="1">  1        2 0.25871871E+00 0.60835622E+03</pdfrwt>
<pdfrwt beam="2">  1       -2 0.72984730E-02 0.60835622E+03</pdfrwt>
<totfact> 0.11693857E+03</totfact>
</mgrwt>
</event>
<event>
 4    1  0.1837449E-005  0.3720394E+03  0.7818608E-02  0.1053916E+00
         -2   -1    0    0    0  501 -0.00000000000E+00  0.00000000000E+00  0.31721267859E+02  0.31721267962E+02  0.25500000000E-02 0. -1.
          2   -1    0    0  501    0  0.00000000000E+00 -0.00000000000E+00 -0.10908559595E+04  0.10908559595E+04  0.25500000000E-02 0.  1.
    5000001    1    1    2    0    0  0.13278247366E+02 -0.72491418486E+02 -0.66270842704E+03  0.68690521681E+03  0.16500000000E+03 0.  0.
   -5000001    1    1    2    0    0 -0.13278247366E+02  0.72491418486E+02 -0.39642626463E+03  0.43567201069E+03  0.16500000000E+03 0.  0.
<mgrwt>
<rscale>  0 0.37203943E+03</rscale>
<asrwt>0</asrwt>
<pdfrwt beam="1">  1        2 0.15583654E+00 0.37203943E+03</pdfrwt>
<pdfrwt beam="2">  1       -2 0.45316104E-02 0.37203943E+03</pdfrwt>
<totfact> 0.58973700E+03</totfact>
</mgrwt>
</event>
<event>
 4    1  0.1837449E-005  0.4678414E+03  0.7818608E-02  0.1022531E+00
         -2   -1    0    0    0  501 -0.00000000000E+00  0.00000000000E+00  0.47168469919E+02  0.47168469988E+02  0.25500000000E-02 0. -1.
          2   -1    0    0  501    0  0.00000000000E+00 -0.00000000000E+00 -0.11600737736E+04  0.11600737736E+04  0.25500000000E-02 0.  1.
    5000001    1    1    2    0    0  0.65055671024E+02 -0.14292839304E+03 -0.41910233177E+03  0.47700370058E+03  0.16500000000E+03 0.  0.
   -5000001    1    1    2    0    0 -0.65055671024E+02  0.14292839304E+03 -0.69380297191E+03  0.73023854301E+03  0.16500000000E+03 0.  0.
<mgrwt>
<rscale>  0 0.46784145E+03</rscale>
<asrwt>0</asrwt>
<pdfrwt beam="1">  1        2 0.16572481E+00 0.46784145E+03</pdfrwt>
<pdfrwt beam="2">  1       -2 0.67383536E-02 0.46784145E+03</pdfrwt>
<totfact> 0.29232309E+03</totfact>
</mgrwt>
</event>
<event>
 4    1  0.1837449E-005  0.5977306E+03  0.7818608E-02  0.9910125E-01
          2   -1    0    0  501    0  0.00000000000E+00  0.00000000000E+00  0.10348562310E+04  0.10348562310E+04  0.25500000000E-02 0.  1.
         -2   -1    0    0    0  501 -0.00000000000E+00 -0.00000000000E+00 -0.86311968725E+02  0.86311968763E+02  0.25500000000E-02 0. -1.
    5000001    1    1    2    0    0  0.24834628949E+03 -0.47990820047E+01  0.43691925266E+03  0.52898236647E+03  0.16500000000E+03 0.  0.
   -5000001    1    1    2    0    0 -0.24834628949E+03  0.47990820047E+01  0.51162500962E+03  0.59218583330E+03  0.16500000000E+03 0.  0.
<mgrwt>
<rscale>  0 0.59773064E+03</rscale>
<asrwt>0</asrwt>
<pdfrwt beam="1">  1        2 0.14783661E+00 0.59773064E+03</pdfrwt>
<pdfrwt beam="2">  1       -2 0.12330281E-01 0.59773064E+03</pdfrwt>
<totfact> 0.13074640E+03</totfact>
</mgrwt>
</event>
<event>
 4    1  0.1837449E-005  0.3863250E+03  0.7818608E-02  0.1048620E+00
         -2   -1    0    0    0  501 -0.00000000000E+00  0.00000000000E+00  0.28111515475E+02  0.28111515591E+02  0.25500000000E-02 0. -1.
          2   -1    0    0  501    0  0.00000000000E+00 -0.00000000000E+00 -0.13272761505E+04  0.13272761505E+04  0.25500000000E-02 0.  1.
    5000001    1    1    2    0    0  0.65160776814E+02  0.74676505821E+02 -0.59255179070E+03  0.62302899773E+03  0.16500000000E+03 0.  0.
   -5000001    1    1    2    0    0 -0.65160776814E+02 -0.74676505821E+02 -0.70661284436E+03  0.73235866839E+03  0.16500000000E+03 0.  0.
<mgrwt>
<rscale>  0 0.38632496E+03</rscale>
<asrwt>0</asrwt>
<pdfrwt beam="1">  1        2 0.18961084E+00 0.38632496E+03</pdfrwt>
<pdfrwt beam="2">  1       -2 0.40159316E-02 0.38632496E+03</pdfrwt>
<totfact> 0.52574609E+03</totfact>
</mgrwt>
</event>
<event>
 4    1  0.1837449E-005  0.3683838E+03  0.7818608E-02  0.1055313E+00
          2   -1    0    0  501    0  0.00000000000E+00  0.00000000000E+00  0.12036497565E+03  0.12036497567E+03  0.25500000000E-02 0.  1.
         -2   -1    0    0    0  501 -0.00000000000E+00 -0.00000000000E+00 -0.28186478794E+03  0.28186478795E+03  0.25500000000E-02 0. -1.
    5000001    1    1    2    0    0 -0.76140712624E+02  0.28932569413E+02 -0.71802731571E+02  0.19752248974E+03  0.16500000000E+03 0.  0.
   -5000001    1    1    2    0    0  0.76140712624E+02 -0.28932569413E+02 -0.89697080720E+02  0.20470727388E+03  0.16500000000E+03 0.  0.
<mgrwt>
<rscale>  0 0.36838376E+03</rscale>
<asrwt>0</asrwt>
<pdfrwt beam="1">  1        2 0.17194997E-01 0.36838376E+03</pdfrwt>
<pdfrwt beam="2">  1       -2 0.40266398E-01 0.36838376E+03</pdfrwt>
<totfact> 0.19614119E+03</totfact>
</mgrwt>
</event>
<event>
 4    1  0.1837449E-005  0.7240752E+03  0.7818608E-02  0.9676924E-01
         -2   -1    0    0    0  501 -0.00000000000E+00  0.00000000000E+00  0.75348354029E+02  0.75348354072E+02  0.25500000000E-02 0. -1.
          2   -1    0    0  501    0  0.00000000000E+00 -0.00000000000E+00 -0.17395365641E+04  0.17395365641E+04  0.25500000000E-02 0.  1.
    5000001    1    1    2    0    0  0.31451704014E+03  0.42087869977E+02 -0.69133172323E+03  0.77836810628E+03  0.16500000000E+03 0.  0.
   -5000001    1    1    2    0    0 -0.31451704014E+03 -0.42087869977E+02 -0.97285648686E+03  0.10365168119E+04  0.16500000000E+03 0.  0.
<mgrwt>
<rscale>  0 0.72407518E+03</rscale>
<asrwt>0</asrwt>
<pdfrwt beam="1">  1        2 0.24850520E+00 0.72407518E+03</pdfrwt>
<pdfrwt beam="2">  1       -2 0.10764052E-01 0.72407518E+03</pdfrwt>
<totfact> 0.67616514E+02</totfact>
</mgrwt>
</event>
<event>
 4    1  0.1837449E-005  0.4524300E+03  0.7818608E-02  0.1027000E+00
         -2   -1    0    0    0  501 -0.00000000000E+00  0.00000000000E+00  0.27314518159E+02  0.27314518278E+02  0.25500000000E-02 0. -1.
          2   -1    0    0  501    0  0.00000000000E+00 -0.00000000000E+00 -0.18734810903E+04  0.18734810903E+04  0.25500000000E-02 0.  1.
    5000001    1    1    2    0    0  0.24037283803E+02 -0.84939532125E+02 -0.38907606450E+03  0.43173799820E+03  0.16500000000E+03 0.  0.
   -5000001    1    1    2    0    0 -0.24037283803E+02  0.84939532125E+02 -0.14570905076E+04  0.14690576103E+04  0.16500000000E+03 0.  0.
<mgrwt>
<rscale>  0 0.45243003E+03</rscale>
<asrwt>0</asrwt>
<pdfrwt beam="1">  1        2 0.26764007E+00 0.45243003E+03</pdfrwt>
<pdfrwt beam="2">  1       -2 0.39020752E-02 0.45243003E+03</pdfrwt>
<totfact> 0.28938177E+03</totfact>
</mgrwt>
</event>
<event>
 4    1  0.1837449E-005  0.1292679E+04  0.7818608E-02  0.9035391E-01
          2   -1    0    0  501    0  0.00000000000E+00  0.00000000000E+00  0.91917792499E+03  0.91917792500E+03  0.25500000000E-02 0.  1.
         -2   -1    0    0    0  501 -0.00000000000E+00 -0.00000000000E+00 -0.45448722823E+03  0.45448722824E+03  0.25500000000E-02 0. -1.
    5000001    1    1    2    0    0 -0.37593292489E+03 -0.47351874384E+03  0.40031150345E+03  0.74365305390E+03  0.16500000000E+03 0.  0.
   -5000001    1    1    2    0    0  0.37593292489E+03  0.47351874384E+03  0.64379193311E+02  0.63001209934E+03  0.16500000000E+03 0.  0.
<mgrwt>
<rscale>  0 0.12926788E+04</rscale>
<asrwt>0</asrwt>
<pdfrwt beam="1">  1        2 0.13131113E+00 0.12926788E+04</pdfrwt>
<pdfrwt beam="2">  1       -2 0.64926747E-01 0.12926788E+04</pdfrwt>
<totfact> 0.67888101E+01</totfact>
</mgrwt>
</event>
<event>
 4    1  0.1837449E-005  0.4398876E+03  0.7818608E-02  0.1030781E+00
         -2   -1    0    0    0  501 -0.00000000000E+00  0.00000000000E+00  0.83292354300E+02  0.83292354339E+02  0.25500000000E-02 0. -1.
          2   -1    0    0  501    0  0.00000000000E+00 -0.00000000000E+00 -0.58078895382E+03  0.58078895383E+03  0.25500000000E-02 0.  1.
    5000001    1    1    2    0    0 -0.13332472748E+03  0.41720749642E+02 -0.18772033948E+03  0.28632154960E+03  0.16500000000E+03 0.  0.
   -5000001    1    1    2    0    0  0.13332472748E+03 -0.41720749642E+02 -0.30977626004E+03  0.37775975857E+03  0.16500000000E+03 0.  0.
<mgrwt>
<rscale>  0 0.43988762E+03</rscale>
<asrwt>0</asrwt>
<pdfrwt beam="1">  1        2 0.82969849E-01 0.43988762E+03</pdfrwt>
<pdfrwt beam="2">  1       -2 0.11898908E-01 0.43988762E+03</pdfrwt>
<totfact> 0.28834392E+03</totfact>
</mgrwt>
</event>
<event>
 4    1  0.1837449E-005  0.4470132E+03  0.7818608E-02  0.1028616E+00
          2   -1    0    0  501    0  0.00000000000E+00  0.00000000000E+00  0.19988375831E+04  0.19988375831E+04  0.25500000000E-02 0.  1.
         -2   -1    0    0    0  501 -0.00000000000E+00 -0.00000000000E+00 -0.24992129461E+02  0.24992129591E+02  0.25500000000E-02 0. -1.
    5000001    1    1    2    0    0 -0.12544510580E+03  0.22549491721E+02  0.13515230674E+04  0.13675103494E+04  0.16500000000E+03 0.  0.
   -5000001    1    1    2    0    0  0.12544510580E+03 -0.22549491721E+02  0.62232238621E+03  0.65631936321E+03  0.16500000000E+03 0.  0.
<mgrwt>
<rscale>  0 0.44701323E+03</rscale>
<asrwt>0</asrwt>
<pdfrwt beam="1">  1        2 0.28554820E+00 0.44701323E+03</pdfrwt>
<pdfrwt beam="2">  1       -2 0.35703045E-02 0.44701323E+03</pdfrwt>
<totfact> 0.28701247E+03</totfact>
</mgrwt>
</event>
<event>
 4    1  0.1837449E-005  0.5671794E+03  0.7818608E-02  0.9975940E-01
         -2   -1    0    0    0  501 -0.00000000000E+00  0.00000000000E+00  0.94434162398E+02  0.94434162432E+02  0.25500000000E-02 0. -1.
          2   -1    0    0  501    0  0.00000000000E+00 -0.00000000000E+00 -0.85163161572E+03  0.85163161572E+03  0.25500000000E-02 0.  1.
    5000001    1    1    2    0    0  0.32340028439E+02 -0.20163351364E+03 -0.55744397923E+03  0.61617427830E+03  0.16500000000E+03 0.  0.
   -5000001    1    1    2    0    0 -0.32340028439E+02  0.20163351364E+03 -0.19975347409E+03  0.32989149985E+03  0.16500000000E+03 0.  0.
<mgrwt>
<rscale>  0 0.56717940E+03</rscale>
<asrwt>0</asrwt>
<pdfrwt beam="1">  1        2 0.12166166E+00 0.56717940E+03</pdfrwt>
<pdfrwt beam="2">  1       -2 0.13490595E-01 0.56717940E+03</pdfrwt>
<totfact> 0.14698435E+03</totfact>
</mgrwt>
</event>
<event>
 4    1  0.1837449E-005  0.4392098E+03  0.7818608E-02  0.1030990E+00
          2   -1    0    0  501    0  0.00000000000E+00  0.00000000000E+00  0.37684956451E+04  0.37684956451E+04  0.25500000000E-02 0.  1.
         -2   -1    0    0    0  501 -0.00000000000E+00 -0.00000000000E+00 -0.12797229298E+02  0.12797229552E+02  0.25500000000E-02 0. -1.
    5000001    1    1    2    0    0 -0.13537386918E+03  0.21492223365E+02  0.14728177143E+04  0.14883564828E+04  0.16500000000E+03 0.  0.
   -5000001    1    1    2    0    0  0.13537386918E+03 -0.21492223365E+02  0.22828807015E+04  0.22929363919E+04  0.16500000000E+03 0.  0.
<mgrwt>
<rscale>  0 0.43920976E+03</rscale>
<asrwt>0</asrwt>
<pdfrwt beam="1">  1        2 0.53835764E+00 0.43920976E+03</pdfrwt>
<pdfrwt beam="2">  1       -2 0.18281718E-02 0.43920976E+03</pdfrwt>
<totfact> 0.86996902E+02</totfact>
</mgrwt>
</event>
<event>
 4    1  0.1837449E-005  0.4075664E+03  0.7818608E-02  0.1041191E+00
          2   -1    0    0  501    0  0.00000000000E+00  0.00000000000E+00  0.37186631745E+02  0.37186631833E+02  0.25500000000E-02 0.  1.
         -2   -1    0    0    0  501 -0.00000000000E+00 -0.00000000000E+00 -0.11167345667E+04  0.11167345667E+04  0.25500000000E-02 0. -1.
    5000001    1    1    2    0    0 -0.54363875909E+02  0.97382981592E+02 -0.41754667034E+03  0.46261117369E+03  0.16500000000E+03 0.  0.
   -5000001    1    1    2    0    0  0.54363875909E+02 -0.97382981592E+02 -0.66200126465E+03  0.69131002489E+03  0.16500000000E+03 0.  0.
<mgrwt>
<rscale>  0 0.40756642E+03</rscale>
<asrwt>0</asrwt>
<pdfrwt beam="1">  1        2 0.53123767E-02 0.40756642E+03</pdfrwt>
<pdfrwt beam="2">  1       -2 0.15953349E+00 0.40756642E+03</pdfrwt>
<totfact> 0.39300126E+02</totfact>
</mgrwt>
</event>
<event>
 4    1  0.1837449E-005  0.5716317E+03  0.7818608E-02  0.9966074E-01
         -2   -1    0    0    0  501 -0.00000000000E+00  0.00000000000E+00  0.41816512251E+02  0.41816512328E+02  0.25500000000E-02 0. -1.
          2   -1    0    0  501    0  0.00000000000E+00 -0.00000000000E+00 -0.19535510523E+04  0.19535510523E+04  0.25500000000E-02 0.  1.
    5000001    1    1    2    0    0  0.86516030779E+02 -0.55646821570E+02 -0.22462679751E+03  0.29709222557E+03  0.16500000000E+03 0.  0.
   -5000001    1    1    2    0    0 -0.86516030779E+02  0.55646821570E+02 -0.16871077425E+04  0.16982753391E+04  0.16500000000E+03 0.  0.
<mgrwt>
<rscale>  0 0.57163167E+03</rscale>
<asrwt>0</asrwt>
<pdfrwt beam="1">  1        2 0.27907866E+00 0.57163167E+03</pdfrwt>
<pdfrwt beam="2">  1       -2 0.59737887E-02 0.57163167E+03</pdfrwt>
<totfact> 0.13613718E+03</totfact>
</mgrwt>
</event>
<event>
 4    1  0.1837449E-005  0.4294550E+03  0.7818608E-02  0.1034032E+00
         -2   -1    0    0    0  501 -0.00000000000E+00  0.00000000000E+00  0.91724161957E+02  0.91724161992E+02  0.25500000000E-02 0. -1.
          2   -1    0    0  501    0  0.00000000000E+00 -0.00000000000E+00 -0.50268007714E+03  0.50268007715E+03  0.25500000000E-02 0.  1.
    5000001    1    1    2    0    0 -0.27283179562E+02  0.55777938591E+02 -0.37514813470E+03  0.41450774817E+03  0.16500000000E+03 0.  0.
   -5000001    1    1    2    0    0  0.27283179562E+02 -0.55777938591E+02 -0.35807780480E+02  0.17989649097E+03  0.16500000000E+03 0.  0.
<mgrwt>
<rscale>  0 0.42945504E+03</rscale>
<asrwt>0</asrwt>
<pdfrwt beam="1">  1        2 0.71811438E-01 0.42945504E+03</pdfrwt>
<pdfrwt beam="2">  1       -2 0.13103452E-01 0.42945504E+03</pdfrwt>
<totfact> 0.29014906E+03</totfact>
</mgrwt>
</event>
<event>
 4    1  0.1837449E-005  0.6548514E+03  0.7818608E-02  0.9797718E-01
         -2   -1    0    0    0  501 -0.00000000000E+00  0.00000000000E+00  0.68871543025E+03  0.68871543026E+03  0.25500000000E-02 0. -1.
          2   -1    0    0  501    0  0.00000000000E+00 -0.00000000000E+00 -0.15566309715E+03  0.15566309717E+03  0.25500000000E-02 0.  1.
    5000001    1    1    2    0    0  0.25990738197E+03  0.90178093471E+02  0.35106573819E+03  0.47555871170E+03  0.16500000000E+03 0.  0.
   -5000001    1    1    2    0    0 -0.25990738197E+03 -0.90178093471E+02  0.18198659492E+03  0.36881981573E+03  0.16500000000E+03 0.  0.
<mgrwt>
<rscale>  0 0.65485136E+03</rscale>
<asrwt>0</asrwt>
<pdfrwt beam="1">  1        2 0.22237585E-01 0.65485136E+03</pdfrwt>
<pdfrwt beam="2">  1       -2 0.98387918E-01 0.65485136E+03</pdfrwt>
<totfact> 0.21776870E+02</totfact>
</mgrwt>
</event>
<event>
 4    1  0.1837449E-005  0.5329557E+03  0.7818608E-02  0.1005518E+00
         -2   -1    0    0    0  501 -0.00000000000E+00  0.00000000000E+00  0.38216938852E+02  0.38216938937E+02  0.25500000000E-02 0. -1.
          2   -1    0    0  501    0  0.00000000000E+00 -0.00000000000E+00 -0.18580884766E+04  0.18580884766E+04  0.25500000000E-02 0.  1.
    5000001    1    1    2    0    0  0.18360645206E+03  0.88501685079E+02 -0.74147688997E+03  0.78648385607E+03  0.16500000000E+03 0.  0.
   -5000001    1    1    2    0    0 -0.18360645206E+03 -0.88501685079E+02 -0.10783946478E+04  0.11098215595E+04  0.16500000000E+03 0.  0.
<mgrwt>
<rscale>  0 0.53295573E+03</rscale>
<asrwt>0</asrwt>
<pdfrwt beam="1">  1        2 0.26544115E+00 0.53295573E+03</pdfrwt>
<pdfrwt beam="2">  1       -2 0.54595639E-02 0.53295573E+03</pdfrwt>
<totfact> 0.17520394E+03</totfact>
</mgrwt>
</event>
<event>
 4    1  0.1837449E-005  0.6101925E+03  0.7818608E-02  0.9884483E-01
          2   -1    0    0  501    0  0.00000000000E+00  0.00000000000E+00  0.77679485540E+03  0.77679485541E+03  0.25500000000E-02 0.  1.
         -2   -1    0    0    0  501 -0.00000000000E+00 -0.00000000000E+00 -0.11983049054E+03  0.11983049057E+03  0.25500000000E-02 0. -1.
    5000001    1    1    2    0    0 -0.21141095409E+03 -0.86994364062E+02  0.49981924426E+03  0.57385267084E+03  0.16500000000E+03 0.  0.
   -5000001    1    1    2    0    0  0.21141095409E+03  0.86994364062E+02  0.15714512060E+03  0.32277267514E+03  0.16500000000E+03 0.  0.
<mgrwt>
<rscale>  0 0.61019246E+03</rscale>
<asrwt>0</asrwt>
<pdfrwt beam="1">  1        2 0.11097070E+00 0.61019246E+03</pdfrwt>
<pdfrwt beam="2">  1       -2 0.17118641E-01 0.61019246E+03</pdfrwt>
<totfact> 0.11065964E+03</totfact>
</mgrwt>
</event>
<event>
 4    1  0.1837449E-005  0.5403444E+03  0.7818608E-02  0.1003754E+00
          2   -1    0    0  501    0  0.00000000000E+00  0.00000000000E+00  0.30388664166E+03  0.30388664167E+03  0.25500000000E-02 0.  1.
         -2   -1    0    0    0  501 -0.00000000000E+00 -0.00000000000E+00 -0.24019814740E+03  0.24019814741E+03  0.25500000000E-02 0. -1.
    5000001    1    1    2    0    0 -0.27037685783E+02 -0.21006610931E+03  0.62205945226E+02  0.27559641934E+03  0.16500000000E+03 0.  0.
   -5000001    1    1    2    0    0  0.27037685783E+02  0.21006610931E+03  0.14825490311E+01  0.26848836974E+03  0.16500000000E+03 0.  0.
<mgrwt>
<rscale>  0 0.54034437E+03</rscale>
<asrwt>0</asrwt>
<pdfrwt beam="1">  1        2 0.43412378E-01 0.54034437E+03</pdfrwt>
<pdfrwt beam="2">  1       -2 0.34314021E-01 0.54034437E+03</pdfrwt>
<totfact> 0.93756293E+02</totfact>
</mgrwt>
</event>
<event>
 4    1  0.1837449E-005  0.5479353E+03  0.7818608E-02  0.1001973E+00
          2   -1    0    0  501    0  0.00000000000E+00  0.00000000000E+00  0.28475549096E+04  0.28475549096E+04  0.25500000000E-02 0.  1.
         -2   -1    0    0    0  501 -0.00000000000E+00 -0.00000000000E+00 -0.26358852500E+02  0.26358852623E+02  0.25500000000E-02 0. -1.
    5000001    1    1    2    0    0 -0.16052414792E+03 -0.10807391159E+03  0.19451059113E+04  0.19616600058E+04  0.16500000000E+03 0.  0.
   -5000001    1    1    2    0    0  0.16052414792E+03  0.10807391159E+03  0.87609014588E+03  0.91225375644E+03  0.16500000000E+03 0.  0.
<mgrwt>
<rscale>  0 0.54793532E+03</rscale>
<asrwt>0</asrwt>
<pdfrwt beam="1">  1        2 0.40679365E+00 0.54793532E+03</pdfrwt>
<pdfrwt beam="2">  1       -2 0.37655495E-02 0.54793532E+03</pdfrwt>
<totfact> 0.97234844E+02</totfact>
</mgrwt>
</event>
<event>
 4    1  0.1837449E-005  0.4185962E+03  0.7818608E-02  0.1037524E+00
         -2   -1    0    0    0  501 -0.00000000000E+00  0.00000000000E+00  0.44124087955E+02  0.44124088028E+02  0.25500000000E-02 0. -1.
          2   -1    0    0  501    0  0.00000000000E+00 -0.00000000000E+00 -0.99278425369E+03  0.99278425369E+03  0.25500000000E-02 0.  1.
    5000001    1    1    2    0    0 -0.31453700514E+02  0.12454073457E+03 -0.49661992211E+03  0.53884698838E+03  0.16500000000E+03 0.  0.
   -5000001    1    1    2    0    0  0.31453700514E+02 -0.12454073457E+03 -0.45204024362E+03  0.49806135334E+03  0.16500000000E+03 0.  0.
<mgrwt>
<rscale>  0 0.41859622E+03</rscale>
<asrwt>0</asrwt>
<pdfrwt beam="1">  1        2 0.14182631E+00 0.41859622E+03</pdfrwt>
<pdfrwt beam="2">  1       -2 0.63034418E-02 0.41859622E+03</pdfrwt>
<totfact> 0.40565958E+03</totfact>
</mgrwt>
</event>
<event>
 4    1  0.1837449E-005  0.5257804E+03  0.7818608E-02  0.1007261E+00
         -2   -1    0    0    0  501 -0.00000000000E+00  0.00000000000E+00  0.74032266759E+02  0.74032266803E+02  0.25500000000E-02 0. -1.
          2   -1    0    0  501    0  0.00000000000E+00 -0.00000000000E+00 -0.93352872511E+03  0.93352872511E+03  0.25500000000E-02 0.  1.
    5000001    1    1    2    0    0  0.18265033826E+02 -0.20304854258E+03 -0.39525851708E+03  0.47435916501E+03  0.16500000000E+03 0.  0.
   -5000001    1    1    2    0    0 -0.18265033826E+02  0.20304854258E+03 -0.46423794127E+03  0.53320182691E+03  0.16500000000E+03 0.  0.
<mgrwt>
<rscale>  0 0.52578036E+03</rscale>
<asrwt>0</asrwt>
<pdfrwt beam="1">  1        2 0.13336124E+00 0.52578036E+03</pdfrwt>
<pdfrwt beam="2">  1       -2 0.10576039E-01 0.52578036E+03</pdfrwt>
<totfact> 0.19412828E+03</totfact>
</mgrwt>
</event>
<event>
 4    1  0.1837449E-005  0.3974602E+03  0.7818608E-02  0.1044663E+00
          2   -1    0    0  501    0  0.00000000000E+00  0.00000000000E+00  0.41435791014E+03  0.41435791015E+03  0.25500000000E-02 0.  1.
         -2   -1    0    0    0  501 -0.00000000000E+00 -0.00000000000E+00 -0.95312902153E+02  0.95312902187E+02  0.25500000000E-02 0. -1.
    5000001    1    1    2    0    0 -0.10914151044E+03 -0.66468488233E+01  0.18219472687E+03  0.26902782087E+03  0.16500000000E+03 0.  0.
   -5000001    1    1    2    0    0  0.10914151044E+03  0.66468488233E+01  0.13685028112E+03  0.24064299147E+03  0.16500000000E+03 0.  0.
<mgrwt>
<rscale>  0 0.39746021E+03</rscale>
<asrwt>0</asrwt>
<pdfrwt beam="1">  1        2 0.59193986E-01 0.39746021E+03</pdfrwt>
<pdfrwt beam="2">  1       -2 0.13616129E-01 0.39746021E+03</pdfrwt>
<totfact> 0.33716105E+03</totfact>
</mgrwt>
</event>
<event>
 4    1  0.1837449E-005  0.4611763E+03  0.7818608E-02  0.1024441E+00
         -2   -1    0    0    0  501 -0.00000000000E+00  0.00000000000E+00  0.54604695026E+02  0.54604695086E+02  0.25500000000E-02 0. -1.
          2   -1    0    0  501    0  0.00000000000E+00 -0.00000000000E+00 -0.97374214019E+03  0.97374214019E+03  0.25500000000E-02 0.  1.
    5000001    1    1    2    0    0  0.15497716238E+03  0.17676802211E+02 -0.54919316217E+03  0.59427983271E+03  0.16500000000E+03 0.  0.
   -5000001    1    1    2    0    0 -0.15497716238E+03 -0.17676802211E+02 -0.36994428299E+03  0.43406700257E+03  0.16500000000E+03 0.  0.
<mgrwt>
<rscale>  0 0.46117629E+03</rscale>
<asrwt>0</asrwt>
<pdfrwt beam="1">  1        2 0.13910601E+00 0.46117629E+03</pdfrwt>
<pdfrwt beam="2">  1       -2 0.78006713E-02 0.46117629E+03</pdfrwt>
<totfact> 0.29842345E+03</totfact>
</mgrwt>
</event>
<event>
 4    1  0.1837449E-005  0.3416991E+03  0.7818608E-02  0.1066075E+00
          2   -1    0    0  501    0  0.00000000000E+00  0.00000000000E+00  0.23799895502E+04  0.23799895502E+04  0.25500000000E-02 0.  1.
         -2   -1    0    0    0  501 -0.00000000000E+00 -0.00000000000E+00 -0.12264579677E+02  0.12264579942E+02  0.25500000000E-02 0. -1.
    5000001    1    1    2    0    0  0.43952939654E+02  0.46084792344E+01  0.11601488454E+04  0.11726565748E+04  0.16500000000E+03 0.  0.
   -5000001    1    1    2    0    0 -0.43952939654E+02 -0.46084792344E+01  0.12075761252E+04  0.12195975554E+04  0.16500000000E+03 0.  0.
<mgrwt>
<rscale>  0 0.34169912E+03</rscale>
<asrwt>0</asrwt>
<pdfrwt beam="1">  1        2 0.33999891E+00 0.34169912E+03</pdfrwt>
<pdfrwt beam="2">  1       -2 0.17520808E-02 0.34169912E+03</pdfrwt>
<totfact> 0.53997299E+03</totfact>
</mgrwt>
</event>
<event>
 4    1  0.1837449E-005  0.1118929E+04  0.7818608E-02  0.9186936E-01
          2   -1    0    0  501    0  0.00000000000E+00  0.00000000000E+00  0.24305622976E+04  0.24305622976E+04  0.25500000000E-02 0.  1.
         -2   -1    0    0    0  501 -0.00000000000E+00 -0.00000000000E+00 -0.12877709890E+03  0.12877709893E+03  0.25500000000E-02 0. -1.
    5000001    1    1    2    0    0  0.33245224487E+03 -0.35517012922E+03  0.16577549315E+04  0.17355249145E+04  0.16500000000E+03 0.  0.
   -5000001    1    1    2    0    0 -0.33245224487E+03  0.35517012922E+03  0.64403026721E+03  0.82381448208E+03  0.16500000000E+03 0.  0.
<mgrwt>
<rscale>  0 0.11189294E+04</rscale>
<asrwt>0</asrwt>
<pdfrwt beam="1">  1        2 0.34722322E+00 0.11189294E+04</pdfrwt>
<pdfrwt beam="2">  1       -2 0.18396727E-01 0.11189294E+04</pdfrwt>
<totfact> 0.11827283E+02</totfact>
</mgrwt>
</event>
<event>
 4    1  0.1837449E-005  0.6048153E+03  0.7818608E-02  0.9895466E-01
          2   -1    0    0  501    0  0.00000000000E+00  0.00000000000E+00  0.91896006028E+03  0.91896006028E+03  0.25500000000E-02 0.  1.
         -2   -1    0    0    0  501 -0.00000000000E+00 -0.00000000000E+00 -0.99515068558E+02  0.99515068591E+02  0.25500000000E-02 0. -1.
    5000001    1    1    2    0    0  0.16162714189E+02 -0.25190269343E+03  0.37172452286E+03  0.47866514515E+03  0.16500000000E+03 0.  0.
   -5000001    1    1    2    0    0 -0.16162714189E+02  0.25190269343E+03  0.44772046886E+03  0.53980998372E+03  0.16500000000E+03 0.  0.
<mgrwt>
<rscale>  0 0.60481526E+03</rscale>
<asrwt>0</asrwt>
<pdfrwt beam="1">  1        2 0.13128000E+00 0.60481526E+03</pdfrwt>
<pdfrwt beam="2">  1       -2 0.14216439E-01 0.60481526E+03</pdfrwt>
<totfact> 0.12166777E+03</totfact>
</mgrwt>
</event>
<event>
 4    1  0.1837449E-005  0.3903849E+03  0.7818608E-02  0.1047161E+00
          2   -1    0    0  501    0  0.00000000000E+00  0.00000000000E+00  0.20296250485E+04  0.20296250485E+04  0.25500000000E-02 0.  1.
         -2   -1    0    0    0  501 -0.00000000000E+00 -0.00000000000E+00 -0.18771985853E+02  0.18771986026E+02  0.25500000000E-02 0. -1.
    5000001    1    1    2    0    0  0.10046385800E+03 -0.19666214322E+02  0.90109637235E+03  0.92178056988E+03  0.16500000000E+03 0.  0.
   -5000001    1    1    2    0    0 -0.10046385800E+03  0.19666214322E+02  0.11097566903E+04  0.11266164646E+04  0.16500000000E+03 0.  0.
<mgrwt>
<rscale>  0 0.39038490E+03</rscale>
<asrwt>0</asrwt>
<pdfrwt beam="1">  1        2 0.28994640E+00 0.39038490E+03</pdfrwt>
<pdfrwt beam="2">  1       -2 0.26817126E-02 0.39038490E+03</pdfrwt>
<totfact> 0.42726956E+03</totfact>
</mgrwt>
</event>
<event>
 4    1  0.1837449E-005  0.4374400E+03  0.7818608E-02  0.1031535E+00
          2   -1    0    0  501    0  0.00000000000E+00  0.00000000000E+00  0.24975999658E+04  0.24975999658E+04  0.25500000000E-02 0.  1.
         -2   -1    0    0    0  501 -0.00000000000E+00 -0.00000000000E+00 -0.19153764312E+02  0.19153764482E+02  0.25500000000E-02 0. -1.
    5000001    1    1    2    0    0  0.44328987580E+02 -0.13492890781E+03  0.13602589951E+04  0.13775704711E+04  0.16500000000E+03 0.  0.
   -5000001    1    1    2    0    0 -0.44328987580E+02  0.13492890781E+03  0.11181872065E+04  0.11391832592E+04  0.16500000000E+03 0.  0.
<mgrwt>
<rscale>  0 0.43744001E+03</rscale>
<asrwt>0</asrwt>
<pdfrwt beam="1">  1        2 0.35679985E+00 0.43744001E+03</pdfrwt>
<pdfrwt beam="2">  1       -2 0.27362531E-02 0.43744001E+03</pdfrwt>
<totfact> 0.24162797E+03</totfact>
</mgrwt>
</event>
<event>
 4    1  0.1837449E-005  0.5148600E+03  0.7818608E-02  0.1009971E+00
         -2   -1    0    0    0  501 -0.00000000000E+00  0.00000000000E+00  0.27223185982E+02  0.27223186101E+02  0.25500000000E-02 0. -1.
          2   -1    0    0  501    0  0.00000000000E+00 -0.00000000000E+00 -0.24343290537E+04  0.24343290537E+04  0.25500000000E-02 0.  1.
    5000001    1    1    2    0    0 -0.13538745687E+03  0.12844303715E+03 -0.15140544543E+04  0.15344097457E+04  0.16500000000E+03 0.  0.
   -5000001    1    1    2    0    0  0.13538745687E+03 -0.12844303715E+03 -0.89305141346E+03  0.92714249409E+03  0.16500000000E+03 0.  0.
<mgrwt>
<rscale>  0 0.51485995E+03</rscale>
<asrwt>0</asrwt>
<pdfrwt beam="1">  1        2 0.34776116E+00 0.51485995E+03</pdfrwt>
<pdfrwt beam="2">  1       -2 0.38890281E-02 0.51485995E+03</pdfrwt>
<totfact> 0.15195856E+03</totfact>
</mgrwt>
</event>
<event>
 4    1  0.1837449E-005  0.4225957E+03  0.7818608E-02  0.1036225E+00
         -2   -1    0    0    0  501 -0.00000000000E+00  0.00000000000E+00  0.16143102646E+03  0.16143102648E+03  0.25500000000E-02 0. -1.
          2   -1    0    0  501    0  0.00000000000E+00 -0.00000000000E+00 -0.27656879545E+03  0.27656879546E+03  0.25500000000E-02 0.  1.
    5000001    1    1    2    0    0 -0.12138103356E+03 -0.95501594562E+01 -0.47482610729E+01  0.20511486255E+03  0.16500000000E+03 0.  0.
   -5000001    1    1    2    0    0  0.12138103356E+03  0.95501594562E+01 -0.11038950791E+03  0.23288495939E+03  0.16500000000E+03 0.  0.
<mgrwt>
<rscale>  0 0.42259571E+03</rscale>
<asrwt>0</asrwt>
<pdfrwt beam="1">  1        2 0.39509828E-01 0.42259571E+03</pdfrwt>
<pdfrwt beam="2">  1       -2 0.23061575E-01 0.42259571E+03</pdfrwt>
<totfact> 0.21407629E+03</totfact>
</mgrwt>
</event>
<event>
 4    1  0.1837449E-005  0.4869718E+03  0.7818608E-02  0.1017237E+00
          2   -1    0    0  501    0  0.00000000000E+00  0.00000000000E+00  0.23597812366E+04  0.23597812366E+04  0.25500000000E-02 0.  1.
         -2   -1    0    0    0  501 -0.00000000000E+00 -0.00000000000E+00 -0.25123258797E+02  0.25123258926E+02  0.25500000000E-02 0. -1.
    5000001    1    1    2    0    0 -0.17433603293E+03  0.52757058963E+01  0.13656296198E+04  0.13865749687E+04  0.16500000000E+03 0.  0.
   -5000001    1    1    2    0    0  0.17433603293E+03 -0.52757058963E+01  0.96902835802E+03  0.99832952681E+03  0.16500000000E+03 0.  0.
<mgrwt>
<rscale>  0 0.48697185E+03</rscale>
<asrwt>0</asrwt>
<pdfrwt beam="1">  1        2 0.33711173E+00 0.48697185E+03</pdfrwt>
<pdfrwt beam="2">  1       -2 0.35890357E-02 0.48697185E+03</pdfrwt>
<totfact> 0.18765606E+03</totfact>
</mgrwt>
</event>
<event>
 4    1  0.1837449E-005  0.3969312E+03  0.7818608E-02  0.1044848E+00
          2   -1    0    0  501    0  0.00000000000E+00  0.00000000000E+00  0.26546682132E+03  0.26546682133E+03  0.25500000000E-02 0.  1.
         -2   -1    0    0    0  501 -0.00000000000E+00 -0.00000000000E+00 -0.14837482357E+03  0.14837482359E+03  0.25500000000E-02 0. -1.
    5000001    1    1    2    0    0 -0.66730212743E+02  0.75409212439E+02  0.10545296283E+03  0.22019263835E+03  0.16500000000E+03 0.  0.
   -5000001    1    1    2    0    0  0.66730212743E+02 -0.75409212439E+02  0.11639034919E+02  0.19364900657E+03  0.16500000000E+03 0.  0.
<mgrwt>
<rscale>  0 0.39693119E+03</rscale>
<asrwt>0</asrwt>
<pdfrwt beam="1">  1        2 0.37923831E-01 0.39693119E+03</pdfrwt>
<pdfrwt beam="2">  1       -2 0.21196404E-01 0.39693119E+03</pdfrwt>
<totfact> 0.25927375E+03</totfact>
</mgrwt>
</event>
<event>
 4    1  0.1837449E-005  0.4715260E+03  0.7818608E-02  0.1021490E+00
         -2   -1    0    0    0  501 -0.00000000000E+00  0.00000000000E+00  0.19467113050E+03  0.19467113051E+03  0.25500000000E-02 0. -1.
          2   -1    0    0  501    0  0.00000000000E+00 -0.00000000000E+00 -0.28552865243E+03  0.28552865244E+03  0.25500000000E-02 0.  1.
    5000001    1    1    2    0    0  0.11741459147E+03 -0.93150725193E+02 -0.12362627193E+03  0.25489546682E+03  0.16500000000E+03 0.  0.
   -5000001    1    1    2    0    0 -0.11741459147E+03  0.93150725193E+02  0.32768750000E+02  0.22530431614E+03  0.16500000000E+03 0.  0.
<mgrwt>
<rscale>  0 0.47152597E+03</rscale>
<asrwt>0</asrwt>
<pdfrwt beam="1">  1        2 0.40789807E-01 0.47152597E+03</pdfrwt>
<pdfrwt beam="2">  1       -2 0.27810162E-01 0.47152597E+03</pdfrwt>
<totfact> 0.14806615E+03</totfact>
</mgrwt>
</event>
<event>
 4    1  0.1837449E-005  0.8727107E+03  0.7818608E-02  0.9460352E-01
         -2   -1    0    0    0  501 -0.00000000000E+00  0.00000000000E+00  0.65088935881E+02  0.65088935931E+02  0.25500000000E-02 0.  1.
          2   -1    0    0  501    0  0.00000000000E+00 -0.00000000000E+00 -0.29253203932E+04  0.29253203932E+04  0.25500000000E-02 0. -1.
    5000001    1    1    2    0    0 -0.10112233250E+03  0.38169738775E+03 -0.17221269313E+04  0.17745040968E+04  0.16500000000E+03 0.  0.
   -5000001    1    1    2    0    0  0.10112233250E+03 -0.38169738775E+03 -0.11381045261E+04  0.12159052324E+04  0.16500000000E+03 0.  0.
<mgrwt>
<rscale>  0 0.87271070E+03</rscale>
<asrwt>0</asrwt>
<pdfrwt beam="1">  1        2 0.41790283E+00 0.87271070E+03</pdfrwt>
<pdfrwt beam="2">  1       -2 0.92984213E-02 0.87271070E+03</pdfrwt>
<totfact> 0.20708670E+02</totfact>
</mgrwt>
</event>
<event>
 4    1  0.1837449E-005  0.5042160E+03  0.7818608E-02  0.1012684E+00
          2   -1    0    0  501    0  0.00000000000E+00  0.00000000000E+00  0.14132128094E+04  0.14132128094E+04  0.25500000000E-02 0.  1.
         -2   -1    0    0    0  501 -0.00000000000E+00 -0.00000000000E+00 -0.44974433074E+02  0.44974433146E+02  0.25500000000E-02 0. -1.
    5000001    1    1    2    0    0 -0.17736596653E+03  0.26314182073E+02  0.87114667459E+03  0.90458424202E+03  0.16500000000E+03 0.  0.
   -5000001    1    1    2    0    0  0.17736596653E+03 -0.26314182073E+02  0.49709170177E+03  0.55360300056E+03  0.16500000000E+03 0.  0.
<mgrwt>
<rscale>  0 0.50421601E+03</rscale>
<asrwt>0</asrwt>
<pdfrwt beam="1">  1        2 0.20188754E+00 0.50421601E+03</pdfrwt>
<pdfrwt beam="2">  1       -2 0.64249192E-02 0.50421601E+03</pdfrwt>
<totfact> 0.22951453E+03</totfact>
</mgrwt>
</event>
<event>
 4    1  0.1837449E-005  0.3892520E+03  0.7818608E-02  0.1047566E+00
         -2   -1    0    0    0  501 -0.00000000000E+00  0.00000000000E+00  0.38077231897E+02  0.38077231982E+02  0.25500000000E-02 0. -1.
          2   -1    0    0  501    0  0.00000000000E+00 -0.00000000000E+00 -0.99480148050E+03  0.99480148050E+03  0.25500000000E-02 0.  1.
    5000001    1    1    2    0    0 -0.25869328111E+02 -0.98627952460E+02 -0.52094983107E+03  0.55588705834E+03  0.16500000000E+03 0.  0.
   -5000001    1    1    2    0    0  0.25869328111E+02  0.98627952460E+02 -0.43577441753E+03  0.47699165414E+03  0.16500000000E+03 0.  0.
<mgrwt>
<rscale>  0 0.38925204E+03</rscale>
<asrwt>0</asrwt>
<pdfrwt beam="1">  1        2 0.14211448E+00 0.38925204E+03</pdfrwt>
<pdfrwt beam="2">  1       -2 0.54396052E-02 0.38925204E+03</pdfrwt>
<totfact> 0.50778027E+03</totfact>
</mgrwt>
</event>
<event>
 4    1  0.1837449E-005  0.4243661E+03  0.7818608E-02  0.1035655E+00
          2   -1    0    0  501    0  0.00000000000E+00  0.00000000000E+00  0.22010436898E+03  0.22010436899E+03  0.25500000000E-02 0.  1.
         -2   -1    0    0    0  501 -0.00000000000E+00 -0.00000000000E+00 -0.20454676348E+03  0.20454676350E+03  0.25500000000E-02 0. -1.
    5000001    1    1    2    0    0 -0.12006434569E+03  0.31692556117E+02  0.56563692895E+02  0.21411285943E+03  0.16500000000E+03 0.  0.
   -5000001    1    1    2    0    0  0.12006434569E+03 -0.31692556117E+02 -0.41006087401E+02  0.21053827306E+03  0.16500000000E+03 0.  0.
<mgrwt>
<rscale>  0 0.42436605E+03</rscale>
<asrwt>0</asrwt>
<pdfrwt beam="1">  1        2 0.31443481E-01 0.42436605E+03</pdfrwt>
<pdfrwt beam="2">  1       -2 0.29220966E-01 0.42436605E+03</pdfrwt>
<totfact> 0.18010037E+03</totfact>
</mgrwt>
</event>
<event>
 4    1  0.1837449E-005  0.4879449E+03  0.7818608E-02  0.1016974E+00
          2   -1    0    0  501    0  0.00000000000E+00  0.00000000000E+00  0.11205219844E+04  0.11205219844E+04  0.25500000000E-02 0.  1.
         -2   -1    0    0    0  501 -0.00000000000E+00 -0.00000000000E+00 -0.53120378181E+02  0.53120378242E+02  0.25500000000E-02 0. -1.
    5000001    1    1    2    0    0  0.17733518586E+03 -0.27785207477E+02  0.55491170309E+03  0.60611202275E+03  0.16500000000E+03 0.  0.
   -5000001    1    1    2    0    0 -0.17733518586E+03  0.27785207477E+02  0.51248990318E+03  0.56753033994E+03  0.16500000000E+03 0.  0.
<mgrwt>
<rscale>  0 0.48794488E+03</rscale>
<asrwt>0</asrwt>
<pdfrwt beam="1">  1        2 0.16007456E+00 0.48794488E+03</pdfrwt>
<pdfrwt beam="2">  1       -2 0.75886259E-02 0.48794488E+03</pdfrwt>
<totfact> 0.25531627E+03</totfact>
</mgrwt>
</event>
<event>
 4    1  0.1837449E-005  0.6086030E+03  0.7818608E-02  0.9887717E-01
         -2   -1    0    0    0  501 -0.00000000000E+00  0.00000000000E+00  0.15322393920E+04  0.15322393920E+04  0.25500000000E-02 0. -1.
          2   -1    0    0  501    0  0.00000000000E+00 -0.00000000000E+00 -0.60434029472E+02  0.60434029526E+02  0.25500000000E-02 0.  1.
    5000001    1    1    2    0    0 -0.13557612095E+03 -0.20690666833E+03  0.90515872844E+03  0.95274790876E+03  0.16500000000E+03 0.  0.
   -5000001    1    1    2    0    0  0.13557612095E+03  0.20690666833E+03  0.56664663409E+03  0.63992551278E+03  0.16500000000E+03 0.  0.
<mgrwt>
<rscale>  0 0.60860299E+03</rscale>
<asrwt>0</asrwt>
<pdfrwt beam="1">  1        2 0.86334349E-02 0.60860299E+03</pdfrwt>
<pdfrwt beam="2">  1       -2 0.21889129E+00 0.60860299E+03</pdfrwt>
<totfact> 0.83029294E+01</totfact>
</mgrwt>
</event>
<event>
 4    1  0.1837449E-005  0.7279803E+03  0.7818608E-02  0.9670543E-01
          2   -1    0    0  501    0  0.00000000000E+00  0.00000000000E+00  0.18242609300E+04  0.18242609300E+04  0.25500000000E-02 0.  1.
         -2   -1    0    0    0  501 -0.00000000000E+00 -0.00000000000E+00 -0.72626039811E+02  0.72626039856E+02  0.25500000000E-02 0. -1.
    5000001    1    1    2    0    0  0.23431056395E+03 -0.22435958079E+03  0.86274088015E+03  0.93636824388E+03  0.16500000000E+03 0.  0.
   -5000001    1    1    2    0    0 -0.23431056395E+03  0.22435958079E+03  0.88889401008E+03  0.96051872602E+03  0.16500000000E+03 0.  0.
<mgrwt>
<rscale>  0 0.72798035E+03</rscale>
<asrwt>0</asrwt>
<pdfrwt beam="1">  1        2 0.26060866E+00 0.72798035E+03</pdfrwt>
<pdfrwt beam="2">  1       -2 0.10375150E-01 0.72798035E+03</pdfrwt>
<totfact> 0.65006671E+02</totfact>
</mgrwt>
</event>
<event>
 4    1  0.1837449E-005  0.5176263E+03  0.7818608E-02  0.1009278E+00
          2   -1    0    0  501    0  0.00000000000E+00  0.00000000000E+00  0.16990803326E+04  0.16990803326E+04  0.25500000000E-02 0.  1.
         -2   -1    0    0    0  501 -0.00000000000E+00 -0.00000000000E+00 -0.39423818359E+02  0.39423818442E+02  0.25500000000E-02 0. -1.
    5000001    1    1    2    0    0  0.11145151679E+03  0.11486453261E+03  0.43039471384E+03  0.48793433077E+03  0.16500000000E+03 0.  0.
   -5000001    1    1    2    0    0 -0.11145151679E+03 -0.11486453261E+03  0.12292618004E+04  0.12505698203E+04  0.16500000000E+03 0.  0.
<mgrwt>
<rscale>  0 0.51762625E+03</rscale>
<asrwt>0</asrwt>
<pdfrwt beam="1">  1        2 0.24272584E+00 0.51762625E+03</pdfrwt>
<pdfrwt beam="2">  1       -2 0.56319721E-02 0.51762625E+03</pdfrwt>
<totfact> 0.20083610E+03</totfact>
</mgrwt>
</event>
<event>
 4    1  0.1837449E-005  0.4126812E+03  0.7818608E-02  0.1039475E+00
         -2   -1    0    0    0  501 -0.00000000000E+00  0.00000000000E+00  0.61887890888E+02  0.61887890941E+02  0.25500000000E-02 0. -1.
          2   -1    0    0  501    0  0.00000000000E+00 -0.00000000000E+00 -0.68796078206E+03  0.68796078207E+03  0.25500000000E-02 0.  1.
    5000001    1    1    2    0    0 -0.90214415696E+01  0.10500353960E+03 -0.43141215791E+03  0.47376004446E+03  0.16500000000E+03 0.  0.
   -5000001    1    1    2    0    0  0.90214415696E+01 -0.10500353960E+03 -0.19466073327E+03  0.27608862855E+03  0.16500000000E+03 0.  0.
<mgrwt>
<rscale>  0 0.41268119E+03</rscale>
<asrwt>0</asrwt>
<pdfrwt beam="1">  1        2 0.98280107E-01 0.41268119E+03</pdfrwt>
<pdfrwt beam="2">  1       -2 0.88411277E-02 0.41268119E+03</pdfrwt>
<totfact> 0.38095531E+03</totfact>
</mgrwt>
</event>
<event>
 4    1  0.1837449E-005  0.3988816E+03  0.7818608E-02  0.1044168E+00
          2   -1    0    0  501    0  0.00000000000E+00  0.00000000000E+00  0.10137247304E+03  0.10137247307E+03  0.25500000000E-02 0.  1.
         -2   -1    0    0    0  501 -0.00000000000E+00 -0.00000000000E+00 -0.39238097781E+03  0.39238097782E+03  0.25500000000E-02 0. -1.
    5000001    1    1    2    0    0 -0.10478151869E+03  0.99820215794E+01 -0.19300947833E+03  0.27487536473E+03  0.16500000000E+03 0.  0.
   -5000001    1    1    2    0    0  0.10478151869E+03 -0.99820215794E+01 -0.97999026441E+02  0.21887808615E+03  0.16500000000E+03 0.  0.
<mgrwt>
<rscale>  0 0.39888159E+03</rscale>
<asrwt>0</asrwt>
<pdfrwt beam="1">  1        2 0.14481782E-01 0.39888159E+03</pdfrwt>
<pdfrwt beam="2">  1       -2 0.56054425E-01 0.39888159E+03</pdfrwt>
<totfact> 0.12473782E+03</totfact>
</mgrwt>
</event>
<event>
 4    1  0.1837449E-005  0.3732910E+03  0.7818608E-02  0.1053442E+00
          2   -1    0    0  501    0  0.00000000000E+00  0.00000000000E+00  0.17579462971E+03  0.17579462972E+03  0.25500000000E-02 0.  1.
         -2   -1    0    0    0  501 -0.00000000000E+00 -0.00000000000E+00 -0.19816618525E+03  0.19816618527E+03  0.25500000000E-02 0. -1.
    5000001    1    1    2    0    0  0.41482297084E+02 -0.75033615360E+02 -0.27361784806E+02  0.18794810899E+03  0.16500000000E+03 0.  0.
   -5000001    1    1    2    0    0 -0.41482297084E+02  0.75033615360E+02  0.49902292618E+01  0.18601270600E+03  0.16500000000E+03 0.  0.
<mgrwt>
<rscale>  0 0.37329105E+03</rscale>
<asrwt>0</asrwt>
<pdfrwt beam="1">  1        2 0.25113518E-01 0.37329105E+03</pdfrwt>
<pdfrwt beam="2">  1       -2 0.28309455E-01 0.37329105E+03</pdfrwt>
<totfact> 0.24480792E+03</totfact>
</mgrwt>
</event>
<event>
 4    1  0.1837449E-005  0.4501549E+03  0.7818608E-02  0.1027676E+00
          2   -1    0    0  501    0  0.00000000000E+00  0.00000000000E+00  0.12870456042E+03  0.12870456044E+03  0.25500000000E-02 0.  1.
         -2   -1    0    0    0  501 -0.00000000000E+00 -0.00000000000E+00 -0.39361346338E+03  0.39361346338E+03  0.25500000000E-02 0. -1.
    5000001    1    1    2    0    0 -0.75506857271E+02 -0.13258937030E+03 -0.14683576705E+03  0.26845291784E+03  0.16500000000E+03 0.  0.
   -5000001    1    1    2    0    0  0.75506857271E+02  0.13258937030E+03 -0.11807313591E+03  0.25386510599E+03  0.16500000000E+03 0.  0.
<mgrwt>
<rscale>  0 0.45015485E+03</rscale>
<asrwt>0</asrwt>
<pdfrwt beam="1">  1        2 0.18386366E-01 0.45015485E+03</pdfrwt>
<pdfrwt beam="2">  1       -2 0.56230494E-01 0.45015485E+03</pdfrwt>
<totfact> 0.93389699E+02</totfact>
</mgrwt>
</event>
<event>
 4    1  0.1837449E-005  0.4675394E+03  0.7818608E-02  0.1022617E+00
         -2   -1    0    0    0  501 -0.00000000000E+00  0.00000000000E+00  0.42450926888E+03  0.42450926889E+03  0.25500000000E-02 0. -1.
          2   -1    0    0  501    0  0.00000000000E+00 -0.00000000000E+00 -0.12873281986E+03  0.12873281989E+03  0.25500000000E-02 0.  1.
    5000001    1    1    2    0    0  0.43653232934E+02  0.83876688599E+02 -0.12982062208E+02  0.19061594260E+03  0.16500000000E+03 0.  0.
   -5000001    1    1    2    0    0 -0.43653232934E+02 -0.83876688599E+02  0.30875851123E+03  0.36262614618E+03  0.16500000000E+03 0.  0.
<mgrwt>
<rscale>  0 0.46753941E+03</rscale>
<asrwt>0</asrwt>
<pdfrwt beam="1">  1        2 0.18390403E-01 0.46753941E+03</pdfrwt>
<pdfrwt beam="2">  1       -2 0.60644181E-01 0.46753941E+03</pdfrwt>
<totfact> 0.79792008E+02</totfact>
</mgrwt>
</event>
<event>
 4    1  0.1837449E-005  0.4733091E+03  0.7818608E-02  0.1020990E+00
         -2   -1    0    0    0  501 -0.00000000000E+00  0.00000000000E+00  0.47789331320E+02  0.47789331388E+02  0.25500000000E-02 0.  1.
          2   -1    0    0  501    0  0.00000000000E+00 -0.00000000000E+00 -0.11719223015E+04  0.11719223015E+04  0.25500000000E-02 0. -1.
    5000001    1    1    2    0    0 -0.33256368057E+02  0.16537765183E+03 -0.60849729309E+03  0.65264822794E+03  0.16500000000E+03 0.  0.
   -5000001    1    1    2    0    0  0.33256368057E+02 -0.16537765183E+03 -0.51563567707E+03  0.56706340492E+03  0.16500000000E+03 0.  0.
<mgrwt>
<rscale>  0 0.47330913E+03</rscale>
<asrwt>0</asrwt>
<pdfrwt beam="1">  1        2 0.16741745E+00 0.47330913E+03</pdfrwt>
<pdfrwt beam="2">  1       -2 0.68270481E-02 0.47330913E+03</pdfrwt>
<totfact> 0.28203375E+03</totfact>
</mgrwt>
</event>
<event>
 4    1  0.1837449E-005  0.4673064E+03  0.7818608E-02  0.1022683E+00
          2   -1    0    0  501    0  0.00000000000E+00  0.00000000000E+00  0.17151724480E+04  0.17151724480E+04  0.25500000000E-02 0.  1.
         -2   -1    0    0    0  501 -0.00000000000E+00 -0.00000000000E+00 -0.31829929392E+02  0.31829929494E+02  0.25500000000E-02 0. -1.
    5000001    1    1    2    0    0  0.90856347969E+02 -0.70337140786E+02  0.12866354089E+04  0.13022510760E+04  0.16500000000E+03 0.  0.
   -5000001    1    1    2    0    0 -0.90856347969E+02  0.70337140786E+02  0.39670710963E+03  0.44475130149E+03  0.16500000000E+03 0.  0.
<mgrwt>
<rscale>  0 0.46730640E+03</rscale>
<asrwt>0</asrwt>
<pdfrwt beam="1">  1        2 0.24502469E+00 0.46730640E+03</pdfrwt>
<pdfrwt beam="2">  1       -2 0.45471318E-02 0.46730640E+03</pdfrwt>
<totfact> 0.27472608E+03</totfact>
</mgrwt>
</event>
<event>
 4    1  0.1837449E-005  0.8933758E+03  0.7818608E-02  0.9433900E-01
         -2   -1    0    0    0  501 -0.00000000000E+00  0.00000000000E+00  0.14013219026E+03  0.14013219028E+03  0.25500000000E-02 0. -1.
          2   -1    0    0  501    0  0.00000000000E+00 -0.00000000000E+00 -0.14238703798E+04  0.14238703798E+04  0.25500000000E-02 0.  1.
    5000001    1    1    2    0    0  0.36124764319E+03  0.14395830637E+03 -0.89605482590E+03  0.99063772626E+03  0.16500000000E+03 0.  0.
   -5000001    1    1    2    0    0 -0.36124764319E+03 -0.14395830637E+03 -0.38768336364E+03  0.57336484382E+03  0.16500000000E+03 0.  0.
<mgrwt>
<rscale>  0 0.89337579E+03</rscale>
<asrwt>0</asrwt>
<pdfrwt beam="1">  1        2 0.20341005E+00 0.89337579E+03</pdfrwt>
<pdfrwt beam="2">  1       -2 0.20018885E-01 0.89337579E+03</pdfrwt>
<totfact> 0.34278977E+02</totfact>
</mgrwt>
</event>
<event>
 4    1  0.1837449E-005  0.5635819E+03  0.7818608E-02  0.9983982E-01
         -2   -1    0    0    0  501 -0.00000000000E+00  0.00000000000E+00  0.30277036039E+03  0.30277036040E+03  0.25500000000E-02 0. -1.
          2   -1    0    0  501    0  0.00000000000E+00 -0.00000000000E+00 -0.26226521486E+03  0.26226521488E+03  0.25500000000E-02 0.  1.
    5000001    1    1    2    0    0 -0.22355461467E+03 -0.17459812269E+01 -0.26787736661E+02  0.27914565558E+03  0.16500000000E+03 0.  0.
   -5000001    1    1    2    0    0  0.22355461467E+03  0.17459812269E+01  0.67292882183E+02  0.28588991970E+03  0.16500000000E+03 0.  0.
<mgrwt>
<rscale>  0 0.56358188E+03</rscale>
<asrwt>0</asrwt>
<pdfrwt beam="1">  1        2 0.37466459E-01 0.56358188E+03</pdfrwt>
<pdfrwt beam="2">  1       -2 0.43252909E-01 0.56358188E+03</pdfrwt>
<totfact> 0.70619988E+02</totfact>
</mgrwt>
</event>
<event>
 4    1  0.1837449E-005  0.5255196E+03  0.7818608E-02  0.1007325E+00
          2   -1    0    0  501    0  0.00000000000E+00  0.00000000000E+00  0.21552961095E+04  0.21552961095E+04  0.25500000000E-02 0.  1.
         -2   -1    0    0    0  501 -0.00000000000E+00 -0.00000000000E+00 -0.32033982387E+02  0.32033982489E+02  0.25500000000E-02 0. -1.
    5000001    1    1    2    0    0 -0.39541880984E+02 -0.19898693557E+03  0.11684273299E+04  0.11973331976E+04  0.16500000000E+03 0.  0.
   -5000001    1    1    2    0    0  0.39541880984E+02  0.19898693557E+03  0.95483479721E+03  0.98999689436E+03  0.16500000000E+03 0.  0.
<mgrwt>
<rscale>  0 0.52551962E+03</rscale>
<asrwt>0</asrwt>
<pdfrwt beam="1">  1        2 0.30789952E+00 0.52551962E+03</pdfrwt>
<pdfrwt beam="2">  1       -2 0.45762821E-02 0.52551962E+03</pdfrwt>
<totfact> 0.16351935E+03</totfact>
</mgrwt>
</event>
<event>
 4    1  0.1837449E-005  0.5817627E+03  0.7818608E-02  0.9943982E-01
          2   -1    0    0  501    0  0.00000000000E+00  0.00000000000E+00  0.23426710665E+04  0.23426710665E+04  0.25500000000E-02 0.  1.
         -2   -1    0    0    0  501 -0.00000000000E+00 -0.00000000000E+00 -0.36117734837E+02  0.36117734927E+02  0.25500000000E-02 0. -1.
    5000001    1    1    2    0    0  0.17188759602E+03 -0.13475093983E+03  0.15556536520E+04  0.15795526095E+04  0.16500000000E+03 0.  0.
   -5000001    1    1    2    0    0 -0.17188759602E+03  0.13475093983E+03  0.75089967974E+03  0.79923619192E+03  0.16500000000E+03 0.  0.
<mgrwt>
<rscale>  0 0.58176274E+03</rscale>
<asrwt>0</asrwt>
<pdfrwt beam="1">  1        2 0.33466735E+00 0.58176274E+03</pdfrwt>
<pdfrwt beam="2">  1       -2 0.51596755E-02 0.58176274E+03</pdfrwt>
<totfact> 0.10893360E+03</totfact>
</mgrwt>
</event>
<event>
 4    1  0.1837449E-005  0.4417431E+03  0.7818608E-02  0.1030213E+00
          2   -1    0    0  501    0  0.00000000000E+00  0.00000000000E+00  0.39356479563E+03  0.39356479564E+03  0.25500000000E-02 0.  1.
         -2   -1    0    0    0  501 -0.00000000000E+00 -0.00000000000E+00 -0.12395476960E+03  0.12395476963E+03  0.25500000000E-02 0. -1.
    5000001    1    1    2    0    0 -0.79186093108E+02  0.73690802695E+01  0.27940592621E+03  0.33409192191E+03  0.16500000000E+03 0.  0.
   -5000001    1    1    2    0    0  0.79186093108E+02 -0.73690802695E+01 -0.97959001832E+01  0.18342764335E+03  0.16500000000E+03 0.  0.
<mgrwt>
<rscale>  0 0.44174306E+03</rscale>
<asrwt>0</asrwt>
<pdfrwt beam="1">  1        2 0.56223541E-01 0.44174306E+03</pdfrwt>
<pdfrwt beam="2">  1       -2 0.17707825E-01 0.44174306E+03</pdfrwt>
<totfact> 0.23004366E+03</totfact>
</mgrwt>
</event>
<event>
 4    1  0.1837449E-005  0.3903667E+03  0.7818608E-02  0.1047167E+00
          2   -1    0    0  501    0  0.00000000000E+00  0.00000000000E+00  0.41120273267E+03  0.41120273268E+03  0.25500000000E-02 0.  1.
         -2   -1    0    0    0  501 -0.00000000000E+00 -0.00000000000E+00 -0.92646623672E+02  0.92646623707E+02  0.25500000000E-02 0. -1.
    5000001    1    1    2    0    0  0.10019969319E+03 -0.24316575108E+01  0.12219061977E+03  0.22847634240E+03  0.16500000000E+03 0.  0.
   -5000001    1    1    2    0    0 -0.10019969319E+03  0.24316575108E+01  0.19636548922E+03  0.27537301399E+03  0.16500000000E+03 0.  0.
<mgrwt>
<rscale>  0 0.39036672E+03</rscale>
<asrwt>0</asrwt>
<pdfrwt beam="1">  1        2 0.58743247E-01 0.39036672E+03</pdfrwt>
<pdfrwt beam="2">  1       -2 0.13235232E-01 0.39036672E+03</pdfrwt>
<totfact> 0.35615479E+03</totfact>
</mgrwt>
</event>
<event>
 4    1  0.1837449E-005  0.8981657E+03  0.7818608E-02  0.9427877E-01
         -2   -1    0    0    0  501 -0.00000000000E+00  0.00000000000E+00  0.22840544327E+04  0.22840544327E+04  0.25500000000E-02 0. -1.
          2   -1    0    0  501    0  0.00000000000E+00 -0.00000000000E+00 -0.88297116548E+02  0.88297116585E+02  0.25500000000E-02 0.  1.
    5000001    1    1    2    0    0 -0.37141996261E+03  0.10726794434E+03  0.68032115371E+03  0.79970061442E+03  0.16500000000E+03 0.  0.
   -5000001    1    1    2    0    0  0.37141996261E+03 -0.10726794434E+03  0.15154361624E+04  0.15726509348E+04  0.16500000000E+03 0.  0.
<mgrwt>
<rscale>  0 0.89816573E+03</rscale>
<asrwt>0</asrwt>
<pdfrwt beam="1">  1        2 0.12613874E-01 0.89816573E+03</pdfrwt>
<pdfrwt beam="2">  1       -2 0.32629348E+00 0.89816573E+03</pdfrwt>
<totfact> 0.11212630E+01</totfact>
</mgrwt>
</event>
<event>
 4    1  0.1837449E-005  0.4566144E+03  0.7818608E-02  0.1025768E+00
          2   -1    0    0  501    0  0.00000000000E+00  0.00000000000E+00  0.12544627710E+04  0.12544627710E+04  0.25500000000E-02 0.  1.
         -2   -1    0    0    0  501 -0.00000000000E+00 -0.00000000000E+00 -0.41550987010E+02  0.41550987088E+02  0.25500000000E-02 0. -1.
    5000001    1    1    2    0    0 -0.13030873129E+02  0.78540641678E+02  0.21977066073E+03  0.28611637382E+03  0.16500000000E+03 0.  0.
   -5000001    1    1    2    0    0  0.13030873129E+02 -0.78540641678E+02  0.99314112328E+03  0.10098973843E+04  0.16500000000E+03 0.  0.
<mgrwt>
<rscale>  0 0.45661435E+03</rscale>
<asrwt>0</asrwt>
<pdfrwt beam="1">  1        2 0.17920896E+00 0.45661435E+03</pdfrwt>
<pdfrwt beam="2">  1       -2 0.59358557E-02 0.45661435E+03</pdfrwt>
<totfact> 0.31591087E+03</totfact>
</mgrwt>
</event>
<event>
 4    1  0.1837449E-005  0.5933905E+03  0.7818608E-02  0.9919214E-01
          2   -1    0    0  501    0  0.00000000000E+00  0.00000000000E+00  0.18002699218E+04  0.18002699218E+04  0.25500000000E-02 0.  1.
         -2   -1    0    0    0  501 -0.00000000000E+00 -0.00000000000E+00 -0.48897156156E+02  0.48897156222E+02  0.25500000000E-02 0. -1.
    5000001    1    1    2    0    0  0.26648472789E+02  0.23700355503E+03  0.10708520250E+04  0.11094277289E+04  0.16500000000E+03 0.  0.
   -5000001    1    1    2    0    0 -0.26648472789E+02 -0.23700355503E+03  0.68052074064E+03  0.73973934912E+03  0.16500000000E+03 0.  0.
<mgrwt>
<rscale>  0 0.59339053E+03</rscale>
<asrwt>0</asrwt>
<pdfrwt beam="1">  1        2 0.25718141E+00 0.59339053E+03</pdfrwt>
<pdfrwt beam="2">  1       -2 0.69853082E-02 0.59339053E+03</pdfrwt>
<totfact> 0.12700851E+03</totfact>
</mgrwt>
</event>
<event>
 4    1  0.1837449E-005  0.4568033E+03  0.7818608E-02  0.1025712E+00
         -2   -1    0    0    0  501 -0.00000000000E+00  0.00000000000E+00  0.42833216752E+03  0.42833216753E+03  0.25500000000E-02 0. -1.
          2   -1    0    0  501    0  0.00000000000E+00 -0.00000000000E+00 -0.12179170707E+03  0.12179170709E+03  0.25500000000E-02 0.  1.
    5000001    1    1    2    0    0 -0.10715152286E+02  0.15463992506E+03  0.18967856537E+03  0.29534941861E+03  0.16500000000E+03 0.  0.
   -5000001    1    1    2    0    0  0.10715152286E+02 -0.15463992506E+03  0.11686189508E+03  0.25477445601E+03  0.16500000000E+03 0.  0.
<mgrwt>
<rscale>  0 0.45680327E+03</rscale>
<asrwt>0</asrwt>
<pdfrwt beam="1">  1        2 0.17398815E-01 0.45680327E+03</pdfrwt>
<pdfrwt beam="2">  1       -2 0.61190310E-01 0.45680327E+03</pdfrwt>
<totfact> 0.83587128E+02</totfact>
</mgrwt>
</event>
<event>
 4    1  0.1837449E-005  0.5019159E+03  0.7818608E-02  0.1013280E+00
         -2   -1    0    0    0  501 -0.00000000000E+00  0.00000000000E+00  0.64105969247E+02  0.64105969298E+02  0.25500000000E-02 0. -1.
          2   -1    0    0  501    0  0.00000000000E+00 -0.00000000000E+00 -0.98243430606E+03  0.98243430607E+03  0.25500000000E-02 0.  1.
    5000001    1    1    2    0    0  0.11698097871E+03 -0.10953796074E+03 -0.66842033725E+03  0.70689027541E+03  0.16500000000E+03 0.  0.
   -5000001    1    1    2    0    0 -0.11698097871E+03  0.10953796074E+03 -0.24990799957E+03  0.33964999996E+03  0.16500000000E+03 0.  0.
<mgrwt>
<rscale>  0 0.50191594E+03</rscale>
<asrwt>0</asrwt>
<pdfrwt beam="1">  1        2 0.14034775E+00 0.50191594E+03</pdfrwt>
<pdfrwt beam="2">  1       -2 0.91579962E-02 0.50191594E+03</pdfrwt>
<totfact> 0.22839333E+03</totfact>
</mgrwt>
</event>
<event>
 4    1  0.1837449E-005  0.5180969E+03  0.7818608E-02  0.1009160E+00
          2   -1    0    0  501    0  0.00000000000E+00  0.00000000000E+00  0.28081758240E+04  0.28081758240E+04  0.25500000000E-02 0.  1.
         -2   -1    0    0    0  501 -0.00000000000E+00 -0.00000000000E+00 -0.23896682732E+02  0.23896682868E+02  0.25500000000E-02 0. -1.
    5000001    1    1    2    0    0 -0.98958429570E+02  0.11770079298E+02  0.23381376246E+04  0.23460698748E+04  0.16500000000E+03 0.  0.
   -5000001    1    1    2    0    0  0.98958429570E+02 -0.11770079298E+02  0.44614151665E+03  0.48600263212E+03  0.16500000000E+03 0.  0.
<mgrwt>
<rscale>  0 0.51809685E+03</rscale>
<asrwt>0</asrwt>
<pdfrwt beam="1">  1        2 0.40116753E+00 0.51809685E+03</pdfrwt>
<pdfrwt beam="2">  1       -2 0.34138156E-02 0.51809685E+03</pdfrwt>
<totfact> 0.11877723E+03</totfact>
</mgrwt>
</event>
<event>
 4    1  0.1837449E-005  0.5994719E+03  0.7818608E-02  0.9906502E-01
          2   -1    0    0  501    0  0.00000000000E+00  0.00000000000E+00  0.23481913951E+04  0.23481913951E+04  0.25500000000E-02 0.  1.
         -2   -1    0    0    0  501 -0.00000000000E+00 -0.00000000000E+00 -0.38259928038E+02  0.38259928123E+02  0.25500000000E-02 0. -1.
    5000001    1    1    2    0    0  0.23470984935E+03 -0.86215064003E+02  0.11161883461E+04  0.11556916434E+04  0.16500000000E+03 0.  0.
   -5000001    1    1    2    0    0 -0.23470984935E+03  0.86215064003E+02  0.11937431209E+04  0.12307596798E+04  0.16500000000E+03 0.  0.
<mgrwt>
<rscale>  0 0.59947188E+03</rscale>
<asrwt>0</asrwt>
<pdfrwt beam="1">  1        2 0.33545610E+00 0.59947188E+03</pdfrwt>
<pdfrwt beam="2">  1       -2 0.54657009E-02 0.59947188E+03</pdfrwt>
<totfact> 0.98836666E+02</totfact>
</mgrwt>
</event>
<event>
 4    1  0.1837449E-005  0.5074841E+03  0.7818608E-02  0.1011844E+00
          2   -1    0    0  501    0  0.00000000000E+00  0.00000000000E+00  0.64235684765E+03  0.64235684765E+03  0.25500000000E-02 0.  1.
         -2   -1    0    0    0  501 -0.00000000000E+00 -0.00000000000E+00 -0.10023251107E+03  0.10023251110E+03  0.25500000000E-02 0. -1.
    5000001    1    1    2    0    0  0.10204214423E+03 -0.16049393073E+03  0.22504129318E+03  0.33769732696E+03  0.16500000000E+03 0.  0.
   -5000001    1    1    2    0    0 -0.10204214423E+03  0.16049393073E+03  0.31708304340E+03  0.40489203180E+03  0.16500000000E+03 0.  0.
<mgrwt>
<rscale>  0 0.50748415E+03</rscale>
<asrwt>0</asrwt>
<pdfrwt beam="1">  1        2 0.91765264E-01 0.50748415E+03</pdfrwt>
<pdfrwt beam="2">  1       -2 0.14318930E-01 0.50748415E+03</pdfrwt>
<totfact> 0.18895662E+03</totfact>
</mgrwt>
</event>
<event>
 4    1  0.1837449E-005  0.4121667E+03  0.7818608E-02  0.1039646E+00
         -2   -1    0    0    0  501 -0.00000000000E+00  0.00000000000E+00  0.39189677467E+03  0.39189677468E+03  0.25500000000E-02 0. -1.
          2   -1    0    0  501    0  0.00000000000E+00 -0.00000000000E+00 -0.10837124752E+03  0.10837124755E+03  0.25500000000E-02 0.  1.
    5000001    1    1    2    0    0 -0.59707645315E+02 -0.75633754832E+02  0.48060857055E+02  0.19702871303E+03  0.16500000000E+03 0.  0.
   -5000001    1    1    2    0    0  0.59707645315E+02  0.75633754832E+02  0.23546467010E+03  0.30323930920E+03  0.16500000000E+03 0.  0.
<mgrwt>
<rscale>  0 0.41216668E+03</rscale>
<asrwt>0</asrwt>
<pdfrwt beam="1">  1        2 0.15481607E-01 0.41216668E+03</pdfrwt>
<pdfrwt beam="2">  1       -2 0.55985252E-01 0.41216668E+03</pdfrwt>
<totfact> 0.11546894E+03</totfact>
</mgrwt>
</event>
<event>
 4    1  0.1837449E-005  0.4059660E+03  0.7818608E-02  0.1041733E+00
          2   -1    0    0  501    0  0.00000000000E+00  0.00000000000E+00  0.23913511825E+04  0.23913511825E+04  0.25500000000E-02 0.  1.
         -2   -1    0    0    0  501 -0.00000000000E+00 -0.00000000000E+00 -0.17229628388E+02  0.17229628577E+02  0.25500000000E-02 0. -1.
    5000001    1    1    2    0    0 -0.15720266377E+01  0.84286090120E+02  0.16788341496E+04  0.16890280394E+04  0.16500000000E+03 0.  0.
   -5000001    1    1    2    0    0  0.15720266377E+01 -0.84286090120E+02  0.69528740453E+03  0.71955277162E+03  0.16500000000E+03 0.  0.
<mgrwt>
<rscale>  0 0.40596597E+03</rscale>
<asrwt>0</asrwt>
<pdfrwt beam="1">  1        2 0.34162122E+00 0.40596597E+03</pdfrwt>
<pdfrwt beam="2">  1       -2 0.24613782E-02 0.40596597E+03</pdfrwt>
<totfact> 0.32093456E+03</totfact>
</mgrwt>
</event>
<event>
 4    1  0.1837449E-005  0.1406091E+04  0.7818608E-02  0.8949421E-01
          2   -1    0    0  501    0  0.00000000000E+00  0.00000000000E+00  0.15946990026E+04  0.15946990026E+04  0.25500000000E-02 0.  1.
         -2   -1    0    0    0  501 -0.00000000000E+00 -0.00000000000E+00 -0.30994756420E+03  0.30994756421E+03  0.25500000000E-02 0. -1.
    5000001    1    1    2    0    0 -0.24993369270E+03  0.59024455565E+03  0.32127562421E+03  0.73572991847E+03  0.16500000000E+03 0.  0.
   -5000001    1    1    2    0    0  0.24993369270E+03 -0.59024455565E+03  0.96347581418E+03  0.11689166483E+04  0.16500000000E+03 0.  0.
<mgrwt>
<rscale>  0 0.14060911E+04</rscale>
<asrwt>0</asrwt>
<pdfrwt beam="1">  1        2 0.22781414E+00 0.14060911E+04</pdfrwt>
<pdfrwt beam="2">  1       -2 0.44278224E-01 0.14060911E+04</pdfrwt>
<totfact> 0.61328755E+01</totfact>
</mgrwt>
</event>
<event>
 4    1  0.1837449E-005  0.7628090E+03  0.7818608E-02  0.9615467E-01
         -2   -1    0    0    0  501 -0.00000000000E+00  0.00000000000E+00  0.14402189118E+03  0.14402189121E+03  0.25500000000E-02 0. -1.
          2   -1    0    0  501    0  0.00000000000E+00 -0.00000000000E+00 -0.10100506546E+04  0.10100506546E+04  0.25500000000E-02 0.  1.
    5000001    1    1    2    0    0  0.31402027208E+03  0.14005387496E+03 -0.42614991791E+03  0.57188510358E+03  0.16500000000E+03 0.  0.
   -5000001    1    1    2    0    0 -0.31402027208E+03 -0.14005387496E+03 -0.43987884554E+03  0.58218744226E+03  0.16500000000E+03 0.  0.
<mgrwt>
<rscale>  0 0.76280903E+03</rscale>
<asrwt>0</asrwt>
<pdfrwt beam="1">  1        2 0.14429295E+00 0.76280903E+03</pdfrwt>
<pdfrwt beam="2">  1       -2 0.20574556E-01 0.76280903E+03</pdfrwt>
<totfact> 0.56397663E+02</totfact>
</mgrwt>
</event>
<event>
 4    1  0.1837449E-005  0.5864988E+03  0.7818608E-02  0.9933820E-01
          2   -1    0    0  501    0  0.00000000000E+00  0.00000000000E+00  0.46318662349E+03  0.46318662350E+03  0.25500000000E-02 0.  1.
         -2   -1    0    0    0  501 -0.00000000000E+00 -0.00000000000E+00 -0.18565994052E+03  0.18565994054E+03  0.25500000000E-02 0. -1.
    5000001    1    1    2    0    0  0.22758311775E+03 -0.44540697816E+02  0.21693028737E+03  0.35785709274E+03  0.16500000000E+03 0.  0.
   -5000001    1    1    2    0    0 -0.22758311775E+03  0.44540697816E+02  0.60596395608E+02  0.29098947130E+03  0.16500000000E+03 0.  0.
<mgrwt>
<rscale>  0 0.58649877E+03</rscale>
<asrwt>0</asrwt>
<pdfrwt beam="1">  1        2 0.66169517E-01 0.58649877E+03</pdfrwt>
<pdfrwt beam="2">  1       -2 0.26522849E-01 0.58649877E+03</pdfrwt>
<totfact> 0.94538476E+02</totfact>
</mgrwt>
</event>
<event>
 4    1  0.1837449E-005  0.6416609E+03  0.7818608E-02  0.9822554E-01
         -2   -1    0    0    0  501 -0.00000000000E+00  0.00000000000E+00  0.56477060011E+02  0.56477060068E+02  0.25500000000E-02 0. -1.
          2   -1    0    0  501    0  0.00000000000E+00 -0.00000000000E+00 -0.18225487196E+04  0.18225487197E+04  0.25500000000E-02 0.  1.
    5000001    1    1    2    0    0  0.22948358967E+03 -0.14024190382E+03 -0.10532016518E+04  0.10994495118E+04  0.16500000000E+03 0.  0.
   -5000001    1    1    2    0    0 -0.22948358967E+03  0.14024190382E+03 -0.71287000780E+03  0.77957626794E+03  0.16500000000E+03 0.  0.
<mgrwt>
<rscale>  0 0.64166095E+03</rscale>
<asrwt>0</asrwt>
<pdfrwt beam="1">  1        2 0.26036407E+00 0.64166095E+03</pdfrwt>
<pdfrwt beam="2">  1       -2 0.80681525E-02 0.64166095E+03</pdfrwt>
<totfact> 0.98209008E+02</totfact>
</mgrwt>
</event>
<event>
 4    1  0.1837449E-005  0.1121712E+04  0.7818608E-02  0.9184285E-01
          2   -1    0    0  501    0  0.00000000000E+00  0.00000000000E+00  0.10590205633E+04  0.10590205633E+04  0.25500000000E-02 0.  1.
         -2   -1    0    0    0  501 -0.00000000000E+00 -0.00000000000E+00 -0.29702846030E+03  0.29702846031E+03  0.25500000000E-02 0. -1.
    5000001    1    1    2    0    0  0.22098570377E+03 -0.12673237338E+03  0.95115916504E+03  0.99841100404E+03  0.16500000000E+03 0.  0.
   -5000001    1    1    2    0    0 -0.22098570377E+03  0.12673237338E+03 -0.18916706201E+03  0.35763801962E+03  0.16500000000E+03 0.  0.
<mgrwt>
<rscale>  0 0.11217116E+04</rscale>
<asrwt>0</asrwt>
<pdfrwt beam="1">  1        2 0.15128865E+00 0.11217116E+04</pdfrwt>
<pdfrwt beam="2">  1       -2 0.42432638E-01 0.11217116E+04</pdfrwt>
<totfact> 0.13481610E+02</totfact>
</mgrwt>
</event>
<event>
 4    1  0.1837449E-005  0.6172821E+03  0.7818608E-02  0.9870186E-01
          2   -1    0    0  501    0  0.00000000000E+00  0.00000000000E+00  0.86601868967E+03  0.86601868968E+03  0.25500000000E-02 0.  1.
         -2   -1    0    0    0  501 -0.00000000000E+00 -0.00000000000E+00 -0.10999680301E+03  0.10999680304E+03  0.25500000000E-02 0. -1.
    5000001    1    1    2    0    0 -0.53566051060E+02  0.25002965326E+03  0.45940773516E+03  0.55105772516E+03  0.16500000000E+03 0.  0.
   -5000001    1    1    2    0    0  0.53566051060E+02 -0.25002965326E+03  0.29661415150E+03  0.42495776755E+03  0.16500000000E+03 0.  0.
<mgrwt>
<rscale>  0 0.61728207E+03</rscale>
<asrwt>0</asrwt>
<pdfrwt beam="1">  1        2 0.12371695E+00 0.61728207E+03</pdfrwt>
<pdfrwt beam="2">  1       -2 0.15713829E-01 0.61728207E+03</pdfrwt>
<totfact> 0.11123006E+03</totfact>
</mgrwt>
</event>
<event>
 4    1  0.1837449E-005  0.5090269E+03  0.7818608E-02  0.1011449E+00
         -2   -1    0    0    0  501 -0.00000000000E+00  0.00000000000E+00  0.26225960633E+02  0.26225960757E+02  0.25500000000E-02 0. -1.
          2   -1    0    0  501    0  0.00000000000E+00 -0.00000000000E+00 -0.24699610145E+04  0.24699610145E+04  0.25500000000E-02 0.  1.
    5000001    1    1    2    0    0 -0.10153633303E+03  0.10600967239E+03 -0.60148954677E+03  0.64075139675E+03  0.16500000000E+03 0.  0.
   -5000001    1    1    2    0    0  0.10153633303E+03 -0.10600967239E+03 -0.18422455071E+04  0.18554355785E+04  0.16500000000E+03 0.  0.
<mgrwt>
<rscale>  0 0.50902692E+03</rscale>
<asrwt>0</asrwt>
<pdfrwt beam="1">  1        2 0.35285142E+00 0.50902692E+03</pdfrwt>
<pdfrwt beam="2">  1       -2 0.37465674E-02 0.50902692E+03</pdfrwt>
<totfact> 0.15435752E+03</totfact>
</mgrwt>
</event>
<event>
 4    1  0.1837449E-005  0.6235847E+03  0.7818608E-02  0.9857648E-01
          2   -1    0    0  501    0  0.00000000000E+00  0.00000000000E+00  0.18560872787E+04  0.18560872787E+04  0.25500000000E-02 0.  1.
         -2   -1    0    0    0  501 -0.00000000000E+00 -0.00000000000E+00 -0.52376028310E+02  0.52376028372E+02  0.25500000000E-02 0. -1.
    5000001    1    1    2    0    0  0.23339995333E+03 -0.40303437251E+02  0.54116669533E+03  0.61334027864E+03  0.16500000000E+03 0.  0.
   -5000001    1    1    2    0    0 -0.23339995333E+03  0.40303437251E+02  0.12625445550E+04  0.12951230284E+04  0.16500000000E+03 0.  0.
<mgrwt>
<rscale>  0 0.62358473E+03</rscale>
<asrwt>0</asrwt>
<pdfrwt beam="1">  1        2 0.26515533E+00 0.62358473E+03</pdfrwt>
<pdfrwt beam="2">  1       -2 0.74822897E-02 0.62358473E+03</pdfrwt>
<totfact> 0.10659924E+03</totfact>
</mgrwt>
</event>
<event>
 4    1  0.1837449E-005  0.8669615E+03  0.7818608E-02  0.9467850E-01
         -2   -1    0    0    0  501 -0.00000000000E+00  0.00000000000E+00  0.18811012500E+03  0.18811012502E+03  0.25500000000E-02 0. -1.
          2   -1    0    0  501    0  0.00000000000E+00 -0.00000000000E+00 -0.99891251292E+03  0.99891251292E+03  0.25500000000E-02 0.  1.
    5000001    1    1    2    0    0  0.20049668802E+03 -0.28509399423E+03 -0.67649470521E+03  0.77868324345E+03  0.16500000000E+03 0.  0.
   -5000001    1    1    2    0    0 -0.20049668802E+03  0.28509399423E+03 -0.13430768271E+03  0.40833939448E+03  0.16500000000E+03 0.  0.
<mgrwt>
<rscale>  0 0.86696149E+03</rscale>
<asrwt>0</asrwt>
<pdfrwt beam="1">  1        2 0.14270179E+00 0.86696149E+03</pdfrwt>
<pdfrwt beam="2">  1       -2 0.26872875E-01 0.86696149E+03</pdfrwt>
<totfact> 0.35372629E+02</totfact>
</mgrwt>
</event>
<event>
 4    1  0.1837449E-005  0.3536410E+03  0.7818608E-02  0.1061130E+00
          2   -1    0    0  501    0  0.00000000000E+00  0.00000000000E+00  0.18376805975E+04  0.18376805975E+04  0.25500000000E-02 0.  1.
         -2   -1    0    0    0  501 -0.00000000000E+00 -0.00000000000E+00 -0.17013563557E+02  0.17013563748E+02  0.25500000000E-02 0. -1.
    5000001    1    1    2    0    0 -0.12053275705E+02  0.18328485625E+02  0.12232228705E+04  0.12344960129E+04  0.16500000000E+03 0.  0.
   -5000001    1    1    2    0    0  0.12053275705E+02 -0.18328485625E+02  0.59744416343E+03  0.62019814839E+03  0.16500000000E+03 0.  0.
<mgrwt>
<rscale>  0 0.35364104E+03</rscale>
<asrwt>0</asrwt>
<pdfrwt beam="1">  1        2 0.26252588E+00 0.35364104E+03</pdfrwt>
<pdfrwt beam="2">  1       -2 0.24305083E-02 0.35364104E+03</pdfrwt>
<totfact> 0.61565542E+03</totfact>
</mgrwt>
</event>
<event>
 4    1  0.1837449E-005  0.3706568E+03  0.7818608E-02  0.1054442E+00
         -2   -1    0    0    0  501 -0.00000000000E+00  0.00000000000E+00  0.51660325262E+02  0.51660325325E+02  0.25500000000E-02 0. -1.
          2   -1    0    0  501    0  0.00000000000E+00 -0.00000000000E+00 -0.66485477736E+03  0.66485477737E+03  0.25500000000E-02 0.  1.
    5000001    1    1    2    0    0  0.74354668083E+02 -0.39651015143E+02 -0.29778213792E+03  0.35071358874E+03  0.16500000000E+03 0.  0.
   -5000001    1    1    2    0    0 -0.74354668083E+02  0.39651015143E+02 -0.31541231418E+03  0.36580151395E+03  0.16500000000E+03 0.  0.
<mgrwt>
<rscale>  0 0.37065679E+03</rscale>
<asrwt>0</asrwt>
<pdfrwt beam="1">  1        2 0.94979249E-01 0.37065679E+03</pdfrwt>
<pdfrwt beam="2">  1       -2 0.73800469E-02 0.37065679E+03</pdfrwt>
<totfact> 0.52664841E+03</totfact>
</mgrwt>
</event>
<event>
 4    1  0.1837449E-005  0.3628787E+03  0.7818608E-02  0.1057450E+00
          2   -1    0    0  501    0  0.00000000000E+00  0.00000000000E+00  0.14246801071E+04  0.14246801071E+04  0.25500000000E-02 0.  1.
         -2   -1    0    0    0  501 -0.00000000000E+00 -0.00000000000E+00 -0.23107106613E+02  0.23107106754E+02  0.25500000000E-02 0. -1.
    5000001    1    1    2    0    0 -0.30029670120E+02 -0.62101491499E+02  0.57866830758E+03  0.60567349829E+03  0.16500000000E+03 0.  0.
   -5000001    1    1    2    0    0  0.30029670120E+02  0.62101491499E+02  0.82290469288E+03  0.84211371554E+03  0.16500000000E+03 0.  0.
<mgrwt>
<rscale>  0 0.36287869E+03</rscale>
<asrwt>0</asrwt>
<pdfrwt beam="1">  1        2 0.20352580E+00 0.36287869E+03</pdfrwt>
<pdfrwt beam="2">  1       -2 0.33010141E-02 0.36287869E+03</pdfrwt>
<totfact> 0.62833178E+03</totfact>
</mgrwt>
</event>
<event>
 4    1  0.1837449E-005  0.4905520E+03  0.7818608E-02  0.1016275E+00
         -2   -1    0    0    0  501 -0.00000000000E+00  0.00000000000E+00  0.47583693559E+03  0.47583693559E+03  0.25500000000E-02 0. -1.
          2   -1    0    0  501    0  0.00000000000E+00 -0.00000000000E+00 -0.12643053077E+03  0.12643053079E+03  0.25500000000E-02 0.  1.
    5000001    1    1    2    0    0  0.15936170345E+03  0.83442988436E+02  0.20417985763E+03  0.31823466044E+03  0.16500000000E+03 0.  0.
   -5000001    1    1    2    0    0 -0.15936170345E+03 -0.83442988436E+02  0.14522654719E+03  0.28403280595E+03  0.16500000000E+03 0.  0.
<mgrwt>
<rscale>  0 0.49055200E+03</rscale>
<asrwt>0</asrwt>
<pdfrwt beam="1">  1        2 0.18061504E-01 0.49055200E+03</pdfrwt>
<pdfrwt beam="2">  1       -2 0.67976705E-01 0.49055200E+03</pdfrwt>
<totfact> 0.63957555E+02</totfact>
</mgrwt>
</event>
<event>
 4    1  0.1837449E-005  0.3620895E+03  0.7818608E-02  0.1057760E+00
         -2   -1    0    0    0  501 -0.00000000000E+00  0.00000000000E+00  0.95188030029E+03  0.95188030030E+03  0.25500000000E-02 0. -1.
          2   -1    0    0  501    0  0.00000000000E+00 -0.00000000000E+00 -0.34434158513E+02  0.34434158607E+02  0.25500000000E-02 0.  1.
    5000001    1    1    2    0    0  0.60984625132E+02 -0.19492279318E+02  0.56255975135E+03  0.58974362845E+03  0.16500000000E+03 0.  0.
   -5000001    1    1    2    0    0 -0.60984625132E+02  0.19492279318E+02  0.35488639043E+03  0.39657083045E+03  0.16500000000E+03 0.  0.
<mgrwt>
<rscale>  0 0.36208948E+03</rscale>
<asrwt>0</asrwt>
<pdfrwt beam="1">  1        2 0.49191648E-02 0.36208948E+03</pdfrwt>
<pdfrwt beam="2">  1       -2 0.13598292E+00 0.36208948E+03</pdfrwt>
<totfact> 0.65861641E+02</totfact>
</mgrwt>
</event>
<event>
 4    1  0.1837449E-005  0.4039930E+03  0.7818608E-02  0.1042406E+00
          2   -1    0    0  501    0  0.00000000000E+00  0.00000000000E+00  0.14437656884E+04  0.14437656884E+04  0.25500000000E-02 0.  1.
         -2   -1    0    0    0  501 -0.00000000000E+00 -0.00000000000E+00 -0.28261225793E+02  0.28261225908E+02  0.25500000000E-02 0. -1.
    5000001    1    1    2    0    0 -0.99050505724E+02  0.58130062598E+02  0.77947669225E+03  0.80498386358E+03  0.16500000000E+03 0.  0.
   -5000001    1    1    2    0    0  0.99050505724E+02 -0.58130062598E+02  0.63602777032E+03  0.66704305070E+03  0.16500000000E+03 0.  0.
<mgrwt>
<rscale>  0 0.40399301E+03</rscale>
<asrwt>0</asrwt>
<pdfrwt beam="1">  1        2 0.20625230E+00 0.40399301E+03</pdfrwt>
<pdfrwt beam="2">  1       -2 0.40373168E-02 0.40399301E+03</pdfrwt>
<totfact> 0.45325139E+03</totfact>
</mgrwt>
</event>
<event>
 4    1  0.1837449E-005  0.6714744E+03  0.7818608E-02  0.9767298E-01
         -2   -1    0    0    0  501 -0.00000000000E+00  0.00000000000E+00  0.14089565628E+03  0.14089565631E+03  0.25500000000E-02 0. -1.
          2   -1    0    0  501    0  0.00000000000E+00 -0.00000000000E+00 -0.80002096031E+03  0.80002096031E+03  0.25500000000E-02 0.  1.
    5000001    1    1    2    0    0 -0.28384401158E+03 -0.68823174047E+02 -0.34889946294E+03  0.48400401593E+03  0.16500000000E+03 0.  0.
   -5000001    1    1    2    0    0  0.28384401158E+03  0.68823174047E+02 -0.31022584108E+03  0.45691260069E+03  0.16500000000E+03 0.  0.
<mgrwt>
<rscale>  0 0.67147443E+03</rscale>
<asrwt>0</asrwt>
<pdfrwt beam="1">  1        2 0.11428871E+00 0.67147443E+03</pdfrwt>
<pdfrwt beam="2">  1       -2 0.20127951E-01 0.67147443E+03</pdfrwt>
<totfact> 0.80468192E+02</totfact>
</mgrwt>
</event>
<event>
 4    1  0.1837449E-005  0.8812148E+03  0.7818608E-02  0.9449373E-01
         -2   -1    0    0    0  501 -0.00000000000E+00  0.00000000000E+00  0.69289495615E+02  0.69289495662E+02  0.25500000000E-02 0. -1.
          2   -1    0    0  501    0  0.00000000000E+00 -0.00000000000E+00 -0.28017935556E+04  0.28017935556E+04  0.25500000000E-02 0.  1.
    5000001    1    1    2    0    0 -0.31035535658E+03  0.19427291996E+03 -0.77575895647E+03  0.87354986883E+03  0.16500000000E+03 0.  0.
   -5000001    1    1    2    0    0  0.31035535658E+03 -0.19427291996E+03 -0.19567451035E+04  0.19975331824E+04  0.16500000000E+03 0.  0.
<mgrwt>
<rscale>  0 0.88121476E+03</rscale>
<asrwt>0</asrwt>
<pdfrwt beam="1">  1        2 0.40025615E+00 0.88121476E+03</pdfrwt>
<pdfrwt beam="2">  1       -2 0.98985011E-02 0.88121476E+03</pdfrwt>
<totfact> 0.21793082E+02</totfact>
</mgrwt>
</event>
<event>
 4    1  0.1837449E-005  0.5042419E+03  0.7818608E-02  0.1012678E+00
          2   -1    0    0  501    0  0.00000000000E+00  0.00000000000E+00  0.12021141903E+03  0.12021141906E+03  0.25500000000E-02 0.  1.
         -2   -1    0    0    0  501 -0.00000000000E+00 -0.00000000000E+00 -0.52877655955E+03  0.52877655955E+03  0.25500000000E-02 0. -1.
    5000001    1    1    2    0    0 -0.44085081858E+02 -0.12599788214E+03 -0.29124502448E+02  0.21422464235E+03  0.16500000000E+03 0.  0.
   -5000001    1    1    2    0    0  0.44085081858E+02  0.12599788214E+03 -0.37944063807E+03  0.43476333627E+03  0.16500000000E+03 0.  0.
<mgrwt>
<rscale>  0 0.50424193E+03</rscale>
<asrwt>0</asrwt>
<pdfrwt beam="1">  1        2 0.17173060E-01 0.50424193E+03</pdfrwt>
<pdfrwt beam="2">  1       -2 0.75539507E-01 0.50424193E+03</pdfrwt>
<totfact> 0.53953959E+02</totfact>
</mgrwt>
</event>
<event>
 4    1  0.1837449E-005  0.7733954E+03  0.7818608E-02  0.9599345E-01
          2   -1    0    0  501    0  0.00000000000E+00  0.00000000000E+00  0.14171814181E+04  0.14171814181E+04  0.25500000000E-02 0.  1.
         -2   -1    0    0    0  501 -0.00000000000E+00 -0.00000000000E+00 -0.10551584402E+03  0.10551584405E+03  0.25500000000E-02 0. -1.
    5000001    1    1    2    0    0  0.52781650224E+02  0.31389707813E+03  0.94109703796E+03  0.10070779082E+04  0.16500000000E+03 0.  0.
   -5000001    1    1    2    0    0 -0.52781650224E+02 -0.31389707813E+03  0.37056853615E+03  0.51561935403E+03  0.16500000000E+03 0.  0.
<mgrwt>
<rscale>  0 0.77339535E+03</rscale>
<asrwt>0</asrwt>
<pdfrwt beam="1">  1        2 0.20245448E+00 0.77339535E+03</pdfrwt>
<pdfrwt beam="2">  1       -2 0.15073693E-01 0.77339535E+03</pdfrwt>
<totfact> 0.56676806E+02</totfact>
</mgrwt>
</event>
<event>
 4    1  0.1837449E-005  0.5429448E+03  0.7818608E-02  0.1003140E+00
         -2   -1    0    0    0  501 -0.00000000000E+00  0.00000000000E+00  0.76793129275E+02  0.76793129318E+02  0.25500000000E-02 0. -1.
          2   -1    0    0  501    0  0.00000000000E+00 -0.00000000000E+00 -0.95968551224E+03  0.95968551224E+03  0.25500000000E-02 0.  1.
    5000001    1    1    2    0    0  0.52399795371E+02 -0.18396442008E+03 -0.25166094491E+03  0.35657660833E+03  0.16500000000E+03 0.  0.
   -5000001    1    1    2    0    0 -0.52399795371E+02  0.18396442008E+03 -0.63123143805E+03  0.67990203323E+03  0.16500000000E+03 0.  0.
<mgrwt>
<rscale>  0 0.54294476E+03</rscale>
<asrwt>0</asrwt>
<pdfrwt beam="1">  1        2 0.13709792E+00 0.54294476E+03</pdfrwt>
<pdfrwt beam="2">  1       -2 0.10970448E-01 0.54294476E+03</pdfrwt>
<totfact> 0.17612477E+03</totfact>
</mgrwt>
</event>
<event>
 4    1  0.1837449E-005  0.6404170E+03  0.7818608E-02  0.9824929E-01
          2   -1    0    0  501    0  0.00000000000E+00  0.00000000000E+00  0.30404803129E+04  0.30404803129E+04  0.25500000000E-02 0. -1.
         -2   -1    0    0    0  501 -0.00000000000E+00 -0.00000000000E+00 -0.33722791142E+02  0.33722791238E+02  0.25500000000E-02 0.  1.
    5000001    1    1    2    0    0 -0.20517377703E+03  0.67973135513E+02  0.23150700522E+04  0.23309849790E+04  0.16500000000E+03 0.  0.
   -5000001    1    1    2    0    0  0.20517377703E+03 -0.67973135513E+02  0.69168746959E+03  0.74321812513E+03  0.16500000000E+03 0.  0.
<mgrwt>
<rscale>  0 0.64041700E+03</rscale>
<asrwt>0</asrwt>
<pdfrwt beam="1">  1        2 0.43435425E+00 0.64041700E+03</pdfrwt>
<pdfrwt beam="2">  1       -2 0.48175425E-02 0.64041700E+03</pdfrwt>
<totfact> 0.51908147E+02</totfact>
</mgrwt>
</event>
<event>
 4    1  0.1837449E-005  0.4310287E+03  0.7818608E-02  0.1033536E+00
          2   -1    0    0  501    0  0.00000000000E+00  0.00000000000E+00  0.47444636749E+03  0.47444636749E+03  0.25500000000E-02 0. -1.
         -2   -1    0    0    0  501 -0.00000000000E+00 -0.00000000000E+00 -0.97896066598E+02  0.97896066631E+02  0.25500000000E-02 0.  1.
    5000001    1    1    2    0    0 -0.16012376862E+01  0.13779155882E+03  0.16803441456E+03  0.27285461718E+03  0.16500000000E+03 0.  0.
   -5000001    1    1    2    0    0  0.16012376862E+01 -0.13779155882E+03  0.20851588633E+03  0.29948781694E+03  0.16500000000E+03 0.  0.
<mgrwt>
<rscale>  0 0.43102869E+03</rscale>
<asrwt>0</asrwt>
<pdfrwt beam="1">  1        2 0.67778053E-01 0.43102869E+03</pdfrwt>
<pdfrwt beam="2">  1       -2 0.13985152E-01 0.43102869E+03</pdfrwt>
<totfact> 0.27799946E+03</totfact>
</mgrwt>
</event>
<event>
 4    1  0.1837449E-005  0.8240555E+03  0.7818608E-02  0.9525836E-01
         -2   -1    0    0    0  501 -0.00000000000E+00  0.00000000000E+00  0.15762935571E+03  0.15762935573E+03  0.25500000000E-02 0. -1.
          2   -1    0    0  501    0  0.00000000000E+00 -0.00000000000E+00 -0.10770003223E+04  0.10770003223E+04  0.25500000000E-02 0.  1.
    5000001    1    1    2    0    0  0.20165611298E+03  0.31906771445E+03 -0.47244009363E+03  0.62681260069E+03  0.16500000000E+03 0.  0.
   -5000001    1    1    2    0    0 -0.20165611298E+03 -0.31906771445E+03 -0.44693087292E+03  0.60781707731E+03  0.16500000000E+03 0.  0.
<mgrwt>
<rscale>  0 0.82405550E+03</rscale>
<asrwt>0</asrwt>
<pdfrwt beam="1">  1        2 0.15385719E+00 0.82405550E+03</pdfrwt>
<pdfrwt beam="2">  1       -2 0.22518480E-01 0.82405550E+03</pdfrwt>
<totfact> 0.43709539E+02</totfact>
</mgrwt>
</event>
<event>
 4    1  0.1837449E-005  0.3830006E+03  0.7818608E-02  0.1049830E+00
         -2   -1    0    0    0  501 -0.00000000000E+00  0.00000000000E+00  0.41441724879E+03  0.41441724880E+03  0.25500000000E-02 0. -1.
          2   -1    0    0  501    0  0.00000000000E+00 -0.00000000000E+00 -0.88491411296E+02  0.88491411333E+02  0.25500000000E-02 0.  1.
    5000001    1    1    2    0    0 -0.77355712311E+01  0.83691967091E+02  0.98861399237E+02  0.20991131622E+03  0.16500000000E+03 0.  0.
   -5000001    1    1    2    0    0  0.77355712311E+01 -0.83691967091E+02  0.22706443826E+03  0.29299734391E+03  0.16500000000E+03 0.  0.
<mgrwt>
<rscale>  0 0.38300061E+03</rscale>
<asrwt>0</asrwt>
<pdfrwt beam="1">  1        2 0.12641630E-01 0.38300061E+03</pdfrwt>
<pdfrwt beam="2">  1       -2 0.59202464E-01 0.38300061E+03</pdfrwt>
<totfact> 0.13130616E+03</totfact>
</mgrwt>
</event>
<event>
 4    1  0.1837449E-005  0.5234790E+03  0.7818608E-02  0.1007826E+00
         -2   -1    0    0    0  501 -0.00000000000E+00  0.00000000000E+00  0.81489627907E+02  0.81489627947E+02  0.25500000000E-02 0. -1.
          2   -1    0    0  501    0  0.00000000000E+00 -0.00000000000E+00 -0.84069057994E+03  0.84069057995E+03  0.25500000000E-02 0.  1.
    5000001    1    1    2    0    0 -0.18771056041E+03  0.53924729357E+02 -0.28089481555E+03  0.37982894614E+03  0.16500000000E+03 0.  0.
   -5000001    1    1    2    0    0  0.18771056041E+03 -0.53924729357E+02 -0.47830613648E+03  0.54235126175E+03  0.16500000000E+03 0.  0.
<mgrwt>
<rscale>  0 0.52347899E+03</rscale>
<asrwt>0</asrwt>
<pdfrwt beam="1">  1        2 0.12009865E+00 0.52347899E+03</pdfrwt>
<pdfrwt beam="2">  1       -2 0.11641376E-01 0.52347899E+03</pdfrwt>
<totfact> 0.19069331E+03</totfact>
</mgrwt>
</event>
<event>
 4    1  0.1837449E-005  0.5138686E+03  0.7818608E-02  0.1010221E+00
         -2   -1    0    0    0  501 -0.00000000000E+00  0.00000000000E+00  0.14429257035E+04  0.14429257035E+04  0.25500000000E-02 0. -1.
          2   -1    0    0  501    0  0.00000000000E+00 -0.00000000000E+00 -0.45750955151E+02  0.45750955222E+02  0.25500000000E-02 0.  1.
    5000001    1    1    2    0    0 -0.19122632844E+03  0.38245287142E+02  0.77845309307E+03  0.81929508041E+03  0.16500000000E+03 0.  0.
   -5000001    1    1    2    0    0  0.19122632844E+03 -0.38245287142E+02  0.61872165531E+03  0.66938157834E+03  0.16500000000E+03 0.  0.
<mgrwt>
<rscale>  0 0.51386858E+03</rscale>
<asrwt>0</asrwt>
<pdfrwt beam="1">  1        2 0.65358505E-02 0.51386858E+03</pdfrwt>
<pdfrwt beam="2">  1       -2 0.20613225E+00 0.51386858E+03</pdfrwt>
<totfact> 0.14435174E+02</totfact>
</mgrwt>
</event>
<event>
 4    1  0.1837449E-005  0.7362410E+03  0.7818608E-02  0.9657187E-01
         -2   -1    0    0    0  501 -0.00000000000E+00  0.00000000000E+00  0.10366525167E+03  0.10366525170E+03  0.25500000000E-02 0. -1.
          2   -1    0    0  501    0  0.00000000000E+00 -0.00000000000E+00 -0.13072142230E+04  0.13072142230E+04  0.25500000000E-02 0.  1.
    5000001    1    1    2    0    0 -0.11093245230E+03 -0.15161585773E+03 -0.84031229800E+02  0.26377950048E+03  0.16500000000E+03 0.  0.
   -5000001    1    1    2    0    0  0.11093245230E+03  0.15161585773E+03 -0.11195177415E+04  0.11470999742E+04  0.16500000000E+03 0.  0.
<mgrwt>
<rscale>  0 0.73624097E+03</rscale>
<asrwt>0</asrwt>
<pdfrwt beam="1">  1        2 0.18674488E+00 0.73624097E+03</pdfrwt>
<pdfrwt beam="2">  1       -2 0.14809322E-01 0.73624097E+03</pdfrwt>
<totfact> 0.67065504E+02</totfact>
</mgrwt>
</event>
<event>
 4    1  0.1837449E-005  0.4288578E+03  0.7818608E-02  0.1034221E+00
         -2   -1    0    0    0  501 -0.00000000000E+00  0.00000000000E+00  0.17198743821E+04  0.17198743821E+04  0.25500000000E-02 0. -1.
          2   -1    0    0  501    0  0.00000000000E+00 -0.00000000000E+00 -0.26734368692E+02  0.26734368813E+02  0.25500000000E-02 0.  1.
    5000001    1    1    2    0    0  0.33968749719E+01  0.13574987141E+03  0.77426502151E+03  0.80321285465E+03  0.16500000000E+03 0.  0.
   -5000001    1    1    2    0    0 -0.33968749719E+01 -0.13574987141E+03  0.91887499191E+03  0.94339589627E+03  0.16500000000E+03 0.  0.
<mgrwt>
<rscale>  0 0.42885781E+03</rscale>
<asrwt>0</asrwt>
<pdfrwt beam="1">  1        2 0.38191952E-02 0.42885781E+03</pdfrwt>
<pdfrwt beam="2">  1       -2 0.24569637E+00 0.42885781E+03</pdfrwt>
<totfact> 0.17045850E+02</totfact>
</mgrwt>
</event>
<event>
 4    1  0.1837449E-005  0.5371897E+03  0.7818608E-02  0.1004503E+00
          2   -1    0    0  501    0  0.00000000000E+00  0.00000000000E+00  0.33957813407E+03  0.33957813408E+03  0.25500000000E-02 0.  1.
         -2   -1    0    0    0  501 -0.00000000000E+00 -0.00000000000E+00 -0.21244944915E+03  0.21244944916E+03  0.25500000000E-02 0. -1.
    5000001    1    1    2    0    0 -0.15267361574E+03 -0.12855540993E+03  0.13682488897E+03  0.29288526185E+03  0.16500000000E+03 0.  0.
   -5000001    1    1    2    0    0  0.15267361574E+03  0.12855540993E+03 -0.96962040468E+01  0.25914232139E+03  0.16500000000E+03 0.  0.
<mgrwt>
<rscale>  0 0.53718968E+03</rscale>
<asrwt>0</asrwt>
<pdfrwt beam="1">  1        2 0.48511162E-01 0.53718968E+03</pdfrwt>
<pdfrwt beam="2">  1       -2 0.30349921E-01 0.53718968E+03</pdfrwt>
<totfact> 0.10432875E+03</totfact>
</mgrwt>
</event>
<event>
 4    1  0.1837449E-005  0.4031909E+03  0.7818608E-02  0.1042680E+00
         -2   -1    0    0    0  501 -0.00000000000E+00  0.00000000000E+00  0.29276819133E+02  0.29276819244E+02  0.25500000000E-02 0. -1.
          2   -1    0    0  501    0  0.00000000000E+00 -0.00000000000E+00 -0.13881535724E+04  0.13881535724E+04  0.25500000000E-02 0.  1.
    5000001    1    1    2    0    0 -0.54832493913E+02  0.60376493382E+02 -0.96856384552E+03  0.98589697544E+03  0.16500000000E+03 0.  0.
   -5000001    1    1    2    0    0  0.54832493913E+02 -0.60376493382E+02 -0.39031290770E+03  0.43153341616E+03  0.16500000000E+03 0.  0.
<mgrwt>
<rscale>  0 0.40319088E+03</rscale>
<asrwt>0</asrwt>
<pdfrwt beam="1">  1        2 0.19830761E+00 0.40319088E+03</pdfrwt>
<pdfrwt beam="2">  1       -2 0.41824036E-02 0.40319088E+03</pdfrwt>
<totfact> 0.45917396E+03</totfact>
</mgrwt>
</event>
<event>
 4    1  0.1837449E-005  0.4697954E+03  0.7818608E-02  0.1021978E+00
          2   -1    0    0  501    0  0.00000000000E+00  0.00000000000E+00  0.24043413540E+03  0.24043413542E+03  0.25500000000E-02 0. -1.
         -2   -1    0    0    0  501 -0.00000000000E+00 -0.00000000000E+00 -0.22948876729E+03  0.22948876730E+03  0.25500000000E-02 0.  1.
    5000001    1    1    2    0    0  0.13561721042E+03  0.97771102468E+02  0.63197392015E+01  0.23498118083E+03  0.16500000000E+03 0.  0.
   -5000001    1    1    2    0    0 -0.13561721042E+03 -0.97771102468E+02  0.46256289125E+01  0.23494172189E+03  0.16500000000E+03 0.  0.
<mgrwt>
<rscale>  0 0.46979542E+03</rscale>
<asrwt>0</asrwt>
<pdfrwt beam="1">  1        2 0.34347734E-01 0.46979542E+03</pdfrwt>
<pdfrwt beam="2">  1       -2 0.32784109E-01 0.46979542E+03</pdfrwt>
<totfact> 0.13218074E+03</totfact>
</mgrwt>
</event>
<event>
 4    1  0.1837449E-005  0.4510805E+03  0.7818608E-02  0.1027400E+00
          2   -1    0    0  501    0  0.00000000000E+00  0.00000000000E+00  0.48091748011E+04  0.48091748011E+04  0.25500000000E-02 0.  1.
         -2   -1    0    0    0  501 -0.00000000000E+00 -0.00000000000E+00 -0.10577367318E+02  0.10577367626E+02  0.25500000000E-02 0. -1.
    5000001    1    1    2    0    0 -0.11805992702E+03  0.17853939582E+01  0.34517522983E+04  0.34577102630E+04  0.16500000000E+03 0.  0.
   -5000001    1    1    2    0    0  0.11805992702E+03 -0.17853939582E+01  0.13468451355E+04  0.13620419058E+04  0.16500000000E+03 0.  0.
<mgrwt>
<rscale>  0 0.45108052E+03</rscale>
<asrwt>0</asrwt>
<pdfrwt beam="1">  1        2 0.68702527E+00 0.45108052E+03</pdfrwt>
<pdfrwt beam="2">  1       -2 0.15110518E-02 0.45108052E+03</pdfrwt>
<totfact> 0.20231178E+02</totfact>
</mgrwt>
</event>
<event>
 4    1  0.1837449E-005  0.8614055E+03  0.7818608E-02  0.9475155E-01
         -2   -1    0    0    0  501 -0.00000000000E+00  0.00000000000E+00  0.70625670198E+03  0.70625670198E+03  0.25500000000E-02 0. -1.
          2   -1    0    0  501    0  0.00000000000E+00 -0.00000000000E+00 -0.26265926547E+03  0.26265926548E+03  0.25500000000E-02 0.  1.
    5000001    1    1    2    0    0 -0.37146090509E+03  0.29028012375E+02  0.37868440864E+03  0.55628473901E+03  0.16500000000E+03 0.  0.
   -5000001    1    1    2    0    0  0.37146090509E+03 -0.29028012375E+02  0.64913027871E+02  0.41263122846E+03  0.16500000000E+03 0.  0.
<mgrwt>
<rscale>  0 0.86140552E+03</rscale>
<asrwt>0</asrwt>
<pdfrwt beam="1">  1        2 0.37522752E-01 0.86140552E+03</pdfrwt>
<pdfrwt beam="2">  1       -2 0.10089382E+00 0.86140552E+03</pdfrwt>
<totfact> 0.11244600E+02</totfact>
</mgrwt>
</event>
<event>
 4    1  0.1837449E-005  0.4137662E+03  0.7818608E-02  0.1039115E+00
         -2   -1    0    0    0  501 -0.00000000000E+00  0.00000000000E+00  0.18639860384E+02  0.18639860559E+02  0.25500000000E-02 0. -1.
          2   -1    0    0  501    0  0.00000000000E+00 -0.00000000000E+00 -0.22961871712E+04  0.22961871712E+04  0.25500000000E-02 0.  1.
    5000001    1    1    2    0    0 -0.95224562400E+02  0.79912349061E+02 -0.12005438689E+04  0.12181889353E+04  0.16500000000E+03 0.  0.
   -5000001    1    1    2    0    0  0.95224562400E+02 -0.79912349061E+02 -0.10770034419E+04  0.10966380965E+04  0.16500000000E+03 0.  0.
<mgrwt>
<rscale>  0 0.41376616E+03</rscale>
<asrwt>0</asrwt>
<pdfrwt beam="1">  1        2 0.32802656E+00 0.41376616E+03</pdfrwt>
<pdfrwt beam="2">  1       -2 0.26628387E-02 0.41376616E+03</pdfrwt>
<totfact> 0.31821978E+03</totfact>
</mgrwt>
</event>
<event>
 4    1  0.1837449E-005  0.4744323E+03  0.7818608E-02  0.1020677E+00
          2   -1    0    0  501    0  0.00000000000E+00  0.00000000000E+00  0.95470585850E+02  0.95470585884E+02  0.25500000000E-02 0.  1.
         -2   -1    0    0    0  501 -0.00000000000E+00 -0.00000000000E+00 -0.58941198609E+03  0.58941198610E+03  0.25500000000E-02 0. -1.
    5000001    1    1    2    0    0 -0.13424983847E+03 -0.74948415284E+02 -0.35311308560E+03  0.41899180815E+03  0.16500000000E+03 0.  0.
   -5000001    1    1    2    0    0  0.13424983847E+03  0.74948415284E+02 -0.14082831464E+03  0.26589076383E+03  0.16500000000E+03 0.  0.
<mgrwt>
<rscale>  0 0.47443232E+03</rscale>
<asrwt>0</asrwt>
<pdfrwt beam="1">  1        2 0.13638655E-01 0.47443232E+03</pdfrwt>
<pdfrwt beam="2">  1       -2 0.84201711E-01 0.47443232E+03</pdfrwt>
<totfact> 0.55894969E+02</totfact>
</mgrwt>
</event>
<event>
 4    1  0.1837449E-005  0.3750531E+03  0.7818608E-02  0.1052777E+00
          2   -1    0    0  501    0  0.00000000000E+00  0.00000000000E+00  0.16244427660E+04  0.16244427660E+04  0.25500000000E-02 0.  1.
         -2   -1    0    0    0  501 -0.00000000000E+00 -0.00000000000E+00 -0.21648167130E+02  0.21648167280E+02  0.25500000000E-02 0. -1.
    5000001    1    1    2    0    0  0.17318306086E+02 -0.47322853047E+02  0.47882162895E+03  0.50895434815E+03  0.16500000000E+03 0.  0.
   -5000001    1    1    2    0    0 -0.17318306086E+02  0.47322853047E+02  0.11239729700E+04  0.11371365852E+04  0.16500000000E+03 0.  0.
<mgrwt>
<rscale>  0 0.37505311E+03</rscale>
<asrwt>0</asrwt>
<pdfrwt beam="1">  1        2 0.23206321E+00 0.37505311E+03</pdfrwt>
<pdfrwt beam="2">  1       -2 0.30925958E-02 0.37505311E+03</pdfrwt>
<totfact> 0.54837993E+03</totfact>
</mgrwt>
</event>
<event>
 4    1  0.1837449E-005  0.4041097E+03  0.7818608E-02  0.1042366E+00
         -2   -1    0    0    0  501 -0.00000000000E+00  0.00000000000E+00  0.11011042996E+02  0.11011043291E+02  0.25500000000E-02 0. -1.
          2   -1    0    0  501    0  0.00000000000E+00 -0.00000000000E+00 -0.37077476871E+04  0.37077476871E+04  0.25500000000E-02 0.  1.
    5000001    1    1    2    0    0 -0.60512067924E+02  0.98686021835E+02 -0.17180556283E+04  0.17298383691E+04  0.16500000000E+03 0.  0.
   -5000001    1    1    2    0    0  0.60512067924E+02 -0.98686021835E+02 -0.19786810158E+04  0.19889203613E+04  0.16500000000E+03 0.  0.
<mgrwt>
<rscale>  0 0.40410974E+03</rscale>
<asrwt>0</asrwt>
<pdfrwt beam="1">  1        2 0.52967744E+00 0.40410974E+03</pdfrwt>
<pdfrwt beam="2">  1       -2 0.15730085E-02 0.40410974E+03</pdfrwt>
<totfact> 0.11913668E+03</totfact>
</mgrwt>
</event>
<event>
 4    1  0.1837449E-005  0.9565177E+03  0.7818608E-02  0.9357565E-01
         -2   -1    0    0    0  501 -0.00000000000E+00  0.00000000000E+00  0.32051103491E+03  0.32051103492E+03  0.25500000000E-02 0. -1.
          2   -1    0    0  501    0  0.00000000000E+00 -0.00000000000E+00 -0.71364628213E+03  0.71364628213E+03  0.25500000000E-02 0.  1.
    5000001    1    1    2    0    0 -0.44095350081E+03  0.46055721142E+02 -0.27259917484E+03  0.54598207795E+03  0.16500000000E+03 0.  0.
   -5000001    1    1    2    0    0  0.44095350081E+03 -0.46055721142E+02 -0.12053607238E+03  0.48817523910E+03  0.16500000000E+03 0.  0.
<mgrwt>
<rscale>  0 0.95651766E+03</rscale>
<asrwt>0</asrwt>
<pdfrwt beam="1">  1        2 0.10194947E+00 0.95651766E+03</pdfrwt>
<pdfrwt beam="2">  1       -2 0.45787291E-01 0.95651766E+03</pdfrwt>
<totfact> 0.19870181E+02</totfact>
</mgrwt>
</event>
<event>
 4    1  0.1837449E-005  0.5210853E+03  0.7818608E-02  0.1008417E+00
          2   -1    0    0  501    0  0.00000000000E+00  0.00000000000E+00  0.52390377454E+03  0.52390377455E+03  0.25500000000E-02 0.  1.
         -2   -1    0    0    0  501 -0.00000000000E+00 -0.00000000000E+00 -0.12957051150E+03  0.12957051153E+03  0.25500000000E-02 0. -1.
    5000001    1    1    2    0    0 -0.17743214911E+03  0.52610259033E+02  0.96782964851E+02  0.26616150957E+03  0.16500000000E+03 0.  0.
   -5000001    1    1    2    0    0  0.17743214911E+03 -0.52610259033E+02  0.29755029819E+03  0.38731277651E+03  0.16500000000E+03 0.  0.
<mgrwt>
<rscale>  0 0.52108533E+03</rscale>
<asrwt>0</asrwt>
<pdfrwt beam="1">  1        2 0.74843397E-01 0.52108533E+03</pdfrwt>
<pdfrwt beam="2">  1       -2 0.18510073E-01 0.52108533E+03</pdfrwt>
<totfact> 0.15507975E+03</totfact>
</mgrwt>
</event>
<event>
 4    1  0.1837449E-005  0.6767574E+03  0.7818608E-02  0.9757827E-01
          2   -1    0    0  501    0  0.00000000000E+00  0.00000000000E+00  0.15801171499E+04  0.15801171499E+04  0.25500000000E-02 0.  1.
         -2   -1    0    0    0  501 -0.00000000000E+00 -0.00000000000E+00 -0.72463066369E+02  0.72463066414E+02  0.25500000000E-02 0. -1.
    5000001    1    1    2    0    0  0.24911698286E+03 -0.13576934432E+03  0.95493348831E+03  0.10097601463E+04  0.16500000000E+03 0.  0.
   -5000001    1    1    2    0    0 -0.24911698286E+03  0.13576934432E+03  0.55272059522E+03  0.64282007000E+03  0.16500000000E+03 0.  0.
<mgrwt>
<rscale>  0 0.67675737E+03</rscale>
<asrwt>0</asrwt>
<pdfrwt beam="1">  1        2 0.22573098E+00 0.67675737E+03</pdfrwt>
<pdfrwt beam="2">  1       -2 0.10351869E-01 0.67675737E+03</pdfrwt>
<totfact> 0.87224139E+02</totfact>
</mgrwt>
</event>
<event>
 4    1  0.1837449E-005  0.3714989E+03  0.7818608E-02  0.1054121E+00
         -2   -1    0    0    0  501 -0.00000000000E+00  0.00000000000E+00  0.17527062706E+02  0.17527062891E+02  0.25500000000E-02 0. -1.
          2   -1    0    0  501    0  0.00000000000E+00 -0.00000000000E+00 -0.19685479864E+04  0.19685479864E+04  0.25500000000E-02 0.  1.
    5000001    1    1    2    0    0 -0.44645001050E+02  0.21877225108E+02 -0.13461343102E+04  0.13571198806E+04  0.16500000000E+03 0.  0.
   -5000001    1    1    2    0    0  0.44645001050E+02 -0.21877225108E+02 -0.60488661344E+03  0.62895516869E+03  0.16500000000E+03 0.  0.
<mgrwt>
<rscale>  0 0.37149893E+03</rscale>
<asrwt>0</asrwt>
<pdfrwt beam="1">  1        2 0.28122100E+00 0.37149893E+03</pdfrwt>
<pdfrwt beam="2">  1       -2 0.25038674E-02 0.37149893E+03</pdfrwt>
<totfact> 0.50760062E+03</totfact>
</mgrwt>
</event>
<event>
 4    1  0.1837449E-005  0.5350131E+03  0.7818608E-02  0.1005024E+00
         -2   -1    0    0    0  501 -0.00000000000E+00  0.00000000000E+00  0.40081730100E+02  0.40081730181E+02  0.25500000000E-02 0. -1.
          2   -1    0    0  501    0  0.00000000000E+00 -0.00000000000E+00 -0.17853461436E+04  0.17853461436E+04  0.25500000000E-02 0.  1.
    5000001    1    1    2    0    0 -0.87710922552E+02  0.12910273954E+03 -0.13548388449E+04  0.13737445246E+04  0.16500000000E+03 0.  0.
   -5000001    1    1    2    0    0  0.87710922552E+02 -0.12910273954E+03 -0.39042556864E+03  0.45168334919E+03  0.16500000000E+03 0.  0.
<mgrwt>
<rscale>  0 0.53501313E+03</rscale>
<asrwt>0</asrwt>
<pdfrwt beam="1">  1        2 0.25504940E+00 0.53501313E+03</pdfrwt>
<pdfrwt beam="2">  1       -2 0.57259626E-02 0.53501313E+03</pdfrwt>
<totfact> 0.17695535E+03</totfact>
</mgrwt>
</event>
<event>
 4    1  0.1837449E-005  0.1088560E+04  0.7818608E-02  0.9216414E-01
         -2   -1    0    0    0  501 -0.00000000000E+00  0.00000000000E+00  0.86350302720E+02  0.86350302757E+02  0.25500000000E-02 0. -1.
          2   -1    0    0  501    0  0.00000000000E+00 -0.00000000000E+00 -0.34306875150E+04  0.34306875150E+04  0.25500000000E-02 0.  1.
    5000001    1    1    2    0    0 -0.34744339926E+03 -0.38506286398E+03 -0.16885096614E+04  0.17740575531E+04  0.16500000000E+03 0.  0.
   -5000001    1    1    2    0    0  0.34744339926E+03  0.38506286398E+03 -0.16558275508E+04  0.17429802647E+04  0.16500000000E+03 0.  0.
<mgrwt>
<rscale>  0 0.10885603E+04</rscale>
<asrwt>0</asrwt>
<pdfrwt beam="1">  1        2 0.49009813E+00 0.10885603E+04</pdfrwt>
<pdfrwt beam="2">  1       -2 0.12335760E-01 0.10885603E+04</pdfrwt>
<totfact> 0.65805045E+01</totfact>
</mgrwt>
</event>
<event>
 4    1  0.1837449E-005  0.7827857E+03  0.7818608E-02  0.9585274E-01
         -2   -1    0    0    0  501 -0.00000000000E+00  0.00000000000E+00  0.12705963887E+03  0.12705963889E+03  0.25500000000E-02 0. -1.
          2   -1    0    0  501    0  0.00000000000E+00 -0.00000000000E+00 -0.12056412652E+04  0.12056412652E+04  0.25500000000E-02 0.  1.
    5000001    1    1    2    0    0 -0.23156325226E+03  0.51252907085E+02 -0.89766924361E+02  0.30254173430E+03  0.16500000000E+03 0.  0.
   -5000001    1    1    2    0    0  0.23156325226E+03 -0.51252907085E+02 -0.98881470200E+03  0.10301591698E+04  0.16500000000E+03 0.  0.
<mgrwt>
<rscale>  0 0.78278565E+03</rscale>
<asrwt>0</asrwt>
<pdfrwt beam="1">  1        2 0.17223446E+00 0.78278565E+03</pdfrwt>
<pdfrwt beam="2">  1       -2 0.18151378E-01 0.78278565E+03</pdfrwt>
<totfact> 0.53842092E+02</totfact>
</mgrwt>
</event>
<event>
 4    1  0.1837449E-005  0.4162345E+03  0.7818608E-02  0.1038299E+00
          2   -1    0    0  501    0  0.00000000000E+00  0.00000000000E+00  0.22596874507E+04  0.22596874507E+04  0.25500000000E-02 0.  1.
         -2   -1    0    0    0  501 -0.00000000000E+00 -0.00000000000E+00 -0.19167600250E+02  0.19167600419E+02  0.25500000000E-02 0. -1.
    5000001    1    1    2    0    0 -0.85226727977E+02  0.51372409908E+02  0.68968292673E+03  0.71609375021E+03  0.16500000000E+03 0.  0.
   -5000001    1    1    2    0    0  0.85226727977E+02 -0.51372409908E+02  0.15508369237E+04  0.15627613009E+04  0.16500000000E+03 0.  0.
<mgrwt>
<rscale>  0 0.41623448E+03</rscale>
<asrwt>0</asrwt>
<pdfrwt beam="1">  1        2 0.32281227E+00 0.41623448E+03</pdfrwt>
<pdfrwt beam="2">  1       -2 0.27382305E-02 0.41623448E+03</pdfrwt>
<totfact> 0.31819768E+03</totfact>
</mgrwt>
</event>
<event>
 4    1  0.1837449E-005  0.5175932E+03  0.7818608E-02  0.1009286E+00
          2   -1    0    0  501    0  0.00000000000E+00  0.00000000000E+00  0.15290335469E+04  0.15290335469E+04  0.25500000000E-02 0.  1.
         -2   -1    0    0    0  501 -0.00000000000E+00 -0.00000000000E+00 -0.43802614723E+02  0.43802614797E+02  0.25500000000E-02 0. -1.
    5000001    1    1    2    0    0  0.14816667531E+03  0.10162935818E+03  0.10052305819E+04  0.10344058260E+04  0.16500000000E+03 0.  0.
   -5000001    1    1    2    0    0 -0.14816667531E+03 -0.10162935818E+03  0.48000035027E+03  0.53843033568E+03  0.16500000000E+03 0.  0.
<mgrwt>
<rscale>  0 0.51759315E+03</rscale>
<asrwt>0</asrwt>
<pdfrwt beam="1">  1        2 0.21843341E+00 0.51759315E+03</pdfrwt>
<pdfrwt beam="2">  1       -2 0.62575150E-02 0.51759315E+03</pdfrwt>
<totfact> 0.20811828E+03</totfact>
</mgrwt>
</event>
<event>
 4    1  0.1837449E-005  0.5399391E+03  0.7818608E-02  0.1003850E+00
          2   -1    0    0  501    0  0.00000000000E+00  0.00000000000E+00  0.13539475345E+04  0.13539475345E+04  0.25500000000E-02 0. -1.
         -2   -1    0    0    0  501 -0.00000000000E+00 -0.00000000000E+00 -0.53830424926E+02  0.53830424986E+02  0.25500000000E-02 0.  1.
    5000001    1    1    2    0    0  0.67753377573E+01 -0.12008563471E+03  0.18957757659E+03  0.27862362142E+03  0.16500000000E+03 0.  0.
   -5000001    1    1    2    0    0 -0.67753377573E+01  0.12008563471E+03  0.11105395330E+04  0.11291543381E+04  0.16500000000E+03 0.  0.
<mgrwt>
<rscale>  0 0.53993915E+03</rscale>
<asrwt>0</asrwt>
<pdfrwt beam="1">  1        2 0.19342109E+00 0.53993915E+03</pdfrwt>
<pdfrwt beam="2">  1       -2 0.76900602E-02 0.53993915E+03</pdfrwt>
<totfact> 0.18574264E+03</totfact>
</mgrwt>
</event>
<event>
 4    1  0.1837449E-005  0.3992343E+03  0.7818608E-02  0.1044045E+00
          2   -1    0    0  501    0  0.00000000000E+00  0.00000000000E+00  0.43498210654E+03  0.43498210655E+03  0.25500000000E-02 0.  1.
         -2   -1    0    0    0  501 -0.00000000000E+00 -0.00000000000E+00 -0.91606076392E+02  0.91606076427E+02  0.25500000000E-02 0. -1.
    5000001    1    1    2    0    0  0.51488423052E+02  0.70620143644E+02  0.78572716832E+02  0.20257574936E+03  0.16500000000E+03 0.  0.
   -5000001    1    1    2    0    0 -0.51488423052E+02 -0.70620143644E+02  0.26480331332E+03  0.32401243362E+03  0.16500000000E+03 0.  0.
<mgrwt>
<rscale>  0 0.39923429E+03</rscale>
<asrwt>0</asrwt>
<pdfrwt beam="1">  1        2 0.62140301E-01 0.39923429E+03</pdfrwt>
<pdfrwt beam="2">  1       -2 0.13086582E-01 0.39923429E+03</pdfrwt>
<totfact> 0.34121797E+03</totfact>
</mgrwt>
</event>
<event>
 4    1  0.1837449E-005  0.6706202E+03  0.7818608E-02  0.9768838E-01
         -2   -1    0    0    0  501 -0.00000000000E+00  0.00000000000E+00  0.34563338426E+03  0.34563338427E+03  0.25500000000E-02 0. -1.
          2   -1    0    0  501    0  0.00000000000E+00 -0.00000000000E+00 -0.32529516970E+03  0.32529516971E+03  0.25500000000E-02 0.  1.
    5000001    1    1    2    0    0 -0.49302233563E+02  0.28685717416E+03  0.32317980533E+02  0.33613568758E+03  0.16500000000E+03 0.  0.
   -5000001    1    1    2    0    0  0.49302233563E+02 -0.28685717416E+03 -0.11979765971E+02  0.33479286640E+03  0.16500000000E+03 0.  0.
<mgrwt>
<rscale>  0 0.67062022E+03</rscale>
<asrwt>0</asrwt>
<pdfrwt beam="1">  1        2 0.46470738E-01 0.67062022E+03</pdfrwt>
<pdfrwt beam="2">  1       -2 0.49376198E-01 0.67062022E+03</pdfrwt>
<totfact> 0.42651570E+02</totfact>
</mgrwt>
</event>
<event>
 4    1  0.1837449E-005  0.7621824E+03  0.7818608E-02  0.9616430E-01
         -2   -1    0    0    0  501 -0.00000000000E+00  0.00000000000E+00  0.42223565769E+02  0.42223565846E+02  0.25500000000E-02 0. -1.
          2   -1    0    0  501    0  0.00000000000E+00 -0.00000000000E+00 -0.34395599050E+04  0.34395599050E+04  0.25500000000E-02 0.  1.
    5000001    1    1    2    0    0  0.21791114653E+03 -0.26246765494E+03 -0.15141824707E+04  0.15608805503E+04  0.16500000000E+03 0.  0.
   -5000001    1    1    2    0    0 -0.21791114653E+03  0.26246765494E+03 -0.18831538685E+04  0.19209029206E+04  0.16500000000E+03 0.  0.
<mgrwt>
<rscale>  0 0.76218235E+03</rscale>
<asrwt>0</asrwt>
<pdfrwt beam="1">  1        2 0.49136552E+00 0.76218235E+03</pdfrwt>
<pdfrwt beam="2">  1       -2 0.60319402E-02 0.76218235E+03</pdfrwt>
<totfact> 0.21394739E+02</totfact>
</mgrwt>
</event>
<event>
 4    1  0.1837449E-005  0.2156804E+04  0.7818608E-02  0.8536626E-01
          2   -1    0    0  501    0  0.00000000000E+00  0.00000000000E+00  0.23397486688E+04  0.23397486688E+04  0.25500000000E-02 0.  1.
         -2   -1    0    0    0  501 -0.00000000000E+00 -0.00000000000E+00 -0.49704072836E+03  0.49704072836E+03  0.25500000000E-02 0. -1.
    5000001    1    1    2    0    0 -0.59263786609E+03 -0.42412770207E+03  0.19440775665E+04  0.20827305473E+04  0.16500000000E+03 0.  0.
   -5000001    1    1    2    0    0  0.59263786609E+03  0.42412770207E+03 -0.10136962607E+03  0.75405884988E+03  0.16500000000E+03 0.  0.
<mgrwt>
<rscale>  0 0.21568035E+04</rscale>
<asrwt>0</asrwt>
<pdfrwt beam="1">  1        2 0.33424981E+00 0.21568035E+04</pdfrwt>
<pdfrwt beam="2">  1       -2 0.71005818E-01 0.21568035E+04</pdfrwt>
<totfact> 0.88796799E+00</totfact>
</mgrwt>
</event>
<event>
 4    1  0.1837449E-005  0.4039950E+03  0.7818608E-02  0.1042405E+00
          2   -1    0    0  501    0  0.00000000000E+00  0.00000000000E+00  0.19373075211E+03  0.19373075212E+03  0.25500000000E-02 0.  1.
         -2   -1    0    0    0  501 -0.00000000000E+00 -0.00000000000E+00 -0.21061695910E+03  0.21061695912E+03  0.25500000000E-02 0. -1.
    5000001    1    1    2    0    0  0.11227864017E+03 -0.15041688245E+02 -0.35765959533E+02  0.20331490178E+03  0.16500000000E+03 0.  0.
   -5000001    1    1    2    0    0 -0.11227864017E+03  0.15041688245E+02  0.18879752539E+02  0.20103280946E+03  0.16500000000E+03 0.  0.
<mgrwt>
<rscale>  0 0.40399496E+03</rscale>
<asrwt>0</asrwt>
<pdfrwt beam="1">  1        2 0.27675822E-01 0.40399496E+03</pdfrwt>
<pdfrwt beam="2">  1       -2 0.30088137E-01 0.40399496E+03</pdfrwt>
<totfact> 0.19667684E+03</totfact>
</mgrwt>
</event>
<event>
 4    1  0.1837449E-005  0.1273510E+04  0.7818608E-02  0.9050840E-01
         -2   -1    0    0    0  501 -0.00000000000E+00  0.00000000000E+00  0.60587461975E+03  0.60587461976E+03  0.25500000000E-02 0. -1.
          2   -1    0    0  501    0  0.00000000000E+00 -0.00000000000E+00 -0.66920885303E+03  0.66920885304E+03  0.25500000000E-02 0.  1.
    5000001    1    1    2    0    0 -0.18212228659E+03 -0.53809311119E+03  0.20424865106E+03  0.62582364532E+03  0.16500000000E+03 0.  0.
   -5000001    1    1    2    0    0  0.18212228659E+03  0.53809311119E+03 -0.26758288434E+03  0.64925982748E+03  0.16500000000E+03 0.  0.
<mgrwt>
<rscale>  0 0.12735096E+04</rscale>
<asrwt>0</asrwt>
<pdfrwt beam="1">  1        2 0.95601265E-01 0.12735096E+04</pdfrwt>
<pdfrwt beam="2">  1       -2 0.86553517E-01 0.12735096E+04</pdfrwt>
<totfact> 0.54086770E+01</totfact>
</mgrwt>
</event>
<event>
 4    1  0.1837449E-005  0.4390607E+03  0.7818608E-02  0.1031035E+00
         -2   -1    0    0    0  501 -0.00000000000E+00  0.00000000000E+00  0.17209374198E+03  0.17209374200E+03  0.25500000000E-02 0. -1.
          2   -1    0    0  501    0  0.00000000000E+00 -0.00000000000E+00 -0.28004254539E+03  0.28004254540E+03  0.25500000000E-02 0.  1.
    5000001    1    1    2    0    0  0.38309292103E+02  0.81852761282E+02  0.62536979368E+02  0.19825072555E+03  0.16500000000E+03 0.  0.
   -5000001    1    1    2    0    0 -0.38309292103E+02 -0.81852761282E+02 -0.17048578278E+03  0.25388556186E+03  0.16500000000E+03 0.  0.
<mgrwt>
<rscale>  0 0.43906068E+03</rscale>
<asrwt>0</asrwt>
<pdfrwt beam="1">  1        2 0.40006078E-01 0.43906068E+03</pdfrwt>
<pdfrwt beam="2">  1       -2 0.24584820E-01 0.43906068E+03</pdfrwt>
<totfact> 0.18864431E+03</totfact>
</mgrwt>
</event>
<event>
 4    1  0.1837449E-005  0.9289550E+03  0.7818608E-02  0.9390093E-01
         -2   -1    0    0    0  501 -0.00000000000E+00  0.00000000000E+00  0.88149097821E+02  0.88149097858E+02  0.25500000000E-02 0. -1.
          2   -1    0    0  501    0  0.00000000000E+00 -0.00000000000E+00 -0.24474367853E+04  0.24474367853E+04  0.25500000000E-02 0.  1.
    5000001    1    1    2    0    0  0.27882310131E+03 -0.26958486888E+03 -0.64689383887E+03  0.77208481537E+03  0.16500000000E+03 0.  0.
   -5000001    1    1    2    0    0 -0.27882310131E+03  0.26958486888E+03 -0.17123938486E+04  0.17635010678E+04  0.16500000000E+03 0.  0.
<mgrwt>
<rscale>  0 0.92895499E+03</rscale>
<asrwt>0</asrwt>
<pdfrwt beam="1">  1        2 0.34963378E+00 0.92895499E+03</pdfrwt>
<pdfrwt beam="2">  1       -2 0.12592730E-01 0.92895499E+03</pdfrwt>
<totfact> 0.22422142E+02</totfact>
</mgrwt>
</event>
<event>
 4    1  0.1837449E-005  0.3622540E+03  0.7818608E-02  0.1057695E+00
         -2   -1    0    0    0  501 -0.00000000000E+00  0.00000000000E+00  0.16206550321E+02  0.16206550522E+02  0.25500000000E-02 0. -1.
          2   -1    0    0  501    0  0.00000000000E+00 -0.00000000000E+00 -0.20243046322E+04  0.20243046322E+04  0.25500000000E-02 0.  1.
    5000001    1    1    2    0    0  0.72206809416E+02 -0.19186446694E+02 -0.10027641811E+04  0.10189911412E+04  0.16500000000E+03 0.  0.
   -5000001    1    1    2    0    0 -0.72206809416E+02  0.19186446694E+02 -0.10053339008E+04  0.10215200415E+04  0.16500000000E+03 0.  0.
<mgrwt>
<rscale>  0 0.36225403E+03</rscale>
<asrwt>0</asrwt>
<pdfrwt beam="1">  1        2 0.28918621E+00 0.36225403E+03</pdfrwt>
<pdfrwt beam="2">  1       -2 0.23152228E-02 0.36225403E+03</pdfrwt>
<totfact> 0.53551910E+03</totfact>
</mgrwt>
</event>
<event>
 4    1  0.1837449E-005  0.3778183E+03  0.7818608E-02  0.1051743E+00
         -2   -1    0    0    0  501 -0.00000000000E+00  0.00000000000E+00  0.34854924593E+02  0.34854924687E+02  0.25500000000E-02 0. -1.
          2   -1    0    0  501    0  0.00000000000E+00 -0.00000000000E+00 -0.10238631713E+04  0.10238631713E+04  0.25500000000E-02 0.  1.
    5000001    1    1    2    0    0 -0.91602370252E+02 -0.83858047033E+01 -0.49282813271E+03  0.52779341067E+03  0.16500000000E+03 0.  0.
   -5000001    1    1    2    0    0  0.91602370252E+02  0.83858047033E+01 -0.49618011400E+03  0.53092468532E+03  0.16500000000E+03 0.  0.
<mgrwt>
<rscale>  0 0.37781834E+03</rscale>
<asrwt>0</asrwt>
<pdfrwt beam="1">  1        2 0.14626615E+00 0.37781834E+03</pdfrwt>
<pdfrwt beam="2">  1       -2 0.49792756E-02 0.37781834E+03</pdfrwt>
<totfact> 0.55869617E+03</totfact>
</mgrwt>
</event>
<event>
 4    1  0.1837449E-005  0.4482614E+03  0.7818608E-02  0.1028242E+00
         -2   -1    0    0    0  501 -0.00000000000E+00  0.00000000000E+00  0.33944630319E+02  0.33944630415E+02  0.25500000000E-02 0. -1.
          2   -1    0    0  501    0  0.00000000000E+00 -0.00000000000E+00 -0.14798976175E+04  0.14798976175E+04  0.25500000000E-02 0.  1.
    5000001    1    1    2    0    0  0.15077157236E+03  0.59175946718E+01 -0.77556593289E+03  0.80715215494E+03  0.16500000000E+03 0.  0.
   -5000001    1    1    2    0    0 -0.15077157236E+03 -0.59175946718E+01 -0.67038705431E+03  0.70669009300E+03  0.16500000000E+03 0.  0.
<mgrwt>
<rscale>  0 0.44826143E+03</rscale>
<asrwt>0</asrwt>
<pdfrwt beam="1">  1        2 0.21141390E+00 0.44826143E+03</pdfrwt>
<pdfrwt beam="2">  1       -2 0.48492338E-02 0.44826143E+03</pdfrwt>
<totfact> 0.32803162E+03</totfact>
</mgrwt>
</event>
<event>
 4    1  0.1837449E-005  0.6705194E+03  0.7818608E-02  0.9769020E-01
         -2   -1    0    0    0  501 -0.00000000000E+00  0.00000000000E+00  0.12745148433E+03  0.12745148435E+03  0.25500000000E-02 0. -1.
          2   -1    0    0  501    0  0.00000000000E+00 -0.00000000000E+00 -0.88189691595E+03  0.88189691596E+03  0.25500000000E-02 0.  1.
    5000001    1    1    2    0    0 -0.15830614904E+03 -0.24194391350E+03 -0.31745594794E+03  0.46000105759E+03  0.16500000000E+03 0.  0.
   -5000001    1    1    2    0    0  0.15830614904E+03  0.24194391350E+03 -0.43698948368E+03  0.54934734272E+03  0.16500000000E+03 0.  0.
<mgrwt>
<rscale>  0 0.67051941E+03</rscale>
<asrwt>0</asrwt>
<pdfrwt beam="1">  1        2 0.12598527E+00 0.67051941E+03</pdfrwt>
<pdfrwt beam="2">  1       -2 0.18207355E-01 0.67051941E+03</pdfrwt>
<totfact> 0.84323616E+02</totfact>
</mgrwt>
</event>
<event>
 4    1  0.1837449E-005  0.4666443E+03  0.7818608E-02  0.1022872E+00
         -2   -1    0    0    0  501 -0.00000000000E+00  0.00000000000E+00  0.47486170934E+02  0.47486171003E+02  0.25500000000E-02 0. -1.
          2   -1    0    0  501    0  0.00000000000E+00 -0.00000000000E+00 -0.11464226693E+04  0.11464226693E+04  0.25500000000E-02 0.  1.
    5000001    1    1    2    0    0  0.10188826827E+03  0.12173890039E+03 -0.66424889762E+03  0.70260456664E+03  0.16500000000E+03 0.  0.
   -5000001    1    1    2    0    0 -0.10188826827E+03 -0.12173890039E+03 -0.43468760075E+03  0.49130427366E+03  0.16500000000E+03 0.  0.
<mgrwt>
<rscale>  0 0.46664429E+03</rscale>
<asrwt>0</asrwt>
<pdfrwt beam="1">  1        2 0.16377465E+00 0.46664429E+03</pdfrwt>
<pdfrwt beam="2">  1       -2 0.67837394E-02 0.46664429E+03</pdfrwt>
<totfact> 0.29443892E+03</totfact>
</mgrwt>
</event>
<event>
 4    1  0.1837449E-005  0.5041230E+03  0.7818608E-02  0.1012708E+00
         -2   -1    0    0    0  501 -0.00000000000E+00  0.00000000000E+00  0.16994701442E+03  0.16994701444E+03  0.25500000000E-02 0.  1.
          2   -1    0    0  501    0  0.00000000000E+00 -0.00000000000E+00 -0.37385182273E+03  0.37385182274E+03  0.25500000000E-02 0. -1.
    5000001    1    1    2    0    0  0.10153007094E+03 -0.69356708885E+02  0.55076819472E+02  0.21301916443E+03  0.16500000000E+03 0.  0.
   -5000001    1    1    2    0    0 -0.10153007094E+03  0.69356708885E+02 -0.25898162779E+03  0.33077967275E+03  0.16500000000E+03 0.  0.
<mgrwt>
<rscale>  0 0.50412301E+03</rscale>
<asrwt>0</asrwt>
<pdfrwt beam="1">  1        2 0.53407403E-01 0.50412301E+03</pdfrwt>
<pdfrwt beam="2">  1       -2 0.24278145E-01 0.50412301E+03</pdfrwt>
<totfact> 0.14066078E+03</totfact>
</mgrwt>
</event>
<event>
 4    1  0.1837449E-005  0.4865446E+03  0.7818608E-02  0.1017352E+00
          2   -1    0    0  501    0  0.00000000000E+00  0.00000000000E+00  0.85227702467E+03  0.85227702467E+03  0.25500000000E-02 0.  1.
         -2   -1    0    0    0  501 -0.00000000000E+00 -0.00000000000E+00 -0.69439184537E+02  0.69439184584E+02  0.25500000000E-02 0. -1.
    5000001    1    1    2    0    0 -0.13109872170E+03 -0.20423557389E+02  0.16446526723E+03  0.26810039286E+03  0.16500000000E+03 0.  0.
   -5000001    1    1    2    0    0  0.13109872170E+03  0.20423557389E+02  0.61837257290E+03  0.65361581640E+03  0.16500000000E+03 0.  0.
<mgrwt>
<rscale>  0 0.48654464E+03</rscale>
<asrwt>0</asrwt>
<pdfrwt beam="1">  1        2 0.12175386E+00 0.48654464E+03</pdfrwt>
<pdfrwt beam="2">  1       -2 0.99198837E-02 0.48654464E+03</pdfrwt>
<totfact> 0.24293471E+03</totfact>
</mgrwt>
</event>
<event>
 4    1  0.1837449E-005  0.5730384E+03  0.7818608E-02  0.9962978E-01
          2   -1    0    0  501    0  0.00000000000E+00  0.00000000000E+00  0.99233588703E+03  0.99233588703E+03  0.25500000000E-02 0.  1.
         -2   -1    0    0    0  501 -0.00000000000E+00 -0.00000000000E+00 -0.82727272698E+02  0.82727272737E+02  0.25500000000E-02 0. -1.
    5000001    1    1    2    0    0 -0.23286895943E+03  0.19616023217E+02  0.42481637494E+03  0.51215885529E+03  0.16500000000E+03 0.  0.
   -5000001    1    1    2    0    0  0.23286895943E+03 -0.19616023217E+02  0.48479223939E+03  0.56290430448E+03  0.16500000000E+03 0.  0.
<mgrwt>
<rscale>  0 0.57303836E+03</rscale>
<asrwt>0</asrwt>
<pdfrwt beam="1">  1        2 0.14176227E+00 0.57303836E+03</pdfrwt>
<pdfrwt beam="2">  1       -2 0.11818182E-01 0.57303836E+03</pdfrwt>
<totfact> 0.14882187E+03</totfact>
</mgrwt>
</event>
<event>
 4    1  0.1837449E-005  0.4629967E+03  0.7818608E-02  0.1023916E+00
         -2   -1    0    0    0  501 -0.00000000000E+00  0.00000000000E+00  0.86721053234E+02  0.86721053272E+02  0.25500000000E-02 0. -1.
          2   -1    0    0  501    0  0.00000000000E+00 -0.00000000000E+00 -0.61797552768E+03  0.61797552769E+03  0.25500000000E-02 0.  1.
    5000001    1    1    2    0    0  0.13434041206E+03 -0.88682478314E+02 -0.23317683784E+03  0.32788468397E+03  0.16500000000E+03 0.  0.
   -5000001    1    1    2    0    0 -0.13434041206E+03  0.88682478314E+02 -0.29807763660E+03  0.37681189699E+03  0.16500000000E+03 0.  0.
<mgrwt>
<rscale>  0 0.46299671E+03</rscale>
<asrwt>0</asrwt>
<pdfrwt beam="1">  1        2 0.88282215E-01 0.46299671E+03</pdfrwt>
<pdfrwt beam="2">  1       -2 0.12388722E-01 0.46299671E+03</pdfrwt>
<totfact> 0.25122857E+03</totfact>
</mgrwt>
</event>
<event>
 4    1  0.1837449E-005  0.4862575E+03  0.7818608E-02  0.1017429E+00
         -2   -1    0    0    0  501 -0.00000000000E+00  0.00000000000E+00  0.21920423493E+02  0.21920423641E+02  0.25500000000E-02 0. -1.
          2   -1    0    0  501    0  0.00000000000E+00 -0.00000000000E+00 -0.26966445547E+04  0.26966445547E+04  0.25500000000E-02 0.  1.
    5000001    1    1    2    0    0  0.10529494704E+03  0.11952397137E+03 -0.88614714829E+03  0.91534407412E+03  0.16500000000E+03 0.  0.
   -5000001    1    1    2    0    0 -0.10529494704E+03 -0.11952397137E+03 -0.17885769829E+04  0.18032209042E+04  0.16500000000E+03 0.  0.
<mgrwt>
<rscale>  0 0.48625751E+03</rscale>
<asrwt>0</asrwt>
<pdfrwt beam="1">  1        2 0.38523472E+00 0.48625751E+03</pdfrwt>
<pdfrwt beam="2">  1       -2 0.31314908E-02 0.48625751E+03</pdfrwt>
<totfact> 0.15528131E+03</totfact>
</mgrwt>
</event>
<event>
 4    1  0.1837449E-005  0.6675429E+03  0.7818608E-02  0.9774407E-01
          2   -1    0    0  501    0  0.00000000000E+00  0.00000000000E+00  0.84874733120E+03  0.84874733121E+03  0.25500000000E-02 0.  1.
         -2   -1    0    0    0  501 -0.00000000000E+00 -0.00000000000E+00 -0.13125622426E+03  0.13125622428E+03  0.25500000000E-02 0. -1.
    5000001    1    1    2    0    0 -0.22920006100E+03 -0.16102907082E+03  0.24775920995E+03  0.40874522104E+03  0.16500000000E+03 0.  0.
   -5000001    1    1    2    0    0  0.22920006100E+03  0.16102907082E+03  0.46973189700E+03  0.57125833444E+03  0.16500000000E+03 0.  0.
<mgrwt>
<rscale>  0 0.66754287E+03</rscale>
<asrwt>0</asrwt>
<pdfrwt beam="1">  1        2 0.12124962E+00 0.66754287E+03</pdfrwt>
<pdfrwt beam="2">  1       -2 0.18750889E-01 0.66754287E+03</pdfrwt>
<totfact> 0.84314396E+02</totfact>
</mgrwt>
</event>
<event>
 4    1  0.1837449E-005  0.4900461E+03  0.7818608E-02  0.1016410E+00
          2   -1    0    0  501    0  0.00000000000E+00  0.00000000000E+00  0.20549141929E+04  0.20549141929E+04  0.25500000000E-02 0.  1.
         -2   -1    0    0    0  501 -0.00000000000E+00 -0.00000000000E+00 -0.29215967177E+02  0.29215967288E+02  0.25500000000E-02 0. -1.
    5000001    1    1    2    0    0  0.10474012716E+03  0.14723962408E+03  0.10668637204E+04  0.10945653014E+04  0.16500000000E+03 0.  0.
   -5000001    1    1    2    0    0 -0.10474012716E+03 -0.14723962408E+03  0.95883450528E+03  0.98956485874E+03  0.16500000000E+03 0.  0.
<mgrwt>
<rscale>  0 0.49004614E+03</rscale>
<asrwt>0</asrwt>
<pdfrwt beam="1">  1        2 0.29355914E+00 0.49004614E+03</pdfrwt>
<pdfrwt beam="2">  1       -2 0.41737100E-02 0.49004614E+03</pdfrwt>
<totfact> 0.21177705E+03</totfact>
</mgrwt>
</event>
<event>
 4    1  0.1837449E-005  0.4706257E+03  0.7818608E-02  0.1021744E+00
          2   -1    0    0  501    0  0.00000000000E+00  0.00000000000E+00  0.15493495797E+03  0.15493495799E+03  0.25500000000E-02 0.  1.
         -2   -1    0    0    0  501 -0.00000000000E+00 -0.00000000000E+00 -0.35738962684E+03  0.35738962685E+03  0.25500000000E-02 0. -1.
    5000001    1    1    2    0    0 -0.42244555937E+02 -0.90304460045E+02 -0.24811876294E+03  0.31420919549E+03  0.16500000000E+03 0.  0.
   -5000001    1    1    2    0    0  0.42244555937E+02  0.90304460045E+02  0.45664094059E+02  0.19811538935E+03  0.16500000000E+03 0.  0.
<mgrwt>
<rscale>  0 0.47062574E+03</rscale>
<asrwt>0</asrwt>
<pdfrwt beam="1">  1        2 0.22133566E-01 0.47062574E+03</pdfrwt>
<pdfrwt beam="2">  1       -2 0.51055661E-01 0.47062574E+03</pdfrwt>
<totfact> 0.91728492E+02</totfact>
</mgrwt>
</event>
<event>
 4    1  0.1837449E-005  0.4119816E+03  0.7818608E-02  0.1039708E+00
          2   -1    0    0  501    0  0.00000000000E+00  0.00000000000E+00  0.13800510606E+03  0.13800510609E+03  0.25500000000E-02 0.  1.
         -2   -1    0    0    0  501 -0.00000000000E+00 -0.00000000000E+00 -0.30746835734E+03  0.30746835735E+03  0.25500000000E-02 0. -1.
    5000001    1    1    2    0    0  0.65184390168E+02 -0.83027500940E+02 -0.15366899416E+03  0.24896130302E+03  0.16500000000E+03 0.  0.
   -5000001    1    1    2    0    0 -0.65184390168E+02  0.83027500940E+02 -0.15794257110E+02  0.19651216042E+03  0.16500000000E+03 0.  0.
<mgrwt>
<rscale>  0 0.41198157E+03</rscale>
<asrwt>0</asrwt>
<pdfrwt beam="1">  1        2 0.19715015E-01 0.41198157E+03</pdfrwt>
<pdfrwt beam="2">  1       -2 0.43924051E-01 0.41198157E+03</pdfrwt>
<totfact> 0.14140200E+03</totfact>
</mgrwt>
</event>
<event>
 4    1  0.1837449E-005  0.6849032E+03  0.7818608E-02  0.9743404E-01
          2   -1    0    0  501    0  0.00000000000E+00  0.00000000000E+00  0.16992344434E+04  0.16992344434E+04  0.25500000000E-02 0.  1.
         -2   -1    0    0    0  501 -0.00000000000E+00 -0.00000000000E+00 -0.69015262109E+02  0.69015262156E+02  0.25500000000E-02 0. -1.
    5000001    1    1    2    0    0 -0.25485039974E+03  0.10052378620E+03  0.49897047240E+03  0.59266372435E+03  0.16500000000E+03 0.  0.
   -5000001    1    1    2    0    0  0.25485039974E+03 -0.10052378620E+03  0.11312487089E+04  0.11755859812E+04  0.16500000000E+03 0.  0.
<mgrwt>
<rscale>  0 0.68490324E+03</rscale>
<asrwt>0</asrwt>
<pdfrwt beam="1">  1        2 0.24274782E+00 0.68490324E+03</pdfrwt>
<pdfrwt beam="2">  1       -2 0.98593214E-02 0.68490324E+03</pdfrwt>
<totfact> 0.81973824E+02</totfact>
</mgrwt>
</event>
<event>
 4    1  0.1837449E-005  0.4630674E+03  0.7818608E-02  0.1023895E+00
         -2   -1    0    0    0  501 -0.00000000000E+00  0.00000000000E+00  0.96585468372E+02  0.96585468406E+02  0.25500000000E-02 0. -1.
          2   -1    0    0  501    0  0.00000000000E+00 -0.00000000000E+00 -0.55503029847E+03  0.55503029847E+03  0.25500000000E-02 0.  1.
    5000001    1    1    2    0    0  0.77070893497E+01 -0.11265894495E+03 -0.39351500081E+03  0.44139607266E+03  0.16500000000E+03 0.  0.
   -5000001    1    1    2    0    0 -0.77070893497E+01  0.11265894495E+03 -0.64929829291E+02  0.21021969422E+03  0.16500000000E+03 0.  0.
<mgrwt>
<rscale>  0 0.46306743E+03</rscale>
<asrwt>0</asrwt>
<pdfrwt beam="1">  1        2 0.79290041E-01 0.46306743E+03</pdfrwt>
<pdfrwt beam="2">  1       -2 0.13797924E-01 0.46306743E+03</pdfrwt>
<totfact> 0.23822754E+03</totfact>
</mgrwt>
</event>
<event>
 4    1  0.1837449E-005  0.8251045E+03  0.7818608E-02  0.9524374E-01
          2   -1    0    0  501    0  0.00000000000E+00  0.00000000000E+00  0.69231558291E+03  0.69231558292E+03  0.25500000000E-02 0. -1.
         -2   -1    0    0    0  501 -0.00000000000E+00 -0.00000000000E+00 -0.24584070820E+03  0.24584070821E+03  0.25500000000E-02 0.  1.
    5000001    1    1    2    0    0  0.23537895399E+03 -0.28943174862E+03  0.15314375904E+03  0.43572009367E+03  0.16500000000E+03 0.  0.
   -5000001    1    1    2    0    0 -0.23537895399E+03  0.28943174862E+03  0.29333111568E+03  0.50243619746E+03  0.16500000000E+03 0.  0.
<mgrwt>
<rscale>  0 0.82510449E+03</rscale>
<asrwt>0</asrwt>
<pdfrwt beam="1">  1        2 0.98902228E-01 0.82510449E+03</pdfrwt>
<pdfrwt beam="2">  1       -2 0.35120101E-01 0.82510449E+03</pdfrwt>
<totfact> 0.34831429E+02</totfact>
</mgrwt>
</event>
<event>
 4    1  0.1837449E-005  0.6175797E+03  0.7818608E-02  0.9869590E-01
          2   -1    0    0  501    0  0.00000000000E+00  0.00000000000E+00  0.15873173381E+04  0.15873173381E+04  0.25500000000E-02 0.  1.
         -2   -1    0    0    0  501 -0.00000000000E+00 -0.00000000000E+00 -0.60070651366E+02  0.60070651420E+02  0.25500000000E-02 0. -1.
    5000001    1    1    2    0    0  0.25392204904E+03  0.19698864279E+02  0.61127871898E+03  0.68245961384E+03  0.16500000000E+03 0.  0.
   -5000001    1    1    2    0    0 -0.25392204904E+03 -0.19698864279E+02  0.91596796776E+03  0.96492837569E+03  0.16500000000E+03 0.  0.
<mgrwt>
<rscale>  0 0.61757975E+03</rscale>
<asrwt>0</asrwt>
<pdfrwt beam="1">  1        2 0.22675965E+00 0.61757975E+03</pdfrwt>
<pdfrwt beam="2">  1       -2 0.85815204E-02 0.61757975E+03</pdfrwt>
<totfact> 0.11739922E+03</totfact>
</mgrwt>
</event>
<event>
 4    1  0.1837449E-005  0.4408913E+03  0.7818608E-02  0.1030474E+00
         -2   -1    0    0    0  501 -0.00000000000E+00  0.00000000000E+00  0.10894880972E+03  0.10894880975E+03  0.25500000000E-02 0. -1.
          2   -1    0    0  501    0  0.00000000000E+00 -0.00000000000E+00 -0.44604692871E+03  0.44604692871E+03  0.25500000000E-02 0.  1.
    5000001    1    1    2    0    0 -0.66350350463E+02  0.12996772673E+03 -0.17961673047E+03  0.28422024710E+03  0.16500000000E+03 0.  0.
   -5000001    1    1    2    0    0  0.66350350463E+02 -0.12996772673E+03 -0.15748138851E+03  0.27077549137E+03  0.16500000000E+03 0.  0.
<mgrwt>
<rscale>  0 0.44089129E+03</rscale>
<asrwt>0</asrwt>
<pdfrwt beam="1">  1        2 0.63720989E-01 0.44089129E+03</pdfrwt>
<pdfrwt beam="2">  1       -2 0.15564116E-01 0.44089129E+03</pdfrwt>
<totfact> 0.24917693E+03</totfact>
</mgrwt>
</event>
<event>
 4    1  0.1837449E-005  0.7535081E+03  0.7818608E-02  0.9629863E-01
          2   -1    0    0  501    0  0.00000000000E+00  0.00000000000E+00  0.13415118219E+04  0.13415118219E+04  0.25500000000E-02 0.  1.
         -2   -1    0    0    0  501 -0.00000000000E+00 -0.00000000000E+00 -0.10580868034E+03  0.10580868037E+03  0.25500000000E-02 0. -1.
    5000001    1    1    2    0    0 -0.65881768038E+02  0.30764557219E+03  0.37693084051E+03  0.51796531155E+03  0.16500000000E+03 0.  0.
   -5000001    1    1    2    0    0  0.65881768038E+02 -0.30764557219E+03  0.85877230104E+03  0.92935519070E+03  0.16500000000E+03 0.  0.
<mgrwt>
<rscale>  0 0.75350805E+03</rscale>
<asrwt>0</asrwt>
<pdfrwt beam="1">  1        2 0.19164455E+00 0.75350805E+03</pdfrwt>
<pdfrwt beam="2">  1       -2 0.15115526E-01 0.75350805E+03</pdfrwt>
<totfact> 0.62011801E+02</totfact>
</mgrwt>
</event>
<event>
 4    1  0.1837449E-005  0.6093935E+03  0.7818608E-02  0.9886107E-01
          2   -1    0    0  501    0  0.00000000000E+00  0.00000000000E+00  0.26023322040E+04  0.26023322040E+04  0.25500000000E-02 0.  1.
         -2   -1    0    0    0  501 -0.00000000000E+00 -0.00000000000E+00 -0.35675736644E+02  0.35675736735E+02  0.25500000000E-02 0. -1.
    5000001    1    1    2    0    0 -0.13520697150E+03 -0.17806110773E+03  0.74215537319E+03  0.79246847330E+03  0.16500000000E+03 0.  0.
   -5000001    1    1    2    0    0  0.13520697150E+03  0.17806110773E+03  0.18245010941E+04  0.18455394674E+04  0.16500000000E+03 0.  0.
<mgrwt>
<rscale>  0 0.60939353E+03</rscale>
<asrwt>0</asrwt>
<pdfrwt beam="1">  1        2 0.37176175E+00 0.60939353E+03</pdfrwt>
<pdfrwt beam="2">  1       -2 0.50965337E-02 0.60939353E+03</pdfrwt>
<totfact> 0.81587888E+02</totfact>
</mgrwt>
</event>
<event>
 4    1  0.1837449E-005  0.3909512E+03  0.7818608E-02  0.1046959E+00
         -2   -1    0    0    0  501 -0.00000000000E+00  0.00000000000E+00  0.98829467904E+02  0.98829467937E+02  0.25500000000E-02 0. -1.
          2   -1    0    0  501    0  0.00000000000E+00 -0.00000000000E+00 -0.38663277658E+03  0.38663277659E+03  0.25500000000E-02 0.  1.
    5000001    1    1    2    0    0  0.12187190696E+02  0.10252063410E+03 -0.12145715955E+03  0.22942504144E+03  0.16500000000E+03 0.  0.
   -5000001    1    1    2    0    0 -0.12187190696E+02 -0.10252063410E+03 -0.16634614912E+03  0.25603720308E+03  0.16500000000E+03 0.  0.
<mgrwt>
<rscale>  0 0.39095121E+03</rscale>
<asrwt>0</asrwt>
<pdfrwt beam="1">  1        2 0.55233253E-01 0.39095121E+03</pdfrwt>
<pdfrwt beam="2">  1       -2 0.14118496E-01 0.39095121E+03</pdfrwt>
<totfact> 0.34250397E+03</totfact>
</mgrwt>
</event>
<event>
 4    1  0.1837449E-005  0.6129758E+03  0.7818608E-02  0.9878845E-01
         -2   -1    0    0    0  501 -0.00000000000E+00  0.00000000000E+00  0.87603474429E+02  0.87603474466E+02  0.25500000000E-02 0. -1.
          2   -1    0    0  501    0  0.00000000000E+00 -0.00000000000E+00 -0.10722728810E+04  0.10722728810E+04  0.25500000000E-02 0.  1.
    5000001    1    1    2    0    0 -0.14805080544E+02  0.22088537246E+03 -0.24059101812E+03  0.36622203125E+03  0.16500000000E+03 0.  0.
   -5000001    1    1    2    0    0  0.14805080544E+02 -0.22088537246E+03 -0.74407838847E+03  0.79365432423E+03  0.16500000000E+03 0.  0.
<mgrwt>
<rscale>  0 0.61297579E+03</rscale>
<asrwt>0</asrwt>
<pdfrwt beam="1">  1        2 0.15318183E+00 0.61297579E+03</pdfrwt>
<pdfrwt beam="2">  1       -2 0.12514783E-01 0.61297579E+03</pdfrwt>
<totfact> 0.12117043E+03</totfact>
</mgrwt>
</event>
<event>
 4    1  0.1837449E-005  0.4774421E+03  0.7818608E-02  0.1019841E+00
         -2   -1    0    0    0  501 -0.00000000000E+00  0.00000000000E+00  0.94412474182E+03  0.94412474182E+03  0.25500000000E-02 0. -1.
          2   -1    0    0  501    0  0.00000000000E+00 -0.00000000000E+00 -0.60360397649E+02  0.60360397703E+02  0.25500000000E-02 0.  1.
    5000001    1    1    2    0    0  0.41856536525E+02  0.16694740423E+03  0.41704742038E+03  0.48039250231E+03  0.16500000000E+03 0.  0.
   -5000001    1    1    2    0    0 -0.41856536525E+02 -0.16694740423E+03  0.46671692379E+03  0.52409263721E+03  0.16500000000E+03 0.  0.
<mgrwt>
<rscale>  0 0.47744212E+03</rscale>
<asrwt>0</asrwt>
<pdfrwt beam="1">  1        2 0.86229146E-02 0.47744212E+03</pdfrwt>
<pdfrwt beam="2">  1       -2 0.13487495E+00 0.47744212E+03</pdfrwt>
<totfact> 0.32231010E+02</totfact>
</mgrwt>
</event>
<event>
 4    1  0.1837449E-005  0.1211058E+04  0.7818608E-02  0.9103232E-01
         -2   -1    0    0    0  501 -0.00000000000E+00  0.00000000000E+00  0.16621746258E+03  0.16621746260E+03  0.25500000000E-02 0. -1.
          2   -1    0    0  501    0  0.00000000000E+00 -0.00000000000E+00 -0.22059393881E+04  0.22059393881E+04  0.25500000000E-02 0.  1.
    5000001    1    1    2    0    0  0.49770280774E+03  0.28880653816E+02 -0.42931108656E+03  0.67828842393E+03  0.16500000000E+03 0.  0.
   -5000001    1    1    2    0    0 -0.49770280774E+03 -0.28880653816E+02 -0.16104108390E+04  0.16938684268E+04  0.16500000000E+03 0.  0.
<mgrwt>
<rscale>  0 0.12110585E+04</rscale>
<asrwt>0</asrwt>
<pdfrwt beam="1">  1        2 0.31513418E+00 0.12110585E+04</pdfrwt>
<pdfrwt beam="2">  1       -2 0.23745353E-01 0.12110585E+04</pdfrwt>
<totfact> 0.97687392E+01</totfact>
</mgrwt>
</event>
<event>
 4    1  0.1837449E-005  0.6241228E+03  0.7818608E-02  0.9856585E-01
          2   -1    0    0  501    0  0.00000000000E+00  0.00000000000E+00  0.33961939482E+03  0.33961939482E+03  0.25500000000E-02 0.  1.
         -2   -1    0    0    0  501 -0.00000000000E+00 -0.00000000000E+00 -0.28673956764E+03  0.28673956766E+03  0.25500000000E-02 0. -1.
    5000001    1    1    2    0    0 -0.25158179417E+02 -0.24112572077E+03 -0.80632415386E+02  0.30413999017E+03  0.16500000000E+03 0.  0.
   -5000001    1    1    2    0    0  0.25158179417E+02  0.24112572077E+03  0.13351224256E+03  0.32221897231E+03  0.16500000000E+03 0.  0.
<mgrwt>
<rscale>  0 0.62412280E+03</rscale>
<asrwt>0</asrwt>
<pdfrwt beam="1">  1        2 0.48517057E-01 0.62412280E+03</pdfrwt>
<pdfrwt beam="2">  1       -2 0.40962795E-01 0.62412280E+03</pdfrwt>
<totfact> 0.59003223E+02</totfact>
</mgrwt>
</event>
<event>
 4    1  0.1837449E-005  0.4095079E+03  0.7818608E-02  0.1040536E+00
          2   -1    0    0  501    0  0.00000000000E+00  0.00000000000E+00  0.35743567239E+03  0.35743567240E+03  0.25500000000E-02 0.  1.
         -2   -1    0    0    0  501 -0.00000000000E+00 -0.00000000000E+00 -0.11729154057E+03  0.11729154060E+03  0.25500000000E-02 0. -1.
    5000001    1    1    2    0    0 -0.24963233456E+02  0.84903324848E+02  0.24003927660E+02  0.18876685657E+03  0.16500000000E+03 0.  0.
   -5000001    1    1    2    0    0  0.24963233456E+02 -0.84903324848E+02  0.21614020416E+03  0.28596035643E+03  0.16500000000E+03 0.  0.
<mgrwt>
<rscale>  0 0.40950790E+03</rscale>
<asrwt>0</asrwt>
<pdfrwt beam="1">  1        2 0.51062240E-01 0.40950790E+03</pdfrwt>
<pdfrwt beam="2">  1       -2 0.16755934E-01 0.40950790E+03</pdfrwt>
<totfact> 0.28050324E+03</totfact>
</mgrwt>
</event>
<event>
 4    1  0.1837449E-005  0.3686566E+03  0.7818608E-02  0.1055208E+00
         -2   -1    0    0    0  501 -0.00000000000E+00  0.00000000000E+00  0.11864214629E+02  0.11864214903E+02  0.25500000000E-02 0. -1.
          2   -1    0    0  501    0  0.00000000000E+00 -0.00000000000E+00 -0.28638154157E+04  0.28638154157E+04  0.25500000000E-02 0.  1.
    5000001    1    1    2    0    0  0.18291785550E+02 -0.63855493863E+02 -0.18032945102E+04  0.18120453096E+04  0.16500000000E+03 0.  0.
   -5000001    1    1    2    0    0 -0.18291785550E+02  0.63855493863E+02 -0.10486566909E+04  0.10636343210E+04  0.16500000000E+03 0.  0.
<mgrwt>
<rscale>  0 0.36865659E+03</rscale>
<asrwt>0</asrwt>
<pdfrwt beam="1">  1        2 0.40911605E+00 0.36865659E+03</pdfrwt>
<pdfrwt beam="2">  1       -2 0.16948897E-02 0.36865659E+03</pdfrwt>
<totfact> 0.32079354E+03</totfact>
</mgrwt>
</event>
<event>
 4    1  0.1837449E-005  0.5997617E+03  0.7818608E-02  0.9905901E-01
          2   -1    0    0  501    0  0.00000000000E+00  0.00000000000E+00  0.69820162638E+03  0.69820162638E+03  0.25500000000E-02 0.  1.
         -2   -1    0    0    0  501 -0.00000000000E+00 -0.00000000000E+00 -0.12880020791E+03  0.12880020794E+03  0.25500000000E-02 0. -1.
    5000001    1    1    2    0    0  0.48419993300E+02  0.23484537929E+03  0.18520424287E+03  0.34499631810E+03  0.16500000000E+03 0.  0.
   -5000001    1    1    2    0    0 -0.48419993300E+02 -0.23484537929E+03  0.38419717560E+03  0.48200551622E+03  0.16500000000E+03 0.  0.
<mgrwt>
<rscale>  0 0.59976167E+03</rscale>
<asrwt>0</asrwt>
<pdfrwt beam="1">  1        2 0.99743092E-01 0.59976167E+03</pdfrwt>
<pdfrwt beam="2">  1       -2 0.18400029E-01 0.59976167E+03</pdfrwt>
<totfact> 0.11165611E+03</totfact>
</mgrwt>
</event>
<event>
 4    1  0.1837449E-005  0.3395402E+03  0.7818608E-02  0.1066992E+00
         -2   -1    0    0    0  501 -0.00000000000E+00  0.00000000000E+00  0.35346421176E+02  0.35346421268E+02  0.25500000000E-02 0. -1.
          2   -1    0    0  501    0  0.00000000000E+00 -0.00000000000E+00 -0.81541168518E+03  0.81541168518E+03  0.25500000000E-02 0.  1.
    5000001    1    1    2    0    0 -0.31740807488E+02  0.19147970299E+02 -0.42742945882E+03  0.45966843039E+03  0.16500000000E+03 0.  0.
   -5000001    1    1    2    0    0  0.31740807488E+02 -0.19147970299E+02 -0.35263580518E+03  0.39108967606E+03  0.16500000000E+03 0.  0.
<mgrwt>
<rscale>  0 0.33954019E+03</rscale>
<asrwt>0</asrwt>
<pdfrwt beam="1">  1        2 0.11648737E+00 0.33954019E+03</pdfrwt>
<pdfrwt beam="2">  1       -2 0.50494893E-02 0.33954019E+03</pdfrwt>
<totfact> 0.73714744E+03</totfact>
</mgrwt>
</event>
<event>
 4    1  0.1837449E-005  0.6533819E+03  0.7818608E-02  0.9800454E-01
         -2   -1    0    0    0  501 -0.00000000000E+00  0.00000000000E+00  0.26517529385E+03  0.26517529386E+03  0.25500000000E-02 0. -1.
          2   -1    0    0  501    0  0.00000000000E+00 -0.00000000000E+00 -0.40247712535E+03  0.40247712536E+03  0.25500000000E-02 0.  1.
    5000001    1    1    2    0    0  0.67147046757E+02  0.25256409005E+03  0.39512985259E+02  0.31158244731E+03  0.16500000000E+03 0.  0.
   -5000001    1    1    2    0    0 -0.67147046757E+02 -0.25256409005E+03 -0.17681481676E+03  0.35606997191E+03  0.16500000000E+03 0.  0.
<mgrwt>
<rscale>  0 0.65338194E+03</rscale>
<asrwt>0</asrwt>
<pdfrwt beam="1">  1        2 0.57496732E-01 0.65338194E+03</pdfrwt>
<pdfrwt beam="2">  1       -2 0.37882185E-01 0.65338194E+03</pdfrwt>
<totfact> 0.56828967E+02</totfact>
</mgrwt>
</event>
<event>
 4    1  0.1837449E-005  0.4180652E+03  0.7818608E-02  0.1037698E+00
         -2   -1    0    0    0  501 -0.00000000000E+00  0.00000000000E+00  0.17364160418E+02  0.17364160605E+02  0.25500000000E-02 0. -1.
          2   -1    0    0  501    0  0.00000000000E+00 -0.00000000000E+00 -0.25163688488E+04  0.25163688488E+04  0.25500000000E-02 0.  1.
    5000001    1    1    2    0    0  0.11607099502E+03 -0.47279319686E+01 -0.15800590261E+04  0.15928924494E+04  0.16500000000E+03 0.  0.
   -5000001    1    1    2    0    0 -0.11607099502E+03  0.47279319686E+01 -0.91894566224E+03  0.94084056002E+03  0.16500000000E+03 0.  0.
<mgrwt>
<rscale>  0 0.41806522E+03</rscale>
<asrwt>0</asrwt>
<pdfrwt beam="1">  1        2 0.35948103E+00 0.41806522E+03</pdfrwt>
<pdfrwt beam="2">  1       -2 0.24805960E-02 0.41806522E+03</pdfrwt>
<totfact> 0.27416487E+03</totfact>
</mgrwt>
</event>
<event>
 4    1  0.1837449E-005  0.4527399E+03  0.7818608E-02  0.1026908E+00
         -2   -1    0    0    0  501 -0.00000000000E+00  0.00000000000E+00  0.66583626710E+02  0.66583626759E+02  0.25500000000E-02 0. -1.
          2   -1    0    0  501    0  0.00000000000E+00 -0.00000000000E+00 -0.76960892750E+03  0.76960892750E+03  0.25500000000E-02 0.  1.
    5000001    1    1    2    0    0 -0.43769476967E+02 -0.13567852476E+03 -0.23925872722E+03  0.32371927306E+03  0.16500000000E+03 0.  0.
   -5000001    1    1    2    0    0  0.43769476967E+02  0.13567852476E+03 -0.46376657356E+03  0.51247328120E+03  0.16500000000E+03 0.  0.
<mgrwt>
<rscale>  0 0.45273990E+03</rscale>
<asrwt>0</asrwt>
<pdfrwt beam="1">  1        2 0.10994413E+00 0.45273990E+03</pdfrwt>
<pdfrwt beam="2">  1       -2 0.95119471E-02 0.45273990E+03</pdfrwt>
<totfact> 0.29579788E+03</totfact>
</mgrwt>
</event>
<event>
 4    1  0.1837449E-005  0.8082533E+03  0.7818608E-02  0.9548147E-01
         -2   -1    0    0    0  501 -0.00000000000E+00  0.00000000000E+00  0.88847163062E+02  0.88847163099E+02  0.25500000000E-02 0. -1.
          2   -1    0    0  501    0  0.00000000000E+00 -0.00000000000E+00 -0.18381941580E+04  0.18381941580E+04  0.25500000000E-02 0.  1.
    5000001    1    1    2    0    0  0.16716518669E+03  0.87128252631E+02 -0.11862187682E+03  0.27718528408E+03  0.16500000000E+03 0.  0.
   -5000001    1    1    2    0    0 -0.16716518669E+03 -0.87128252631E+02 -0.16307251181E+04  0.16498560370E+04  0.16500000000E+03 0.  0.
<mgrwt>
<rscale>  0 0.80825327E+03</rscale>
<asrwt>0</asrwt>
<pdfrwt beam="1">  1        2 0.26259914E+00 0.80825327E+03</pdfrwt>
<pdfrwt beam="2">  1       -2 0.12692453E-01 0.80825327E+03</pdfrwt>
<totfact> 0.45665301E+02</totfact>
</mgrwt>
</event>
<event>
 4    1  0.1837449E-005  0.5174801E+03  0.7818608E-02  0.1009314E+00
         -2   -1    0    0    0  501 -0.00000000000E+00  0.00000000000E+00  0.21367061200E+02  0.21367061352E+02  0.25500000000E-02 0. -1.
          2   -1    0    0  501    0  0.00000000000E+00 -0.00000000000E+00 -0.31331597908E+04  0.31331597908E+04  0.25500000000E-02 0.  1.
    5000001    1    1    2    0    0 -0.18264632062E+03 -0.48587746505E+02 -0.11703086451E+04  0.11968992324E+04  0.16500000000E+03 0.  0.
   -5000001    1    1    2    0    0  0.18264632062E+03  0.48587746505E+02 -0.19414840845E+04  0.19576276198E+04  0.16500000000E+03 0.  0.
<mgrwt>
<rscale>  0 0.51748011E+03</rscale>
<asrwt>0</asrwt>
<pdfrwt beam="1">  1        2 0.44759396E+00 0.51748011E+03</pdfrwt>
<pdfrwt beam="2">  1       -2 0.30524393E-02 0.51748011E+03</pdfrwt>
<totfact> 0.94018378E+02</totfact>
</mgrwt>
</event>
<event>
 4    1  0.1837449E-005  0.6585988E+03  0.7818608E-02  0.9790777E-01
         -2   -1    0    0    0  501 -0.00000000000E+00  0.00000000000E+00  0.51486265144E+02  0.51486265207E+02  0.25500000000E-02 0. -1.
          2   -1    0    0  501    0  0.00000000000E+00 -0.00000000000E+00 -0.21061560265E+04  0.21061560265E+04  0.25500000000E-02 0.  1.
    5000001    1    1    2    0    0  0.52515007260E+02  0.23685487877E+03 -0.53750385508E+03  0.61236709073E+03  0.16500000000E+03 0.  0.
   -5000001    1    1    2    0    0 -0.52515007260E+02 -0.23685487877E+03 -0.15171659063E+04  0.15452752010E+04  0.16500000000E+03 0.  0.
<mgrwt>
<rscale>  0 0.65859884E+03</rscale>
<asrwt>0</asrwt>
<pdfrwt beam="1">  1        2 0.30087938E+00 0.65859884E+03</pdfrwt>
<pdfrwt beam="2">  1       -2 0.73551821E-02 0.65859884E+03</pdfrwt>
<totfact> 0.81802829E+02</totfact>
</mgrwt>
</event>
<event>
 4    1  0.1837449E-005  0.4788615E+03  0.7818608E-02  0.1019449E+00
         -2   -1    0    0    0  501 -0.00000000000E+00  0.00000000000E+00  0.46082876483E+02  0.46082876553E+02  0.25500000000E-02 0. -1.
          2   -1    0    0  501    0  0.00000000000E+00 -0.00000000000E+00 -0.12439996680E+04  0.12439996680E+04  0.25500000000E-02 0.  1.
    5000001    1    1    2    0    0 -0.84968972037E+02  0.14994302101E+03 -0.65280239941E+03  0.69503856615E+03  0.16500000000E+03 0.  0.
   -5000001    1    1    2    0    0  0.84968972037E+02 -0.14994302101E+03 -0.54511439211E+03  0.59504397841E+03  0.16500000000E+03 0.  0.
<mgrwt>
<rscale>  0 0.47886150E+03</rscale>
<asrwt>0</asrwt>
<pdfrwt beam="1">  1        2 0.17771422E+00 0.47886150E+03</pdfrwt>
<pdfrwt beam="2">  1       -2 0.65832688E-02 0.47886150E+03</pdfrwt>
<totfact> 0.27233874E+03</totfact>
</mgrwt>
</event>
<event>
 4    1  0.1837449E-005  0.6406390E+03  0.7818608E-02  0.9824505E-01
         -2   -1    0    0    0  501 -0.00000000000E+00  0.00000000000E+00  0.27062575911E+03  0.27062575912E+03  0.25500000000E-02 0. -1.
          2   -1    0    0  501    0  0.00000000000E+00 -0.00000000000E+00 -0.37913830827E+03  0.37913830828E+03  0.25500000000E-02 0.  1.
    5000001    1    1    2    0    0 -0.21550321723E+03 -0.13362315288E+03  0.52518144413E+02  0.30705038530E+03  0.16500000000E+03 0.  0.
   -5000001    1    1    2    0    0  0.21550321723E+03  0.13362315288E+03 -0.16103069358E+03  0.34271368210E+03  0.16500000000E+03 0.  0.
<mgrwt>
<rscale>  0 0.64063903E+03</rscale>
<asrwt>0</asrwt>
<pdfrwt beam="1">  1        2 0.54162615E-01 0.64063903E+03</pdfrwt>
<pdfrwt beam="2">  1       -2 0.38660823E-01 0.64063903E+03</pdfrwt>
<totfact> 0.58415234E+02</totfact>
</mgrwt>
</event>
<event>
 4    1  0.1837449E-005  0.4431096E+03  0.7818608E-02  0.1029797E+00
         -2   -1    0    0    0  501 -0.00000000000E+00  0.00000000000E+00  0.14452532709E+02  0.14452532934E+02  0.25500000000E-02 0.  1.
          2   -1    0    0  501    0  0.00000000000E+00 -0.00000000000E+00 -0.33963963942E+04  0.33963963942E+04  0.25500000000E-02 0. -1.
    5000001    1    1    2    0    0 -0.56569155980E+02  0.68267822836E+02 -0.78015664470E+03  0.80232783531E+03  0.16500000000E+03 0.  0.
   -5000001    1    1    2    0    0  0.56569155980E+02 -0.68267822836E+02 -0.26017872168E+04  0.26085210919E+04  0.16500000000E+03 0.  0.
<mgrwt>
<rscale>  0 0.44310960E+03</rscale>
<asrwt>0</asrwt>
<pdfrwt beam="1">  1        2 0.48519897E+00 0.44310960E+03</pdfrwt>
<pdfrwt beam="2">  1       -2 0.20646497E-02 0.44310960E+03</pdfrwt>
<totfact> 0.12120023E+03</totfact>
</mgrwt>
</event>
<event>
 4    1  0.1837449E-005  0.3590912E+03  0.7818608E-02  0.1058944E+00
          2   -1    0    0  501    0  0.00000000000E+00  0.00000000000E+00  0.82719282468E+02  0.82719282507E+02  0.25500000000E-02 0.  1.
         -2   -1    0    0    0  501 -0.00000000000E+00 -0.00000000000E+00 -0.38971110656E+03  0.38971110657E+03  0.25500000000E-02 0. -1.
    5000001    1    1    2    0    0 -0.43194478178E+02  0.33670237207E+02 -0.94480429062E+02  0.19786611457E+03  0.16500000000E+03 0.  0.
   -5000001    1    1    2    0    0  0.43194478178E+02 -0.33670237207E+02 -0.21251139503E+03  0.27456427451E+03  0.16500000000E+03 0.  0.
<mgrwt>
<rscale>  0 0.35909120E+03</rscale>
<asrwt>0</asrwt>
<pdfrwt beam="1">  1        2 0.11817041E-01 0.35909120E+03</pdfrwt>
<pdfrwt beam="2">  1       -2 0.55673014E-01 0.35909120E+03</pdfrwt>
<totfact> 0.16177611E+03</totfact>
</mgrwt>
</event>
<event>
 4    1  0.1837449E-005  0.4512678E+03  0.7818608E-02  0.1027345E+00
          2   -1    0    0  501    0  0.00000000000E+00  0.00000000000E+00  0.13344076924E+03  0.13344076927E+03  0.25500000000E-02 0.  1.
         -2   -1    0    0    0  501 -0.00000000000E+00 -0.00000000000E+00 -0.38152243938E+03  0.38152243939E+03  0.25500000000E-02 0. -1.
    5000001    1    1    2    0    0 -0.14040159612E+03  0.43772917171E+02 -0.72285393978E+02  0.23254860708E+03  0.16500000000E+03 0.  0.
   -5000001    1    1    2    0    0  0.14040159612E+03 -0.43772917171E+02 -0.17579627616E+03  0.28241460158E+03  0.16500000000E+03 0.  0.
<mgrwt>
<rscale>  0 0.45126776E+03</rscale>
<asrwt>0</asrwt>
<pdfrwt beam="1">  1        2 0.19062967E-01 0.45126776E+03</pdfrwt>
<pdfrwt beam="2">  1       -2 0.54503205E-01 0.45126776E+03</pdfrwt>
<totfact> 0.95455230E+02</totfact>
</mgrwt>
</event>
<event>
 4    1  0.1837449E-005  0.6531313E+03  0.7818608E-02  0.9800921E-01
          2   -1    0    0  501    0  0.00000000000E+00  0.00000000000E+00  0.17433048124E+04  0.17433048124E+04  0.25500000000E-02 0.  1.
         -2   -1    0    0    0  501 -0.00000000000E+00 -0.00000000000E+00 -0.61174115985E+02  0.61174116038E+02  0.25500000000E-02 0. -1.
    5000001    1    1    2    0    0 -0.65448411758E+02  0.24286563547E+03  0.48992816906E+03  0.57491027329E+03  0.16500000000E+03 0.  0.
   -5000001    1    1    2    0    0  0.65448411758E+02 -0.24286563547E+03  0.11922025273E+04  0.12295686551E+04  0.16500000000E+03 0.  0.
<mgrwt>
<rscale>  0 0.65313132E+03</rscale>
<asrwt>0</asrwt>
<pdfrwt beam="1">  1        2 0.24904355E+00 0.65313132E+03</pdfrwt>
<pdfrwt beam="2">  1       -2 0.87391591E-02 0.65313132E+03</pdfrwt>
<totfact> 0.94732262E+02</totfact>
</mgrwt>
</event>
<event>
 4    1  0.1837449E-005  0.5045686E+03  0.7818608E-02  0.1012593E+00
         -2   -1    0    0    0  501 -0.00000000000E+00  0.00000000000E+00  0.31775405106E+03  0.31775405107E+03  0.25500000000E-02 0. -1.
          2   -1    0    0  501    0  0.00000000000E+00 -0.00000000000E+00 -0.20030389706E+03  0.20030389708E+03  0.25500000000E-02 0.  1.
    5000001    1    1    2    0    0 -0.13957093882E+03  0.22940474860E+02  0.19027560482E+03  0.28885310824E+03  0.16500000000E+03 0.  0.
   -5000001    1    1    2    0    0  0.13957093882E+03 -0.22940474860E+02 -0.72825450821E+02  0.22920483991E+03  0.16500000000E+03 0.  0.
<mgrwt>
<rscale>  0 0.50456863E+03</rscale>
<asrwt>0</asrwt>
<pdfrwt beam="1">  1        2 0.28614842E-01 0.50456863E+03</pdfrwt>
<pdfrwt beam="2">  1       -2 0.45393436E-01 0.50456863E+03</pdfrwt>
<totfact> 0.86706436E+02</totfact>
</mgrwt>
</event>
<event>
 4    1  0.1837449E-005  0.1120150E+04  0.7818608E-02  0.9185772E-01
         -2   -1    0    0    0  501 -0.00000000000E+00  0.00000000000E+00  0.46582546120E+03  0.46582546120E+03  0.25500000000E-02 0. -1.
          2   -1    0    0  501    0  0.00000000000E+00 -0.00000000000E+00 -0.67339361216E+03  0.67339361217E+03  0.25500000000E-02 0.  1.
    5000001    1    1    2    0    0  0.36147495333E+03 -0.35239641855E+03 -0.28460712146E+03  0.60255588229E+03  0.16500000000E+03 0.  0.
   -5000001    1    1    2    0    0 -0.36147495333E+03  0.35239641855E+03  0.77038970491E+02  0.53666319109E+03  0.16500000000E+03 0.  0.
<mgrwt>
<rscale>  0 0.11201498E+04</rscale>
<asrwt>0</asrwt>
<pdfrwt beam="1">  1        2 0.96199087E-01 0.11201498E+04</pdfrwt>
<pdfrwt beam="2">  1       -2 0.66546495E-01 0.11201498E+04</pdfrwt>
<totfact> 0.97242369E+01</totfact>
</mgrwt>
</event>
<event>
 4    1  0.1837449E-005  0.4709502E+03  0.7818608E-02  0.1021652E+00
          2   -1    0    0  501    0  0.00000000000E+00  0.00000000000E+00  0.81304600431E+03  0.81304600431E+03  0.25500000000E-02 0.  1.
         -2   -1    0    0    0  501 -0.00000000000E+00 -0.00000000000E+00 -0.68198506722E+02  0.68198506770E+02  0.25500000000E-02 0. -1.
    5000001    1    1    2    0    0  0.26431367637E+02  0.16542105912E+03  0.34869708586E+03  0.42056795133E+03  0.16500000000E+03 0.  0.
   -5000001    1    1    2    0    0 -0.26431367637E+02 -0.16542105912E+03  0.39615041173E+03  0.46067655975E+03  0.16500000000E+03 0.  0.
<mgrwt>
<rscale>  0 0.47095020E+03</rscale>
<asrwt>0</asrwt>
<pdfrwt beam="1">  1        2 0.11614942E+00 0.47095020E+03</pdfrwt>
<pdfrwt beam="2">  1       -2 0.97426444E-02 0.47095020E+03</pdfrwt>
<totfact> 0.26567337E+03</totfact>
</mgrwt>
</event>
<event>
 4    1  0.1837449E-005  0.4162901E+03  0.7818608E-02  0.1038281E+00
          2   -1    0    0  501    0  0.00000000000E+00  0.00000000000E+00  0.15834164060E+03  0.15834164062E+03  0.25500000000E-02 0.  1.
         -2   -1    0    0    0  501 -0.00000000000E+00 -0.00000000000E+00 -0.27361317878E+03  0.27361317879E+03  0.25500000000E-02 0. -1.
    5000001    1    1    2    0    0 -0.71343229849E+02  0.10150336208E+03 -0.30054131109E+02  0.20861696900E+03  0.16500000000E+03 0.  0.
   -5000001    1    1    2    0    0  0.71343229849E+02 -0.10150336208E+03 -0.85217407066E+02  0.22333785041E+03  0.16500000000E+03 0.  0.
<mgrwt>
<rscale>  0 0.41629009E+03</rscale>
<asrwt>0</asrwt>
<pdfrwt beam="1">  1        2 0.22620234E-01 0.41629009E+03</pdfrwt>
<pdfrwt beam="2">  1       -2 0.39087597E-01 0.41629009E+03</pdfrwt>
<totfact> 0.15135036E+03</totfact>
</mgrwt>
</event>
<event>
 4    1  0.1837449E-005  0.3524868E+03  0.7818608E-02  0.1061599E+00
         -2   -1    0    0    0  501 -0.00000000000E+00  0.00000000000E+00  0.15360890783E+02  0.15360890995E+02  0.25500000000E-02 0. -1.
          2   -1    0    0  501    0  0.00000000000E+00 -0.00000000000E+00 -0.20221309966E+04  0.20221309966E+04  0.25500000000E-02 0.  1.
    5000001    1    1    2    0    0 -0.27037160245E+02 -0.54290892388E+02 -0.10760943619E+04  0.10903589247E+04  0.16500000000E+03 0.  0.
   -5000001    1    1    2    0    0  0.27037160245E+02  0.54290892388E+02 -0.93067574396E+03  0.94713296290E+03  0.16500000000E+03 0.  0.
<mgrwt>
<rscale>  0 0.35248679E+03</rscale>
<asrwt>0</asrwt>
<pdfrwt beam="1">  1        2 0.28887569E+00 0.35248679E+03</pdfrwt>
<pdfrwt beam="2">  1       -2 0.21944143E-02 0.35248679E+03</pdfrwt>
<totfact> 0.58138897E+03</totfact>
</mgrwt>
</event>
<event>
 4    1  0.1837449E-005  0.5218043E+03  0.7818608E-02  0.1008239E+00
          2   -1    0    0  501    0  0.00000000000E+00  0.00000000000E+00  0.27651534175E+04  0.27651534175E+04  0.25500000000E-02 0.  1.
         -2   -1    0    0    0  501 -0.00000000000E+00 -0.00000000000E+00 -0.24617054227E+02  0.24617054359E+02  0.25500000000E-02 0. -1.
    5000001    1    1    2    0    0  0.90324834991E+02 -0.70851486516E+02  0.22595457242E+04  0.22684687321E+04  0.16500000000E+03 0.  0.
   -5000001    1    1    2    0    0 -0.90324834991E+02  0.70851486516E+02  0.48099063908E+03  0.52130173972E+03  0.16500000000E+03 0.  0.
<mgrwt>
<rscale>  0 0.52180430E+03</rscale>
<asrwt>0</asrwt>
<pdfrwt beam="1">  1        2 0.39502171E+00 0.52180430E+03</pdfrwt>
<pdfrwt beam="2">  1       -2 0.35167239E-02 0.52180430E+03</pdfrwt>
<totfact> 0.11956399E+03</totfact>
</mgrwt>
</event>
<event>
 4    1  0.1837449E-005  0.4240669E+03  0.7818608E-02  0.1035751E+00
         -2   -1    0    0    0  501 -0.00000000000E+00  0.00000000000E+00  0.57633875887E+03  0.57633875888E+03  0.25500000000E-02 0. -1.
          2   -1    0    0  501    0  0.00000000000E+00 -0.00000000000E+00 -0.78006514414E+02  0.78006514456E+02  0.25500000000E-02 0.  1.
    5000001    1    1    2    0    0 -0.12001562392E+03  0.69152672226E+01  0.16077352471E+03  0.25985514648E+03  0.16500000000E+03 0.  0.
   -5000001    1    1    2    0    0  0.12001562392E+03 -0.69152672226E+01  0.33755871975E+03  0.39449012686E+03  0.16500000000E+03 0.  0.
<mgrwt>
<rscale>  0 0.42406687E+03</rscale>
<asrwt>0</asrwt>
<pdfrwt beam="1">  1        2 0.11143788E-01 0.42406687E+03</pdfrwt>
<pdfrwt beam="2">  1       -2 0.82334108E-01 0.42406687E+03</pdfrwt>
<totfact> 0.75366633E+02</totfact>
</mgrwt>
</event>
<event>
 4    1  0.1837449E-005  0.5147524E+03  0.7818608E-02  0.1009998E+00
         -2   -1    0    0    0  501 -0.00000000000E+00  0.00000000000E+00  0.28673021841E+03  0.28673021842E+03  0.25500000000E-02 0. -1.
          2   -1    0    0  501    0  0.00000000000E+00 -0.00000000000E+00 -0.23102730714E+03  0.23102730715E+03  0.25500000000E-02 0.  1.
    5000001    1    1    2    0    0 -0.15128558921E+03 -0.87831288856E+02 -0.64422026293E+02  0.24895152596E+03  0.16500000000E+03 0.  0.
   -5000001    1    1    2    0    0  0.15128558921E+03  0.87831288856E+02  0.12012493756E+03  0.26880599961E+03  0.16500000000E+03 0.  0.
<mgrwt>
<rscale>  0 0.51475241E+03</rscale>
<asrwt>0</asrwt>
<pdfrwt beam="1">  1        2 0.33003901E-01 0.51475241E+03</pdfrwt>
<pdfrwt beam="2">  1       -2 0.40961460E-01 0.51475241E+03</pdfrwt>
<totfact> 0.90444287E+02</totfact>
</mgrwt>
</event>
<event>
 4    1  0.1837449E-005  0.8558831E+03  0.7818608E-02  0.9482475E-01
          2   -1    0    0  501    0  0.00000000000E+00  0.00000000000E+00  0.13975488717E+03  0.13975488719E+03  0.25500000000E-02 0.  1.
         -2   -1    0    0    0  501 -0.00000000000E+00 -0.00000000000E+00 -0.13103939186E+04  0.13103939186E+04  0.25500000000E-02 0. -1.
    5000001    1    1    2    0    0 -0.89668018128E+02  0.37740912501E+03 -0.71018320560E+03  0.82587116830E+03  0.16500000000E+03 0.  0.
   -5000001    1    1    2    0    0  0.89668018128E+02 -0.37740912501E+03 -0.46045582578E+03  0.62427763744E+03  0.16500000000E+03 0.  0.
<mgrwt>
<rscale>  0 0.85588306E+03</rscale>
<asrwt>0</asrwt>
<pdfrwt beam="1">  1        2 0.19964985E-01 0.85588306E+03</pdfrwt>
<pdfrwt beam="2">  1       -2 0.18719912E+00 0.85588306E+03</pdfrwt>
<totfact> 0.46520494E+01</totfact>
</mgrwt>
</event>
<event>
 4    1  0.1837449E-005  0.6663452E+03  0.7818608E-02  0.9776583E-01
          2   -1    0    0  501    0  0.00000000000E+00  0.00000000000E+00  0.69390835724E+03  0.69390835724E+03  0.25500000000E-02 0.  1.
         -2   -1    0    0    0  501 -0.00000000000E+00 -0.00000000000E+00 -0.15996921440E+03  0.15996921442E+03  0.25500000000E-02 0. -1.
    5000001    1    1    2    0    0  0.15622905999E+03  0.21770812637E+03  0.12674395804E+03  0.33925415012E+03  0.16500000000E+03 0.  0.
   -5000001    1    1    2    0    0 -0.15622905999E+03 -0.21770812637E+03  0.40719518480E+03  0.51462342154E+03  0.16500000000E+03 0.  0.
<mgrwt>
<rscale>  0 0.66634518E+03</rscale>
<asrwt>0</asrwt>
<pdfrwt beam="1">  1        2 0.99129765E-01 0.66634518E+03</pdfrwt>
<pdfrwt beam="2">  1       -2 0.22852745E-01 0.66634518E+03</pdfrwt>
<totfact> 0.76905050E+02</totfact>
</mgrwt>
</event>
<event>
 4    1  0.1837449E-005  0.5892954E+03  0.7818608E-02  0.9927867E-01
          2   -1    0    0  501    0  0.00000000000E+00  0.00000000000E+00  0.18117163909E+04  0.18117163909E+04  0.25500000000E-02 0.  1.
         -2   -1    0    0    0  501 -0.00000000000E+00 -0.00000000000E+00 -0.47919903533E+02  0.47919903601E+02  0.25500000000E-02 0. -1.
    5000001    1    1    2    0    0 -0.23493640529E+03  0.24124303698E+02  0.10768164277E+04  0.11146908609E+04  0.16500000000E+03 0.  0.
   -5000001    1    1    2    0    0  0.23493640529E+03 -0.24124303698E+02  0.68698005964E+03  0.74494543350E+03  0.16500000000E+03 0.  0.
<mgrwt>
<rscale>  0 0.58929543E+03</rscale>
<asrwt>0</asrwt>
<pdfrwt beam="1">  1        2 0.25881663E+00 0.58929543E+03</pdfrwt>
<pdfrwt beam="2">  1       -2 0.68457005E-02 0.58929543E+03</pdfrwt>
<totfact> 0.12941357E+03</totfact>
</mgrwt>
</event>
<event>
 4    1  0.1837449E-005  0.8082262E+03  0.7818608E-02  0.9548186E-01
         -2   -1    0    0    0  501 -0.00000000000E+00  0.00000000000E+00  0.17974538628E+03  0.17974538630E+03  0.25500000000E-02 0. -1.
          2   -1    0    0  501    0  0.00000000000E+00 -0.00000000000E+00 -0.90854848783E+03  0.90854848784E+03  0.25500000000E-02 0.  1.
    5000001    1    1    2    0    0  0.15247905872E+03 -0.37161584100E+01  0.87874772730E+02  0.24126883111E+03  0.16500000000E+03 0.  0.
   -5000001    1    1    2    0    0 -0.15247905872E+03  0.37161584100E+01 -0.81667787428E+03  0.84702504303E+03  0.16500000000E+03 0.  0.
<mgrwt>
<rscale>  0 0.80822620E+03</rscale>
<asrwt>0</asrwt>
<pdfrwt beam="1">  1        2 0.12979264E+00 0.80822620E+03</pdfrwt>
<pdfrwt beam="2">  1       -2 0.25677913E-01 0.80822620E+03</pdfrwt>
<totfact> 0.43929724E+02</totfact>
</mgrwt>
</event>
<event>
 4    1  0.1837449E-005  0.3666730E+03  0.7818608E-02  0.1055972E+00
         -2   -1    0    0    0  501 -0.00000000000E+00  0.00000000000E+00  0.13809249212E+02  0.13809249448E+02  0.25500000000E-02 0. -1.
          2   -1    0    0  501    0  0.00000000000E+00 -0.00000000000E+00 -0.24340406451E+04  0.24340406451E+04  0.25500000000E-02 0.  1.
    5000001    1    1    2    0    0  0.77563711857E+02  0.15047804890E+02 -0.11298088476E+04  0.11445241797E+04  0.16500000000E+03 0.  0.
   -5000001    1    1    2    0    0 -0.77563711857E+02 -0.15047804890E+02 -0.12904225483E+04  0.13033257149E+04  0.16500000000E+03 0.  0.
<mgrwt>
<rscale>  0 0.36667301E+03</rscale>
<asrwt>0</asrwt>
<pdfrwt beam="1">  1        2 0.34771982E+00 0.36667301E+03</pdfrwt>
<pdfrwt beam="2">  1       -2 0.19727515E-02 0.36667301E+03</pdfrwt>
<totfact> 0.42544396E+03</totfact>
</mgrwt>
</event>
<event>
 4    1  0.1837449E-005  0.4217005E+03  0.7818608E-02  0.1036514E+00
         -2   -1    0    0    0  501 -0.00000000000E+00  0.00000000000E+00  0.15700466898E+02  0.15700467105E+02  0.25500000000E-02 0. -1.
          2   -1    0    0  501    0  0.00000000000E+00 -0.00000000000E+00 -0.28316245916E+04  0.28316245916E+04  0.25500000000E-02 0.  1.
    5000001    1    1    2    0    0 -0.12586083847E+03  0.26670196151E+02 -0.15841077544E+04  0.15978656475E+04  0.16500000000E+03 0.  0.
   -5000001    1    1    2    0    0  0.12586083847E+03 -0.26670196151E+02 -0.12318163704E+04  0.12494594112E+04  0.16500000000E+03 0.  0.
<mgrwt>
<rscale>  0 0.42170050E+03</rscale>
<asrwt>0</asrwt>
<pdfrwt beam="1">  1        2 0.40451747E+00 0.42170050E+03</pdfrwt>
<pdfrwt beam="2">  1       -2 0.22429257E-02 0.42170050E+03</pdfrwt>
<totfact> 0.21912584E+03</totfact>
</mgrwt>
</event>
<event>
 4    1  0.1837449E-005  0.6379959E+03  0.7818608E-02  0.9829568E-01
         -2   -1    0    0    0  501 -0.00000000000E+00  0.00000000000E+00  0.60530675127E+02  0.60530675180E+02  0.25500000000E-02 0. -1.
          2   -1    0    0  501    0  0.00000000000E+00 -0.00000000000E+00 -0.16811259375E+04  0.16811259375E+04  0.25500000000E-02 0.  1.
    5000001    1    1    2    0    0  0.25507142084E+03  0.12235830067E+02 -0.10738913986E+04  0.11160998527E+04  0.16500000000E+03 0.  0.
   -5000001    1    1    2    0    0 -0.25507142084E+03 -0.12235830067E+02 -0.54670386381E+03  0.62555675999E+03  0.16500000000E+03 0.  0.
<mgrwt>
<rscale>  0 0.63799589E+03</rscale>
<asrwt>0</asrwt>
<pdfrwt beam="1">  1        2 0.24016082E+00 0.63799589E+03</pdfrwt>
<pdfrwt beam="2">  1       -2 0.86472404E-02 0.63799589E+03</pdfrwt>
<totfact> 0.10371987E+03</totfact>
</mgrwt>
</event>
<event>
 4    1  0.1837449E-005  0.4821304E+03  0.7818608E-02  0.1018551E+00
          2   -1    0    0  501    0  0.00000000000E+00  0.00000000000E+00  0.50356516465E+03  0.50356516466E+03  0.25500000000E-02 0.  1.
         -2   -1    0    0    0  501 -0.00000000000E+00 -0.00000000000E+00 -0.11540200397E+03  0.11540200400E+03  0.25500000000E-02 0. -1.
    5000001    1    1    2    0    0 -0.68756281324E+02 -0.32535253312E+02 -0.93191913751E+01  0.18192805242E+03  0.16500000000E+03 0.  0.
   -5000001    1    1    2    0    0  0.68756281324E+02  0.32535253312E+02  0.39748235205E+03  0.43703911624E+03  0.16500000000E+03 0.  0.
<mgrwt>
<rscale>  0 0.48213039E+03</rscale>
<asrwt>0</asrwt>
<pdfrwt beam="1">  1        2 0.71937881E-01 0.48213039E+03</pdfrwt>
<pdfrwt beam="2">  1       -2 0.16486001E-01 0.48213039E+03</pdfrwt>
<totfact> 0.19758140E+03</totfact>
</mgrwt>
</event>
<event>
 4    1  0.1837449E-005  0.3979188E+03  0.7818608E-02  0.1044503E+00
         -2   -1    0    0    0  501 -0.00000000000E+00  0.00000000000E+00  0.49896633331E+03  0.49896633331E+03  0.25500000000E-02 0. -1.
          2   -1    0    0  501    0  0.00000000000E+00 -0.00000000000E+00 -0.79333699533E+02  0.79333699574E+02  0.25500000000E-02 0.  1.
    5000001    1    1    2    0    0 -0.87325345674E+02  0.67567851286E+02  0.19093922248E+03  0.27545220494E+03  0.16500000000E+03 0.  0.
   -5000001    1    1    2    0    0  0.87325345674E+02 -0.67567851286E+02  0.22869341129E+03  0.30284782795E+03  0.16500000000E+03 0.  0.
<mgrwt>
<rscale>  0 0.39791881E+03</rscale>
<asrwt>0</asrwt>
<pdfrwt beam="1">  1        2 0.11333385E-01 0.39791881E+03</pdfrwt>
<pdfrwt beam="2">  1       -2 0.71280906E-01 0.39791881E+03</pdfrwt>
<totfact> 0.10133701E+03</totfact>
</mgrwt>
</event>
<event>
 4    1  0.1837449E-005  0.7287146E+03  0.7818608E-02  0.9669349E-01
          2   -1    0    0  501    0  0.00000000000E+00  0.00000000000E+00  0.16996194150E+04  0.16996194150E+04  0.25500000000E-02 0.  1.
         -2   -1    0    0    0  501 -0.00000000000E+00 -0.00000000000E+00 -0.78109388437E+02  0.78109388479E+02  0.25500000000E-02 0. -1.
    5000001    1    1    2    0    0 -0.23495141127E+03  0.16081269390E+03  0.42915326999E+03  0.54079609588E+03  0.16500000000E+03 0.  0.
   -5000001    1    1    2    0    0  0.23495141127E+03 -0.16081269390E+03  0.11923567565E+04  0.12369327075E+04  0.16500000000E+03 0.  0.
<mgrwt>
<rscale>  0 0.72871458E+03</rscale>
<asrwt>0</asrwt>
<pdfrwt beam="1">  1        2 0.24280276E+00 0.72871458E+03</pdfrwt>
<pdfrwt beam="2">  1       -2 0.11158485E-01 0.72871458E+03</pdfrwt>
<totfact> 0.66792695E+02</totfact>
</mgrwt>
</event>
<event>
 4    1  0.1837449E-005  0.4119169E+03  0.7818608E-02  0.1039730E+00
          2   -1    0    0  501    0  0.00000000000E+00  0.00000000000E+00  0.49803886370E+03  0.49803886370E+03  0.25500000000E-02 0.  1.
         -2   -1    0    0    0  501 -0.00000000000E+00 -0.00000000000E+00 -0.85171829838E+02  0.85171829877E+02  0.25500000000E-02 0. -1.
    5000001    1    1    2    0    0  0.63105067276E+02 -0.10023101774E+03  0.25476706898E+03  0.32582167803E+03  0.16500000000E+03 0.  0.
   -5000001    1    1    2    0    0 -0.63105067276E+02  0.10023101774E+03  0.15809996487E+03  0.25738901555E+03  0.16500000000E+03 0.  0.
<mgrwt>
<rscale>  0 0.41191689E+03</rscale>
<asrwt>0</asrwt>
<pdfrwt beam="1">  1        2 0.71148407E-01 0.41191689E+03</pdfrwt>
<pdfrwt beam="2">  1       -2 0.12167405E-01 0.41191689E+03</pdfrwt>
<totfact> 0.33090197E+03</totfact>
</mgrwt>
</event>
<event>
 4    1  0.1837449E-005  0.4454402E+03  0.7818608E-02  0.1029091E+00
          2   -1    0    0  501    0  0.00000000000E+00  0.00000000000E+00  0.25541820321E+04  0.25541820321E+04  0.25500000000E-02 0.  1.
         -2   -1    0    0    0  501 -0.00000000000E+00 -0.00000000000E+00 -0.19420790757E+02  0.19420790925E+02  0.25500000000E-02 0. -1.
    5000001    1    1    2    0    0  0.11995399489E+03  0.83033671715E+02  0.10761335863E+04  0.10984407344E+04  0.16500000000E+03 0.  0.
   -5000001    1    1    2    0    0 -0.11995399489E+03 -0.83033671715E+02  0.14586276551E+04  0.14751620886E+04  0.16500000000E+03 0.  0.
<mgrwt>
<rscale>  0 0.44544016E+03</rscale>
<asrwt>0</asrwt>
<pdfrwt beam="1">  1        2 0.36488324E+00 0.44544016E+03</pdfrwt>
<pdfrwt beam="2">  1       -2 0.27743980E-02 0.44544016E+03</pdfrwt>
<totfact> 0.22135957E+03</totfact>
</mgrwt>
</event>
<event>
 4    1  0.1837449E-005  0.4513129E+03  0.7818608E-02  0.1027331E+00
          2   -1    0    0  501    0  0.00000000000E+00  0.00000000000E+00  0.48578384975E+03  0.48578384975E+03  0.25500000000E-02 0.  1.
         -2   -1    0    0    0  501 -0.00000000000E+00 -0.00000000000E+00 -0.10482200690E+03  0.10482200693E+03  0.25500000000E-02 0. -1.
    5000001    1    1    2    0    0  0.37239850930E+02  0.11275629142E+03  0.31866781121E+03  0.37798804433E+03  0.16500000000E+03 0.  0.
   -5000001    1    1    2    0    0 -0.37239850930E+02 -0.11275629142E+03  0.62294031635E+02  0.21261781235E+03  0.16500000000E+03 0.  0.
<mgrwt>
<rscale>  0 0.45131292E+03</rscale>
<asrwt>0</asrwt>
<pdfrwt beam="1">  1        2 0.69397692E-01 0.45131292E+03</pdfrwt>
<pdfrwt beam="2">  1       -2 0.14974573E-01 0.45131292E+03</pdfrwt>
<totfact> 0.24173941E+03</totfact>
</mgrwt>
</event>
<event>
 4    1  0.1837449E-005  0.8114952E+03  0.7818608E-02  0.9543526E-01
          2   -1    0    0  501    0  0.00000000000E+00  0.00000000000E+00  0.10439766122E+04  0.10439766122E+04  0.25500000000E-02 0.  1.
         -2   -1    0    0    0  501 -0.00000000000E+00 -0.00000000000E+00 -0.15769617671E+03  0.15769617673E+03  0.25500000000E-02 0. -1.
    5000001    1    1    2    0    0 -0.61798267996E+02 -0.29447986740E+03  0.76372413256E+03  0.83727950464E+03  0.16500000000E+03 0.  0.
   -5000001    1    1    2    0    0  0.61798267996E+02  0.29447986740E+03  0.12255630291E+03  0.36439328426E+03  0.16500000000E+03 0.  0.
<mgrwt>
<rscale>  0 0.81149521E+03</rscale>
<asrwt>0</asrwt>
<pdfrwt beam="1">  1        2 0.14913952E+00 0.81149521E+03</pdfrwt>
<pdfrwt beam="2">  1       -2 0.22528024E-01 0.81149521E+03</pdfrwt>
<totfact> 0.45732629E+02</totfact>
</mgrwt>
</event>
<event>
 4    1  0.1837449E-005  0.3925672E+03  0.7818608E-02  0.1046384E+00
         -2   -1    0    0    0  501 -0.00000000000E+00  0.00000000000E+00  0.10303071842E+03  0.10303071845E+03  0.25500000000E-02 0. -1.
          2   -1    0    0  501    0  0.00000000000E+00 -0.00000000000E+00 -0.37393955063E+03  0.37393955064E+03  0.25500000000E-02 0.  1.
    5000001    1    1    2    0    0  0.24867350725E+02 -0.96202674308E+02 -0.89526013601E+02  0.21239879187E+03  0.16500000000E+03 0.  0.
   -5000001    1    1    2    0    0 -0.24867350725E+02  0.96202674308E+02 -0.18138281861E+03  0.26457147723E+03  0.16500000000E+03 0.  0.
<mgrwt>
<rscale>  0 0.39256725E+03</rscale>
<asrwt>0</asrwt>
<pdfrwt beam="1">  1        2 0.53419935E-01 0.39256725E+03</pdfrwt>
<pdfrwt beam="2">  1       -2 0.14718674E-01 0.39256725E+03</pdfrwt>
<totfact> 0.33155007E+03</totfact>
</mgrwt>
</event>
<event>
 4    1  0.1837449E-005  0.4304888E+03  0.7818608E-02  0.1033706E+00
         -2   -1    0    0    0  501 -0.00000000000E+00  0.00000000000E+00  0.74686568500E+02  0.74686568543E+02  0.25500000000E-02 0. -1.
          2   -1    0    0  501    0  0.00000000000E+00 -0.00000000000E+00 -0.62032777798E+03  0.62032777799E+03  0.25500000000E-02 0.  1.
    5000001    1    1    2    0    0 -0.10810854861E+03  0.55308958794E+02 -0.16623314656E+03  0.26382759185E+03  0.16500000000E+03 0.  0.
   -5000001    1    1    2    0    0  0.10810854861E+03 -0.55308958794E+02 -0.37940806292E+03  0.43118675468E+03  0.16500000000E+03 0.  0.
<mgrwt>
<rscale>  0 0.43048881E+03</rscale>
<asrwt>0</asrwt>
<pdfrwt beam="1">  1        2 0.88618251E-01 0.43048881E+03</pdfrwt>
<pdfrwt beam="2">  1       -2 0.10669510E-01 0.43048881E+03</pdfrwt>
<totfact> 0.31877286E+03</totfact>
</mgrwt>
</event>
<event>
 4    1  0.1837449E-005  0.5544565E+03  0.7818608E-02  0.1000468E+00
         -2   -1    0    0    0  501 -0.00000000000E+00  0.00000000000E+00  0.18938199869E+03  0.18938199870E+03  0.25500000000E-02 0. -1.
          2   -1    0    0  501    0  0.00000000000E+00 -0.00000000000E+00 -0.40582265914E+03  0.40582265914E+03  0.25500000000E-02 0.  1.
    5000001    1    1    2    0    0 -0.18202876999E+03 -0.12298075684E+03 -0.68461009912E+02  0.28314422038E+03  0.16500000000E+03 0.  0.
   -5000001    1    1    2    0    0  0.18202876999E+03  0.12298075684E+03 -0.14797965054E+03  0.31206043746E+03  0.16500000000E+03 0.  0.
<mgrwt>
<rscale>  0 0.55445651E+03</rscale>
<asrwt>0</asrwt>
<pdfrwt beam="1">  1        2 0.57974666E-01 0.55445651E+03</pdfrwt>
<pdfrwt beam="2">  1       -2 0.27054571E-01 0.55445651E+03</pdfrwt>
<totfact> 0.10573497E+03</totfact>
</mgrwt>
</event>
<event>
 4    1  0.1837449E-005  0.5958567E+03  0.7818608E-02  0.9914040E-01
          2   -1    0    0  501    0  0.00000000000E+00  0.00000000000E+00  0.61734998592E+03  0.61734998593E+03  0.25500000000E-02 0.  1.
         -2   -1    0    0    0  501 -0.00000000000E+00 -0.00000000000E+00 -0.14377791133E+03  0.14377791135E+03  0.25500000000E-02 0. -1.
    5000001    1    1    2    0    0 -0.18557125314E+03  0.16383050105E+03  0.21622206896E+03  0.36776909355E+03  0.16500000000E+03 0.  0.
   -5000001    1    1    2    0    0  0.18557125314E+03 -0.16383050105E+03  0.25735000564E+03  0.39335880373E+03  0.16500000000E+03 0.  0.
<mgrwt>
<rscale>  0 0.59585667E+03</rscale>
<asrwt>0</asrwt>
<pdfrwt beam="1">  1        2 0.88192856E-01 0.59585667E+03</pdfrwt>
<pdfrwt beam="2">  1       -2 0.20539701E-01 0.59585667E+03</pdfrwt>
<totfact> 0.10697519E+03</totfact>
</mgrwt>
</event>
<event>
 4    1  0.1837449E-005  0.5792691E+03  0.7818608E-02  0.9949375E-01
         -2   -1    0    0    0  501 -0.00000000000E+00  0.00000000000E+00  0.91215410612E+02  0.91215410648E+02  0.25500000000E-02 0. -1.
          2   -1    0    0  501    0  0.00000000000E+00 -0.00000000000E+00 -0.91967105256E+03  0.91967105257E+03  0.25500000000E-02 0.  1.
    5000001    1    1    2    0    0  0.23548426412E+03  0.13017435512E+02 -0.47052964173E+03  0.55158447769E+03  0.16500000000E+03 0.  0.
   -5000001    1    1    2    0    0 -0.23548426412E+03 -0.13017435512E+02 -0.35792600022E+03  0.45930198553E+03  0.16500000000E+03 0.  0.
<mgrwt>
<rscale>  0 0.57926910E+03</rscale>
<asrwt>0</asrwt>
<pdfrwt beam="1">  1        2 0.13138157E+00 0.57926910E+03</pdfrwt>
<pdfrwt beam="2">  1       -2 0.13030773E-01 0.57926910E+03</pdfrwt>
<totfact> 0.14058369E+03</totfact>
</mgrwt>
</event>
<event>
 4    1  0.1837449E-005  0.4346423E+03  0.7818608E-02  0.1032403E+00
         -2   -1    0    0    0  501 -0.00000000000E+00  0.00000000000E+00  0.34966113247E+02  0.34966113340E+02  0.25500000000E-02 0. -1.
          2   -1    0    0  501    0  0.00000000000E+00 -0.00000000000E+00 -0.13506928170E+04  0.13506928170E+04  0.25500000000E-02 0.  1.
    5000001    1    1    2    0    0 -0.58894578440E+02  0.94853355725E+02 -0.93465002128E+03  0.95564710681E+03  0.16500000000E+03 0.  0.
   -5000001    1    1    2    0    0  0.58894578440E+02 -0.94853355725E+02 -0.38107668250E+03  0.43001182357E+03  0.16500000000E+03 0.  0.
<mgrwt>
<rscale>  0 0.43464228E+03</rscale>
<asrwt>0</asrwt>
<pdfrwt beam="1">  1        2 0.19295608E+00 0.43464228E+03</pdfrwt>
<pdfrwt beam="2">  1       -2 0.49951599E-02 0.43464228E+03</pdfrwt>
<totfact> 0.36621234E+03</totfact>
</mgrwt>
</event>
<event>
 4    1  0.1837449E-005  0.9544993E+03  0.7818608E-02  0.9359907E-01
          2   -1    0    0  501    0  0.00000000000E+00  0.00000000000E+00  0.15589147279E+04  0.15589147279E+04  0.25500000000E-02 0.  1.
         -2   -1    0    0    0  501 -0.00000000000E+00 -0.00000000000E+00 -0.14610627030E+03  0.14610627032E+03  0.25500000000E-02 0. -1.
    5000001    1    1    2    0    0 -0.39761227977E+02  0.44541346868E+03  0.66382794218E+03  0.81723108736E+03  0.16500000000E+03 0.  0.
   -5000001    1    1    2    0    0  0.39761227977E+02 -0.44541346868E+03  0.74898051538E+03  0.88778991082E+03  0.16500000000E+03 0.  0.
<mgrwt>
<rscale>  0 0.95449928E+03</rscale>
<asrwt>0</asrwt>
<pdfrwt beam="1">  1        2 0.22270211E+00 0.95449928E+03</pdfrwt>
<pdfrwt beam="2">  1       -2 0.20872324E-01 0.95449928E+03</pdfrwt>
<totfact> 0.26923594E+02</totfact>
</mgrwt>
</event>
<event>
 4    1  0.1837449E-005  0.6874615E+03  0.7818608E-02  0.9738918E-01
         -2   -1    0    0    0  501 -0.00000000000E+00  0.00000000000E+00  0.35258840450E+03  0.35258840451E+03  0.25500000000E-02 0. -1.
          2   -1    0    0  501    0  0.00000000000E+00 -0.00000000000E+00 -0.33509557463E+03  0.33509557464E+03  0.25500000000E-02 0.  1.
    5000001    1    1    2    0    0 -0.23660526067E+03  0.86767117046E+02 -0.15688263668E+03  0.33962883221E+03  0.16500000000E+03 0.  0.
   -5000001    1    1    2    0    0  0.23660526067E+03 -0.86767117046E+02  0.17437546655E+03  0.34805514694E+03  0.16500000000E+03 0.  0.
<mgrwt>
<rscale>  0 0.68746146E+03</rscale>
<asrwt>0</asrwt>
<pdfrwt beam="1">  1        2 0.47870796E-01 0.68746146E+03</pdfrwt>
<pdfrwt beam="2">  1       -2 0.50369772E-01 0.68746146E+03</pdfrwt>
<totfact> 0.39620824E+02</totfact>
</mgrwt>
</event>
<event>
 4    1  0.1837449E-005  0.1501127E+04  0.7818608E-02  0.8883704E-01
          2   -1    0    0  501    0  0.00000000000E+00  0.00000000000E+00  0.75712946939E+03  0.75712946940E+03  0.25500000000E-02 0.  1.
         -2   -1    0    0    0  501 -0.00000000000E+00 -0.00000000000E+00 -0.74405405544E+03  0.74405405544E+03  0.25500000000E-02 0. -1.
    5000001    1    1    2    0    0  0.38177996148E+03  0.54246952845E+03  0.31653514964E+03  0.75329186192E+03  0.16500000000E+03 0.  0.
   -5000001    1    1    2    0    0 -0.38177996148E+03 -0.54246952845E+03 -0.30345973568E+03  0.74789166292E+03  0.16500000000E+03 0.  0.
<mgrwt>
<rscale>  0 0.15011266E+04</rscale>
<asrwt>0</asrwt>
<pdfrwt beam="1">  1        2 0.10816135E+00 0.15011266E+04</pdfrwt>
<pdfrwt beam="2">  1       -2 0.10629344E+00 0.15011266E+04</pdfrwt>
<totfact> 0.28188604E+01</totfact>
</mgrwt>
</event>
<event>
 4    1  0.1837449E-005  0.5161768E+03  0.7818608E-02  0.1009641E+00
         -2   -1    0    0    0  501 -0.00000000000E+00  0.00000000000E+00  0.23733214713E+03  0.23733214714E+03  0.25500000000E-02 0. -1.
          2   -1    0    0  501    0  0.00000000000E+00 -0.00000000000E+00 -0.28065996435E+03  0.28065996437E+03  0.25500000000E-02 0.  1.
    5000001    1    1    2    0    0 -0.94057688532E+02  0.17210825494E+03 -0.52044651908E+02  0.26153727455E+03  0.16500000000E+03 0.  0.
   -5000001    1    1    2    0    0  0.94057688532E+02 -0.17210825494E+03  0.87168346814E+01  0.25645483695E+03  0.16500000000E+03 0.  0.
<mgrwt>
<rscale>  0 0.51617684E+03</rscale>
<asrwt>0</asrwt>
<pdfrwt beam="1">  1        2 0.40094280E-01 0.51617684E+03</pdfrwt>
<pdfrwt beam="2">  1       -2 0.33904593E-01 0.51617684E+03</pdfrwt>
<totfact> 0.10467052E+03</totfact>
</mgrwt>
</event>
<event>
 4    1  0.1837449E-005  0.5979717E+03  0.7818608E-02  0.9909623E-01
         -2   -1    0    0    0  501 -0.00000000000E+00  0.00000000000E+00  0.50619239603E+02  0.50619239668E+02  0.25500000000E-02 0. -1.
          2   -1    0    0  501    0  0.00000000000E+00 -0.00000000000E+00 -0.17659796892E+04  0.17659796892E+04  0.25500000000E-02 0.  1.
    5000001    1    1    2    0    0 -0.11963943387E+03  0.31984156768E+02 -0.15151033367E+04  0.15290845958E+04  0.16500000000E+03 0.  0.
   -5000001    1    1    2    0    0  0.11963943387E+03 -0.31984156768E+02 -0.20025711290E+03  0.28751433301E+03  0.16500000000E+03 0.  0.
<mgrwt>
<rscale>  0 0.59797174E+03</rscale>
<asrwt>0</asrwt>
<pdfrwt beam="1">  1        2 0.25228277E+00 0.59797174E+03</pdfrwt>
<pdfrwt beam="2">  1       -2 0.72313211E-02 0.59797174E+03</pdfrwt>
<totfact> 0.12511220E+03</totfact>
</mgrwt>
</event>
<event>
 4    1  0.1837449E-005  0.4635683E+03  0.7818608E-02  0.1023751E+00
         -2   -1    0    0    0  501 -0.00000000000E+00  0.00000000000E+00  0.13102413875E+02  0.13102414123E+02  0.25500000000E-02 0. -1.
          2   -1    0    0  501    0  0.00000000000E+00 -0.00000000000E+00 -0.41003056089E+04  0.41003056089E+04  0.25500000000E-02 0.  1.
    5000001    1    1    2    0    0  0.39292694739E+02  0.12494915277E+03 -0.29012792764E+04  0.29089177792E+04  0.16500000000E+03 0.  0.
   -5000001    1    1    2    0    0 -0.39292694739E+02 -0.12494915277E+03 -0.11859239187E+04  0.12044902439E+04  0.16500000000E+03 0.  0.
<mgrwt>
<rscale>  0 0.46356834E+03</rscale>
<asrwt>0</asrwt>
<pdfrwt beam="1">  1        2 0.58575712E+00 0.46356834E+03</pdfrwt>
<pdfrwt beam="2">  1       -2 0.18717760E-02 0.46356834E+03</pdfrwt>
<totfact> 0.50891292E+02</totfact>
</mgrwt>
</event>
<event>
 4    1  0.1837449E-005  0.4304789E+03  0.7818608E-02  0.1033709E+00
         -2   -1    0    0    0  501 -0.00000000000E+00  0.00000000000E+00  0.15458551693E+02  0.15458551903E+02  0.25500000000E-02 0. -1.
          2   -1    0    0  501    0  0.00000000000E+00 -0.00000000000E+00 -0.29969183778E+04  0.29969183779E+04  0.25500000000E-02 0.  1.
    5000001    1    1    2    0    0 -0.66774892566E+02 -0.12082451296E+03 -0.14434919538E+04  0.14594353257E+04  0.16500000000E+03 0.  0.
   -5000001    1    1    2    0    0  0.66774892566E+02  0.12082451296E+03 -0.15379678724E+04  0.15529416041E+04  0.16500000000E+03 0.  0.
<mgrwt>
<rscale>  0 0.43047889E+03</rscale>
<asrwt>0</asrwt>
<pdfrwt beam="1">  1        2 0.42813083E+00 0.43047889E+03</pdfrwt>
<pdfrwt beam="2">  1       -2 0.22083665E-02 0.43047889E+03</pdfrwt>
<totfact> 0.18306165E+03</totfact>
</mgrwt>
</event>
<event>
 4    1  0.1837449E-005  0.7798123E+03  0.7818608E-02  0.9589707E-01
          2   -1    0    0  501    0  0.00000000000E+00  0.00000000000E+00  0.10252702408E+04  0.10252702408E+04  0.25500000000E-02 0.  1.
         -2   -1    0    0    0  501 -0.00000000000E+00 -0.00000000000E+00 -0.14827972803E+03  0.14827972805E+03  0.25500000000E-02 0. -1.
    5000001    1    1    2    0    0 -0.13759272652E+03 -0.30550680577E+03  0.60698929207E+03  0.71269009216E+03  0.16500000000E+03 0.  0.
   -5000001    1    1    2    0    0  0.13759272652E+03  0.30550680577E+03  0.27000122070E+03  0.46085987670E+03  0.16500000000E+03 0.  0.
<mgrwt>
<rscale>  0 0.77981227E+03</rscale>
<asrwt>0</asrwt>
<pdfrwt beam="1">  1        2 0.14646718E+00 0.77981227E+03</pdfrwt>
<pdfrwt beam="2">  1       -2 0.21182819E-01 0.77981227E+03</pdfrwt>
<totfact> 0.52413615E+02</totfact>
</mgrwt>
</event>
<event>
 4    1  0.1837449E-005  0.4188857E+03  0.7818608E-02  0.1037430E+00
         -2   -1    0    0    0  501 -0.00000000000E+00  0.00000000000E+00  0.91848117967E+02  0.91848118002E+02  0.25500000000E-02 0. -1.
          2   -1    0    0  501    0  0.00000000000E+00 -0.00000000000E+00 -0.47759621467E+03  0.47759621468E+03  0.25500000000E-02 0.  1.
    5000001    1    1    2    0    0  0.12577994784E+03  0.23185133295E+02 -0.16999817739E+03  0.26922579000E+03  0.16500000000E+03 0.  0.
   -5000001    1    1    2    0    0 -0.12577994784E+03 -0.23185133295E+02 -0.21574991932E+03  0.30021854268E+03  0.16500000000E+03 0.  0.
<mgrwt>
<rscale>  0 0.41888573E+03</rscale>
<asrwt>0</asrwt>
<pdfrwt beam="1">  1        2 0.68228029E-01 0.41888573E+03</pdfrwt>
<pdfrwt beam="2">  1       -2 0.13121160E-01 0.41888573E+03</pdfrwt>
<totfact> 0.30650576E+03</totfact>
</mgrwt>
</event>
<event>
 4    1  0.1837449E-005  0.3893974E+03  0.7818608E-02  0.1047514E+00
         -2   -1    0    0    0  501 -0.00000000000E+00  0.00000000000E+00  0.79068873955E+02  0.79068873996E+02  0.25500000000E-02 0. -1.
          2   -1    0    0  501    0  0.00000000000E+00 -0.00000000000E+00 -0.47942487397E+03  0.47942487398E+03  0.25500000000E-02 0.  1.
    5000001    1    1    2    0    0  0.25278330575E+02  0.97343999039E+02 -0.16600376640E+03  0.25474908950E+03  0.16500000000E+03 0.  0.
   -5000001    1    1    2    0    0 -0.25278330575E+02 -0.97343999039E+02 -0.23435223362E+03  0.30374465847E+03  0.16500000000E+03 0.  0.
<mgrwt>
<rscale>  0 0.38939741E+03</rscale>
<asrwt>0</asrwt>
<pdfrwt beam="1">  1        2 0.68489266E-01 0.38939741E+03</pdfrwt>
<pdfrwt beam="2">  1       -2 0.11295554E-01 0.38939741E+03</pdfrwt>
<totfact> 0.38930820E+03</totfact>
</mgrwt>
</event>
<event>
 4    1  0.1837449E-005  0.6237437E+03  0.7818608E-02  0.9857334E-01
          2   -1    0    0  501    0  0.00000000000E+00  0.00000000000E+00  0.15907641467E+04  0.15907641467E+04  0.25500000000E-02 0.  1.
         -2   -1    0    0    0  501 -0.00000000000E+00 -0.00000000000E+00 -0.61142965921E+02  0.61142965974E+02  0.25500000000E-02 0. -1.
    5000001    1    1    2    0    0  0.95671044693E+02  0.20129966367E+03  0.11427452526E+04  0.11759108026E+04  0.16500000000E+03 0.  0.
   -5000001    1    1    2    0    0 -0.95671044693E+02 -0.20129966367E+03  0.38687592821E+03  0.47599631008E+03  0.16500000000E+03 0.  0.
<mgrwt>
<rscale>  0 0.62374366E+03</rscale>
<asrwt>0</asrwt>
<pdfrwt beam="1">  1        2 0.22725201E+00 0.62374366E+03</pdfrwt>
<pdfrwt beam="2">  1       -2 0.87347100E-02 0.62374366E+03</pdfrwt>
<totfact> 0.11361994E+03</totfact>
</mgrwt>
</event>
<event>
 4    1  0.1837449E-005  0.5089789E+03  0.7818608E-02  0.1011462E+00
         -2   -1    0    0    0  501 -0.00000000000E+00  0.00000000000E+00  0.47714849621E+02  0.47714849690E+02  0.25500000000E-02 0. -1.
          2   -1    0    0  501    0  0.00000000000E+00 -0.00000000000E+00 -0.13573317948E+04  0.13573317948E+04  0.25500000000E-02 0.  1.
    5000001    1    1    2    0    0  0.16997467637E+03  0.65977000235E+02 -0.83573373042E+03  0.87116027419E+03  0.16500000000E+03 0.  0.
   -5000001    1    1    2    0    0 -0.16997467637E+03 -0.65977000235E+02 -0.47388321480E+03  0.53388637034E+03  0.16500000000E+03 0.  0.
<mgrwt>
<rscale>  0 0.50897891E+03</rscale>
<asrwt>0</asrwt>
<pdfrwt beam="1">  1        2 0.19390452E+00 0.50897891E+03</pdfrwt>
<pdfrwt beam="2">  1       -2 0.68164079E-02 0.50897891E+03</pdfrwt>
<totfact> 0.22390142E+03</totfact>
</mgrwt>
</event>
<event>
 4    1  0.1837449E-005  0.3961096E+03  0.7818608E-02  0.1045135E+00
         -2   -1    0    0    0  501 -0.00000000000E+00  0.00000000000E+00  0.17290358899E+02  0.17290359087E+02  0.25500000000E-02 0. -1.
          2   -1    0    0  501    0  0.00000000000E+00 -0.00000000000E+00 -0.22686464500E+04  0.22686464500E+04  0.25500000000E-02 0.  1.
    5000001    1    1    2    0    0 -0.10949067818E+03  0.28849375064E+01 -0.11374769338E+04  0.11545888040E+04  0.16500000000E+03 0.  0.
   -5000001    1    1    2    0    0  0.10949067818E+03 -0.28849375064E+01 -0.11138791573E+04  0.11313480051E+04  0.16500000000E+03 0.  0.
<mgrwt>
<rscale>  0 0.39610964E+03</rscale>
<asrwt>0</asrwt>
<pdfrwt beam="1">  1        2 0.32409216E+00 0.39610964E+03</pdfrwt>
<pdfrwt beam="2">  1       -2 0.24700527E-02 0.39610964E+03</pdfrwt>
<totfact> 0.36781641E+03</totfact>
</mgrwt>
</event>
<event>
 4    1  0.1837449E-005  0.8384796E+03  0.7818608E-02  0.9505931E-01
          2   -1    0    0  501    0  0.00000000000E+00  0.00000000000E+00  0.12091738524E+04  0.12091738524E+04  0.25500000000E-02 0.  1.
         -2   -1    0    0    0  501 -0.00000000000E+00 -0.00000000000E+00 -0.14535708895E+03  0.14535708897E+03  0.25500000000E-02 0. -1.
    5000001    1    1    2    0    0 -0.18285353434E+03  0.31906139962E+03  0.34559454006E+03  0.53093895870E+03  0.16500000000E+03 0.  0.
   -5000001    1    1    2    0    0  0.18285353434E+03 -0.31906139962E+03  0.71822222341E+03  0.82359198269E+03  0.16500000000E+03 0.  0.
<mgrwt>
<rscale>  0 0.83847956E+03</rscale>
<asrwt>0</asrwt>
<pdfrwt beam="1">  1        2 0.17273912E+00 0.83847956E+03</pdfrwt>
<pdfrwt beam="2">  1       -2 0.20765298E-01 0.83847956E+03</pdfrwt>
<totfact> 0.42278553E+02</totfact>
</mgrwt>
</event>
<event>
 4    1  0.1837449E-005  0.3888931E+03  0.7818608E-02  0.1047695E+00
         -2   -1    0    0    0  501 -0.00000000000E+00  0.00000000000E+00  0.24726318690E+02  0.24726318821E+02  0.25500000000E-02 0. -1.
          2   -1    0    0  501    0  0.00000000000E+00 -0.00000000000E+00 -0.15291179241E+04  0.15291179241E+04  0.25500000000E-02 0.  1.
    5000001    1    1    2    0    0  0.55530269249E+02 -0.57321300507E+02 -0.49278863282E+03  0.52577084261E+03  0.16500000000E+03 0.  0.
   -5000001    1    1    2    0    0 -0.55530269249E+02  0.57321300507E+02 -0.10116029726E+04  0.10280734003E+04  0.16500000000E+03 0.  0.
<mgrwt>
<rscale>  0 0.38889308E+03</rscale>
<asrwt>0</asrwt>
<pdfrwt beam="1">  1        2 0.21844536E+00 0.38889308E+03</pdfrwt>
<pdfrwt beam="2">  1       -2 0.35323322E-02 0.38889308E+03</pdfrwt>
<totfact> 0.50164028E+03</totfact>
</mgrwt>
</event>
<event>
 4    1  0.1837449E-005  0.4178752E+03  0.7818608E-02  0.1037760E+00
         -2   -1    0    0    0  501 -0.00000000000E+00  0.00000000000E+00  0.14358749168E+04  0.14358749168E+04  0.25500000000E-02 0. -1.
          2   -1    0    0  501    0  0.00000000000E+00 -0.00000000000E+00 -0.30403007082E+02  0.30403007189E+02  0.25500000000E-02 0.  1.
    5000001    1    1    2    0    0 -0.16017481836E+02  0.35823287726E+02  0.11309074675E+04  0.11435543572E+04  0.16500000000E+03 0.  0.
   -5000001    1    1    2    0    0  0.16017481836E+02 -0.35823287726E+02  0.27456444213E+03  0.32272356677E+03  0.16500000000E+03 0.  0.
<mgrwt>
<rscale>  0 0.41787517E+03</rscale>
<asrwt>0</asrwt>
<pdfrwt beam="1">  1        2 0.43432863E-02 0.41787517E+03</pdfrwt>
<pdfrwt beam="2">  1       -2 0.20512501E+00 0.41787517E+03</pdfrwt>
<totfact> 0.25381425E+02</totfact>
</mgrwt>
</event>
<event>
 4    1  0.1837449E-005  0.5142066E+03  0.7818608E-02  0.1010136E+00
         -2   -1    0    0    0  501 -0.00000000000E+00  0.00000000000E+00  0.48363159815E+03  0.48363159815E+03  0.25500000000E-02 0. -1.
          2   -1    0    0  501    0  0.00000000000E+00 -0.00000000000E+00 -0.13667865235E+03  0.13667865237E+03  0.25500000000E-02 0.  1.
    5000001    1    1    2    0    0 -0.11699852778E+03 -0.14425656184E+03  0.93652349722E+02  0.26550776588E+03  0.16500000000E+03 0.  0.
   -5000001    1    1    2    0    0  0.11699852778E+03  0.14425656184E+03  0.25330059608E+03  0.35480248464E+03  0.16500000000E+03 0.  0.
<mgrwt>
<rscale>  0 0.51420663E+03</rscale>
<asrwt>0</asrwt>
<pdfrwt beam="1">  1        2 0.19525522E-01 0.51420663E+03</pdfrwt>
<pdfrwt beam="2">  1       -2 0.69090229E-01 0.51420663E+03</pdfrwt>
<totfact> 0.56344594E+02</totfact>
</mgrwt>
</event>
<event>
 4    1  0.1837449E-005  0.7411137E+03  0.7818608E-02  0.9649396E-01
         -2   -1    0    0    0  501 -0.00000000000E+00  0.00000000000E+00  0.34666636306E+02  0.34666636399E+02  0.25500000000E-02 0. -1.
          2   -1    0    0  501    0  0.00000000000E+00 -0.00000000000E+00 -0.39609371233E+04  0.39609371233E+04  0.25500000000E-02 0.  1.
    5000001    1    1    2    0    0 -0.17132589639E+03  0.26148560153E+03 -0.25625236066E+04  0.25867894226E+04  0.16500000000E+03 0.  0.
   -5000001    1    1    2    0    0  0.17132589639E+03 -0.26148560153E+03 -0.13637468804E+04  0.14088143371E+04  0.16500000000E+03 0.  0.
<mgrwt>
<rscale>  0 0.74111367E+03</rscale>
<asrwt>0</asrwt>
<pdfrwt beam="1">  1        2 0.56584787E+00 0.74111367E+03</pdfrwt>
<pdfrwt beam="2">  1       -2 0.49523791E-02 0.74111367E+03</pdfrwt>
<totfact> 0.13793666E+02</totfact>
</mgrwt>
</event>
<event>
 4    1  0.1837449E-005  0.3423318E+03  0.7818608E-02  0.1065807E+00
         -2   -1    0    0    0  501 -0.00000000000E+00  0.00000000000E+00  0.14672207131E+02  0.14672207352E+02  0.25500000000E-02 0. -1.
          2   -1    0    0  501    0  0.00000000000E+00 -0.00000000000E+00 -0.19968207753E+04  0.19968207753E+04  0.25500000000E-02 0.  1.
    5000001    1    1    2    0    0  0.38172408098E+02  0.21643344571E+02 -0.10623639930E+04  0.10759961992E+04  0.16500000000E+03 0.  0.
   -5000001    1    1    2    0    0 -0.38172408098E+02 -0.21643344571E+02 -0.91978457522E+03  0.93549678349E+03  0.16500000000E+03 0.  0.
<mgrwt>
<rscale>  0 0.34233182E+03</rscale>
<asrwt>0</asrwt>
<pdfrwt beam="1">  1        2 0.28525994E+00 0.34233182E+03</pdfrwt>
<pdfrwt beam="2">  1       -2 0.20960309E-02 0.34233182E+03</pdfrwt>
<totfact> 0.64041472E+03</totfact>
</mgrwt>
</event>
<event>
 4    1  0.1837449E-005  0.6468647E+03  0.7818608E-02  0.9812680E-01
          2   -1    0    0  501    0  0.00000000000E+00  0.00000000000E+00  0.71501292493E+03  0.71501292494E+03  0.25500000000E-02 0.  1.
         -2   -1    0    0    0  501 -0.00000000000E+00 -0.00000000000E+00 -0.14630292934E+03  0.14630292937E+03  0.25500000000E-02 0. -1.
    5000001    1    1    2    0    0  0.26697757032E+03  0.73420004206E+02  0.24872670608E+03  0.40713326367E+03  0.16500000000E+03 0.  0.
   -5000001    1    1    2    0    0 -0.26697757032E+03 -0.73420004206E+02  0.31998328951E+03  0.45418259063E+03  0.16500000000E+03 0.  0.
<mgrwt>
<rscale>  0 0.64686470E+03</rscale>
<asrwt>0</asrwt>
<pdfrwt beam="1">  1        2 0.10214471E+00 0.64686470E+03</pdfrwt>
<pdfrwt beam="2">  1       -2 0.20900418E-01 0.64686470E+03</pdfrwt>
<totfact> 0.86816193E+02</totfact>
</mgrwt>
</event>
<event>
 4    1  0.1837449E-005  0.6231777E+03  0.7818608E-02  0.9858453E-01
          2   -1    0    0  501    0  0.00000000000E+00  0.00000000000E+00  0.29532518225E+04  0.29532518225E+04  0.25500000000E-02 0.  1.
         -2   -1    0    0    0  501 -0.00000000000E+00 -0.00000000000E+00 -0.32874821263E+02  0.32874821362E+02  0.25500000000E-02 0. -1.
    5000001    1    1    2    0    0 -0.44125135559E+02 -0.19854908559E+03  0.22690458229E+04  0.22841109241E+04  0.16500000000E+03 0.  0.
   -5000001    1    1    2    0    0  0.44125135559E+02  0.19854908559E+03  0.65133117831E+03  0.70201571978E+03  0.16500000000E+03 0.  0.
<mgrwt>
<rscale>  0 0.62317775E+03</rscale>
<asrwt>0</asrwt>
<pdfrwt beam="1">  1        2 0.42189322E+00 0.62317775E+03</pdfrwt>
<pdfrwt beam="2">  1       -2 0.46964019E-02 0.62317775E+03</pdfrwt>
<totfact> 0.60338184E+02</totfact>
</mgrwt>
</event>
<event>
 4    1  0.1837449E-005  0.6202753E+03  0.7818608E-02  0.9864212E-01
         -2   -1    0    0    0  501 -0.00000000000E+00  0.00000000000E+00  0.92386615665E+02  0.92386615700E+02  0.25500000000E-02 0. -1.
          2   -1    0    0  501    0  0.00000000000E+00 -0.00000000000E+00 -0.10411180419E+04  0.10411180419E+04  0.25500000000E-02 0.  1.
    5000001    1    1    2    0    0  0.85415575674E+02  0.85619105988E+02 -0.48400317469E+02  0.21022379173E+03  0.16500000000E+03 0.  0.
   -5000001    1    1    2    0    0 -0.85415575674E+02 -0.85619105988E+02 -0.90033110881E+03  0.92328086592E+03  0.16500000000E+03 0.  0.
<mgrwt>
<rscale>  0 0.62027533E+03</rscale>
<asrwt>0</asrwt>
<pdfrwt beam="1">  1        2 0.14873114E+00 0.62027533E+03</pdfrwt>
<pdfrwt beam="2">  1       -2 0.13198089E-01 0.62027533E+03</pdfrwt>
<totfact> 0.11575209E+03</totfact>
</mgrwt>
</event>
<event>
 4    1  0.1837449E-005  0.3694329E+03  0.7818608E-02  0.1054910E+00
         -2   -1    0    0    0  501 -0.00000000000E+00  0.00000000000E+00  0.52212455838E+02  0.52212455900E+02  0.25500000000E-02 0. -1.
          2   -1    0    0  501    0  0.00000000000E+00 -0.00000000000E+00 -0.65348694127E+03  0.65348694128E+03  0.25500000000E-02 0.  1.
    5000001    1    1    2    0    0  0.57071918685E+02  0.58375586546E+02 -0.32962265028E+03  0.37754602975E+03  0.16500000000E+03 0.  0.
   -5000001    1    1    2    0    0 -0.57071918685E+02 -0.58375586546E+02 -0.27165183515E+03  0.32815336742E+03  0.16500000000E+03 0.  0.
<mgrwt>
<rscale>  0 0.36943285E+03</rscale>
<asrwt>0</asrwt>
<pdfrwt beam="1">  1        2 0.93355272E-01 0.36943285E+03</pdfrwt>
<pdfrwt beam="2">  1       -2 0.74589227E-02 0.36943285E+03</pdfrwt>
<totfact> 0.52857569E+03</totfact>
</mgrwt>
</event>
<event>
 4    1  0.1837449E-005  0.4216944E+03  0.7818608E-02  0.1036516E+00
          2   -1    0    0  501    0  0.00000000000E+00  0.00000000000E+00  0.14070009046E+04  0.14070009046E+04  0.25500000000E-02 0.  1.
         -2   -1    0    0    0  501 -0.00000000000E+00 -0.00000000000E+00 -0.31596673278E+02  0.31596673381E+02  0.25500000000E-02 0. -1.
    5000001    1    1    2    0    0  0.10945634997E+03  0.24165672541E+02  0.92075505078E+03  0.94211439635E+03  0.16500000000E+03 0.  0.
   -5000001    1    1    2    0    0 -0.10945634997E+03 -0.24165672541E+02  0.45464918057E+03  0.49648318166E+03  0.16500000000E+03 0.  0.
<mgrwt>
<rscale>  0 0.42169443E+03</rscale>
<asrwt>0</asrwt>
<pdfrwt beam="1">  1        2 0.20100004E+00 0.42169443E+03</pdfrwt>
<pdfrwt beam="2">  1       -2 0.45138126E-02 0.42169443E+03</pdfrwt>
<totfact> 0.39958032E+03</totfact>
</mgrwt>
</event>
<event>
 4    1  0.1837449E-005  0.5534984E+03  0.7818608E-02  0.1000687E+00
          2   -1    0    0  501    0  0.00000000000E+00  0.00000000000E+00  0.78996087033E+03  0.78996087033E+03  0.25500000000E-02 0.  1.
         -2   -1    0    0    0  501 -0.00000000000E+00 -0.00000000000E+00 -0.96954324807E+02  0.96954324841E+02  0.25500000000E-02 0. -1.
    5000001    1    1    2    0    0  0.20846657179E+03 -0.68810002881E+02  0.40135983078E+03  0.48632071909E+03  0.16500000000E+03 0.  0.
   -5000001    1    1    2    0    0 -0.20846657179E+03  0.68810002881E+02  0.29164671474E+03  0.40059447608E+03  0.16500000000E+03 0.  0.
<mgrwt>
<rscale>  0 0.55349841E+03</rscale>
<asrwt>0</asrwt>
<pdfrwt beam="1">  1        2 0.11285155E+00 0.55349841E+03</pdfrwt>
<pdfrwt beam="2">  1       -2 0.13850618E-01 0.55349841E+03</pdfrwt>
<totfact> 0.15498107E+03</totfact>
</mgrwt>
</event>
<event>
 4    1  0.1837449E-005  0.4400511E+03  0.7818608E-02  0.1030731E+00
          2   -1    0    0  501    0  0.00000000000E+00  0.00000000000E+00  0.12284039416E+04  0.12284039416E+04  0.25500000000E-02 0.  1.
         -2   -1    0    0    0  501 -0.00000000000E+00 -0.00000000000E+00 -0.39409875433E+02  0.39409875515E+02  0.25500000000E-02 0. -1.
    5000001    1    1    2    0    0  0.29291551830E+02  0.13936996496E+03  0.50786070662E+03  0.55265674652E+03  0.16500000000E+03 0.  0.
   -5000001    1    1    2    0    0 -0.29291551830E+02 -0.13936996496E+03  0.68113335956E+03  0.71515707061E+03  0.16500000000E+03 0.  0.
<mgrwt>
<rscale>  0 0.44005112E+03</rscale>
<asrwt>0</asrwt>
<pdfrwt beam="1">  1        2 0.17548628E+00 0.44005112E+03</pdfrwt>
<pdfrwt beam="2">  1       -2 0.56299821E-02 0.44005112E+03</pdfrwt>
<totfact> 0.35435687E+03</totfact>
</mgrwt>
</event>
<event>
 4    1  0.1837449E-005  0.5558624E+03  0.7818608E-02  0.1000146E+00
         -2   -1    0    0    0  501 -0.00000000000E+00  0.00000000000E+00  0.19932130409E+03  0.19932130410E+03  0.25500000000E-02 0. -1.
          2   -1    0    0  501    0  0.00000000000E+00 -0.00000000000E+00 -0.38754390459E+03  0.38754390459E+03  0.25500000000E-02 0.  1.
    5000001    1    1    2    0    0 -0.19363719731E+03 -0.50898036778E+02  0.11121281802E+02  0.25968183849E+03  0.16500000000E+03 0.  0.
   -5000001    1    1    2    0    0  0.19363719731E+03  0.50898036778E+02 -0.19934388230E+03  0.32718337021E+03  0.16500000000E+03 0.  0.
<mgrwt>
<rscale>  0 0.55586242E+03</rscale>
<asrwt>0</asrwt>
<pdfrwt beam="1">  1        2 0.55363414E-01 0.55586242E+03</pdfrwt>
<pdfrwt beam="2">  1       -2 0.28474472E-01 0.55586242E+03</pdfrwt>
<totfact> 0.10137719E+03</totfact>
</mgrwt>
</event>
<event>
 4    1  0.1837449E-005  0.3872850E+03  0.7818608E-02  0.1048274E+00
          2   -1    0    0  501    0  0.00000000000E+00  0.00000000000E+00  0.15632234771E+04  0.15632234771E+04  0.25500000000E-02 0.  1.
         -2   -1    0    0    0  501 -0.00000000000E+00 -0.00000000000E+00 -0.23987242803E+02  0.23987242938E+02  0.25500000000E-02 0. -1.
    5000001    1    1    2    0    0  0.93126742656E+02 -0.37171694696E+02  0.83014215108E+03  0.85230001530E+03  0.16500000000E+03 0.  0.
   -5000001    1    1    2    0    0 -0.93126742656E+02  0.37171694696E+02  0.70909408319E+03  0.73491070471E+03  0.16500000000E+03 0.  0.
<mgrwt>
<rscale>  0 0.38728502E+03</rscale>
<asrwt>0</asrwt>
<pdfrwt beam="1">  1        2 0.22331775E+00 0.38728502E+03</pdfrwt>
<pdfrwt beam="2">  1       -2 0.34267473E-02 0.38728502E+03</pdfrwt>
<totfact> 0.50459470E+03</totfact>
</mgrwt>
</event>
<event>
 4    1  0.1837449E-005  0.3651442E+03  0.7818608E-02  0.1056565E+00
         -2   -1    0    0    0  501 -0.00000000000E+00  0.00000000000E+00  0.12864763667E+04  0.12864763667E+04  0.25500000000E-02 0. -1.
          2   -1    0    0  501    0  0.00000000000E+00 -0.00000000000E+00 -0.25909972278E+02  0.25909972403E+02  0.25500000000E-02 0.  1.
    5000001    1    1    2    0    0  0.46024811201E+02  0.62904038040E+02  0.60983567373E+03  0.63655302230E+03  0.16500000000E+03 0.  0.
   -5000001    1    1    2    0    0 -0.46024811201E+02 -0.62904038040E+02  0.65073072066E+03  0.67583331678E+03  0.16500000000E+03 0.  0.
<mgrwt>
<rscale>  0 0.36514417E+03</rscale>
<asrwt>0</asrwt>
<pdfrwt beam="1">  1        2 0.37014231E-02 0.36514417E+03</pdfrwt>
<pdfrwt beam="2">  1       -2 0.18378241E+00 0.36514417E+03</pdfrwt>
<totfact> 0.43379725E+02</totfact>
</mgrwt>
</event>
<event>
 4    1  0.1837449E-005  0.1025657E+04  0.7818608E-02  0.9280844E-01
          2   -1    0    0  501    0  0.00000000000E+00  0.00000000000E+00  0.30900614748E+03  0.30900614749E+03  0.25500000000E-02 0.  1.
         -2   -1    0    0    0  501 -0.00000000000E+00 -0.00000000000E+00 -0.85109361683E+03  0.85109361683E+03  0.25500000000E-02 0. -1.
    5000001    1    1    2    0    0 -0.18726513181E+03 -0.36114038539E+03  0.28804453858E+02  0.43993784119E+03  0.16500000000E+03 0.  0.
   -5000001    1    1    2    0    0  0.18726513181E+03  0.36114038539E+03 -0.57089192321E+03  0.72016192314E+03  0.16500000000E+03 0.  0.
<mgrwt>
<rscale>  0 0.10256572E+04</rscale>
<asrwt>0</asrwt>
<pdfrwt beam="1">  1        2 0.44143736E-01 0.10256572E+04</pdfrwt>
<pdfrwt beam="2">  1       -2 0.12158480E+00 0.10256572E+04</pdfrwt>
<totfact> 0.59135339E+01</totfact>
</mgrwt>
</event>
<event>
 4    1  0.1837449E-005  0.4070675E+03  0.7818608E-02  0.1041360E+00
         -2   -1    0    0    0  501 -0.00000000000E+00  0.00000000000E+00  0.21988048752E+02  0.21988048899E+02  0.25500000000E-02 0. -1.
          2   -1    0    0  501    0  0.00000000000E+00 -0.00000000000E+00 -0.18840227273E+04  0.18840227273E+04  0.25500000000E-02 0.  1.
    5000001    1    1    2    0    0  0.11353013352E+03  0.35952938160E+02 -0.95157616312E+03  0.97308987211E+03  0.16500000000E+03 0.  0.
   -5000001    1    1    2    0    0 -0.11353013352E+03 -0.35952938160E+02 -0.91045851547E+03  0.93292090414E+03  0.16500000000E+03 0.  0.
<mgrwt>
<rscale>  0 0.40706748E+03</rscale>
<asrwt>0</asrwt>
<pdfrwt beam="1">  1        2 0.26914600E+00 0.40706748E+03</pdfrwt>
<pdfrwt beam="2">  1       -2 0.31411510E-02 0.40706748E+03</pdfrwt>
<totfact> 0.39758297E+03</totfact>
</mgrwt>
</event>
<event>
 4    1  0.1837449E-005  0.3835760E+03  0.7818608E-02  0.1049620E+00
          2   -1    0    0  501    0  0.00000000000E+00  0.00000000000E+00  0.78182903301E+03  0.78182903301E+03  0.25500000000E-02 0.  1.
         -2   -1    0    0    0  501 -0.00000000000E+00 -0.00000000000E+00 -0.47046907500E+02  0.47046907569E+02  0.25500000000E-02 0. -1.
    5000001    1    1    2    0    0  0.76028054073E+02  0.53236383298E+02  0.30102378965E+03  0.35560469548E+03  0.16500000000E+03 0.  0.
   -5000001    1    1    2    0    0 -0.76028054073E+02 -0.53236383298E+02  0.43375833586E+03  0.47327124510E+03  0.16500000000E+03 0.  0.
<mgrwt>
<rscale>  0 0.38357601E+03</rscale>
<asrwt>0</asrwt>
<pdfrwt beam="1">  1        2 0.11168985E+00 0.38357601E+03</pdfrwt>
<pdfrwt beam="2">  1       -2 0.67209874E-02 0.38357601E+03</pdfrwt>
<totfact> 0.50104792E+03</totfact>
</mgrwt>
</event>
<event>
 4    1  0.1837449E-005  0.5033423E+03  0.7818608E-02  0.1012910E+00
         -2   -1    0    0    0  501 -0.00000000000E+00  0.00000000000E+00  0.14373914070E+03  0.14373914072E+03  0.25500000000E-02 0. -1.
          2   -1    0    0  501    0  0.00000000000E+00 -0.00000000000E+00 -0.44064804947E+03  0.44064804947E+03  0.25500000000E-02 0.  1.
    5000001    1    1    2    0    0 -0.16975565007E+03  0.85307453421E+02 -0.15351914165E+03  0.29476680477E+03  0.16500000000E+03 0.  0.
   -5000001    1    1    2    0    0  0.16975565007E+03 -0.85307453421E+02 -0.14338976711E+03  0.28962038543E+03  0.16500000000E+03 0.  0.
<mgrwt>
<rscale>  0 0.50334232E+03</rscale>
<asrwt>0</asrwt>
<pdfrwt beam="1">  1        2 0.62949721E-01 0.50334232E+03</pdfrwt>
<pdfrwt beam="2">  1       -2 0.20534163E-01 0.50334232E+03</pdfrwt>
<totfact> 0.15747479E+03</totfact>
</mgrwt>
</event>
<event>
 4    1  0.1837449E-005  0.4754421E+03  0.7818608E-02  0.1020395E+00
          2   -1    0    0  501    0  0.00000000000E+00  0.00000000000E+00  0.78177066024E+03  0.78177066024E+03  0.25500000000E-02 0.  1.
         -2   -1    0    0    0  501 -0.00000000000E+00 -0.00000000000E+00 -0.72286293903E+02  0.72286293948E+02  0.25500000000E-02 0. -1.
    5000001    1    1    2    0    0 -0.16349766628E+03 -0.39473893664E+02  0.29803268016E+03  0.37991861445E+03  0.16500000000E+03 0.  0.
   -5000001    1    1    2    0    0  0.16349766628E+03  0.39473893664E+02  0.41145168617E+03  0.47413833974E+03  0.16500000000E+03 0.  0.
<mgrwt>
<rscale>  0 0.47544213E+03</rscale>
<asrwt>0</asrwt>
<pdfrwt beam="1">  1        2 0.11168153E+00 0.47544213E+03</pdfrwt>
<pdfrwt beam="2">  1       -2 0.10326613E-01 0.47544213E+03</pdfrwt>
<totfact> 0.25418897E+03</totfact>
</mgrwt>
</event>
<event>
 4    1  0.1837449E-005  0.4547989E+03  0.7818608E-02  0.1026301E+00
         -2   -1    0    0    0  501 -0.00000000000E+00  0.00000000000E+00  0.17973237802E+03  0.17973237804E+03  0.25500000000E-02 0. -1.
          2   -1    0    0  501    0  0.00000000000E+00 -0.00000000000E+00 -0.28770834772E+03  0.28770834773E+03  0.25500000000E-02 0.  1.
    5000001    1    1    2    0    0  0.11083872868E+03 -0.77275860751E+02  0.27128042337E+02  0.21498305308E+03  0.16500000000E+03 0.  0.
   -5000001    1    1    2    0    0 -0.11083872868E+03  0.77275860751E+02 -0.13510401204E+03  0.25245767269E+03  0.16500000000E+03 0.  0.
<mgrwt>
<rscale>  0 0.45479888E+03</rscale>
<asrwt>0</asrwt>
<pdfrwt beam="1">  1        2 0.41101192E-01 0.45479888E+03</pdfrwt>
<pdfrwt beam="2">  1       -2 0.25676054E-01 0.45479888E+03</pdfrwt>
<totfact> 0.16953709E+03</totfact>
</mgrwt>
</event>
<event>
 4    1  0.1837449E-005  0.8404444E+03  0.7818608E-02  0.9503253E-01
         -2   -1    0    0    0  501 -0.00000000000E+00  0.00000000000E+00  0.93569683253E+02  0.93569683288E+02  0.25500000000E-02 0. -1.
          2   -1    0    0  501    0  0.00000000000E+00 -0.00000000000E+00 -0.18872214051E+04  0.18872214051E+04  0.25500000000E-02 0.  1.
    5000001    1    1    2    0    0  0.31503292731E+03  0.22384247114E+03 -0.88918448361E+03  0.98347610193E+03  0.16500000000E+03 0.  0.
   -5000001    1    1    2    0    0 -0.31503292731E+03 -0.22384247114E+03 -0.90446723828E+03  0.99731498650E+03  0.16500000000E+03 0.  0.
<mgrwt>
<rscale>  0 0.84044443E+03</rscale>
<asrwt>0</asrwt>
<pdfrwt beam="1">  1        2 0.26960304E+00 0.84044443E+03</pdfrwt>
<pdfrwt beam="2">  1       -2 0.13367099E-01 0.84044443E+03</pdfrwt>
<totfact> 0.39466773E+02</totfact>
</mgrwt>
</event>
<event>
 4    1  0.1837449E-005  0.5004127E+03  0.7818608E-02  0.1013671E+00
         -2   -1    0    0    0  501 -0.00000000000E+00  0.00000000000E+00  0.23708671862E+02  0.23708671999E+02  0.25500000000E-02 0. -1.
          2   -1    0    0  501    0  0.00000000000E+00 -0.00000000000E+00 -0.26405197206E+04  0.26405197206E+04  0.25500000000E-02 0.  1.
    5000001    1    1    2    0    0  0.99150510325E+02 -0.15308248709E+03 -0.15531470742E+04  0.15724998905E+04  0.16500000000E+03 0.  0.
   -5000001    1    1    2    0    0 -0.99150510325E+02  0.15308248709E+03 -0.10636639745E+04  0.10917285021E+04  0.16500000000E+03 0.  0.
<mgrwt>
<rscale>  0 0.50041269E+03</rscale>
<asrwt>0</asrwt>
<pdfrwt beam="1">  1        2 0.37721691E+00 0.50041269E+03</pdfrwt>
<pdfrwt beam="2">  1       -2 0.33869548E-02 0.50041269E+03</pdfrwt>
<totfact> 0.14725357E+03</totfact>
</mgrwt>
</event>
<event>
 4    1  0.1837449E-005  0.5114355E+03  0.7818608E-02  0.1010836E+00
         -2   -1    0    0    0  501 -0.00000000000E+00  0.00000000000E+00  0.61382777583E+02  0.61382777636E+02  0.25500000000E-02 0. -1.
          2   -1    0    0  501    0  0.00000000000E+00 -0.00000000000E+00 -0.10653080299E+04  0.10653080299E+04  0.25500000000E-02 0.  1.
    5000001    1    1    2    0    0 -0.12174351343E+02 -0.14371894194E+03 -0.21167469482E+03  0.30468758677E+03  0.16500000000E+03 0.  0.
   -5000001    1    1    2    0    0  0.12174351343E+02  0.14371894194E+03 -0.79225055750E+03  0.82200322078E+03  0.16500000000E+03 0.  0.
<mgrwt>
<rscale>  0 0.51143549E+03</rscale>
<asrwt>0</asrwt>
<pdfrwt beam="1">  1        2 0.15218685E+00 0.51143549E+03</pdfrwt>
<pdfrwt beam="2">  1       -2 0.87689689E-02 0.51143549E+03</pdfrwt>
<totfact> 0.21839238E+03</totfact>
</mgrwt>
</event>
<event>
 4    1  0.1837449E-005  0.3752239E+03  0.7818608E-02  0.1052713E+00
          2   -1    0    0  501    0  0.00000000000E+00  0.00000000000E+00  0.81476216919E+03  0.81476216920E+03  0.25500000000E-02 0.  1.
         -2   -1    0    0    0  501 -0.00000000000E+00 -0.00000000000E+00 -0.43200628555E+02  0.43200628631E+02  0.25500000000E-02 0. -1.
    5000001    1    1    2    0    0 -0.63221463825E+02  0.49420501183E+02  0.29622856131E+03  0.34844755697E+03  0.16500000000E+03 0.  0.
   -5000001    1    1    2    0    0  0.63221463825E+02 -0.49420501183E+02  0.47533297933E+03  0.50951524086E+03  0.16500000000E+03 0.  0.
<mgrwt>
<rscale>  0 0.37522387E+03</rscale>
<asrwt>0</asrwt>
<pdfrwt beam="1">  1        2 0.11639458E+00 0.37522387E+03</pdfrwt>
<pdfrwt beam="2">  1       -2 0.61715191E-02 0.37522387E+03</pdfrwt>
<totfact> 0.54300584E+03</totfact>
</mgrwt>
</event>
<event>
 4    1  0.1837449E-005  0.9296738E+03  0.7818608E-02  0.9389229E-01
         -2   -1    0    0    0  501 -0.00000000000E+00  0.00000000000E+00  0.46148657418E+03  0.46148657419E+03  0.25500000000E-02 0. -1.
          2   -1    0    0  501    0  0.00000000000E+00 -0.00000000000E+00 -0.46821152844E+03  0.46821152845E+03  0.25500000000E-02 0.  1.
    5000001    1    1    2    0    0  0.13840536855E+03  0.25944876337E+03 -0.32333745187E+03  0.46716358446E+03  0.16500000000E+03 0.  0.
   -5000001    1    1    2    0    0 -0.13840536855E+03 -0.25944876337E+03  0.31661249761E+03  0.46253451818E+03  0.16500000000E+03 0.  0.
<mgrwt>
<rscale>  0 0.92967378E+03</rscale>
<asrwt>0</asrwt>
<pdfrwt beam="1">  1        2 0.66887361E-01 0.92967378E+03</pdfrwt>
<pdfrwt beam="2">  1       -2 0.65926654E-01 0.92967378E+03</pdfrwt>
<totfact> 0.15366517E+02</totfact>
</mgrwt>
</event>
<event>
 4    1  0.1837449E-005  0.1443109E+04  0.7818608E-02  0.8923192E-01
         -2   -1    0    0    0  501 -0.00000000000E+00  0.00000000000E+00  0.76032983472E+03  0.76032983472E+03  0.25500000000E-02 0. -1.
          2   -1    0    0  501    0  0.00000000000E+00 -0.00000000000E+00 -0.68475671763E+03  0.68475671764E+03  0.25500000000E-02 0.  1.
    5000001    1    1    2    0    0  0.54099625628E+01 -0.67184056482E+03 -0.16747468591E+03  0.71180881046E+03  0.16500000000E+03 0.  0.
   -5000001    1    1    2    0    0 -0.54099625628E+01  0.67184056482E+03  0.24304780300E+03  0.73327774190E+03  0.16500000000E+03 0.  0.
<mgrwt>
<rscale>  0 0.14431091E+04</rscale>
<asrwt>0</asrwt>
<pdfrwt beam="1">  1        2 0.97822387E-01 0.14431091E+04</pdfrwt>
<pdfrwt beam="2">  1       -2 0.10861855E+00 0.14431091E+04</pdfrwt>
<totfact> 0.30456723E+01</totfact>
</mgrwt>
</event>
<event>
 4    1  0.1837449E-005  0.5038952E+03  0.7818608E-02  0.1012767E+00
         -2   -1    0    0    0  501 -0.00000000000E+00  0.00000000000E+00  0.16388176064E+02  0.16388176262E+02  0.25500000000E-02 0. -1.
          2   -1    0    0  501    0  0.00000000000E+00 -0.00000000000E+00 -0.38733769559E+04  0.38733769559E+04  0.25500000000E-02 0.  1.
    5000001    1    1    2    0    0  0.15132888465E+03 -0.18485864831E+02 -0.28089935321E+04  0.28179623528E+04  0.16500000000E+03 0.  0.
   -5000001    1    1    2    0    0 -0.15132888465E+03  0.18485864831E+02 -0.10479952477E+04  0.10718027793E+04  0.16500000000E+03 0.  0.
<mgrwt>
<rscale>  0 0.50389516E+03</rscale>
<asrwt>0</asrwt>
<pdfrwt beam="1">  1        2 0.55333898E+00 0.50389516E+03</pdfrwt>
<pdfrwt beam="2">  1       -2 0.23411705E-02 0.50389516E+03</pdfrwt>
<totfact> 0.51103752E+02</totfact>
</mgrwt>
</event>
<event>
 4    1  0.1837449E-005  0.3708040E+03  0.7818608E-02  0.1054386E+00
          2   -1    0    0  501    0  0.00000000000E+00  0.00000000000E+00  0.67556714141E+03  0.67556714141E+03  0.25500000000E-02 0.  1.
         -2   -1    0    0    0  501 -0.00000000000E+00 -0.00000000000E+00 -0.50881550059E+02  0.50881550123E+02  0.25500000000E-02 0. -1.
    5000001    1    1    2    0    0 -0.82753804783E+02 -0.17112258596E+02  0.30684268025E+03  0.35849470292E+03  0.16500000000E+03 0.  0.
   -5000001    1    1    2    0    0  0.82753804783E+02  0.17112258596E+02  0.31784291110E+03  0.36795398861E+03  0.16500000000E+03 0.  0.
<mgrwt>
<rscale>  0 0.37080401E+03</rscale>
<asrwt>0</asrwt>
<pdfrwt beam="1">  1        2 0.96509587E-01 0.37080401E+03</pdfrwt>
<pdfrwt beam="2">  1       -2 0.72687932E-02 0.37080401E+03</pdfrwt>
<totfact> 0.52919080E+03</totfact>
</mgrwt>
</event>
<event>
 4    1  0.1837449E-005  0.6539356E+03  0.7818608E-02  0.9799422E-01
          2   -1    0    0  501    0  0.00000000000E+00  0.00000000000E+00  0.21712958507E+03  0.21712958508E+03  0.25500000000E-02 0.  1.
         -2   -1    0    0    0  501 -0.00000000000E+00 -0.00000000000E+00 -0.49236937419E+03  0.49236937419E+03  0.25500000000E-02 0. -1.
    5000001    1    1    2    0    0 -0.86844001693E+01 -0.27404397717E+03 -0.21046185341E+03  0.38300745681E+03  0.16500000000E+03 0.  0.
   -5000001    1    1    2    0    0  0.86844001693E+01  0.27404397717E+03 -0.64777935707E+02  0.32649150247E+03  0.16500000000E+03 0.  0.
<mgrwt>
<rscale>  0 0.65393565E+03</rscale>
<asrwt>0</asrwt>
<pdfrwt beam="1">  1        2 0.31018513E-01 0.65393565E+03</pdfrwt>
<pdfrwt beam="2">  1       -2 0.70338481E-01 0.65393565E+03</pdfrwt>
<totfact> 0.31824645E+02</totfact>
</mgrwt>
</event>
<event>
 4    1  0.1837449E-005  0.5789970E+03  0.7818608E-02  0.9949965E-01
          2   -1    0    0  501    0  0.00000000000E+00  0.00000000000E+00  0.24872208879E+03  0.24872208880E+03  0.25500000000E-02 0.  1.
         -2   -1    0    0    0  501 -0.00000000000E+00 -0.00000000000E+00 -0.33695995240E+03  0.33695995241E+03  0.25500000000E-02 0. -1.
    5000001    1    1    2    0    0 -0.19152682344E+03  0.39271507230E+02  0.92943139178E+02  0.27219148131E+03  0.16500000000E+03 0.  0.
   -5000001    1    1    2    0    0  0.19152682344E+03 -0.39271507230E+02 -0.18118100279E+03  0.31349055990E+03  0.16500000000E+03 0.  0.
<mgrwt>
<rscale>  0 0.57899701E+03</rscale>
<asrwt>0</asrwt>
<pdfrwt beam="1">  1        2 0.35531727E-01 0.57899701E+03</pdfrwt>
<pdfrwt beam="2">  1       -2 0.48137136E-01 0.57899701E+03</pdfrwt>
<totfact> 0.60534751E+02</totfact>
</mgrwt>
</event>
<event>
 4    1  0.1837449E-005  0.6884899E+03  0.7818608E-02  0.9737121E-01
         -2   -1    0    0    0  501 -0.00000000000E+00  0.00000000000E+00  0.33312825363E+02  0.33312825461E+02  0.25500000000E-02 0. -1.
          2   -1    0    0  501    0  0.00000000000E+00 -0.00000000000E+00 -0.35573263656E+04  0.35573263656E+04  0.25500000000E-02 0.  1.
    5000001    1    1    2    0    0 -0.28244124105E+03  0.26060956372E+00 -0.12025774451E+04  0.12462706905E+04  0.16500000000E+03 0.  0.
   -5000001    1    1    2    0    0  0.28244124105E+03 -0.26060956372E+00 -0.23214360952E+04  0.23443685006E+04  0.16500000000E+03 0.  0.
<mgrwt>
<rscale>  0 0.68848992E+03</rscale>
<asrwt>0</asrwt>
<pdfrwt beam="1">  1        2 0.50818924E+00 0.68848992E+03</pdfrwt>
<pdfrwt beam="2">  1       -2 0.47589773E-02 0.68848992E+03</pdfrwt>
<totfact> 0.26580997E+02</totfact>
</mgrwt>
</event>
<event>
 4    1  0.1837449E-005  0.3510596E+03  0.7818608E-02  0.1062181E+00
         -2   -1    0    0    0  501 -0.00000000000E+00  0.00000000000E+00  0.34112276740E+02  0.34112276835E+02  0.25500000000E-02 0. -1.
          2   -1    0    0  501    0  0.00000000000E+00 -0.00000000000E+00 -0.90321452756E+03  0.90321452756E+03  0.25500000000E-02 0.  1.
    5000001    1    1    2    0    0 -0.64680507605E+00 -0.47579080871E+02 -0.53161252594E+03  0.55866006214E+03  0.16500000000E+03 0.  0.
   -5000001    1    1    2    0    0  0.64680507605E+00  0.47579080871E+02 -0.33748972488E+03  0.37866674226E+03  0.16500000000E+03 0.  0.
<mgrwt>
<rscale>  0 0.35105956E+03</rscale>
<asrwt>0</asrwt>
<pdfrwt beam="1">  1        2 0.12903063E+00 0.35105956E+03</pdfrwt>
<pdfrwt beam="2">  1       -2 0.48731830E-02 0.35105956E+03</pdfrwt>
<totfact> 0.68306042E+03</totfact>
</mgrwt>
</event>
<event>
 4    1  0.1837449E-005  0.4133705E+03  0.7818608E-02  0.1039246E+00
          2   -1    0    0  501    0  0.00000000000E+00  0.00000000000E+00  0.12154874619E+03  0.12154874622E+03  0.25500000000E-02 0.  1.
         -2   -1    0    0    0  501 -0.00000000000E+00 -0.00000000000E+00 -0.35145399346E+03  0.35145399347E+03  0.25500000000E-02 0. -1.
    5000001    1    1    2    0    0  0.76440186435E+02  0.77320366106E+02 -0.18429366584E+03  0.27020491555E+03  0.16500000000E+03 0.  0.
   -5000001    1    1    2    0    0 -0.76440186435E+02 -0.77320366106E+02 -0.45611581431E+02  0.20279782414E+03  0.16500000000E+03 0.  0.
<mgrwt>
<rscale>  0 0.41337050E+03</rscale>
<asrwt>0</asrwt>
<pdfrwt beam="1">  1        2 0.17364107E-01 0.41337050E+03</pdfrwt>
<pdfrwt beam="2">  1       -2 0.50207713E-01 0.41337050E+03</pdfrwt>
<totfact> 0.12578117E+03</totfact>
</mgrwt>
</event>
<event>
 4    1  0.1837449E-005  0.4990996E+03  0.7818608E-02  0.1014014E+00
          2   -1    0    0  501    0  0.00000000000E+00  0.00000000000E+00  0.43857582228E+03  0.43857582229E+03  0.25500000000E-02 0.  1.
         -2   -1    0    0    0  501 -0.00000000000E+00 -0.00000000000E+00 -0.14199391792E+03  0.14199391795E+03  0.25500000000E-02 0. -1.
    5000001    1    1    2    0    0  0.97556949853E+02  0.15511190136E+03  0.19293610315E+03  0.31309168036E+03  0.16500000000E+03 0.  0.
   -5000001    1    1    2    0    0 -0.97556949853E+02 -0.15511190136E+03  0.10364580121E+03  0.26747805988E+03  0.16500000000E+03 0.  0.
<mgrwt>
<rscale>  0 0.49909959E+03</rscale>
<asrwt>0</asrwt>
<pdfrwt beam="1">  1        2 0.62653689E-01 0.49909959E+03</pdfrwt>
<pdfrwt beam="2">  1       -2 0.20284845E-01 0.49909959E+03</pdfrwt>
<totfact> 0.16169946E+03</totfact>
</mgrwt>
</event>
<event>
 4    1  0.1837449E-005  0.4107400E+03  0.7818608E-02  0.1040123E+00
         -2   -1    0    0    0  501 -0.00000000000E+00  0.00000000000E+00  0.66512945651E+03  0.66512945651E+03  0.25500000000E-02 0. -1.
          2   -1    0    0  501    0  0.00000000000E+00 -0.00000000000E+00 -0.63411474874E+02  0.63411474925E+02  0.25500000000E-02 0.  1.
    5000001    1    1    2    0    0  0.81031635600E+02 -0.39569979498E+02  0.15437946675E+03  0.24328980456E+03  0.16500000000E+03 0.  0.
   -5000001    1    1    2    0    0 -0.81031635600E+02  0.39569979498E+02  0.44733851488E+03  0.48525112688E+03  0.16500000000E+03 0.  0.
<mgrwt>
<rscale>  0 0.41074001E+03</rscale>
<asrwt>0</asrwt>
<pdfrwt beam="1">  1        2 0.90587822E-02 0.41074001E+03</pdfrwt>
<pdfrwt beam="2">  1       -2 0.95018493E-01 0.41074001E+03</pdfrwt>
<totfact> 0.70591621E+02</totfact>
</mgrwt>
</event>
<event>
 4    1  0.1837449E-005  0.5018582E+03  0.7818608E-02  0.1013295E+00
          2   -1    0    0  501    0  0.00000000000E+00  0.00000000000E+00  0.11270687474E+03  0.11270687477E+03  0.25500000000E-02 0.  1.
         -2   -1    0    0    0  501 -0.00000000000E+00 -0.00000000000E+00 -0.55866525245E+03  0.55866525246E+03  0.25500000000E-02 0. -1.
    5000001    1    1    2    0    0  0.15910416133E+03  0.10116642527E+03 -0.20446010202E+03  0.32338477557E+03  0.16500000000E+03 0.  0.
   -5000001    1    1    2    0    0 -0.15910416133E+03 -0.10116642527E+03 -0.24149827569E+03  0.34798735166E+03  0.16500000000E+03 0.  0.
<mgrwt>
<rscale>  0 0.50185821E+03</rscale>
<asrwt>0</asrwt>
<pdfrwt beam="1">  1        2 0.16100982E-01 0.50185821E+03</pdfrwt>
<pdfrwt beam="2">  1       -2 0.79809320E-01 0.50185821E+03</pdfrwt>
<totfact> 0.51577379E+02</totfact>
</mgrwt>
</event>
<event>
 4    1  0.1837449E-005  0.5939507E+03  0.7818608E-02  0.9918037E-01
         -2   -1    0    0    0  501 -0.00000000000E+00  0.00000000000E+00  0.17786014229E+03  0.17786014231E+03  0.25500000000E-02 0. -1.
          2   -1    0    0  501    0  0.00000000000E+00 -0.00000000000E+00 -0.49586349309E+03  0.49586349310E+03  0.25500000000E-02 0.  1.
    5000001    1    1    2    0    0  0.79190822177E+02 -0.10368663818E+03 -0.39679367322E+03  0.44910168599E+03  0.16500000000E+03 0.  0.
   -5000001    1    1    2    0    0 -0.79190822177E+02  0.10368663818E+03  0.78790322421E+02  0.22462194942E+03  0.16500000000E+03 0.  0.
<mgrwt>
<rscale>  0 0.59395068E+03</rscale>
<asrwt>0</asrwt>
<pdfrwt beam="1">  1        2 0.70837642E-01 0.59395068E+03</pdfrwt>
<pdfrwt beam="2">  1       -2 0.25408592E-01 0.59395068E+03</pdfrwt>
<totfact> 0.94566817E+02</totfact>
</mgrwt>
</event>
<event>
 4    1  0.1837449E-005  0.5715023E+03  0.7818608E-02  0.9966360E-01
          2   -1    0    0  501    0  0.00000000000E+00  0.00000000000E+00  0.12663408094E+04  0.12663408094E+04  0.25500000000E-02 0. -1.
         -2   -1    0    0    0  501 -0.00000000000E+00 -0.00000000000E+00 -0.64480046568E+02  0.64480046619E+02  0.25500000000E-02 0.  1.
    5000001    1    1    2    0    0  0.59487605776E+02  0.21247732304E+03  0.42445530559E+03  0.50603625808E+03  0.16500000000E+03 0.  0.
   -5000001    1    1    2    0    0 -0.59487605776E+02 -0.21247732304E+03  0.77740545720E+03  0.82478459790E+03  0.16500000000E+03 0.  0.
<mgrwt>
<rscale>  0 0.57150228E+03</rscale>
<asrwt>0</asrwt>
<pdfrwt beam="1">  1        2 0.18090584E+00 0.57150228E+03</pdfrwt>
<pdfrwt beam="2">  1       -2 0.92114349E-02 0.57150228E+03</pdfrwt>
<totfact> 0.15516333E+03</totfact>
</mgrwt>
</event>
<event>
 4    1  0.1837449E-005  0.4543207E+03  0.7818608E-02  0.1026441E+00
          2   -1    0    0  501    0  0.00000000000E+00  0.00000000000E+00  0.18458181416E+03  0.18458181418E+03  0.25500000000E-02 0.  1.
         -2   -1    0    0    0  501 -0.00000000000E+00 -0.00000000000E+00 -0.27956071869E+03  0.27956071870E+03  0.25500000000E-02 0. -1.
    5000001    1    1    2    0    0  0.26980437305E+02 -0.10138634713E+03  0.70637636135E+02  0.20789855945E+03  0.16500000000E+03 0.  0.
   -5000001    1    1    2    0    0 -0.26980437305E+02  0.10138634713E+03 -0.16561654066E+03  0.25624397344E+03  0.16500000000E+03 0.  0.
<mgrwt>
<rscale>  0 0.45432070E+03</rscale>
<asrwt>0</asrwt>
<pdfrwt beam="1">  1        2 0.26368831E-01 0.45432070E+03</pdfrwt>
<pdfrwt beam="2">  1       -2 0.39937245E-01 0.45432070E+03</pdfrwt>
<totfact> 0.12207809E+03</totfact>
</mgrwt>
</event>
<event>
 4    1  0.1837449E-005  0.5596742E+03  0.7818608E-02  0.9992792E-01
         -2   -1    0    0    0  501 -0.00000000000E+00  0.00000000000E+00  0.51236517312E+02  0.51236517375E+02  0.25500000000E-02 0. -1.
          2   -1    0    0  501    0  0.00000000000E+00 -0.00000000000E+00 -0.15283786036E+04  0.15283786036E+04  0.25500000000E-02 0.  1.
    5000001    1    1    2    0    0 -0.20043530053E+03  0.88854750335E+02 -0.89352787305E+03  0.93471200713E+03  0.16500000000E+03 0.  0.
   -5000001    1    1    2    0    0  0.20043530053E+03 -0.88854750335E+02 -0.58361421325E+03  0.64490311386E+03  0.16500000000E+03 0.  0.
<mgrwt>
<rscale>  0 0.55967418E+03</rscale>
<asrwt>0</asrwt>
<pdfrwt beam="1">  1        2 0.21833977E+00 0.55967418E+03</pdfrwt>
<pdfrwt beam="2">  1       -2 0.73195034E-02 0.55967418E+03</pdfrwt>
<totfact> 0.16256239E+03</totfact>
</mgrwt>
</event>
<event>
 4    1  0.1837449E-005  0.3796915E+03  0.7818608E-02  0.1051048E+00
          2   -1    0    0  501    0  0.00000000000E+00  0.00000000000E+00  0.99130164479E+03  0.99130164479E+03  0.25500000000E-02 0.  1.
         -2   -1    0    0    0  501 -0.00000000000E+00 -0.00000000000E+00 -0.36357662325E+02  0.36357662414E+02  0.25500000000E-02 0. -1.
    5000001    1    1    2    0    0  0.49119411420E+02 -0.69722907642E+02  0.58376830462E+03  0.61260463098E+03  0.16500000000E+03 0.  0.
   -5000001    1    1    2    0    0 -0.49119411420E+02  0.69722907642E+02  0.37117567784E+03  0.41505467622E+03  0.16500000000E+03 0.  0.
<mgrwt>
<rscale>  0 0.37969151E+03</rscale>
<asrwt>0</asrwt>
<pdfrwt beam="1">  1        2 0.14161450E+00 0.37969151E+03</pdfrwt>
<pdfrwt beam="2">  1       -2 0.51939524E-02 0.37969151E+03</pdfrwt>
<totfact> 0.54763226E+03</totfact>
</mgrwt>
</event>
<event>
 4    1  0.1837449E-005  0.7385387E+03  0.7818608E-02  0.9653505E-01
          2   -1    0    0  501    0  0.00000000000E+00  0.00000000000E+00  0.36932172646E+03  0.36932172647E+03  0.25500000000E-02 0.  1.
         -2   -1    0    0    0  501 -0.00000000000E+00 -0.00000000000E+00 -0.36921696575E+03  0.36921696576E+03  0.25500000000E-02 0. -1.
    5000001    1    1    2    0    0 -0.65742421488E+02  0.32344080446E+03  0.14152992634E+02  0.36927134627E+03  0.16500000000E+03 0.  0.
   -5000001    1    1    2    0    0  0.65742421488E+02 -0.32344080446E+03 -0.14048231926E+02  0.36926734596E+03  0.16500000000E+03 0.  0.
<mgrwt>
<rscale>  0 0.73853868E+03</rscale>
<asrwt>0</asrwt>
<pdfrwt beam="1">  1        2 0.52760247E-01 0.73853868E+03</pdfrwt>
<pdfrwt beam="2">  1       -2 0.52745280E-01 0.73853868E+03</pdfrwt>
<totfact> 0.32321402E+02</totfact>
</mgrwt>
</event>
<event>
 4    1  0.1837449E-005  0.4507882E+03  0.7818608E-02  0.1027487E+00
         -2   -1    0    0    0  501 -0.00000000000E+00  0.00000000000E+00  0.35348749184E+02  0.35348749276E+02  0.25500000000E-02 0. -1.
          2   -1    0    0  501    0  0.00000000000E+00 -0.00000000000E+00 -0.14371796523E+04  0.14371796523E+04  0.25500000000E-02 0.  1.
    5000001    1    1    2    0    0 -0.11891198656E+03 -0.65930593535E+02 -0.46785123975E+03  0.51438962495E+03  0.16500000000E+03 0.  0.
   -5000001    1    1    2    0    0  0.11891198656E+03  0.65930593535E+02 -0.93397966334E+03  0.95813877661E+03  0.16500000000E+03 0.  0.
<mgrwt>
<rscale>  0 0.45078821E+03</rscale>
<asrwt>0</asrwt>
<pdfrwt beam="1">  1        2 0.20531134E+00 0.45078821E+03</pdfrwt>
<pdfrwt beam="2">  1       -2 0.50498222E-02 0.45078821E+03</pdfrwt>
<totfact> 0.32432816E+03</totfact>
</mgrwt>
</event>
<event>
 4    1  0.1837449E-005  0.7145820E+03  0.7818608E-02  0.9692615E-01
          2   -1    0    0  501    0  0.00000000000E+00  0.00000000000E+00  0.11580957385E+04  0.11580957385E+04  0.25500000000E-02 0.  1.
         -2   -1    0    0    0  501 -0.00000000000E+00 -0.00000000000E+00 -0.11022997966E+03  0.11022997969E+03  0.25500000000E-02 0. -1.
    5000001    1    1    2    0    0 -0.20678311678E+03  0.53709451806E+02  0.93938507954E+03  0.97740129439E+03  0.16500000000E+03 0.  0.
   -5000001    1    1    2    0    0  0.20678311678E+03 -0.53709451806E+02  0.10848067933E+03  0.29092442384E+03  0.16500000000E+03 0.  0.
<mgrwt>
<rscale>  0 0.71458203E+03</rscale>
<asrwt>0</asrwt>
<pdfrwt beam="1">  1        2 0.16544224E+00 0.71458203E+03</pdfrwt>
<pdfrwt beam="2">  1       -2 0.15747141E-01 0.71458203E+03</pdfrwt>
<totfact> 0.73289036E+02</totfact>
</mgrwt>
</event>
<event>
 4    1  0.1837449E-005  0.3958841E+03  0.7818608E-02  0.1045214E+00
          2   -1    0    0  501    0  0.00000000000E+00  0.00000000000E+00  0.24309499792E+04  0.24309499792E+04  0.25500000000E-02 0. -1.
         -2   -1    0    0    0  501 -0.00000000000E+00 -0.00000000000E+00 -0.16117590370E+02  0.16117590571E+02  0.25500000000E-02 0.  1.
    5000001    1    1    2    0    0  0.40613467499E+02  0.98911994549E+02  0.13487795895E+04  0.13630350023E+04  0.16500000000E+03 0.  0.
   -5000001    1    1    2    0    0 -0.40613467499E+02 -0.98911994549E+02  0.10660527993E+04  0.10840325674E+04  0.16500000000E+03 0.  0.
<mgrwt>
<rscale>  0 0.39588411E+03</rscale>
<asrwt>0</asrwt>
<pdfrwt beam="1">  1        2 0.34727817E+00 0.39588411E+03</pdfrwt>
<pdfrwt beam="2">  1       -2 0.23025156E-02 0.39588411E+03</pdfrwt>
<totfact> 0.33885609E+03</totfact>
</mgrwt>
</event>
<event>
 4    1  0.1837449E-005  0.7314408E+03  0.7818608E-02  0.9664925E-01
         -2   -1    0    0    0  501 -0.00000000000E+00  0.00000000000E+00  0.15344625940E+03  0.15344625942E+03  0.25500000000E-02 0. -1.
          2   -1    0    0  501    0  0.00000000000E+00 -0.00000000000E+00 -0.87164977347E+03  0.87164977347E+03  0.25500000000E-02 0.  1.
    5000001    1    1    2    0    0 -0.28809364081E+03 -0.13781160037E+03 -0.26470833236E+03  0.44641402789E+03  0.16500000000E+03 0.  0.
   -5000001    1    1    2    0    0  0.28809364081E+03  0.13781160037E+03 -0.45349518171E+03  0.57868200500E+03  0.16500000000E+03 0.  0.
<mgrwt>
<rscale>  0 0.73144076E+03</rscale>
<asrwt>0</asrwt>
<pdfrwt beam="1">  1        2 0.12452139E+00 0.73144076E+03</pdfrwt>
<pdfrwt beam="2">  1       -2 0.21920895E-01 0.73144076E+03</pdfrwt>
<totfact> 0.61818356E+02</totfact>
</mgrwt>
</event>
<event>
 4    1  0.1837449E-005  0.4068012E+03  0.7818608E-02  0.1041450E+00
         -2   -1    0    0    0  501 -0.00000000000E+00  0.00000000000E+00  0.43453787466E+02  0.43453787541E+02  0.25500000000E-02 0. -1.
          2   -1    0    0  501    0  0.00000000000E+00 -0.00000000000E+00 -0.95208762728E+03  0.95208762729E+03  0.25500000000E-02 0.  1.
    5000001    1    1    2    0    0 -0.91440502508E+02  0.39723724078E+02 -0.29557641348E+03  0.35288773847E+03  0.16500000000E+03 0.  0.
   -5000001    1    1    2    0    0  0.91440502508E+02 -0.39723724078E+02 -0.61305742634E+03  0.64265367636E+03  0.16500000000E+03 0.  0.
<mgrwt>
<rscale>  0 0.40680125E+03</rscale>
<asrwt>0</asrwt>
<pdfrwt beam="1">  1        2 0.13601250E+00 0.40680125E+03</pdfrwt>
<pdfrwt beam="2">  1       -2 0.62076846E-02 0.40680125E+03</pdfrwt>
<totfact> 0.43971598E+03</totfact>
</mgrwt>
</event>
<event>
 4    1  0.1837449E-005  0.5204483E+03  0.7818608E-02  0.1008575E+00
          2   -1    0    0  501    0  0.00000000000E+00  0.00000000000E+00  0.25005829989E+04  0.25005829989E+04  0.25500000000E-02 0.  1.
         -2   -1    0    0    0  501 -0.00000000000E+00 -0.00000000000E+00 -0.27080328403E+02  0.27080328523E+02  0.25500000000E-02 0. -1.
    5000001    1    1    2    0    0  0.17566218929E+03 -0.53115991550E+02  0.83587181112E+03  0.87154185093E+03  0.16500000000E+03 0.  0.
   -5000001    1    1    2    0    0 -0.17566218929E+03  0.53115991550E+02  0.16376308593E+04  0.16561214765E+04  0.16500000000E+03 0.  0.
<mgrwt>
<rscale>  0 0.52044830E+03</rscale>
<asrwt>0</asrwt>
<pdfrwt beam="1">  1        2 0.35722640E+00 0.52044830E+03</pdfrwt>
<pdfrwt beam="2">  1       -2 0.38686156E-02 0.52044830E+03</pdfrwt>
<totfact> 0.14168270E+03</totfact>
</mgrwt>
</event>
<event>
 4    1  0.1837449E-005  0.5316436E+03  0.7818608E-02  0.1005834E+00
         -2   -1    0    0    0  501 -0.00000000000E+00  0.00000000000E+00  0.41783469534E+02  0.41783469612E+02  0.25500000000E-02 0. -1.
          2   -1    0    0  501    0  0.00000000000E+00 -0.00000000000E+00 -0.16911289548E+04  0.16911289548E+04  0.25500000000E-02 0.  1.
    5000001    1    1    2    0    0  0.86128159070E+02 -0.17959947609E+03 -0.10246023700E+04  0.10567445520E+04  0.16500000000E+03 0.  0.
   -5000001    1    1    2    0    0 -0.86128159070E+02  0.17959947609E+03 -0.62474311529E+03  0.67616787242E+03  0.16500000000E+03 0.  0.
<mgrwt>
<rscale>  0 0.53164362E+03</rscale>
<asrwt>0</asrwt>
<pdfrwt beam="1">  1        2 0.24158981E+00 0.53164362E+03</pdfrwt>
<pdfrwt beam="2">  1       -2 0.59690681E-02 0.53164362E+03</pdfrwt>
<totfact> 0.18506843E+03</totfact>
</mgrwt>
</event>
<event>
 4    1  0.1837449E-005  0.4650139E+03  0.7818608E-02  0.1023337E+00
         -2   -1    0    0    0  501 -0.00000000000E+00  0.00000000000E+00  0.14747740649E+03  0.14747740652E+03  0.25500000000E-02 0. -1.
          2   -1    0    0  501    0  0.00000000000E+00 -0.00000000000E+00 -0.36656107692E+03  0.36656107693E+03  0.25500000000E-02 0.  1.
    5000001    1    1    2    0    0 -0.42643658306E+02 -0.15737593981E+03 -0.12697847113E+03  0.26445075185E+03  0.16500000000E+03 0.  0.
   -5000001    1    1    2    0    0  0.42643658306E+02  0.15737593981E+03 -0.92105199299E+02  0.24958773160E+03  0.16500000000E+03 0.  0.
<mgrwt>
<rscale>  0 0.46501388E+03</rscale>
<asrwt>0</asrwt>
<pdfrwt beam="1">  1        2 0.52365868E-01 0.46501388E+03</pdfrwt>
<pdfrwt beam="2">  1       -2 0.21068201E-01 0.46501388E+03</pdfrwt>
<totfact> 0.18446959E+03</totfact>
</mgrwt>
</event>
<event>
 4    1  0.1837449E-005  0.4586907E+03  0.7818608E-02  0.1025162E+00
         -2   -1    0    0    0  501 -0.00000000000E+00  0.00000000000E+00  0.30350873673E+02  0.30350873780E+02  0.25500000000E-02 0. -1.
          2   -1    0    0  501    0  0.00000000000E+00 -0.00000000000E+00 -0.17330401482E+04  0.17330401482E+04  0.25500000000E-02 0.  1.
    5000001    1    1    2    0    0 -0.83116833319E+02  0.11693515868E+03 -0.58521754455E+03  0.62472939243E+03  0.16500000000E+03 0.  0.
   -5000001    1    1    2    0    0  0.83116833319E+02 -0.11693515868E+03 -0.11174717300E+04  0.11386616296E+04  0.16500000000E+03 0.  0.
<mgrwt>
<rscale>  0 0.45869067E+03</rscale>
<asrwt>0</asrwt>
<pdfrwt beam="1">  1        2 0.24757710E+00 0.45869067E+03</pdfrwt>
<pdfrwt beam="2">  1       -2 0.43358402E-02 0.45869067E+03</pdfrwt>
<totfact> 0.28952605E+03</totfact>
</mgrwt>
</event>
<event>
 4    1  0.1837449E-005  0.6227878E+03  0.7818608E-02  0.9859225E-01
          2   -1    0    0  501    0  0.00000000000E+00  0.00000000000E+00  0.94990257813E+03  0.94990257813E+03  0.25500000000E-02 0.  1.
         -2   -1    0    0    0  501 -0.00000000000E+00 -0.00000000000E+00 -0.10208010924E+03  0.10208010928E+03  0.25500000000E-02 0. -1.
    5000001    1    1    2    0    0 -0.21240048522E+02 -0.25037763019E+03  0.56114955463E+03  0.63659557022E+03  0.16500000000E+03 0.  0.
   -5000001    1    1    2    0    0  0.21240048522E+02  0.25037763019E+03  0.28667291425E+03  0.41538711719E+03  0.16500000000E+03 0.  0.
<mgrwt>
<rscale>  0 0.62278779E+03</rscale>
<asrwt>0</asrwt>
<pdfrwt beam="1">  1        2 0.13570037E+00 0.62278779E+03</pdfrwt>
<pdfrwt beam="2">  1       -2 0.14582873E-01 0.62278779E+03</pdfrwt>
<totfact> 0.11140392E+03</totfact>
</mgrwt>
</event>
<event>
 4    1  0.1837449E-005  0.4879480E+03  0.7818608E-02  0.1016973E+00
          2   -1    0    0  501    0  0.00000000000E+00  0.00000000000E+00  0.62496053770E+03  0.62496053770E+03  0.25500000000E-02 0.  1.
         -2   -1    0    0    0  501 -0.00000000000E+00 -0.00000000000E+00 -0.95243306731E+02  0.95243306765E+02  0.25500000000E-02 0. -1.
    5000001    1    1    2    0    0  0.13334693033E+03  0.12043237992E+03  0.27016933913E+03  0.36400801333E+03  0.16500000000E+03 0.  0.
   -5000001    1    1    2    0    0 -0.13334693033E+03 -0.12043237992E+03  0.25954789184E+03  0.35619583114E+03  0.16500000000E+03 0.  0.
<mgrwt>
<rscale>  0 0.48794798E+03</rscale>
<asrwt>0</asrwt>
<pdfrwt beam="1">  1        2 0.89280078E-01 0.48794798E+03</pdfrwt>
<pdfrwt beam="2">  1       -2 0.13606187E-01 0.48794798E+03</pdfrwt>
<totfact> 0.21247938E+03</totfact>
</mgrwt>
</event>
<event>
 4    1  0.1837449E-005  0.9078923E+03  0.7818608E-02  0.9415769E-01
         -2   -1    0    0    0  501 -0.00000000000E+00  0.00000000000E+00  0.22630004402E+03  0.22630004404E+03  0.25500000000E-02 0. -1.
          2   -1    0    0  501    0  0.00000000000E+00 -0.00000000000E+00 -0.91059248347E+03  0.91059248348E+03  0.25500000000E-02 0.  1.
    5000001    1    1    2    0    0 -0.34551816488E+03  0.63480213133E+02 -0.63696548402E+03  0.74589715615E+03  0.16500000000E+03 0.  0.
   -5000001    1    1    2    0    0  0.34551816488E+03 -0.63480213133E+02 -0.47326955433E+02  0.39099537137E+03  0.16500000000E+03 0.  0.
<mgrwt>
<rscale>  0 0.90789233E+03</rscale>
<asrwt>0</asrwt>
<pdfrwt beam="1">  1        2 0.13008464E+00 0.90789233E+03</pdfrwt>
<pdfrwt beam="2">  1       -2 0.32328578E-01 0.90789233E+03</pdfrwt>
<totfact> 0.28506249E+02</totfact>
</mgrwt>
</event>
<event>
 4    1  0.1837449E-005  0.7025198E+03  0.7818608E-02  0.9712933E-01
         -2   -1    0    0    0  501 -0.00000000000E+00  0.00000000000E+00  0.52177750677E+02  0.52177750740E+02  0.25500000000E-02 0. -1.
          2   -1    0    0  501    0  0.00000000000E+00 -0.00000000000E+00 -0.23646768671E+04  0.23646768671E+04  0.25500000000E-02 0.  1.
    5000001    1    1    2    0    0 -0.11210114830E+03  0.28903754043E+03 -0.11803689484E+04  0.12315052666E+04  0.16500000000E+03 0.  0.
   -5000001    1    1    2    0    0  0.11210114830E+03 -0.28903754043E+03 -0.11321301680E+04  0.11853493513E+04  0.16500000000E+03 0.  0.
<mgrwt>
<rscale>  0 0.70251981E+03</rscale>
<asrwt>0</asrwt>
<pdfrwt beam="1">  1        2 0.33781091E+00 0.70251981E+03</pdfrwt>
<pdfrwt beam="2">  1       -2 0.74539659E-02 0.70251981E+03</pdfrwt>
<totfact> 0.59050696E+02</totfact>
</mgrwt>
</event>
<event>
 4    1  0.1837449E-005  0.8115188E+03  0.7818608E-02  0.9543492E-01
         -2   -1    0    0    0  501 -0.00000000000E+00  0.00000000000E+00  0.18327167833E+03  0.18327167835E+03  0.25500000000E-02 0. -1.
          2   -1    0    0  501    0  0.00000000000E+00 -0.00000000000E+00 -0.89834218159E+03  0.89834218160E+03  0.25500000000E-02 0.  1.
    5000001    1    1    2    0    0 -0.23320791925E+03  0.20898623908E+03 -0.62194097989E+03  0.71560936564E+03  0.16500000000E+03 0.  0.
   -5000001    1    1    2    0    0  0.23320791925E+03 -0.20898623908E+03 -0.93129523376E+02  0.36600449431E+03  0.16500000000E+03 0.  0.
<mgrwt>
<rscale>  0 0.81151877E+03</rscale>
<asrwt>0</asrwt>
<pdfrwt beam="1">  1        2 0.12833459E+00 0.81151877E+03</pdfrwt>
<pdfrwt beam="2">  1       -2 0.26181669E-01 0.81151877E+03</pdfrwt>
<totfact> 0.43055841E+02</totfact>
</mgrwt>
</event>
<event>
 4    1  0.1837449E-005  0.3662152E+03  0.7818608E-02  0.1056150E+00
          2   -1    0    0  501    0  0.00000000000E+00  0.00000000000E+00  0.14158693368E+04  0.14158693368E+04  0.25500000000E-02 0.  1.
         -2   -1    0    0    0  501 -0.00000000000E+00 -0.00000000000E+00 -0.23680431705E+02  0.23680431842E+02  0.25500000000E-02 0. -1.
    5000001    1    1    2    0    0  0.30726924801E+02 -0.51675755204E+02  0.89992776696E+03  0.91690212855E+03  0.16500000000E+03 0.  0.
   -5000001    1    1    2    0    0 -0.30726924801E+02  0.51675755204E+02  0.49226113812E+03  0.52264764008E+03  0.16500000000E+03 0.  0.
<mgrwt>
<rscale>  0 0.36621522E+03</rscale>
<asrwt>0</asrwt>
<pdfrwt beam="1">  1        2 0.20226709E+00 0.36621522E+03</pdfrwt>
<pdfrwt beam="2">  1       -2 0.33829181E-02 0.36621522E+03</pdfrwt>
<totfact> 0.61202490E+03</totfact>
</mgrwt>
</event>
<event>
 4    1  0.1837449E-005  0.1520263E+04  0.7818608E-02  0.8871089E-01
          2   -1    0    0  501    0  0.00000000000E+00  0.00000000000E+00  0.42380772539E+03  0.42380772540E+03  0.25500000000E-02 0.  1.
         -2   -1    0    0    0  501 -0.00000000000E+00 -0.00000000000E+00 -0.13633535416E+04  0.13633535416E+04  0.25500000000E-02 0. -1.
    5000001    1    1    2    0    0  0.57242406125E+03 -0.32619431017E+00  0.85242851583E+02  0.60179793622E+03  0.16500000000E+03 0.  0.
   -5000001    1    1    2    0    0 -0.57242406125E+03  0.32619431017E+00 -0.10247886678E+04  0.11853633308E+04  0.16500000000E+03 0.  0.
<mgrwt>
<rscale>  0 0.15202628E+04</rscale>
<asrwt>0</asrwt>
<pdfrwt beam="1">  1        2 0.60543961E-01 0.15202628E+04</pdfrwt>
<pdfrwt beam="2">  1       -2 0.19476479E+00 0.15202628E+04</pdfrwt>
<totfact> 0.11271759E+01</totfact>
</mgrwt>
</event>
<event>
 4    1  0.1837449E-005  0.5363359E+03  0.7818608E-02  0.1004707E+00
          2   -1    0    0  501    0  0.00000000000E+00  0.00000000000E+00  0.30790372145E+03  0.30790372146E+03  0.25500000000E-02 0.  1.
         -2   -1    0    0    0  501 -0.00000000000E+00 -0.00000000000E+00 -0.23356019257E+03  0.23356019258E+03  0.25500000000E-02 0. -1.
    5000001    1    1    2    0    0 -0.14622601982E+03  0.62485715167E+02  0.17779656643E+03  0.29003988089E+03  0.16500000000E+03 0.  0.
   -5000001    1    1    2    0    0  0.14622601982E+03 -0.62485715167E+02 -0.10345303755E+03  0.25142403316E+03  0.16500000000E+03 0.  0.
<mgrwt>
<rscale>  0 0.53633591E+03</rscale>
<asrwt>0</asrwt>
<pdfrwt beam="1">  1        2 0.43986246E-01 0.53633591E+03</pdfrwt>
<pdfrwt beam="2">  1       -2 0.33365742E-01 0.53633591E+03</pdfrwt>
<totfact> 0.97413414E+02</totfact>
</mgrwt>
</event>
<event>
 4    1  0.1837449E-005  0.3517189E+03  0.7818608E-02  0.1061912E+00
          2   -1    0    0  501    0  0.00000000000E+00  0.00000000000E+00  0.10936315220E+03  0.10936315223E+03  0.25500000000E-02 0.  1.
         -2   -1    0    0    0  501 -0.00000000000E+00 -0.00000000000E+00 -0.28278768186E+03  0.28278768187E+03  0.25500000000E-02 0. -1.
    5000001    1    1    2    0    0 -0.58789452262E+02 -0.13685723783E+02 -0.78217099186E+02  0.19231852053E+03  0.16500000000E+03 0.  0.
   -5000001    1    1    2    0    0  0.58789452262E+02  0.13685723783E+02 -0.95207430468E+02  0.19983231358E+03  0.16500000000E+03 0.  0.
<mgrwt>
<rscale>  0 0.35171893E+03</rscale>
<asrwt>0</asrwt>
<pdfrwt beam="1">  1        2 0.15623308E-01 0.35171893E+03</pdfrwt>
<pdfrwt beam="2">  1       -2 0.40398240E-01 0.35171893E+03</pdfrwt>
<totfact> 0.21813096E+03</totfact>
</mgrwt>
</event>
<event>
 4    1  0.1837449E-005  0.7597670E+03  0.7818608E-02  0.9620151E-01
          2   -1    0    0  501    0  0.00000000000E+00  0.00000000000E+00  0.24014101396E+03  0.24014101397E+03  0.25500000000E-02 0.  1.
         -2   -1    0    0    0  501 -0.00000000000E+00 -0.00000000000E+00 -0.60094470381E+03  0.60094470382E+03  0.25500000000E-02 0. -1.
    5000001    1    1    2    0    0  0.31390782728E+03 -0.14295941972E+02 -0.33033805616E+03  0.48486155687E+03  0.16500000000E+03 0.  0.
   -5000001    1    1    2    0    0 -0.31390782728E+03  0.14295941972E+02 -0.30465633694E+02  0.35622416092E+03  0.16500000000E+03 0.  0.
<mgrwt>
<rscale>  0 0.75976699E+03</rscale>
<asrwt>0</asrwt>
<pdfrwt beam="1">  1        2 0.34305859E-01 0.75976699E+03</pdfrwt>
<pdfrwt beam="2">  1       -2 0.85849243E-01 0.75976699E+03</pdfrwt>
<totfact> 0.18169642E+02</totfact>
</mgrwt>
</event>
<event>
 4    1  0.1837449E-005  0.8654384E+03  0.7818608E-02  0.9469847E-01
          2   -1    0    0  501    0  0.00000000000E+00  0.00000000000E+00  0.10185573781E+04  0.10185573781E+04  0.25500000000E-02 0.  1.
         -2   -1    0    0    0  501 -0.00000000000E+00 -0.00000000000E+00 -0.18383440359E+03  0.18383440361E+03  0.25500000000E-02 0. -1.
    5000001    1    1    2    0    0 -0.36364809425E+03  0.13002127925E+03  0.56224963176E+03  0.70177996404E+03  0.16500000000E+03 0.  0.
   -5000001    1    1    2    0    0  0.36364809425E+03 -0.13002127925E+03  0.27247334278E+03  0.50061181771E+03  0.16500000000E+03 0.  0.
<mgrwt>
<rscale>  0 0.86543836E+03</rscale>
<asrwt>0</asrwt>
<pdfrwt beam="1">  1        2 0.14550820E+00 0.86543836E+03</pdfrwt>
<pdfrwt beam="2">  1       -2 0.26262058E-01 0.86543836E+03</pdfrwt>
<totfact> 0.35878622E+02</totfact>
</mgrwt>
</event>
<event>
 4    1  0.1837449E-005  0.3965757E+03  0.7818608E-02  0.1044972E+00
         -2   -1    0    0    0  501 -0.00000000000E+00  0.00000000000E+00  0.21235293839E+03  0.21235293841E+03  0.25500000000E-02 0. -1.
          2   -1    0    0  501    0  0.00000000000E+00 -0.00000000000E+00 -0.18515439294E+03  0.18515439296E+03  0.25500000000E-02 0.  1.
    5000001    1    1    2    0    0 -0.79526515585E+02  0.62747918197E+02  0.56493624486E+02  0.20168861526E+03  0.16500000000E+03 0.  0.
   -5000001    1    1    2    0    0  0.79526515585E+02 -0.62747918197E+02 -0.29295079035E+02  0.19581871610E+03  0.16500000000E+03 0.  0.
<mgrwt>
<rscale>  0 0.39657574E+03</rscale>
<asrwt>0</asrwt>
<pdfrwt beam="1">  1        2 0.26450627E-01 0.39657574E+03</pdfrwt>
<pdfrwt beam="2">  1       -2 0.30336134E-01 0.39657574E+03</pdfrwt>
<totfact> 0.20377541E+03</totfact>
</mgrwt>
</event>
<event>
 4    1  0.1837449E-005  0.4549003E+03  0.7818608E-02  0.1026271E+00
         -2   -1    0    0    0  501 -0.00000000000E+00  0.00000000000E+00  0.28185595444E+02  0.28185595559E+02  0.25500000000E-02 0. -1.
          2   -1    0    0  501    0  0.00000000000E+00 -0.00000000000E+00 -0.18354611877E+04  0.18354611877E+04  0.25500000000E-02 0.  1.
    5000001    1    1    2    0    0 -0.12712161419E+03 -0.58457725861E+02 -0.61594394479E+03  0.65283164264E+03  0.16500000000E+03 0.  0.
   -5000001    1    1    2    0    0  0.12712161419E+03  0.58457725861E+02 -0.11913316475E+04  0.12108151406E+04  0.16500000000E+03 0.  0.
<mgrwt>
<rscale>  0 0.45490028E+03</rscale>
<asrwt>0</asrwt>
<pdfrwt beam="1">  1        2 0.26220867E+00 0.45490028E+03</pdfrwt>
<pdfrwt beam="2">  1       -2 0.40265148E-02 0.45490028E+03</pdfrwt>
<totfact> 0.28814215E+03</totfact>
</mgrwt>
</event>
<event>
 4    1  0.1837449E-005  0.4995388E+03  0.7818608E-02  0.1013899E+00
          2   -1    0    0  501    0  0.00000000000E+00  0.00000000000E+00  0.11186689216E+03  0.11186689219E+03  0.25500000000E-02 0.  1.
         -2   -1    0    0    0  501 -0.00000000000E+00 -0.00000000000E+00 -0.55766941010E+03  0.55766941011E+03  0.25500000000E-02 0. -1.
    5000001    1    1    2    0    0  0.88979628997E+02  0.16503627278E+03 -0.22601529704E+03  0.33684159512E+03  0.16500000000E+03 0.  0.
   -5000001    1    1    2    0    0 -0.88979628997E+02 -0.16503627278E+03 -0.21978722090E+03  0.33269470717E+03  0.16500000000E+03 0.  0.
<mgrwt>
<rscale>  0 0.49953876E+03</rscale>
<asrwt>0</asrwt>
<pdfrwt beam="1">  1        2 0.15980985E-01 0.49953876E+03</pdfrwt>
<pdfrwt beam="2">  1       -2 0.79667057E-01 0.49953876E+03</pdfrwt>
<totfact> 0.52249779E+02</totfact>
</mgrwt>
</event>
<event>
 4    1  0.1837449E-005  0.5344562E+03  0.7818608E-02  0.1005157E+00
          2   -1    0    0  501    0  0.00000000000E+00  0.00000000000E+00  0.19564823998E+04  0.19564823998E+04  0.25500000000E-02 0.  1.
         -2   -1    0    0    0  501 -0.00000000000E+00 -0.00000000000E+00 -0.36499617037E+02  0.36499617126E+02  0.25500000000E-02 0. -1.
    5000001    1    1    2    0    0 -0.52443115820E+02 -0.17647220461E+03  0.13383165099E+04  0.13609587797E+04  0.16500000000E+03 0.  0.
   -5000001    1    1    2    0    0  0.52443115820E+02  0.17647220461E+03  0.58166627284E+03  0.63202323720E+03  0.16500000000E+03 0.  0.
<mgrwt>
<rscale>  0 0.53445620E+03</rscale>
<asrwt>0</asrwt>
<pdfrwt beam="1">  1        2 0.27949743E+00 0.53445620E+03</pdfrwt>
<pdfrwt beam="2">  1       -2 0.52142321E-02 0.53445620E+03</pdfrwt>
<totfact> 0.16797056E+03</totfact>
</mgrwt>
</event>
<event>
 4    1  0.1837449E-005  0.4975172E+03  0.7818608E-02  0.1014429E+00
          2   -1    0    0  501    0  0.00000000000E+00  0.00000000000E+00  0.51081974978E+03  0.51081974979E+03  0.25500000000E-02 0.  1.
         -2   -1    0    0    0  501 -0.00000000000E+00 -0.00000000000E+00 -0.12114028529E+03  0.12114028532E+03  0.25500000000E-02 0. -1.
    5000001    1    1    2    0    0 -0.14052959156E+01  0.59537639928E+02  0.41887970905E+03  0.45412764294E+03  0.16500000000E+03 0.  0.
   -5000001    1    1    2    0    0  0.14052959156E+01 -0.59537639928E+02 -0.29200244560E+02  0.17783239218E+03  0.16500000000E+03 0.  0.
<mgrwt>
<rscale>  0 0.49751724E+03</rscale>
<asrwt>0</asrwt>
<pdfrwt beam="1">  1        2 0.72974252E-01 0.49751724E+03</pdfrwt>
<pdfrwt beam="2">  1       -2 0.17305755E-01 0.49751724E+03</pdfrwt>
<totfact> 0.17906101E+03</totfact>
</mgrwt>
</event>
<event>
 4    1  0.1837449E-005  0.5761446E+03  0.7818608E-02  0.9956173E-01
         -2   -1    0    0    0  501 -0.00000000000E+00  0.00000000000E+00  0.25056812896E+02  0.25056813026E+02  0.25500000000E-02 0. -1.
          2   -1    0    0  501    0  0.00000000000E+00 -0.00000000000E+00 -0.33118991868E+04  0.33118991868E+04  0.25500000000E-02 0.  1.
    5000001    1    1    2    0    0  0.13025649795E+03  0.19503822809E+03 -0.14843846708E+04  0.15118298570E+04  0.16500000000E+03 0.  0.
   -5000001    1    1    2    0    0 -0.13025649795E+03 -0.19503822809E+03 -0.18024577031E+04  0.18251261428E+04  0.16500000000E+03 0.  0.
<mgrwt>
<rscale>  0 0.57614456E+03</rscale>
<asrwt>0</asrwt>
<pdfrwt beam="1">  1        2 0.47312818E+00 0.57614456E+03</pdfrwt>
<pdfrwt beam="2">  1       -2 0.35795468E-02 0.57614456E+03</pdfrwt>
<totfact> 0.58175463E+02</totfact>
</mgrwt>
</event>
<event>
 4    1  0.1837449E-005  0.6506173E+03  0.7818608E-02  0.9805621E-01
         -2   -1    0    0    0  501 -0.00000000000E+00  0.00000000000E+00  0.70611920344E+02  0.70611920390E+02  0.25500000000E-02 0. -1.
          2   -1    0    0  501    0  0.00000000000E+00 -0.00000000000E+00 -0.14986949346E+04  0.14986949346E+04  0.25500000000E-02 0.  1.
    5000001    1    1    2    0    0 -0.38188501498E+02  0.21892384432E+03 -0.11263127859E+04  0.11598239103E+04  0.16500000000E+03 0.  0.
   -5000001    1    1    2    0    0  0.38188501498E+02 -0.21892384432E+03 -0.30177022836E+03  0.40948294468E+03  0.16500000000E+03 0.  0.
<mgrwt>
<rscale>  0 0.65061733E+03</rscale>
<asrwt>0</asrwt>
<pdfrwt beam="1">  1        2 0.21409926E+00 0.65061733E+03</pdfrwt>
<pdfrwt beam="2">  1       -2 0.10087418E-01 0.65061733E+03</pdfrwt>
<totfact> 0.10040605E+03</totfact>
</mgrwt>
</event>
<event>
 4    1  0.1837449E-005  0.3695776E+03  0.7818608E-02  0.1054855E+00
          2   -1    0    0  501    0  0.00000000000E+00  0.00000000000E+00  0.64636291716E+03  0.64636291716E+03  0.25500000000E-02 0.  1.
         -2   -1    0    0    0  501 -0.00000000000E+00 -0.00000000000E+00 -0.52829311381E+02  0.52829311442E+02  0.25500000000E-02 0. -1.
    5000001    1    1    2    0    0  0.60572960424E+02  0.11407884374E+02  0.40248626820E+03  0.43933975400E+03  0.16500000000E+03 0.  0.
   -5000001    1    1    2    0    0 -0.60572960424E+02 -0.11407884374E+02  0.19104733758E+03  0.25985247460E+03  0.16500000000E+03 0.  0.
<mgrwt>
<rscale>  0 0.36957764E+03</rscale>
<asrwt>0</asrwt>
<pdfrwt beam="1">  1        2 0.92337553E-01 0.36957764E+03</pdfrwt>
<pdfrwt beam="2">  1       -2 0.75470450E-02 0.36957764E+03</pdfrwt>
<totfact> 0.52567626E+03</totfact>
</mgrwt>
</event>
<event>
 4    1  0.1837449E-005  0.5607077E+03  0.7818608E-02  0.9990455E-01
          2   -1    0    0  501    0  0.00000000000E+00  0.00000000000E+00  0.71170687686E+03  0.71170687686E+03  0.25500000000E-02 0. -1.
         -2   -1    0    0    0  501 -0.00000000000E+00 -0.00000000000E+00 -0.11043630193E+03  0.11043630196E+03  0.25500000000E-02 0.  1.
    5000001    1    1    2    0    0 -0.60873252820E+02 -0.21276484518E+03  0.37244974641E+03  0.46359275863E+03  0.16500000000E+03 0.  0.
   -5000001    1    1    2    0    0  0.60873252820E+02  0.21276484518E+03  0.22882082852E+03  0.35855042019E+03  0.16500000000E+03 0.  0.
<mgrwt>
<rscale>  0 0.56070768E+03</rscale>
<asrwt>0</asrwt>
<pdfrwt beam="1">  1        2 0.10167241E+00 0.56070768E+03</pdfrwt>
<pdfrwt beam="2">  1       -2 0.15776614E-01 0.56070768E+03</pdfrwt>
<totfact> 0.14185624E+03</totfact>
</mgrwt>
</event>
<event>
 4    1  0.1837449E-005  0.5060677E+03  0.7818608E-02  0.1012207E+00
          2   -1    0    0  501    0  0.00000000000E+00  0.00000000000E+00  0.97469943521E+03  0.97469943522E+03  0.25500000000E-02 0.  1.
         -2   -1    0    0    0  501 -0.00000000000E+00 -0.00000000000E+00 -0.65688065130E+02  0.65688065180E+02  0.25500000000E-02 0. -1.
    5000001    1    1    2    0    0  0.89757121836E+02  0.16684325500E+03  0.51645765684E+03  0.57432266538E+03  0.16500000000E+03 0.  0.
   -5000001    1    1    2    0    0 -0.89757121836E+02 -0.16684325500E+03  0.39255371325E+03  0.46606483502E+03  0.16500000000E+03 0.  0.
<mgrwt>
<rscale>  0 0.50606766E+03</rscale>
<asrwt>0</asrwt>
<pdfrwt beam="1">  1        2 0.13924277E+00 0.50606766E+03</pdfrwt>
<pdfrwt beam="2">  1       -2 0.93840097E-02 0.50606766E+03</pdfrwt>
<totfact> 0.22203466E+03</totfact>
</mgrwt>
</event>
<event>
 4    1  0.1837449E-005  0.6764304E+03  0.7818608E-02  0.9758411E-01
         -2   -1    0    0    0  501 -0.00000000000E+00  0.00000000000E+00  0.34207965404E+02  0.34207965499E+02  0.25500000000E-02 0. -1.
          2   -1    0    0  501    0  0.00000000000E+00 -0.00000000000E+00 -0.33439437071E+04  0.33439437071E+04  0.25500000000E-02 0.  1.
    5000001    1    1    2    0    0 -0.20354666512E+03 -0.20856432391E+03 -0.14188113644E+04  0.14578000582E+04  0.16500000000E+03 0.  0.
   -5000001    1    1    2    0    0  0.20354666512E+03  0.20856432391E+03 -0.18909243773E+04  0.19203516144E+04  0.16500000000E+03 0.  0.
<mgrwt>
<rscale>  0 0.67643037E+03</rscale>
<asrwt>0</asrwt>
<pdfrwt beam="1">  1        2 0.47770604E+00 0.67643037E+03</pdfrwt>
<pdfrwt beam="2">  1       -2 0.48868543E-02 0.67643037E+03</pdfrwt>
<totfact> 0.34138570E+02</totfact>
</mgrwt>
</event>
<event>
 4    1  0.1837449E-005  0.3906513E+03  0.7818608E-02  0.1047066E+00
          2   -1    0    0  501    0  0.00000000000E+00  0.00000000000E+00  0.66054135169E+03  0.66054135170E+03  0.25500000000E-02 0.  1.
         -2   -1    0    0    0  501 -0.00000000000E+00 -0.00000000000E+00 -0.57758837587E+02  0.57758837643E+02  0.25500000000E-02 0. -1.
    5000001    1    1    2    0    0  0.61787423763E+02  0.80701680812E+02  0.25647765266E+03  0.32145953607E+03  0.16500000000E+03 0.  0.
   -5000001    1    1    2    0    0 -0.61787423763E+02 -0.80701680812E+02  0.34630486145E+03  0.39684065326E+03  0.16500000000E+03 0.  0.
<mgrwt>
<rscale>  0 0.39065125E+03</rscale>
<asrwt>0</asrwt>
<pdfrwt beam="1">  1        2 0.94363041E-01 0.39065125E+03</pdfrwt>
<pdfrwt beam="2">  1       -2 0.82512633E-02 0.39065125E+03</pdfrwt>
<totfact> 0.44574236E+03</totfact>
</mgrwt>
</event>
<event>
 4    1  0.1837449E-005  0.4369168E+03  0.7818608E-02  0.1031697E+00
         -2   -1    0    0    0  501 -0.00000000000E+00  0.00000000000E+00  0.77135292415E+03  0.77135292416E+03  0.25500000000E-02 0.  1.
          2   -1    0    0  501    0  0.00000000000E+00 -0.00000000000E+00 -0.61870619113E+02  0.61870619166E+02  0.25500000000E-02 0. -1.
    5000001    1    1    2    0    0  0.14036343396E+03  0.26301255482E+02  0.37432291459E+03  0.43328546482E+03  0.16500000000E+03 0.  0.
   -5000001    1    1    2    0    0 -0.14036343396E+03 -0.26301255482E+02  0.33515939045E+03  0.39993807850E+03  0.16500000000E+03 0.  0.
<mgrwt>
<rscale>  0 0.43691685E+03</rscale>
<asrwt>0</asrwt>
<pdfrwt beam="1">  1        2 0.88386605E-02 0.43691685E+03</pdfrwt>
<pdfrwt beam="2">  1       -2 0.11019327E+00 0.43691685E+03</pdfrwt>
<totfact> 0.51376472E+02</totfact>
</mgrwt>
</event>
<event>
 4    1  0.1837449E-005  0.4931679E+03  0.7818608E-02  0.1015578E+00
          2   -1    0    0  501    0  0.00000000000E+00  0.00000000000E+00  0.17555511157E+04  0.17555511157E+04  0.25500000000E-02 0.  1.
         -2   -1    0    0    0  501 -0.00000000000E+00 -0.00000000000E+00 -0.34635072517E+02  0.34635072611E+02  0.25500000000E-02 0. -1.
    5000001    1    1    2    0    0 -0.11821319173E+03  0.42303355828E+02  0.13449568889E+04  0.13608445781E+04  0.16500000000E+03 0.  0.
   -5000001    1    1    2    0    0  0.11821319173E+03 -0.42303355828E+02  0.37595915428E+03  0.42934161026E+03  0.16500000000E+03 0.  0.
<mgrwt>
<rscale>  0 0.49316788E+03</rscale>
<asrwt>0</asrwt>
<pdfrwt beam="1">  1        2 0.25079310E+00 0.49316788E+03</pdfrwt>
<pdfrwt beam="2">  1       -2 0.49478660E-02 0.49316788E+03</pdfrwt>
<totfact> 0.23005122E+03</totfact>
</mgrwt>
</event>
<event>
 4    1  0.1837449E-005  0.5131743E+03  0.7818608E-02  0.1010396E+00
          2   -1    0    0  501    0  0.00000000000E+00  0.00000000000E+00  0.90325975094E+03  0.90325975095E+03  0.25500000000E-02 0.  1.
         -2   -1    0    0    0  501 -0.00000000000E+00 -0.00000000000E+00 -0.72888189935E+02  0.72888189979E+02  0.25500000000E-02 0. -1.
    5000001    1    1    2    0    0 -0.11771971287E+03 -0.10750307907E+03  0.19666617480E+03  0.30218773489E+03  0.16500000000E+03 0.  0.
   -5000001    1    1    2    0    0  0.11771971287E+03  0.10750307907E+03  0.63370538621E+03  0.67396020603E+03  0.16500000000E+03 0.  0.
<mgrwt>
<rscale>  0 0.51317431E+03</rscale>
<asrwt>0</asrwt>
<pdfrwt beam="1">  1        2 0.12903710E+00 0.51317431E+03</pdfrwt>
<pdfrwt beam="2">  1       -2 0.10412599E-01 0.51317431E+03</pdfrwt>
<totfact> 0.20811292E+03</totfact>
</mgrwt>
</event>
<event>
 4    1  0.1837449E-005  0.6843859E+03  0.7818608E-02  0.9744313E-01
         -2   -1    0    0    0  501 -0.00000000000E+00  0.00000000000E+00  0.64474651869E+02  0.64474651920E+02  0.25500000000E-02 0. -1.
          2   -1    0    0  501    0  0.00000000000E+00 -0.00000000000E+00 -0.18161556421E+04  0.18161556421E+04  0.25500000000E-02 0.  1.
    5000001    1    1    2    0    0 -0.27813999610E+03  0.11100871415E+03 -0.91333820888E+03  0.97524175251E+03  0.16500000000E+03 0.  0.
   -5000001    1    1    2    0    0  0.27813999610E+03 -0.11100871415E+03 -0.83834278137E+03  0.90538854152E+03  0.16500000000E+03 0.  0.
<mgrwt>
<rscale>  0 0.68438586E+03</rscale>
<asrwt>0</asrwt>
<pdfrwt beam="1">  1        2 0.25945077E+00 0.68438586E+03</pdfrwt>
<pdfrwt beam="2">  1       -2 0.92106657E-02 0.68438586E+03</pdfrwt>
<totfact> 0.79809529E+02</totfact>
</mgrwt>
</event>
<event>
 4    1  0.1837449E-005  0.6561723E+03  0.7818608E-02  0.9795266E-01
          2   -1    0    0  501    0  0.00000000000E+00  0.00000000000E+00  0.16322443507E+04  0.16322443507E+04  0.25500000000E-02 0.  1.
         -2   -1    0    0    0  501 -0.00000000000E+00 -0.00000000000E+00 -0.65946319138E+02  0.65946319188E+02  0.25500000000E-02 0. -1.
    5000001    1    1    2    0    0 -0.15855301313E+03  0.23506074102E+03  0.79553291945E+03  0.86051742334E+03  0.16500000000E+03 0.  0.
   -5000001    1    1    2    0    0  0.15855301313E+03 -0.23506074102E+03  0.77076511215E+03  0.83767324659E+03  0.16500000000E+03 0.  0.
<mgrwt>
<rscale>  0 0.65617225E+03</rscale>
<asrwt>0</asrwt>
<pdfrwt beam="1">  1        2 0.23317775E+00 0.65617225E+03</pdfrwt>
<pdfrwt beam="2">  1       -2 0.94209035E-02 0.65617225E+03</pdfrwt>
<totfact> 0.95629998E+02</totfact>
</mgrwt>
</event>
<event>
 4    1  0.1837449E-005  0.3492042E+03  0.7818608E-02  0.1062942E+00
         -2   -1    0    0    0  501 -0.00000000000E+00  0.00000000000E+00  0.80857326654E+01  0.80857330675E+01  0.25500000000E-02 0. -1.
          2   -1    0    0  501    0  0.00000000000E+00 -0.00000000000E+00 -0.37703313086E+04  0.37703313086E+04  0.25500000000E-02 0.  1.
    5000001    1    1    2    0    0  0.35470971749E+02  0.12624866336E+02 -0.14165752244E+04  0.14266492013E+04  0.16500000000E+03 0.  0.
   -5000001    1    1    2    0    0 -0.35470971749E+02 -0.12624866336E+02 -0.23456703516E+04  0.23517678404E+04  0.16500000000E+03 0.  0.
<mgrwt>
<rscale>  0 0.34920419E+03</rscale>
<asrwt>0</asrwt>
<pdfrwt beam="1">  1        2 0.53861763E+00 0.34920419E+03</pdfrwt>
<pdfrwt beam="2">  1       -2 0.11551071E-02 0.34920419E+03</pdfrwt>
<totfact> 0.17305454E+03</totfact>
</mgrwt>
</event>
<event>
 4    1  0.1837449E-005  0.5434262E+03  0.7818608E-02  0.1003027E+00
         -2   -1    0    0    0  501 -0.00000000000E+00  0.00000000000E+00  0.29441847985E+03  0.29441847986E+03  0.25500000000E-02 0. -1.
          2   -1    0    0  501    0  0.00000000000E+00 -0.00000000000E+00 -0.25075870177E+03  0.25075870179E+03  0.25500000000E-02 0.  1.
    5000001    1    1    2    0    0 -0.20529894342E+03  0.22318910111E+02 -0.41279134069E+02  0.26753458997E+03  0.16500000000E+03 0.  0.
   -5000001    1    1    2    0    0  0.20529894342E+03 -0.22318910111E+02  0.84938912148E+02  0.27764259168E+03  0.16500000000E+03 0.  0.
<mgrwt>
<rscale>  0 0.54342615E+03</rscale>
<asrwt>0</asrwt>
<pdfrwt beam="1">  1        2 0.35822672E-01 0.54342615E+03</pdfrwt>
<pdfrwt beam="2">  1       -2 0.42059783E-01 0.54342615E+03</pdfrwt>
<totfact> 0.78417354E+02</totfact>
</mgrwt>
</event>
<event>
 4    1  0.1837449E-005  0.5254897E+03  0.7818608E-02  0.1007332E+00
         -2   -1    0    0    0  501 -0.00000000000E+00  0.00000000000E+00  0.83655848798E+02  0.83655848837E+02  0.25500000000E-02 0. -1.
          2   -1    0    0  501    0  0.00000000000E+00 -0.00000000000E+00 -0.82522440566E+03  0.82522440566E+03  0.25500000000E-02 0.  1.
    5000001    1    1    2    0    0 -0.19795595678E+03 -0.50628840520E+01 -0.28263207347E+03  0.38251546710E+03  0.16500000000E+03 0.  0.
   -5000001    1    1    2    0    0  0.19795595678E+03  0.50628840520E+01 -0.45893648339E+03  0.52636478739E+03  0.16500000000E+03 0.  0.
<mgrwt>
<rscale>  0 0.52548967E+03</rscale>
<asrwt>0</asrwt>
<pdfrwt beam="1">  1        2 0.11788920E+00 0.52548967E+03</pdfrwt>
<pdfrwt beam="2">  1       -2 0.11950836E-01 0.52548967E+03</pdfrwt>
<totfact> 0.18709773E+03</totfact>
</mgrwt>
</event>
<event>
 4    1  0.1837449E-005  0.6543642E+03  0.7818608E-02  0.9798624E-01
         -2   -1    0    0    0  501 -0.00000000000E+00  0.00000000000E+00  0.21199804352E+03  0.21199804353E+03  0.25500000000E-02 0.  1.
          2   -1    0    0  501    0  0.00000000000E+00 -0.00000000000E+00 -0.50494861940E+03  0.50494861941E+03  0.25500000000E-02 0. -1.
    5000001    1    1    2    0    0 -0.21226007476E+03  0.18341278208E+03 -0.10966881857E+03  0.34343389136E+03  0.16500000000E+03 0.  0.
   -5000001    1    1    2    0    0  0.21226007476E+03 -0.18341278208E+03 -0.18328175731E+03  0.37351277158E+03  0.16500000000E+03 0.  0.
<mgrwt>
<rscale>  0 0.65436418E+03</rscale>
<asrwt>0</asrwt>
<pdfrwt beam="1">  1        2 0.72135517E-01 0.65436418E+03</pdfrwt>
<pdfrwt beam="2">  1       -2 0.30285435E-01 0.65436418E+03</pdfrwt>
<totfact> 0.67157875E+02</totfact>
</mgrwt>
</event>
<event>
 4    1  0.1837449E-005  0.4540983E+03  0.7818608E-02  0.1026507E+00
         -2   -1    0    0    0  501 -0.00000000000E+00  0.00000000000E+00  0.27234608503E+03  0.27234608504E+03  0.25500000000E-02 0. -1.
          2   -1    0    0  501    0  0.00000000000E+00 -0.00000000000E+00 -0.18928605385E+03  0.18928605387E+03  0.25500000000E-02 0.  1.
    5000001    1    1    2    0    0  0.11447731375E+02  0.15247225233E+03  0.10238211486E+02  0.22518583273E+03  0.16500000000E+03 0.  0.
   -5000001    1    1    2    0    0 -0.11447731375E+02 -0.15247225233E+03  0.72821819695E+02  0.23644630619E+03  0.16500000000E+03 0.  0.
<mgrwt>
<rscale>  0 0.45409830E+03</rscale>
<asrwt>0</asrwt>
<pdfrwt beam="1">  1        2 0.27040865E-01 0.45409830E+03</pdfrwt>
<pdfrwt beam="2">  1       -2 0.38906583E-01 0.45409830E+03</pdfrwt>
<totfact> 0.12478813E+03</totfact>
</mgrwt>
</event>
<event>
 4    1  0.1837449E-005  0.6537806E+03  0.7818608E-02  0.9799711E-01
          2   -1    0    0  501    0  0.00000000000E+00  0.00000000000E+00  0.19786713101E+04  0.19786713101E+04  0.25500000000E-02 0.  1.
         -2   -1    0    0    0  501 -0.00000000000E+00 -0.00000000000E+00 -0.54004550709E+02  0.54004550769E+02  0.25500000000E-02 0. -1.
    5000001    1    1    2    0    0  0.27450368340E+03 -0.57327494250E+02  0.86433269644E+03  0.92354465184E+03  0.16500000000E+03 0.  0.
   -5000001    1    1    2    0    0 -0.27450368340E+03  0.57327494250E+02  0.10603340629E+04  0.11091312090E+04  0.16500000000E+03 0.  0.
<mgrwt>
<rscale>  0 0.65378056E+03</rscale>
<asrwt>0</asrwt>
<pdfrwt beam="1">  1        2 0.28266733E+00 0.65378056E+03</pdfrwt>
<pdfrwt beam="2">  1       -2 0.77149358E-02 0.65378056E+03</pdfrwt>
<totfact> 0.87927598E+02</totfact>
</mgrwt>
</event>
<event>
 4    1  0.1837449E-005  0.8134179E+03  0.7818608E-02  0.9540796E-01
         -2   -1    0    0    0  501 -0.00000000000E+00  0.00000000000E+00  0.29235317504E+03  0.29235317505E+03  0.25500000000E-02 0.  1.
          2   -1    0    0  501    0  0.00000000000E+00 -0.00000000000E+00 -0.56579565504E+03  0.56579565505E+03  0.25500000000E-02 0. -1.
    5000001    1    1    2    0    0  0.95148087699E+02 -0.29863692908E+03  0.74145072118E+02  0.36188349745E+03  0.16500000000E+03 0.  0.
   -5000001    1    1    2    0    0 -0.95148087699E+02  0.29863692908E+03 -0.34758755212E+03  0.49626533265E+03  0.16500000000E+03 0.  0.
<mgrwt>
<rscale>  0 0.81341787E+03</rscale>
<asrwt>0</asrwt>
<pdfrwt beam="1">  1        2 0.80827950E-01 0.81341787E+03</pdfrwt>
<pdfrwt beam="2">  1       -2 0.41764739E-01 0.81341787E+03</pdfrwt>
<totfact> 0.31744465E+02</totfact>
</mgrwt>
</event>
<event>
 4    1  0.1837449E-005  0.3649689E+03  0.7818608E-02  0.1056634E+00
          2   -1    0    0  501    0  0.00000000000E+00  0.00000000000E+00  0.19967610758E+04  0.19967610758E+04  0.25500000000E-02 0.  1.
         -2   -1    0    0    0  501 -0.00000000000E+00 -0.00000000000E+00 -0.16677297521E+02  0.16677297716E+02  0.25500000000E-02 0. -1.
    5000001    1    1    2    0    0  0.53271274028E+02 -0.32141596732E+02  0.12490742601E+04  0.12614604307E+04  0.16500000000E+03 0.  0.
   -5000001    1    1    2    0    0 -0.53271274028E+02  0.32141596732E+02  0.73100951817E+03  0.75197794284E+03  0.16500000000E+03 0.  0.
<mgrwt>
<rscale>  0 0.36496892E+03</rscale>
<asrwt>0</asrwt>
<pdfrwt beam="1">  1        2 0.28525144E+00 0.36496892E+03</pdfrwt>
<pdfrwt beam="2">  1       -2 0.23824723E-02 0.36496892E+03</pdfrwt>
<totfact> 0.52944392E+03</totfact>
</mgrwt>
</event>
<event>
 4    1  0.1837449E-005  0.1107716E+04  0.7818608E-02  0.9197703E-01
          2   -1    0    0  501    0  0.00000000000E+00  0.00000000000E+00  0.15720070623E+04  0.15720070623E+04  0.25500000000E-02 0.  1.
         -2   -1    0    0    0  501 -0.00000000000E+00 -0.00000000000E+00 -0.19513837296E+03  0.19513837297E+03  0.25500000000E-02 0. -1.
    5000001    1    1    2    0    0  0.42019329993E+03 -0.16993085612E+03  0.11226826664E+04  0.12219166398E+04  0.16500000000E+03 0.  0.
   -5000001    1    1    2    0    0 -0.42019329993E+03  0.16993085612E+03  0.25418602295E+03  0.54522879549E+03  0.16500000000E+03 0.  0.
<mgrwt>
<rscale>  0 0.11077164E+04</rscale>
<asrwt>0</asrwt>
<pdfrwt beam="1">  1        2 0.22457243E+00 0.11077164E+04</pdfrwt>
<pdfrwt beam="2">  1       -2 0.27876911E-01 0.11077164E+04</pdfrwt>
<totfact> 0.15589788E+02</totfact>
</mgrwt>
</event>
<event>
 4    1  0.1837449E-005  0.4801355E+03  0.7818608E-02  0.1019098E+00
         -2   -1    0    0    0  501 -0.00000000000E+00  0.00000000000E+00  0.78761227412E+02  0.78761227453E+02  0.25500000000E-02 0. -1.
          2   -1    0    0  501    0  0.00000000000E+00 -0.00000000000E+00 -0.73173735471E+03  0.73173735471E+03  0.25500000000E-02 0.  1.
    5000001    1    1    2    0    0  0.96007243553E+02  0.79262370344E+02 -0.12038115878E+03  0.23919978586E+03  0.16500000000E+03 0.  0.
   -5000001    1    1    2    0    0 -0.96007243553E+02 -0.79262370344E+02 -0.53259496852E+03  0.57129879631E+03  0.16500000000E+03 0.  0.
<mgrwt>
<rscale>  0 0.48013553E+03</rscale>
<asrwt>0</asrwt>
<pdfrwt beam="1">  1        2 0.10453390E+00 0.48013553E+03</pdfrwt>
<pdfrwt beam="2">  1       -2 0.11251604E-01 0.48013553E+03</pdfrwt>
<totfact> 0.24012848E+03</totfact>
</mgrwt>
</event>
<event>
 4    1  0.1837449E-005  0.5522999E+03  0.7818608E-02  0.1000963E+00
          2   -1    0    0  501    0  0.00000000000E+00  0.00000000000E+00  0.72183335134E+03  0.72183335134E+03  0.25500000000E-02 0.  1.
         -2   -1    0    0    0  501 -0.00000000000E+00 -0.00000000000E+00 -0.10564598155E+03  0.10564598158E+03  0.25500000000E-02 0. -1.
    5000001    1    1    2    0    0 -0.14320813396E+02  0.20817870576E+03  0.19707870934E+03  0.33107170961E+03  0.16500000000E+03 0.  0.
   -5000001    1    1    2    0    0  0.14320813396E+02 -0.20817870576E+03  0.41910866044E+03  0.49640762332E+03  0.16500000000E+03 0.  0.
<mgrwt>
<rscale>  0 0.55229989E+03</rscale>
<asrwt>0</asrwt>
<pdfrwt beam="1">  1        2 0.10311905E+00 0.55229989E+03</pdfrwt>
<pdfrwt beam="2">  1       -2 0.15092283E-01 0.55229989E+03</pdfrwt>
<totfact> 0.15024435E+03</totfact>
</mgrwt>
</event>
<event>
 4    1  0.1837449E-005  0.4346122E+03  0.7818608E-02  0.1032413E+00
         -2   -1    0    0    0  501 -0.00000000000E+00  0.00000000000E+00  0.28858120516E+02  0.28858120629E+02  0.25500000000E-02 0. -1.
          2   -1    0    0  501    0  0.00000000000E+00 -0.00000000000E+00 -0.16363485630E+04  0.16363485630E+04  0.25500000000E-02 0.  1.
    5000001    1    1    2    0    0  0.35883098952E+02  0.11784023985E+03 -0.53765679540E+03  0.57573756917E+03  0.16500000000E+03 0.  0.
   -5000001    1    1    2    0    0 -0.35883098952E+02 -0.11784023985E+03 -0.10698336470E+04  0.10894691144E+04  0.16500000000E+03 0.  0.
<mgrwt>
<rscale>  0 0.43461221E+03</rscale>
<asrwt>0</asrwt>
<pdfrwt beam="1">  1        2 0.23376402E+00 0.43461221E+03</pdfrwt>
<pdfrwt beam="2">  1       -2 0.41225897E-02 0.43461221E+03</pdfrwt>
<totfact> 0.34997912E+03</totfact>
</mgrwt>
</event>
<event>
 4    1  0.1837449E-005  0.3872190E+03  0.7818608E-02  0.1048297E+00
          2   -1    0    0  501    0  0.00000000000E+00  0.00000000000E+00  0.25817577520E+04  0.25817577520E+04  0.25500000000E-02 0.  1.
         -2   -1    0    0    0  501 -0.00000000000E+00 -0.00000000000E+00 -0.14519040981E+02  0.14519041205E+02  0.25500000000E-02 0. -1.
    5000001    1    1    2    0    0 -0.49437504361E+02  0.83520927518E+02  0.14779275864E+04  0.14902733853E+04  0.16500000000E+03 0.  0.
   -5000001    1    1    2    0    0  0.49437504361E+02 -0.83520927518E+02  0.10893111246E+04  0.11060034079E+04  0.16500000000E+03 0.  0.
<mgrwt>
<rscale>  0 0.38721904E+03</rscale>
<asrwt>0</asrwt>
<pdfrwt beam="1">  1        2 0.36882306E+00 0.38721904E+03</pdfrwt>
<pdfrwt beam="2">  1       -2 0.20741458E-02 0.38721904E+03</pdfrwt>
<totfact> 0.33226060E+03</totfact>
</mgrwt>
</event>
<event>
 4    1  0.1837449E-005  0.8306224E+03  0.7818608E-02  0.9516720E-01
          2   -1    0    0  501    0  0.00000000000E+00  0.00000000000E+00  0.12072064860E+04  0.12072064860E+04  0.25500000000E-02 0.  1.
         -2   -1    0    0    0  501 -0.00000000000E+00 -0.00000000000E+00 -0.14287812911E+03  0.14287812914E+03  0.25500000000E-02 0. -1.
    5000001    1    1    2    0    0  0.17806970656E+03  0.27986941522E+03  0.22711586975E+03  0.43455992483E+03  0.16500000000E+03 0.  0.
   -5000001    1    1    2    0    0 -0.17806970656E+03 -0.27986941522E+03  0.83721248715E+03  0.91552469033E+03  0.16500000000E+03 0.  0.
<mgrwt>
<rscale>  0 0.83062243E+03</rscale>
<asrwt>0</asrwt>
<pdfrwt beam="1">  1        2 0.17245807E+00 0.83062243E+03</pdfrwt>
<pdfrwt beam="2">  1       -2 0.20411161E-01 0.83062243E+03</pdfrwt>
<totfact> 0.43704385E+02</totfact>
</mgrwt>
</event>
<event>
 4    1  0.1837449E-005  0.4299471E+03  0.7818608E-02  0.1033877E+00
          2   -1    0    0  501    0  0.00000000000E+00  0.00000000000E+00  0.97504416633E+03  0.97504416633E+03  0.25500000000E-02 0.  1.
         -2   -1    0    0    0  501 -0.00000000000E+00 -0.00000000000E+00 -0.47396438284E+02  0.47396438353E+02  0.25500000000E-02 0. -1.
    5000001    1    1    2    0    0  0.10121221905E+03  0.92789269312E+02  0.49143999982E+03  0.53627608114E+03  0.16500000000E+03 0.  0.
   -5000001    1    1    2    0    0 -0.10121221905E+03 -0.92789269312E+02  0.43620772823E+03  0.48616452354E+03  0.16500000000E+03 0.  0.
<mgrwt>
<rscale>  0 0.42994707E+03</rscale>
<asrwt>0</asrwt>
<pdfrwt beam="1">  1        2 0.13929202E+00 0.42994707E+03</pdfrwt>
<pdfrwt beam="2">  1       -2 0.67709199E-02 0.42994707E+03</pdfrwt>
<totfact> 0.37199577E+03</totfact>
</mgrwt>
</event>
<event>
 4    1  0.1837449E-005  0.5141496E+03  0.7818608E-02  0.1010150E+00
         -2   -1    0    0    0  501 -0.00000000000E+00  0.00000000000E+00  0.13016037050E+03  0.13016037052E+03  0.25500000000E-02 0. -1.
          2   -1    0    0  501    0  0.00000000000E+00 -0.00000000000E+00 -0.50773869039E+03  0.50773869040E+03  0.25500000000E-02 0.  1.
    5000001    1    1    2    0    0 -0.46804404960E+02 -0.18810618841E+03 -0.14426479582E+03  0.29259514991E+03  0.16500000000E+03 0.  0.
   -5000001    1    1    2    0    0  0.46804404960E+02  0.18810618841E+03 -0.23331352408E+03  0.34530391101E+03  0.16500000000E+03 0.  0.
<mgrwt>
<rscale>  0 0.51414961E+03</rscale>
<asrwt>0</asrwt>
<pdfrwt beam="1">  1        2 0.72534098E-01 0.51414961E+03</pdfrwt>
<pdfrwt beam="2">  1       -2 0.18594339E-01 0.51414961E+03</pdfrwt>
<totfact> 0.15945796E+03</totfact>
</mgrwt>
</event>
<event>
 4    1  0.1837449E-005  0.3815932E+03  0.7818608E-02  0.1050346E+00
         -2   -1    0    0    0  501 -0.00000000000E+00  0.00000000000E+00  0.72652425845E+02  0.72652425890E+02  0.25500000000E-02 0. -1.
          2   -1    0    0  501    0  0.00000000000E+00 -0.00000000000E+00 -0.50106157743E+03  0.50106157744E+03  0.25500000000E-02 0.  1.
    5000001    1    1    2    0    0  0.86094767434E+02 -0.41807814990E+02 -0.22060744229E+03  0.29163821075E+03  0.16500000000E+03 0.  0.
   -5000001    1    1    2    0    0 -0.86094767434E+02  0.41807814990E+02 -0.20780170929E+03  0.28207579258E+03  0.16500000000E+03 0.  0.
<mgrwt>
<rscale>  0 0.38159318E+03</rscale>
<asrwt>0</asrwt>
<pdfrwt beam="1">  1        2 0.71580223E-01 0.38159318E+03</pdfrwt>
<pdfrwt beam="2">  1       -2 0.10378918E-01 0.38159318E+03</pdfrwt>
<totfact> 0.42463970E+03</totfact>
</mgrwt>
</event>
<event>
 4    1  0.1837449E-005  0.6842993E+03  0.7818608E-02  0.9744466E-01
         -2   -1    0    0    0  501 -0.00000000000E+00  0.00000000000E+00  0.53773662204E+03  0.53773662205E+03  0.25500000000E-02 0. -1.
          2   -1    0    0  501    0  0.00000000000E+00 -0.00000000000E+00 -0.21770210618E+03  0.21770210619E+03  0.25500000000E-02 0.  1.
    5000001    1    1    2    0    0 -0.21664340125E+03 -0.20395076390E+03  0.19999092423E+03  0.39465383208E+03  0.16500000000E+03 0.  0.
   -5000001    1    1    2    0    0  0.21664340125E+03  0.20395076390E+03  0.12004359163E+03  0.36078489615E+03  0.16500000000E+03 0.  0.
<mgrwt>
<rscale>  0 0.68429934E+03</rscale>
<asrwt>0</asrwt>
<pdfrwt beam="1">  1        2 0.31100301E-01 0.68429934E+03</pdfrwt>
<pdfrwt beam="2">  1       -2 0.76819517E-01 0.68429934E+03</pdfrwt>
<totfact> 0.26114802E+02</totfact>
</mgrwt>
</event>
<event>
 4    1  0.1837449E-005  0.3827352E+03  0.7818608E-02  0.1049927E+00
          2   -1    0    0  501    0  0.00000000000E+00  0.00000000000E+00  0.12819552063E+04  0.12819552063E+04  0.25500000000E-02 0.  1.
         -2   -1    0    0    0  501 -0.00000000000E+00 -0.00000000000E+00 -0.28566961271E+02  0.28566961385E+02  0.25500000000E-02 0. -1.
    5000001    1    1    2    0    0 -0.42104898187E+02 -0.61300689211E+02  0.41379442394E+03  0.45164302523E+03  0.16500000000E+03 0.  0.
   -5000001    1    1    2    0    0  0.42104898187E+02  0.61300689211E+02  0.83959382104E+03  0.85887914242E+03  0.16500000000E+03 0.  0.
<mgrwt>
<rscale>  0 0.38273523E+03</rscale>
<asrwt>0</asrwt>
<pdfrwt beam="1">  1        2 0.18313644E+00 0.38273523E+03</pdfrwt>
<pdfrwt beam="2">  1       -2 0.40809948E-02 0.38273523E+03</pdfrwt>
<totfact> 0.54240019E+03</totfact>
</mgrwt>
</event>
<event>
 4    1  0.1837449E-005  0.4014235E+03  0.7818608E-02  0.1043288E+00
         -2   -1    0    0    0  501 -0.00000000000E+00  0.00000000000E+00  0.93563638545E+01  0.93563642020E+01  0.25500000000E-02 0. -1.
          2   -1    0    0  501    0  0.00000000000E+00 -0.00000000000E+00 -0.43056466013E+04  0.43056466013E+04  0.25500000000E-02 0.  1.
    5000001    1    1    2    0    0  0.34477005020E+02  0.10279217670E+03 -0.25365044801E+04  0.25441766592E+04  0.16500000000E+03 0.  0.
   -5000001    1    1    2    0    0 -0.34477005020E+02 -0.10279217670E+03 -0.17597857573E+04  0.17708263063E+04  0.16500000000E+03 0.  0.
<mgrwt>
<rscale>  0 0.40142345E+03</rscale>
<asrwt>0</asrwt>
<pdfrwt beam="1">  1        2 0.61509110E+00 0.40142345E+03</pdfrwt>
<pdfrwt beam="2">  1       -2 0.13366262E-02 0.40142345E+03</pdfrwt>
<totfact> 0.60889914E+02</totfact>
</mgrwt>
</event>
<event>
 4    1  0.1837449E-005  0.5983052E+03  0.7818608E-02  0.9908928E-01
         -2   -1    0    0    0  501 -0.00000000000E+00  0.00000000000E+00  0.59163895683E+03  0.59163895683E+03  0.25500000000E-02 0. -1.
          2   -1    0    0  501    0  0.00000000000E+00 -0.00000000000E+00 -0.15126166365E+03  0.15126166367E+03  0.25500000000E-02 0.  1.
    5000001    1    1    2    0    0  0.30703223318E+02  0.24743060888E+03  0.23277182986E+03  0.37890938086E+03  0.16500000000E+03 0.  0.
   -5000001    1    1    2    0    0 -0.30703223318E+02 -0.24743060888E+03  0.20760546332E+03  0.36399123964E+03  0.16500000000E+03 0.  0.
<mgrwt>
<rscale>  0 0.59830525E+03</rscale>
<asrwt>0</asrwt>
<pdfrwt beam="1">  1        2 0.21608809E-01 0.59830525E+03</pdfrwt>
<pdfrwt beam="2">  1       -2 0.84519850E-01 0.59830525E+03</pdfrwt>
<totfact> 0.32008338E+02</totfact>
</mgrwt>
</event>
<event>
 4    1  0.1837449E-005  0.7719661E+03  0.7818608E-02  0.9601506E-01
          2   -1    0    0  501    0  0.00000000000E+00  0.00000000000E+00  0.95387774368E+03  0.95387774368E+03  0.25500000000E-02 0.  1.
         -2   -1    0    0    0  501 -0.00000000000E+00 -0.00000000000E+00 -0.15618660594E+03  0.15618660596E+03  0.25500000000E-02 0. -1.
    5000001    1    1    2    0    0 -0.12244324006E+02  0.33366837153E+03  0.54459520009E+03  0.65976771487E+03  0.16500000000E+03 0.  0.
   -5000001    1    1    2    0    0  0.12244324006E+02 -0.33366837153E+03  0.25309593765E+03  0.45029663477E+03  0.16500000000E+03 0.  0.
<mgrwt>
<rscale>  0 0.77196613E+03</rscale>
<asrwt>0</asrwt>
<pdfrwt beam="1">  1        2 0.13626825E+00 0.77196613E+03</pdfrwt>
<pdfrwt beam="2">  1       -2 0.22312372E-01 0.77196613E+03</pdfrwt>
<totfact> 0.52941613E+02</totfact>
</mgrwt>
</event>
<event>
 4    1  0.1837449E-005  0.5484369E+03  0.7818608E-02  0.1001856E+00
          2   -1    0    0  501    0  0.00000000000E+00  0.00000000000E+00  0.10037214781E+04  0.10037214781E+04  0.25500000000E-02 0.  1.
         -2   -1    0    0    0  501 -0.00000000000E+00 -0.00000000000E+00 -0.74916968925E+02  0.74916968969E+02  0.25500000000E-02 0. -1.
    5000001    1    1    2    0    0  0.30488061918E+02  0.17001728387E+03  0.19954466156E+03  0.31125306535E+03  0.16500000000E+03 0.  0.
   -5000001    1    1    2    0    0 -0.30488061918E+02 -0.17001728387E+03  0.72925984763E+03  0.76738538173E+03  0.16500000000E+03 0.  0.
<mgrwt>
<rscale>  0 0.54843695E+03</rscale>
<asrwt>0</asrwt>
<pdfrwt beam="1">  1        2 0.14338878E+00 0.54843695E+03</pdfrwt>
<pdfrwt beam="2">  1       -2 0.10702424E-01 0.54843695E+03</pdfrwt>
<totfact> 0.17229756E+03</totfact>
</mgrwt>
</event>
<event>
 4    1  0.1837449E-005  0.4863686E+03  0.7818608E-02  0.1017399E+00
          2   -1    0    0  501    0  0.00000000000E+00  0.00000000000E+00  0.19972790535E+04  0.19972790535E+04  0.25500000000E-02 0.  1.
         -2   -1    0    0    0  501 -0.00000000000E+00 -0.00000000000E+00 -0.29609585951E+02  0.29609586061E+02  0.25500000000E-02 0. -1.
    5000001    1    1    2    0    0  0.11298814710E+03  0.26620559451E+02  0.41794908456E+03  0.46409203059E+03  0.16500000000E+03 0.  0.
   -5000001    1    1    2    0    0 -0.11298814710E+03 -0.26620559451E+02  0.15497203829E+04  0.15627966089E+04  0.16500000000E+03 0.  0.
<mgrwt>
<rscale>  0 0.48636861E+03</rscale>
<asrwt>0</asrwt>
<pdfrwt beam="1">  1        2 0.28532567E+00 0.48636861E+03</pdfrwt>
<pdfrwt beam="2">  1       -2 0.42299396E-02 0.48636861E+03</pdfrwt>
<totfact> 0.22170318E+03</totfact>
</mgrwt>
</event>
<event>
 4    1  0.1837449E-005  0.4770142E+03  0.7818608E-02  0.1019959E+00
          2   -1    0    0  501    0  0.00000000000E+00  0.00000000000E+00  0.14877342474E+04  0.14877342474E+04  0.25500000000E-02 0.  1.
         -2   -1    0    0    0  501 -0.00000000000E+00 -0.00000000000E+00 -0.38236423836E+02  0.38236423921E+02  0.25500000000E-02 0. -1.
    5000001    1    1    2    0    0  0.69920220810E+02  0.10373612935E+03  0.11034037273E+04  0.11226641560E+04  0.16500000000E+03 0.  0.
   -5000001    1    1    2    0    0 -0.69920220810E+02 -0.10373612935E+03  0.34609409626E+03  0.40330651529E+03  0.16500000000E+03 0.  0.
<mgrwt>
<rscale>  0 0.47701420E+03</rscale>
<asrwt>0</asrwt>
<pdfrwt beam="1">  1        2 0.21253348E+00 0.47701420E+03</pdfrwt>
<pdfrwt beam="2">  1       -2 0.54623459E-02 0.47701420E+03</pdfrwt>
<totfact> 0.27033317E+03</totfact>
</mgrwt>
</event>
<event>
 4    1  0.1837449E-005  0.4546644E+03  0.7818608E-02  0.1026340E+00
          2   -1    0    0  501    0  0.00000000000E+00  0.00000000000E+00  0.68342403909E+03  0.68342403909E+03  0.25500000000E-02 0.  1.
         -2   -1    0    0    0  501 -0.00000000000E+00 -0.00000000000E+00 -0.75619118118E+02  0.75619118161E+02  0.25500000000E-02 0. -1.
    5000001    1    1    2    0    0  0.15420725757E+03 -0.25574883609E+02  0.31154744834E+03  0.38564331386E+03  0.16500000000E+03 0.  0.
   -5000001    1    1    2    0    0 -0.15420725757E+03  0.25574883609E+02  0.29625747263E+03  0.37339984340E+03  0.16500000000E+03 0.  0.
<mgrwt>
<rscale>  0 0.45466437E+03</rscale>
<asrwt>0</asrwt>
<pdfrwt beam="1">  1        2 0.97632007E-01 0.45466437E+03</pdfrwt>
<pdfrwt beam="2">  1       -2 0.10802731E-01 0.45466437E+03</pdfrwt>
<totfact> 0.27866489E+03</totfact>
</mgrwt>
</event>
<event>
 4    1  0.1837449E-005  0.7818165E+03  0.7818608E-02  0.9586716E-01
          2   -1    0    0  501    0  0.00000000000E+00  0.00000000000E+00  0.10060019514E+04  0.10060019514E+04  0.25500000000E-02 0.  1.
         -2   -1    0    0    0  501 -0.00000000000E+00 -0.00000000000E+00 -0.15189758019E+03  0.15189758021E+03  0.25500000000E-02 0. -1.
    5000001    1    1    2    0    0 -0.68069447632E+02 -0.24217659960E+03  0.79672253853E+03  0.85163064676E+03  0.16500000000E+03 0.  0.
   -5000001    1    1    2    0    0  0.68069447632E+02  0.24217659960E+03  0.57381832647E+02  0.30626888483E+03  0.16500000000E+03 0.  0.
<mgrwt>
<rscale>  0 0.78181651E+03</rscale>
<asrwt>0</asrwt>
<pdfrwt beam="1">  1        2 0.14371456E+00 0.78181651E+03</pdfrwt>
<pdfrwt beam="2">  1       -2 0.21699655E-01 0.78181651E+03</pdfrwt>
<totfact> 0.51603067E+02</totfact>
</mgrwt>
</event>
<event>
 4    1  0.1837449E-005  0.4602685E+03  0.7818608E-02  0.1024703E+00
         -2   -1    0    0    0  501 -0.00000000000E+00  0.00000000000E+00  0.51959051121E+02  0.51959051184E+02  0.25500000000E-02 0. -1.
          2   -1    0    0  501    0  0.00000000000E+00 -0.00000000000E+00 -0.10192981334E+04  0.10192981334E+04  0.25500000000E-02 0.  1.
    5000001    1    1    2    0    0 -0.55385356660E+02  0.14431165384E+03 -0.58359798091E+03  0.62586339923E+03  0.16500000000E+03 0.  0.
   -5000001    1    1    2    0    0  0.55385356660E+02 -0.14431165384E+03 -0.38374110141E+03  0.44539378540E+03  0.16500000000E+03 0.  0.
<mgrwt>
<rscale>  0 0.46026846E+03</rscale>
<asrwt>0</asrwt>
<pdfrwt beam="1">  1        2 0.14561401E+00 0.46026846E+03</pdfrwt>
<pdfrwt beam="2">  1       -2 0.74227222E-02 0.46026846E+03</pdfrwt>
<totfact> 0.30293083E+03</totfact>
</mgrwt>
</event>
<event>
 4    1  0.1837449E-005  0.4153164E+03  0.7818608E-02  0.1038602E+00
         -2   -1    0    0    0  501 -0.00000000000E+00  0.00000000000E+00  0.22257362126E+03  0.22257362127E+03  0.25500000000E-02 0. -1.
          2   -1    0    0  501    0  0.00000000000E+00 -0.00000000000E+00 -0.19374234312E+03  0.19374234314E+03  0.25500000000E-02 0.  1.
    5000001    1    1    2    0    0 -0.10032060063E+03 -0.75751850458E+02  0.24153396809E+02  0.20883235462E+03  0.16500000000E+03 0.  0.
   -5000001    1    1    2    0    0  0.10032060063E+03  0.75751850458E+02  0.46778813224E+01  0.20748360979E+03  0.16500000000E+03 0.  0.
<mgrwt>
<rscale>  0 0.41531643E+03</rscale>
<asrwt>0</asrwt>
<pdfrwt beam="1">  1        2 0.27677478E-01 0.41531643E+03</pdfrwt>
<pdfrwt beam="2">  1       -2 0.31796232E-01 0.41531643E+03</pdfrwt>
<totfact> 0.17770927E+03</totfact>
</mgrwt>
</event>
<event>
 4    1  0.1837449E-005  0.3398939E+03  0.7818608E-02  0.1066841E+00
         -2   -1    0    0    0  501 -0.00000000000E+00  0.00000000000E+00  0.34053391014E+02  0.34053391110E+02  0.25500000000E-02 0. -1.
          2   -1    0    0  501    0  0.00000000000E+00 -0.00000000000E+00 -0.84813771087E+03  0.84813771088E+03  0.25500000000E-02 0.  1.
    5000001    1    1    2    0    0 -0.31179450314E+02 -0.17544393028E+02 -0.35664677926E+03  0.39459078677E+03  0.16500000000E+03 0.  0.
   -5000001    1    1    2    0    0  0.31179450314E+02  0.17544393028E+02 -0.45743754060E+03  0.48760031522E+03  0.16500000000E+03 0.  0.
<mgrwt>
<rscale>  0 0.33989390E+03</rscale>
<asrwt>0</asrwt>
<pdfrwt beam="1">  1        2 0.12116252E+00 0.33989390E+03</pdfrwt>
<pdfrwt beam="2">  1       -2 0.48647707E-02 0.33989390E+03</pdfrwt>
<totfact> 0.74239985E+03</totfact>
</mgrwt>
</event>
<event>
 4    1  0.1837449E-005  0.4417060E+03  0.7818608E-02  0.1030225E+00
          2   -1    0    0  501    0  0.00000000000E+00  0.00000000000E+00  0.39484019318E+02  0.39484019400E+02  0.25500000000E-02 0.  1.
         -2   -1    0    0    0  501 -0.00000000000E+00 -0.00000000000E+00 -0.12353364463E+04  0.12353364463E+04  0.25500000000E-02 0. -1.
    5000001    1    1    2    0    0  0.79364517447E+02  0.69052830023E+02 -0.30241101889E+03  0.36020056123E+03  0.16500000000E+03 0.  0.
   -5000001    1    1    2    0    0 -0.79364517447E+02 -0.69052830023E+02 -0.89344140805E+03  0.91461990443E+03  0.16500000000E+03 0.  0.
<mgrwt>
<rscale>  0 0.44170600E+03</rscale>
<asrwt>0</asrwt>
<pdfrwt beam="1">  1        2 0.56405750E-02 0.44170600E+03</pdfrwt>
<pdfrwt beam="2">  1       -2 0.17647661E+00 0.44170600E+03</pdfrwt>
<totfact> 0.27557480E+02</totfact>
</mgrwt>
</event>
<event>
 4    1  0.1837449E-005  0.5541699E+03  0.7818608E-02  0.1000533E+00
         -2   -1    0    0    0  501 -0.00000000000E+00  0.00000000000E+00  0.23110319550E+03  0.23110319552E+03  0.25500000000E-02 0. -1.
          2   -1    0    0  501    0  0.00000000000E+00 -0.00000000000E+00 -0.33221551649E+03  0.33221551650E+03  0.25500000000E-02 0.  1.
    5000001    1    1    2    0    0  0.19512416105E+03 -0.21669024758E+02 -0.15720769051E+03  0.30080266424E+03  0.16500000000E+03 0.  0.
   -5000001    1    1    2    0    0 -0.19512416105E+03  0.21669024758E+02  0.56095369517E+02  0.26251604778E+03  0.16500000000E+03 0.  0.
<mgrwt>
<rscale>  0 0.55416989E+03</rscale>
<asrwt>0</asrwt>
<pdfrwt beam="1">  1        2 0.47459359E-01 0.55416989E+03</pdfrwt>
<pdfrwt beam="2">  1       -2 0.33014742E-01 0.55416989E+03</pdfrwt>
<totfact> 0.91384149E+02</totfact>
</mgrwt>
</event>
<event>
 4    1  0.1837449E-005  0.4703056E+03  0.7818608E-02  0.1021834E+00
         -2   -1    0    0    0  501 -0.00000000000E+00  0.00000000000E+00  0.33725486107E+02  0.33725486203E+02  0.25500000000E-02 0. -1.
          2   -1    0    0  501    0  0.00000000000E+00 -0.00000000000E+00 -0.16396159916E+04  0.16396159916E+04  0.25500000000E-02 0.  1.
    5000001    1    1    2    0    0 -0.11723908387E+03  0.11875829546E+03 -0.85611435901E+03  0.88769664369E+03  0.16500000000E+03 0.  0.
   -5000001    1    1    2    0    0  0.11723908387E+03 -0.11875829546E+03 -0.74977614652E+03  0.78564483414E+03  0.16500000000E+03 0.  0.
<mgrwt>
<rscale>  0 0.47030563E+03</rscale>
<asrwt>0</asrwt>
<pdfrwt beam="1">  1        2 0.23423081E+00 0.47030563E+03</pdfrwt>
<pdfrwt beam="2">  1       -2 0.48179276E-02 0.47030563E+03</pdfrwt>
<totfact> 0.27441188E+03</totfact>
</mgrwt>
</event>
<event>
 4    1  0.1837449E-005  0.4081192E+03  0.7818608E-02  0.1041004E+00
         -2   -1    0    0    0  501 -0.00000000000E+00  0.00000000000E+00  0.63023381291E+02  0.63023381343E+02  0.25500000000E-02 0. -1.
          2   -1    0    0  501    0  0.00000000000E+00 -0.00000000000E+00 -0.66071219227E+03  0.66071219227E+03  0.25500000000E-02 0.  1.
    5000001    1    1    2    0    0 -0.44941557116E+02  0.95038567001E+02 -0.40168677635E+03  0.44679899179E+03  0.16500000000E+03 0.  0.
   -5000001    1    1    2    0    0  0.44941557116E+02 -0.95038567001E+02 -0.19600203463E+03  0.27693658182E+03  0.16500000000E+03 0.  0.
<mgrwt>
<rscale>  0 0.40811918E+03</rscale>
<asrwt>0</asrwt>
<pdfrwt beam="1">  1        2 0.94387452E-01 0.40811918E+03</pdfrwt>
<pdfrwt beam="2">  1       -2 0.90033406E-02 0.40811918E+03</pdfrwt>
<totfact> 0.38832019E+03</totfact>
</mgrwt>
</event>
<event>
 4    1  0.1837449E-005  0.9517956E+03  0.7818608E-02  0.9363054E-01
         -2   -1    0    0    0  501 -0.00000000000E+00  0.00000000000E+00  0.92395757798E+02  0.92395757833E+02  0.25500000000E-02 0. -1.
          2   -1    0    0  501    0  0.00000000000E+00 -0.00000000000E+00 -0.24511808406E+04  0.24511808406E+04  0.25500000000E-02 0.  1.
    5000001    1    1    2    0    0 -0.35592753447E+03 -0.80101525111E+02 -0.18667395697E+04  0.19091993833E+04  0.16500000000E+03 0.  0.
   -5000001    1    1    2    0    0  0.35592753447E+03  0.80101525111E+02 -0.49204551312E+03  0.63437721515E+03  0.16500000000E+03 0.  0.
<mgrwt>
<rscale>  0 0.95179559E+03</rscale>
<asrwt>0</asrwt>
<pdfrwt beam="1">  1        2 0.35016865E+00 0.95179559E+03</pdfrwt>
<pdfrwt beam="2">  1       -2 0.13199395E-01 0.95179559E+03</pdfrwt>
<totfact> 0.20598000E+02</totfact>
</mgrwt>
</event>
<event>
 4    1  0.1837449E-005  0.5496490E+03  0.7818608E-02  0.1001575E+00
         -2   -1    0    0    0  501 -0.00000000000E+00  0.00000000000E+00  0.20049011494E+03  0.20049011495E+03  0.25500000000E-02 0. -1.
          2   -1    0    0  501    0  0.00000000000E+00 -0.00000000000E+00 -0.37671934840E+03  0.37671934841E+03  0.25500000000E-02 0.  1.
    5000001    1    1    2    0    0 -0.17136366833E+03 -0.11892034198E+03 -0.15389342772E+02  0.26640080036E+03  0.16500000000E+03 0.  0.
   -5000001    1    1    2    0    0  0.17136366833E+03  0.11892034198E+03 -0.16083989069E+03  0.31080866300E+03  0.16500000000E+03 0.  0.
<mgrwt>
<rscale>  0 0.54964900E+03</rscale>
<asrwt>0</asrwt>
<pdfrwt beam="1">  1        2 0.53817050E-01 0.54964900E+03</pdfrwt>
<pdfrwt beam="2">  1       -2 0.28641445E-01 0.54964900E+03</pdfrwt>
<totfact> 0.10349598E+03</totfact>
</mgrwt>
</event>
<event>
 4    1  0.1837449E-005  0.1004530E+04  0.7818608E-02  0.9303590E-01
          2   -1    0    0  501    0  0.00000000000E+00  0.00000000000E+00  0.22665516591E+03  0.22665516593E+03  0.25500000000E-02 0. -1.
         -2   -1    0    0    0  501 -0.00000000000E+00 -0.00000000000E+00 -0.11130134354E+04  0.11130134354E+04  0.25500000000E-02 0.  1.
    5000001    1    1    2    0    0  0.32526340327E+03 -0.22866425232E+03 -0.78828103816E+03  0.89816235554E+03  0.16500000000E+03 0.  0.
   -5000001    1    1    2    0    0 -0.32526340327E+03  0.22866425232E+03 -0.98077231370E+02  0.44150624583E+03  0.16500000000E+03 0.  0.
<mgrwt>
<rscale>  0 0.10045302E+04</rscale>
<asrwt>0</asrwt>
<pdfrwt beam="1">  1        2 0.32379310E-01 0.10045302E+04</pdfrwt>
<pdfrwt beam="2">  1       -2 0.15900192E+00 0.10045302E+04</pdfrwt>
<totfact> 0.41758444E+01</totfact>
</mgrwt>
</event>
<event>
 4    1  0.1837449E-005  0.3966823E+03  0.7818608E-02  0.1044935E+00
          2   -1    0    0  501    0  0.00000000000E+00  0.00000000000E+00  0.57073230063E+03  0.57073230064E+03  0.25500000000E-02 0.  1.
         -2   -1    0    0    0  501 -0.00000000000E+00 -0.00000000000E+00 -0.68927606478E+02  0.68927606525E+02  0.25500000000E-02 0. -1.
    5000001    1    1    2    0    0 -0.10494961388E+03  0.43388805993E+01  0.30391895599E+03  0.36142077853E+03  0.16500000000E+03 0.  0.
   -5000001    1    1    2    0    0  0.10494961388E+03 -0.43388805993E+01  0.19788573816E+03  0.27823912864E+03  0.16500000000E+03 0.  0.
<mgrwt>
<rscale>  0 0.39668230E+03</rscale>
<asrwt>0</asrwt>
<pdfrwt beam="1">  1        2 0.81533191E-01 0.39668230E+03</pdfrwt>
<pdfrwt beam="2">  1       -2 0.98468003E-02 0.39668230E+03</pdfrwt>
<totfact> 0.39899999E+03</totfact>
</mgrwt>
</event>
<event>
 4    1  0.1837449E-005  0.3893455E+03  0.7818608E-02  0.1047533E+00
         -2   -1    0    0    0  501 -0.00000000000E+00  0.00000000000E+00  0.47052538149E+02  0.47052538218E+02  0.25500000000E-02 0. -1.
          2   -1    0    0  501    0  0.00000000000E+00 -0.00000000000E+00 -0.80542887024E+03  0.80542887024E+03  0.25500000000E-02 0.  1.
    5000001    1    1    2    0    0  0.62400978094E+01  0.10299455815E+03 -0.39027824114E+03  0.43610655044E+03  0.16500000000E+03 0.  0.
   -5000001    1    1    2    0    0 -0.62400978094E+01 -0.10299455815E+03 -0.36809809095E+03  0.41637485802E+03  0.16500000000E+03 0.  0.
<mgrwt>
<rscale>  0 0.38934546E+03</rscale>
<asrwt>0</asrwt>
<pdfrwt beam="1">  1        2 0.11506126E+00 0.38934546E+03</pdfrwt>
<pdfrwt beam="2">  1       -2 0.67217917E-02 0.38934546E+03</pdfrwt>
<totfact> 0.48276796E+03</totfact>
</mgrwt>
</event>
<event>
 4    1  0.1837449E-005  0.8368332E+03  0.7818608E-02  0.9508181E-01
          2   -1    0    0  501    0  0.00000000000E+00  0.00000000000E+00  0.33286196205E+04  0.33286196205E+04  0.25500000000E-02 0.  1.
         -2   -1    0    0    0  501 -0.00000000000E+00 -0.00000000000E+00 -0.52596116124E+02  0.52596116186E+02  0.25500000000E-02 0. -1.
    5000001    1    1    2    0    0 -0.29172835813E+03  0.28032380004E+02  0.63229333673E+03  0.71617812933E+03  0.16500000000E+03 0.  0.
   -5000001    1    1    2    0    0  0.29172835813E+03 -0.28032380004E+02  0.26437301676E+04  0.26650376073E+04  0.16500000000E+03 0.  0.
<mgrwt>
<rscale>  0 0.83683323E+03</rscale>
<asrwt>0</asrwt>
<pdfrwt beam="1">  1        2 0.47551708E+00 0.83683323E+03</pdfrwt>
<pdfrwt beam="2">  1       -2 0.75137311E-02 0.83683323E+03</pdfrwt>
<totfact> 0.17396098E+02</totfact>
</mgrwt>
</event>
<event>
 4    1  0.1837449E-005  0.3623624E+03  0.7818608E-02  0.1057652E+00
          2   -1    0    0  501    0  0.00000000000E+00  0.00000000000E+00  0.40156947325E+04  0.40156947325E+04  0.25500000000E-02 0.  1.
         -2   -1    0    0    0  501 -0.00000000000E+00 -0.00000000000E+00 -0.81745820477E+01  0.81745824455E+01  0.25500000000E-02 0. -1.
    5000001    1    1    2    0    0 -0.64635907007E+02 -0.30839819396E+02  0.17623206360E+04  0.17714761977E+04  0.16500000000E+03 0.  0.
   -5000001    1    1    2    0    0  0.64635907007E+02  0.30839819396E+02  0.22451995144E+04  0.22523931172E+04  0.16500000000E+03 0.  0.
<mgrwt>
<rscale>  0 0.36236240E+03</rscale>
<asrwt>0</asrwt>
<pdfrwt beam="1">  1        2 0.57366912E+00 0.36236240E+03</pdfrwt>
<pdfrwt beam="2">  1       -2 0.11678006E-02 0.36236240E+03</pdfrwt>
<totfact> 0.11844176E+03</totfact>
</mgrwt>
</event>
<event>
 4    1  0.1837449E-005  0.5590466E+03  0.7818608E-02  0.9994214E-01
         -2   -1    0    0    0  501 -0.00000000000E+00  0.00000000000E+00  0.72767532849E+02  0.72767532894E+02  0.25500000000E-02 0. -1.
          2   -1    0    0  501    0  0.00000000000E+00 -0.00000000000E+00 -0.10737382000E+04  0.10737382000E+04  0.25500000000E-02 0.  1.
    5000001    1    1    2    0    0  0.13470656135E+03  0.18071044453E+03 -0.52161551424E+03  0.59170082569E+03  0.16500000000E+03 0.  0.
   -5000001    1    1    2    0    0 -0.13470656135E+03 -0.18071044453E+03 -0.47935515291E+03  0.55480490720E+03  0.16500000000E+03 0.  0.
<mgrwt>
<rscale>  0 0.55904662E+03</rscale>
<asrwt>0</asrwt>
<pdfrwt beam="1">  1        2 0.15339116E+00 0.55904662E+03</pdfrwt>
<pdfrwt beam="2">  1       -2 0.10395362E-01 0.55904662E+03</pdfrwt>
<totfact> 0.16406373E+03</totfact>
</mgrwt>
</event>
<event>
 4    1  0.1837449E-005  0.4403718E+03  0.7818608E-02  0.1030633E+00
          2   -1    0    0  501    0  0.00000000000E+00  0.00000000000E+00  0.17488201260E+04  0.17488201260E+04  0.25500000000E-02 0.  1.
         -2   -1    0    0    0  501 -0.00000000000E+00 -0.00000000000E+00 -0.27722596260E+02  0.27722596377E+02  0.25500000000E-02 0. -1.
    5000001    1    1    2    0    0  0.48651276279E+02  0.13505736739E+03  0.96335292339E+03  0.98786704276E+03  0.16500000000E+03 0.  0.
   -5000001    1    1    2    0    0 -0.48651276279E+02 -0.13505736739E+03  0.75774460635E+03  0.78867567962E+03  0.16500000000E+03 0.  0.
<mgrwt>
<rscale>  0 0.44037182E+03</rscale>
<asrwt>0</asrwt>
<pdfrwt beam="1">  1        2 0.24983150E+00 0.44037182E+03</pdfrwt>
<pdfrwt beam="2">  1       -2 0.39603700E-02 0.44037182E+03</pdfrwt>
<totfact> 0.32660027E+03</totfact>
</mgrwt>
</event>
<event>
 4    1  0.1837449E-005  0.6301326E+03  0.7818608E-02  0.9844790E-01
          2   -1    0    0  501    0  0.00000000000E+00  0.00000000000E+00  0.11352745317E+04  0.11352745317E+04  0.25500000000E-02 0.  1.
         -2   -1    0    0    0  501 -0.00000000000E+00 -0.00000000000E+00 -0.87438562745E+02  0.87438562782E+02  0.25500000000E-02 0. -1.
    5000001    1    1    2    0    0  0.39945219080E+02  0.40512268642E+02  0.10328998710E+04  0.10475418884E+04  0.16500000000E+03 0.  0.
   -5000001    1    1    2    0    0 -0.39945219080E+02 -0.40512268642E+02  0.14936098012E+02  0.17517120614E+03  0.16500000000E+03 0.  0.
<mgrwt>
<rscale>  0 0.63013260E+03</rscale>
<asrwt>0</asrwt>
<pdfrwt beam="1">  1        2 0.16218208E+00 0.63013260E+03</pdfrwt>
<pdfrwt beam="2">  1       -2 0.12491223E-01 0.63013260E+03</pdfrwt>
<totfact> 0.11166121E+03</totfact>
</mgrwt>
</event>
<event>
 4    1  0.1837449E-005  0.5839445E+03  0.7818608E-02  0.9939288E-01
         -2   -1    0    0    0  501 -0.00000000000E+00  0.00000000000E+00  0.18082959805E+03  0.18082959807E+03  0.25500000000E-02 0.  1.
          2   -1    0    0  501    0  0.00000000000E+00 -0.00000000000E+00 -0.47142613237E+03  0.47142613238E+03  0.25500000000E-02 0. -1.
    5000001    1    1    2    0    0 -0.14824991473E+03  0.14743649718E+03 -0.27890374226E+03  0.38565250597E+03  0.16500000000E+03 0.  0.
   -5000001    1    1    2    0    0  0.14824991473E+03 -0.14743649718E+03 -0.11692792057E+02  0.26660322448E+03  0.16500000000E+03 0.  0.
<mgrwt>
<rscale>  0 0.58394451E+03</rscale>
<asrwt>0</asrwt>
<pdfrwt beam="1">  1        2 0.67346590E-01 0.58394451E+03</pdfrwt>
<pdfrwt beam="2">  1       -2 0.25832800E-01 0.58394451E+03</pdfrwt>
<totfact> 0.97201984E+02</totfact>
</mgrwt>
</event>
<event>
 4    1  0.1837449E-005  0.5024684E+03  0.7818608E-02  0.1013137E+00
          2   -1    0    0  501    0  0.00000000000E+00  0.00000000000E+00  0.17820254087E+03  0.17820254089E+03  0.25500000000E-02 0.  1.
         -2   -1    0    0    0  501 -0.00000000000E+00 -0.00000000000E+00 -0.35419595863E+03  0.35419595864E+03  0.25500000000E-02 0. -1.
    5000001    1    1    2    0    0 -0.18147154908E+03 -0.25368442143E+01 -0.30396241329E+02  0.24715843136E+03  0.16500000000E+03 0.  0.
   -5000001    1    1    2    0    0  0.18147154908E+03  0.25368442143E+01 -0.14559717643E+03  0.28524006817E+03  0.16500000000E+03 0.  0.
<mgrwt>
<rscale>  0 0.50246839E+03</rscale>
<asrwt>0</asrwt>
<pdfrwt beam="1">  1        2 0.25457506E-01 0.50246839E+03</pdfrwt>
<pdfrwt beam="2">  1       -2 0.50599423E-01 0.50246839E+03</pdfrwt>
<totfact> 0.79609802E+02</totfact>
</mgrwt>
</event>
<event>
 4    1  0.1837449E-005  0.7616349E+03  0.7818608E-02  0.9617272E-01
         -2   -1    0    0    0  501 -0.00000000000E+00  0.00000000000E+00  0.10041651472E+03  0.10041651475E+03  0.25500000000E-02 0. -1.
          2   -1    0    0  501    0  0.00000000000E+00 -0.00000000000E+00 -0.14442040891E+04  0.14442040891E+04  0.25500000000E-02 0.  1.
    5000001    1    1    2    0    0 -0.30312904505E+03  0.13030883640E+03 -0.48025455709E+03  0.60558818549E+03  0.16500000000E+03 0.  0.
   -5000001    1    1    2    0    0  0.30312904505E+03 -0.13030883640E+03 -0.86353301730E+03  0.93903241837E+03  0.16500000000E+03 0.  0.
<mgrwt>
<rscale>  0 0.76163493E+03</rscale>
<asrwt>0</asrwt>
<pdfrwt beam="1">  1        2 0.20631486E+00 0.76163493E+03</pdfrwt>
<pdfrwt beam="2">  1       -2 0.14345217E-01 0.76163493E+03</pdfrwt>
<totfact> 0.59644998E+02</totfact>
</mgrwt>
</event>
<event>
 4    1  0.1837449E-005  0.3800160E+03  0.7818608E-02  0.1050928E+00
         -2   -1    0    0    0  501 -0.00000000000E+00  0.00000000000E+00  0.32650484843E+03  0.32650484844E+03  0.25500000000E-02 0. -1.
          2   -1    0    0  501    0  0.00000000000E+00 -0.00000000000E+00 -0.11057430115E+03  0.11057430118E+03  0.25500000000E-02 0.  1.
    5000001    1    1    2    0    0 -0.13936857826E+01  0.45950466482E+02  0.13367462372E+02  0.17180534561E+03  0.16500000000E+03 0.  0.
   -5000001    1    1    2    0    0  0.13936857826E+01 -0.45950466482E+02  0.20256308490E+03  0.26527380401E+03  0.16500000000E+03 0.  0.
<mgrwt>
<rscale>  0 0.38001603E+03</rscale>
<asrwt>0</asrwt>
<pdfrwt beam="1">  1        2 0.15796329E-01 0.38001603E+03</pdfrwt>
<pdfrwt beam="2">  1       -2 0.46643550E-01 0.38001603E+03</pdfrwt>
<totfact> 0.16282358E+03</totfact>
</mgrwt>
</event>
<event>
 4    1  0.1837449E-005  0.4357005E+03  0.7818608E-02  0.1032074E+00
         -2   -1    0    0    0  501 -0.00000000000E+00  0.00000000000E+00  0.67268857216E+02  0.67268857265E+02  0.25500000000E-02 0. -1.
          2   -1    0    0  501    0  0.00000000000E+00 -0.00000000000E+00 -0.70550823591E+03  0.70550823592E+03  0.25500000000E-02 0.  1.
    5000001    1    1    2    0    0  0.81421780175E+02 -0.80131919424E+02 -0.46944156724E+03  0.51053992581E+03  0.16500000000E+03 0.  0.
   -5000001    1    1    2    0    0 -0.81421780175E+02  0.80131919424E+02 -0.16879781146E+03  0.26223716737E+03  0.16500000000E+03 0.  0.
<mgrwt>
<rscale>  0 0.43570051E+03</rscale>
<asrwt>0</asrwt>
<pdfrwt beam="1">  1        2 0.10078689E+00 0.43570051E+03</pdfrwt>
<pdfrwt beam="2">  1       -2 0.96098372E-02 0.43570051E+03</pdfrwt>
<totfact> 0.32369412E+03</totfact>
</mgrwt>
</event>
<event>
 4    1  0.1837449E-005  0.4511651E+03  0.7818608E-02  0.1027375E+00
         -2   -1    0    0    0  501 -0.00000000000E+00  0.00000000000E+00  0.54775267852E+03  0.54775267852E+03  0.25500000000E-02 0. -1.
          2   -1    0    0  501    0  0.00000000000E+00 -0.00000000000E+00 -0.92902301883E+02  0.92902301918E+02  0.25500000000E-02 0.  1.
    5000001    1    1    2    0    0 -0.96163714913E+02  0.93935282126E+02  0.12124567177E+03  0.24494246308E+03  0.16500000000E+03 0.  0.
   -5000001    1    1    2    0    0  0.96163714913E+02 -0.93935282126E+02  0.33360470486E+03  0.39571251736E+03  0.16500000000E+03 0.  0.
<mgrwt>
<rscale>  0 0.45116509E+03</rscale>
<asrwt>0</asrwt>
<pdfrwt beam="1">  1        2 0.13271757E-01 0.45116509E+03</pdfrwt>
<pdfrwt beam="2">  1       -2 0.78250383E-01 0.45116509E+03</pdfrwt>
<totfact> 0.68070789E+02</totfact>
</mgrwt>
</event>
<event>
 4    1  0.1837449E-005  0.7660051E+03  0.7818608E-02  0.9610570E-01
         -2   -1    0    0    0  501 -0.00000000000E+00  0.00000000000E+00  0.83567006057E+02  0.83567006096E+02  0.25500000000E-02 0. -1.
          2   -1    0    0  501    0  0.00000000000E+00 -0.00000000000E+00 -0.17553690746E+04  0.17553690746E+04  0.25500000000E-02 0.  1.
    5000001    1    1    2    0    0 -0.31623127997E+02  0.28592380697E+03 -0.37591161147E+03  0.50128533317E+03  0.16500000000E+03 0.  0.
   -5000001    1    1    2    0    0  0.31623127997E+02 -0.28592380697E+03 -0.12958904571E+04  0.13376507475E+04  0.16500000000E+03 0.  0.
<mgrwt>
<rscale>  0 0.76600506E+03</rscale>
<asrwt>0</asrwt>
<pdfrwt beam="1">  1        2 0.25076699E+00 0.76600506E+03</pdfrwt>
<pdfrwt beam="2">  1       -2 0.11938145E-01 0.76600506E+03</pdfrwt>
<totfact> 0.55848928E+02</totfact>
</mgrwt>
</event>
<event>
 4    1  0.1837449E-005  0.4641297E+03  0.7818608E-02  0.1023590E+00
          2   -1    0    0  501    0  0.00000000000E+00  0.00000000000E+00  0.21948948112E+03  0.21948948114E+03  0.25500000000E-02 0.  1.
         -2   -1    0    0    0  501 -0.00000000000E+00 -0.00000000000E+00 -0.24536071753E+03  0.24536071754E+03  0.25500000000E-02 0. -1.
    5000001    1    1    2    0    0  0.11732345746E+03  0.11330534522E+03 -0.18062319938E+02  0.23271042591E+03  0.16500000000E+03 0.  0.
   -5000001    1    1    2    0    0 -0.11732345746E+03 -0.11330534522E+03 -0.78089164672E+01  0.23213977277E+03  0.16500000000E+03 0.  0.
<mgrwt>
<rscale>  0 0.46412971E+03</rscale>
<asrwt>0</asrwt>
<pdfrwt beam="1">  1        2 0.31355640E-01 0.46412971E+03</pdfrwt>
<pdfrwt beam="2">  1       -2 0.35051531E-01 0.46412971E+03</pdfrwt>
<totfact> 0.12899229E+03</totfact>
</mgrwt>
</event>
<event>
 4    1  0.1837449E-005  0.3661514E+03  0.7818608E-02  0.1056174E+00
         -2   -1    0    0    0  501 -0.00000000000E+00  0.00000000000E+00  0.15692097415E+03  0.15692097417E+03  0.25500000000E-02 0. -1.
          2   -1    0    0  501    0  0.00000000000E+00 -0.00000000000E+00 -0.21358974864E+03  0.21358974865E+03  0.25500000000E-02 0.  1.
    5000001    1    1    2    0    0 -0.55996673937E+02 -0.14794248393E+02 -0.83175706258E+02  0.19364321674E+03  0.16500000000E+03 0.  0.
   -5000001    1    1    2    0    0  0.55996673937E+02  0.14794248393E+02  0.26506931772E+02  0.17686750609E+03  0.16500000000E+03 0.  0.
<mgrwt>
<rscale>  0 0.36615140E+03</rscale>
<asrwt>0</asrwt>
<pdfrwt beam="1">  1        2 0.30512821E-01 0.36615140E+03</pdfrwt>
<pdfrwt beam="2">  1       -2 0.22417282E-01 0.36615140E+03</pdfrwt>
<totfact> 0.29823177E+03</totfact>
</mgrwt>
</event>
<event>
 4    1  0.1837449E-005  0.7091243E+03  0.7818608E-02  0.9701754E-01
         -2   -1    0    0    0  501 -0.00000000000E+00  0.00000000000E+00  0.13660024476E+03  0.13660024478E+03  0.25500000000E-02 0. -1.
          2   -1    0    0  501    0  0.00000000000E+00 -0.00000000000E+00 -0.92030826111E+03  0.92030826111E+03  0.25500000000E-02 0.  1.
    5000001    1    1    2    0    0 -0.30151599225E+03  0.83358485870E+02 -0.42922824180E+03  0.55616761350E+03  0.16500000000E+03 0.  0.
   -5000001    1    1    2    0    0  0.30151599225E+03 -0.83358485870E+02 -0.35447977455E+03  0.50074089240E+03  0.16500000000E+03 0.  0.
<mgrwt>
<rscale>  0 0.70912434E+03</rscale>
<asrwt>0</asrwt>
<pdfrwt beam="1">  1        2 0.13147261E+00 0.70912434E+03</pdfrwt>
<pdfrwt beam="2">  1       -2 0.19514321E-01 0.70912434E+03</pdfrwt>
<totfact> 0.70532272E+02</totfact>
</mgrwt>
</event>
<event>
 4    1  0.1837449E-005  0.3961859E+03  0.7818608E-02  0.1045108E+00
         -2   -1    0    0    0  501 -0.00000000000E+00  0.00000000000E+00  0.35279074777E+02  0.35279074869E+02  0.25500000000E-02 0. -1.
          2   -1    0    0  501    0  0.00000000000E+00 -0.00000000000E+00 -0.11122969468E+04  0.11122969468E+04  0.25500000000E-02 0.  1.
    5000001    1    1    2    0    0 -0.62253996519E+02 -0.88732940266E+02 -0.49120425222E+03  0.52939183236E+03  0.16500000000E+03 0.  0.
   -5000001    1    1    2    0    0  0.62253996519E+02  0.88732940266E+02 -0.58581361984E+03  0.61818418935E+03  0.16500000000E+03 0.  0.
<mgrwt>
<rscale>  0 0.39618585E+03</rscale>
<asrwt>0</asrwt>
<pdfrwt beam="1">  1        2 0.15889954E+00 0.39618585E+03</pdfrwt>
<pdfrwt beam="2">  1       -2 0.50398685E-02 0.39618585E+03</pdfrwt>
<totfact> 0.48766667E+03</totfact>
</mgrwt>
</event>
<event>
 4    1  0.1837449E-005  0.5000948E+03  0.7818608E-02  0.1013754E+00
          2   -1    0    0  501    0  0.00000000000E+00  0.00000000000E+00  0.13430156192E+04  0.13430156192E+04  0.25500000000E-02 0.  1.
         -2   -1    0    0    0  501 -0.00000000000E+00 -0.00000000000E+00 -0.46554704306E+02  0.46554704375E+02  0.25500000000E-02 0. -1.
    5000001    1    1    2    0    0 -0.87881919288E+02 -0.16360319559E+03  0.56917619235E+03  0.62102799879E+03  0.16500000000E+03 0.  0.
   -5000001    1    1    2    0    0  0.87881919288E+02  0.16360319559E+03  0.72728472257E+03  0.76854232481E+03  0.16500000000E+03 0.  0.
<mgrwt>
<rscale>  0 0.50009477E+03</rscale>
<asrwt>0</asrwt>
<pdfrwt beam="1">  1        2 0.19185937E+00 0.50009477E+03</pdfrwt>
<pdfrwt beam="2">  1       -2 0.66506721E-02 0.50009477E+03</pdfrwt>
<totfact> 0.23688720E+03</totfact>
</mgrwt>
</event>
<event>
 4    1  0.1837449E-005  0.4240399E+03  0.7818608E-02  0.1035759E+00
          2   -1    0    0  501    0  0.00000000000E+00  0.00000000000E+00  0.12496225808E+04  0.12496225808E+04  0.25500000000E-02 0.  1.
         -2   -1    0    0    0  501 -0.00000000000E+00 -0.00000000000E+00 -0.35972821294E+02  0.35972821385E+02  0.25500000000E-02 0. -1.
    5000001    1    1    2    0    0  0.60478843835E+02  0.10051925323E+03  0.41590365045E+03  0.46256097683E+03  0.16500000000E+03 0.  0.
   -5000001    1    1    2    0    0 -0.60478843835E+02 -0.10051925323E+03  0.79774610908E+03  0.82303442539E+03  0.16500000000E+03 0.  0.
<mgrwt>
<rscale>  0 0.42403986E+03</rscale>
<asrwt>0</asrwt>
<pdfrwt beam="1">  1        2 0.17851747E+00 0.42403986E+03</pdfrwt>
<pdfrwt beam="2">  1       -2 0.51389757E-02 0.42403986E+03</pdfrwt>
<totfact> 0.39718484E+03</totfact>
</mgrwt>
</event>
<event>
 4    1  0.1837449E-005  0.6299887E+03  0.7818608E-02  0.9845071E-01
         -2   -1    0    0    0  501 -0.00000000000E+00  0.00000000000E+00  0.14857555059E+03  0.14857555062E+03  0.25500000000E-02 0. -1.
          2   -1    0    0  501    0  0.00000000000E+00 -0.00000000000E+00 -0.66781810851E+03  0.66781810851E+03  0.25500000000E-02 0.  1.
    5000001    1    1    2    0    0 -0.25439258472E+03 -0.85197181233E+02 -0.25350223553E+03  0.40430499659E+03  0.16500000000E+03 0.  0.
   -5000001    1    1    2    0    0  0.25439258472E+03  0.85197181233E+02 -0.26574032238E+03  0.41208866254E+03  0.16500000000E+03 0.  0.
<mgrwt>
<rscale>  0 0.62998871E+03</rscale>
<asrwt>0</asrwt>
<pdfrwt beam="1">  1        2 0.95402585E-01 0.62998871E+03</pdfrwt>
<pdfrwt beam="2">  1       -2 0.21225079E-01 0.62998871E+03</pdfrwt>
<totfact> 0.91882284E+02</totfact>
</mgrwt>
</event>
<event>
 4    1  0.1837449E-005  0.3917710E+03  0.7818608E-02  0.1046667E+00
         -2   -1    0    0    0  501 -0.00000000000E+00  0.00000000000E+00  0.48555121713E+02  0.48555121780E+02  0.25500000000E-02 0. -1.
          2   -1    0    0  501    0  0.00000000000E+00 -0.00000000000E+00 -0.79025913437E+03  0.79025913437E+03  0.25500000000E-02 0.  1.
    5000001    1    1    2    0    0  0.90661728094E+02  0.54034333777E+02 -0.36523995173E+03  0.41444478583E+03  0.16500000000E+03 0.  0.
   -5000001    1    1    2    0    0 -0.90661728094E+02 -0.54034333777E+02 -0.37646406093E+03  0.42436947032E+03  0.16500000000E+03 0.  0.
<mgrwt>
<rscale>  0 0.39177100E+03</rscale>
<asrwt>0</asrwt>
<pdfrwt beam="1">  1        2 0.11289415E+00 0.39177100E+03</pdfrwt>
<pdfrwt beam="2">  1       -2 0.69364465E-02 0.39177100E+03</pdfrwt>
<totfact> 0.47080376E+03</totfact>
</mgrwt>
</event>
<event>
 4    1  0.1837449E-005  0.4437651E+03  0.7818608E-02  0.1029598E+00
          2   -1    0    0  501    0  0.00000000000E+00  0.00000000000E+00  0.80363380939E+03  0.80363380939E+03  0.25500000000E-02 0.  1.
         -2   -1    0    0    0  501 -0.00000000000E+00 -0.00000000000E+00 -0.61261561110E+02  0.61261561163E+02  0.25500000000E-02 0. -1.
    5000001    1    1    2    0    0  0.32628120658E+02  0.12429670439E+03  0.22674219094E+03  0.30846602103E+03  0.16500000000E+03 0.  0.
   -5000001    1    1    2    0    0 -0.32628120658E+02 -0.12429670439E+03  0.51563005733E+03  0.55642934952E+03  0.16500000000E+03 0.  0.
<mgrwt>
<rscale>  0 0.44376508E+03</rscale>
<asrwt>0</asrwt>
<pdfrwt beam="1">  1        2 0.11480483E+00 0.44376508E+03</pdfrwt>
<pdfrwt beam="2">  1       -2 0.87516519E-02 0.44376508E+03</pdfrwt>
<totfact> 0.31999459E+03</totfact>
</mgrwt>
</event>
<event>
 4    1  0.1837449E-005  0.5622867E+03  0.7818608E-02  0.9986894E-01
          2   -1    0    0  501    0  0.00000000000E+00  0.00000000000E+00  0.61442242545E+03  0.61442242546E+03  0.25500000000E-02 0.  1.
         -2   -1    0    0    0  501 -0.00000000000E+00 -0.00000000000E+00 -0.12864372371E+03  0.12864372373E+03  0.25500000000E-02 0. -1.
    5000001    1    1    2    0    0  0.17687270603E+03 -0.14164657487E+03  0.27150487032E+03  0.39024043988E+03  0.16500000000E+03 0.  0.
   -5000001    1    1    2    0    0 -0.17687270603E+03  0.14164657487E+03  0.21427383143E+03  0.35282570931E+03  0.16500000000E+03 0.  0.
<mgrwt>
<rscale>  0 0.56228672E+03</rscale>
<asrwt>0</asrwt>
<pdfrwt beam="1">  1        2 0.87774635E-01 0.56228672E+03</pdfrwt>
<pdfrwt beam="2">  1       -2 0.18377674E-01 0.56228672E+03</pdfrwt>
<totfact> 0.13049993E+03</totfact>
</mgrwt>
</event>
<event>
 4    1  0.1837449E-005  0.7483868E+03  0.7818608E-02  0.9637885E-01
         -2   -1    0    0    0  501 -0.00000000000E+00  0.00000000000E+00  0.16840101887E+03  0.16840101889E+03  0.25500000000E-02 0. -1.
          2   -1    0    0  501    0  0.00000000000E+00 -0.00000000000E+00 -0.83147188927E+03  0.83147188927E+03  0.25500000000E-02 0.  1.
    5000001    1    1    2    0    0 -0.22773094066E+03 -0.10289223982E+02 -0.20227887067E+01  0.28141844491E+03  0.16500000000E+03 0.  0.
   -5000001    1    1    2    0    0  0.22773094066E+03  0.10289223982E+02 -0.66104808169E+03  0.71845446325E+03  0.16500000000E+03 0.  0.
<mgrwt>
<rscale>  0 0.74838683E+03</rscale>
<asrwt>0</asrwt>
<pdfrwt beam="1">  1        2 0.11878170E+00 0.74838683E+03</pdfrwt>
<pdfrwt beam="2">  1       -2 0.24057289E-01 0.74838683E+03</pdfrwt>
<totfact> 0.55710952E+02</totfact>
</mgrwt>
</event>
<event>
 4    1  0.1837449E-005  0.6130406E+03  0.7818608E-02  0.9878714E-01
          2   -1    0    0  501    0  0.00000000000E+00  0.00000000000E+00  0.12859635940E+04  0.12859635940E+04  0.25500000000E-02 0.  1.
         -2   -1    0    0    0  501 -0.00000000000E+00 -0.00000000000E+00 -0.73061698099E+02  0.73061698144E+02  0.25500000000E-02 0. -1.
    5000001    1    1    2    0    0  0.19414255784E+03 -0.11464561014E+03  0.32696178405E+03  0.43007436208E+03  0.16500000000E+03 0.  0.
   -5000001    1    1    2    0    0 -0.19414255784E+03  0.11464561014E+03  0.88594011189E+03  0.92895093011E+03  0.16500000000E+03 0.  0.
<mgrwt>
<rscale>  0 0.61304057E+03</rscale>
<asrwt>0</asrwt>
<pdfrwt beam="1">  1        2 0.18370907E+00 0.61304057E+03</pdfrwt>
<pdfrwt beam="2">  1       -2 0.10437386E-01 0.61304057E+03</pdfrwt>
<totfact> 0.12352564E+03</totfact>
</mgrwt>
</event>
<event>
 4    1  0.1837449E-005  0.5215406E+03  0.7818608E-02  0.1008305E+00
          2   -1    0    0  501    0  0.00000000000E+00  0.00000000000E+00  0.27723170133E+03  0.27723170134E+03  0.25500000000E-02 0.  1.
         -2   -1    0    0    0  501 -0.00000000000E+00 -0.00000000000E+00 -0.24528632942E+03  0.24528632943E+03  0.25500000000E-02 0. -1.
    5000001    1    1    2    0    0 -0.14112313992E+03  0.12907712087E+03  0.80897707053E+02  0.26522835965E+03  0.16500000000E+03 0.  0.
   -5000001    1    1    2    0    0  0.14112313992E+03 -0.12907712087E+03 -0.48952335141E+02  0.25728967113E+03  0.16500000000E+03 0.  0.
<mgrwt>
<rscale>  0 0.52154059E+03</rscale>
<asrwt>0</asrwt>
<pdfrwt beam="1">  1        2 0.39604529E-01 0.52154059E+03</pdfrwt>
<pdfrwt beam="2">  1       -2 0.35040904E-01 0.52154059E+03</pdfrwt>
<totfact> 0.99703520E+02</totfact>
</mgrwt>
</event>
<event>
 4    1  0.1837449E-005  0.5102438E+03  0.7818608E-02  0.1011139E+00
          2   -1    0    0  501    0  0.00000000000E+00  0.00000000000E+00  0.26211392686E+04  0.26211392686E+04  0.25500000000E-02 0.  1.
         -2   -1    0    0    0  501 -0.00000000000E+00 -0.00000000000E+00 -0.24831642333E+02  0.24831642464E+02  0.25500000000E-02 0. -1.
    5000001    1    1    2    0    0  0.18732681971E+03  0.50112478151E+02  0.13817055694E+04  0.14049689956E+04  0.16500000000E+03 0.  0.
   -5000001    1    1    2    0    0 -0.18732681971E+03 -0.50112478151E+02  0.12146020568E+04  0.12410019155E+04  0.16500000000E+03 0.  0.
<mgrwt>
<rscale>  0 0.51024384E+03</rscale>
<asrwt>0</asrwt>
<pdfrwt beam="1">  1        2 0.37444853E+00 0.51024384E+03</pdfrwt>
<pdfrwt beam="2">  1       -2 0.35473769E-02 0.51024384E+03</pdfrwt>
<totfact> 0.14034231E+03</totfact>
</mgrwt>
</event>
<event>
 4    1  0.1837449E-005  0.7364452E+03  0.7818608E-02  0.9656859E-01
         -2   -1    0    0    0  501 -0.00000000000E+00  0.00000000000E+00  0.16812606428E+03  0.16812606430E+03  0.25500000000E-02 0. -1.
          2   -1    0    0  501    0  0.00000000000E+00 -0.00000000000E+00 -0.80646566534E+03  0.80646566534E+03  0.25500000000E-02 0.  1.
    5000001    1    1    2    0    0  0.18633142115E+03  0.22491890358E+03 -0.52010901430E+03  0.61890734238E+03  0.16500000000E+03 0.  0.
   -5000001    1    1    2    0    0 -0.18633142115E+03 -0.22491890358E+03 -0.11823058675E+03  0.35568438726E+03  0.16500000000E+03 0.  0.
<mgrwt>
<rscale>  0 0.73644524E+03</rscale>
<asrwt>0</asrwt>
<pdfrwt beam="1">  1        2 0.11520938E+00 0.73644524E+03</pdfrwt>
<pdfrwt beam="2">  1       -2 0.24018010E-01 0.73644524E+03</pdfrwt>
<totfact> 0.58155354E+02</totfact>
</mgrwt>
</event>
<event>
 4    1  0.1837449E-005  0.5295127E+03  0.7818608E-02  0.1006350E+00
          2   -1    0    0  501    0  0.00000000000E+00  0.00000000000E+00  0.11529257475E+04  0.11529257476E+04  0.25500000000E-02 0.  1.
         -2   -1    0    0    0  501 -0.00000000000E+00 -0.00000000000E+00 -0.60798309693E+02  0.60798309747E+02  0.25500000000E-02 0. -1.
    5000001    1    1    2    0    0 -0.14143731410E+03 -0.14407859355E+03  0.44082965010E+03  0.51217080681E+03  0.16500000000E+03 0.  0.
   -5000001    1    1    2    0    0  0.14143731410E+03  0.14407859355E+03  0.65129778775E+03  0.70155325049E+03  0.16500000000E+03 0.  0.
<mgrwt>
<rscale>  0 0.52951274E+03</rscale>
<asrwt>0</asrwt>
<pdfrwt beam="1">  1        2 0.16470366E+00 0.52951274E+03</pdfrwt>
<pdfrwt beam="2">  1       -2 0.86854737E-02 0.52951274E+03</pdfrwt>
<totfact> 0.19736379E+03</totfact>
</mgrwt>
</event>
<event>
 4    1  0.1837449E-005  0.5020404E+03  0.7818608E-02  0.1013248E+00
          2   -1    0    0  501    0  0.00000000000E+00  0.00000000000E+00  0.12672027584E+04  0.12672027584E+04  0.25500000000E-02 0.  1.
         -2   -1    0    0    0  501 -0.00000000000E+00 -0.00000000000E+00 -0.49724598672E+02  0.49724598737E+02  0.25500000000E-02 0. -1.
    5000001    1    1    2    0    0 -0.12100872228E+03 -0.12712165519E+03  0.42356767999E+03  0.48727569775E+03  0.16500000000E+03 0.  0.
   -5000001    1    1    2    0    0  0.12100872228E+03  0.12712165519E+03  0.79391047972E+03  0.82965165937E+03  0.16500000000E+03 0.  0.
<mgrwt>
<rscale>  0 0.50204043E+03</rscale>
<asrwt>0</asrwt>
<pdfrwt beam="1">  1        2 0.18102895E+00 0.50204043E+03</pdfrwt>
<pdfrwt beam="2">  1       -2 0.71035145E-02 0.50204043E+03</pdfrwt>
<totfact> 0.23467372E+03</totfact>
</mgrwt>
</event>
<event>
 4    1  0.1837449E-005  0.4679409E+03  0.7818608E-02  0.1022503E+00
          2   -1    0    0  501    0  0.00000000000E+00  0.00000000000E+00  0.13913920773E+03  0.13913920775E+03  0.25500000000E-02 0.  1.
         -2   -1    0    0    0  501 -0.00000000000E+00 -0.00000000000E+00 -0.39343449067E+03  0.39343449068E+03  0.25500000000E-02 0. -1.
    5000001    1    1    2    0    0  0.35531878209E+02  0.15928262483E+03 -0.93314697445E+02  0.25013216846E+03  0.16500000000E+03 0.  0.
   -5000001    1    1    2    0    0 -0.35531878209E+02 -0.15928262483E+03 -0.16098058550E+03  0.28244152996E+03  0.16500000000E+03 0.  0.
<mgrwt>
<rscale>  0 0.46794087E+03</rscale>
<asrwt>0</asrwt>
<pdfrwt beam="1">  1        2 0.19877030E-01 0.46794087E+03</pdfrwt>
<pdfrwt beam="2">  1       -2 0.56204927E-01 0.46794087E+03</pdfrwt>
<totfact> 0.85346315E+02</totfact>
</mgrwt>
</event>
<event>
 4    1  0.1837449E-005  0.4320911E+03  0.7818608E-02  0.1033201E+00
         -2   -1    0    0    0  501 -0.00000000000E+00  0.00000000000E+00  0.53752841969E+02  0.53752842029E+02  0.25500000000E-02 0. -1.
          2   -1    0    0  501    0  0.00000000000E+00 -0.00000000000E+00 -0.86833896732E+03  0.86833896732E+03  0.25500000000E-02 0.  1.
    5000001    1    1    2    0    0 -0.26894254330E+02 -0.86272379098E+02 -0.63398666109E+03  0.66130954231E+03  0.16500000000E+03 0.  0.
   -5000001    1    1    2    0    0  0.26894254330E+02  0.86272379098E+02 -0.18059946425E+03  0.26078226703E+03  0.16500000000E+03 0.  0.
<mgrwt>
<rscale>  0 0.43209114E+03</rscale>
<asrwt>0</asrwt>
<pdfrwt beam="1">  1        2 0.12404842E+00 0.43209114E+03</pdfrwt>
<pdfrwt beam="2">  1       -2 0.76789780E-02 0.43209114E+03</pdfrwt>
<totfact> 0.35634146E+03</totfact>
</mgrwt>
</event>
<event>
 4    1  0.1837449E-005  0.6486482E+03  0.7818608E-02  0.9809319E-01
         -2   -1    0    0    0  501 -0.00000000000E+00  0.00000000000E+00  0.31238055386E+03  0.31238055387E+03  0.25500000000E-02 0. -1.
          2   -1    0    0  501    0  0.00000000000E+00 -0.00000000000E+00 -0.33672430156E+03  0.33672430157E+03  0.25500000000E-02 0.  1.
    5000001    1    1    2    0    0  0.19297799811E+03  0.18821531163E+03  0.60650316465E+02  0.32182133579E+03  0.16500000000E+03 0.  0.
   -5000001    1    1    2    0    0 -0.19297799811E+03 -0.18821531163E+03 -0.84994064171E+02  0.32728351964E+03  0.16500000000E+03 0.  0.
<mgrwt>
<rscale>  0 0.64864821E+03</rscale>
<asrwt>0</asrwt>
<pdfrwt beam="1">  1        2 0.48103471E-01 0.64864821E+03</pdfrwt>
<pdfrwt beam="2">  1       -2 0.44625794E-01 0.64864821E+03</pdfrwt>
<totfact> 0.50303636E+02</totfact>
</mgrwt>
</event>
<event>
 4    1  0.1837449E-005  0.8123167E+03  0.7818608E-02  0.9542358E-01
         -2   -1    0    0    0  501 -0.00000000000E+00  0.00000000000E+00  0.12475179312E+04  0.12475179312E+04  0.25500000000E-02 0. -1.
          2   -1    0    0  501    0  0.00000000000E+00 -0.00000000000E+00 -0.13223425722E+03  0.13223425724E+03  0.25500000000E-02 0.  1.
    5000001    1    1    2    0    0  0.31397530121E+03  0.19787448226E+03  0.56136567935E+03  0.69288615692E+03  0.16500000000E+03 0.  0.
   -5000001    1    1    2    0    0 -0.31397530121E+03 -0.19787448226E+03  0.55391799465E+03  0.68686603155E+03  0.16500000000E+03 0.  0.
<mgrwt>
<rscale>  0 0.81231670E+03</rscale>
<asrwt>0</asrwt>
<pdfrwt beam="1">  1        2 0.18890607E-01 0.81231670E+03</pdfrwt>
<pdfrwt beam="2">  1       -2 0.17821686E+00 0.81231670E+03</pdfrwt>
<totfact> 0.57321348E+01</totfact>
</mgrwt>
</event>
<event>
 4    1  0.1837449E-005  0.4992199E+03  0.7818608E-02  0.1013983E+00
          2   -1    0    0  501    0  0.00000000000E+00  0.00000000000E+00  0.24482623237E+03  0.24482623239E+03  0.25500000000E-02 0.  1.
         -2   -1    0    0    0  501 -0.00000000000E+00 -0.00000000000E+00 -0.25448714230E+03  0.25448714231E+03  0.25500000000E-02 0. -1.
    5000001    1    1    2    0    0  0.11035592390E+03 -0.14493462245E+03  0.38716800314E+02  0.24881411807E+03  0.16500000000E+03 0.  0.
   -5000001    1    1    2    0    0 -0.11035592390E+03  0.14493462245E+03 -0.48377710237E+02  0.25049925663E+03  0.16500000000E+03 0.  0.
<mgrwt>
<rscale>  0 0.49921990E+03</rscale>
<asrwt>0</asrwt>
<pdfrwt beam="1">  1        2 0.34975176E-01 0.49921990E+03</pdfrwt>
<pdfrwt beam="2">  1       -2 0.36355306E-01 0.49921990E+03</pdfrwt>
<totfact> 0.10666458E+03</totfact>
</mgrwt>
</event>
<event>
 4    1  0.1837449E-005  0.1018823E+04  0.7818608E-02  0.9288137E-01
          2   -1    0    0  501    0  0.00000000000E+00  0.00000000000E+00  0.29946178718E+04  0.29946178718E+04  0.25500000000E-02 0. -1.
         -2   -1    0    0    0  501 -0.00000000000E+00 -0.00000000000E+00 -0.86655526536E+02  0.86655526574E+02  0.25500000000E-02 0.  1.
    5000001    1    1    2    0    0 -0.43610078018E+03 -0.10372908086E+03  0.19893123279E+04  0.20458573144E+04  0.16500000000E+03 0.  0.
   -5000001    1    1    2    0    0  0.43610078018E+03  0.10372908086E+03  0.91865001737E+03  0.10354160840E+04  0.16500000000E+03 0.  0.
<mgrwt>
<rscale>  0 0.10188232E+04</rscale>
<asrwt>0</asrwt>
<pdfrwt beam="1">  1        2 0.42780249E+00 0.10188232E+04</pdfrwt>
<pdfrwt beam="2">  1       -2 0.12379363E-01 0.10188232E+04</pdfrwt>
<totfact> 0.11697504E+02</totfact>
</mgrwt>
</event>
<event>
 4    1  0.1837449E-005  0.4695814E+03  0.7818608E-02  0.1022038E+00
          2   -1    0    0  501    0  0.00000000000E+00  0.00000000000E+00  0.60953630988E+03  0.60953630989E+03  0.25500000000E-02 0.  1.
         -2   -1    0    0    0  501 -0.00000000000E+00 -0.00000000000E+00 -0.90440349002E+02  0.90440349038E+02  0.25500000000E-02 0. -1.
    5000001    1    1    2    0    0  0.38084592291E+02 -0.65088749584E+02  0.48172177669E+03  0.51475028085E+03  0.16500000000E+03 0.  0.
   -5000001    1    1    2    0    0 -0.38084592291E+02  0.65088749584E+02  0.37374184189E+02  0.18522637808E+03  0.16500000000E+03 0.  0.
<mgrwt>
<rscale>  0 0.46958142E+03</rscale>
<asrwt>0</asrwt>
<pdfrwt beam="1">  1        2 0.87076614E-01 0.46958142E+03</pdfrwt>
<pdfrwt beam="2">  1       -2 0.12920050E-01 0.46958142E+03</pdfrwt>
<totfact> 0.23829892E+03</totfact>
</mgrwt>
</event>
<event>
 4    1  0.1837449E-005  0.4011953E+03  0.7818608E-02  0.1043367E+00
         -2   -1    0    0    0  501 -0.00000000000E+00  0.00000000000E+00  0.14804422626E+03  0.14804422628E+03  0.25500000000E-02 0. -1.
          2   -1    0    0  501    0  0.00000000000E+00 -0.00000000000E+00 -0.27180670057E+03  0.27180670058E+03  0.25500000000E-02 0.  1.
    5000001    1    1    2    0    0 -0.24698043115E+01 -0.77119350711E+02  0.26055410075E+02  0.18400374611E+03  0.16500000000E+03 0.  0.
   -5000001    1    1    2    0    0  0.24698043115E+01  0.77119350711E+02 -0.14981788438E+03  0.23584718075E+03  0.16500000000E+03 0.  0.
<mgrwt>
<rscale>  0 0.40119528E+03</rscale>
<asrwt>0</asrwt>
<pdfrwt beam="1">  1        2 0.38829528E-01 0.40119528E+03</pdfrwt>
<pdfrwt beam="2">  1       -2 0.21149175E-01 0.40119528E+03</pdfrwt>
<totfact> 0.25368914E+03</totfact>
</mgrwt>
</event>
<event>
 4    1  0.1837449E-005  0.4347037E+03  0.7818608E-02  0.1032384E+00
          2   -1    0    0  501    0  0.00000000000E+00  0.00000000000E+00  0.16463429095E+04  0.16463429095E+04  0.25500000000E-02 0.  1.
         -2   -1    0    0    0  501 -0.00000000000E+00 -0.00000000000E+00 -0.28695013998E+02  0.28695014111E+02  0.25500000000E-02 0. -1.
    5000001    1    1    2    0    0 -0.18792247079E+02  0.13961238683E+03  0.75827890309E+03  0.78870568780E+03  0.16500000000E+03 0.  0.
   -5000001    1    1    2    0    0  0.18792247079E+02 -0.13961238683E+03  0.85936899237E+03  0.88633223577E+03  0.16500000000E+03 0.  0.
<mgrwt>
<rscale>  0 0.43470373E+03</rscale>
<asrwt>0</asrwt>
<pdfrwt beam="1">  1        2 0.23519194E+00 0.43470373E+03</pdfrwt>
<pdfrwt beam="2">  1       -2 0.40992860E-02 0.43470373E+03</pdfrwt>
<totfact> 0.34893708E+03</totfact>
</mgrwt>
</event>
<event>
 4    1  0.1837449E-005  0.3477128E+03  0.7818608E-02  0.1063558E+00
         -2   -1    0    0    0  501 -0.00000000000E+00  0.00000000000E+00  0.30993124000E+02  0.30993124105E+02  0.25500000000E-02 0. -1.
          2   -1    0    0  501    0  0.00000000000E+00 -0.00000000000E+00 -0.97525039488E+03  0.97525039488E+03  0.25500000000E-02 0.  1.
    5000001    1    1    2    0    0 -0.46198014312E+02 -0.29232569366E+02 -0.48226008409E+03  0.51262909432E+03  0.16500000000E+03 0.  0.
   -5000001    1    1    2    0    0  0.46198014312E+02  0.29232569366E+02 -0.46199718679E+03  0.49361442467E+03  0.16500000000E+03 0.  0.
<mgrwt>
<rscale>  0 0.34771285E+03</rscale>
<asrwt>0</asrwt>
<pdfrwt beam="1">  1        2 0.13932147E+00 0.34771285E+03</pdfrwt>
<pdfrwt beam="2">  1       -2 0.44275898E-02 0.34771285E+03</pdfrwt>
<totfact> 0.71354371E+03</totfact>
</mgrwt>
</event>
<event>
 4    1  0.1837449E-005  0.3878976E+03  0.7818608E-02  0.1048053E+00
         -2   -1    0    0    0  501 -0.00000000000E+00  0.00000000000E+00  0.23034440235E+03  0.23034440237E+03  0.25500000000E-02 0. -1.
          2   -1    0    0  501    0  0.00000000000E+00 -0.00000000000E+00 -0.16330385437E+03  0.16330385439E+03  0.25500000000E-02 0.  1.
    5000001    1    1    2    0    0  0.94069971535E+02  0.46134876361E+01 -0.60538134379E+01  0.19008443511E+03  0.16500000000E+03 0.  0.
   -5000001    1    1    2    0    0 -0.94069971535E+02 -0.46134876361E+01  0.73094361424E+02  0.20356382165E+03  0.16500000000E+03 0.  0.
<mgrwt>
<rscale>  0 0.38789756E+03</rscale>
<asrwt>0</asrwt>
<pdfrwt beam="1">  1        2 0.23329122E-01 0.38789756E+03</pdfrwt>
<pdfrwt beam="2">  1       -2 0.32906343E-01 0.38789756E+03</pdfrwt>
<totfact> 0.20204769E+03</totfact>
</mgrwt>
</event>
<event>
 4    1  0.1837449E-005  0.5891010E+03  0.7818608E-02  0.9928280E-01
          2   -1    0    0  501    0  0.00000000000E+00  0.00000000000E+00  0.29571535781E+03  0.29571535782E+03  0.25500000000E-02 0.  1.
         -2   -1    0    0    0  501 -0.00000000000E+00 -0.00000000000E+00 -0.29339026009E+03  0.29339026010E+03  0.25500000000E-02 0. -1.
    5000001    1    1    2    0    0  0.16892015759E+03  0.10711326723E+03  0.14090530640E+03  0.29510434939E+03  0.16500000000E+03 0.  0.
   -5000001    1    1    2    0    0 -0.16892015759E+03 -0.10711326723E+03 -0.13858020868E+03  0.29400126853E+03  0.16500000000E+03 0.  0.
<mgrwt>
<rscale>  0 0.58910103E+03</rscale>
<asrwt>0</asrwt>
<pdfrwt beam="1">  1        2 0.42245051E-01 0.58910103E+03</pdfrwt>
<pdfrwt beam="2">  1       -2 0.41912894E-01 0.58910103E+03</pdfrwt>
<totfact> 0.65770131E+02</totfact>
</mgrwt>
</event>
<event>
 4    1  0.1837449E-005  0.8953748E+03  0.7818608E-02  0.9431382E-01
         -2   -1    0    0    0  501 -0.00000000000E+00  0.00000000000E+00  0.18555500383E+03  0.18555500385E+03  0.25500000000E-02 0. -1.
          2   -1    0    0  501    0  0.00000000000E+00 -0.00000000000E+00 -0.10801326374E+04  0.10801326375E+04  0.25500000000E-02 0.  1.
    5000001    1    1    2    0    0 -0.40592571824E+02 -0.34134840177E+03 -0.11567593450E+03  0.39846255796E+03  0.16500000000E+03 0.  0.
   -5000001    1    1    2    0    0  0.40592571824E+02  0.34134840177E+03 -0.77890169912E+03  0.86722508334E+03  0.16500000000E+03 0.  0.
<mgrwt>
<rscale>  0 0.89537482E+03</rscale>
<asrwt>0</asrwt>
<pdfrwt beam="1">  1        2 0.15430466E+00 0.89537482E+03</pdfrwt>
<pdfrwt beam="2">  1       -2 0.26507858E-01 0.89537482E+03</pdfrwt>
<totfact> 0.32343278E+02</totfact>
</mgrwt>
</event>
<event>
 4    1  0.1837449E-005  0.4764057E+03  0.7818608E-02  0.1020128E+00
          2   -1    0    0  501    0  0.00000000000E+00  0.00000000000E+00  0.81929154243E+03  0.81929154244E+03  0.25500000000E-02 0.  1.
         -2   -1    0    0    0  501 -0.00000000000E+00 -0.00000000000E+00 -0.69255675685E+02  0.69255675732E+02  0.25500000000E-02 0. -1.
    5000001    1    1    2    0    0 -0.61775148039E+02  0.73427856897E+02  0.64080553347E+03  0.66862885879E+03  0.16500000000E+03 0.  0.
   -5000001    1    1    2    0    0  0.61775148039E+02 -0.73427856897E+02  0.10923033328E+03  0.21991835938E+03  0.16500000000E+03 0.  0.
<mgrwt>
<rscale>  0 0.47640566E+03</rscale>
<asrwt>0</asrwt>
<pdfrwt beam="1">  1        2 0.11704165E+00 0.47640566E+03</pdfrwt>
<pdfrwt beam="2">  1       -2 0.98936683E-02 0.47640566E+03</pdfrwt>
<totfact> 0.25667413E+03</totfact>
</mgrwt>
</event>
<event>
 4    1  0.1837449E-005  0.4580050E+03  0.7818608E-02  0.1025361E+00
          2   -1    0    0  501    0  0.00000000000E+00  0.00000000000E+00  0.36842335484E+03  0.36842335485E+03  0.25500000000E-02 0.  1.
         -2   -1    0    0    0  501 -0.00000000000E+00 -0.00000000000E+00 -0.14234207245E+03  0.14234207247E+03  0.25500000000E-02 0. -1.
    5000001    1    1    2    0    0  0.12942350592E+03 -0.16537919885E+02  0.12097228692E+02  0.21070189753E+03  0.16500000000E+03 0.  0.
   -5000001    1    1    2    0    0 -0.12942350592E+03  0.16537919885E+02  0.21398405370E+03  0.30006352980E+03  0.16500000000E+03 0.  0.
<mgrwt>
<rscale>  0 0.45800500E+03</rscale>
<asrwt>0</asrwt>
<pdfrwt beam="1">  1        2 0.52631908E-01 0.45800500E+03</pdfrwt>
<pdfrwt beam="2">  1       -2 0.20334582E-01 0.45800500E+03</pdfrwt>
<totfact> 0.19508553E+03</totfact>
</mgrwt>
</event>
<event>
 4    1  0.1837449E-005  0.1214456E+04  0.7818608E-02  0.9100296E-01
         -2   -1    0    0    0  501 -0.00000000000E+00  0.00000000000E+00  0.11544623063E+03  0.11544623066E+03  0.25500000000E-02 0. -1.
          2   -1    0    0  501    0  0.00000000000E+00 -0.00000000000E+00 -0.31939192613E+04  0.31939192613E+04  0.25500000000E-02 0.  1.
    5000001    1    1    2    0    0 -0.34525964835E+03 -0.46039624369E+03 -0.18162209602E+04  0.19123421510E+04  0.16500000000E+03 0.  0.
   -5000001    1    1    2    0    0  0.34525964835E+03  0.46039624369E+03 -0.12622520705E+04  0.13970233410E+04  0.16500000000E+03 0.  0.
<mgrwt>
<rscale>  0 0.12144562E+04</rscale>
<asrwt>0</asrwt>
<pdfrwt beam="1">  1        2 0.45627412E+00 0.12144562E+04</pdfrwt>
<pdfrwt beam="2">  1       -2 0.16492321E-01 0.12144562E+04</pdfrwt>
<totfact> 0.54653865E+01</totfact>
</mgrwt>
</event>
<event>
 4    1  0.1837449E-005  0.1158035E+04  0.7818608E-02  0.9150402E-01
         -2   -1    0    0    0  501 -0.00000000000E+00  0.00000000000E+00  0.19252813600E+03  0.19252813602E+03  0.25500000000E-02 0. -1.
          2   -1    0    0  501    0  0.00000000000E+00 -0.00000000000E+00 -0.17413632941E+04  0.17413632941E+04  0.25500000000E-02 0.  1.
    5000001    1    1    2    0    0  0.20951236829E+02 -0.35612301533E+03 -0.64385241987E+02  0.39828760432E+03  0.16500000000E+03 0.  0.
   -5000001    1    1    2    0    0 -0.20951236829E+02  0.35612301533E+03 -0.14844499161E+04  0.15356038258E+04  0.16500000000E+03 0.  0.
<mgrwt>
<rscale>  0 0.11580353E+04</rscale>
<asrwt>0</asrwt>
<pdfrwt beam="1">  1        2 0.24876618E+00 0.11580353E+04</pdfrwt>
<pdfrwt beam="2">  1       -2 0.27504020E-01 0.11580353E+04</pdfrwt>
<totfact> 0.13001532E+02</totfact>
</mgrwt>
</event>
<event>
 4    1  0.1837449E-005  0.4437427E+03  0.7818608E-02  0.1029605E+00
         -2   -1    0    0    0  501 -0.00000000000E+00  0.00000000000E+00  0.16084342031E+02  0.16084342233E+02  0.25500000000E-02 0. -1.
          2   -1    0    0  501    0  0.00000000000E+00 -0.00000000000E+00 -0.30605482548E+04  0.30605482548E+04  0.25500000000E-02 0.  1.
    5000001    1    1    2    0    0  0.13474675412E+03  0.29804235115E+02 -0.18992520822E+04  0.19113943738E+04  0.16500000000E+03 0.  0.
   -5000001    1    1    2    0    0 -0.13474675412E+03 -0.29804235115E+02 -0.11452118305E+04  0.11652382233E+04  0.16500000000E+03 0.  0.
<mgrwt>
<rscale>  0 0.44374274E+03</rscale>
<asrwt>0</asrwt>
<pdfrwt beam="1">  1        2 0.43722081E+00 0.44374274E+03</pdfrwt>
<pdfrwt beam="2">  1       -2 0.22977651E-02 0.44374274E+03</pdfrwt>
<totfact> 0.15918293E+03</totfact>
</mgrwt>
</event>
<event>
 4    1  0.1837449E-005  0.7394761E+03  0.7818608E-02  0.9652007E-01
         -2   -1    0    0    0  501 -0.00000000000E+00  0.00000000000E+00  0.65712718762E+02  0.65712718812E+02  0.25500000000E-02 0. -1.
          2   -1    0    0  501    0  0.00000000000E+00 -0.00000000000E+00 -0.20803615963E+04  0.20803615963E+04  0.25500000000E-02 0.  1.
    5000001    1    1    2    0    0 -0.76571551488E+02  0.11586087533E+03 -0.18789101604E+04  0.18912470319E+04  0.16500000000E+03 0.  0.
   -5000001    1    1    2    0    0  0.76571551488E+02 -0.11586087533E+03 -0.13573871716E+03  0.25482728321E+03  0.16500000000E+03 0.  0.
<mgrwt>
<rscale>  0 0.73947608E+03</rscale>
<asrwt>0</asrwt>
<pdfrwt beam="1">  1        2 0.29719447E+00 0.73947608E+03</pdfrwt>
<pdfrwt beam="2">  1       -2 0.93875325E-02 0.73947608E+03</pdfrwt>
<totfact> 0.56710477E+02</totfact>
</mgrwt>
</event>
<event>
 4    1  0.1837449E-005  0.6192611E+03  0.7818608E-02  0.9866232E-01
         -2   -1    0    0    0  501 -0.00000000000E+00  0.00000000000E+00  0.22312897196E+03  0.22312897197E+03  0.25500000000E-02 0. -1.
          2   -1    0    0  501    0  0.00000000000E+00 -0.00000000000E+00 -0.42966667907E+03  0.42966667908E+03  0.25500000000E-02 0.  1.
    5000001    1    1    2    0    0 -0.22677739567E+03 -0.12807449229E+03 -0.13336341398E+03  0.33591942925E+03  0.16500000000E+03 0.  0.
   -5000001    1    1    2    0    0  0.22677739567E+03  0.12807449229E+03 -0.73174293132E+02  0.31687622179E+03  0.16500000000E+03 0.  0.
<mgrwt>
<rscale>  0 0.61926112E+03</rscale>
<asrwt>0</asrwt>
<pdfrwt beam="1">  1        2 0.61380954E-01 0.61926112E+03</pdfrwt>
<pdfrwt beam="2">  1       -2 0.31875567E-01 0.61926112E+03</pdfrwt>
<totfact> 0.73324614E+02</totfact>
</mgrwt>
</event>
<event>
 4    1  0.1837449E-005  0.4551073E+03  0.7818608E-02  0.1026210E+00
          2   -1    0    0  501    0  0.00000000000E+00  0.00000000000E+00  0.19983282540E+04  0.19983282540E+04  0.25500000000E-02 0.  1.
         -2   -1    0    0    0  501 -0.00000000000E+00 -0.00000000000E+00 -0.25911988709E+02  0.25911988834E+02  0.25500000000E-02 0. -1.
    5000001    1    1    2    0    0 -0.11128063887E+03 -0.93496869987E+02  0.72569225418E+03  0.75827389053E+03  0.16500000000E+03 0.  0.
   -5000001    1    1    2    0    0  0.11128063887E+03  0.93496869987E+02  0.12467240111E+04  0.12659663523E+04  0.16500000000E+03 0.  0.
<mgrwt>
<rscale>  0 0.45510728E+03</rscale>
<asrwt>0</asrwt>
<pdfrwt beam="1">  1        2 0.28547538E+00 0.45510728E+03</pdfrwt>
<pdfrwt beam="2">  1       -2 0.37017138E-02 0.45510728E+03</pdfrwt>
<totfact> 0.27175821E+03</totfact>
</mgrwt>
</event>
<event>
 4    1  0.1837449E-005  0.4231515E+03  0.7818608E-02  0.1036045E+00
         -2   -1    0    0    0  501 -0.00000000000E+00  0.00000000000E+00  0.92983441866E+03  0.92983441867E+03  0.25500000000E-02 0. -1.
          2   -1    0    0  501    0  0.00000000000E+00 -0.00000000000E+00 -0.48142224706E+02  0.48142224773E+02  0.25500000000E-02 0.  1.
    5000001    1    1    2    0    0 -0.52765312680E+01 -0.12547761078E+03  0.34369910361E+03  0.40140571298E+03  0.16500000000E+03 0.  0.
   -5000001    1    1    2    0    0  0.52765312680E+01  0.12547761078E+03  0.53799309035E+03  0.57657093046E+03  0.16500000000E+03 0.  0.
<mgrwt>
<rscale>  0 0.42315150E+03</rscale>
<asrwt>0</asrwt>
<pdfrwt beam="1">  1        2 0.68774610E-02 0.42315150E+03</pdfrwt>
<pdfrwt beam="2">  1       -2 0.13283348E+00 0.42315150E+03</pdfrwt>
<totfact> 0.44904443E+02</totfact>
</mgrwt>
</event>
<event>
 4    1  0.1837449E-005  0.5555366E+03  0.7818608E-02  0.1000220E+00
          2   -1    0    0  501    0  0.00000000000E+00  0.00000000000E+00  0.81874004404E+03  0.81874004404E+03  0.25500000000E-02 0.  1.
         -2   -1    0    0    0  501 -0.00000000000E+00 -0.00000000000E+00 -0.94236524118E+02  0.94236524153E+02  0.25500000000E-02 0. -1.
    5000001    1    1    2    0    0 -0.10570481491E+03 -0.18322656416E+03  0.24391757078E+03  0.36258276716E+03  0.16500000000E+03 0.  0.
   -5000001    1    1    2    0    0  0.10570481491E+03  0.18322656416E+03  0.48058594913E+03  0.55039380103E+03  0.16500000000E+03 0.  0.
<mgrwt>
<rscale>  0 0.55553655E+03</rscale>
<asrwt>0</asrwt>
<pdfrwt beam="1">  1        2 0.11696287E+00 0.55553655E+03</pdfrwt>
<pdfrwt beam="2">  1       -2 0.13462360E-01 0.55553655E+03</pdfrwt>
<totfact> 0.15523449E+03</totfact>
</mgrwt>
</event>
<event>
 4    1  0.1837449E-005  0.8035610E+03  0.7818608E-02  0.9554877E-01
         -2   -1    0    0    0  501 -0.00000000000E+00  0.00000000000E+00  0.17286441403E+03  0.17286441404E+03  0.25500000000E-02 0. -1.
          2   -1    0    0  501    0  0.00000000000E+00 -0.00000000000E+00 -0.93383920150E+03  0.93383920150E+03  0.25500000000E-02 0.  1.
    5000001    1    1    2    0    0  0.21994032486E+03 -0.25880674185E+03 -0.19140815050E+03  0.42334000071E+03  0.16500000000E+03 0.  0.
   -5000001    1    1    2    0    0 -0.21994032486E+03  0.25880674185E+03 -0.56956663697E+03  0.68336361483E+03  0.16500000000E+03 0.  0.
<mgrwt>
<rscale>  0 0.80356099E+03</rscale>
<asrwt>0</asrwt>
<pdfrwt beam="1">  1        2 0.13340560E+00 0.80356099E+03</pdfrwt>
<pdfrwt beam="2">  1       -2 0.24694917E-01 0.80356099E+03</pdfrwt>
<totfact> 0.45414580E+02</totfact>
</mgrwt>
</event>
<event>
 4    1  0.1837449E-005  0.4766065E+03  0.7818608E-02  0.1020072E+00
         -2   -1    0    0    0  501 -0.00000000000E+00  0.00000000000E+00  0.26562029075E+02  0.26562029198E+02  0.25500000000E-02 0. -1.
          2   -1    0    0  501    0  0.00000000000E+00 -0.00000000000E+00 -0.21379554568E+04  0.21379554568E+04  0.25500000000E-02 0.  1.
    5000001    1    1    2    0    0  0.11399199434E+03 -0.12636720092E+03 -0.11669955249E+04  0.11908259316E+04  0.16500000000E+03 0.  0.
   -5000001    1    1    2    0    0 -0.11399199434E+03  0.12636720092E+03 -0.94439790281E+03  0.97369155438E+03  0.16500000000E+03 0.  0.
<mgrwt>
<rscale>  0 0.47660648E+03</rscale>
<asrwt>0</asrwt>
<pdfrwt beam="1">  1        2 0.30542210E+00 0.47660648E+03</pdfrwt>
<pdfrwt beam="2">  1       -2 0.37945770E-02 0.47660648E+03</pdfrwt>
<totfact> 0.22280417E+03</totfact>
</mgrwt>
</event>
<event>
 4    1  0.1837449E-005  0.5283707E+03  0.7818608E-02  0.1006628E+00
         -2   -1    0    0    0  501 -0.00000000000E+00  0.00000000000E+00  0.93210514582E+02  0.93210514617E+02  0.25500000000E-02 0. -1.
          2   -1    0    0  501    0  0.00000000000E+00 -0.00000000000E+00 -0.74877699958E+03  0.74877699959E+03  0.25500000000E-02 0.  1.
    5000001    1    1    2    0    0  0.15201509056E+03 -0.13890318773E+03 -0.34832750136E+03  0.43698939521E+03  0.16500000000E+03 0.  0.
   -5000001    1    1    2    0    0 -0.15201509056E+03  0.13890318773E+03 -0.30723898364E+03  0.40499811900E+03  0.16500000000E+03 0.  0.
<mgrwt>
<rscale>  0 0.52837066E+03</rscale>
<asrwt>0</asrwt>
<pdfrwt beam="1">  1        2 0.10696814E+00 0.52837066E+03</pdfrwt>
<pdfrwt beam="2">  1       -2 0.13315788E-01 0.52837066E+03</pdfrwt>
<totfact> 0.17699813E+03</totfact>
</mgrwt>
</event>
<event>
 4    1  0.1837449E-005  0.1050212E+04  0.7818608E-02  0.9255125E-01
          2   -1    0    0  501    0  0.00000000000E+00  0.00000000000E+00  0.25823588284E+04  0.25823588284E+04  0.25500000000E-02 0.  1.
         -2   -1    0    0    0  501 -0.00000000000E+00 -0.00000000000E+00 -0.10677696208E+03  0.10677696211E+03  0.25500000000E-02 0. -1.
    5000001    1    1    2    0    0  0.19713358362E+03  0.45336087576E+03  0.10735611851E+04  0.11933802209E+04  0.16500000000E+03 0.  0.
   -5000001    1    1    2    0    0 -0.19713358362E+03 -0.45336087576E+03  0.14020206812E+04  0.14957555696E+04  0.16500000000E+03 0.  0.
<mgrwt>
<rscale>  0 0.10502122E+04</rscale>
<asrwt>0</asrwt>
<pdfrwt beam="1">  1        2 0.36890842E+00 0.10502122E+04</pdfrwt>
<pdfrwt beam="2">  1       -2 0.15253851E-01 0.10502122E+04</pdfrwt>
<totfact> 0.13673279E+02</totfact>
</mgrwt>
</event>
<event>
 4    1  0.1837449E-005  0.5867958E+03  0.7818608E-02  0.9933186E-01
         -2   -1    0    0    0  501 -0.00000000000E+00  0.00000000000E+00  0.66193659456E+02  0.66193659505E+02  0.25500000000E-02 0. -1.
          2   -1    0    0  501    0  0.00000000000E+00 -0.00000000000E+00 -0.13004616527E+04  0.13004616527E+04  0.25500000000E-02 0.  1.
    5000001    1    1    2    0    0 -0.13987459588E+02  0.22202181834E+03 -0.84255531257E+03  0.88691250503E+03  0.16500000000E+03 0.  0.
   -5000001    1    1    2    0    0  0.13987459588E+02 -0.22202181834E+03 -0.39171268071E+03  0.47974280722E+03  0.16500000000E+03 0.  0.
<mgrwt>
<rscale>  0 0.58679576E+03</rscale>
<asrwt>0</asrwt>
<pdfrwt beam="1">  1        2 0.18578022E+00 0.58679576E+03</pdfrwt>
<pdfrwt beam="2">  1       -2 0.94562379E-02 0.58679576E+03</pdfrwt>
<totfact> 0.14244570E+03</totfact>
</mgrwt>
</event>
<event>
 4    1  0.1837449E-005  0.4517867E+03  0.7818608E-02  0.1027191E+00
         -2   -1    0    0    0  501 -0.00000000000E+00  0.00000000000E+00  0.21400460053E+02  0.21400460204E+02  0.25500000000E-02 0. -1.
          2   -1    0    0  501    0  0.00000000000E+00 -0.00000000000E+00 -0.23844261494E+04  0.23844261494E+04  0.25500000000E-02 0.  1.
    5000001    1    1    2    0    0 -0.64879958367E+02  0.13591389821E+03 -0.13597912638E+04  0.13780200571E+04  0.16500000000E+03 0.  0.
   -5000001    1    1    2    0    0  0.64879958367E+02 -0.13591389821E+03 -0.10032344255E+04  0.10278065524E+04  0.16500000000E+03 0.  0.
<mgrwt>
<rscale>  0 0.45178675E+03</rscale>
<asrwt>0</asrwt>
<pdfrwt beam="1">  1        2 0.34063214E+00 0.45178675E+03</pdfrwt>
<pdfrwt beam="2">  1       -2 0.30572101E-02 0.45178675E+03</pdfrwt>
<totfact> 0.23303368E+03</totfact>
</mgrwt>
</event>
<event>
 4    1  0.1837449E-005  0.5022621E+03  0.7818608E-02  0.1013190E+00
         -2   -1    0    0    0  501 -0.00000000000E+00  0.00000000000E+00  0.12386472378E+03  0.12386472380E+03  0.25500000000E-02 0. -1.
          2   -1    0    0  501    0  0.00000000000E+00 -0.00000000000E+00 -0.50915881576E+03  0.50915881576E+03  0.25500000000E-02 0.  1.
    5000001    1    1    2    0    0  0.20908929281E+01  0.11849537172E+03 -0.65751807226E+01  0.20325786074E+03  0.16500000000E+03 0.  0.
   -5000001    1    1    2    0    0 -0.20908929281E+01 -0.11849537172E+03 -0.37871891126E+03  0.42976567883E+03  0.16500000000E+03 0.  0.
<mgrwt>
<rscale>  0 0.50226215E+03</rscale>
<asrwt>0</asrwt>
<pdfrwt beam="1">  1        2 0.72736973E-01 0.50226215E+03</pdfrwt>
<pdfrwt beam="2">  1       -2 0.17694961E-01 0.50226215E+03</pdfrwt>
<totfact> 0.17303873E+03</totfact>
</mgrwt>
</event>
<event>
 4    1  0.1837449E-005  0.9442014E+03  0.7818608E-02  0.9371954E-01
          2   -1    0    0  501    0  0.00000000000E+00  0.00000000000E+00  0.16410665265E+04  0.16410665265E+04  0.25500000000E-02 0.  1.
         -2   -1    0    0    0  501 -0.00000000000E+00 -0.00000000000E+00 -0.13581354384E+03  0.13581354386E+03  0.25500000000E-02 0. -1.
    5000001    1    1    2    0    0  0.24217811219E+03  0.20446881843E+03  0.17199100123E+03  0.39656479954E+03  0.16500000000E+03 0.  0.
   -5000001    1    1    2    0    0 -0.24217811219E+03 -0.20446881843E+03  0.13332619814E+04  0.13803152708E+04  0.16500000000E+03 0.  0.
<mgrwt>
<rscale>  0 0.94420138E+03</rscale>
<asrwt>0</asrwt>
<pdfrwt beam="1">  1        2 0.23443806E+00 0.94420138E+03</pdfrwt>
<pdfrwt beam="2">  1       -2 0.19401936E-01 0.94420138E+03</pdfrwt>
<totfact> 0.27749812E+02</totfact>
</mgrwt>
</event>
<event>
 4    1  0.1837449E-005  0.4045426E+03  0.7818608E-02  0.1042218E+00
         -2   -1    0    0    0  501 -0.00000000000E+00  0.00000000000E+00  0.98838803624E+02  0.98838803657E+02  0.25500000000E-02 0. -1.
          2   -1    0    0  501    0  0.00000000000E+00 -0.00000000000E+00 -0.41394344276E+03  0.41394344276E+03  0.25500000000E-02 0.  1.
    5000001    1    1    2    0    0  0.23460835365E+01 -0.11494432184E+03 -0.13004381739E+03  0.23948715137E+03  0.16500000000E+03 0.  0.
   -5000001    1    1    2    0    0 -0.23460835365E+01  0.11494432184E+03 -0.18506082175E+03  0.27329509505E+03  0.16500000000E+03 0.  0.
<mgrwt>
<rscale>  0 0.40454258E+03</rscale>
<asrwt>0</asrwt>
<pdfrwt beam="1">  1        2 0.59134776E-01 0.40454258E+03</pdfrwt>
<pdfrwt beam="2">  1       -2 0.14119829E-01 0.40454258E+03</pdfrwt>
<totfact> 0.31795101E+03</totfact>
</mgrwt>
</event>
<event>
 4    1  0.1837449E-005  0.7280043E+03  0.7818608E-02  0.9670504E-01
         -2   -1    0    0    0  501 -0.00000000000E+00  0.00000000000E+00  0.77223445126E+02  0.77223445168E+02  0.25500000000E-02 0. -1.
          2   -1    0    0  501    0  0.00000000000E+00 -0.00000000000E+00 -0.17157686809E+04  0.17157686809E+04  0.25500000000E-02 0.  1.
    5000001    1    1    2    0    0 -0.94580802325E+02 -0.31014741375E+03 -0.79059059283E+03  0.87028468440E+03  0.16500000000E+03 0.  0.
   -5000001    1    1    2    0    0  0.94580802325E+02  0.31014741375E+03 -0.84795464295E+03  0.92270744168E+03  0.16500000000E+03 0.  0.
<mgrwt>
<rscale>  0 0.72800431E+03</rscale>
<asrwt>0</asrwt>
<pdfrwt beam="1">  1        2 0.24510979E+00 0.72800431E+03</pdfrwt>
<pdfrwt beam="2">  1       -2 0.11031922E-01 0.72800431E+03</pdfrwt>
<totfact> 0.66774610E+02</totfact>
</mgrwt>
</event>
<event>
 4    1  0.1837449E-005  0.5281800E+03  0.7818608E-02  0.1006674E+00
         -2   -1    0    0    0  501 -0.00000000000E+00  0.00000000000E+00  0.29082515758E+02  0.29082515870E+02  0.25500000000E-02 0. -1.
          2   -1    0    0  501    0  0.00000000000E+00 -0.00000000000E+00 -0.23981254429E+04  0.23981254429E+04  0.25500000000E-02 0.  1.
    5000001    1    1    2    0    0  0.13961872707E+03 -0.14950579081E+03 -0.13037502720E+04  0.13299756171E+04  0.16500000000E+03 0.  0.
   -5000001    1    1    2    0    0 -0.13961872707E+03  0.14950579081E+03 -0.10652926552E+04  0.10972323417E+04  0.16500000000E+03 0.  0.
<mgrwt>
<rscale>  0 0.52817997E+03</rscale>
<asrwt>0</asrwt>
<pdfrwt beam="1">  1        2 0.34258923E+00 0.52817997E+03</pdfrwt>
<pdfrwt beam="2">  1       -2 0.41546466E-02 0.52817997E+03</pdfrwt>
<totfact> 0.14314846E+03</totfact>
</mgrwt>
</event>
<event>
 4    1  0.1837449E-005  0.4242080E+03  0.7818608E-02  0.1035705E+00
          2   -1    0    0  501    0  0.00000000000E+00  0.00000000000E+00  0.22559727349E+03  0.22559727350E+03  0.25500000000E-02 0.  1.
         -2   -1    0    0    0  501 -0.00000000000E+00 -0.00000000000E+00 -0.19941779713E+03  0.19941779715E+03  0.25500000000E-02 0. -1.
    5000001    1    1    2    0    0 -0.93343243416E+02  0.91781905664E+02 -0.11982499192E+02  0.21096317116E+03  0.16500000000E+03 0.  0.
   -5000001    1    1    2    0    0  0.93343243416E+02 -0.91781905664E+02  0.38161975550E+02  0.21405189949E+03  0.16500000000E+03 0.  0.
<mgrwt>
<rscale>  0 0.42420802E+03</rscale>
<asrwt>0</asrwt>
<pdfrwt beam="1">  1        2 0.32228182E-01 0.42420802E+03</pdfrwt>
<pdfrwt beam="2">  1       -2 0.28488257E-01 0.42420802E+03</pdfrwt>
<totfact> 0.18354889E+03</totfact>
</mgrwt>
</event>
<event>
 4    1  0.1837449E-005  0.7210064E+03  0.7818608E-02  0.9681968E-01
         -2   -1    0    0    0  501 -0.00000000000E+00  0.00000000000E+00  0.33502910136E+03  0.33502910137E+03  0.25500000000E-02 0. -1.
          2   -1    0    0  501    0  0.00000000000E+00 -0.00000000000E+00 -0.38791424277E+03  0.38791424278E+03  0.25500000000E-02 0.  1.
    5000001    1    1    2    0    0  0.35910654626E+02 -0.31492012014E+03 -0.74249824851E+02  0.36496889412E+03  0.16500000000E+03 0.  0.
   -5000001    1    1    2    0    0 -0.35910654626E+02  0.31492012014E+03  0.21364683439E+02  0.35797445004E+03  0.16500000000E+03 0.  0.
<mgrwt>
<rscale>  0 0.72100641E+03</rscale>
<asrwt>0</asrwt>
<pdfrwt beam="1">  1        2 0.55416321E-01 0.72100641E+03</pdfrwt>
<pdfrwt beam="2">  1       -2 0.47861300E-01 0.72100641E+03</pdfrwt>
<totfact> 0.37307260E+02</totfact>
</mgrwt>
</event>
<event>
 4    1  0.1837449E-005  0.5218496E+03  0.7818608E-02  0.1008228E+00
         -2   -1    0    0    0  501 -0.00000000000E+00  0.00000000000E+00  0.11899873160E+03  0.11899873162E+03  0.25500000000E-02 0. -1.
          2   -1    0    0  501    0  0.00000000000E+00 -0.00000000000E+00 -0.57212171464E+03  0.57212171464E+03  0.25500000000E-02 0.  1.
    5000001    1    1    2    0    0  0.18425469212E+03  0.53360252753E+02 -0.14217893627E+03  0.29023603853E+03  0.16500000000E+03 0.  0.
   -5000001    1    1    2    0    0 -0.18425469212E+03 -0.53360252753E+02 -0.31094404678E+03  0.40088440774E+03  0.16500000000E+03 0.  0.
<mgrwt>
<rscale>  0 0.52184963E+03</rscale>
<asrwt>0</asrwt>
<pdfrwt beam="1">  1        2 0.81731672E-01 0.52184963E+03</pdfrwt>
<pdfrwt beam="2">  1       -2 0.16999819E-01 0.52184963E+03</pdfrwt>
<totfact> 0.16210339E+03</totfact>
</mgrwt>
</event>
<event>
 4    1  0.1837449E-005  0.4980147E+03  0.7818608E-02  0.1014298E+00
          2   -1    0    0  501    0  0.00000000000E+00  0.00000000000E+00  0.88101793114E+02  0.88101793151E+02  0.25500000000E-02 0.  1.
         -2   -1    0    0    0  501 -0.00000000000E+00 -0.00000000000E+00 -0.70378434306E+03  0.70378434306E+03  0.25500000000E-02 0. -1.
    5000001    1    1    2    0    0  0.12781308134E+02  0.16602421603E+03 -0.44137308673E+03  0.49976254745E+03  0.16500000000E+03 0.  0.
   -5000001    1    1    2    0    0 -0.12781308134E+02 -0.16602421603E+03 -0.17430946322E+03  0.29212358876E+03  0.16500000000E+03 0.  0.
<mgrwt>
<rscale>  0 0.49801471E+03</rscale>
<asrwt>0</asrwt>
<pdfrwt beam="1">  1        2 0.12585971E-01 0.49801471E+03</pdfrwt>
<pdfrwt beam="2">  1       -2 0.10054062E+00 0.49801471E+03</pdfrwt>
<totfact> 0.41002591E+02</totfact>
</mgrwt>
</event>
<event>
 4    1  0.1837449E-005  0.5259993E+03  0.7818608E-02  0.1007207E+00
         -2   -1    0    0    0  501 -0.00000000000E+00  0.00000000000E+00  0.51130181766E+03  0.51130181766E+03  0.25500000000E-02 0. -1.
          2   -1    0    0  501    0  0.00000000000E+00 -0.00000000000E+00 -0.13527980774E+03  0.13527980777E+03  0.25500000000E-02 0.  1.
    5000001    1    1    2    0    0  0.11417222357E+03  0.15743738516E+03  0.10909022025E+03  0.27739412942E+03  0.16500000000E+03 0.  0.
   -5000001    1    1    2    0    0 -0.11417222357E+03 -0.15743738516E+03  0.26693178967E+03  0.36918749602E+03  0.16500000000E+03 0.  0.
<mgrwt>
<rscale>  0 0.52599928E+03</rscale>
<asrwt>0</asrwt>
<pdfrwt beam="1">  1        2 0.19325687E-01 0.52599928E+03</pdfrwt>
<pdfrwt beam="2">  1       -2 0.73043116E-01 0.52599928E+03</pdfrwt>
<totfact> 0.50521773E+02</totfact>
</mgrwt>
</event>
<event>
 4    1  0.1837449E-005  0.3917819E+03  0.7818608E-02  0.1046663E+00
          2   -1    0    0  501    0  0.00000000000E+00  0.00000000000E+00  0.25060400074E+03  0.25060400076E+03  0.25500000000E-02 0.  1.
         -2   -1    0    0    0  501 -0.00000000000E+00 -0.00000000000E+00 -0.15312313607E+03  0.15312313609E+03  0.25500000000E-02 0. -1.
    5000001    1    1    2    0    0  0.50211669642E+02  0.81978545095E+02  0.93736100030E+02  0.21272787799E+03  0.16500000000E+03 0.  0.
   -5000001    1    1    2    0    0 -0.50211669642E+02 -0.81978545095E+02  0.37447646432E+01  0.19099925886E+03  0.16500000000E+03 0.  0.
<mgrwt>
<rscale>  0 0.39178193E+03</rscale>
<asrwt>0</asrwt>
<pdfrwt beam="1">  1        2 0.35800572E-01 0.39178193E+03</pdfrwt>
<pdfrwt beam="2">  1       -2 0.21874734E-01 0.39178193E+03</pdfrwt>
<totfact> 0.26136787E+03</totfact>
</mgrwt>
</event>
<event>
 4    1  0.1837449E-005  0.8531377E+03  0.7818608E-02  0.9486135E-01
          2   -1    0    0  501    0  0.00000000000E+00  0.00000000000E+00  0.11328784841E+04  0.11328784841E+04  0.25500000000E-02 0.  1.
         -2   -1    0    0    0  501 -0.00000000000E+00 -0.00000000000E+00 -0.16061826449E+03  0.16061826451E+03  0.25500000000E-02 0. -1.
    5000001    1    1    2    0    0  0.34668539427E+03 -0.77073208756E+02  0.74255884549E+03  0.83949370524E+03  0.16500000000E+03 0.  0.
   -5000001    1    1    2    0    0 -0.34668539427E+03  0.77073208756E+02  0.22970137408E+03  0.45400304334E+03  0.16500000000E+03 0.  0.
<mgrwt>
<rscale>  0 0.85313768E+03</rscale>
<asrwt>0</asrwt>
<pdfrwt beam="1">  1        2 0.16183978E+00 0.85313768E+03</pdfrwt>
<pdfrwt beam="2">  1       -2 0.22945466E-01 0.85313768E+03</pdfrwt>
<totfact> 0.39144950E+02</totfact>
</mgrwt>
</event>
<event>
 4    1  0.1837449E-005  0.3955109E+03  0.7818608E-02  0.1045345E+00
         -2   -1    0    0    0  501 -0.00000000000E+00  0.00000000000E+00  0.18085544078E+02  0.18085544258E+02  0.25500000000E-02 0. -1.
          2   -1    0    0  501    0  0.00000000000E+00 -0.00000000000E+00 -0.21623466863E+04  0.21623466863E+04  0.25500000000E-02 0.  1.
    5000001    1    1    2    0    0 -0.46925292200E+02  0.94395605427E+02 -0.12250792645E+04  0.12406275499E+04  0.16500000000E+03 0.  0.
   -5000001    1    1    2    0    0  0.46925292200E+02 -0.94395605427E+02 -0.91918187768E+03  0.93980468057E+03  0.16500000000E+03 0.  0.
<mgrwt>
<rscale>  0 0.39551089E+03</rscale>
<asrwt>0</asrwt>
<pdfrwt beam="1">  1        2 0.30890651E+00 0.39551089E+03</pdfrwt>
<pdfrwt beam="2">  1       -2 0.25836505E-02 0.39551089E+03</pdfrwt>
<totfact> 0.38834297E+03</totfact>
</mgrwt>
</event>
<event>
 4    1  0.1837449E-005  0.4191991E+03  0.7818608E-02  0.1037327E+00
          2   -1    0    0  501    0  0.00000000000E+00  0.00000000000E+00  0.25632549497E+03  0.25632549498E+03  0.25500000000E-02 0.  1.
         -2   -1    0    0    0  501 -0.00000000000E+00 -0.00000000000E+00 -0.17139137040E+03  0.17139137042E+03  0.25500000000E-02 0. -1.
    5000001    1    1    2    0    0 -0.31773987235E+02  0.73396830235E+02 -0.61135760291E+02  0.19328544213E+03  0.16500000000E+03 0.  0.
   -5000001    1    1    2    0    0  0.31773987235E+02 -0.73396830235E+02  0.14606988486E+03  0.23443142327E+03  0.16500000000E+03 0.  0.
<mgrwt>
<rscale>  0 0.41919913E+03</rscale>
<asrwt>0</asrwt>
<pdfrwt beam="1">  1        2 0.36617928E-01 0.41919913E+03</pdfrwt>
<pdfrwt beam="2">  1       -2 0.24484482E-01 0.41919913E+03</pdfrwt>
<totfact> 0.20928806E+03</totfact>
</mgrwt>
</event>
<event>
 4    1  0.1837449E-005  0.1167646E+04  0.7818608E-02  0.9141657E-01
         -2   -1    0    0    0  501 -0.00000000000E+00  0.00000000000E+00  0.17691253230E+03  0.17691253232E+03  0.25500000000E-02 0. -1.
          2   -1    0    0  501    0  0.00000000000E+00 -0.00000000000E+00 -0.19266537777E+04  0.19266537777E+04  0.25500000000E-02 0.  1.
    5000001    1    1    2    0    0 -0.19805606871E+03  0.49764357835E+03 -0.58022654143E+03  0.80669893815E+03  0.16500000000E+03 0.  0.
   -5000001    1    1    2    0    0  0.19805606871E+03 -0.49764357835E+03 -0.11695147040E+04  0.12968673719E+04  0.16500000000E+03 0.  0.
<mgrwt>
<rscale>  0 0.11676458E+04</rscale>
<asrwt>0</asrwt>
<pdfrwt beam="1">  1        2 0.27523624E+00 0.11676458E+04</pdfrwt>
<pdfrwt beam="2">  1       -2 0.25273220E-01 0.11676458E+04</pdfrwt>
<totfact> 0.12175061E+02</totfact>
</mgrwt>
</event>
<event>
 4    1  0.1837449E-005  0.3757355E+03  0.7818608E-02  0.1052521E+00
         -2   -1    0    0    0  501 -0.00000000000E+00  0.00000000000E+00  0.89028192264E+03  0.89028192264E+03  0.25500000000E-02 0. -1.
          2   -1    0    0  501    0  0.00000000000E+00 -0.00000000000E+00 -0.39643953307E+02  0.39643953389E+02  0.25500000000E-02 0.  1.
    5000001    1    1    2    0    0  0.50280797191E+02 -0.66403288494E+02  0.50857955101E+03  0.54112449121E+03  0.16500000000E+03 0.  0.
   -5000001    1    1    2    0    0 -0.50280797191E+02  0.66403288494E+02  0.34205841832E+03  0.38880138482E+03  0.16500000000E+03 0.  0.
<mgrwt>
<rscale>  0 0.37573552E+03</rscale>
<asrwt>0</asrwt>
<pdfrwt beam="1">  1        2 0.56634233E-02 0.37573552E+03</pdfrwt>
<pdfrwt beam="2">  1       -2 0.12718310E+00 0.37573552E+03</pdfrwt>
<totfact> 0.64575348E+02</totfact>
</mgrwt>
</event>
<event>
 4    1  0.1837449E-005  0.4803222E+03  0.7818608E-02  0.1019047E+00
         -2   -1    0    0    0  501 -0.00000000000E+00  0.00000000000E+00  0.22761632825E+03  0.22761632827E+03  0.25500000000E-02 0. -1.
          2   -1    0    0  501    0  0.00000000000E+00 -0.00000000000E+00 -0.25339728465E+03  0.25339728466E+03  0.25500000000E-02 0.  1.
    5000001    1    1    2    0    0 -0.10917294797E+03  0.56033810955E+02  0.11136002506E+03  0.23384733422E+03  0.16500000000E+03 0.  0.
   -5000001    1    1    2    0    0  0.10917294797E+03 -0.56033810955E+02 -0.13714098145E+03  0.24716627871E+03  0.16500000000E+03 0.  0.
<mgrwt>
<rscale>  0 0.48032222E+03</rscale>
<asrwt>0</asrwt>
<pdfrwt beam="1">  1        2 0.36199612E-01 0.48032222E+03</pdfrwt>
<pdfrwt beam="2">  1       -2 0.32516619E-01 0.48032222E+03</pdfrwt>
<totfact> 0.12666412E+03</totfact>
</mgrwt>
</event>
<event>
 4    1  0.1837449E-005  0.3819918E+03  0.7818608E-02  0.1050200E+00
          2   -1    0    0  501    0  0.00000000000E+00  0.00000000000E+00  0.19748762127E+04  0.19748762127E+04  0.25500000000E-02 0.  1.
         -2   -1    0    0    0  501 -0.00000000000E+00 -0.00000000000E+00 -0.18471759114E+02  0.18471759290E+02  0.25500000000E-02 0. -1.
    5000001    1    1    2    0    0  0.87193991868E+02 -0.95345996809E+01  0.11843572514E+04  0.11990082567E+04  0.16500000000E+03 0.  0.
   -5000001    1    1    2    0    0 -0.87193991868E+02  0.95345996809E+01  0.77204720224E+03  0.79433971529E+03  0.16500000000E+03 0.  0.
<mgrwt>
<rscale>  0 0.38199182E+03</rscale>
<asrwt>0</asrwt>
<pdfrwt beam="1">  1        2 0.28212505E+00 0.38199182E+03</pdfrwt>
<pdfrwt beam="2">  1       -2 0.26388239E-02 0.38199182E+03</pdfrwt>
<totfact> 0.46588835E+03</totfact>
</mgrwt>
</event>
<event>
 4    1  0.1837449E-005  0.4271456E+03  0.7818608E-02  0.1034765E+00
         -2   -1    0    0    0  501 -0.00000000000E+00  0.00000000000E+00  0.92247517586E+02  0.92247517621E+02  0.25500000000E-02 0. -1.
          2   -1    0    0  501    0  0.00000000000E+00 -0.00000000000E+00 -0.49446694635E+03  0.49446694635E+03  0.25500000000E-02 0.  1.
    5000001    1    1    2    0    0  0.95273139759E+02 -0.78436812069E+02 -0.27831172991E+03  0.34628272214E+03  0.16500000000E+03 0.  0.
   -5000001    1    1    2    0    0 -0.95273139759E+02  0.78436812069E+02 -0.12390769885E+03  0.24043174183E+03  0.16500000000E+03 0.  0.
<mgrwt>
<rscale>  0 0.42714563E+03</rscale>
<asrwt>0</asrwt>
<pdfrwt beam="1">  1        2 0.70638134E-01 0.42714563E+03</pdfrwt>
<pdfrwt beam="2">  1       -2 0.13178217E-01 0.42714563E+03</pdfrwt>
<totfact> 0.29279515E+03</totfact>
</mgrwt>
</event>
<event>
 4    1  0.1837449E-005  0.3494083E+03  0.7818608E-02  0.1062858E+00
          2   -1    0    0  501    0  0.00000000000E+00  0.00000000000E+00  0.12743705986E+04  0.12743705986E+04  0.25500000000E-02 0.  1.
         -2   -1    0    0    0  501 -0.00000000000E+00 -0.00000000000E+00 -0.23950290930E+02  0.23950291066E+02  0.25500000000E-02 0. -1.
    5000001    1    1    2    0    0  0.49038346044E+02  0.29541606395E+02  0.64144121618E+03  0.66479267422E+03  0.16500000000E+03 0.  0.
   -5000001    1    1    2    0    0 -0.49038346044E+02 -0.29541606395E+02  0.60897909154E+03  0.63352821549E+03  0.16500000000E+03 0.  0.
<mgrwt>
<rscale>  0 0.34940834E+03</rscale>
<asrwt>0</asrwt>
<pdfrwt beam="1">  1        2 0.18205301E+00 0.34940834E+03</pdfrwt>
<pdfrwt beam="2">  1       -2 0.34214689E-02 0.34940834E+03</pdfrwt>
<totfact> 0.71390781E+03</totfact>
</mgrwt>
</event>
<event>
 4    1  0.1837449E-005  0.3776812E+03  0.7818608E-02  0.1051794E+00
          2   -1    0    0  501    0  0.00000000000E+00  0.00000000000E+00  0.27309505823E+04  0.27309505823E+04  0.25500000000E-02 0.  1.
         -2   -1    0    0    0  501 -0.00000000000E+00 -0.00000000000E+00 -0.13058005071E+02  0.13058005320E+02  0.25500000000E-02 0. -1.
    5000001    1    1    2    0    0  0.79593131704E+02  0.38879417512E+02  0.11826060641E+04  0.11973423815E+04  0.16500000000E+03 0.  0.
   -5000001    1    1    2    0    0 -0.79593131704E+02 -0.38879417512E+02  0.15352865130E+04  0.15466662060E+04  0.16500000000E+03 0.  0.
<mgrwt>
<rscale>  0 0.37768117E+03</rscale>
<asrwt>0</asrwt>
<pdfrwt beam="1">  1        2 0.39013540E+00 0.37768117E+03</pdfrwt>
<pdfrwt beam="2">  1       -2 0.18654312E-02 0.37768117E+03</pdfrwt>
<totfact> 0.32626524E+03</totfact>
</mgrwt>
</event>
<event>
 4    1  0.1837449E-005  0.7029536E+03  0.7818608E-02  0.9712194E-01
          2   -1    0    0  501    0  0.00000000000E+00  0.00000000000E+00  0.15451431487E+03  0.15451431489E+03  0.25500000000E-02 0.  1.
         -2   -1    0    0    0  501 -0.00000000000E+00 -0.00000000000E+00 -0.79951128476E+03  0.79951128477E+03  0.25500000000E-02 0. -1.
    5000001    1    1    2    0    0  0.11905074745E+03  0.27434366935E+03 -0.43501582790E+03  0.55308344750E+03  0.16500000000E+03 0.  0.
   -5000001    1    1    2    0    0 -0.11905074745E+03 -0.27434366935E+03 -0.20998114200E+03  0.40094215215E+03  0.16500000000E+03 0.  0.
<mgrwt>
<rscale>  0 0.70295359E+03</rscale>
<asrwt>0</asrwt>
<pdfrwt beam="1">  1        2 0.22073474E-01 0.70295359E+03</pdfrwt>
<pdfrwt beam="2">  1       -2 0.11421590E+00 0.70295359E+03</pdfrwt>
<totfact> 0.15338725E+02</totfact>
</mgrwt>
</event>
<event>
 4    1  0.1837449E-005  0.6228458E+03  0.7818608E-02  0.9859110E-01
          2   -1    0    0  501    0  0.00000000000E+00  0.00000000000E+00  0.64381661700E+03  0.64381661700E+03  0.25500000000E-02 0.  1.
         -2   -1    0    0    0  501 -0.00000000000E+00 -0.00000000000E+00 -0.15063949048E+03  0.15063949050E+03  0.25500000000E-02 0. -1.
    5000001    1    1    2    0    0 -0.20757412947E+03 -0.12653287995E+03  0.11488395648E+03  0.31546935254E+03  0.16500000000E+03 0.  0.
   -5000001    1    1    2    0    0  0.20757412947E+03  0.12653287995E+03  0.37829317004E+03  0.47898675496E+03  0.16500000000E+03 0.  0.
<mgrwt>
<rscale>  0 0.62284575E+03</rscale>
<asrwt>0</asrwt>
<pdfrwt beam="1">  1        2 0.91973803E-01 0.62284575E+03</pdfrwt>
<pdfrwt beam="2">  1       -2 0.21519927E-01 0.62284575E+03</pdfrwt>
<totfact> 0.93731851E+02</totfact>
</mgrwt>
</event>
<event>
 4    1  0.1837449E-005  0.4656353E+03  0.7818608E-02  0.1023159E+00
         -2   -1    0    0    0  501 -0.00000000000E+00  0.00000000000E+00  0.16574452131E+03  0.16574452133E+03  0.25500000000E-02 0. -1.
          2   -1    0    0  501    0  0.00000000000E+00 -0.00000000000E+00 -0.32703371819E+03  0.32703371820E+03  0.25500000000E-02 0.  1.
    5000001    1    1    2    0    0  0.12360231216E+03 -0.10433960375E+03 -0.11085254550E+03  0.25627635733E+03  0.16500000000E+03 0.  0.
   -5000001    1    1    2    0    0 -0.12360231216E+03  0.10433960375E+03 -0.50436651380E+02  0.23650188220E+03  0.16500000000E+03 0.  0.
<mgrwt>
<rscale>  0 0.46563525E+03</rscale>
<asrwt>0</asrwt>
<pdfrwt beam="1">  1        2 0.46719103E-01 0.46563525E+03</pdfrwt>
<pdfrwt beam="2">  1       -2 0.23677789E-01 0.46563525E+03</pdfrwt>
<totfact> 0.17026568E+03</totfact>
</mgrwt>
</event>
<event>
 4    1  0.1837449E-005  0.6891174E+03  0.7818608E-02  0.9736026E-01
          2   -1    0    0  501    0  0.00000000000E+00  0.00000000000E+00  0.77790239707E+03  0.77790239707E+03  0.25500000000E-02 0.  1.
         -2   -1    0    0    0  501 -0.00000000000E+00 -0.00000000000E+00 -0.15261645431E+03  0.15261645433E+03  0.25500000000E-02 0. -1.
    5000001    1    1    2    0    0 -0.26953208105E+03  0.10861619363E+03  0.19926005734E+03  0.38906887653E+03  0.16500000000E+03 0.  0.
   -5000001    1    1    2    0    0  0.26953208105E+03 -0.10861619363E+03  0.42602588543E+03  0.54144997487E+03  0.16500000000E+03 0.  0.
<mgrwt>
<rscale>  0 0.68911742E+03</rscale>
<asrwt>0</asrwt>
<pdfrwt beam="1">  1        2 0.11112891E+00 0.68911742E+03</pdfrwt>
<pdfrwt beam="2">  1       -2 0.21802351E-01 0.68911742E+03</pdfrwt>
<totfact> 0.72446098E+02</totfact>
</mgrwt>
</event>
<event>
 4    1  0.1837449E-005  0.9151804E+03  0.7818608E-02  0.9406802E-01
          2   -1    0    0  501    0  0.00000000000E+00  0.00000000000E+00  0.21541192127E+04  0.21541192127E+04  0.25500000000E-02 0.  1.
         -2   -1    0    0    0  501 -0.00000000000E+00 -0.00000000000E+00 -0.97203908253E+02  0.97203908287E+02  0.25500000000E-02 0. -1.
    5000001    1    1    2    0    0  0.40049283254E+03  0.43168574089E+01  0.66565759493E+03  0.79419026553E+03  0.16500000000E+03 0.  0.
   -5000001    1    1    2    0    0 -0.40049283254E+03 -0.43168574089E+01  0.13912577096E+04  0.14571328555E+04  0.16500000000E+03 0.  0.
<mgrwt>
<rscale>  0 0.91518043E+03</rscale>
<asrwt>0</asrwt>
<pdfrwt beam="1">  1        2 0.30773132E+00 0.91518043E+03</pdfrwt>
<pdfrwt beam="2">  1       -2 0.13886273E-01 0.91518043E+03</pdfrwt>
<totfact> 0.26948729E+02</totfact>
</mgrwt>
</event>
<event>
 4    1  0.1837449E-005  0.6359179E+03  0.7818608E-02  0.9833568E-01
         -2   -1    0    0    0  501 -0.00000000000E+00  0.00000000000E+00  0.10034156811E+03  0.10034156814E+03  0.25500000000E-02 0. -1.
          2   -1    0    0  501    0  0.00000000000E+00 -0.00000000000E+00 -0.10075374051E+04  0.10075374051E+04  0.25500000000E-02 0.  1.
    5000001    1    1    2    0    0 -0.85097130609E+02  0.23275845664E+03 -0.25916904501E+03  0.39472979957E+03  0.16500000000E+03 0.  0.
   -5000001    1    1    2    0    0  0.85097130609E+02 -0.23275845664E+03 -0.64802679195E+03  0.71314917364E+03  0.16500000000E+03 0.  0.
<mgrwt>
<rscale>  0 0.63591787E+03</rscale>
<asrwt>0</asrwt>
<pdfrwt beam="1">  1        2 0.14393391E+00 0.63591787E+03</pdfrwt>
<pdfrwt beam="2">  1       -2 0.14334510E-01 0.63591787E+03</pdfrwt>
<totfact> 0.10560788E+03</totfact>
</mgrwt>
</event>
<event>
 4    1  0.1837449E-005  0.5731848E+03  0.7818608E-02  0.9962656E-01
         -2   -1    0    0    0  501 -0.00000000000E+00  0.00000000000E+00  0.86835092742E+02  0.86835092779E+02  0.25500000000E-02 0. -1.
          2   -1    0    0  501    0  0.00000000000E+00 -0.00000000000E+00 -0.94587573399E+03  0.94587573399E+03  0.25500000000E-02 0.  1.
    5000001    1    1    2    0    0 -0.36425640953E+02  0.22950070254E+03 -0.48395474230E+03  0.56163564023E+03  0.16500000000E+03 0.  0.
   -5000001    1    1    2    0    0  0.36425640953E+02 -0.22950070254E+03 -0.37508589895E+03  0.47107518654E+03  0.16500000000E+03 0.  0.
<mgrwt>
<rscale>  0 0.57318481E+03</rscale>
<asrwt>0</asrwt>
<pdfrwt beam="1">  1        2 0.13512510E+00 0.57318481E+03</pdfrwt>
<pdfrwt beam="2">  1       -2 0.12405014E-01 0.57318481E+03</pdfrwt>
<totfact> 0.14681332E+03</totfact>
</mgrwt>
</event>
<event>
 4    1  0.1837449E-005  0.4212604E+03  0.7818608E-02  0.1036657E+00
         -2   -1    0    0    0  501 -0.00000000000E+00  0.00000000000E+00  0.44709246170E+02  0.44709246243E+02  0.25500000000E-02 0. -1.
          2   -1    0    0  501    0  0.00000000000E+00 -0.00000000000E+00 -0.99230208479E+03  0.99230208480E+03  0.25500000000E-02 0.  1.
    5000001    1    1    2    0    0  0.59279942706E+02  0.10578138978E+03 -0.59530167714E+03  0.62953387585E+03  0.16500000000E+03 0.  0.
   -5000001    1    1    2    0    0 -0.59279942706E+02 -0.10578138978E+03 -0.35229116148E+03  0.40747745519E+03  0.16500000000E+03 0.  0.
<mgrwt>
<rscale>  0 0.42126039E+03</rscale>
<asrwt>0</asrwt>
<pdfrwt beam="1">  1        2 0.14175743E+00 0.42126039E+03</pdfrwt>
<pdfrwt beam="2">  1       -2 0.63870358E-02 0.42126039E+03</pdfrwt>
<totfact> 0.39771090E+03</totfact>
</mgrwt>
</event>
<event>
 4    1  0.1837449E-005  0.1386048E+04  0.7818608E-02  0.8963980E-01
          2   -1    0    0  501    0  0.00000000000E+00  0.00000000000E+00  0.94197978945E+03  0.94197978946E+03  0.25500000000E-02 0. -1.
         -2   -1    0    0    0  501 -0.00000000000E+00 -0.00000000000E+00 -0.50986467394E+03  0.50986467394E+03  0.25500000000E-02 0.  1.
    5000001    1    1    2    0    0  0.41273859232E+03  0.33164529098E+03  0.65137640161E+03  0.85548697313E+03  0.16500000000E+03 0.  0.
   -5000001    1    1    2    0    0 -0.41273859232E+03 -0.33164529098E+03 -0.21926128610E+03  0.59635749027E+03  0.16500000000E+03 0.  0.
<mgrwt>
<rscale>  0 0.13860479E+04</rscale>
<asrwt>0</asrwt>
<pdfrwt beam="1">  1        2 0.13456854E+00 0.13860479E+04</pdfrwt>
<pdfrwt beam="2">  1       -2 0.72837811E-01 0.13860479E+04</pdfrwt>
<totfact> 0.50782772E+01</totfact>
</mgrwt>
</event>
<event>
 4    1  0.1837449E-005  0.8115150E+03  0.7818608E-02  0.9543498E-01
         -2   -1    0    0    0  501 -0.00000000000E+00  0.00000000000E+00  0.72909539661E+02  0.72909539706E+02  0.25500000000E-02 0.  1.
          2   -1    0    0  501    0  0.00000000000E+00 -0.00000000000E+00 -0.22581292973E+04  0.22581292973E+04  0.25500000000E-02 0. -1.
    5000001    1    1    2    0    0  0.22750467211E+03  0.25816255426E+03 -0.69658738194E+03  0.79427026945E+03  0.16500000000E+03 0.  0.
   -5000001    1    1    2    0    0 -0.22750467211E+03 -0.25816255426E+03 -0.14886323757E+04  0.15367685676E+04  0.16500000000E+03 0.  0.
<mgrwt>
<rscale>  0 0.81151505E+03</rscale>
<asrwt>0</asrwt>
<pdfrwt beam="1">  1        2 0.32258986E+00 0.81151505E+03</pdfrwt>
<pdfrwt beam="2">  1       -2 0.10415650E-01 0.81151505E+03</pdfrwt>
<totfact> 0.38709967E+02</totfact>
</mgrwt>
</event>
<event>
 4    1  0.1837449E-005  0.3612895E+03  0.7818608E-02  0.1058074E+00
         -2   -1    0    0    0  501 -0.00000000000E+00  0.00000000000E+00  0.22968221454E+02  0.22968221596E+02  0.25500000000E-02 0. -1.
          2   -1    0    0  501    0  0.00000000000E+00 -0.00000000000E+00 -0.14207686289E+04  0.14207686289E+04  0.25500000000E-02 0.  1.
    5000001    1    1    2    0    0  0.59100016237E+02  0.22161365647E+02 -0.54812662884E+03  0.57589212470E+03  0.16500000000E+03 0.  0.
   -5000001    1    1    2    0    0 -0.59100016237E+02 -0.22161365647E+02 -0.84967377859E+03  0.86784472579E+03  0.16500000000E+03 0.  0.
<mgrwt>
<rscale>  0 0.36128952E+03</rscale>
<asrwt>0</asrwt>
<pdfrwt beam="1">  1        2 0.20296689E+00 0.36128952E+03</pdfrwt>
<pdfrwt beam="2">  1       -2 0.32811754E-02 0.36128952E+03</pdfrwt>
<totfact> 0.63699283E+03</totfact>
</mgrwt>
</event>
<event>
 4    1  0.1837449E-005  0.4538309E+03  0.7818608E-02  0.1026586E+00
          2   -1    0    0  501    0  0.00000000000E+00  0.00000000000E+00  0.28101492767E+04  0.28101492767E+04  0.25500000000E-02 0.  1.
         -2   -1    0    0    0  501 -0.00000000000E+00 -0.00000000000E+00 -0.18323093826E+02  0.18323094003E+02  0.25500000000E-02 0. -1.
    5000001    1    1    2    0    0 -0.46158845248E+02  0.11683872938E+03  0.82186201694E+03  0.84762261801E+03  0.16500000000E+03 0.  0.
   -5000001    1    1    2    0    0  0.46158845248E+02 -0.11683872938E+03  0.19699641660E+04  0.19808497527E+04  0.16500000000E+03 0.  0.
<mgrwt>
<rscale>  0 0.45383093E+03</rscale>
<asrwt>0</asrwt>
<pdfrwt beam="1">  1        2 0.40144984E+00 0.45383093E+03</pdfrwt>
<pdfrwt beam="2">  1       -2 0.26175852E-02 0.45383093E+03</pdfrwt>
<totfact> 0.17798738E+03</totfact>
</mgrwt>
</event>
<event>
 4    1  0.1837449E-005  0.7786664E+03  0.7818608E-02  0.9591421E-01
          2   -1    0    0  501    0  0.00000000000E+00  0.00000000000E+00  0.23728383763E+04  0.23728383763E+04  0.25500000000E-02 0.  1.
         -2   -1    0    0    0  501 -0.00000000000E+00 -0.00000000000E+00 -0.63881438500E+02  0.63881438551E+02  0.25500000000E-02 0. -1.
    5000001    1    1    2    0    0 -0.13831610338E+03 -0.14612727140E+03  0.20607525975E+04  0.20771159795E+04  0.16500000000E+03 0.  0.
   -5000001    1    1    2    0    0  0.13831610338E+03  0.14612727140E+03  0.24820434027E+03  0.35960383540E+03  0.16500000000E+03 0.  0.
<mgrwt>
<rscale>  0 0.77866637E+03</rscale>
<asrwt>0</asrwt>
<pdfrwt beam="1">  1        2 0.33897688E+00 0.77866637E+03</pdfrwt>
<pdfrwt beam="2">  1       -2 0.91259206E-02 0.77866637E+03</pdfrwt>
<totfact> 0.42036034E+02</totfact>
</mgrwt>
</event>
<event>
 4    1  0.1837449E-005  0.1156768E+04  0.7818608E-02  0.9151562E-01
          2   -1    0    0  501    0  0.00000000000E+00  0.00000000000E+00  0.33516771705E+04  0.33516771705E+04  0.25500000000E-02 0.  1.
         -2   -1    0    0    0  501 -0.00000000000E+00 -0.00000000000E+00 -0.99809196069E+02  0.99809196101E+02  0.25500000000E-02 0. -1.
    5000001    1    1    2    0    0  0.30335146453E+03 -0.19161648871E+03  0.28867653714E+04  0.29136537713E+04  0.16500000000E+03 0.  0.
   -5000001    1    1    2    0    0 -0.30335146453E+03  0.19161648871E+03  0.36510260303E+03  0.53783259526E+03  0.16500000000E+03 0.  0.
<mgrwt>
<rscale>  0 0.11567683E+04</rscale>
<asrwt>0</asrwt>
<pdfrwt beam="1">  1        2 0.47881102E+00 0.11567683E+04</pdfrwt>
<pdfrwt beam="2">  1       -2 0.14258457E-01 0.11567683E+04</pdfrwt>
<totfact> 0.57071040E+01</totfact>
</mgrwt>
</event>
<event>
 4    1  0.1837449E-005  0.7565526E+03  0.7818608E-02  0.9625126E-01
         -2   -1    0    0    0  501 -0.00000000000E+00  0.00000000000E+00  0.11288918946E+03  0.11288918949E+03  0.25500000000E-02 0. -1.
          2   -1    0    0  501    0  0.00000000000E+00 -0.00000000000E+00 -0.12675522437E+04  0.12675522437E+04  0.25500000000E-02 0.  1.
    5000001    1    1    2    0    0  0.33924403238E+03 -0.80123005667E+01 -0.52846521108E+03  0.64934674080E+03  0.16500000000E+03 0.  0.
   -5000001    1    1    2    0    0 -0.33924403238E+03  0.80123005667E+01 -0.62619784320E+03  0.73109469243E+03  0.16500000000E+03 0.  0.
<mgrwt>
<rscale>  0 0.75655256E+03</rscale>
<asrwt>0</asrwt>
<pdfrwt beam="1">  1        2 0.18107888E+00 0.75655256E+03</pdfrwt>
<pdfrwt beam="2">  1       -2 0.16127028E-01 0.75655256E+03</pdfrwt>
<totfact> 0.60975007E+02</totfact>
</mgrwt>
</event>
<event>
 4    1  0.1837449E-005  0.6596333E+03  0.7818608E-02  0.9788869E-01
         -2   -1    0    0    0  501 -0.00000000000E+00  0.00000000000E+00  0.26653245947E+03  0.26653245948E+03  0.25500000000E-02 0. -1.
          2   -1    0    0  501    0  0.00000000000E+00 -0.00000000000E+00 -0.40812673628E+03  0.40812673628E+03  0.25500000000E-02 0.  1.
    5000001    1    1    2    0    0 -0.14845626571E+03 -0.19141031296E+03 -0.22549346601E+03  0.36979653048E+03  0.16500000000E+03 0.  0.
   -5000001    1    1    2    0    0  0.14845626571E+03  0.19141031296E+03  0.83899189202E+02  0.30486266529E+03  0.16500000000E+03 0.  0.
<mgrwt>
<rscale>  0 0.65963330E+03</rscale>
<asrwt>0</asrwt>
<pdfrwt beam="1">  1        2 0.58303820E-01 0.65963330E+03</pdfrwt>
<pdfrwt beam="2">  1       -2 0.38076066E-01 0.65963330E+03</pdfrwt>
<totfact> 0.55398055E+02</totfact>
</mgrwt>
</event>
<event>
 4    1  0.1837449E-005  0.4312785E+03  0.7818608E-02  0.1033457E+00
         -2   -1    0    0    0  501 -0.00000000000E+00  0.00000000000E+00  0.73547552328E+02  0.73547552372E+02  0.25500000000E-02 0. -1.
          2   -1    0    0  501    0  0.00000000000E+00 -0.00000000000E+00 -0.63224782733E+03  0.63224782733E+03  0.25500000000E-02 0.  1.
    5000001    1    1    2    0    0  0.11003551451E+03  0.83381916148E+02 -0.25535842480E+03  0.33390609984E+03  0.16500000000E+03 0.  0.
   -5000001    1    1    2    0    0 -0.11003551451E+03 -0.83381916148E+02 -0.30334185020E+03  0.37188927987E+03  0.16500000000E+03 0.  0.
<mgrwt>
<rscale>  0 0.43127847E+03</rscale>
<asrwt>0</asrwt>
<pdfrwt beam="1">  1        2 0.90321115E-01 0.43127847E+03</pdfrwt>
<pdfrwt beam="2">  1       -2 0.10506794E-01 0.43127847E+03</pdfrwt>
<totfact> 0.31957295E+03</totfact>
</mgrwt>
</event>
<event>
 4    1  0.1837449E-005  0.4345063E+03  0.7818608E-02  0.1032446E+00
         -2   -1    0    0    0  501 -0.00000000000E+00  0.00000000000E+00  0.52649385607E+03  0.52649385608E+03  0.25500000000E-02 0. -1.
          2   -1    0    0  501    0  0.00000000000E+00 -0.00000000000E+00 -0.89647650756E+02  0.89647650793E+02  0.25500000000E-02 0.  1.
    5000001    1    1    2    0    0  0.63774821743E+02 -0.12521553679E+03  0.19702176029E+03  0.29289713650E+03  0.16500000000E+03 0.  0.
   -5000001    1    1    2    0    0 -0.63774821743E+02  0.12521553679E+03  0.23982444502E+03  0.32324437037E+03  0.16500000000E+03 0.  0.
<mgrwt>
<rscale>  0 0.43450633E+03</rscale>
<asrwt>0</asrwt>
<pdfrwt beam="1">  1        2 0.12806807E-01 0.43450633E+03</pdfrwt>
<pdfrwt beam="2">  1       -2 0.75213410E-01 0.43450633E+03</pdfrwt>
<totfact> 0.77583858E+02</totfact>
</mgrwt>
</event>
<event>
 4    1  0.1837449E-005  0.3892530E+03  0.7818608E-02  0.1047566E+00
          2   -1    0    0  501    0  0.00000000000E+00  0.00000000000E+00  0.39381278376E+03  0.39381278377E+03  0.25500000000E-02 0.  1.
         -2   -1    0    0    0  501 -0.00000000000E+00 -0.00000000000E+00 -0.96186484224E+02  0.96186484258E+02  0.25500000000E-02 0. -1.
    5000001    1    1    2    0    0  0.12446553100E+02 -0.10174491837E+03  0.13352369720E+03  0.23571279730E+03  0.16500000000E+03 0.  0.
   -5000001    1    1    2    0    0 -0.12446553100E+02  0.10174491837E+03  0.16410260234E+03  0.25428647072E+03  0.16500000000E+03 0.  0.
<mgrwt>
<rscale>  0 0.38925296E+03</rscale>
<asrwt>0</asrwt>
<pdfrwt beam="1">  1        2 0.56258969E-01 0.38925296E+03</pdfrwt>
<pdfrwt beam="2">  1       -2 0.13740926E-01 0.38925296E+03</pdfrwt>
<totfact> 0.35103043E+03</totfact>
</mgrwt>
</event>
<event>
 4    1  0.1837449E-005  0.5809792E+03  0.7818608E-02  0.9945673E-01
          2   -1    0    0  501    0  0.00000000000E+00  0.00000000000E+00  0.14933440754E+04  0.14933440754E+04  0.25500000000E-02 0.  1.
         -2   -1    0    0    0  501 -0.00000000000E+00 -0.00000000000E+00 -0.56506877886E+02  0.56506877944E+02  0.25500000000E-02 0. -1.
    5000001    1    1    2    0    0  0.16061795142E+02  0.20324506949E+03  0.38530711081E+03  0.46610418275E+03  0.16500000000E+03 0.  0.
   -5000001    1    1    2    0    0 -0.16061795142E+02 -0.20324506949E+03  0.10515300867E+04  0.10837467706E+04  0.16500000000E+03 0.  0.
<mgrwt>
<rscale>  0 0.58097921E+03</rscale>
<asrwt>0</asrwt>
<pdfrwt beam="1">  1        2 0.21333482E+00 0.58097921E+03</pdfrwt>
<pdfrwt beam="2">  1       -2 0.80724129E-02 0.58097921E+03</pdfrwt>
<totfact> 0.14500880E+03</totfact>
</mgrwt>
</event>
<event>
 4    1  0.1837449E-005  0.4813746E+03  0.7818608E-02  0.1018758E+00
         -2   -1    0    0    0  501 -0.00000000000E+00  0.00000000000E+00  0.10595378506E+04  0.10595378506E+04  0.25500000000E-02 0. -1.
          2   -1    0    0  501    0  0.00000000000E+00 -0.00000000000E+00 -0.54675126639E+02  0.54675126699E+02  0.25500000000E-02 0.  1.
    5000001    1    1    2    0    0  0.22882312489E+02 -0.16690673981E+03  0.39084930199E+03  0.45647523140E+03  0.16500000000E+03 0.  0.
   -5000001    1    1    2    0    0 -0.22882312489E+02  0.16690673981E+03  0.61401342195E+03  0.65773774587E+03  0.16500000000E+03 0.  0.
<mgrwt>
<rscale>  0 0.48137456E+03</rscale>
<asrwt>0</asrwt>
<pdfrwt beam="1">  1        2 0.78107323E-02 0.48137456E+03</pdfrwt>
<pdfrwt beam="2">  1       -2 0.15136255E+00 0.48137456E+03</pdfrwt>
<totfact> 0.27187611E+02</totfact>
</mgrwt>
</event>
<event>
 4    1  0.1837449E-005  0.4094438E+03  0.7818608E-02  0.1040558E+00
          2   -1    0    0  501    0  0.00000000000E+00  0.00000000000E+00  0.24559822655E+04  0.24559822655E+04  0.25500000000E-02 0.  1.
         -2   -1    0    0    0  501 -0.00000000000E+00 -0.00000000000E+00 -0.17064886970E+02  0.17064887161E+02  0.25500000000E-02 0. -1.
    5000001    1    1    2    0    0  0.51447040713E+02 -0.10750624861E+03  0.10868987777E+04  0.11057930840E+04  0.16500000000E+03 0.  0.
   -5000001    1    1    2    0    0 -0.51447040713E+02  0.10750624861E+03  0.13520186008E+04  0.13672540687E+04  0.16500000000E+03 0.  0.
<mgrwt>
<rscale>  0 0.40944382E+03</rscale>
<asrwt>0</asrwt>
<pdfrwt beam="1">  1        2 0.35085461E+00 0.40944382E+03</pdfrwt>
<pdfrwt beam="2">  1       -2 0.24378410E-02 0.40944382E+03</pdfrwt>
<totfact> 0.30203589E+03</totfact>
</mgrwt>
</event>
<event>
 4    1  0.1837449E-005  0.6239885E+03  0.7818608E-02  0.9856851E-01
         -2   -1    0    0    0  501 -0.00000000000E+00  0.00000000000E+00  0.92490285619E+02  0.92490285654E+02  0.25500000000E-02 0. -1.
          2   -1    0    0  501    0  0.00000000000E+00 -0.00000000000E+00 -0.10524393240E+04  0.10524393240E+04  0.25500000000E-02 0.  1.
    5000001    1    1    2    0    0  0.21904313392E+03  0.12065383429E+03 -0.63970375386E+03  0.70638738306E+03  0.16500000000E+03 0.  0.
   -5000001    1    1    2    0    0 -0.21904313392E+03 -0.12065383429E+03 -0.32024528451E+03  0.43854222658E+03  0.16500000000E+03 0.  0.
<mgrwt>
<rscale>  0 0.62398851E+03</rscale>
<asrwt>0</asrwt>
<pdfrwt beam="1">  1        2 0.15034847E+00 0.62398851E+03</pdfrwt>
<pdfrwt beam="2">  1       -2 0.13212899E-01 0.62398851E+03</pdfrwt>
<totfact> 0.11374347E+03</totfact>
</mgrwt>
</event>
<event>
 4    1  0.1837449E-005  0.4992039E+03  0.7818608E-02  0.1013987E+00
         -2   -1    0    0    0  501 -0.00000000000E+00  0.00000000000E+00  0.14869955436E+03  0.14869955438E+03  0.25500000000E-02 0.  1.
          2   -1    0    0  501    0  0.00000000000E+00 -0.00000000000E+00 -0.41897331813E+03  0.41897331814E+03  0.25500000000E-02 0. -1.
    5000001    1    1    2    0    0  0.22247146562E+02  0.18585398445E+03 -0.14228439810E+03  0.28723942802E+03  0.16500000000E+03 0.  0.
   -5000001    1    1    2    0    0 -0.22247146562E+02 -0.18585398445E+03 -0.12798936567E+03  0.28043344450E+03  0.16500000000E+03 0.  0.
<mgrwt>
<rscale>  0 0.49920395E+03</rscale>
<asrwt>0</asrwt>
<pdfrwt beam="1">  1        2 0.59853331E-01 0.49920395E+03</pdfrwt>
<pdfrwt beam="2">  1       -2 0.21242794E-01 0.49920395E+03</pdfrwt>
<totfact> 0.15697472E+03</totfact>
</mgrwt>
</event>
<event>
 4    1  0.1837449E-005  0.3955870E+03  0.7818608E-02  0.1045319E+00
          2   -1    0    0  501    0  0.00000000000E+00  0.00000000000E+00  0.26933677529E+04  0.26933677529E+04  0.25500000000E-02 0. -1.
         -2   -1    0    0    0  501 -0.00000000000E+00 -0.00000000000E+00 -0.14525405859E+02  0.14525406082E+02  0.25500000000E-02 0.  1.
    5000001    1    1    2    0    0 -0.59552768538E+02  0.53928375039E+02  0.18444162122E+04  0.18535239318E+04  0.16500000000E+03 0.  0.
   -5000001    1    1    2    0    0  0.59552768538E+02 -0.53928375039E+02  0.83442613479E+03  0.85436922715E+03  0.16500000000E+03 0.  0.
<mgrwt>
<rscale>  0 0.39558696E+03</rscale>
<asrwt>0</asrwt>
<pdfrwt beam="1">  1        2 0.38476702E+00 0.39558696E+03</pdfrwt>
<pdfrwt beam="2">  1       -2 0.20750569E-02 0.39558696E+03</pdfrwt>
<totfact> 0.29093914E+03</totfact>
</mgrwt>
</event>
<event>
 4    1  0.1837449E-005  0.4313662E+03  0.7818608E-02  0.1033429E+00
          2   -1    0    0  501    0  0.00000000000E+00  0.00000000000E+00  0.37483256810E+03  0.37483256811E+03  0.25500000000E-02 0.  1.
         -2   -1    0    0    0  501 -0.00000000000E+00 -0.00000000000E+00 -0.12410658369E+03  0.12410658372E+03  0.25500000000E-02 0. -1.
    5000001    1    1    2    0    0 -0.12096935253E+03 -0.62148248431E+02  0.15804114548E+03  0.26589094136E+03  0.16500000000E+03 0.  0.
   -5000001    1    1    2    0    0  0.12096935253E+03  0.62148248431E+02  0.92684838925E+02  0.23304821047E+03  0.16500000000E+03 0.  0.
<mgrwt>
<rscale>  0 0.43136615E+03</rscale>
<asrwt>0</asrwt>
<pdfrwt beam="1">  1        2 0.53547510E-01 0.43136615E+03</pdfrwt>
<pdfrwt beam="2">  1       -2 0.17729512E-01 0.43136615E+03</pdfrwt>
<totfact> 0.24213242E+03</totfact>
</mgrwt>
</event>
<event>
 4    1  0.1837449E-005  0.6947373E+03  0.7818608E-02  0.9726275E-01
         -2   -1    0    0    0  501 -0.00000000000E+00  0.00000000000E+00  0.56231279452E+02  0.56231279510E+02  0.25500000000E-02 0. -1.
          2   -1    0    0  501    0  0.00000000000E+00 -0.00000000000E+00 -0.21458690846E+04  0.21458690846E+04  0.25500000000E-02 0.  1.
    5000001    1    1    2    0    0  0.20913385644E+03  0.20968477509E+03 -0.80477306043E+03  0.87326362206E+03  0.16500000000E+03 0.  0.
   -5000001    1    1    2    0    0 -0.20913385644E+03 -0.20968477509E+03 -0.12848647448E+04  0.13288367421E+04  0.16500000000E+03 0.  0.
<mgrwt>
<rscale>  0 0.69473726E+03</rscale>
<asrwt>0</asrwt>
<pdfrwt beam="1">  1        2 0.30655268E+00 0.69473726E+03</pdfrwt>
<pdfrwt beam="2">  1       -2 0.80330413E-02 0.69473726E+03</pdfrwt>
<totfact> 0.67717648E+02</totfact>
</mgrwt>
</event>
<event>
 4    1  0.1837449E-005  0.5172455E+03  0.7818608E-02  0.1009373E+00
          2   -1    0    0  501    0  0.00000000000E+00  0.00000000000E+00  0.28089286940E+04  0.28089286940E+04  0.25500000000E-02 0.  1.
         -2   -1    0    0    0  501 -0.00000000000E+00 -0.00000000000E+00 -0.23811823612E+02  0.23811823748E+02  0.25500000000E-02 0. -1.
    5000001    1    1    2    0    0 -0.18744986021E+03  0.63242243044E+02  0.15178853977E+04  0.15395902416E+04  0.16500000000E+03 0.  0.
   -5000001    1    1    2    0    0  0.18744986021E+03 -0.63242243044E+02  0.12672314727E+04  0.12931502762E+04  0.16500000000E+03 0.  0.
<mgrwt>
<rscale>  0 0.51724545E+03</rscale>
<asrwt>0</asrwt>
<pdfrwt beam="1">  1        2 0.40127570E+00 0.51724545E+03</pdfrwt>
<pdfrwt beam="2">  1       -2 0.34016877E-02 0.51724545E+03</pdfrwt>
<totfact> 0.11932073E+03</totfact>
</mgrwt>
</event>
<event>
 4    1  0.1837449E-005  0.1096987E+04  0.7818608E-02  0.9208133E-01
          2   -1    0    0  501    0  0.00000000000E+00  0.00000000000E+00  0.38858620979E+03  0.38858620979E+03  0.25500000000E-02 0.  1.
         -2   -1    0    0    0  501 -0.00000000000E+00 -0.00000000000E+00 -0.77420496394E+03  0.77420496395E+03  0.25500000000E-02 0. -1.
    5000001    1    1    2    0    0  0.27806535514E+03  0.38703442778E+03 -0.42139399604E+03  0.65720155958E+03  0.16500000000E+03 0.  0.
   -5000001    1    1    2    0    0 -0.27806535514E+03 -0.38703442778E+03  0.35775241881E+02  0.50558961416E+03  0.16500000000E+03 0.  0.
<mgrwt>
<rscale>  0 0.10969875E+04</rscale>
<asrwt>0</asrwt>
<pdfrwt beam="1">  1        2 0.55512315E-01 0.10969875E+04</pdfrwt>
<pdfrwt beam="2">  1       -2 0.11060071E+00 0.10969875E+04</pdfrwt>
<totfact> 0.57560567E+01</totfact>
</mgrwt>
</event>
<event>
 4    1  0.1837449E-005  0.5932381E+03  0.7818608E-02  0.9919535E-01
          2   -1    0    0  501    0  0.00000000000E+00  0.00000000000E+00  0.33289578513E+03  0.33289578514E+03  0.25500000000E-02 0. -1.
         -2   -1    0    0    0  501 -0.00000000000E+00 -0.00000000000E+00 -0.26429547050E+03  0.26429547051E+03  0.25500000000E-02 0.  1.
    5000001    1    1    2    0    0 -0.95502058170E+02  0.16366740732E+03  0.19299004310E+03  0.31682458880E+03  0.16500000000E+03 0.  0.
   -5000001    1    1    2    0    0  0.95502058170E+02 -0.16366740732E+03 -0.12438972847E+03  0.28036666685E+03  0.16500000000E+03 0.  0.
<mgrwt>
<rscale>  0 0.59323806E+03</rscale>
<asrwt>0</asrwt>
<pdfrwt beam="1">  1        2 0.47556541E-01 0.59323806E+03</pdfrwt>
<pdfrwt beam="2">  1       -2 0.37756496E-01 0.59323806E+03</pdfrwt>
<totfact> 0.70663753E+02</totfact>
</mgrwt>
</event>
<event>
 4    1  0.1837449E-005  0.7393299E+03  0.7818608E-02  0.9652240E-01
          2   -1    0    0  501    0  0.00000000000E+00  0.00000000000E+00  0.23625491205E+04  0.23625491205E+04  0.25500000000E-02 0.  1.
         -2   -1    0    0    0  501 -0.00000000000E+00 -0.00000000000E+00 -0.57840982439E+02  0.57840982495E+02  0.25500000000E-02 0. -1.
    5000001    1    1    2    0    0 -0.11941715508E+03 -0.27371270716E+03  0.16181962609E+04  0.16537724274E+04  0.16500000000E+03 0.  0.
   -5000001    1    1    2    0    0  0.11941715508E+03  0.27371270716E+03  0.68651187718E+03  0.76661767557E+03  0.16500000000E+03 0.  0.
<mgrwt>
<rscale>  0 0.73932986E+03</rscale>
<asrwt>0</asrwt>
<pdfrwt beam="1">  1        2 0.33750699E+00 0.73932986E+03</pdfrwt>
<pdfrwt beam="2">  1       -2 0.82629982E-02 0.73932986E+03</pdfrwt>
<totfact> 0.50076637E+02</totfact>
</mgrwt>
</event>
<event>
 4    1  0.1837449E-005  0.5818829E+03  0.7818608E-02  0.9943723E-01
         -2   -1    0    0    0  501 -0.00000000000E+00  0.00000000000E+00  0.21432673497E+03  0.21432673499E+03  0.25500000000E-02 0. -1.
          2   -1    0    0  501    0  0.00000000000E+00 -0.00000000000E+00 -0.39494342315E+03  0.39494342316E+03  0.25500000000E-02 0.  1.
    5000001    1    1    2    0    0 -0.13387086668E+03 -0.11640768736E+03 -0.25897960791E+03  0.35463727376E+03  0.16500000000E+03 0.  0.
   -5000001    1    1    2    0    0  0.13387086668E+03  0.11640768736E+03  0.78362919736E+02  0.25463288439E+03  0.16500000000E+03 0.  0.
<mgrwt>
<rscale>  0 0.58188292E+03</rscale>
<asrwt>0</asrwt>
<pdfrwt beam="1">  1        2 0.56420489E-01 0.58188292E+03</pdfrwt>
<pdfrwt beam="2">  1       -2 0.30618105E-01 0.58188292E+03</pdfrwt>
<totfact> 0.86841208E+02</totfact>
</mgrwt>
</event>
<event>
 4    1  0.1837449E-005  0.7858469E+03  0.7818608E-02  0.9580732E-01
         -2   -1    0    0    0  501 -0.00000000000E+00  0.00000000000E+00  0.76549382656E+02  0.76549382698E+02  0.25500000000E-02 0. -1.
          2   -1    0    0  501    0  0.00000000000E+00 -0.00000000000E+00 -0.20168527328E+04  0.20168527328E+04  0.25500000000E-02 0.  1.
    5000001    1    1    2    0    0 -0.21387489420E+03 -0.24749200079E+03 -0.13484702527E+04  0.13973517035E+04  0.16500000000E+03 0.  0.
   -5000001    1    1    2    0    0  0.21387489420E+03  0.24749200079E+03 -0.59183309741E+03  0.69605041198E+03  0.16500000000E+03 0.  0.
<mgrwt>
<rscale>  0 0.78584688E+03</rscale>
<asrwt>0</asrwt>
<pdfrwt beam="1">  1        2 0.28812179E+00 0.78584688E+03</pdfrwt>
<pdfrwt beam="2">  1       -2 0.10935627E-01 0.78584688E+03</pdfrwt>
<totfact> 0.47471678E+02</totfact>
</mgrwt>
</event>
<event>
 4    1  0.1837449E-005  0.5616998E+03  0.7818608E-02  0.9988216E-01
          2   -1    0    0  501    0  0.00000000000E+00  0.00000000000E+00  0.32050915454E+03  0.32050915455E+03  0.25500000000E-02 0.  1.
         -2   -1    0    0    0  501 -0.00000000000E+00 -0.00000000000E+00 -0.24609799355E+03  0.24609799356E+03  0.25500000000E-02 0. -1.
    5000001    1    1    2    0    0 -0.27713316037E+02  0.21318882597E+03 -0.37155187497E+02  0.27353795233E+03  0.16500000000E+03 0.  0.
   -5000001    1    1    2    0    0  0.27713316037E+02 -0.21318882597E+03  0.11156634849E+03  0.29306919579E+03  0.16500000000E+03 0.  0.
<mgrwt>
<rscale>  0 0.56169978E+03</rscale>
<asrwt>0</asrwt>
<pdfrwt beam="1">  1        2 0.45787022E-01 0.56169978E+03</pdfrwt>
<pdfrwt beam="2">  1       -2 0.35156856E-01 0.56169978E+03</pdfrwt>
<totfact> 0.84444948E+02</totfact>
</mgrwt>
</event>
<event>
 4    1  0.1837449E-005  0.7964007E+03  0.7818608E-02  0.9565242E-01
          2   -1    0    0  501    0  0.00000000000E+00  0.00000000000E+00  0.13934940840E+04  0.13934940840E+04  0.25500000000E-02 0.  1.
         -2   -1    0    0    0  501 -0.00000000000E+00 -0.00000000000E+00 -0.11378843944E+03  0.11378843947E+03  0.25500000000E-02 0. -1.
    5000001    1    1    2    0    0  0.23558650175E+03 -0.27220873251E+03  0.71879845161E+03  0.82066729428E+03  0.16500000000E+03 0.  0.
   -5000001    1    1    2    0    0 -0.23558650175E+03  0.27220873251E+03  0.56090719293E+03  0.68661522918E+03  0.16500000000E+03 0.  0.
<mgrwt>
<rscale>  0 0.79640070E+03</rscale>
<asrwt>0</asrwt>
<pdfrwt beam="1">  1        2 0.19907058E+00 0.79640070E+03</pdfrwt>
<pdfrwt beam="2">  1       -2 0.16255492E-01 0.79640070E+03</pdfrwt>
<totfact> 0.51273394E+02</totfact>
</mgrwt>
</event>
<event>
 4    1  0.1837449E-005  0.5380203E+03  0.7818608E-02  0.1004305E+00
          2   -1    0    0  501    0  0.00000000000E+00  0.00000000000E+00  0.76487727760E+03  0.76487727760E+03  0.25500000000E-02 0.  1.
         -2   -1    0    0    0  501 -0.00000000000E+00 -0.00000000000E+00 -0.94611862872E+02  0.94611862906E+02  0.25500000000E-02 0. -1.
    5000001    1    1    2    0    0 -0.60889632425E+02 -0.17976697755E+03  0.18259206354E+03  0.31078702550E+03  0.16500000000E+03 0.  0.
   -5000001    1    1    2    0    0  0.60889632425E+02  0.17976697755E+03  0.48767335119E+03  0.54870211501E+03  0.16500000000E+03 0.  0.
<mgrwt>
<rscale>  0 0.53802031E+03</rscale>
<asrwt>0</asrwt>
<pdfrwt beam="1">  1        2 0.10926818E+00 0.53802031E+03</pdfrwt>
<pdfrwt beam="2">  1       -2 0.13515981E-01 0.53802031E+03</pdfrwt>
<totfact> 0.16813653E+03</totfact>
</mgrwt>
</event>
<event>
 4    1  0.1837449E-005  0.7942793E+03  0.7818608E-02  0.9568335E-01
         -2   -1    0    0    0  501 -0.00000000000E+00  0.00000000000E+00  0.98421157623E+02  0.98421157656E+02  0.25500000000E-02 0. -1.
          2   -1    0    0  501    0  0.00000000000E+00 -0.00000000000E+00 -0.16024998156E+04  0.16024998156E+04  0.25500000000E-02 0.  1.
    5000001    1    1    2    0    0  0.10756529006E+03  0.31179099333E+03 -0.43650214610E+03  0.57143944447E+03  0.16500000000E+03 0.  0.
   -5000001    1    1    2    0    0 -0.10756529006E+03 -0.31179099333E+03 -0.10675765118E+04  0.11294815288E+04  0.16500000000E+03 0.  0.
<mgrwt>
<rscale>  0 0.79427926E+03</rscale>
<asrwt>0</asrwt>
<pdfrwt beam="1">  1        2 0.22892853E+00 0.79427926E+03</pdfrwt>
<pdfrwt beam="2">  1       -2 0.14060166E-01 0.79427926E+03</pdfrwt>
<totfact> 0.50878493E+02</totfact>
</mgrwt>
</event>
<event>
 4    1  0.1837449E-005  0.5601853E+03  0.7818608E-02  0.9991635E-01
         -2   -1    0    0    0  501 -0.00000000000E+00  0.00000000000E+00  0.17633404821E+03  0.17633404823E+03  0.25500000000E-02 0. -1.
          2   -1    0    0  501    0  0.00000000000E+00 -0.00000000000E+00 -0.44490502997E+03  0.44490502997E+03  0.25500000000E-02 0.  1.
    5000001    1    1    2    0    0  0.10848428853E+03  0.78026023667E+02 -0.33686949555E+03  0.39819964623E+03  0.16500000000E+03 0.  0.
   -5000001    1    1    2    0    0 -0.10848428853E+03 -0.78026023667E+02  0.68298513799E+02  0.22303943197E+03  0.16500000000E+03 0.  0.
<mgrwt>
<rscale>  0 0.56018534E+03</rscale>
<asrwt>0</asrwt>
<pdfrwt beam="1">  1        2 0.63557861E-01 0.56018534E+03</pdfrwt>
<pdfrwt beam="2">  1       -2 0.25190579E-01 0.56018534E+03</pdfrwt>
<totfact> 0.10855881E+03</totfact>
</mgrwt>
</event>
<event>
 4    1  0.1837449E-005  0.3922220E+03  0.7818608E-02  0.1046507E+00
          2   -1    0    0  501    0  0.00000000000E+00  0.00000000000E+00  0.79315406592E+03  0.79315406593E+03  0.25500000000E-02 0. -1.
         -2   -1    0    0    0  501 -0.00000000000E+00 -0.00000000000E+00 -0.48489350045E+02  0.48489350112E+02  0.25500000000E-02 0.  1.
    5000001    1    1    2    0    0 -0.84019584514E+02  0.58618715510E+02  0.43066909453E+03  0.47243657074E+03  0.16500000000E+03 0.  0.
   -5000001    1    1    2    0    0  0.84019584514E+02 -0.58618715510E+02  0.31399562135E+03  0.36920684530E+03  0.16500000000E+03 0.  0.
<mgrwt>
<rscale>  0 0.39222200E+03</rscale>
<asrwt>0</asrwt>
<pdfrwt beam="1">  1        2 0.11330772E+00 0.39222200E+03</pdfrwt>
<pdfrwt beam="2">  1       -2 0.69270503E-02 0.39222200E+03</pdfrwt>
<totfact> 0.46965608E+03</totfact>
</mgrwt>
</event>
<event>
 4    1  0.1837449E-005  0.5699819E+03  0.7818608E-02  0.9969719E-01
         -2   -1    0    0    0  501 -0.00000000000E+00  0.00000000000E+00  0.13483174339E+03  0.13483174341E+03  0.25500000000E-02 0.  1.
          2   -1    0    0  501    0  0.00000000000E+00 -0.00000000000E+00 -0.60237925018E+03  0.60237925018E+03  0.25500000000E-02 0. -1.
    5000001    1    1    2    0    0  0.92476735922E+02 -0.20690779537E+03 -0.16741796864E+03  0.32652191151E+03  0.16500000000E+03 0.  0.
   -5000001    1    1    2    0    0 -0.92476735922E+02  0.20690779537E+03 -0.30012953816E+03  0.41068908209E+03  0.16500000000E+03 0.  0.
<mgrwt>
<rscale>  0 0.56998191E+03</rscale>
<asrwt>0</asrwt>
<pdfrwt beam="1">  1        2 0.86054178E-01 0.56998191E+03</pdfrwt>
<pdfrwt beam="2">  1       -2 0.19261678E-01 0.56998191E+03</pdfrwt>
<totfact> 0.12316820E+03</totfact>
</mgrwt>
</event>
<event>
 4    1  0.1837449E-005  0.4815396E+03  0.7818608E-02  0.1018713E+00
          2   -1    0    0  501    0  0.00000000000E+00  0.00000000000E+00  0.10985003799E+04  0.10985003799E+04  0.25500000000E-02 0.  1.
         -2   -1    0    0    0  501 -0.00000000000E+00 -0.00000000000E+00 -0.52772039810E+02  0.52772039871E+02  0.25500000000E-02 0. -1.
    5000001    1    1    2    0    0  0.14547949235E+03  0.13948377435E+02  0.29123540872E+03  0.36524225279E+03  0.16500000000E+03 0.  0.
   -5000001    1    1    2    0    0 -0.14547949235E+03 -0.13948377435E+02  0.75449293137E+03  0.78603016699E+03  0.16500000000E+03 0.  0.
<mgrwt>
<rscale>  0 0.48153964E+03</rscale>
<asrwt>0</asrwt>
<pdfrwt beam="1">  1        2 0.15692861E+00 0.48153964E+03</pdfrwt>
<pdfrwt beam="2">  1       -2 0.75388634E-02 0.48153964E+03</pdfrwt>
<totfact> 0.26561617E+03</totfact>
</mgrwt>
</event>
<event>
 4    1  0.1837449E-005  0.3589307E+03  0.7818608E-02  0.1059008E+00
         -2   -1    0    0    0  501 -0.00000000000E+00  0.00000000000E+00  0.43356735396E+02  0.43356735471E+02  0.25500000000E-02 0. -1.
          2   -1    0    0  501    0  0.00000000000E+00 -0.00000000000E+00 -0.74285614883E+03  0.74285614883E+03  0.25500000000E-02 0.  1.
    5000001    1    1    2    0    0 -0.46018723049E+02  0.52865758660E+02 -0.33138320958E+03  0.37676563392E+03  0.16500000000E+03 0.  0.
   -5000001    1    1    2    0    0  0.46018723049E+02 -0.52865758660E+02 -0.36811620385E+03  0.40944725039E+03  0.16500000000E+03 0.  0.
<mgrwt>
<rscale>  0 0.35893073E+03</rscale>
<asrwt>0</asrwt>
<pdfrwt beam="1">  1        2 0.10612230E+00 0.35893073E+03</pdfrwt>
<pdfrwt beam="2">  1       -2 0.61938198E-02 0.35893073E+03</pdfrwt>
<totfact> 0.60505394E+03</totfact>
</mgrwt>
</event>
<event>
 4    1  0.1837449E-005  0.4305223E+03  0.7818608E-02  0.1033695E+00
         -2   -1    0    0    0  501 -0.00000000000E+00  0.00000000000E+00  0.71412387847E+02  0.71412387892E+02  0.25500000000E-02 0.  1.
          2   -1    0    0  501    0  0.00000000000E+00 -0.00000000000E+00 -0.64887006234E+03  0.64887006234E+03  0.25500000000E-02 0. -1.
    5000001    1    1    2    0    0  0.40008872780E+02  0.11323869953E+03 -0.40328830509E+03  0.45198470107E+03  0.16500000000E+03 0.  0.
   -5000001    1    1    2    0    0 -0.40008872780E+02 -0.11323869953E+03 -0.17416936940E+03  0.26829774917E+03  0.16500000000E+03 0.  0.
<mgrwt>
<rscale>  0 0.43052229E+03</rscale>
<asrwt>0</asrwt>
<pdfrwt beam="1">  1        2 0.92695719E-01 0.43052229E+03</pdfrwt>
<pdfrwt beam="2">  1       -2 0.10201770E-01 0.43052229E+03</pdfrwt>
<totfact> 0.32500533E+03</totfact>
</mgrwt>
</event>
<event>
 4    1  0.1837449E-005  0.5041969E+03  0.7818608E-02  0.1012689E+00
         -2   -1    0    0    0  501 -0.00000000000E+00  0.00000000000E+00  0.77385559845E+02  0.77385559887E+02  0.25500000000E-02 0. -1.
          2   -1    0    0  501    0  0.00000000000E+00 -0.00000000000E+00 -0.82125968895E+03  0.82125968895E+03  0.25500000000E-02 0.  1.
    5000001    1    1    2    0    0 -0.15345381773E+03 -0.80815126499E+02 -0.23103736100E+03  0.33268967676E+03  0.16500000000E+03 0.  0.
   -5000001    1    1    2    0    0  0.15345381773E+03  0.80815126499E+02 -0.51283676810E+03  0.56595557207E+03  0.16500000000E+03 0.  0.
<mgrwt>
<rscale>  0 0.50419695E+03</rscale>
<asrwt>0</asrwt>
<pdfrwt beam="1">  1        2 0.11732281E+00 0.50419695E+03</pdfrwt>
<pdfrwt beam="2">  1       -2 0.11055080E-01 0.50419695E+03</pdfrwt>
<totfact> 0.21382729E+03</totfact>
</mgrwt>
</event>
<event>
 4    1  0.1837449E-005  0.4259576E+03  0.7818608E-02  0.1035145E+00
          2   -1    0    0  501    0  0.00000000000E+00  0.00000000000E+00  0.24089256230E+04  0.24089256230E+04  0.25500000000E-02 0.  1.
         -2   -1    0    0    0  501 -0.00000000000E+00 -0.00000000000E+00 -0.18829956849E+02  0.18829957022E+02  0.25500000000E-02 0. -1.
    5000001    1    1    2    0    0 -0.11602911298E+02 -0.84227192496E+02  0.59983305244E+03  0.62789612063E+03  0.16500000000E+03 0.  0.
   -5000001    1    1    2    0    0  0.11602911298E+02  0.84227192496E+02  0.17902626138E+04  0.17998594594E+04  0.16500000000E+03 0.  0.
<mgrwt>
<rscale>  0 0.42595758E+03</rscale>
<asrwt>0</asrwt>
<pdfrwt beam="1">  1        2 0.34413217E+00 0.42595758E+03</pdfrwt>
<pdfrwt beam="2">  1       -2 0.26899943E-02 0.42595758E+03</pdfrwt>
<totfact> 0.27501726E+03</totfact>
</mgrwt>
</event>
<event>
 4    1  0.1837449E-005  0.3875257E+03  0.7818608E-02  0.1048187E+00
         -2   -1    0    0    0  501 -0.00000000000E+00  0.00000000000E+00  0.35802131577E+02  0.35802131668E+02  0.25500000000E-02 0.  1.
          2   -1    0    0  501    0  0.00000000000E+00 -0.00000000000E+00 -0.10486536910E+04  0.10486536910E+04  0.25500000000E-02 0. -1.
    5000001    1    1    2    0    0  0.76048510639E+02  0.14445719853E+02 -0.69050465849E+03  0.71415246144E+03  0.16500000000E+03 0.  0.
   -5000001    1    1    2    0    0 -0.76048510639E+02 -0.14445719853E+02 -0.32234690093E+03  0.37030336122E+03  0.16500000000E+03 0.  0.
<mgrwt>
<rscale>  0 0.38752568E+03</rscale>
<asrwt>0</asrwt>
<pdfrwt beam="1">  1        2 0.14980765E+00 0.38752568E+03</pdfrwt>
<pdfrwt beam="2">  1       -2 0.51145909E-02 0.38752568E+03</pdfrwt>
<totfact> 0.51867787E+03</totfact>
</mgrwt>
</event>
<event>
 4    1  0.1837449E-005  0.6855015E+03  0.7818608E-02  0.9742353E-01
          2   -1    0    0  501    0  0.00000000000E+00  0.00000000000E+00  0.19553284345E+03  0.19553284347E+03  0.25500000000E-02 0.  1.
         -2   -1    0    0    0  501 -0.00000000000E+00 -0.00000000000E+00 -0.60080993454E+03  0.60080993455E+03  0.25500000000E-02 0. -1.
    5000001    1    1    2    0    0  0.29156391888E+02  0.28654389585E+03 -0.10341347505E+03  0.34767347650E+03  0.16500000000E+03 0.  0.
   -5000001    1    1    2    0    0 -0.29156391888E+02 -0.28654389585E+03 -0.30186361604E+03  0.44866930152E+03  0.16500000000E+03 0.  0.
<mgrwt>
<rscale>  0 0.68550149E+03</rscale>
<asrwt>0</asrwt>
<pdfrwt beam="1">  1        2 0.27933264E-01 0.68550149E+03</pdfrwt>
<pdfrwt beam="2">  1       -2 0.85829990E-01 0.68550149E+03</pdfrwt>
<totfact> 0.22969768E+02</totfact>
</mgrwt>
</event>
<event>
 4    1  0.1837449E-005  0.8227640E+03  0.7818608E-02  0.9527639E-01
         -2   -1    0    0    0  501 -0.00000000000E+00  0.00000000000E+00  0.78959709296E+02  0.78959709337E+02  0.25500000000E-02 0. -1.
          2   -1    0    0  501    0  0.00000000000E+00 -0.00000000000E+00 -0.21433101732E+04  0.21433101732E+04  0.25500000000E-02 0.  1.
    5000001    1    1    2    0    0  0.12903918663E+03 -0.20840987713E+03 -0.25908880301E+03  0.39298574582E+03  0.16500000000E+03 0.  0.
   -5000001    1    1    2    0    0 -0.12903918663E+03  0.20840987713E+03 -0.18052616609E+04  0.18292841367E+04  0.16500000000E+03 0.  0.
<mgrwt>
<rscale>  0 0.82276400E+03</rscale>
<asrwt>0</asrwt>
<pdfrwt beam="1">  1        2 0.30618713E+00 0.82276400E+03</pdfrwt>
<pdfrwt beam="2">  1       -2 0.11279960E-01 0.82276400E+03</pdfrwt>
<totfact> 0.38822705E+02</totfact>
</mgrwt>
</event>
<event>
 4    1  0.1837449E-005  0.1240477E+04  0.7818608E-02  0.9078146E-01
          2   -1    0    0  501    0  0.00000000000E+00  0.00000000000E+00  0.17605527390E+04  0.17605527390E+04  0.25500000000E-02 0.  1.
         -2   -1    0    0    0  501 -0.00000000000E+00 -0.00000000000E+00 -0.21850866948E+03  0.21850866949E+03  0.25500000000E-02 0. -1.
    5000001    1    1    2    0    0 -0.55272520014E+03 -0.10608202155E+03  0.10929318912E+04  0.12403562638E+04  0.16500000000E+03 0.  0.
   -5000001    1    1    2    0    0  0.55272520014E+03  0.10608202155E+03  0.44911217828E+03  0.73870514473E+03  0.16500000000E+03 0.  0.
<mgrwt>
<rscale>  0 0.12404774E+04</rscale>
<asrwt>0</asrwt>
<pdfrwt beam="1">  1        2 0.25150752E+00 0.12404774E+04</pdfrwt>
<pdfrwt beam="2">  1       -2 0.31215525E-01 0.12404774E+04</pdfrwt>
<totfact> 0.99905441E+01</totfact>
</mgrwt>
</event>
<event>
 4    1  0.1837449E-005  0.3576369E+03  0.7818608E-02  0.1059523E+00
         -2   -1    0    0    0  501 -0.00000000000E+00  0.00000000000E+00  0.14835017319E+02  0.14835017538E+02  0.25500000000E-02 0. -1.
          2   -1    0    0  501    0  0.00000000000E+00 -0.00000000000E+00 -0.21554434434E+04  0.21554434434E+04  0.25500000000E-02 0.  1.
    5000001    1    1    2    0    0 -0.27355835925E+02  0.57435181910E+02 -0.12313051285E+04  0.12439390907E+04  0.16500000000E+03 0.  0.
   -5000001    1    1    2    0    0  0.27355835925E+02 -0.57435181910E+02 -0.90930329757E+03  0.92633937024E+03  0.16500000000E+03 0.  0.
<mgrwt>
<rscale>  0 0.35763692E+03</rscale>
<asrwt>0</asrwt>
<pdfrwt beam="1">  1        2 0.30792029E+00 0.35763692E+03</pdfrwt>
<pdfrwt beam="2">  1       -2 0.21192896E-02 0.35763692E+03</pdfrwt>
<totfact> 0.52630211E+03</totfact>
</mgrwt>
</event>
<event>
 4    1  0.1837449E-005  0.4189953E+03  0.7818608E-02  0.1037394E+00
         -2   -1    0    0    0  501 -0.00000000000E+00  0.00000000000E+00  0.69296071385E+03  0.69296071386E+03  0.25500000000E-02 0. -1.
          2   -1    0    0  501    0  0.00000000000E+00 -0.00000000000E+00 -0.63335861218E+02  0.63335861270E+02  0.25500000000E-02 0.  1.
    5000001    1    1    2    0    0 -0.12013921963E+03  0.45570509512E+02  0.33722383278E+03  0.39680601914E+03  0.16500000000E+03 0.  0.
   -5000001    1    1    2    0    0  0.12013921963E+03 -0.45570509512E+02  0.29240101985E+03  0.35949055598E+03  0.16500000000E+03 0.  0.
<mgrwt>
<rscale>  0 0.41899529E+03</rscale>
<asrwt>0</asrwt>
<pdfrwt beam="1">  1        2 0.90479806E-02 0.41899529E+03</pdfrwt>
<pdfrwt beam="2">  1       -2 0.98994383E-01 0.41899529E+03</pdfrwt>
<totfact> 0.64283697E+02</totfact>
</mgrwt>
</event>
<event>
 4    1  0.1837449E-005  0.6306212E+03  0.7818608E-02  0.9843837E-01
          2   -1    0    0  501    0  0.00000000000E+00  0.00000000000E+00  0.14363764109E+04  0.14363764109E+04  0.25500000000E-02 0.  1.
         -2   -1    0    0    0  501 -0.00000000000E+00 -0.00000000000E+00 -0.69216389873E+02  0.69216389920E+02  0.25500000000E-02 0. -1.
    5000001    1    1    2    0    0  0.18857248534E+03 -0.18821557652E+03  0.60049365885E+03  0.67734948128E+03  0.16500000000E+03 0.  0.
   -5000001    1    1    2    0    0 -0.18857248534E+03  0.18821557652E+03  0.76666636218E+03  0.82824331954E+03  0.16500000000E+03 0.  0.
<mgrwt>
<rscale>  0 0.63062125E+03</rscale>
<asrwt>0</asrwt>
<pdfrwt beam="1">  1        2 0.20519661E+00 0.63062125E+03</pdfrwt>
<pdfrwt beam="2">  1       -2 0.98880566E-02 0.63062125E+03</pdfrwt>
<totfact> 0.11192182E+03</totfact>
</mgrwt>
</event>
<event>
 4    1  0.1837449E-005  0.1072749E+04  0.7818608E-02  0.9232167E-01
         -2   -1    0    0    0  501 -0.00000000000E+00  0.00000000000E+00  0.42572139358E+03  0.42572139358E+03  0.25500000000E-02 0. -1.
          2   -1    0    0  501    0  0.00000000000E+00 -0.00000000000E+00 -0.67578819851E+03  0.67578819852E+03  0.25500000000E-02 0.  1.
    5000001    1    1    2    0    0  0.64916415903E+02 -0.37141957563E+03 -0.47821117344E+03  0.63093388609E+03  0.16500000000E+03 0.  0.
   -5000001    1    1    2    0    0 -0.64916415903E+02  0.37141957563E+03  0.22814436850E+03  0.47057570602E+03  0.16500000000E+03 0.  0.
<mgrwt>
<rscale>  0 0.10727488E+04</rscale>
<asrwt>0</asrwt>
<pdfrwt beam="1">  1        2 0.96541172E-01 0.10727488E+04</pdfrwt>
<pdfrwt beam="2">  1       -2 0.60817342E-01 0.10727488E+04</pdfrwt>
<totfact> 0.11771323E+02</totfact>
</mgrwt>
</event>
<event>
 4    1  0.1837449E-005  0.6866127E+03  0.7818608E-02  0.9740404E-01
          2   -1    0    0  501    0  0.00000000000E+00  0.00000000000E+00  0.21448412508E+03  0.21448412509E+03  0.25500000000E-02 0.  1.
         -2   -1    0    0    0  501 -0.00000000000E+00 -0.00000000000E+00 -0.54950111960E+03  0.54950111960E+03  0.25500000000E-02 0. -1.
    5000001    1    1    2    0    0 -0.29543848025E+03  0.44490000982E+02 -0.12630884135E+03  0.36392606283E+03  0.16500000000E+03 0.  0.
   -5000001    1    1    2    0    0  0.29543848025E+03 -0.44490000982E+02 -0.20870815317E+03  0.40005918187E+03  0.16500000000E+03 0.  0.
<mgrwt>
<rscale>  0 0.68661275E+03</rscale>
<asrwt>0</asrwt>
<pdfrwt beam="1">  1        2 0.30640589E-01 0.68661275E+03</pdfrwt>
<pdfrwt beam="2">  1       -2 0.78500160E-01 0.68661275E+03</pdfrwt>
<totfact> 0.25304037E+02</totfact>
</mgrwt>
</event>
<event>
 4    1  0.1837449E-005  0.6925371E+03  0.7818608E-02  0.9730081E-01
          2   -1    0    0  501    0  0.00000000000E+00  0.00000000000E+00  0.21388991979E+04  0.21388991979E+04  0.25500000000E-02 0.  1.
         -2   -1    0    0    0  501 -0.00000000000E+00 -0.00000000000E+00 -0.56057762243E+02  0.56057762301E+02  0.25500000000E-02 0. -1.
    5000001    1    1    2    0    0  0.10185992192E+03 -0.25142324067E+03  0.60353471527E+03  0.68195912061E+03  0.16500000000E+03 0.  0.
   -5000001    1    1    2    0    0 -0.10185992192E+03  0.25142324067E+03  0.14793067204E+04  0.15129978396E+04  0.16500000000E+03 0.  0.
<mgrwt>
<rscale>  0 0.69253708E+03</rscale>
<asrwt>0</asrwt>
<pdfrwt beam="1">  1        2 0.30555702E+00 0.69253708E+03</pdfrwt>
<pdfrwt beam="2">  1       -2 0.80082519E-02 0.69253708E+03</pdfrwt>
<totfact> 0.68617159E+02</totfact>
</mgrwt>
</event>
<event>
 4    1  0.1837449E-005  0.5629822E+03  0.7818608E-02  0.9985329E-01
          2   -1    0    0  501    0  0.00000000000E+00  0.00000000000E+00  0.16022884690E+04  0.16022884690E+04  0.25500000000E-02 0.  1.
         -2   -1    0    0    0  501 -0.00000000000E+00 -0.00000000000E+00 -0.49452547328E+02  0.49452547394E+02  0.25500000000E-02 0. -1.
    5000001    1    1    2    0    0 -0.19156951948E+03  0.12220652780E+03  0.83352989445E+03  0.87956261924E+03  0.16500000000E+03 0.  0.
   -5000001    1    1    2    0    0  0.19156951948E+03 -0.12220652780E+03  0.71930602724E+03  0.77217839717E+03  0.16500000000E+03 0.  0.
<mgrwt>
<rscale>  0 0.56298222E+03</rscale>
<asrwt>0</asrwt>
<pdfrwt beam="1">  1        2 0.22889828E+00 0.56298222E+03</pdfrwt>
<pdfrwt beam="2">  1       -2 0.70646520E-02 0.56298222E+03</pdfrwt>
<totfact> 0.15748305E+03</totfact>
</mgrwt>
</event>
<event>
 4    1  0.1837449E-005  0.9387069E+03  0.7818608E-02  0.9378449E-01
         -2   -1    0    0    0  501 -0.00000000000E+00  0.00000000000E+00  0.53224327710E+02  0.53224327771E+02  0.25500000000E-02 0. -1.
          2   -1    0    0  501    0  0.00000000000E+00 -0.00000000000E+00 -0.41389469884E+04  0.41389469884E+04  0.25500000000E-02 0.  1.
    5000001    1    1    2    0    0  0.60437585038E+01  0.31375087600E+03 -0.34163817848E+04  0.34347293399E+04  0.16500000000E+03 0.  0.
   -5000001    1    1    2    0    0 -0.60437585038E+01 -0.31375087600E+03 -0.66934087591E+03  0.75744197624E+03  0.16500000000E+03 0.  0.
<mgrwt>
<rscale>  0 0.93870692E+03</rscale>
<asrwt>0</asrwt>
<pdfrwt beam="1">  1        2 0.59127794E+00 0.93870692E+03</pdfrwt>
<pdfrwt beam="2">  1       -2 0.76034780E-02 0.93870692E+03</pdfrwt>
<totfact> 0.51664658E+01</totfact>
</mgrwt>
</event>
<event>
 4    1  0.1837449E-005  0.4579194E+03  0.7818608E-02  0.1025386E+00
          2   -1    0    0  501    0  0.00000000000E+00  0.00000000000E+00  0.16413795477E+04  0.16413795477E+04  0.25500000000E-02 0.  1.
         -2   -1    0    0    0  501 -0.00000000000E+00 -0.00000000000E+00 -0.31938100414E+02  0.31938100516E+02  0.25500000000E-02 0. -1.
    5000001    1    1    2    0    0 -0.53822980020E+02 -0.11788698328E+03  0.46974445200E+03  0.51446973108E+03  0.16500000000E+03 0.  0.
   -5000001    1    1    2    0    0  0.53822980020E+02  0.11788698328E+03  0.11396969953E+04  0.11588479171E+04  0.16500000000E+03 0.  0.
<mgrwt>
<rscale>  0 0.45791940E+03</rscale>
<asrwt>0</asrwt>
<pdfrwt beam="1">  1        2 0.23448287E+00 0.45791940E+03</pdfrwt>
<pdfrwt beam="2">  1       -2 0.45625842E-02 0.45791940E+03</pdfrwt>
<totfact> 0.29782612E+03</totfact>
</mgrwt>
</event>
<event>
 4    1  0.1837449E-005  0.4112885E+03  0.7818608E-02  0.1039939E+00
          2   -1    0    0  501    0  0.00000000000E+00  0.00000000000E+00  0.14411968491E+04  0.14411968491E+04  0.25500000000E-02 0.  1.
         -2   -1    0    0    0  501 -0.00000000000E+00 -0.00000000000E+00 -0.29343366282E+02  0.29343366392E+02  0.25500000000E-02 0. -1.
    5000001    1    1    2    0    0 -0.11779807543E+03  0.34219866817E+02  0.72074706376E+03  0.74949897650E+03  0.16500000000E+03 0.  0.
   -5000001    1    1    2    0    0  0.11779807543E+03 -0.34219866817E+02  0.69110641902E+03  0.72104123896E+03  0.16500000000E+03 0.  0.
<mgrwt>
<rscale>  0 0.41128855E+03</rscale>
<asrwt>0</asrwt>
<pdfrwt beam="1">  1        2 0.20588531E+00 0.41128855E+03</pdfrwt>
<pdfrwt beam="2">  1       -2 0.41919085E-02 0.41128855E+03</pdfrwt>
<totfact> 0.42938661E+03</totfact>
</mgrwt>
</event>
<event>
 4    1  0.1837449E-005  0.3709001E+03  0.7818608E-02  0.1054349E+00
          2   -1    0    0  501    0  0.00000000000E+00  0.00000000000E+00  0.35812295546E+03  0.35812295547E+03  0.25500000000E-02 0.  1.
         -2   -1    0    0    0  501 -0.00000000000E+00 -0.00000000000E+00 -0.96033265412E+02  0.96033265446E+02  0.25500000000E-02 0. -1.
    5000001    1    1    2    0    0 -0.32101634242E+02 -0.23668144407E+02  0.22247943853E+03  0.27984423623E+03  0.16500000000E+03 0.  0.
   -5000001    1    1    2    0    0  0.32101634242E+02  0.23668144407E+02  0.39610251518E+02  0.17431198469E+03  0.16500000000E+03 0.  0.
<mgrwt>
<rscale>  0 0.37090008E+03</rscale>
<asrwt>0</asrwt>
<pdfrwt beam="1">  1        2 0.51160423E-01 0.37090008E+03</pdfrwt>
<pdfrwt beam="2">  1       -2 0.13719038E-01 0.37090008E+03</pdfrwt>
<totfact> 0.39003967E+03</totfact>
</mgrwt>
</event>
<event>
 4    1  0.1837449E-005  0.5437421E+03  0.7818608E-02  0.1002953E+00
         -2   -1    0    0    0  501 -0.00000000000E+00  0.00000000000E+00  0.29077730882E+03  0.29077730884E+03  0.25500000000E-02 0. -1.
          2   -1    0    0  501    0  0.00000000000E+00 -0.00000000000E+00 -0.25419408936E+03  0.25419408937E+03  0.25500000000E-02 0.  1.
    5000001    1    1    2    0    0  0.41033352140E+02  0.20306530250E+03 -0.43244428085E+02  0.26835486511E+03  0.16500000000E+03 0.  0.
   -5000001    1    1    2    0    0 -0.41033352140E+02 -0.20306530250E+03  0.79827647553E+02  0.27661653310E+03  0.16500000000E+03 0.  0.
<mgrwt>
<rscale>  0 0.54374212E+03</rscale>
<asrwt>0</asrwt>
<pdfrwt beam="1">  1        2 0.36313441E-01 0.54374212E+03</pdfrwt>
<pdfrwt beam="2">  1       -2 0.41539616E-01 0.54374212E+03</pdfrwt>
<totfact> 0.79144534E+02</totfact>
</mgrwt>
</event>
<event>
 4    1  0.1837449E-005  0.1109418E+04  0.7818608E-02  0.9196061E-01
          2   -1    0    0  501    0  0.00000000000E+00  0.00000000000E+00  0.12740373775E+04  0.12740373775E+04  0.25500000000E-02 0.  1.
         -2   -1    0    0    0  501 -0.00000000000E+00 -0.00000000000E+00 -0.24151734704E+03  0.24151734706E+03  0.25500000000E-02 0. -1.
    5000001    1    1    2    0    0 -0.41396076062E+03 -0.32272583754E+03  0.61248535128E+03  0.82333394384E+03  0.16500000000E+03 0.  0.
   -5000001    1    1    2    0    0  0.41396076062E+03  0.32272583754E+03  0.42003467920E+03  0.69222078073E+03  0.16500000000E+03 0.  0.
<mgrwt>
<rscale>  0 0.11094181E+04</rscale>
<asrwt>0</asrwt>
<pdfrwt beam="1">  1        2 0.18200534E+00 0.11094181E+04</pdfrwt>
<pdfrwt beam="2">  1       -2 0.34502478E-01 0.11094181E+04</pdfrwt>
<totfact> 0.15139222E+02</totfact>
</mgrwt>
</event>
<event>
 4    1  0.1837449E-005  0.7614266E+03  0.7818608E-02  0.9617592E-01
         -2   -1    0    0    0  501 -0.00000000000E+00  0.00000000000E+00  0.67155311358E+03  0.67155311359E+03  0.25500000000E-02 0. -1.
          2   -1    0    0  501    0  0.00000000000E+00 -0.00000000000E+00 -0.21583192256E+03  0.21583192258E+03  0.25500000000E-02 0.  1.
    5000001    1    1    2    0    0  0.25219991993E+03 -0.22144798227E+03  0.14484841612E+03  0.40106118251E+03  0.16500000000E+03 0.  0.
   -5000001    1    1    2    0    0 -0.25219991993E+03  0.22144798227E+03  0.31087277490E+03  0.48632385366E+03  0.16500000000E+03 0.  0.
<mgrwt>
<rscale>  0 0.76142655E+03</rscale>
<asrwt>0</asrwt>
<pdfrwt beam="1">  1        2 0.30833131E-01 0.76142655E+03</pdfrwt>
<pdfrwt beam="2">  1       -2 0.95936160E-01 0.76142655E+03</pdfrwt>
<totfact> 0.15847268E+02</totfact>
</mgrwt>
</event>
<event>
 4    1  0.1837449E-005  0.5471092E+03  0.7818608E-02  0.1002165E+00
         -2   -1    0    0    0  501 -0.00000000000E+00  0.00000000000E+00  0.41671800962E+02  0.41671801040E+02  0.25500000000E-02 0. -1.
          2   -1    0    0  501    0  0.00000000000E+00 -0.00000000000E+00 -0.17957493738E+04  0.17957493738E+04  0.25500000000E-02 0.  1.
    5000001    1    1    2    0    0  0.33912856809E+01  0.20647117112E+03 -0.64038909066E+03  0.69279508714E+03  0.16500000000E+03 0.  0.
   -5000001    1    1    2    0    0 -0.33912856809E+01 -0.20647117112E+03 -0.11136884822E+04  0.11446260877E+04  0.16500000000E+03 0.  0.
<mgrwt>
<rscale>  0 0.54710917E+03</rscale>
<asrwt>0</asrwt>
<pdfrwt beam="1">  1        2 0.25653558E+00 0.54710917E+03</pdfrwt>
<pdfrwt beam="2">  1       -2 0.59531156E-02 0.54710917E+03</pdfrwt>
<totfact> 0.16446189E+03</totfact>
</mgrwt>
</event>
<event>
 4    1  0.1837449E-005  0.4764010E+03  0.7818608E-02  0.1020129E+00
          2   -1    0    0  501    0  0.00000000000E+00  0.00000000000E+00  0.66384143159E+02  0.66384143208E+02  0.25500000000E-02 0.  1.
         -2   -1    0    0    0  501 -0.00000000000E+00 -0.00000000000E+00 -0.85471448312E+03  0.85471448312E+03  0.25500000000E-02 0. -1.
    5000001    1    1    2    0    0  0.11414072044E+03  0.97305839325E+02 -0.55613675007E+03  0.59917411093E+03  0.16500000000E+03 0.  0.
   -5000001    1    1    2    0    0 -0.11414072044E+03 -0.97305839325E+02 -0.23219358989E+03  0.32192451540E+03  0.16500000000E+03 0.  0.
<mgrwt>
<rscale>  0 0.47640104E+03</rscale>
<asrwt>0</asrwt>
<pdfrwt beam="1">  1        2 0.94834495E-02 0.47640104E+03</pdfrwt>
<pdfrwt beam="2">  1       -2 0.12210206E+00 0.47640104E+03</pdfrwt>
<totfact> 0.36603360E+02</totfact>
</mgrwt>
</event>
<event>
 4    1  0.1837449E-005  0.5047747E+03  0.7818608E-02  0.1012540E+00
          2   -1    0    0  501    0  0.00000000000E+00  0.00000000000E+00  0.24348057028E+03  0.24348057030E+03  0.25500000000E-02 0.  1.
         -2   -1    0    0    0  501 -0.00000000000E+00 -0.00000000000E+00 -0.26161997495E+03  0.26161997497E+03  0.25500000000E-02 0. -1.
    5000001    1    1    2    0    0 -0.47862984055E+02 -0.12011101574E+03  0.13158012094E+03  0.24749919105E+03  0.16500000000E+03 0.  0.
   -5000001    1    1    2    0    0  0.47862984055E+02  0.12011101574E+03 -0.14971952561E+03  0.25760135421E+03  0.16500000000E+03 0.  0.
<mgrwt>
<rscale>  0 0.50477472E+03</rscale>
<asrwt>0</asrwt>
<pdfrwt beam="1">  1        2 0.34782939E-01 0.50477472E+03</pdfrwt>
<pdfrwt beam="2">  1       -2 0.37374282E-01 0.50477472E+03</pdfrwt>
<totfact> 0.10181048E+03</totfact>
</mgrwt>
</event>
<event>
 4    1  0.1837449E-005  0.4642493E+03  0.7818608E-02  0.1023556E+00
         -2   -1    0    0    0  501 -0.00000000000E+00  0.00000000000E+00  0.25912532920E+02  0.25912533046E+02  0.25500000000E-02 0. -1.
          2   -1    0    0  501    0  0.00000000000E+00 -0.00000000000E+00 -0.20793740124E+04  0.20793740124E+04  0.25500000000E-02 0.  1.
    5000001    1    1    2    0    0  0.10299466168E+03 -0.11591473251E+03 -0.79493439042E+03  0.82655296904E+03  0.16500000000E+03 0.  0.
   -5000001    1    1    2    0    0 -0.10299466168E+03  0.11591473251E+03 -0.12585270890E+04  0.12787335764E+04  0.16500000000E+03 0.  0.
<mgrwt>
<rscale>  0 0.46424928E+03</rscale>
<asrwt>0</asrwt>
<pdfrwt beam="1">  1        2 0.29705332E+00 0.46424928E+03</pdfrwt>
<pdfrwt beam="2">  1       -2 0.37017917E-02 0.46424928E+03</pdfrwt>
<totfact> 0.24757959E+03</totfact>
</mgrwt>
</event>
<event>
 4    1  0.1837449E-005  0.6977574E+03  0.7818608E-02  0.9721075E-01
          2   -1    0    0  501    0  0.00000000000E+00  0.00000000000E+00  0.20474924345E+04  0.20474924345E+04  0.25500000000E-02 0.  1.
         -2   -1    0    0    0  501 -0.00000000000E+00 -0.00000000000E+00 -0.59446550955E+02  0.59446551010E+02  0.25500000000E-02 0. -1.
    5000001    1    1    2    0    0  0.29194925780E+03 -0.33811852923E+02  0.12660163426E+04  0.13101144951E+04  0.16500000000E+03 0.  0.
   -5000001    1    1    2    0    0 -0.29194925780E+03  0.33811852923E+02  0.72202954093E+03  0.79682449040E+03  0.16500000000E+03 0.  0.
<mgrwt>
<rscale>  0 0.69775745E+03</rscale>
<asrwt>0</asrwt>
<pdfrwt beam="1">  1        2 0.29249889E+00 0.69775745E+03</pdfrwt>
<pdfrwt beam="2">  1       -2 0.84923652E-02 0.69775745E+03</pdfrwt>
<totfact> 0.69439008E+02</totfact>
</mgrwt>
</event>
<event>
 4    1  0.1837449E-005  0.5553544E+03  0.7818608E-02  0.1000262E+00
          2   -1    0    0  501    0  0.00000000000E+00  0.00000000000E+00  0.73954243190E+03  0.73954243190E+03  0.25500000000E-02 0.  1.
         -2   -1    0    0    0  501 -0.00000000000E+00 -0.00000000000E+00 -0.10425989370E+03  0.10425989373E+03  0.25500000000E-02 0. -1.
    5000001    1    1    2    0    0  0.20963535689E+03  0.74776316893E+02  0.34570423888E+03  0.44302923290E+03  0.16500000000E+03 0.  0.
   -5000001    1    1    2    0    0 -0.20963535689E+03 -0.74776316893E+02  0.28957829931E+03  0.40077309273E+03  0.16500000000E+03 0.  0.
<mgrwt>
<rscale>  0 0.55535436E+03</rscale>
<asrwt>0</asrwt>
<pdfrwt beam="1">  1        2 0.10564891E+00 0.55535436E+03</pdfrwt>
<pdfrwt beam="2">  1       -2 0.14894271E-01 0.55535436E+03</pdfrwt>
<totfact> 0.14907866E+03</totfact>
</mgrwt>
</event>
<event>
 4    1  0.1837449E-005  0.5129696E+03  0.7818608E-02  0.1010448E+00
          2   -1    0    0  501    0  0.00000000000E+00  0.00000000000E+00  0.95848975744E+03  0.95848975745E+03  0.25500000000E-02 0.  1.
         -2   -1    0    0    0  501 -0.00000000000E+00 -0.00000000000E+00 -0.68633431983E+02  0.68633432030E+02  0.25500000000E-02 0. -1.
    5000001    1    1    2    0    0  0.97797579880E+02  0.16478702882E+03  0.35903146902E+03  0.43914431255E+03  0.16500000000E+03 0.  0.
   -5000001    1    1    2    0    0 -0.97797579880E+02 -0.16478702882E+03  0.53082485644E+03  0.58797887692E+03  0.16500000000E+03 0.  0.
<mgrwt>
<rscale>  0 0.51296956E+03</rscale>
<asrwt>0</asrwt>
<pdfrwt beam="1">  1        2 0.13692710E+00 0.51296956E+03</pdfrwt>
<pdfrwt beam="2">  1       -2 0.98047763E-02 0.51296956E+03</pdfrwt>
<totfact> 0.21171069E+03</totfact>
</mgrwt>
</event>
<event>
 4    1  0.1837449E-005  0.4030619E+03  0.7818608E-02  0.1042725E+00
         -2   -1    0    0    0  501 -0.00000000000E+00  0.00000000000E+00  0.37496783762E+03  0.37496783763E+03  0.25500000000E-02 0. -1.
          2   -1    0    0  501    0  0.00000000000E+00 -0.00000000000E+00 -0.10831520993E+03  0.10831520996E+03  0.25500000000E-02 0.  1.
    5000001    1    1    2    0    0 -0.70426063641E+01 -0.85452686412E+02  0.22649606905E+03  0.29304816876E+03  0.16500000000E+03 0.  0.
   -5000001    1    1    2    0    0  0.70426063641E+01  0.85452686412E+02  0.40156558636E+02  0.19023487882E+03  0.16500000000E+03 0.  0.
<mgrwt>
<rscale>  0 0.40306188E+03</rscale>
<asrwt>0</asrwt>
<pdfrwt beam="1">  1        2 0.15473602E-01 0.40306188E+03</pdfrwt>
<pdfrwt beam="2">  1       -2 0.53566833E-01 0.40306188E+03</pdfrwt>
<totfact> 0.12645483E+03</totfact>
</mgrwt>
</event>
<event>
 4    1  0.1837449E-005  0.4804339E+03  0.7818608E-02  0.1019016E+00
         -2   -1    0    0    0  501 -0.00000000000E+00  0.00000000000E+00  0.18559161796E+03  0.18559161797E+03  0.25500000000E-02 0. -1.
          2   -1    0    0  501    0  0.00000000000E+00 -0.00000000000E+00 -0.31092017947E+03  0.31092017948E+03  0.25500000000E-02 0.  1.
    5000001    1    1    2    0    0  0.16361966443E+03 -0.36101490651E+01 -0.12548292426E+03  0.26411246098E+03  0.16500000000E+03 0.  0.
   -5000001    1    1    2    0    0 -0.16361966443E+03  0.36101490651E+01  0.15436275122E+00  0.23239933647E+03  0.16500000000E+03 0.  0.
<mgrwt>
<rscale>  0 0.48043388E+03</rscale>
<asrwt>0</asrwt>
<pdfrwt beam="1">  1        2 0.44417169E-01 0.48043388E+03</pdfrwt>
<pdfrwt beam="2">  1       -2 0.26513088E-01 0.48043388E+03</pdfrwt>
<totfact> 0.14705455E+03</totfact>
</mgrwt>
</event>
<event>
 4    1  0.1837449E-005  0.4215425E+03  0.7818608E-02  0.1036565E+00
         -2   -1    0    0    0  501 -0.00000000000E+00  0.00000000000E+00  0.23074257470E+02  0.23074257611E+02  0.25500000000E-02 0. -1.
          2   -1    0    0  501    0  0.00000000000E+00 -0.00000000000E+00 -0.19252847413E+04  0.19252847413E+04  0.25500000000E-02 0.  1.
    5000001    1    1    2    0    0  0.99188189642E+02  0.23336865750E+02 -0.56950218261E+03  0.60161502829E+03  0.16500000000E+03 0.  0.
   -5000001    1    1    2    0    0 -0.99188189642E+02 -0.23336865750E+02 -0.13327083013E+04  0.13467439707E+04  0.16500000000E+03 0.  0.
<mgrwt>
<rscale>  0 0.42154248E+03</rscale>
<asrwt>0</asrwt>
<pdfrwt beam="1">  1        2 0.27504058E+00 0.42154248E+03</pdfrwt>
<pdfrwt beam="2">  1       -2 0.32963237E-02 0.42154248E+03</pdfrwt>
<totfact> 0.35256347E+03</totfact>
</mgrwt>
</event>
<event>
 4    1  0.1837449E-005  0.8510936E+03  0.7818608E-02  0.9488870E-01
          2   -1    0    0  501    0  0.00000000000E+00  0.00000000000E+00  0.40796977698E+03  0.40796977699E+03  0.25500000000E-02 0.  1.
         -2   -1    0    0    0  501 -0.00000000000E+00 -0.00000000000E+00 -0.44388108267E+03  0.44388108267E+03  0.25500000000E-02 0. -1.
    5000001    1    1    2    0    0  0.33429313421E+03  0.49221606701E+02 -0.21735741652E+03  0.43433156995E+03  0.16500000000E+03 0.  0.
   -5000001    1    1    2    0    0 -0.33429313421E+03 -0.49221606701E+02  0.18144611083E+03  0.41751928971E+03  0.16500000000E+03 0.  0.
<mgrwt>
<rscale>  0 0.85109357E+03</rscale>
<asrwt>0</asrwt>
<pdfrwt beam="1">  1        2 0.58281397E-01 0.85109357E+03</pdfrwt>
<pdfrwt beam="2">  1       -2 0.63411583E-01 0.85109357E+03</pdfrwt>
<totfact> 0.19582063E+02</totfact>
</mgrwt>
</event>
<event>
 4    1  0.1837449E-005  0.5649032E+03  0.7818608E-02  0.9981021E-01
          2   -1    0    0  501    0  0.00000000000E+00  0.00000000000E+00  0.19956040587E+04  0.19956040587E+04  0.25500000000E-02 0.  1.
         -2   -1    0    0    0  501 -0.00000000000E+00 -0.00000000000E+00 -0.39977318885E+02  0.39977318966E+02  0.25500000000E-02 0. -1.
    5000001    1    1    2    0    0  0.18121920020E+03  0.13842662452E+03  0.10624415824E+04  0.10990948299E+04  0.16500000000E+03 0.  0.
   -5000001    1    1    2    0    0 -0.18121920020E+03 -0.13842662452E+03  0.89318515741E+03  0.93648654786E+03  0.16500000000E+03 0.  0.
<mgrwt>
<rscale>  0 0.56490318E+03</rscale>
<asrwt>0</asrwt>
<pdfrwt beam="1">  1        2 0.28508628E+00 0.56490318E+03</pdfrwt>
<pdfrwt beam="2">  1       -2 0.57110459E-02 0.56490318E+03</pdfrwt>
<totfact> 0.13917104E+03</totfact>
</mgrwt>
</event>
<event>
 4    1  0.1837449E-005  0.3645035E+03  0.7818608E-02  0.1056815E+00
         -2   -1    0    0    0  501 -0.00000000000E+00  0.00000000000E+00  0.15040776727E+02  0.15040776943E+02  0.25500000000E-02 0. -1.
          2   -1    0    0  501    0  0.00000000000E+00 -0.00000000000E+00 -0.22083766805E+04  0.22083766805E+04  0.25500000000E-02 0.  1.
    5000001    1    1    2    0    0  0.27458468539E+02  0.26714412553E+02 -0.15069061799E+04  0.15163966705E+04  0.16500000000E+03 0.  0.
   -5000001    1    1    2    0    0 -0.27458468539E+02 -0.26714412553E+02 -0.68642972390E+03  0.70702078695E+03  0.16500000000E+03 0.  0.
<mgrwt>
<rscale>  0 0.36450350E+03</rscale>
<asrwt>0</asrwt>
<pdfrwt beam="1">  1        2 0.31548218E+00 0.36450350E+03</pdfrwt>
<pdfrwt beam="2">  1       -2 0.21486838E-02 0.36450350E+03</pdfrwt>
<totfact> 0.48545082E+03</totfact>
</mgrwt>
</event>
<event>
 4    1  0.1837449E-005  0.8709811E+03  0.7818608E-02  0.9462602E-01
          2   -1    0    0  501    0  0.00000000000E+00  0.00000000000E+00  0.11216747661E+04  0.11216747661E+04  0.25500000000E-02 0.  1.
         -2   -1    0    0    0  501 -0.00000000000E+00 -0.00000000000E+00 -0.16907932891E+03  0.16907932893E+03  0.25500000000E-02 0. -1.
    5000001    1    1    2    0    0  0.24247188701E+03 -0.87150220773E+02  0.17037170242E+02  0.30643603270E+03  0.16500000000E+03 0.  0.
   -5000001    1    1    2    0    0 -0.24247188701E+03  0.87150220773E+02  0.93555826690E+03  0.98431806229E+03  0.16500000000E+03 0.  0.
<mgrwt>
<rscale>  0 0.87098109E+03</rscale>
<asrwt>0</asrwt>
<pdfrwt beam="1">  1        2 0.16023926E+00 0.87098109E+03</pdfrwt>
<pdfrwt beam="2">  1       -2 0.24154188E-01 0.87098109E+03</pdfrwt>
<totfact> 0.36216864E+02</totfact>
</mgrwt>
</event>
<event>
 4    1  0.1837449E-005  0.5356005E+03  0.7818608E-02  0.1004883E+00
         -2   -1    0    0    0  501 -0.00000000000E+00  0.00000000000E+00  0.92534443992E+02  0.92534444027E+02  0.25500000000E-02 0. -1.
          2   -1    0    0  501    0  0.00000000000E+00 -0.00000000000E+00 -0.77502996444E+03  0.77502996445E+03  0.25500000000E-02 0.  1.
    5000001    1    1    2    0    0 -0.15754151195E+03  0.12365756160E+03 -0.23402931075E+03  0.34943560039E+03  0.16500000000E+03 0.  0.
   -5000001    1    1    2    0    0  0.15754151195E+03 -0.12365756160E+03 -0.44846620969E+03  0.51812880808E+03  0.16500000000E+03 0.  0.
<mgrwt>
<rscale>  0 0.53560047E+03</rscale>
<asrwt>0</asrwt>
<pdfrwt beam="1">  1        2 0.11071856E+00 0.53560047E+03</pdfrwt>
<pdfrwt beam="2">  1       -2 0.13219207E-01 0.53560047E+03</pdfrwt>
<totfact> 0.17158478E+03</totfact>
</mgrwt>
</event>
<event>
 4    1  0.1837449E-005  0.6330926E+03  0.7818608E-02  0.9839032E-01
         -2   -1    0    0    0  501 -0.00000000000E+00  0.00000000000E+00  0.56592887417E+02  0.56592887474E+02  0.25500000000E-02 0. -1.
          2   -1    0    0  501    0  0.00000000000E+00 -0.00000000000E+00 -0.17705682927E+04  0.17705682927E+04  0.25500000000E-02 0.  1.
    5000001    1    1    2    0    0 -0.15712956824E+03  0.21802446010E+03 -0.93614262035E+03  0.98783215783E+03  0.16500000000E+03 0.  0.
   -5000001    1    1    2    0    0  0.15712956824E+03 -0.21802446010E+03 -0.77783278490E+03  0.83932902230E+03  0.16500000000E+03 0.  0.
<mgrwt>
<rscale>  0 0.63309264E+03</rscale>
<asrwt>0</asrwt>
<pdfrwt beam="1">  1        2 0.25293829E+00 0.63309264E+03</pdfrwt>
<pdfrwt beam="2">  1       -2 0.80846993E-02 0.63309264E+03</pdfrwt>
<totfact> 0.10404724E+03</totfact>
</mgrwt>
</event>
<event>
 4    1  0.1837449E-005  0.4957670E+03  0.7818608E-02  0.1014890E+00
         -2   -1    0    0    0  501 -0.00000000000E+00  0.00000000000E+00  0.15527298252E+04  0.15527298252E+04  0.25500000000E-02 0.  1.
          2   -1    0    0  501    0  0.00000000000E+00 -0.00000000000E+00 -0.39573031928E+02  0.39573032010E+02  0.25500000000E-02 0. -1.
    5000001    1    1    2    0    0 -0.12006470024E+03 -0.13349846900E+03  0.61352345254E+03  0.66020708894E+03  0.16500000000E+03 0.  0.
   -5000001    1    1    2    0    0  0.12006470024E+03  0.13349846900E+03  0.89963334069E+03  0.93209576823E+03  0.16500000000E+03 0.  0.
<mgrwt>
<rscale>  0 0.49576699E+03</rscale>
<asrwt>0</asrwt>
<pdfrwt beam="1">  1        2 0.56532913E-02 0.49576699E+03</pdfrwt>
<pdfrwt beam="2">  1       -2 0.22181851E+00 0.49576699E+03</pdfrwt>
<totfact> 0.13969918E+02</totfact>
</mgrwt>
</event>
<event>
 4    1  0.1837449E-005  0.4719508E+03  0.7818608E-02  0.1021371E+00
         -2   -1    0    0    0  501 -0.00000000000E+00  0.00000000000E+00  0.23201955289E+02  0.23201955430E+02  0.25500000000E-02 0. -1.
          2   -1    0    0  501    0  0.00000000000E+00 -0.00000000000E+00 -0.23999868841E+04  0.23999868841E+04  0.25500000000E-02 0.  1.
    5000001    1    1    2    0    0 -0.41253642030E+02 -0.14849324382E+03 -0.15406624568E+04  0.15571184645E+04  0.16500000000E+03 0.  0.
   -5000001    1    1    2    0    0  0.41253642030E+02  0.14849324382E+03 -0.83612247195E+03  0.86607037505E+03  0.16500000000E+03 0.  0.
<mgrwt>
<rscale>  0 0.47195080E+03</rscale>
<asrwt>0</asrwt>
<pdfrwt beam="1">  1        2 0.34285511E+00 0.47195080E+03</pdfrwt>
<pdfrwt beam="2">  1       -2 0.33145666E-02 0.47195080E+03</pdfrwt>
<totfact> 0.20227922E+03</totfact>
</mgrwt>
</event>
<event>
 4    1  0.1837449E-005  0.7048629E+03  0.7818608E-02  0.9708952E-01
          2   -1    0    0  501    0  0.00000000000E+00  0.00000000000E+00  0.32385889753E+03  0.32385889754E+03  0.25500000000E-02 0.  1.
         -2   -1    0    0    0  501 -0.00000000000E+00 -0.00000000000E+00 -0.38352483492E+03  0.38352483493E+03  0.25500000000E-02 0. -1.
    5000001    1    1    2    0    0 -0.14606203635E+03  0.26288954475E+03 -0.11097941671E+03  0.36053635342E+03  0.16500000000E+03 0.  0.
   -5000001    1    1    2    0    0  0.14606203635E+03 -0.26288954475E+03  0.51313479319E+02  0.34684737906E+03  0.16500000000E+03 0.  0.
<mgrwt>
<rscale>  0 0.70486291E+03</rscale>
<asrwt>0</asrwt>
<pdfrwt beam="1">  1        2 0.46265556E-01 0.70486291E+03</pdfrwt>
<pdfrwt beam="2">  1       -2 0.54789262E-01 0.70486291E+03</pdfrwt>
<totfact> 0.34611002E+02</totfact>
</mgrwt>
</event>
<event>
 4    1  0.1837449E-005  0.5138914E+03  0.7818608E-02  0.1010215E+00
         -2   -1    0    0    0  501 -0.00000000000E+00  0.00000000000E+00  0.43213835754E+03  0.43213835755E+03  0.25500000000E-02 0. -1.
          2   -1    0    0  501    0  0.00000000000E+00 -0.00000000000E+00 -0.15277769901E+03  0.15277769903E+03  0.25500000000E-02 0.  1.
    5000001    1    1    2    0    0  0.58326233836E+02 -0.18487409845E+03  0.99994147996E+02  0.27350358584E+03  0.16500000000E+03 0.  0.
   -5000001    1    1    2    0    0 -0.58326233836E+02  0.18487409845E+03  0.17936651054E+03  0.31141247074E+03  0.16500000000E+03 0.  0.
<mgrwt>
<rscale>  0 0.51389144E+03</rscale>
<asrwt>0</asrwt>
<pdfrwt beam="1">  1        2 0.21825386E-01 0.51389144E+03</pdfrwt>
<pdfrwt beam="2">  1       -2 0.61734051E-01 0.51389144E+03</pdfrwt>
<totfact> 0.62955043E+02</totfact>
</mgrwt>
</event>
<event>
 4    1  0.1837449E-005  0.4393369E+03  0.7818608E-02  0.1030950E+00
          2   -1    0    0  501    0  0.00000000000E+00  0.00000000000E+00  0.12902302625E+03  0.12902302627E+03  0.25500000000E-02 0.  1.
         -2   -1    0    0    0  501 -0.00000000000E+00 -0.00000000000E+00 -0.37399704848E+03  0.37399704849E+03  0.25500000000E-02 0. -1.
    5000001    1    1    2    0    0 -0.13853029159E+03 -0.13616631591E+02 -0.16903996635E+03  0.27418162697E+03  0.16500000000E+03 0.  0.
   -5000001    1    1    2    0    0  0.13853029159E+03  0.13616631591E+02 -0.75934055882E+02  0.22883844779E+03  0.16500000000E+03 0.  0.
<mgrwt>
<rscale>  0 0.43933691E+03</rscale>
<asrwt>0</asrwt>
<pdfrwt beam="1">  1        2 0.18431861E-01 0.43933691E+03</pdfrwt>
<pdfrwt beam="2">  1       -2 0.53428149E-01 0.43933691E+03</pdfrwt>
<totfact> 0.10341148E+03</totfact>
</mgrwt>
</event>
<event>
 4    1  0.1837449E-005  0.4148833E+03  0.7818608E-02  0.1038745E+00
         -2   -1    0    0    0  501 -0.00000000000E+00  0.00000000000E+00  0.72725343906E+02  0.72725343950E+02  0.25500000000E-02 0. -1.
          2   -1    0    0  501    0  0.00000000000E+00 -0.00000000000E+00 -0.59170629085E+03  0.59170629086E+03  0.25500000000E-02 0.  1.
    5000001    1    1    2    0    0  0.34024442989E+01 -0.11924538964E+03 -0.19591304333E+03  0.28255611854E+03  0.16500000000E+03 0.  0.
   -5000001    1    1    2    0    0 -0.34024442989E+01  0.11924538964E+03 -0.32306790362E+03  0.38187551627E+03  0.16500000000E+03 0.  0.
<mgrwt>
<rscale>  0 0.41488333E+03</rscale>
<asrwt>0</asrwt>
<pdfrwt beam="1">  1        2 0.84529468E-01 0.41488333E+03</pdfrwt>
<pdfrwt beam="2">  1       -2 0.10389335E-01 0.41488333E+03</pdfrwt>
<totfact> 0.35140436E+03</totfact>
</mgrwt>
</event>
<event>
 4    1  0.1837449E-005  0.4310486E+03  0.7818608E-02  0.1033529E+00
          2   -1    0    0  501    0  0.00000000000E+00  0.00000000000E+00  0.25604402394E+03  0.25604402396E+03  0.25500000000E-02 0.  1.
         -2   -1    0    0    0  501 -0.00000000000E+00 -0.00000000000E+00 -0.18141696277E+03  0.18141696279E+03  0.25500000000E-02 0. -1.
    5000001    1    1    2    0    0 -0.14805402513E+02  0.13760489833E+03  0.28736705283E+02  0.21726736115E+03  0.16500000000E+03 0.  0.
   -5000001    1    1    2    0    0  0.14805402513E+02 -0.13760489833E+03  0.45890355894E+02  0.22019362560E+03  0.16500000000E+03 0.  0.
<mgrwt>
<rscale>  0 0.43104862E+03</rscale>
<asrwt>0</asrwt>
<pdfrwt beam="1">  1        2 0.36577717E-01 0.43104862E+03</pdfrwt>
<pdfrwt beam="2">  1       -2 0.25916709E-01 0.43104862E+03</pdfrwt>
<totfact> 0.18938887E+03</totfact>
</mgrwt>
</event>
<event>
 4    1  0.1837449E-005  0.4376853E+03  0.7818608E-02  0.1031459E+00
         -2   -1    0    0    0  501 -0.00000000000E+00  0.00000000000E+00  0.36564048470E+02  0.36564048559E+02  0.25500000000E-02 0. -1.
          2   -1    0    0  501    0  0.00000000000E+00 -0.00000000000E+00 -0.13098142380E+04  0.13098142380E+04  0.25500000000E-02 0.  1.
    5000001    1    1    2    0    0  0.12487021803E+03 -0.62881337374E+02 -0.53365605485E+03  0.57581283315E+03  0.16500000000E+03 0.  0.
   -5000001    1    1    2    0    0 -0.12487021803E+03  0.62881337374E+02 -0.73959413472E+03  0.77056545345E+03  0.16500000000E+03 0.  0.
<mgrwt>
<rscale>  0 0.43768533E+03</rscale>
<asrwt>0</asrwt>
<pdfrwt beam="1">  1        2 0.18711629E+00 0.43768533E+03</pdfrwt>
<pdfrwt beam="2">  1       -2 0.52234363E-02 0.43768533E+03</pdfrwt>
<totfact> 0.35943733E+03</totfact>
</mgrwt>
</event>
<event>
 4    1  0.1837449E-005  0.4391608E+03  0.7818608E-02  0.1031005E+00
         -2   -1    0    0    0  501 -0.00000000000E+00  0.00000000000E+00  0.65739196945E+02  0.65739196994E+02  0.25500000000E-02 0. -1.
          2   -1    0    0  501    0  0.00000000000E+00 -0.00000000000E+00 -0.73343681010E+03  0.73343681010E+03  0.25500000000E-02 0.  1.
    5000001    1    1    2    0    0 -0.14589819966E+02 -0.12338360439E+03 -0.46947028880E+03  0.51289738617E+03  0.16500000000E+03 0.  0.
   -5000001    1    1    2    0    0  0.14589819966E+02  0.12338360439E+03 -0.19822732436E+03  0.28627862093E+03  0.16500000000E+03 0.  0.
<mgrwt>
<rscale>  0 0.43916078E+03</rscale>
<asrwt>0</asrwt>
<pdfrwt beam="1">  1        2 0.10477668E+00 0.43916078E+03</pdfrwt>
<pdfrwt beam="2">  1       -2 0.93913143E-02 0.43916078E+03</pdfrwt>
<totfact> 0.32034418E+03</totfact>
</mgrwt>
</event>
<event>
 4    1  0.1837449E-005  0.8164974E+03  0.7818608E-02  0.9536440E-01
          2   -1    0    0  501    0  0.00000000000E+00  0.00000000000E+00  0.32619711931E+03  0.32619711932E+03  0.25500000000E-02 0.  1.
         -2   -1    0    0    0  501 -0.00000000000E+00 -0.00000000000E+00 -0.51093951973E+03  0.51093951973E+03  0.25500000000E-02 0. -1.
    5000001    1    1    2    0    0 -0.24079604120E+03 -0.27526661487E+03 -0.16969343863E+03  0.43563207622E+03  0.16500000000E+03 0.  0.
   -5000001    1    1    2    0    0  0.24079604120E+03  0.27526661487E+03 -0.15048961790E+02  0.40150456283E+03  0.16500000000E+03 0.  0.
<mgrwt>
<rscale>  0 0.81649740E+03</rscale>
<asrwt>0</asrwt>
<pdfrwt beam="1">  1        2 0.46599589E-01 0.81649740E+03</pdfrwt>
<pdfrwt beam="2">  1       -2 0.72991360E-01 0.81649740E+03</pdfrwt>
<totfact> 0.18547062E+02</totfact>
</mgrwt>
</event>
<event>
 4    1  0.1837449E-005  0.5718124E+03  0.7818608E-02  0.9965676E-01
          2   -1    0    0  501    0  0.00000000000E+00  0.00000000000E+00  0.93993873804E+03  0.93993873804E+03  0.25500000000E-02 0.  1.
         -2   -1    0    0    0  501 -0.00000000000E+00 -0.00000000000E+00 -0.86965617756E+02  0.86965617794E+02  0.25500000000E-02 0. -1.
    5000001    1    1    2    0    0 -0.12519215299E+03 -0.16755041727E+03  0.24010318239E+03  0.35863735959E+03  0.16500000000E+03 0.  0.
   -5000001    1    1    2    0    0  0.12519215299E+03  0.16755041727E+03  0.61286993789E+03  0.66826699624E+03  0.16500000000E+03 0.  0.
<mgrwt>
<rscale>  0 0.57181239E+03</rscale>
<asrwt>0</asrwt>
<pdfrwt beam="1">  1        2 0.13427696E+00 0.57181239E+03</pdfrwt>
<pdfrwt beam="2">  1       -2 0.12423660E-01 0.57181239E+03</pdfrwt>
<totfact> 0.14771509E+03</totfact>
</mgrwt>
</event>
<event>
 4    1  0.1837449E-005  0.3667414E+03  0.7818608E-02  0.1055946E+00
          2   -1    0    0  501    0  0.00000000000E+00  0.00000000000E+00  0.84198520023E+03  0.84198520023E+03  0.25500000000E-02 0.  1.
         -2   -1    0    0    0  501 -0.00000000000E+00 -0.00000000000E+00 -0.39935153737E+02  0.39935153818E+02  0.25500000000E-02 0. -1.
    5000001    1    1    2    0    0 -0.77941978282E+02  0.83067803068E+01  0.43948999876E+03  0.47594160733E+03  0.16500000000E+03 0.  0.
   -5000001    1    1    2    0    0  0.77941978282E+02 -0.83067803068E+01  0.36256004773E+03  0.40597874672E+03  0.16500000000E+03 0.  0.
<mgrwt>
<rscale>  0 0.36674137E+03</rscale>
<asrwt>0</asrwt>
<pdfrwt beam="1">  1        2 0.12028359E+00 0.36674137E+03</pdfrwt>
<pdfrwt beam="2">  1       -2 0.57050225E-02 0.36674137E+03</pdfrwt>
<totfact> 0.58782678E+03</totfact>
</mgrwt>
</event>
<event>
 4    1  0.1837449E-005  0.4287171E+03  0.7818608E-02  0.1034266E+00
          2   -1    0    0  501    0  0.00000000000E+00  0.00000000000E+00  0.14689026551E+04  0.14689026551E+04  0.25500000000E-02 0.  1.
         -2   -1    0    0    0  501 -0.00000000000E+00 -0.00000000000E+00 -0.31281573133E+02  0.31281573237E+02  0.25500000000E-02 0. -1.
    5000001    1    1    2    0    0 -0.12203279644E+03  0.61337323837E+02  0.68946795196E+03  0.72197321798E+03  0.16500000000E+03 0.  0.
   -5000001    1    1    2    0    0  0.12203279644E+03 -0.61337323837E+02  0.74815312996E+03  0.77821101032E+03  0.16500000000E+03 0.  0.
<mgrwt>
<rscale>  0 0.42871709E+03</rscale>
<asrwt>0</asrwt>
<pdfrwt beam="1">  1        2 0.20984322E+00 0.42871709E+03</pdfrwt>
<pdfrwt beam="2">  1       -2 0.44687966E-02 0.42871709E+03</pdfrwt>
<totfact> 0.37677278E+03</totfact>
</mgrwt>
</event>
<event>
 4    1  0.1837449E-005  0.8881561E+03  0.7818608E-02  0.9440509E-01
          2   -1    0    0  501    0  0.00000000000E+00  0.00000000000E+00  0.15098121447E+04  0.15098121447E+04  0.25500000000E-02 0.  1.
         -2   -1    0    0    0  501 -0.00000000000E+00 -0.00000000000E+00 -0.13061580995E+03  0.13061580997E+03  0.25500000000E-02 0. -1.
    5000001    1    1    2    0    0 -0.17611343531E+03 -0.37270146064E+03  0.70366638741E+03  0.83204188935E+03  0.16500000000E+03 0.  0.
   -5000001    1    1    2    0    0  0.17611343531E+03  0.37270146064E+03  0.67552994734E+03  0.80838606533E+03  0.16500000000E+03 0.  0.
<mgrwt>
<rscale>  0 0.88815615E+03</rscale>
<asrwt>0</asrwt>
<pdfrwt beam="1">  1        2 0.21568744E+00 0.88815615E+03</pdfrwt>
<pdfrwt beam="2">  1       -2 0.18659403E-01 0.88815615E+03</pdfrwt>
<totfact> 0.34899765E+02</totfact>
</mgrwt>
</event>
<event>
 4    1  0.1837449E-005  0.7661962E+03  0.7818608E-02  0.9610278E-01
          2   -1    0    0  501    0  0.00000000000E+00  0.00000000000E+00  0.78190176414E+03  0.78190176414E+03  0.25500000000E-02 0.  1.
         -2   -1    0    0    0  501 -0.00000000000E+00 -0.00000000000E+00 -0.18770151951E+03  0.18770151953E+03  0.25500000000E-02 0. -1.
    5000001    1    1    2    0    0  0.81677167251E+02 -0.20729610862E+03 -0.37465431477E+02  0.27977043242E+03  0.16500000000E+03 0.  0.
   -5000001    1    1    2    0    0 -0.81677167251E+02  0.20729610862E+03  0.63166567610E+03  0.68983285125E+03  0.16500000000E+03 0.  0.
<mgrwt>
<rscale>  0 0.76619619E+03</rscale>
<asrwt>0</asrwt>
<pdfrwt beam="1">  1        2 0.11170025E+00 0.76619619E+03</pdfrwt>
<pdfrwt beam="2">  1       -2 0.26814503E-01 0.76619619E+03</pdfrwt>
<totfact> 0.49543109E+02</totfact>
</mgrwt>
</event>
<event>
 4    1  0.1837449E-005  0.9230688E+03  0.7818608E-02  0.9397195E-01
         -2   -1    0    0    0  501 -0.00000000000E+00  0.00000000000E+00  0.13936031398E+03  0.13936031401E+03  0.25500000000E-02 0. -1.
          2   -1    0    0  501    0  0.00000000000E+00 -0.00000000000E+00 -0.15285126072E+04  0.15285126072E+04  0.25500000000E-02 0.  1.
    5000001    1    1    2    0    0  0.29548043470E+02  0.37351005146E+03 -0.30955353260E+03  0.51325552599E+03  0.16500000000E+03 0.  0.
   -5000001    1    1    2    0    0 -0.29548043470E+02 -0.37351005146E+03 -0.10795987606E+04  0.11546173952E+04  0.16500000000E+03 0.  0.
<mgrwt>
<rscale>  0 0.92306879E+03</rscale>
<asrwt>0</asrwt>
<pdfrwt beam="1">  1        2 0.21835893E+00 0.92306879E+03</pdfrwt>
<pdfrwt beam="2">  1       -2 0.19908617E-01 0.92306879E+03</pdfrwt>
<totfact> 0.30408732E+02</totfact>
</mgrwt>
</event>
<event>
 4    1  0.1837449E-005  0.4173716E+03  0.7818608E-02  0.1037925E+00
         -2   -1    0    0    0  501 -0.00000000000E+00  0.00000000000E+00  0.15718451001E+03  0.15718451003E+03  0.25500000000E-02 0.  1.
          2   -1    0    0  501    0  0.00000000000E+00 -0.00000000000E+00 -0.27706141104E+03  0.27706141105E+03  0.25500000000E-02 0. -1.
    5000001    1    1    2    0    0 -0.65304997603E+02  0.10663805994E+03 -0.87235486911E+02  0.22465851579E+03  0.16500000000E+03 0.  0.
   -5000001    1    1    2    0    0  0.65304997603E+02 -0.10663805994E+03 -0.32641414124E+02  0.20958740529E+03  0.16500000000E+03 0.  0.
<mgrwt>
<rscale>  0 0.41737160E+03</rscale>
<asrwt>0</asrwt>
<pdfrwt beam="1">  1        2 0.39580201E-01 0.41737160E+03</pdfrwt>
<pdfrwt beam="2">  1       -2 0.22454930E-01 0.41737160E+03</pdfrwt>
<totfact> 0.22387737E+03</totfact>
</mgrwt>
</event>
<event>
 4    1  0.1837449E-005  0.5743072E+03  0.7818608E-02  0.9960192E-01
         -2   -1    0    0    0  501 -0.00000000000E+00  0.00000000000E+00  0.15076494075E+03  0.15076494077E+03  0.25500000000E-02 0.  1.
          2   -1    0    0  501    0  0.00000000000E+00 -0.00000000000E+00 -0.54692552580E+03  0.54692552580E+03  0.25500000000E-02 0. -1.
    5000001    1    1    2    0    0  0.21520448594E+03 -0.32034573759E+02 -0.30600971104E+03  0.41012940389E+03  0.16500000000E+03 0.  0.
   -5000001    1    1    2    0    0 -0.21520448594E+03  0.32034573759E+02 -0.90150874003E+02  0.28756106268E+03  0.16500000000E+03 0.  0.
<mgrwt>
<rscale>  0 0.57430722E+03</rscale>
<asrwt>0</asrwt>
<pdfrwt beam="1">  1        2 0.78132217E-01 0.57430722E+03</pdfrwt>
<pdfrwt beam="2">  1       -2 0.21537849E-01 0.57430722E+03</pdfrwt>
<totfact> 0.11342373E+03</totfact>
</mgrwt>
</event>
<event>
 4    1  0.1837449E-005  0.4573977E+03  0.7818608E-02  0.1025539E+00
         -2   -1    0    0    0  501 -0.00000000000E+00  0.00000000000E+00  0.22568539271E+02  0.22568539415E+02  0.25500000000E-02 0. -1.
          2   -1    0    0  501    0  0.00000000000E+00 -0.00000000000E+00 -0.23175254932E+04  0.23175254932E+04  0.25500000000E-02 0.  1.
    5000001    1    1    2    0    0  0.11177443558E+03 -0.11212766595E+03 -0.11652213679E+04  0.11874476721E+04  0.16500000000E+03 0.  0.
   -5000001    1    1    2    0    0 -0.11177443558E+03  0.11212766595E+03 -0.11297355861E+04  0.11526463605E+04  0.16500000000E+03 0.  0.
<mgrwt>
<rscale>  0 0.45739771E+03</rscale>
<asrwt>0</asrwt>
<pdfrwt beam="1">  1        2 0.33107492E+00 0.45739771E+03</pdfrwt>
<pdfrwt beam="2">  1       -2 0.32240785E-02 0.45739771E+03</pdfrwt>
<totfact> 0.23228442E+03</totfact>
</mgrwt>
</event>
<event>
 4    1  0.1837449E-005  0.4640070E+03  0.7818608E-02  0.1023625E+00
          2   -1    0    0  501    0  0.00000000000E+00  0.00000000000E+00  0.69737407898E+03  0.69737407899E+03  0.25500000000E-02 0.  1.
         -2   -1    0    0    0  501 -0.00000000000E+00 -0.00000000000E+00 -0.77183303288E+02  0.77183303330E+02  0.25500000000E-02 0. -1.
    5000001    1    1    2    0    0  0.98044746520E+02  0.12099388418E+03  0.22920260781E+03  0.32250756233E+03  0.16500000000E+03 0.  0.
   -5000001    1    1    2    0    0 -0.98044746520E+02 -0.12099388418E+03  0.39098816788E+03  0.45204981999E+03  0.16500000000E+03 0.  0.
<mgrwt>
<rscale>  0 0.46400705E+03</rscale>
<asrwt>0</asrwt>
<pdfrwt beam="1">  1        2 0.99624873E-01 0.46400705E+03</pdfrwt>
<pdfrwt beam="2">  1       -2 0.11026186E-01 0.46400705E+03</pdfrwt>
<totfact> 0.26310928E+03</totfact>
</mgrwt>
</event>
<event>
 4    1  0.1837449E-005  0.4903234E+03  0.7818608E-02  0.1016336E+00
         -2   -1    0    0    0  501 -0.00000000000E+00  0.00000000000E+00  0.26271983912E+02  0.26271984036E+02  0.25500000000E-02 0. -1.
          2   -1    0    0  501    0  0.00000000000E+00 -0.00000000000E+00 -0.22877700887E+04  0.22877700887E+04  0.25500000000E-02 0.  1.
    5000001    1    1    2    0    0 -0.99724878376E+02  0.15139403751E+03 -0.11130571122E+04  0.11397308195E+04  0.16500000000E+03 0.  0.
   -5000001    1    1    2    0    0  0.99724878376E+02 -0.15139403751E+03 -0.11484409926E+04  0.11743112532E+04  0.16500000000E+03 0.  0.
<mgrwt>
<rscale>  0 0.49032340E+03</rscale>
<asrwt>0</asrwt>
<pdfrwt beam="1">  1        2 0.32682417E+00 0.49032340E+03</pdfrwt>
<pdfrwt beam="2">  1       -2 0.37531420E-02 0.49032340E+03</pdfrwt>
<totfact> 0.19051739E+03</totfact>
</mgrwt>
</event>
<event>
 4    1  0.1837449E-005  0.9886102E+03  0.7818608E-02  0.9321126E-01
         -2   -1    0    0    0  501 -0.00000000000E+00  0.00000000000E+00  0.18232798219E+03  0.18232798220E+03  0.25500000000E-02 0. -1.
          2   -1    0    0  501    0  0.00000000000E+00 -0.00000000000E+00 -0.13400990272E+04  0.13400990272E+04  0.25500000000E-02 0.  1.
    5000001    1    1    2    0    0 -0.15893937206E+03  0.43712033191E+03 -0.62180180536E+03  0.79385035977E+03  0.16500000000E+03 0.  0.
   -5000001    1    1    2    0    0  0.15893937206E+03 -0.43712033191E+03 -0.53596923970E+03  0.72857664968E+03  0.16500000000E+03 0.  0.
<mgrwt>
<rscale>  0 0.98861024E+03</rscale>
<asrwt>0</asrwt>
<pdfrwt beam="1">  1        2 0.19144271E+00 0.98861024E+03</pdfrwt>
<pdfrwt beam="2">  1       -2 0.26046855E-01 0.98861024E+03</pdfrwt>
<totfact> 0.23656045E+02</totfact>
</mgrwt>
</event>
<event>
 4    1  0.1837449E-005  0.8484227E+03  0.7818608E-02  0.9492456E-01
          2   -1    0    0  501    0  0.00000000000E+00  0.00000000000E+00  0.14827820792E+04  0.14827820792E+04  0.25500000000E-02 0.  1.
         -2   -1    0    0    0  501 -0.00000000000E+00 -0.00000000000E+00 -0.12136326773E+03  0.12136326775E+03  0.25500000000E-02 0. -1.
    5000001    1    1    2    0    0 -0.23823367761E+03  0.55596455629E+02  0.12569474720E+04  0.12911189714E+04  0.16500000000E+03 0.  0.
   -5000001    1    1    2    0    0  0.23823367761E+03 -0.55596455629E+02  0.10447133953E+03  0.31302637558E+03  0.16500000000E+03 0.  0.
<mgrwt>
<rscale>  0 0.84842272E+03</rscale>
<asrwt>0</asrwt>
<pdfrwt beam="1">  1        2 0.21182599E+00 0.84842272E+03</pdfrwt>
<pdfrwt beam="2">  1       -2 0.17337612E-01 0.84842272E+03</pdfrwt>
<totfact> 0.41039570E+02</totfact>
</mgrwt>
</event>
<event>
 4    1  0.1837449E-005  0.5088923E+03  0.7818608E-02  0.1011484E+00
         -2   -1    0    0    0  501 -0.00000000000E+00  0.00000000000E+00  0.20168121876E+02  0.20168122037E+02  0.25500000000E-02 0. -1.
          2   -1    0    0  501    0  0.00000000000E+00 -0.00000000000E+00 -0.32101574264E+04  0.32101574264E+04  0.25500000000E-02 0.  1.
    5000001    1    1    2    0    0 -0.16188827359E+03 -0.10275541653E+03 -0.17689924612E+04  0.17869879172E+04  0.16500000000E+03 0.  0.
   -5000001    1    1    2    0    0  0.16188827359E+03  0.10275541653E+03 -0.14209968433E+04  0.14433376312E+04  0.16500000000E+03 0.  0.
<mgrwt>
<rscale>  0 0.50889231E+03</rscale>
<asrwt>0</asrwt>
<pdfrwt beam="1">  1        2 0.45859359E+00 0.50889231E+03</pdfrwt>
<pdfrwt beam="2">  1       -2 0.28811623E-02 0.50889231E+03</pdfrwt>
<totfact> 0.93053056E+02</totfact>
</mgrwt>
</event>
<event>
 4    1  0.1837449E-005  0.4470630E+03  0.7818608E-02  0.1028602E+00
          2   -1    0    0  501    0  0.00000000000E+00  0.00000000000E+00  0.11765910738E+04  0.11765910738E+04  0.25500000000E-02 0.  1.
         -2   -1    0    0    0  501 -0.00000000000E+00 -0.00000000000E+00 -0.42467035656E+02  0.42467035733E+02  0.25500000000E-02 0. -1.
    5000001    1    1    2    0    0 -0.54826712833E+01 -0.55282775412E+02  0.18477180198E+03  0.25387371615E+03  0.16500000000E+03 0.  0.
   -5000001    1    1    2    0    0  0.54826712833E+01  0.55282775412E+02  0.94935223621E+03  0.96518439344E+03  0.16500000000E+03 0.  0.
<mgrwt>
<rscale>  0 0.44706302E+03</rscale>
<asrwt>0</asrwt>
<pdfrwt beam="1">  1        2 0.16808442E+00 0.44706302E+03</pdfrwt>
<pdfrwt beam="2">  1       -2 0.60667202E-02 0.44706302E+03</pdfrwt>
<totfact> 0.33711321E+03</totfact>
</mgrwt>
</event>
<event>
 4    1  0.1837449E-005  0.6219389E+03  0.7818608E-02  0.9860907E-01
         -2   -1    0    0    0  501 -0.00000000000E+00  0.00000000000E+00  0.37007628209E+02  0.37007628297E+02  0.25500000000E-02 0. -1.
          2   -1    0    0  501    0  0.00000000000E+00 -0.00000000000E+00 -0.26130284934E+04  0.26130284934E+04  0.25500000000E-02 0.  1.
    5000001    1    1    2    0    0 -0.23162583761E+03  0.56527296417E+02 -0.17668886519E+04  0.17905212571E+04  0.16500000000E+03 0.  0.
   -5000001    1    1    2    0    0  0.23162583761E+03 -0.56527296417E+02 -0.80913221327E+03  0.85951486459E+03  0.16500000000E+03 0.  0.
<mgrwt>
<rscale>  0 0.62193886E+03</rscale>
<asrwt>0</asrwt>
<pdfrwt beam="1">  1        2 0.37328967E+00 0.62193886E+03</pdfrwt>
<pdfrwt beam="2">  1       -2 0.52868057E-02 0.62193886E+03</pdfrwt>
<totfact> 0.76014807E+02</totfact>
</mgrwt>
</event>
<event>
 4    1  0.1837449E-005  0.5222851E+03  0.7818608E-02  0.1008120E+00
          2   -1    0    0  501    0  0.00000000000E+00  0.00000000000E+00  0.66397936993E+03  0.66397936993E+03  0.25500000000E-02 0.  1.
         -2   -1    0    0    0  501 -0.00000000000E+00 -0.00000000000E+00 -0.10270716751E+03  0.10270716754E+03  0.25500000000E-02 0. -1.
    5000001    1    1    2    0    0  0.78137680115E+02  0.18477066335E+03  0.24111738070E+03  0.35441259341E+03  0.16500000000E+03 0.  0.
   -5000001    1    1    2    0    0 -0.78137680115E+02 -0.18477066335E+03  0.32015482171E+03  0.41227394407E+03  0.16500000000E+03 0.  0.
<mgrwt>
<rscale>  0 0.52228513E+03</rscale>
<asrwt>0</asrwt>
<pdfrwt beam="1">  1        2 0.94854193E-01 0.52228513E+03</pdfrwt>
<pdfrwt beam="2">  1       -2 0.14672453E-01 0.52228513E+03</pdfrwt>
<totfact> 0.17437914E+03</totfact>
</mgrwt>
</event>
<event>
 4    1  0.1837449E-005  0.5835901E+03  0.7818608E-02  0.9940049E-01
          2   -1    0    0  501    0  0.00000000000E+00  0.00000000000E+00  0.15124317547E+04  0.15124317547E+04  0.25500000000E-02 0.  1.
         -2   -1    0    0    0  501 -0.00000000000E+00 -0.00000000000E+00 -0.56296331737E+02  0.56296331795E+02  0.25500000000E-02 0. -1.
    5000001    1    1    2    0    0  0.20683174157E+03  0.17979656163E+02  0.10552696044E+04  0.10880816033E+04  0.16500000000E+03 0.  0.
   -5000001    1    1    2    0    0 -0.20683174157E+03 -0.17979656163E+02  0.40086581848E+03  0.48064648317E+03  0.16500000000E+03 0.  0.
<mgrwt>
<rscale>  0 0.58359013E+03</rscale>
<asrwt>0</asrwt>
<pdfrwt beam="1">  1        2 0.21606171E+00 0.58359013E+03</pdfrwt>
<pdfrwt beam="2">  1       -2 0.80423321E-02 0.58359013E+03</pdfrwt>
<totfact> 0.14256254E+03</totfact>
</mgrwt>
</event>
<event>
 4    1  0.1837449E-005  0.6796454E+03  0.7818608E-02  0.9752689E-01
         -2   -1    0    0    0  501 -0.00000000000E+00  0.00000000000E+00  0.16223904826E+03  0.16223904828E+03  0.25500000000E-02 0. -1.
          2   -1    0    0  501    0  0.00000000000E+00 -0.00000000000E+00 -0.71178599277E+03  0.71178599277E+03  0.25500000000E-02 0.  1.
    5000001    1    1    2    0    0  0.12108138416E+03  0.28733904213E+02  0.72132768552E+02  0.21889375309E+03  0.16500000000E+03 0.  0.
   -5000001    1    1    2    0    0 -0.12108138416E+03 -0.28733904213E+02 -0.62167971306E+03  0.65513128796E+03  0.16500000000E+03 0.  0.
<mgrwt>
<rscale>  0 0.67964544E+03</rscale>
<asrwt>0</asrwt>
<pdfrwt beam="1">  1        2 0.10168371E+00 0.67964544E+03</pdfrwt>
<pdfrwt beam="2">  1       -2 0.23177007E-01 0.67964544E+03</pdfrwt>
<totfact> 0.72668808E+02</totfact>
</mgrwt>
</event>
<event>
 4    1  0.1837449E-005  0.4033994E+03  0.7818608E-02  0.1042609E+00
         -2   -1    0    0    0  501 -0.00000000000E+00  0.00000000000E+00  0.29640156429E+02  0.29640156538E+02  0.25500000000E-02 0. -1.
          2   -1    0    0  501    0  0.00000000000E+00 -0.00000000000E+00 -0.13725556636E+04  0.13725556636E+04  0.25500000000E-02 0.  1.
    5000001    1    1    2    0    0  0.11384000051E+03  0.18079431119E+02 -0.62595691122E+03  0.65752069644E+03  0.16500000000E+03 0.  0.
   -5000001    1    1    2    0    0 -0.11384000051E+03 -0.18079431119E+02 -0.71695859596E+03  0.74467512370E+03  0.16500000000E+03 0.  0.
<mgrwt>
<rscale>  0 0.40339938E+03</rscale>
<asrwt>0</asrwt>
<pdfrwt beam="1">  1        2 0.19607934E+00 0.40339938E+03</pdfrwt>
<pdfrwt beam="2">  1       -2 0.42343089E-02 0.40339938E+03</pdfrwt>
<totfact> 0.45920388E+03</totfact>
</mgrwt>
</event>
<event>
 4    1  0.1837449E-005  0.6624142E+03  0.7818608E-02  0.9783760E-01
          2   -1    0    0  501    0  0.00000000000E+00  0.00000000000E+00  0.75217499449E+03  0.75217499449E+03  0.25500000000E-02 0.  1.
         -2   -1    0    0    0  501 -0.00000000000E+00 -0.00000000000E+00 -0.14584123706E+03  0.14584123708E+03  0.25500000000E-02 0. -1.
    5000001    1    1    2    0    0  0.22553779171E+03 -0.16431100618E+03  0.39519023333E+03  0.51114158778E+03  0.16500000000E+03 0.  0.
   -5000001    1    1    2    0    0 -0.22553779171E+03  0.16431100618E+03  0.21114352410E+03  0.38687464380E+03  0.16500000000E+03 0.  0.
<mgrwt>
<rscale>  0 0.66241417E+03</rscale>
<asrwt>0</asrwt>
<pdfrwt beam="1">  1        2 0.10745357E+00 0.66241417E+03</pdfrwt>
<pdfrwt beam="2">  1       -2 0.20834463E-01 0.66241417E+03</pdfrwt>
<totfact> 0.81934386E+02</totfact>
</mgrwt>
</event>
<event>
 4    1  0.1837449E-005  0.3594401E+03  0.7818608E-02  0.1058806E+00
          2   -1    0    0  501    0  0.00000000000E+00  0.00000000000E+00  0.29125359089E+03  0.29125359090E+03  0.25500000000E-02 0.  1.
         -2   -1    0    0    0  501 -0.00000000000E+00 -0.00000000000E+00 -0.11089750463E+03  0.11089750466E+03  0.25500000000E-02 0. -1.
    5000001    1    1    2    0    0  0.47906350518E+02 -0.36485049188E+02  0.47602040110E+02  0.18198112940E+03  0.16500000000E+03 0.  0.
   -5000001    1    1    2    0    0 -0.47906350518E+02  0.36485049188E+02  0.13275404615E+03  0.22016996617E+03  0.16500000000E+03 0.  0.
<mgrwt>
<rscale>  0 0.35944010E+03</rscale>
<asrwt>0</asrwt>
<pdfrwt beam="1">  1        2 0.41607655E-01 0.35944010E+03</pdfrwt>
<pdfrwt beam="2">  1       -2 0.15842501E-01 0.35944010E+03</pdfrwt>
<totfact> 0.38418514E+03</totfact>
</mgrwt>
</event>
<event>
 4    1  0.1837449E-005  0.3874123E+03  0.7818608E-02  0.1048228E+00
         -2   -1    0    0    0  501 -0.00000000000E+00  0.00000000000E+00  0.76613747188E+03  0.76613747188E+03  0.25500000000E-02 0. -1.
          2   -1    0    0  501    0  0.00000000000E+00 -0.00000000000E+00 -0.48975648778E+02  0.48975648844E+02  0.25500000000E-02 0.  1.
    5000001    1    1    2    0    0 -0.20102275774E-01  0.10110689128E+03  0.34042356794E+03  0.39158116589E+03  0.16500000000E+03 0.  0.
   -5000001    1    1    2    0    0  0.20102275774E-01 -0.10110689128E+03  0.37673825516E+03  0.42353195484E+03  0.16500000000E+03 0.  0.
<mgrwt>
<rscale>  0 0.38741234E+03</rscale>
<asrwt>0</asrwt>
<pdfrwt beam="1">  1        2 0.69965208E-02 0.38741234E+03</pdfrwt>
<pdfrwt beam="2">  1       -2 0.10944822E+00 0.38741234E+03</pdfrwt>
<totfact> 0.70533194E+02</totfact>
</mgrwt>
</event>
<event>
 4    1  0.1837449E-005  0.6247806E+03  0.7818608E-02  0.9855287E-01
         -2   -1    0    0    0  501 -0.00000000000E+00  0.00000000000E+00  0.30027226446E+02  0.30027226555E+02  0.25500000000E-02 0. -1.
          2   -1    0    0  501    0  0.00000000000E+00 -0.00000000000E+00 -0.32499733878E+04  0.32499733878E+04  0.25500000000E-02 0.  1.
    5000001    1    1    2    0    0 -0.42929065289E+02 -0.16165811509E+03 -0.52913691358E+03  0.57895347321E+03  0.16500000000E+03 0.  0.
   -5000001    1    1    2    0    0  0.42929065289E+02  0.16165811509E+03 -0.26908092478E+04  0.27010471412E+04  0.16500000000E+03 0.  0.
<mgrwt>
<rscale>  0 0.62478056E+03</rscale>
<asrwt>0</asrwt>
<pdfrwt beam="1">  1        2 0.46428169E+00 0.62478056E+03</pdfrwt>
<pdfrwt beam="2">  1       -2 0.42896058E-02 0.62478056E+03</pdfrwt>
<totfact> 0.47544215E+02</totfact>
</mgrwt>
</event>
<event>
 4    1  0.1837449E-005  0.5766064E+03  0.7818608E-02  0.9955165E-01
          2   -1    0    0  501    0  0.00000000000E+00  0.00000000000E+00  0.66029855927E+03  0.66029855928E+03  0.25500000000E-02 0.  1.
         -2   -1    0    0    0  501 -0.00000000000E+00 -0.00000000000E+00 -0.12588051456E+03  0.12588051458E+03  0.25500000000E-02 0. -1.
    5000001    1    1    2    0    0  0.76280822966E+02 -0.11395282499E+03  0.46247042548E+01  0.21459356506E+03  0.16500000000E+03 0.  0.
   -5000001    1    1    2    0    0 -0.76280822966E+02  0.11395282499E+03  0.52979334046E+03  0.57158550880E+03  0.16500000000E+03 0.  0.
<mgrwt>
<rscale>  0 0.57660636E+03</rscale>
<asrwt>0</asrwt>
<pdfrwt beam="1">  1        2 0.94328364E-01 0.57660636E+03</pdfrwt>
<pdfrwt beam="2">  1       -2 0.17982931E-01 0.57660636E+03</pdfrwt>
<totfact> 0.12431271E+03</totfact>
</mgrwt>
</event>
<event>
 4    1  0.1837449E-005  0.5821577E+03  0.7818608E-02  0.9943131E-01
          2   -1    0    0  501    0  0.00000000000E+00  0.00000000000E+00  0.67861836231E+02  0.67861836279E+02  0.25500000000E-02 0.  1.
         -2   -1    0    0    0  501 -0.00000000000E+00 -0.00000000000E+00 -0.12485203632E+04  0.12485203632E+04  0.25500000000E-02 0. -1.
    5000001    1    1    2    0    0 -0.14070774602E+03  0.37466488078E+02 -0.10211450118E+04  0.10445882168E+04  0.16500000000E+03 0.  0.
   -5000001    1    1    2    0    0  0.14070774602E+03 -0.37466488078E+02 -0.15951351521E+03  0.27179398274E+03  0.16500000000E+03 0.  0.
<mgrwt>
<rscale>  0 0.58215766E+03</rscale>
<asrwt>0</asrwt>
<pdfrwt beam="1">  1        2 0.96945488E-02 0.58215766E+03</pdfrwt>
<pdfrwt beam="2">  1       -2 0.17836004E+00 0.58215766E+03</pdfrwt>
<totfact> 0.13147194E+02</totfact>
</mgrwt>
</event>
<event>
 4    1  0.1837449E-005  0.3543311E+03  0.7818608E-02  0.1060851E+00
         -2   -1    0    0    0  501 -0.00000000000E+00  0.00000000000E+00  0.13479053998E+02  0.13479054239E+02  0.25500000000E-02 0. -1.
          2   -1    0    0  501    0  0.00000000000E+00 -0.00000000000E+00 -0.23286229400E+04  0.23286229400E+04  0.25500000000E-02 0.  1.
    5000001    1    1    2    0    0 -0.49342896421E+02 -0.31683642683E+02 -0.13354341962E+04  0.13468660167E+04  0.16500000000E+03 0.  0.
   -5000001    1    1    2    0    0  0.49342896421E+02  0.31683642683E+02 -0.97970968984E+03  0.99523597755E+03  0.16500000000E+03 0.  0.
<mgrwt>
<rscale>  0 0.35433111E+03</rscale>
<asrwt>0</asrwt>
<pdfrwt beam="1">  1        2 0.33266016E+00 0.35433111E+03</pdfrwt>
<pdfrwt beam="2">  1       -2 0.19255806E-02 0.35433111E+03</pdfrwt>
<totfact> 0.49798506E+03</totfact>
</mgrwt>
</event>
<event>
 4    1  0.1837449E-005  0.3617141E+03  0.7818608E-02  0.1057907E+00
         -2   -1    0    0    0  501 -0.00000000000E+00  0.00000000000E+00  0.11215791657E+03  0.11215791660E+03  0.25500000000E-02 0. -1.
          2   -1    0    0  501    0  0.00000000000E+00 -0.00000000000E+00 -0.29163584568E+03  0.29163584569E+03  0.25500000000E-02 0.  1.
    5000001    1    1    2    0    0  0.73200737598E+02  0.15179962592E+01 -0.10215070018E+03  0.20741363949E+03  0.16500000000E+03 0.  0.
   -5000001    1    1    2    0    0 -0.73200737598E+02 -0.15179962592E+01 -0.77327228925E+02  0.19638012280E+03  0.16500000000E+03 0.  0.
<mgrwt>
<rscale>  0 0.36171408E+03</rscale>
<asrwt>0</asrwt>
<pdfrwt beam="1">  1        2 0.41662263E-01 0.36171408E+03</pdfrwt>
<pdfrwt beam="2">  1       -2 0.16022560E-01 0.36171408E+03</pdfrwt>
<totfact> 0.37650085E+03</totfact>
</mgrwt>
</event>
<event>
 4    1  0.1837449E-005  0.4936911E+03  0.7818608E-02  0.1015439E+00
         -2   -1    0    0    0  501 -0.00000000000E+00  0.00000000000E+00  0.35647912100E+03  0.35647912101E+03  0.25500000000E-02 0. -1.
          2   -1    0    0  501    0  0.00000000000E+00 -0.00000000000E+00 -0.17092932500E+03  0.17092932502E+03  0.25500000000E-02 0.  1.
    5000001    1    1    2    0    0  0.15097045101E+03 -0.10446972425E+03  0.94182121266E+02  0.26419930418E+03  0.16500000000E+03 0.  0.
   -5000001    1    1    2    0    0 -0.15097045101E+03  0.10446972425E+03  0.91367674730E+02  0.26320914184E+03  0.16500000000E+03 0.  0.
<mgrwt>
<rscale>  0 0.49369114E+03</rscale>
<asrwt>0</asrwt>
<pdfrwt beam="1">  1        2 0.24418475E-01 0.49369114E+03</pdfrwt>
<pdfrwt beam="2">  1       -2 0.50925589E-01 0.49369114E+03</pdfrwt>
<totfact> 0.82398859E+02</totfact>
</mgrwt>
</event>
<event>
 4    1  0.1837449E-005  0.4971299E+03  0.7818608E-02  0.1014531E+00
         -2   -1    0    0    0  501 -0.00000000000E+00  0.00000000000E+00  0.58904588251E+02  0.58904588307E+02  0.25500000000E-02 0. -1.
          2   -1    0    0  501    0  0.00000000000E+00 -0.00000000000E+00 -0.10488915158E+04  0.10488915158E+04  0.25500000000E-02 0.  1.
    5000001    1    1    2    0    0 -0.58730200412E+02  0.16964102887E+03 -0.38737826590E+03  0.45772725067E+03  0.16500000000E+03 0.  0.
   -5000001    1    1    2    0    0  0.58730200412E+02 -0.16964102887E+03 -0.60260866161E+03  0.65006885340E+03  0.16500000000E+03 0.  0.
<mgrwt>
<rscale>  0 0.49712985E+03</rscale>
<asrwt>0</asrwt>
<pdfrwt beam="1">  1        2 0.14984163E+00 0.49712985E+03</pdfrwt>
<pdfrwt beam="2">  1       -2 0.84149419E-02 0.49712985E+03</pdfrwt>
<totfact> 0.23850273E+03</totfact>
</mgrwt>
</event>
<event>
 4    1  0.1837449E-005  0.4834742E+03  0.7818608E-02  0.1018185E+00
         -2   -1    0    0    0  501 -0.00000000000E+00  0.00000000000E+00  0.22544198873E+03  0.22544198875E+03  0.25500000000E-02 0. -1.
          2   -1    0    0  501    0  0.00000000000E+00 -0.00000000000E+00 -0.25921008216E+03  0.25921008217E+03  0.25500000000E-02 0.  1.
    5000001    1    1    2    0    0  0.14766571945E+03  0.20580434210E+02 -0.11189425450E+03  0.24894586392E+03  0.16500000000E+03 0.  0.
   -5000001    1    1    2    0    0 -0.14766571945E+03 -0.20580434210E+02  0.78126161075E+02  0.23570620700E+03  0.16500000000E+03 0.  0.
<mgrwt>
<rscale>  0 0.48347425E+03</rscale>
<asrwt>0</asrwt>
<pdfrwt beam="1">  1        2 0.37030012E-01 0.48347425E+03</pdfrwt>
<pdfrwt beam="2">  1       -2 0.32205999E-01 0.48347425E+03</pdfrwt>
<totfact> 0.12576545E+03</totfact>
</mgrwt>
</event>
<event>
 4    1  0.1837449E-005  0.4408078E+03  0.7818608E-02  0.1030499E+00
         -2   -1    0    0    0  501 -0.00000000000E+00  0.00000000000E+00  0.35264905472E+02  0.35264905564E+02  0.25500000000E-02 0.  1.
          2   -1    0    0  501    0  0.00000000000E+00 -0.00000000000E+00 -0.13775134327E+04  0.13775134327E+04  0.25500000000E-02 0. -1.
    5000001    1    1    2    0    0  0.90201572927E+02  0.75229554507E+02 -0.39251117699E+03  0.44168522014E+03  0.16500000000E+03 0.  0.
   -5000001    1    1    2    0    0 -0.90201572927E+02 -0.75229554507E+02 -0.94973735025E+03  0.97109311813E+03  0.16500000000E+03 0.  0.
<mgrwt>
<rscale>  0 0.44080781E+03</rscale>
<asrwt>0</asrwt>
<pdfrwt beam="1">  1        2 0.19678760E+00 0.44080781E+03</pdfrwt>
<pdfrwt beam="2">  1       -2 0.50378445E-02 0.44080781E+03</pdfrwt>
<totfact> 0.34983684E+03</totfact>
</mgrwt>
</event>
<event>
 4    1  0.1837449E-005  0.4185921E+03  0.7818608E-02  0.1037526E+00
          2   -1    0    0  501    0  0.00000000000E+00  0.00000000000E+00  0.19895817911E+03  0.19895817913E+03  0.25500000000E-02 0.  1.
         -2   -1    0    0    0  501 -0.00000000000E+00 -0.00000000000E+00 -0.22017104356E+03  0.22017104357E+03  0.25500000000E-02 0. -1.
    5000001    1    1    2    0    0  0.35699775935E+01  0.12209296675E+03 -0.51406637564E+02  0.21162958124E+03  0.16500000000E+03 0.  0.
   -5000001    1    1    2    0    0 -0.35699775935E+01 -0.12209296675E+03  0.30193773122E+02  0.20749964146E+03  0.16500000000E+03 0.  0.
<mgrwt>
<rscale>  0 0.41859207E+03</rscale>
<asrwt>0</asrwt>
<pdfrwt beam="1">  1        2 0.28422597E-01 0.41859207E+03</pdfrwt>
<pdfrwt beam="2">  1       -2 0.31453006E-01 0.41859207E+03</pdfrwt>
<totfact> 0.17601808E+03</totfact>
</mgrwt>
</event>
<event>
 4    1  0.1837449E-005  0.3916415E+03  0.7818608E-02  0.1046713E+00
         -2   -1    0    0    0  501 -0.00000000000E+00  0.00000000000E+00  0.18060781457E+02  0.18060781637E+02  0.25500000000E-02 0. -1.
          2   -1    0    0  501    0  0.00000000000E+00 -0.00000000000E+00 -0.21231514085E+04  0.21231514085E+04  0.25500000000E-02 0.  1.
    5000001    1    1    2    0    0  0.87361809053E+02 -0.12233434528E+02 -0.73662234901E+03  0.76001264968E+03  0.16500000000E+03 0.  0.
   -5000001    1    1    2    0    0 -0.87361809053E+02  0.12233434528E+02 -0.13684682780E+04  0.13811995405E+04  0.16500000000E+03 0.  0.
<mgrwt>
<rscale>  0 0.39164154E+03</rscale>
<asrwt>0</asrwt>
<pdfrwt beam="1">  1        2 0.30330719E+00 0.39164154E+03</pdfrwt>
<pdfrwt beam="2">  1       -2 0.25801130E-02 0.39164154E+03</pdfrwt>
<totfact> 0.40696801E+03</totfact>
</mgrwt>
</event>
<event>
 4    1  0.1837449E-005  0.5262992E+03  0.7818608E-02  0.1007134E+00
          2   -1    0    0  501    0  0.00000000000E+00  0.00000000000E+00  0.20782609058E+03  0.20782609060E+03  0.25500000000E-02 0.  1.
         -2   -1    0    0    0  501 -0.00000000000E+00 -0.00000000000E+00 -0.33320033557E+03  0.33320033558E+03  0.25500000000E-02 0. -1.
    5000001    1    1    2    0    0  0.50822034468E+02 -0.13900287079E+03  0.83119963505E+02  0.23672474650E+03  0.16500000000E+03 0.  0.
   -5000001    1    1    2    0    0 -0.50822034468E+02  0.13900287079E+03 -0.20849420849E+03  0.30430167967E+03  0.16500000000E+03 0.  0.
<mgrwt>
<rscale>  0 0.52629924E+03</rscale>
<asrwt>0</asrwt>
<pdfrwt beam="1">  1        2 0.29689441E-01 0.52629924E+03</pdfrwt>
<pdfrwt beam="2">  1       -2 0.47600048E-01 0.52629924E+03</pdfrwt>
<totfact> 0.75682908E+02</totfact>
</mgrwt>
</event>
<event>
 4    1  0.1837449E-005  0.7964105E+03  0.7818608E-02  0.9565227E-01
          2   -1    0    0  501    0  0.00000000000E+00  0.00000000000E+00  0.16773797730E+04  0.16773797730E+04  0.25500000000E-02 0.  1.
         -2   -1    0    0    0  501 -0.00000000000E+00 -0.00000000000E+00 -0.94532817049E+02  0.94532817084E+02  0.25500000000E-02 0. -1.
    5000001    1    1    2    0    0 -0.40691710096E+02  0.32603688676E+03  0.11316659681E+04  0.11898944198E+04  0.16500000000E+03 0.  0.
   -5000001    1    1    2    0    0  0.40691710096E+02 -0.32603688676E+03  0.45118098782E+03  0.58201817031E+03  0.16500000000E+03 0.  0.
<mgrwt>
<rscale>  0 0.79641054E+03</rscale>
<asrwt>0</asrwt>
<pdfrwt beam="1">  1        2 0.23962567E+00 0.79641054E+03</pdfrwt>
<pdfrwt beam="2">  1       -2 0.13504689E-01 0.79641054E+03</pdfrwt>
<totfact> 0.49793709E+02</totfact>
</mgrwt>
</event>
<event>
 4    1  0.1837449E-005  0.5301128E+03  0.7818608E-02  0.1006205E+00
          2   -1    0    0  501    0  0.00000000000E+00  0.00000000000E+00  0.10469301071E+04  0.10469301071E+04  0.25500000000E-02 0.  1.
         -2   -1    0    0    0  501 -0.00000000000E+00 -0.00000000000E+00 -0.67105616540E+02  0.67105616588E+02  0.25500000000E-02 0. -1.
    5000001    1    1    2    0    0  0.77742800170E+02 -0.12732025414E+03  0.79281734600E+03  0.82343107435E+03  0.16500000000E+03 0.  0.
   -5000001    1    1    2    0    0 -0.77742800170E+02  0.12732025414E+03  0.18700714452E+03  0.29060464930E+03  0.16500000000E+03 0.  0.
<mgrwt>
<rscale>  0 0.53011278E+03</rscale>
<asrwt>0</asrwt>
<pdfrwt beam="1">  1        2 0.14956144E+00 0.53011278E+03</pdfrwt>
<pdfrwt beam="2">  1       -2 0.95865167E-02 0.53011278E+03</pdfrwt>
<totfact> 0.19403536E+03</totfact>
</mgrwt>
</event>
<event>
 4    1  0.1837449E-005  0.5623809E+03  0.7818608E-02  0.9986682E-01
          2   -1    0    0  501    0  0.00000000000E+00  0.00000000000E+00  0.25434798769E+04  0.25434798769E+04  0.25500000000E-02 0.  1.
         -2   -1    0    0    0  501 -0.00000000000E+00 -0.00000000000E+00 -0.31086574834E+02  0.31086574939E+02  0.25500000000E-02 0. -1.
    5000001    1    1    2    0    0  0.42051382502E+02  0.68507243563E+02  0.22314400562E+04  0.22389754991E+04  0.16500000000E+03 0.  0.
   -5000001    1    1    2    0    0 -0.42051382502E+02 -0.68507243563E+02  0.28095324584E+03  0.33559095271E+03  0.16500000000E+03 0.  0.
<mgrwt>
<rscale>  0 0.56238093E+03</rscale>
<asrwt>0</asrwt>
<pdfrwt beam="1">  1        2 0.36335422E+00 0.56238093E+03</pdfrwt>
<pdfrwt beam="2">  1       -2 0.44409399E-02 0.56238093E+03</pdfrwt>
<totfact> 0.10866319E+03</totfact>
</mgrwt>
</event>
<event>
 4    1  0.1837449E-005  0.3780500E+03  0.7818608E-02  0.1051657E+00
         -2   -1    0    0    0  501 -0.00000000000E+00  0.00000000000E+00  0.26568363603E+02  0.26568363725E+02  0.25500000000E-02 0. -1.
          2   -1    0    0  501    0  0.00000000000E+00 -0.00000000000E+00 -0.13448496035E+04  0.13448496035E+04  0.25500000000E-02 0.  1.
    5000001    1    1    2    0    0 -0.29423395285E+02  0.76115121810E+02 -0.50327132079E+03  0.53587896981E+03  0.16500000000E+03 0.  0.
   -5000001    1    1    2    0    0  0.29423395285E+02 -0.76115121810E+02 -0.81500991914E+03  0.83553899745E+03  0.16500000000E+03 0.  0.
<mgrwt>
<rscale>  0 0.37805001E+03</rscale>
<asrwt>0</asrwt>
<pdfrwt beam="1">  1        2 0.19212133E+00 0.37805001E+03</pdfrwt>
<pdfrwt beam="2">  1       -2 0.37954814E-02 0.37805001E+03</pdfrwt>
<totfact> 0.56050082E+03</totfact>
</mgrwt>
</event>
<event>
 4    1  0.1837449E-005  0.3633869E+03  0.7818608E-02  0.1057251E+00
         -2   -1    0    0    0  501 -0.00000000000E+00  0.00000000000E+00  0.19628693914E+03  0.19628693916E+03  0.25500000000E-02 0. -1.
          2   -1    0    0  501    0  0.00000000000E+00 -0.00000000000E+00 -0.16818498130E+03  0.16818498132E+03  0.25500000000E-02 0.  1.
    5000001    1    1    2    0    0  0.36421923211E+02 -0.22979706501E+02  0.76950997161E+02  0.18708575404E+03  0.16500000000E+03 0.  0.
   -5000001    1    1    2    0    0 -0.36421923211E+02  0.22979706501E+02 -0.48849039325E+02  0.17738616644E+03  0.16500000000E+03 0.  0.
<mgrwt>
<rscale>  0 0.36338693E+03</rscale>
<asrwt>0</asrwt>
<pdfrwt beam="1">  1        2 0.24026426E-01 0.36338693E+03</pdfrwt>
<pdfrwt beam="2">  1       -2 0.28040991E-01 0.36338693E+03</pdfrwt>
<totfact> 0.26170379E+03</totfact>
</mgrwt>
</event>
<event>
 4    1  0.1837449E-005  0.5553605E+03  0.7818608E-02  0.1000261E+00
         -2   -1    0    0    0  501 -0.00000000000E+00  0.00000000000E+00  0.50427481063E+02  0.50427481128E+02  0.25500000000E-02 0. -1.
          2   -1    0    0  501    0  0.00000000000E+00 -0.00000000000E+00 -0.15290536126E+04  0.15290536126E+04  0.25500000000E-02 0.  1.
    5000001    1    1    2    0    0 -0.22546308374E+01  0.21858297890E+03 -0.60905242380E+03  0.66779746703E+03  0.16500000000E+03 0.  0.
   -5000001    1    1    2    0    0  0.22546308374E+01 -0.21858297890E+03 -0.86957370774E+03  0.91168362671E+03  0.16500000000E+03 0.  0.
<mgrwt>
<rscale>  0 0.55536050E+03</rscale>
<asrwt>0</asrwt>
<pdfrwt beam="1">  1        2 0.21843620E+00 0.55536050E+03</pdfrwt>
<pdfrwt beam="2">  1       -2 0.72039268E-02 0.55536050E+03</pdfrwt>
<totfact> 0.16659428E+03</totfact>
</mgrwt>
</event>
<event>
 4    1  0.1837449E-005  0.5830586E+03  0.7818608E-02  0.9941191E-01
          2   -1    0    0  501    0  0.00000000000E+00  0.00000000000E+00  0.89881662634E+03  0.89881662634E+03  0.25500000000E-02 0.  1.
         -2   -1    0    0    0  501 -0.00000000000E+00 -0.00000000000E+00 -0.94556927879E+02  0.94556927914E+02  0.25500000000E-02 0. -1.
    5000001    1    1    2    0    0  0.19345013690E+03  0.13731522015E+03  0.46780441012E+03  0.54985851933E+03  0.16500000000E+03 0.  0.
   -5000001    1    1    2    0    0 -0.19345013690E+03 -0.13731522015E+03  0.33645528834E+03  0.44351503492E+03  0.16500000000E+03 0.  0.
<mgrwt>
<rscale>  0 0.58305862E+03</rscale>
<asrwt>0</asrwt>
<pdfrwt beam="1">  1        2 0.12840238E+00 0.58305862E+03</pdfrwt>
<pdfrwt beam="2">  1       -2 0.13508132E-01 0.58305862E+03</pdfrwt>
<totfact> 0.13655870E+03</totfact>
</mgrwt>
</event>
<event>
 4    1  0.1837449E-005  0.1090692E+04  0.7818608E-02  0.9214311E-01
          2   -1    0    0  501    0  0.00000000000E+00  0.00000000000E+00  0.38218281056E+04  0.38218281056E+04  0.25500000000E-02 0.  1.
         -2   -1    0    0    0  501 -0.00000000000E+00 -0.00000000000E+00 -0.77816825328E+02  0.77816825370E+02  0.25500000000E-02 0. -1.
    5000001    1    1    2    0    0  0.11612012340E+03 -0.48736214646E+03  0.13769499925E+04  0.14745243391E+04  0.16500000000E+03 0.  0.
   -5000001    1    1    2    0    0 -0.11612012340E+03  0.48736214646E+03  0.23670612878E+04  0.24251205919E+04  0.16500000000E+03 0.  0.
<mgrwt>
<rscale>  0 0.10906925E+04</rscale>
<asrwt>0</asrwt>
<pdfrwt beam="1">  1        2 0.54597553E+00 0.10906925E+04</pdfrwt>
<pdfrwt beam="2">  1       -2 0.11116688E-01 0.10906925E+04</pdfrwt>
<totfact> 0.44732256E+01</totfact>
</mgrwt>
</event>
<event>
 4    1  0.1837449E-005  0.1211226E+04  0.7818608E-02  0.9103087E-01
         -2   -1    0    0    0  501 -0.00000000000E+00  0.00000000000E+00  0.34431526773E+03  0.34431526774E+03  0.25500000000E-02 0. -1.
          2   -1    0    0  501    0  0.00000000000E+00 -0.00000000000E+00 -0.10652075221E+04  0.10652075221E+04  0.25500000000E-02 0.  1.
    5000001    1    1    2    0    0 -0.31299190285E+03 -0.11035923078E+03  0.19692276926E+03  0.41969830607E+03  0.16500000000E+03 0.  0.
   -5000001    1    1    2    0    0  0.31299190285E+03  0.11035923078E+03 -0.91781502364E+03  0.98982448378E+03  0.16500000000E+03 0.  0.
<mgrwt>
<rscale>  0 0.12112262E+04</rscale>
<asrwt>0</asrwt>
<pdfrwt beam="1">  1        2 0.15217250E+00 0.12112262E+04</pdfrwt>
<pdfrwt beam="2">  1       -2 0.49187896E-01 0.12112262E+04</pdfrwt>
<totfact> 0.98876373E+01</totfact>
</mgrwt>
</event>
<event>
 4    1  0.1837449E-005  0.5601317E+03  0.7818608E-02  0.9991757E-01
          2   -1    0    0  501    0  0.00000000000E+00  0.00000000000E+00  0.33346088713E+04  0.33346088713E+04  0.25500000000E-02 0.  1.
         -2   -1    0    0    0  501 -0.00000000000E+00 -0.00000000000E+00 -0.23522061101E+02  0.23522061240E+02  0.25500000000E-02 0. -1.
    5000001    1    1    2    0    0 -0.78780597510E+02 -0.20852747731E+03  0.14216684126E+04  0.14484668331E+04  0.16500000000E+03 0.  0.
   -5000001    1    1    2    0    0  0.78780597510E+02  0.20852747731E+03  0.18894183977E+04  0.19096640995E+04  0.16500000000E+03 0.  0.
<mgrwt>
<rscale>  0 0.56013168E+03</rscale>
<asrwt>0</asrwt>
<pdfrwt beam="1">  1        2 0.47637304E+00 0.56013168E+03</pdfrwt>
<pdfrwt beam="2">  1       -2 0.33602920E-02 0.56013168E+03</pdfrwt>
<totfact> 0.62286724E+02</totfact>
</mgrwt>
</event>
<event>
 4    1  0.1837449E-005  0.5771084E+03  0.7818608E-02  0.9954071E-01
         -2   -1    0    0    0  501 -0.00000000000E+00  0.00000000000E+00  0.34313457014E+03  0.34313457015E+03  0.25500000000E-02 0.  1.
          2   -1    0    0  501    0  0.00000000000E+00 -0.00000000000E+00 -0.24265558037E+03  0.24265558039E+03  0.25500000000E-02 0. -1.
    5000001    1    1    2    0    0 -0.99942807161E+02 -0.11191189000E+03  0.23609417598E+03  0.32477422274E+03  0.16500000000E+03 0.  0.
   -5000001    1    1    2    0    0  0.99942807161E+02  0.11191189000E+03 -0.13561518622E+03  0.26101592779E+03  0.16500000000E+03 0.  0.
<mgrwt>
<rscale>  0 0.57710837E+03</rscale>
<asrwt>0</asrwt>
<pdfrwt beam="1">  1        2 0.34665083E-01 0.57710837E+03</pdfrwt>
<pdfrwt beam="2">  1       -2 0.49019224E-01 0.57710837E+03</pdfrwt>
<totfact> 0.59987079E+02</totfact>
</mgrwt>
</event>
<event>
 4    1  0.1837449E-005  0.7193384E+03  0.7818608E-02  0.9684721E-01
         -2   -1    0    0    0  501 -0.00000000000E+00  0.00000000000E+00  0.31687180595E+02  0.31687180697E+02  0.25500000000E-02 0. -1.
          2   -1    0    0  501    0  0.00000000000E+00 -0.00000000000E+00 -0.40824685300E+04  0.40824685300E+04  0.25500000000E-02 0.  1.
    5000001    1    1    2    0    0 -0.20993335019E+03 -0.24093538502E+03 -0.20032053665E+04  0.20352342891E+04  0.16500000000E+03 0.  0.
   -5000001    1    1    2    0    0  0.20993335019E+03  0.24093538502E+03 -0.20475759829E+04  0.20789214215E+04  0.16500000000E+03 0.  0.
<mgrwt>
<rscale>  0 0.71933836E+03</rscale>
<asrwt>0</asrwt>
<pdfrwt beam="1">  1        2 0.58320945E+00 0.71933836E+03</pdfrwt>
<pdfrwt beam="2">  1       -2 0.45267427E-02 0.71933836E+03</pdfrwt>
<totfact> 0.13171202E+02</totfact>
</mgrwt>
</event>
<event>
 4    1  0.1837449E-005  0.5343445E+03  0.7818608E-02  0.1005184E+00
          2   -1    0    0  501    0  0.00000000000E+00  0.00000000000E+00  0.16780703268E+03  0.16780703270E+03  0.25500000000E-02 0.  1.
         -2   -1    0    0    0  501 -0.00000000000E+00 -0.00000000000E+00 -0.42537560614E+03  0.42537560615E+03  0.25500000000E-02 0. -1.
    5000001    1    1    2    0    0 -0.13971573898E+03  0.15411318761E+03 -0.16180255288E+03  0.31092833327E+03  0.16500000000E+03 0.  0.
   -5000001    1    1    2    0    0  0.13971573898E+03 -0.15411318761E+03 -0.95766020581E+02  0.28225430557E+03  0.16500000000E+03 0.  0.
<mgrwt>
<rscale>  0 0.53434453E+03</rscale>
<asrwt>0</asrwt>
<pdfrwt beam="1">  1        2 0.23972433E-01 0.53434453E+03</pdfrwt>
<pdfrwt beam="2">  1       -2 0.60767943E-01 0.53434453E+03</pdfrwt>
<totfact> 0.58415075E+02</totfact>
</mgrwt>
</event>
<event>
 4    1  0.1837449E-005  0.4707530E+03  0.7818608E-02  0.1021708E+00
          2   -1    0    0  501    0  0.00000000000E+00  0.00000000000E+00  0.90360416327E+03  0.90360416328E+03  0.25500000000E-02 0.  1.
         -2   -1    0    0    0  501 -0.00000000000E+00 -0.00000000000E+00 -0.61312356870E+02  0.61312356923E+02  0.25500000000E-02 0. -1.
    5000001    1    1    2    0    0 -0.34286990938E+02  0.13662652012E+03  0.23401671110E+03  0.31911005127E+03  0.16500000000E+03 0.  0.
   -5000001    1    1    2    0    0  0.34286990938E+02 -0.13662652012E+03  0.60827509531E+03  0.64580646893E+03  0.16500000000E+03 0.  0.
<mgrwt>
<rscale>  0 0.47075302E+03</rscale>
<asrwt>0</asrwt>
<pdfrwt beam="1">  1        2 0.12908631E+00 0.47075302E+03</pdfrwt>
<pdfrwt beam="2">  1       -2 0.87589083E-02 0.47075302E+03</pdfrwt>
<totfact> 0.27464624E+03</totfact>
</mgrwt>
</event>
<event>
 4    1  0.1837449E-005  0.4756681E+03  0.7818608E-02  0.1020333E+00
          2   -1    0    0  501    0  0.00000000000E+00  0.00000000000E+00  0.62254763375E+03  0.62254763375E+03  0.25500000000E-02 0.  1.
         -2   -1    0    0    0  501 -0.00000000000E+00 -0.00000000000E+00 -0.90860569238E+02  0.90860569274E+02  0.25500000000E-02 0. -1.
    5000001    1    1    2    0    0 -0.13271660748E+03 -0.10805983340E+03  0.25530141412E+03  0.34884729832E+03  0.16500000000E+03 0.  0.
   -5000001    1    1    2    0    0  0.13271660748E+03  0.10805983340E+03  0.27638565039E+03  0.36456090471E+03  0.16500000000E+03 0.  0.
<mgrwt>
<rscale>  0 0.47566809E+03</rscale>
<asrwt>0</asrwt>
<pdfrwt beam="1">  1        2 0.88935381E-01 0.47566809E+03</pdfrwt>
<pdfrwt beam="2">  1       -2 0.12980081E-01 0.47566809E+03</pdfrwt>
<totfact> 0.23071557E+03</totfact>
</mgrwt>
</event>
<event>
 4    1  0.1837449E-005  0.4676358E+03  0.7818608E-02  0.1022590E+00
          2   -1    0    0  501    0  0.00000000000E+00  0.00000000000E+00  0.11174056727E+04  0.11174056727E+04  0.25500000000E-02 0.  1.
         -2   -1    0    0    0  501 -0.00000000000E+00 -0.00000000000E+00 -0.48926545158E+02  0.48926545225E+02  0.25500000000E-02 0. -1.
    5000001    1    1    2    0    0  0.10789025708E+03 -0.15153380317E+02  0.22296711971E+03  0.29800884044E+03  0.16500000000E+03 0.  0.
   -5000001    1    1    2    0    0 -0.10789025708E+03  0.15153380317E+02  0.84551200784E+03  0.86832337750E+03  0.16500000000E+03 0.  0.
<mgrwt>
<rscale>  0 0.46763575E+03</rscale>
<asrwt>0</asrwt>
<pdfrwt beam="1">  1        2 0.15962935E+00 0.46763575E+03</pdfrwt>
<pdfrwt beam="2">  1       -2 0.69895080E-02 0.46763575E+03</pdfrwt>
<totfact> 0.29183512E+03</totfact>
</mgrwt>
</event>
<event>
 4    1  0.1837449E-005  0.5008382E+03  0.7818608E-02  0.1013560E+00
         -2   -1    0    0    0  501 -0.00000000000E+00  0.00000000000E+00  0.83264793692E+02  0.83264793731E+02  0.25500000000E-02 0.  1.
          2   -1    0    0  501    0  0.00000000000E+00 -0.00000000000E+00 -0.75313609425E+03  0.75313609426E+03  0.25500000000E-02 0. -1.
    5000001    1    1    2    0    0 -0.12906993703E+03  0.12576891212E+03 -0.24334621054E+03  0.34484669940E+03  0.16500000000E+03 0.  0.
   -5000001    1    1    2    0    0  0.12906993703E+03 -0.12576891212E+03 -0.42652509002E+03  0.49155418859E+03  0.16500000000E+03 0.  0.
<mgrwt>
<rscale>  0 0.50083818E+03</rscale>
<asrwt>0</asrwt>
<pdfrwt beam="1">  1        2 0.10759087E+00 0.50083818E+03</pdfrwt>
<pdfrwt beam="2">  1       -2 0.11894971E-01 0.50083818E+03</pdfrwt>
<totfact> 0.21163579E+03</totfact>
</mgrwt>
</event>
<event>
 4    1  0.1837449E-005  0.3477637E+03  0.7818608E-02  0.1063537E+00
          2   -1    0    0  501    0  0.00000000000E+00  0.00000000000E+00  0.17275385339E+03  0.17275385341E+03  0.25500000000E-02 0.  1.
         -2   -1    0    0    0  501 -0.00000000000E+00 -0.00000000000E+00 -0.17501716985E+03  0.17501716987E+03  0.25500000000E-02 0. -1.
    5000001    1    1    2    0    0 -0.32296505765E+02 -0.17103171497E+02  0.39787514132E+02  0.17361920700E+03  0.16500000000E+03 0.  0.
   -5000001    1    1    2    0    0  0.32296505765E+02  0.17103171497E+02 -0.42050830594E+02  0.17415181628E+03  0.16500000000E+03 0.  0.
<mgrwt>
<rscale>  0 0.34776366E+03</rscale>
<asrwt>0</asrwt>
<pdfrwt beam="1">  1        2 0.24679122E-01 0.34776366E+03</pdfrwt>
<pdfrwt beam="2">  1       -2 0.25002453E-01 0.34776366E+03</pdfrwt>
<totfact> 0.31150332E+03</totfact>
</mgrwt>
</event>
<event>
 4    1  0.1837449E-005  0.4465210E+03  0.7818608E-02  0.1028765E+00
          2   -1    0    0  501    0  0.00000000000E+00  0.00000000000E+00  0.41804822572E+04  0.41804822572E+04  0.25500000000E-02 0.  1.
         -2   -1    0    0    0  501 -0.00000000000E+00 -0.00000000000E+00 -0.11923323081E+02  0.11923323354E+02  0.25500000000E-02 0. -1.
    5000001    1    1    2    0    0 -0.11355411492E+03 -0.95828938228E+02  0.23029694134E+04  0.23136488155E+04  0.16500000000E+03 0.  0.
   -5000001    1    1    2    0    0  0.11355411492E+03  0.95828938228E+02  0.18655895208E+04  0.18787567651E+04  0.16500000000E+03 0.  0.
<mgrwt>
<rscale>  0 0.44652096E+03</rscale>
<asrwt>0</asrwt>
<pdfrwt beam="1">  1        2 0.59721219E+00 0.44652096E+03</pdfrwt>
<pdfrwt beam="2">  1       -2 0.17033306E-02 0.44652096E+03</pdfrwt>
<totfact> 0.51725773E+02</totfact>
</mgrwt>
</event>
<event>
 4    1  0.1837449E-005  0.3595359E+03  0.7818608E-02  0.1058768E+00
         -2   -1    0    0    0  501 -0.00000000000E+00  0.00000000000E+00  0.98695156167E+01  0.98695159461E+01  0.25500000000E-02 0. -1.
          2   -1    0    0  501    0  0.00000000000E+00 -0.00000000000E+00 -0.32743765271E+04  0.32743765271E+04  0.25500000000E-02 0.  1.
    5000001    1    1    2    0    0 -0.46068482917E+02 -0.21185731812E+02 -0.20908446333E+04  0.20979579169E+04  0.16500000000E+03 0.  0.
   -5000001    1    1    2    0    0  0.46068482917E+02  0.21185731812E+02 -0.11736623782E+04  0.11862881262E+04  0.16500000000E+03 0.  0.
<mgrwt>
<rscale>  0 0.35953587E+03</rscale>
<asrwt>0</asrwt>
<pdfrwt beam="1">  1        2 0.46776738E+00 0.35953587E+03</pdfrwt>
<pdfrwt beam="2">  1       -2 0.14099329E-02 0.35953587E+03</pdfrwt>
<totfact> 0.25243608E+03</totfact>
</mgrwt>
</event>
<event>
 4    1  0.1837449E-005  0.8661979E+03  0.7818608E-02  0.9468851E-01
         -2   -1    0    0    0  501 -0.00000000000E+00  0.00000000000E+00  0.29281516288E+03  0.29281516290E+03  0.25500000000E-02 0. -1.
          2   -1    0    0  501    0  0.00000000000E+00 -0.00000000000E+00 -0.64059085993E+03  0.64059085994E+03  0.25500000000E-02 0.  1.
    5000001    1    1    2    0    0  0.30082725104E+02  0.38398790962E+03 -0.29192221130E+03  0.51068117503E+03  0.16500000000E+03 0.  0.
   -5000001    1    1    2    0    0 -0.30082725104E+02 -0.38398790962E+03 -0.55853485752E+02  0.42272484780E+03  0.16500000000E+03 0.  0.
<mgrwt>
<rscale>  0 0.86619794E+03</rscale>
<asrwt>0</asrwt>
<pdfrwt beam="1">  1        2 0.91512979E-01 0.86619794E+03</pdfrwt>
<pdfrwt beam="2">  1       -2 0.41830738E-01 0.86619794E+03</pdfrwt>
<totfact> 0.27248672E+02</totfact>
</mgrwt>
</event>
<event>
 4    1  0.1837449E-005  0.3822638E+03  0.7818608E-02  0.1050100E+00
          2   -1    0    0  501    0  0.00000000000E+00  0.00000000000E+00  0.28389621697E+04  0.28389621697E+04  0.25500000000E-02 0.  1.
         -2   -1    0    0    0  501 -0.00000000000E+00 -0.00000000000E+00 -0.12867873708E+02  0.12867873961E+02  0.25500000000E-02 0. -1.
    5000001    1    1    2    0    0 -0.25059641592E+02 -0.83892184549E+02  0.17152173078E+04  0.17253583098E+04  0.16500000000E+03 0.  0.
   -5000001    1    1    2    0    0  0.25059641592E+02  0.83892184549E+02  0.11108769882E+04  0.11264717339E+04  0.16500000000E+03 0.  0.
<mgrwt>
<rscale>  0 0.38226382E+03</rscale>
<asrwt>0</asrwt>
<pdfrwt beam="1">  1        2 0.40556586E+00 0.38226382E+03</pdfrwt>
<pdfrwt beam="2">  1       -2 0.18382684E-02 0.38226382E+03</pdfrwt>
<totfact> 0.29286106E+03</totfact>
</mgrwt>
</event>
<event>
 4    1  0.1837449E-005  0.6101305E+03  0.7818608E-02  0.9884609E-01
         -2   -1    0    0    0  501 -0.00000000000E+00  0.00000000000E+00  0.19921343454E+03  0.19921343456E+03  0.25500000000E-02 0. -1.
          2   -1    0    0  501    0  0.00000000000E+00 -0.00000000000E+00 -0.46716134584E+03  0.46716134585E+03  0.25500000000E-02 0.  1.
    5000001    1    1    2    0    0  0.25213264588E+03 -0.27768724685E+02 -0.91704277329E+02  0.31619084059E+03  0.16500000000E+03 0.  0.
   -5000001    1    1    2    0    0 -0.25213264588E+03  0.27768724685E+02 -0.17624363397E+03  0.35018393982E+03  0.16500000000E+03 0.  0.
<mgrwt>
<rscale>  0 0.61013053E+03</rscale>
<asrwt>0</asrwt>
<pdfrwt beam="1">  1        2 0.66737335E-01 0.61013053E+03</pdfrwt>
<pdfrwt beam="2">  1       -2 0.28459062E-01 0.61013053E+03</pdfrwt>
<totfact> 0.82330672E+02</totfact>
</mgrwt>
</event>
<event>
 4    1  0.1837449E-005  0.1293009E+04  0.7818608E-02  0.9035128E-01
         -2   -1    0    0    0  501 -0.00000000000E+00  0.00000000000E+00  0.21713804789E+03  0.21713804790E+03  0.25500000000E-02 0. -1.
          2   -1    0    0  501    0  0.00000000000E+00 -0.00000000000E+00 -0.19248950265E+04  0.19248950265E+04  0.25500000000E-02 0.  1.
    5000001    1    1    2    0    0  0.55118971252E+02 -0.56677428906E+03 -0.12809919436E+04  0.14115369479E+04  0.16500000000E+03 0.  0.
   -5000001    1    1    2    0    0 -0.55118971252E+02  0.56677428906E+03 -0.42676503504E+03  0.73049612653E+03  0.16500000000E+03 0.  0.
<mgrwt>
<rscale>  0 0.12930088E+04</rscale>
<asrwt>0</asrwt>
<pdfrwt beam="1">  1        2 0.27498499E+00 0.12930088E+04</pdfrwt>
<pdfrwt beam="2">  1       -2 0.31019722E-01 0.12930088E+04</pdfrwt>
<totfact> 0.82885527E+01</totfact>
</mgrwt>
</event>
<event>
 4    1  0.1837449E-005  0.4111400E+03  0.7818608E-02  0.1039989E+00
          2   -1    0    0  501    0  0.00000000000E+00  0.00000000000E+00  0.27590215370E+03  0.27590215371E+03  0.25500000000E-02 0.  1.
         -2   -1    0    0    0  501 -0.00000000000E+00 -0.00000000000E+00 -0.15316667765E+03  0.15316667767E+03  0.25500000000E-02 0. -1.
    5000001    1    1    2    0    0  0.25339517632E+02 -0.63101195037E+02 -0.45111778822E+02  0.18407586631E+03  0.16500000000E+03 0.  0.
   -5000001    1    1    2    0    0 -0.25339517632E+02  0.63101195037E+02  0.16784725487E+03  0.24499296508E+03  0.16500000000E+03 0.  0.
<mgrwt>
<rscale>  0 0.41113996E+03</rscale>
<asrwt>0</asrwt>
<pdfrwt beam="1">  1        2 0.39414593E-01 0.41113996E+03</pdfrwt>
<pdfrwt beam="2">  1       -2 0.21880954E-01 0.41113996E+03</pdfrwt>
<totfact> 0.23529298E+03</totfact>
</mgrwt>
</event>
<event>
 4    1  0.1837449E-005  0.6378911E+03  0.7818608E-02  0.9829770E-01
         -2   -1    0    0    0  501 -0.00000000000E+00  0.00000000000E+00  0.49472384720E+02  0.49472384785E+02  0.25500000000E-02 0. -1.
          2   -1    0    0  501    0  0.00000000000E+00 -0.00000000000E+00 -0.20562231061E+04  0.20562231061E+04  0.25500000000E-02 0.  1.
    5000001    1    1    2    0    0  0.76043110416E+01  0.21113939573E+03 -0.15738285905E+04  0.15964958823E+04  0.16500000000E+03 0.  0.
   -5000001    1    1    2    0    0 -0.76043110416E+01 -0.21113939573E+03 -0.43292213096E+03  0.50919960865E+03  0.16500000000E+03 0.  0.
<mgrwt>
<rscale>  0 0.63789109E+03</rscale>
<asrwt>0</asrwt>
<pdfrwt beam="1">  1        2 0.29374610E+00 0.63789109E+03</pdfrwt>
<pdfrwt beam="2">  1       -2 0.70674848E-02 0.63789109E+03</pdfrwt>
<totfact> 0.92457404E+02</totfact>
</mgrwt>
</event>
<event>
 4    1  0.1837449E-005  0.7102063E+03  0.7818608E-02  0.9699935E-01
          2   -1    0    0  501    0  0.00000000000E+00  0.00000000000E+00  0.12212775285E+04  0.12212775285E+04  0.25500000000E-02 0.  1.
         -2   -1    0    0    0  501 -0.00000000000E+00 -0.00000000000E+00 -0.10325111193E+03  0.10325111197E+03  0.25500000000E-02 0. -1.
    5000001    1    1    2    0    0 -0.27621771991E+03 -0.12436172791E+03  0.40174241060E+03  0.52951301460E+03  0.16500000000E+03 0.  0.
   -5000001    1    1    2    0    0  0.27621771991E+03  0.12436172791E+03  0.71628400595E+03  0.79501562584E+03  0.16500000000E+03 0.  0.
<mgrwt>
<rscale>  0 0.71020634E+03</rscale>
<asrwt>0</asrwt>
<pdfrwt beam="1">  1        2 0.17446821E+00 0.71020634E+03</pdfrwt>
<pdfrwt beam="2">  1       -2 0.14750160E-01 0.71020634E+03</pdfrwt>
<totfact> 0.75407936E+02</totfact>
</mgrwt>
</event>
<event>
 4    1  0.1837449E-005  0.8482589E+03  0.7818608E-02  0.9492677E-01
         -2   -1    0    0    0  501 -0.00000000000E+00  0.00000000000E+00  0.40225298284E+03  0.40225298285E+03  0.25500000000E-02 0. -1.
          2   -1    0    0  501    0  0.00000000000E+00 -0.00000000000E+00 -0.44719566999E+03  0.44719566999E+03  0.25500000000E-02 0.  1.
    5000001    1    1    2    0    0 -0.24148261613E+03  0.25898654260E+03 -0.18784808740E+03  0.43347409044E+03  0.16500000000E+03 0.  0.
   -5000001    1    1    2    0    0  0.24148261613E+03 -0.25898654260E+03  0.14290540026E+03  0.41597456240E+03  0.16500000000E+03 0.  0.
<mgrwt>
<rscale>  0 0.84825890E+03</rscale>
<asrwt>0</asrwt>
<pdfrwt beam="1">  1        2 0.63885096E-01 0.84825890E+03</pdfrwt>
<pdfrwt beam="2">  1       -2 0.57464712E-01 0.84825890E+03</pdfrwt>
<totfact> 0.21749943E+02</totfact>
</mgrwt>
</event>
<event>
 4    1  0.1837449E-005  0.6282370E+03  0.7818608E-02  0.9848495E-01
         -2   -1    0    0    0  501 -0.00000000000E+00  0.00000000000E+00  0.16083337204E+03  0.16083337206E+03  0.25500000000E-02 0. -1.
          2   -1    0    0  501    0  0.00000000000E+00 -0.00000000000E+00 -0.61349484214E+03  0.61349484215E+03  0.25500000000E-02 0.  1.
    5000001    1    1    2    0    0  0.26224753371E+03  0.12303294579E+02 -0.16445390903E+03  0.35099177795E+03  0.16500000000E+03 0.  0.
   -5000001    1    1    2    0    0 -0.26224753371E+03 -0.12303294579E+02 -0.28820756107E+03  0.42333643625E+03  0.16500000000E+03 0.  0.
<mgrwt>
<rscale>  0 0.62823704E+03</rscale>
<asrwt>0</asrwt>
<pdfrwt beam="1">  1        2 0.87642119E-01 0.62823704E+03</pdfrwt>
<pdfrwt beam="2">  1       -2 0.22976196E-01 0.62823704E+03</pdfrwt>
<totfact> 0.88415687E+02</totfact>
</mgrwt>
</event>
<event>
 4    1  0.1837449E-005  0.6479045E+03  0.7818608E-02  0.9810719E-01
         -2   -1    0    0    0  501 -0.00000000000E+00  0.00000000000E+00  0.10525603328E+03  0.10525603331E+03  0.25500000000E-02 0. -1.
          2   -1    0    0  501    0  0.00000000000E+00 -0.00000000000E+00 -0.99704540627E+03  0.99704540627E+03  0.25500000000E-02 0.  1.
    5000001    1    1    2    0    0  0.26617859808E+03 -0.32761960950E+02 -0.31637357186E+03  0.44636490580E+03  0.16500000000E+03 0.  0.
   -5000001    1    1    2    0    0 -0.26617859808E+03  0.32761960950E+02 -0.57541580113E+03  0.65593653378E+03  0.16500000000E+03 0.  0.
<mgrwt>
<rscale>  0 0.64790445E+03</rscale>
<asrwt>0</asrwt>
<pdfrwt beam="1">  1        2 0.14243505E+00 0.64790445E+03</pdfrwt>
<pdfrwt beam="2">  1       -2 0.15036577E-01 0.64790445E+03</pdfrwt>
<totfact> 0.98862771E+02</totfact>
</mgrwt>
</event>
<event>
 4    1  0.1837449E-005  0.4097329E+03  0.7818608E-02  0.1040461E+00
         -2   -1    0    0    0  501 -0.00000000000E+00  0.00000000000E+00  0.26873483992E+02  0.26873484113E+02  0.25500000000E-02 0. -1.
          2   -1    0    0  501    0  0.00000000000E+00 -0.00000000000E+00 -0.15617723410E+04  0.15617723410E+04  0.25500000000E-02 0.  1.
    5000001    1    1    2    0    0 -0.79416785166E+02 -0.46333927008E+02 -0.10749883446E+04  0.10914571909E+04  0.16500000000E+03 0.  0.
   -5000001    1    1    2    0    0  0.79416785166E+02  0.46333927008E+02 -0.45991051236E+03  0.49718863416E+03  0.16500000000E+03 0.  0.
<mgrwt>
<rscale>  0 0.40973291E+03</rscale>
<asrwt>0</asrwt>
<pdfrwt beam="1">  1        2 0.22311028E+00 0.40973291E+03</pdfrwt>
<pdfrwt beam="2">  1       -2 0.38390701E-02 0.40973291E+03</pdfrwt>
<totfact> 0.42561366E+03</totfact>
</mgrwt>
</event>
<event>
 4    1  0.1837449E-005  0.9592790E+03  0.7818608E-02  0.9354370E-01
          2   -1    0    0  501    0  0.00000000000E+00  0.00000000000E+00  0.29568844290E+04  0.29568844290E+04  0.25500000000E-02 0.  1.
         -2   -1    0    0    0  501 -0.00000000000E+00 -0.00000000000E+00 -0.77802854856E+02  0.77802854897E+02  0.25500000000E-02 0. -1.
    5000001    1    1    2    0    0  0.13606181505E+03  0.28030821490E+03  0.41082376880E+03  0.54137480719E+03  0.16500000000E+03 0.  0.
   -5000001    1    1    2    0    0 -0.13606181505E+03 -0.28030821490E+03  0.24682578053E+04  0.24933124767E+04  0.16500000000E+03 0.  0.
<mgrwt>
<rscale>  0 0.95927900E+03</rscale>
<asrwt>0</asrwt>
<pdfrwt beam="1">  1        2 0.42241203E+00 0.95927900E+03</pdfrwt>
<pdfrwt beam="2">  1       -2 0.11114694E-01 0.95927900E+03</pdfrwt>
<totfact> 0.14749157E+02</totfact>
</mgrwt>
</event>
<event>
 4    1  0.1837449E-005  0.6153281E+03  0.7818608E-02  0.9874106E-01
          2   -1    0    0  501    0  0.00000000000E+00  0.00000000000E+00  0.51235178005E+03  0.51235178006E+03  0.25500000000E-02 0.  1.
         -2   -1    0    0    0  501 -0.00000000000E+00 -0.00000000000E+00 -0.18475032406E+03  0.18475032408E+03  0.25500000000E-02 0. -1.
    5000001    1    1    2    0    0 -0.94736324583E+02 -0.24029091415E+03  0.13345557308E+03  0.33429041955E+03  0.16500000000E+03 0.  0.
   -5000001    1    1    2    0    0  0.94736324583E+02  0.24029091415E+03  0.19414588291E+03  0.36281168458E+03  0.16500000000E+03 0.  0.
<mgrwt>
<rscale>  0 0.61532807E+03</rscale>
<asrwt>0</asrwt>
<pdfrwt beam="1">  1        2 0.73193113E-01 0.61532807E+03</pdfrwt>
<pdfrwt beam="2">  1       -2 0.26392903E-01 0.61532807E+03</pdfrwt>
<totfact> 0.85039889E+02</totfact>
</mgrwt>
</event>
<event>
 4    1  0.1837449E-005  0.6130941E+03  0.7818608E-02  0.9878606E-01
          2   -1    0    0  501    0  0.00000000000E+00  0.00000000000E+00  0.32577843270E+04  0.32577843270E+04  0.25500000000E-02 0.  1.
         -2   -1    0    0    0  501 -0.00000000000E+00 -0.00000000000E+00 -0.28845089356E+02  0.28845089469E+02  0.25500000000E-02 0. -1.
    5000001    1    1    2    0    0 -0.23146311608E+03  0.10129021509E+03  0.13252288305E+04  0.13591509610E+04  0.16500000000E+03 0.  0.
   -5000001    1    1    2    0    0  0.23146311608E+03 -0.10129021509E+03  0.19037104072E+04  0.19274784554E+04  0.16500000000E+03 0.  0.
<mgrwt>
<rscale>  0 0.61309406E+03</rscale>
<asrwt>0</asrwt>
<pdfrwt beam="1">  1        2 0.46539778E+00 0.61309406E+03</pdfrwt>
<pdfrwt beam="2">  1       -2 0.41207269E-02 0.61309406E+03</pdfrwt>
<totfact> 0.50126569E+02</totfact>
</mgrwt>
</event>
<event>
 4    1  0.1837449E-005  0.4385547E+03  0.7818608E-02  0.1031191E+00
          2   -1    0    0  501    0  0.00000000000E+00  0.00000000000E+00  0.20486577567E+03  0.20486577569E+03  0.25500000000E-02 0.  1.
         -2   -1    0    0    0  501 -0.00000000000E+00 -0.00000000000E+00 -0.23470276831E+03  0.23470276832E+03  0.25500000000E-02 0. -1.
    5000001    1    1    2    0    0 -0.27015577738E+02  0.46068283412E+02  0.11957603493E+03  0.21065506476E+03  0.16500000000E+03 0.  0.
   -5000001    1    1    2    0    0  0.27015577738E+02 -0.46068283412E+02 -0.14941302757E+03  0.22891347926E+03  0.16500000000E+03 0.  0.
<mgrwt>
<rscale>  0 0.43855474E+03</rscale>
<asrwt>0</asrwt>
<pdfrwt beam="1">  1        2 0.29266539E-01 0.43855474E+03</pdfrwt>
<pdfrwt beam="2">  1       -2 0.33528967E-01 0.43855474E+03</pdfrwt>
<totfact> 0.15134482E+03</totfact>
</mgrwt>
</event>
<event>
 4    1  0.1837449E-005  0.4810769E+03  0.7818608E-02  0.1018840E+00
         -2   -1    0    0    0  501 -0.00000000000E+00  0.00000000000E+00  0.65678175263E+02  0.65678175312E+02  0.25500000000E-02 0. -1.
          2   -1    0    0  501    0  0.00000000000E+00 -0.00000000000E+00 -0.88094313390E+03  0.88094313390E+03  0.25500000000E-02 0.  1.
    5000001    1    1    2    0    0 -0.17364724989E+03  0.33839170692E+01 -0.36502254647E+03  0.43661341908E+03  0.16500000000E+03 0.  0.
   -5000001    1    1    2    0    0  0.17364724989E+03 -0.33839170692E+01 -0.45024241216E+03  0.51000789013E+03  0.16500000000E+03 0.  0.
<mgrwt>
<rscale>  0 0.48107687E+03</rscale>
<asrwt>0</asrwt>
<pdfrwt beam="1">  1        2 0.12584901E+00 0.48107687E+03</pdfrwt>
<pdfrwt beam="2">  1       -2 0.93825970E-02 0.48107687E+03</pdfrwt>
<totfact> 0.25444519E+03</totfact>
</mgrwt>
</event>
<event>
 4    1  0.1837449E-005  0.5090033E+03  0.7818608E-02  0.1011455E+00
          2   -1    0    0  501    0  0.00000000000E+00  0.00000000000E+00  0.44509394231E+03  0.44509394231E+03  0.25500000000E-02 0.  1.
         -2   -1    0    0    0  501 -0.00000000000E+00 -0.00000000000E+00 -0.14552226237E+03  0.14552226239E+03  0.25500000000E-02 0. -1.
    5000001    1    1    2    0    0  0.29767511225E+02 -0.18732221942E+03  0.19576745859E+03  0.31863084668E+03  0.16500000000E+03 0.  0.
   -5000001    1    1    2    0    0 -0.29767511225E+02  0.18732221942E+03  0.10380422135E+03  0.27198535803E+03  0.16500000000E+03 0.  0.
<mgrwt>
<rscale>  0 0.50900325E+03</rscale>
<asrwt>0</asrwt>
<pdfrwt beam="1">  1        2 0.63584850E-01 0.50900325E+03</pdfrwt>
<pdfrwt beam="2">  1       -2 0.20788894E-01 0.50900325E+03</pdfrwt>
<totfact> 0.15241648E+03</totfact>
</mgrwt>
</event>
<event>
 4    1  0.1837449E-005  0.3645376E+03  0.7818608E-02  0.1056801E+00
         -2   -1    0    0    0  501 -0.00000000000E+00  0.00000000000E+00  0.66009182902E+02  0.66009182951E+02  0.25500000000E-02 0. -1.
          2   -1    0    0  501    0  0.00000000000E+00 -0.00000000000E+00 -0.50329221265E+03  0.50329221266E+03  0.25500000000E-02 0.  1.
    5000001    1    1    2    0    0  0.88468805274E+01  0.28892662033E+02 -0.32999313135E+03  0.37018038840E+03  0.16500000000E+03 0.  0.
   -5000001    1    1    2    0    0 -0.88468805274E+01 -0.28892662033E+02 -0.10728989840E+03  0.19912100721E+03  0.16500000000E+03 0.  0.
<mgrwt>
<rscale>  0 0.36453756E+03</rscale>
<asrwt>0</asrwt>
<pdfrwt beam="1">  1        2 0.71898886E-01 0.36453756E+03</pdfrwt>
<pdfrwt beam="2">  1       -2 0.94298835E-02 0.36453756E+03</pdfrwt>
<totfact> 0.49213717E+03</totfact>
</mgrwt>
</event>
<event>
 4    1  0.1837449E-005  0.5223140E+03  0.7818608E-02  0.1008113E+00
          2   -1    0    0  501    0  0.00000000000E+00  0.00000000000E+00  0.71996825816E+03  0.71996825817E+03  0.25500000000E-02 0.  1.
         -2   -1    0    0    0  501 -0.00000000000E+00 -0.00000000000E+00 -0.94730530390E+02  0.94730530424E+02  0.25500000000E-02 0. -1.
    5000001    1    1    2    0    0  0.12050191429E+03  0.16024569319E+03  0.35614172524E+03  0.44075086159E+03  0.16500000000E+03 0.  0.
   -5000001    1    1    2    0    0 -0.12050191429E+03 -0.16024569319E+03  0.26909600253E+03  0.37394792700E+03  0.16500000000E+03 0.  0.
<mgrwt>
<rscale>  0 0.52231399E+03</rscale>
<asrwt>0</asrwt>
<pdfrwt beam="1">  1        2 0.10285261E+00 0.52231399E+03</pdfrwt>
<pdfrwt beam="2">  1       -2 0.13532933E-01 0.52231399E+03</pdfrwt>
<totfact> 0.18087137E+03</totfact>
</mgrwt>
</event>
<event>
 4    1  0.1837449E-005  0.5332384E+03  0.7818608E-02  0.1005450E+00
         -2   -1    0    0    0  501 -0.00000000000E+00  0.00000000000E+00  0.37200584656E+03  0.37200584657E+03  0.25500000000E-02 0. -1.
          2   -1    0    0  501    0  0.00000000000E+00 -0.00000000000E+00 -0.19108788263E+03  0.19108788265E+03  0.25500000000E-02 0.  1.
    5000001    1    1    2    0    0  0.18981395436E+03 -0.72616530651E+01  0.18359418918E+03  0.31147053661E+03  0.16500000000E+03 0.  0.
   -5000001    1    1    2    0    0 -0.18981395436E+03  0.72616530651E+01 -0.26762252566E+01  0.25162319260E+03  0.16500000000E+03 0.  0.
<mgrwt>
<rscale>  0 0.53323844E+03</rscale>
<asrwt>0</asrwt>
<pdfrwt beam="1">  1        2 0.27298269E-01 0.53323844E+03</pdfrwt>
<pdfrwt beam="2">  1       -2 0.53143692E-01 0.53323844E+03</pdfrwt>
<totfact> 0.66552316E+02</totfact>
</mgrwt>
</event>
<event>
 4    1  0.1837449E-005  0.5141648E+03  0.7818608E-02  0.1010146E+00
         -2   -1    0    0    0  501 -0.00000000000E+00  0.00000000000E+00  0.38879751079E+02  0.38879751163E+02  0.25500000000E-02 0. -1.
          2   -1    0    0  501    0  0.00000000000E+00 -0.00000000000E+00 -0.16998915728E+04  0.16998915728E+04  0.25500000000E-02 0.  1.
    5000001    1    1    2    0    0 -0.15153802998E+03  0.12570815930E+03 -0.79668083500E+03  0.83707327558E+03  0.16500000000E+03 0.  0.
   -5000001    1    1    2    0    0  0.15153802998E+03 -0.12570815930E+03 -0.86433098676E+03  0.90169804841E+03  0.16500000000E+03 0.  0.
<mgrwt>
<rscale>  0 0.51416480E+03</rscale>
<asrwt>0</asrwt>
<pdfrwt beam="1">  1        2 0.24284161E+00 0.51416480E+03</pdfrwt>
<pdfrwt beam="2">  1       -2 0.55542512E-02 0.51416480E+03</pdfrwt>
<totfact> 0.20505055E+03</totfact>
</mgrwt>
</event>
<event>
 4    1  0.1837449E-005  0.5053687E+03  0.7818608E-02  0.1012387E+00
         -2   -1    0    0    0  501 -0.00000000000E+00  0.00000000000E+00  0.88168004719E+02  0.88168004756E+02  0.25500000000E-02 0. -1.
          2   -1    0    0  501    0  0.00000000000E+00 -0.00000000000E+00 -0.72417862166E+03  0.72417862167E+03  0.25500000000E-02 0.  1.
    5000001    1    1    2    0    0  0.17054258063E+03 -0.20075308269E+02 -0.45379866858E+03  0.51249002080E+03  0.16500000000E+03 0.  0.
   -5000001    1    1    2    0    0 -0.17054258063E+03  0.20075308269E+02 -0.18221194836E+03  0.29985660562E+03  0.16500000000E+03 0.  0.
<mgrwt>
<rscale>  0 0.50536871E+03</rscale>
<asrwt>0</asrwt>
<pdfrwt beam="1">  1        2 0.10345409E+00 0.50536871E+03</pdfrwt>
<pdfrwt beam="2">  1       -2 0.12595430E-01 0.50536871E+03</pdfrwt>
<totfact> 0.20221908E+03</totfact>
</mgrwt>
</event>
<event>
 4    1  0.1837449E-005  0.5581751E+03  0.7818608E-02  0.9996192E-01
         -2   -1    0    0    0  501 -0.00000000000E+00  0.00000000000E+00  0.52653116561E+02  0.52653116623E+02  0.25500000000E-02 0. -1.
          2   -1    0    0  501    0  0.00000000000E+00 -0.00000000000E+00 -0.14793020698E+04  0.14793020699E+04  0.25500000000E-02 0.  1.
    5000001    1    1    2    0    0 -0.18500773240E+03  0.12749197493E+03 -0.75043211073E+03  0.80053445743E+03  0.16500000000E+03 0.  0.
   -5000001    1    1    2    0    0  0.18500773240E+03 -0.12749197493E+03 -0.67621684256E+03  0.73142072904E+03  0.16500000000E+03 0.  0.
<mgrwt>
<rscale>  0 0.55817511E+03</rscale>
<asrwt>0</asrwt>
<pdfrwt beam="1">  1        2 0.21132884E+00 0.55817511E+03</pdfrwt>
<pdfrwt beam="2">  1       -2 0.75218747E-02 0.55817511E+03</pdfrwt>
<totfact> 0.16511382E+03</totfact>
</mgrwt>
</event>
<event>
 4    1  0.1837449E-005  0.4866853E+03  0.7818608E-02  0.1017314E+00
          2   -1    0    0  501    0  0.00000000000E+00  0.00000000000E+00  0.18617896731E+04  0.18617896731E+04  0.25500000000E-02 0.  1.
         -2   -1    0    0    0  501 -0.00000000000E+00 -0.00000000000E+00 -0.31805761187E+02  0.31805761290E+02  0.25500000000E-02 0. -1.
    5000001    1    1    2    0    0 -0.29277952797E+02  0.17133546148E+03  0.75094964160E+03  0.78826607380E+03  0.16500000000E+03 0.  0.
   -5000001    1    1    2    0    0  0.29277952797E+02 -0.17133546148E+03  0.10790342703E+04  0.11053293606E+04  0.16500000000E+03 0.  0.
<mgrwt>
<rscale>  0 0.48668527E+03</rscale>
<asrwt>0</asrwt>
<pdfrwt beam="1">  1        2 0.26597002E+00 0.48668527E+03</pdfrwt>
<pdfrwt beam="2">  1       -2 0.45436790E-02 0.48668527E+03</pdfrwt>
<totfact> 0.23210010E+03</totfact>
</mgrwt>
</event>
<event>
 4    1  0.1837449E-005  0.3832111E+03  0.7818608E-02  0.1049753E+00
         -2   -1    0    0    0  501 -0.00000000000E+00  0.00000000000E+00  0.34105975317E+02  0.34105975412E+02  0.25500000000E-02 0. -1.
          2   -1    0    0  501    0  0.00000000000E+00 -0.00000000000E+00 -0.10764298642E+04  0.10764298642E+04  0.25500000000E-02 0.  1.
    5000001    1    1    2    0    0  0.79300280000E+02  0.25746439554E+02 -0.66710814994E+03  0.69224973620E+03  0.16500000000E+03 0.  0.
   -5000001    1    1    2    0    0 -0.79300280000E+02 -0.25746439554E+02 -0.37521573896E+03  0.41828610343E+03  0.16500000000E+03 0.  0.
<mgrwt>
<rscale>  0 0.38321112E+03</rscale>
<asrwt>0</asrwt>
<pdfrwt beam="1">  1        2 0.15377567E+00 0.38321112E+03</pdfrwt>
<pdfrwt beam="2">  1       -2 0.48722829E-02 0.38321112E+03</pdfrwt>
<totfact> 0.53829843E+03</totfact>
</mgrwt>
</event>
<event>
 4    1  0.1837449E-005  0.4755943E+03  0.7818608E-02  0.1020353E+00
         -2   -1    0    0    0  501 -0.00000000000E+00  0.00000000000E+00  0.71302217154E+02  0.71302217200E+02  0.25500000000E-02 0. -1.
          2   -1    0    0  501    0  0.00000000000E+00 -0.00000000000E+00 -0.79306773600E+03  0.79306773600E+03  0.25500000000E-02 0.  1.
    5000001    1    1    2    0    0  0.50180092895E+02 -0.16357919587E+03 -0.37324850298E+03  0.44251061007E+03  0.16500000000E+03 0.  0.
   -5000001    1    1    2    0    0 -0.50180092895E+02  0.16357919587E+03 -0.34851701586E+03  0.42185934314E+03  0.16500000000E+03 0.  0.
<mgrwt>
<rscale>  0 0.47559431E+03</rscale>
<asrwt>0</asrwt>
<pdfrwt beam="1">  1        2 0.11329539E+00 0.47559431E+03</pdfrwt>
<pdfrwt beam="2">  1       -2 0.10186031E-01 0.47559431E+03</pdfrwt>
<totfact> 0.25522649E+03</totfact>
</mgrwt>
</event>
<event>
 4    1  0.1837449E-005  0.3455420E+03  0.7818608E-02  0.1064460E+00
         -2   -1    0    0    0  501 -0.00000000000E+00  0.00000000000E+00  0.33632945272E+02  0.33632945369E+02  0.25500000000E-02 0. -1.
          2   -1    0    0  501    0  0.00000000000E+00 -0.00000000000E+00 -0.88751713274E+03  0.88751713274E+03  0.25500000000E-02 0.  1.
    5000001    1    1    2    0    0 -0.10860168187E+02 -0.48592656577E+02 -0.39477227992E+03  0.43075438770E+03  0.16500000000E+03 0.  0.
   -5000001    1    1    2    0    0  0.10860168187E+02  0.48592656577E+02 -0.45911190754E+03  0.49039569041E+03  0.16500000000E+03 0.  0.
<mgrwt>
<rscale>  0 0.34554198E+03</rscale>
<asrwt>0</asrwt>
<pdfrwt beam="1">  1        2 0.12678815E+00 0.34554198E+03</pdfrwt>
<pdfrwt beam="2">  1       -2 0.48047070E-02 0.34554198E+03</pdfrwt>
<totfact> 0.71390207E+03</totfact>
</mgrwt>
</event>
<event>
 4    1  0.1837449E-005  0.5929612E+03  0.7818608E-02  0.9920118E-01
         -2   -1    0    0    0  501 -0.00000000000E+00  0.00000000000E+00  0.19186546364E+03  0.19186546365E+03  0.25500000000E-02 0. -1.
          2   -1    0    0  501    0  0.00000000000E+00 -0.00000000000E+00 -0.45813744895E+03  0.45813744895E+03  0.25500000000E-02 0.  1.
    5000001    1    1    2    0    0  0.11791262849E+03  0.84724819656E+02  0.84988324947E+02  0.23564740270E+03  0.16500000000E+03 0.  0.
   -5000001    1    1    2    0    0 -0.11791262849E+03 -0.84724819656E+02 -0.35126031026E+03  0.41435550990E+03  0.16500000000E+03 0.  0.
<mgrwt>
<rscale>  0 0.59296123E+03</rscale>
<asrwt>0</asrwt>
<pdfrwt beam="1">  1        2 0.65448206E-01 0.59296123E+03</pdfrwt>
<pdfrwt beam="2">  1       -2 0.27409352E-01 0.59296123E+03</pdfrwt>
<totfact> 0.90160519E+02</totfact>
</mgrwt>
</event>
<event>
 4    1  0.1837449E-005  0.8689171E+03  0.7818608E-02  0.9465293E-01
         -2   -1    0    0    0  501 -0.00000000000E+00  0.00000000000E+00  0.12088457633E+03  0.12088457636E+03  0.25500000000E-02 0. -1.
          2   -1    0    0  501    0  0.00000000000E+00 -0.00000000000E+00 -0.15614418976E+04  0.15614418976E+04  0.25500000000E-02 0.  1.
    5000001    1    1    2    0    0 -0.32920725825E+03  0.18793918359E+03 -0.46174567769E+03  0.61978433869E+03  0.16500000000E+03 0.  0.
   -5000001    1    1    2    0    0  0.32920725825E+03 -0.18793918359E+03 -0.97881164353E+03  0.10625421352E+04  0.16500000000E+03 0.  0.
<mgrwt>
<rscale>  0 0.86891712E+03</rscale>
<asrwt>0</asrwt>
<pdfrwt beam="1">  1        2 0.22306312E+00 0.86891712E+03</pdfrwt>
<pdfrwt beam="2">  1       -2 0.17269226E-01 0.86891712E+03</pdfrwt>
<totfact> 0.37524635E+02</totfact>
</mgrwt>
</event>
<event>
 4    1  0.1837449E-005  0.5373146E+03  0.7818608E-02  0.1004473E+00
         -2   -1    0    0    0  501 -0.00000000000E+00  0.00000000000E+00  0.10017938866E+03  0.10017938869E+03  0.25500000000E-02 0. -1.
          2   -1    0    0  501    0  0.00000000000E+00 -0.00000000000E+00 -0.72047499519E+03  0.72047499520E+03  0.25500000000E-02 0.  1.
    5000001    1    1    2    0    0  0.77717884239E+02 -0.19636193685E+03 -0.28142495041E+03  0.38861688395E+03  0.16500000000E+03 0.  0.
   -5000001    1    1    2    0    0 -0.77717884239E+02  0.19636193685E+03 -0.33887065612E+03  0.43203749994E+03  0.16500000000E+03 0.  0.
<mgrwt>
<rscale>  0 0.53731460E+03</rscale>
<asrwt>0</asrwt>
<pdfrwt beam="1">  1        2 0.10292500E+00 0.53731460E+03</pdfrwt>
<pdfrwt beam="2">  1       -2 0.14311342E-01 0.53731460E+03</pdfrwt>
<totfact> 0.16463326E+03</totfact>
</mgrwt>
</event>
<event>
 4    1  0.1837449E-005  0.4043363E+03  0.7818608E-02  0.1042288E+00
          2   -1    0    0  501    0  0.00000000000E+00  0.00000000000E+00  0.93427685429E+03  0.93427685429E+03  0.25500000000E-02 0.  1.
         -2   -1    0    0    0  501 -0.00000000000E+00 -0.00000000000E+00 -0.43747163093E+02  0.43747163167E+02  0.25500000000E-02 0. -1.
    5000001    1    1    2    0    0  0.80698384528E+02  0.83480174165E+02  0.41411971511E+03  0.46065313109E+03  0.16500000000E+03 0.  0.
   -5000001    1    1    2    0    0 -0.80698384528E+02 -0.83480174165E+02  0.47640997609E+03  0.51737088637E+03  0.16500000000E+03 0.  0.
<mgrwt>
<rscale>  0 0.40433631E+03</rscale>
<asrwt>0</asrwt>
<pdfrwt beam="1">  1        2 0.13346812E+00 0.40433631E+03</pdfrwt>
<pdfrwt beam="2">  1       -2 0.62495949E-02 0.40433631E+03</pdfrwt>
<totfact> 0.44629612E+03</totfact>
</mgrwt>
</event>
<event>
 4    1  0.1837449E-005  0.4932575E+03  0.7818608E-02  0.1015554E+00
          2   -1    0    0  501    0  0.00000000000E+00  0.00000000000E+00  0.16312519471E+03  0.16312519473E+03  0.25500000000E-02 0.  1.
         -2   -1    0    0    0  501 -0.00000000000E+00 -0.00000000000E+00 -0.37287766258E+03  0.37287766259E+03  0.25500000000E-02 0. -1.
    5000001    1    1    2    0    0  0.15827156622E+03  0.90175162466E+02 -0.82625104280E+02  0.25929395762E+03  0.16500000000E+03 0.  0.
   -5000001    1    1    2    0    0 -0.15827156622E+03 -0.90175162466E+02 -0.12712736360E+03  0.27670889970E+03  0.16500000000E+03 0.  0.
<mgrwt>
<rscale>  0 0.49325750E+03</rscale>
<asrwt>0</asrwt>
<pdfrwt beam="1">  1        2 0.23303599E-01 0.49325750E+03</pdfrwt>
<pdfrwt beam="2">  1       -2 0.53268238E-01 0.49325750E+03</pdfrwt>
<totfact> 0.79315512E+02</totfact>
</mgrwt>
</event>
<event>
 4    1  0.1837449E-005  0.7932017E+03  0.7818608E-02  0.9569910E-01
         -2   -1    0    0    0  501 -0.00000000000E+00  0.00000000000E+00  0.13273320299E+04  0.13273320299E+04  0.25500000000E-02 0. -1.
          2   -1    0    0  501    0  0.00000000000E+00 -0.00000000000E+00 -0.11850254785E+03  0.11850254788E+03  0.25500000000E-02 0.  1.
    5000001    1    1    2    0    0  0.15986015300E+03 -0.21771822245E+02  0.16477640837E+02  0.23135642072E+03  0.16500000000E+03 0.  0.
   -5000001    1    1    2    0    0 -0.15986015300E+03  0.21771822245E+02  0.11923518412E+04  0.12144781571E+04  0.16500000000E+03 0.  0.
<mgrwt>
<rscale>  0 0.79320168E+03</rscale>
<asrwt>0</asrwt>
<pdfrwt beam="1">  1        2 0.16928935E-01 0.79320168E+03</pdfrwt>
<pdfrwt beam="2">  1       -2 0.18961887E+00 0.79320168E+03</pdfrwt>
<totfact> 0.54740119E+01</totfact>
</mgrwt>
</event>
<event>
 4    1  0.1837449E-005  0.7876497E+03  0.7818608E-02  0.9578068E-01
         -2   -1    0    0    0  501 -0.00000000000E+00  0.00000000000E+00  0.12520091319E+03  0.12520091322E+03  0.25500000000E-02 0. -1.
          2   -1    0    0  501    0  0.00000000000E+00 -0.00000000000E+00 -0.12387930779E+04  0.12387930779E+04  0.25500000000E-02 0.  1.
    5000001    1    1    2    0    0 -0.34278997054E+03 -0.66591212011E+02 -0.69019154795E+03  0.79090374021E+03  0.16500000000E+03 0.  0.
   -5000001    1    1    2    0    0  0.34278997054E+03  0.66591212011E+02 -0.42340061676E+03  0.57309025091E+03  0.16500000000E+03 0.  0.
<mgrwt>
<rscale>  0 0.78764973E+03</rscale>
<asrwt>0</asrwt>
<pdfrwt beam="1">  1        2 0.17697043E+00 0.78764973E+03</pdfrwt>
<pdfrwt beam="2">  1       -2 0.17885845E-01 0.78764973E+03</pdfrwt>
<totfact> 0.52901346E+02</totfact>
</mgrwt>
</event>
<event>
 4    1  0.1837449E-005  0.6157868E+03  0.7818608E-02  0.9873184E-01
          2   -1    0    0  501    0  0.00000000000E+00  0.00000000000E+00  0.23453449009E+04  0.23453449009E+04  0.25500000000E-02 0.  1.
         -2   -1    0    0    0  501 -0.00000000000E+00 -0.00000000000E+00 -0.40419791424E+02  0.40419791504E+02  0.25500000000E-02 0. -1.
    5000001    1    1    2    0    0 -0.12853959616E+03 -0.22454541655E+03  0.10551959047E+04  0.10989114929E+04  0.16500000000E+03 0.  0.
   -5000001    1    1    2    0    0  0.12853959616E+03  0.22454541655E+03  0.12497292047E+04  0.12868531994E+04  0.16500000000E+03 0.  0.
<mgrwt>
<rscale>  0 0.61578682E+03</rscale>
<asrwt>0</asrwt>
<pdfrwt beam="1">  1        2 0.33504945E+00 0.61578682E+03</pdfrwt>
<pdfrwt beam="2">  1       -2 0.57742528E-02 0.61578682E+03</pdfrwt>
<totfact> 0.90920450E+02</totfact>
</mgrwt>
</event>
<event>
 4    1  0.1837449E-005  0.6663367E+03  0.7818608E-02  0.9776598E-01
          2   -1    0    0  501    0  0.00000000000E+00  0.00000000000E+00  0.51993211889E+03  0.51993211889E+03  0.25500000000E-02 0.  1.
         -2   -1    0    0    0  501 -0.00000000000E+00 -0.00000000000E+00 -0.21349164892E+03  0.21349164893E+03  0.25500000000E-02 0. -1.
    5000001    1    1    2    0    0 -0.17160023404E+02  0.21238112188E+03  0.36884112306E+03  0.45680300064E+03  0.16500000000E+03 0.  0.
   -5000001    1    1    2    0    0  0.17160023404E+02 -0.21238112188E+03 -0.62400653093E+02  0.27662076719E+03  0.16500000000E+03 0.  0.
<mgrwt>
<rscale>  0 0.66633675E+03</rscale>
<asrwt>0</asrwt>
<pdfrwt beam="1">  1        2 0.74276018E-01 0.66633675E+03</pdfrwt>
<pdfrwt beam="2">  1       -2 0.30498807E-01 0.66633675E+03</pdfrwt>
<totfact> 0.64089192E+02</totfact>
</mgrwt>
</event>
<event>
 4    1  0.1837449E-005  0.4150024E+03  0.7818608E-02  0.1038705E+00
          2   -1    0    0  501    0  0.00000000000E+00  0.00000000000E+00  0.47936151228E+02  0.47936151296E+02  0.25500000000E-02 0.  1.
         -2   -1    0    0    0  501 -0.00000000000E+00 -0.00000000000E+00 -0.89821031367E+03  0.89821031367E+03  0.25500000000E-02 0. -1.
    5000001    1    1    2    0    0  0.21147861512E+02  0.11643580512E+03 -0.32768237783E+03  0.38549354016E+03  0.16500000000E+03 0.  0.
   -5000001    1    1    2    0    0 -0.21147861512E+02 -0.11643580512E+03 -0.52259178460E+03  0.56065292481E+03  0.16500000000E+03 0.  0.
<mgrwt>
<rscale>  0 0.41500239E+03</rscale>
<asrwt>0</asrwt>
<pdfrwt beam="1">  1        2 0.68480222E-02 0.41500239E+03</pdfrwt>
<pdfrwt beam="2">  1       -2 0.12831575E+00 0.41500239E+03</pdfrwt>
<totfact> 0.49238763E+02</totfact>
</mgrwt>
</event>
<event>
 4    1  0.1837449E-005  0.5831583E+03  0.7818608E-02  0.9940977E-01
         -2   -1    0    0    0  501 -0.00000000000E+00  0.00000000000E+00  0.57244523054E+02  0.57244523110E+02  0.25500000000E-02 0. -1.
          2   -1    0    0  501    0  0.00000000000E+00 -0.00000000000E+00 -0.14851797841E+04  0.14851797841E+04  0.25500000000E-02 0.  1.
    5000001    1    1    2    0    0  0.12629831796E+03 -0.59479666733E+02 -0.19631167361E+03  0.29198008335E+03  0.16500000000E+03 0.  0.
   -5000001    1    1    2    0    0 -0.12629831796E+03  0.59479666733E+02 -0.12316235874E+04  0.12504442238E+04  0.16500000000E+03 0.  0.
<mgrwt>
<rscale>  0 0.58315833E+03</rscale>
<asrwt>0</asrwt>
<pdfrwt beam="1">  1        2 0.21216852E+00 0.58315833E+03</pdfrwt>
<pdfrwt beam="2">  1       -2 0.81777900E-02 0.58315833E+03</pdfrwt>
<totfact> 0.14343000E+03</totfact>
</mgrwt>
</event>
<event>
 4    1  0.1837449E-005  0.4841516E+03  0.7818608E-02  0.1018000E+00
          2   -1    0    0  501    0  0.00000000000E+00  0.00000000000E+00  0.17377995517E+03  0.17377995519E+03  0.25500000000E-02 0.  1.
         -2   -1    0    0    0  501 -0.00000000000E+00 -0.00000000000E+00 -0.33721204473E+03  0.33721204474E+03  0.25500000000E-02 0. -1.
    5000001    1    1    2    0    0  0.87743694450E+02  0.14560964440E+03 -0.13421885614E+03  0.27228813012E+03  0.16500000000E+03 0.  0.
   -5000001    1    1    2    0    0 -0.87743694450E+02 -0.14560964440E+03 -0.29213233420E+02  0.23870386982E+03  0.16500000000E+03 0.  0.
<mgrwt>
<rscale>  0 0.48415160E+03</rscale>
<asrwt>0</asrwt>
<pdfrwt beam="1">  1        2 0.24825708E-01 0.48415160E+03</pdfrwt>
<pdfrwt beam="2">  1       -2 0.48173149E-01 0.48415160E+03</pdfrwt>
<totfact> 0.90436532E+02</totfact>
</mgrwt>
</event>
<event>
 4    1  0.1837449E-005  0.8380275E+03  0.7818608E-02  0.9506548E-01
         -2   -1    0    0    0  501 -0.00000000000E+00  0.00000000000E+00  0.11764390282E+03  0.11764390285E+03  0.25500000000E-02 0. -1.
          2   -1    0    0  501    0  0.00000000000E+00 -0.00000000000E+00 -0.14924063121E+04  0.14924063121E+04  0.25500000000E-02 0.  1.
    5000001    1    1    2    0    0  0.36150874948E+02 -0.32833881149E+03 -0.10679330304E+04  0.11299642553E+04  0.16500000000E+03 0.  0.
   -5000001    1    1    2    0    0 -0.36150874948E+02  0.32833881149E+03 -0.30682937886E+03  0.48008595962E+03  0.16500000000E+03 0.  0.
<mgrwt>
<rscale>  0 0.83802745E+03</rscale>
<asrwt>0</asrwt>
<pdfrwt beam="1">  1        2 0.21320089E+00 0.83802745E+03</pdfrwt>
<pdfrwt beam="2">  1       -2 0.16806273E-01 0.83802745E+03</pdfrwt>
<totfact> 0.42813431E+02</totfact>
</mgrwt>
</event>
<event>
 4    1  0.1837449E-005  0.6372031E+03  0.7818608E-02  0.9831092E-01
         -2   -1    0    0    0  501 -0.00000000000E+00  0.00000000000E+00  0.17153331675E+03  0.17153331677E+03  0.25500000000E-02 0. -1.
          2   -1    0    0  501    0  0.00000000000E+00 -0.00000000000E+00 -0.59176237082E+03  0.59176237082E+03  0.25500000000E-02 0.  1.
    5000001    1    1    2    0    0  0.15135052914E+03 -0.69834657227E+02 -0.46841934218E+03  0.52385641368E+03  0.16500000000E+03 0.  0.
   -5000001    1    1    2    0    0 -0.15135052914E+03  0.69834657227E+02  0.48190288120E+02  0.23943927391E+03  0.16500000000E+03 0.  0.
<mgrwt>
<rscale>  0 0.63720315E+03</rscale>
<asrwt>0</asrwt>
<pdfrwt beam="1">  1        2 0.84537481E-01 0.63720315E+03</pdfrwt>
<pdfrwt beam="2">  1       -2 0.24504760E-01 0.63720315E+03</pdfrwt>
<totfact> 0.82230796E+02</totfact>
</mgrwt>
</event>
<event>
 4    1  0.1837449E-005  0.3973214E+03  0.7818608E-02  0.1044711E+00
          2   -1    0    0  501    0  0.00000000000E+00  0.00000000000E+00  0.37410475719E+04  0.37410475719E+04  0.25500000000E-02 0.  1.
         -2   -1    0    0    0  501 -0.00000000000E+00 -0.00000000000E+00 -0.10549472664E+02  0.10549472972E+02  0.25500000000E-02 0. -1.
    5000001    1    1    2    0    0  0.55995601117E+02  0.95282826647E+02  0.19140894152E+04  0.19243642103E+04  0.16500000000E+03 0.  0.
   -5000001    1    1    2    0    0 -0.55995601117E+02 -0.95282826647E+02  0.18164086840E+04  0.18272328346E+04  0.16500000000E+03 0.  0.
<mgrwt>
<rscale>  0 0.39732143E+03</rscale>
<asrwt>0</asrwt>
<pdfrwt beam="1">  1        2 0.53443501E+00 0.39732143E+03</pdfrwt>
<pdfrwt beam="2">  1       -2 0.15070686E-02 0.39732143E+03</pdfrwt>
<totfact> 0.12118699E+03</totfact>
</mgrwt>
</event>
<event>
 4    1  0.1837449E-005  0.9142447E+03  0.7818608E-02  0.9407948E-01
         -2   -1    0    0    0  501 -0.00000000000E+00  0.00000000000E+00  0.10484354957E+03  0.10484354960E+03  0.25500000000E-02 0.  1.
          2   -1    0    0  501    0  0.00000000000E+00 -0.00000000000E+00 -0.19930727906E+04  0.19930727906E+04  0.25500000000E-02 0. -1.
    5000001    1    1    2    0    0 -0.31061337957E+03 -0.29100832882E+03 -0.99886649285E+03  0.10982375834E+04  0.16500000000E+03 0.  0.
   -5000001    1    1    2    0    0  0.31061337957E+03  0.29100832882E+03 -0.88936274817E+03  0.99967875682E+03  0.16500000000E+03 0.  0.
<mgrwt>
<rscale>  0 0.91424466E+03</rscale>
<asrwt>0</asrwt>
<pdfrwt beam="1">  1        2 0.28472466E+00 0.91424466E+03</pdfrwt>
<pdfrwt beam="2">  1       -2 0.14977651E-01 0.91424466E+03</pdfrwt>
<totfact> 0.28646156E+02</totfact>
</mgrwt>
</event>
<event>
 4    1  0.1837449E-005  0.4045355E+03  0.7818608E-02  0.1042220E+00
          2   -1    0    0  501    0  0.00000000000E+00  0.00000000000E+00  0.28690641026E+03  0.28690641028E+03  0.25500000000E-02 0.  1.
         -2   -1    0    0    0  501 -0.00000000000E+00 -0.00000000000E+00 -0.14259787544E+03  0.14259787546E+03  0.25500000000E-02 0. -1.
    5000001    1    1    2    0    0  0.10168353311E+03  0.12264836811E+02  0.12119751403E+02  0.19458123112E+03  0.16500000000E+03 0.  0.
   -5000001    1    1    2    0    0 -0.10168353311E+03 -0.12264836811E+02  0.13218878342E+03  0.23492305462E+03  0.16500000000E+03 0.  0.
<mgrwt>
<rscale>  0 0.40453551E+03</rscale>
<asrwt>0</asrwt>
<pdfrwt beam="1">  1        2 0.40986630E-01 0.40453551E+03</pdfrwt>
<pdfrwt beam="2">  1       -2 0.20371125E-01 0.40453551E+03</pdfrwt>
<totfact> 0.25524103E+03</totfact>
</mgrwt>
</event>
<event>
 4    1  0.1837449E-005  0.9076218E+03  0.7818608E-02  0.9416104E-01
         -2   -1    0    0    0  501 -0.00000000000E+00  0.00000000000E+00  0.63188832913E+03  0.63188832913E+03  0.25500000000E-02 0. -1.
          2   -1    0    0  501    0  0.00000000000E+00 -0.00000000000E+00 -0.32591884783E+03  0.32591884783E+03  0.25500000000E-02 0.  1.
    5000001    1    1    2    0    0 -0.31422944718E+03  0.26184456041E+03  0.40228258102E+02  0.44288376810E+03  0.16500000000E+03 0.  0.
   -5000001    1    1    2    0    0  0.31422944718E+03 -0.26184456041E+03  0.26574122320E+03  0.51492340887E+03  0.16500000000E+03 0.  0.
<mgrwt>
<rscale>  0 0.90762176E+03</rscale>
<asrwt>0</asrwt>
<pdfrwt beam="1">  1        2 0.46559835E-01 0.90762176E+03</pdfrwt>
<pdfrwt beam="2">  1       -2 0.90269763E-01 0.90762176E+03</pdfrwt>
<totfact> 0.11451520E+02</totfact>
</mgrwt>
</event>
<event>
 4    1  0.1837449E-005  0.6693372E+03  0.7818608E-02  0.9771156E-01
          2   -1    0    0  501    0  0.00000000000E+00  0.00000000000E+00  0.94633513986E+03  0.94633513986E+03  0.25500000000E-02 0.  1.
         -2   -1    0    0    0  501 -0.00000000000E+00 -0.00000000000E+00 -0.11835455356E+03  0.11835455359E+03  0.25500000000E-02 0. -1.
    5000001    1    1    2    0    0 -0.11767898393E+03 -0.25940332212E+03  0.50995414494E+03  0.60697335751E+03  0.16500000000E+03 0.  0.
   -5000001    1    1    2    0    0  0.11767898393E+03  0.25940332212E+03  0.31802644136E+03  0.45771633594E+03  0.16500000000E+03 0.  0.
<mgrwt>
<rscale>  0 0.66933720E+03</rscale>
<asrwt>0</asrwt>
<pdfrwt beam="1">  1        2 0.13519074E+00 0.66933720E+03</pdfrwt>
<pdfrwt beam="2">  1       -2 0.16907793E-01 0.66933720E+03</pdfrwt>
<totfact> 0.87051450E+02</totfact>
</mgrwt>
</event>
<event>
 4    1  0.1837449E-005  0.1001708E+04  0.7818608E-02  0.9306674E-01
          2   -1    0    0  501    0  0.00000000000E+00  0.00000000000E+00  0.18272694073E+04  0.18272694073E+04  0.25500000000E-02 0.  1.
         -2   -1    0    0    0  501 -0.00000000000E+00 -0.00000000000E+00 -0.13728388874E+03  0.13728388876E+03  0.25500000000E-02 0. -1.
    5000001    1    1    2    0    0  0.79869950235E+02 -0.39540974319E+03  0.36100206943E+03  0.56592894262E+03  0.16500000000E+03 0.  0.
   -5000001    1    1    2    0    0 -0.79869950235E+02  0.39540974319E+03  0.13289834491E+04  0.13986243534E+04  0.16500000000E+03 0.  0.
<mgrwt>
<rscale>  0 0.10017078E+04</rscale>
<asrwt>0</asrwt>
<pdfrwt beam="1">  1        2 0.26103847E+00 0.10017078E+04</pdfrwt>
<pdfrwt beam="2">  1       -2 0.19611986E-01 0.10017078E+04</pdfrwt>
<totfact> 0.21754940E+02</totfact>
</mgrwt>
</event>
<event>
 4    1  0.1837449E-005  0.8246242E+03  0.7818608E-02  0.9525043E-01
          2   -1    0    0  501    0  0.00000000000E+00  0.00000000000E+00  0.18381192625E+03  0.18381192627E+03  0.25500000000E-02 0.  1.
         -2   -1    0    0    0  501 -0.00000000000E+00 -0.00000000000E+00 -0.92486535067E+03  0.92486535068E+03  0.25500000000E-02 0. -1.
    5000001    1    1    2    0    0  0.97994519791E+02 -0.30846998705E+03 -0.63267857926E+03  0.72956414623E+03  0.16500000000E+03 0.  0.
   -5000001    1    1    2    0    0 -0.97994519791E+02  0.30846998705E+03 -0.10837484516E+03  0.37911313072E+03  0.16500000000E+03 0.  0.
<mgrwt>
<rscale>  0 0.82462423E+03</rscale>
<asrwt>0</asrwt>
<pdfrwt beam="1">  1        2 0.26258847E-01 0.82462423E+03</pdfrwt>
<pdfrwt beam="2">  1       -2 0.13212362E+00 0.82462423E+03</pdfrwt>
<totfact> 0.86911164E+01</totfact>
</mgrwt>
</event>
<event>
 4    1  0.1837449E-005  0.9413109E+03  0.7818608E-02  0.9375365E-01
          2   -1    0    0  501    0  0.00000000000E+00  0.00000000000E+00  0.13916587257E+04  0.13916587257E+04  0.25500000000E-02 0.  1.
         -2   -1    0    0    0  501 -0.00000000000E+00 -0.00000000000E+00 -0.15917446296E+03  0.15917446298E+03  0.25500000000E-02 0. -1.
    5000001    1    1    2    0    0  0.33745249505E+03  0.13081913311E+03  0.10307631553E+04  0.11048463759E+04  0.16500000000E+03 0.  0.
   -5000001    1    1    2    0    0 -0.33745249505E+03 -0.13081913311E+03  0.20172110747E+03  0.44598681281E+03  0.16500000000E+03 0.  0.
<mgrwt>
<rscale>  0 0.94131085E+03</rscale>
<asrwt>0</asrwt>
<pdfrwt beam="1">  1        2 0.19880838E+00 0.94131085E+03</pdfrwt>
<pdfrwt beam="2">  1       -2 0.22739210E-01 0.94131085E+03</pdfrwt>
<totfact> 0.28401447E+02</totfact>
</mgrwt>
</event>
<event>
 4    1  0.1837449E-005  0.1150759E+04  0.7818608E-02  0.9157084E-01
         -2   -1    0    0    0  501 -0.00000000000E+00  0.00000000000E+00  0.33467842149E+03  0.33467842150E+03  0.25500000000E-02 0.  1.
          2   -1    0    0  501    0  0.00000000000E+00 -0.00000000000E+00 -0.98919255805E+03  0.98919255806E+03  0.25500000000E-02 0. -1.
    5000001    1    1    2    0    0 -0.48409140890E+03 -0.21286878517E+03 -0.14837010569E+03  0.57349481265E+03  0.16500000000E+03 0.  0.
   -5000001    1    1    2    0    0  0.48409140890E+03  0.21286878517E+03 -0.50614403088E+03  0.75037616691E+03  0.16500000000E+03 0.  0.
<mgrwt>
<rscale>  0 0.11507587E+04</rscale>
<asrwt>0</asrwt>
<pdfrwt beam="1">  1        2 0.14131322E+00 0.11507587E+04</pdfrwt>
<pdfrwt beam="2">  1       -2 0.47811204E-01 0.11507587E+04</pdfrwt>
<totfact> 0.11699387E+02</totfact>
</mgrwt>
</event>
<event>
 4    1  0.1837449E-005  0.4132904E+03  0.7818608E-02  0.1039272E+00
          2   -1    0    0  501    0  0.00000000000E+00  0.00000000000E+00  0.63580482088E+03  0.63580482088E+03  0.25500000000E-02 0.  1.
         -2   -1    0    0    0  501 -0.00000000000E+00 -0.00000000000E+00 -0.67162505997E+02  0.67162506045E+02  0.25500000000E-02 0. -1.
    5000001    1    1    2    0    0 -0.41791511192E+02  0.68848670378E+02  0.12304375091E+03  0.22102360611E+03  0.16500000000E+03 0.  0.
   -5000001    1    1    2    0    0  0.41791511192E+02 -0.68848670378E+02  0.44559856398E+03  0.48194372082E+03  0.16500000000E+03 0.  0.
<mgrwt>
<rscale>  0 0.41329043E+03</rscale>
<asrwt>0</asrwt>
<pdfrwt beam="1">  1        2 0.90829260E-01 0.41329043E+03</pdfrwt>
<pdfrwt beam="2">  1       -2 0.95946438E-02 0.41329043E+03</pdfrwt>
<totfact> 0.36717804E+03</totfact>
</mgrwt>
</event>
<event>
 4    1  0.1837449E-005  0.5638879E+03  0.7818608E-02  0.9983296E-01
         -2   -1    0    0    0  501 -0.00000000000E+00  0.00000000000E+00  0.54237661984E+02  0.54237662044E+02  0.25500000000E-02 0. -1.
          2   -1    0    0  501    0  0.00000000000E+00 -0.00000000000E+00 -0.14656310651E+04  0.14656310651E+04  0.25500000000E-02 0.  1.
    5000001    1    1    2    0    0  0.54474197433E+02 -0.21211806763E+03 -0.88256284855E+03  0.92417730682E+03  0.16500000000E+03 0.  0.
   -5000001    1    1    2    0    0 -0.54474197433E+02  0.21211806763E+03 -0.52883055452E+03  0.59569142028E+03  0.16500000000E+03 0.  0.
<mgrwt>
<rscale>  0 0.56388794E+03</rscale>
<asrwt>0</asrwt>
<pdfrwt beam="1">  1        2 0.20937584E+00 0.56388794E+03</pdfrwt>
<pdfrwt beam="2">  1       -2 0.77482384E-02 0.56388794E+03</pdfrwt>
<totfact> 0.16011083E+03</totfact>
</mgrwt>
</event>
<event>
 4    1  0.1837449E-005  0.5344753E+03  0.7818608E-02  0.1005153E+00
          2   -1    0    0  501    0  0.00000000000E+00  0.00000000000E+00  0.14913731424E+04  0.14913731424E+04  0.25500000000E-02 0.  1.
         -2   -1    0    0    0  501 -0.00000000000E+00 -0.00000000000E+00 -0.47886053583E+02  0.47886053651E+02  0.25500000000E-02 0. -1.
    5000001    1    1    2    0    0 -0.17784591981E+03 -0.61801017714E+01  0.39945205626E+03  0.46739096065E+03  0.16500000000E+03 0.  0.
   -5000001    1    1    2    0    0  0.17784591981E+03  0.61801017714E+01  0.10440350325E+04  0.10718682354E+04  0.16500000000E+03 0.  0.
<mgrwt>
<rscale>  0 0.53447535E+03</rscale>
<asrwt>0</asrwt>
<pdfrwt beam="1">  1        2 0.21305326E+00 0.53447535E+03</pdfrwt>
<pdfrwt beam="2">  1       -2 0.68408664E-02 0.53447535E+03</pdfrwt>
<totfact> 0.18918257E+03</totfact>
</mgrwt>
</event>
<event>
 4    1  0.1837449E-005  0.3669063E+03  0.7818608E-02  0.1055882E+00
         -2   -1    0    0    0  501 -0.00000000000E+00  0.00000000000E+00  0.86545140118E+01  0.86545143875E+01  0.25500000000E-02 0. -1.
          2   -1    0    0  501    0  0.00000000000E+00 -0.00000000000E+00 -0.38887285321E+04  0.38887285321E+04  0.25500000000E-02 0.  1.
    5000001    1    1    2    0    0 -0.53714921747E+02  0.31457574579E+02 -0.24769810986E+04  0.24832509407E+04  0.16500000000E+03 0.  0.
   -5000001    1    1    2    0    0  0.53714921747E+02 -0.31457574579E+02 -0.14030929194E+04  0.14141321057E+04  0.16500000000E+03 0.  0.
<mgrwt>
<rscale>  0 0.36690629E+03</rscale>
<asrwt>0</asrwt>
<pdfrwt beam="1">  1        2 0.55553153E+00 0.36690629E+03</pdfrwt>
<pdfrwt beam="2">  1       -2 0.12363617E-02 0.36690629E+03</pdfrwt>
<totfact> 0.13160574E+03</totfact>
</mgrwt>
</event>
<event>
 4    1  0.1837449E-005  0.8760113E+03  0.7818608E-02  0.9456075E-01
         -2   -1    0    0    0  501 -0.00000000000E+00  0.00000000000E+00  0.57964208109E+03  0.57964208110E+03  0.25500000000E-02 0. -1.
          2   -1    0    0  501    0  0.00000000000E+00 -0.00000000000E+00 -0.33097830663E+03  0.33097830664E+03  0.25500000000E-02 0.  1.
    5000001    1    1    2    0    0  0.18512213664E+03  0.35483304461E+03  0.19365433484E+03  0.47424012528E+03  0.16500000000E+03 0.  0.
   -5000001    1    1    2    0    0 -0.18512213664E+03 -0.35483304461E+03  0.55009439620E+02  0.43638026246E+03  0.16500000000E+03 0.  0.
<mgrwt>
<rscale>  0 0.87601131E+03</rscale>
<asrwt>0</asrwt>
<pdfrwt beam="1">  1        2 0.47282616E-01 0.87601131E+03</pdfrwt>
<pdfrwt beam="2">  1       -2 0.82806011E-01 0.87601131E+03</pdfrwt>
<totfact> 0.13733102E+02</totfact>
</mgrwt>
</event>
<event>
 4    1  0.1837449E-005  0.5491672E+03  0.7818608E-02  0.1001687E+00
          2   -1    0    0  501    0  0.00000000000E+00  0.00000000000E+00  0.96866155669E+03  0.96866155669E+03  0.25500000000E-02 0.  1.
         -2   -1    0    0    0  501 -0.00000000000E+00 -0.00000000000E+00 -0.77835385620E+02  0.77835385662E+02  0.25500000000E-02 0. -1.
    5000001    1    1    2    0    0  0.47811828057E+02 -0.20552459302E+03  0.56045900904E+03  0.62118083523E+03  0.16500000000E+03 0.  0.
   -5000001    1    1    2    0    0 -0.47811828057E+02  0.20552459302E+03  0.33036716202E+03  0.42531610713E+03  0.16500000000E+03 0.  0.
<mgrwt>
<rscale>  0 0.54916717E+03</rscale>
<asrwt>0</asrwt>
<pdfrwt beam="1">  1        2 0.13838023E+00 0.54916717E+03</pdfrwt>
<pdfrwt beam="2">  1       -2 0.11119340E-01 0.54916717E+03</pdfrwt>
<totfact> 0.17009295E+03</totfact>
</mgrwt>
</event>
<event>
 4    1  0.1837449E-005  0.4877290E+03  0.7818608E-02  0.1017032E+00
          2   -1    0    0  501    0  0.00000000000E+00  0.00000000000E+00  0.10231799897E+04  0.10231799897E+04  0.25500000000E-02 0.  1.
         -2   -1    0    0    0  501 -0.00000000000E+00 -0.00000000000E+00 -0.58122616456E+02  0.58122616511E+02  0.25500000000E-02 0. -1.
    5000001    1    1    2    0    0 -0.51940992861E+02 -0.17096934198E+03  0.44308603070E+03  0.50544892248E+03  0.16500000000E+03 0.  0.
   -5000001    1    1    2    0    0  0.51940992861E+02  0.17096934198E+03  0.52197134258E+03  0.57585368376E+03  0.16500000000E+03 0.  0.
<mgrwt>
<rscale>  0 0.48772902E+03</rscale>
<asrwt>0</asrwt>
<pdfrwt beam="1">  1        2 0.14616857E+00 0.48772902E+03</pdfrwt>
<pdfrwt beam="2">  1       -2 0.83032310E-02 0.48772902E+03</pdfrwt>
<totfact> 0.25235422E+03</totfact>
</mgrwt>
</event>
<event>
 4    1  0.1837449E-005  0.4889616E+03  0.7818608E-02  0.1016701E+00
         -2   -1    0    0    0  501 -0.00000000000E+00  0.00000000000E+00  0.58137514330E+02  0.58137514386E+02  0.25500000000E-02 0. -1.
          2   -1    0    0  501    0  0.00000000000E+00 -0.00000000000E+00 -0.10280946389E+04  0.10280946389E+04  0.25500000000E-02 0.  1.
    5000001    1    1    2    0    0 -0.23327214467E+02  0.14776135147E+03 -0.26096626354E+03  0.34308303168E+03  0.16500000000E+03 0.  0.
   -5000001    1    1    2    0    0  0.23327214467E+02 -0.14776135147E+03 -0.70899086102E+03  0.74314912160E+03  0.16500000000E+03 0.  0.
<mgrwt>
<rscale>  0 0.48896162E+03</rscale>
<asrwt>0</asrwt>
<pdfrwt beam="1">  1        2 0.14687065E+00 0.48896162E+03</pdfrwt>
<pdfrwt beam="2">  1       -2 0.83053598E-02 0.48896162E+03</pdfrwt>
<totfact> 0.25055341E+03</totfact>
</mgrwt>
</event>
<event>
 4    1  0.1837449E-005  0.7957540E+03  0.7818608E-02  0.9566183E-01
          2   -1    0    0  501    0  0.00000000000E+00  0.00000000000E+00  0.63111430746E+03  0.63111430746E+03  0.25500000000E-02 0.  1.
         -2   -1    0    0    0  501 -0.00000000000E+00 -0.00000000000E+00 -0.25083585211E+03  0.25083585212E+03  0.25500000000E-02 0. -1.
    5000001    1    1    2    0    0 -0.21635242946E+03 -0.26099380579E+03  0.33100909371E+03  0.50171521854E+03  0.16500000000E+03 0.  0.
   -5000001    1    1    2    0    0  0.21635242946E+03  0.26099380579E+03  0.49269361632E+02  0.38023494104E+03  0.16500000000E+03 0.  0.
<mgrwt>
<rscale>  0 0.79575397E+03</rscale>
<asrwt>0</asrwt>
<pdfrwt beam="1">  1        2 0.90159185E-01 0.79575397E+03</pdfrwt>
<pdfrwt beam="2">  1       -2 0.35833694E-01 0.79575397E+03</pdfrwt>
<totfact> 0.37550172E+02</totfact>
</mgrwt>
</event>
<event>
 4    1  0.1837449E-005  0.6749226E+03  0.7818608E-02  0.9761106E-01
          2   -1    0    0  501    0  0.00000000000E+00  0.00000000000E+00  0.27066600325E+04  0.27066600325E+04  0.25500000000E-02 0.  1.
         -2   -1    0    0    0  501 -0.00000000000E+00 -0.00000000000E+00 -0.42074042852E+02  0.42074042930E+02  0.25500000000E-02 0. -1.
    5000001    1    1    2    0    0  0.29283155604E+03 -0.30057668634E+02  0.13370191254E+04  0.13789484854E+04  0.16500000000E+03 0.  0.
   -5000001    1    1    2    0    0 -0.29283155604E+03  0.30057668634E+02  0.13275668643E+04  0.13697855901E+04  0.16500000000E+03 0.  0.
<mgrwt>
<rscale>  0 0.67492260E+03</rscale>
<asrwt>0</asrwt>
<pdfrwt beam="1">  1        2 0.38666565E+00 0.67492260E+03</pdfrwt>
<pdfrwt beam="2">  1       -2 0.60105786E-02 0.67492260E+03</pdfrwt>
<totfact> 0.55334517E+02</totfact>
</mgrwt>
</event>
<event>
 4    1  0.1837449E-005  0.9432495E+03  0.7818608E-02  0.9373076E-01
          2   -1    0    0  501    0  0.00000000000E+00  0.00000000000E+00  0.58925882134E+03  0.58925882135E+03  0.25500000000E-02 0.  1.
         -2   -1    0    0    0  501 -0.00000000000E+00 -0.00000000000E+00 -0.37747405415E+03  0.37747405415E+03  0.25500000000E-02 0. -1.
    5000001    1    1    2    0    0 -0.16556969046E+03 -0.69534321872E+02  0.51962125926E+03  0.57400313361E+03  0.16500000000E+03 0.  0.
   -5000001    1    1    2    0    0  0.16556969046E+03  0.69534321872E+02 -0.30783649207E+03  0.39272974189E+03  0.16500000000E+03 0.  0.
<mgrwt>
<rscale>  0 0.94324952E+03</rscale>
<asrwt>0</asrwt>
<pdfrwt beam="1">  1        2 0.84179832E-01 0.94324952E+03</pdfrwt>
<pdfrwt beam="2">  1       -2 0.53924865E-01 0.94324952E+03</pdfrwt>
<totfact> 0.17979579E+02</totfact>
</mgrwt>
</event>
<event>
 4    1  0.1837449E-005  0.5610671E+03  0.7818608E-02  0.9989643E-01
          2   -1    0    0  501    0  0.00000000000E+00  0.00000000000E+00  0.10260869017E+04  0.10260869017E+04  0.25500000000E-02 0.  1.
         -2   -1    0    0    0  501 -0.00000000000E+00 -0.00000000000E+00 -0.76698243376E+02  0.76698243418E+02  0.25500000000E-02 0. -1.
    5000001    1    1    2    0    0  0.10686644650E+03 -0.13029731749E+03  0.77327287865E+03  0.80843909677E+03  0.16500000000E+03 0.  0.
   -5000001    1    1    2    0    0 -0.10686644650E+03  0.13029731749E+03  0.17611577969E+03  0.29434604836E+03  0.16500000000E+03 0.  0.
<mgrwt>
<rscale>  0 0.56106707E+03</rscale>
<asrwt>0</asrwt>
<pdfrwt beam="1">  1        2 0.14658384E+00 0.56106707E+03</pdfrwt>
<pdfrwt beam="2">  1       -2 0.10956892E-01 0.56106707E+03</pdfrwt>
<totfact> 0.16072923E+03</totfact>
</mgrwt>
</event>
<event>
 4    1  0.1837449E-005  0.5030810E+03  0.7818608E-02  0.1012978E+00
         -2   -1    0    0    0  501 -0.00000000000E+00  0.00000000000E+00  0.22505355017E+03  0.22505355018E+03  0.25500000000E-02 0. -1.
          2   -1    0    0  501    0  0.00000000000E+00 -0.00000000000E+00 -0.28114472908E+03  0.28114472909E+03  0.25500000000E-02 0.  1.
    5000001    1    1    2    0    0 -0.73582511445E+02  0.10158311863E+03  0.11536512235E+03  0.23720798350E+03  0.16500000000E+03 0.  0.
   -5000001    1    1    2    0    0  0.73582511445E+02 -0.10158311863E+03 -0.17145630126E+03  0.26899029578E+03  0.16500000000E+03 0.  0.
<mgrwt>
<rscale>  0 0.50308099E+03</rscale>
<asrwt>0</asrwt>
<pdfrwt beam="1">  1        2 0.40163532E-01 0.50308099E+03</pdfrwt>
<pdfrwt beam="2">  1       -2 0.32150507E-01 0.50308099E+03</pdfrwt>
<totfact> 0.11538490E+03</totfact>
</mgrwt>
</event>
<event>
 4    1  0.1837449E-005  0.1282569E+04  0.7818608E-02  0.9043504E-01
          2   -1    0    0  501    0  0.00000000000E+00  0.00000000000E+00  0.12044586347E+04  0.12044586347E+04  0.25500000000E-02 0.  1.
         -2   -1    0    0    0  501 -0.00000000000E+00 -0.00000000000E+00 -0.34143616481E+03  0.34143616482E+03  0.25500000000E-02 0. -1.
    5000001    1    1    2    0    0 -0.49905086469E+03 -0.32810311550E+03  0.23229796828E+03  0.66173315318E+03  0.16500000000E+03 0.  0.
   -5000001    1    1    2    0    0  0.49905086469E+03  0.32810311550E+03  0.63072450162E+03  0.88416164636E+03  0.16500000000E+03 0.  0.
<mgrwt>
<rscale>  0 0.12825689E+04</rscale>
<asrwt>0</asrwt>
<pdfrwt beam="1">  1        2 0.17206552E+00 0.12825689E+04</pdfrwt>
<pdfrwt beam="2">  1       -2 0.48776595E-01 0.12825689E+04</pdfrwt>
<totfact> 0.83006675E+01</totfact>
</mgrwt>
</event>
<event>
 4    1  0.1837449E-005  0.4095014E+03  0.7818608E-02  0.1040538E+00
         -2   -1    0    0    0  501 -0.00000000000E+00  0.00000000000E+00  0.20947431607E+03  0.20947431609E+03  0.25500000000E-02 0. -1.
          2   -1    0    0  501    0  0.00000000000E+00 -0.00000000000E+00 -0.20013363687E+03  0.20013363688E+03  0.25500000000E-02 0.  1.
    5000001    1    1    2    0    0 -0.92051599204E+02  0.63128061281E+02  0.52002915218E+02  0.20588334617E+03  0.16500000000E+03 0.  0.
   -5000001    1    1    2    0    0  0.92051599204E+02 -0.63128061281E+02 -0.42662236010E+02  0.20372460681E+03  0.16500000000E+03 0.  0.
<mgrwt>
<rscale>  0 0.40950144E+03</rscale>
<asrwt>0</asrwt>
<pdfrwt beam="1">  1        2 0.28590520E-01 0.40950144E+03</pdfrwt>
<pdfrwt beam="2">  1       -2 0.29924902E-01 0.40950144E+03</pdfrwt>
<totfact> 0.19159578E+03</totfact>
</mgrwt>
</event>
<event>
 4    1  0.1837449E-005  0.5580699E+03  0.7818608E-02  0.9996431E-01
         -2   -1    0    0    0  501 -0.00000000000E+00  0.00000000000E+00  0.13943871403E+03  0.13943871405E+03  0.25500000000E-02 0. -1.
          2   -1    0    0  501    0  0.00000000000E+00 -0.00000000000E+00 -0.55838515879E+03  0.55838515880E+03  0.25500000000E-02 0.  1.
    5000001    1    1    2    0    0  0.79520738885E+02  0.20297852301E+03 -0.27922489999E+03  0.39078814400E+03  0.16500000000E+03 0.  0.
   -5000001    1    1    2    0    0 -0.79520738885E+02 -0.20297852301E+03 -0.13972154477E+03  0.30703572885E+03  0.16500000000E+03 0.  0.
<mgrwt>
<rscale>  0 0.55806992E+03</rscale>
<asrwt>0</asrwt>
<pdfrwt beam="1">  1        2 0.79769307E-01 0.55806992E+03</pdfrwt>
<pdfrwt beam="2">  1       -2 0.19919817E-01 0.55806992E+03</pdfrwt>
<totfact> 0.12694561E+03</totfact>
</mgrwt>
</event>
<event>
 4    1  0.1837449E-005  0.3730013E+03  0.7818608E-02  0.1053551E+00
         -2   -1    0    0    0  501 -0.00000000000E+00  0.00000000000E+00  0.12000758852E+03  0.12000758855E+03  0.25500000000E-02 0. -1.
          2   -1    0    0  501    0  0.00000000000E+00 -0.00000000000E+00 -0.28983570957E+03  0.28983570958E+03  0.25500000000E-02 0.  1.
    5000001    1    1    2    0    0  0.50532133176E+02 -0.23372139729E+02 -0.15827493155E+03  0.23532043548E+03  0.16500000000E+03 0.  0.
   -5000001    1    1    2    0    0 -0.50532133176E+02  0.23372139729E+02 -0.11553189507E+02  0.17452286265E+03  0.16500000000E+03 0.  0.
<mgrwt>
<rscale>  0 0.37300126E+03</rscale>
<asrwt>0</asrwt>
<pdfrwt beam="1">  1        2 0.41405101E-01 0.37300126E+03</pdfrwt>
<pdfrwt beam="2">  1       -2 0.17143941E-01 0.37300126E+03</pdfrwt>
<totfact> 0.33849128E+03</totfact>
</mgrwt>
</event>
<event>
 4    1  0.1837449E-005  0.3854361E+03  0.7818608E-02  0.1048943E+00
          2   -1    0    0  501    0  0.00000000000E+00  0.00000000000E+00  0.13248301580E+04  0.13248301580E+04  0.25500000000E-02 0.  1.
         -2   -1    0    0    0  501 -0.00000000000E+00 -0.00000000000E+00 -0.28033962901E+02  0.28033963017E+02  0.25500000000E-02 0. -1.
    5000001    1    1    2    0    0 -0.69539803944E+02 -0.46734651185E+02  0.45953344235E+03  0.49539468769E+03  0.16500000000E+03 0.  0.
   -5000001    1    1    2    0    0  0.69539803944E+02  0.46734651185E+02  0.83726275276E+03  0.85746943334E+03  0.16500000000E+03 0.  0.
<mgrwt>
<rscale>  0 0.38543606E+03</rscale>
<asrwt>0</asrwt>
<pdfrwt beam="1">  1        2 0.18926143E+00 0.38543606E+03</pdfrwt>
<pdfrwt beam="2">  1       -2 0.40048523E-02 0.38543606E+03</pdfrwt>
<totfact> 0.52952625E+03</totfact>
</mgrwt>
</event>
<event>
 4    1  0.1837449E-005  0.3760700E+03  0.7818608E-02  0.1052396E+00
          2   -1    0    0  501    0  0.00000000000E+00  0.00000000000E+00  0.49480995465E+03  0.49480995466E+03  0.25500000000E-02 0.  1.
         -2   -1    0    0    0  501 -0.00000000000E+00 -0.00000000000E+00 -0.71456040366E+02  0.71456040412E+02  0.25500000000E-02 0. -1.
    5000001    1    1    2    0    0 -0.23987845058E+02 -0.86452777282E+02  0.22536689047E+03  0.29336791701E+03  0.16500000000E+03 0.  0.
   -5000001    1    1    2    0    0  0.23987845058E+02  0.86452777282E+02  0.19798702381E+03  0.27289807806E+03  0.16500000000E+03 0.  0.
<mgrwt>
<rscale>  0 0.37606999E+03</rscale>
<asrwt>0</asrwt>
<pdfrwt beam="1">  1        2 0.70687133E-01 0.37606999E+03</pdfrwt>
<pdfrwt beam="2">  1       -2 0.10208006E-01 0.37606999E+03</pdfrwt>
<totfact> 0.44215321E+03</totfact>
</mgrwt>
</event>
<event>
 4    1  0.1837449E-005  0.5527243E+03  0.7818608E-02  0.1000865E+00
          2   -1    0    0  501    0  0.00000000000E+00  0.00000000000E+00  0.22350979362E+03  0.22350979364E+03  0.25500000000E-02 0.  1.
         -2   -1    0    0    0  501 -0.00000000000E+00 -0.00000000000E+00 -0.34171220440E+03  0.34171220441E+03  0.25500000000E-02 0. -1.
    5000001    1    1    2    0    0 -0.21353176273E+03  0.44638891411E+02 -0.99524495891E+02  0.29106454543E+03  0.16500000000E+03 0.  0.
   -5000001    1    1    2    0    0  0.21353176273E+03 -0.44638891411E+02 -0.18677914887E+02  0.27415745262E+03  0.16500000000E+03 0.  0.
<mgrwt>
<rscale>  0 0.55272425E+03</rscale>
<asrwt>0</asrwt>
<pdfrwt beam="1">  1        2 0.31929971E-01 0.55272425E+03</pdfrwt>
<pdfrwt beam="2">  1       -2 0.48816029E-01 0.55272425E+03</pdfrwt>
<totfact> 0.66309489E+02</totfact>
</mgrwt>
</event>
<event>
 4    1  0.1837449E-005  0.4047456E+03  0.7818608E-02  0.1042149E+00
         -2   -1    0    0    0  501 -0.00000000000E+00  0.00000000000E+00  0.43320302937E+02  0.43320303012E+02  0.25500000000E-02 0. -1.
          2   -1    0    0  501    0  0.00000000000E+00 -0.00000000000E+00 -0.94539388821E+03  0.94539388822E+03  0.25500000000E-02 0.  1.
    5000001    1    1    2    0    0  0.49462216431E+02  0.45260955761E+02 -0.68578358689E+03  0.70853312768E+03  0.16500000000E+03 0.  0.
   -5000001    1    1    2    0    0 -0.49462216431E+02 -0.45260955761E+02 -0.21628999839E+03  0.28018106355E+03  0.16500000000E+03 0.  0.
<mgrwt>
<rscale>  0 0.40474560E+03</rscale>
<asrwt>0</asrwt>
<pdfrwt beam="1">  1        2 0.13505626E+00 0.40474560E+03</pdfrwt>
<pdfrwt beam="2">  1       -2 0.61886153E-02 0.40474560E+03</pdfrwt>
<totfact> 0.44601617E+03</totfact>
</mgrwt>
</event>
<event>
 4    1  0.1837449E-005  0.3848736E+03  0.7818608E-02  0.1049147E+00
         -2   -1    0    0    0  501 -0.00000000000E+00  0.00000000000E+00  0.11805537848E+03  0.11805537851E+03  0.25500000000E-02 0. -1.
          2   -1    0    0  501    0  0.00000000000E+00 -0.00000000000E+00 -0.31368257824E+03  0.31368257825E+03  0.25500000000E-02 0.  1.
    5000001    1    1    2    0    0  0.48668740863E+02  0.83290256882E+02 -0.72705028812E+02  0.20449189334E+03  0.16500000000E+03 0.  0.
   -5000001    1    1    2    0    0 -0.48668740863E+02 -0.83290256882E+02 -0.12292217094E+03  0.22724606342E+03  0.16500000000E+03 0.  0.
<mgrwt>
<rscale>  0 0.38487357E+03</rscale>
<asrwt>0</asrwt>
<pdfrwt beam="1">  1        2 0.44811797E-01 0.38487357E+03</pdfrwt>
<pdfrwt beam="2">  1       -2 0.16865054E-01 0.38487357E+03</pdfrwt>
<totfact> 0.31951871E+03</totfact>
</mgrwt>
</event>
<event>
 4    1  0.1837449E-005  0.7494986E+03  0.7818608E-02  0.9636137E-01
          2   -1    0    0  501    0  0.00000000000E+00  0.00000000000E+00  0.30653509090E+03  0.30653509091E+03  0.25500000000E-02 0.  1.
         -2   -1    0    0    0  501 -0.00000000000E+00 -0.00000000000E+00 -0.45814337175E+03  0.45814337175E+03  0.25500000000E-02 0. -1.
    5000001    1    1    2    0    0 -0.28507500633E+03  0.12641276322E+03  0.53103876749E+02  0.35678140039E+03  0.16500000000E+03 0.  0.
   -5000001    1    1    2    0    0  0.28507500633E+03 -0.12641276322E+03 -0.20471215760E+03  0.40789706227E+03  0.16500000000E+03 0.  0.
<mgrwt>
<rscale>  0 0.74949855E+03</rscale>
<asrwt>0</asrwt>
<pdfrwt beam="1">  1        2 0.43790727E-01 0.74949855E+03</pdfrwt>
<pdfrwt beam="2">  1       -2 0.65449053E-01 0.74949855E+03</pdfrwt>
<totfact> 0.25254197E+02</totfact>
</mgrwt>
</event>
<event>
 4    1  0.1837449E-005  0.3666638E+03  0.7818608E-02  0.1055976E+00
          2   -1    0    0  501    0  0.00000000000E+00  0.00000000000E+00  0.34331178591E+03  0.34331178592E+03  0.25500000000E-02 0.  1.
         -2   -1    0    0    0  501 -0.00000000000E+00 -0.00000000000E+00 -0.97901075192E+02  0.97901075225E+02  0.25500000000E-02 0. -1.
    5000001    1    1    2    0    0 -0.56486564555E+02  0.47386406381E+02  0.15978215931E+03  0.24122923106E+03  0.16500000000E+03 0.  0.
   -5000001    1    1    2    0    0  0.56486564555E+02 -0.47386406381E+02  0.85628551408E+02  0.19998363008E+03  0.16500000000E+03 0.  0.
<mgrwt>
<rscale>  0 0.36666384E+03</rscale>
<asrwt>0</asrwt>
<pdfrwt beam="1">  1        2 0.49044540E-01 0.36666384E+03</pdfrwt>
<pdfrwt beam="2">  1       -2 0.13985868E-01 0.36666384E+03</pdfrwt>
<totfact> 0.39550296E+03</totfact>
</mgrwt>
</event>
<event>
 4    1  0.1837449E-005  0.5003277E+03  0.7818608E-02  0.1013693E+00
         -2   -1    0    0    0  501 -0.00000000000E+00  0.00000000000E+00  0.26272080856E+02  0.26272080979E+02  0.25500000000E-02 0. -1.
          2   -1    0    0  501    0  0.00000000000E+00 -0.00000000000E+00 -0.23820705962E+04  0.23820705962E+04  0.25500000000E-02 0.  1.
    5000001    1    1    2    0    0  0.13760143719E+03  0.73784890343E+02 -0.16822549623E+04  0.16975232322E+04  0.16500000000E+03 0.  0.
   -5000001    1    1    2    0    0 -0.13760143719E+03 -0.73784890343E+02 -0.67354355300E+03  0.71081944497E+03  0.16500000000E+03 0.  0.
<mgrwt>
<rscale>  0 0.50032770E+03</rscale>
<asrwt>0</asrwt>
<pdfrwt beam="1">  1        2 0.34029566E+00 0.50032770E+03</pdfrwt>
<pdfrwt beam="2">  1       -2 0.37531559E-02 0.50032770E+03</pdfrwt>
<totfact> 0.17067731E+03</totfact>
</mgrwt>
</event>
<event>
 4    1  0.1837449E-005  0.4073176E+03  0.7818608E-02  0.1041275E+00
          2   -1    0    0  501    0  0.00000000000E+00  0.00000000000E+00  0.85474573569E+03  0.85474573570E+03  0.25500000000E-02 0.  1.
         -2   -1    0    0    0  501 -0.00000000000E+00 -0.00000000000E+00 -0.48525434814E+02  0.48525434881E+02  0.25500000000E-02 0. -1.
    5000001    1    1    2    0    0  0.39209321752E+02 -0.51636396443E+02  0.62540506899E+03  0.65004629733E+03  0.16500000000E+03 0.  0.
   -5000001    1    1    2    0    0 -0.39209321752E+02  0.51636396443E+02  0.18081523189E+03  0.25322487325E+03  0.16500000000E+03 0.  0.
<mgrwt>
<rscale>  0 0.40731761E+03</rscale>
<asrwt>0</asrwt>
<pdfrwt beam="1">  1        2 0.12210653E+00 0.40731761E+03</pdfrwt>
<pdfrwt beam="2">  1       -2 0.69322050E-02 0.40731761E+03</pdfrwt>
<totfact> 0.42681728E+03</totfact>
</mgrwt>
</event>
<event>
 4    1  0.1837449E-005  0.4290855E+03  0.7818608E-02  0.1034149E+00
         -2   -1    0    0    0  501 -0.00000000000E+00  0.00000000000E+00  0.10885209738E+03  0.10885209741E+03  0.25500000000E-02 0. -1.
          2   -1    0    0  501    0  0.00000000000E+00 -0.00000000000E+00 -0.42285444689E+03  0.42285444690E+03  0.25500000000E-02 0.  1.
    5000001    1    1    2    0    0  0.12202474522E+03 -0.62235518226E+02 -0.16486719678E+03  0.27049859658E+03  0.16500000000E+03 0.  0.
   -5000001    1    1    2    0    0 -0.12202474522E+03  0.62235518226E+02 -0.14913515273E+03  0.26120794773E+03  0.16500000000E+03 0.  0.
<mgrwt>
<rscale>  0 0.42908551E+03</rscale>
<asrwt>0</asrwt>
<pdfrwt beam="1">  1        2 0.60407777E-01 0.42908551E+03</pdfrwt>
<pdfrwt beam="2">  1       -2 0.15550300E-01 0.42908551E+03</pdfrwt>
<totfact> 0.26465287E+03</totfact>
</mgrwt>
</event>
<event>
 4    1  0.1837449E-005  0.9033502E+03  0.7818608E-02  0.9421403E-01
          2   -1    0    0  501    0  0.00000000000E+00  0.00000000000E+00  0.17687608091E+04  0.17687608091E+04  0.25500000000E-02 0.  1.
         -2   -1    0    0    0  501 -0.00000000000E+00 -0.00000000000E+00 -0.11534085831E+03  0.11534085834E+03  0.25500000000E-02 0. -1.
    5000001    1    1    2    0    0 -0.39882610121E+03 -0.69596402070E+02  0.59001054104E+03  0.73433191182E+03  0.16500000000E+03 0.  0.
   -5000001    1    1    2    0    0  0.39882610121E+03  0.69596402070E+02  0.10634094097E+04  0.11497697556E+04  0.16500000000E+03 0.  0.
<mgrwt>
<rscale>  0 0.90335019E+03</rscale>
<asrwt>0</asrwt>
<pdfrwt beam="1">  1        2 0.25268011E+00 0.90335019E+03</pdfrwt>
<pdfrwt beam="2">  1       -2 0.16477266E-01 0.90335019E+03</pdfrwt>
<totfact> 0.31711938E+02</totfact>
</mgrwt>
</event>
<event>
 4    1  0.1837449E-005  0.4414978E+03  0.7818608E-02  0.1030288E+00
         -2   -1    0    0    0  501 -0.00000000000E+00  0.00000000000E+00  0.12088131856E+03  0.12088131859E+03  0.25500000000E-02 0. -1.
          2   -1    0    0  501    0  0.00000000000E+00 -0.00000000000E+00 -0.40312332778E+03  0.40312332779E+03  0.25500000000E-02 0.  1.
    5000001    1    1    2    0    0 -0.12656119219E+03 -0.72976270351E+02 -0.12602345058E+03  0.25387040296E+03  0.16500000000E+03 0.  0.
   -5000001    1    1    2    0    0  0.12656119219E+03  0.72976270351E+02 -0.15621855863E+03  0.27013424341E+03  0.16500000000E+03 0.  0.
<mgrwt>
<rscale>  0 0.44149781E+03</rscale>
<asrwt>0</asrwt>
<pdfrwt beam="1">  1        2 0.57589046E-01 0.44149781E+03</pdfrwt>
<pdfrwt beam="2">  1       -2 0.17268760E-01 0.44149781E+03</pdfrwt>
<totfact> 0.23381769E+03</totfact>
</mgrwt>
</event>
<event>
 4    1  0.1837449E-005  0.5117413E+03  0.7818608E-02  0.1010759E+00
         -2   -1    0    0    0  501 -0.00000000000E+00  0.00000000000E+00  0.41855209682E+02  0.41855209760E+02  0.25500000000E-02 0. -1.
          2   -1    0    0  501    0  0.00000000000E+00 -0.00000000000E+00 -0.15641966218E+04  0.15641966218E+04  0.25500000000E-02 0.  1.
    5000001    1    1    2    0    0  0.75735482216E+02  0.16516077685E+03 -0.53418708410E+03  0.58787310391E+03  0.16500000000E+03 0.  0.
   -5000001    1    1    2    0    0 -0.75735482216E+02 -0.16516077685E+03 -0.98815432805E+03  0.10181787277E+04  0.16500000000E+03 0.  0.
<mgrwt>
<rscale>  0 0.51174125E+03</rscale>
<asrwt>0</asrwt>
<pdfrwt beam="1">  1        2 0.22345662E+00 0.51174125E+03</pdfrwt>
<pdfrwt beam="2">  1       -2 0.59793167E-02 0.51174125E+03</pdfrwt>
<totfact> 0.21435365E+03</totfact>
</mgrwt>
</event>
<event>
 4    1  0.1837449E-005  0.1004776E+04  0.7818608E-02  0.9303322E-01
         -2   -1    0    0    0  501 -0.00000000000E+00  0.00000000000E+00  0.55863177541E+03  0.55863177542E+03  0.25500000000E-02 0. -1.
          2   -1    0    0  501    0  0.00000000000E+00 -0.00000000000E+00 -0.45180678285E+03  0.45180678286E+03  0.25500000000E-02 0.  1.
    5000001    1    1    2    0    0 -0.26629859156E+03  0.35443566549E+03  0.22356727485E+03  0.52320828283E+03  0.16500000000E+03 0.  0.
   -5000001    1    1    2    0    0  0.26629859156E+03 -0.35443566549E+03 -0.11674228229E+03  0.48723027545E+03  0.16500000000E+03 0.  0.
<mgrwt>
<rscale>  0 0.10047758E+04</rscale>
<asrwt>0</asrwt>
<pdfrwt beam="1">  1        2 0.64543827E-01 0.10047758E+04</pdfrwt>
<pdfrwt beam="2">  1       -2 0.79804539E-01 0.10047758E+04</pdfrwt>
<totfact> 0.10468197E+02</totfact>
</mgrwt>
</event>
<event>
 4    1  0.1837449E-005  0.4468476E+03  0.7818608E-02  0.1028666E+00
          2   -1    0    0  501    0  0.00000000000E+00  0.00000000000E+00  0.31706991658E+04  0.31706991658E+04  0.25500000000E-02 0.  1.
         -2   -1    0    0    0  501 -0.00000000000E+00 -0.00000000000E+00 -0.15743593888E+02  0.15743594095E+02  0.25500000000E-02 0. -1.
    5000001    1    1    2    0    0  0.27778396827E+02 -0.13962274362E+03  0.19287841925E+04  0.19410563132E+04  0.16500000000E+03 0.  0.
   -5000001    1    1    2    0    0 -0.27778396827E+02  0.13962274362E+03  0.12261713795E+04  0.12453864467E+04  0.16500000000E+03 0.  0.
<mgrwt>
<rscale>  0 0.44684763E+03</rscale>
<asrwt>0</asrwt>
<pdfrwt beam="1">  1        2 0.45295718E+00 0.44684763E+03</pdfrwt>
<pdfrwt beam="2">  1       -2 0.22490841E-02 0.44684763E+03</pdfrwt>
<totfact> 0.14297146E+03</totfact>
</mgrwt>
</event>
<event>
 4    1  0.1837449E-005  0.6575839E+03  0.7818608E-02  0.9792652E-01
          2   -1    0    0  501    0  0.00000000000E+00  0.00000000000E+00  0.92153862873E+03  0.92153862873E+03  0.25500000000E-02 0.  1.
         -2   -1    0    0    0  501 -0.00000000000E+00 -0.00000000000E+00 -0.11730830537E+03  0.11730830540E+03  0.25500000000E-02 0. -1.
    5000001    1    1    2    0    0  0.10546421977E+03 -0.23625152986E+03  0.21558139127E+03  0.37501709731E+03  0.16500000000E+03 0.  0.
   -5000001    1    1    2    0    0 -0.10546421977E+03  0.23625152986E+03  0.58864893209E+03  0.66382983683E+03  0.16500000000E+03 0.  0.
<mgrwt>
<rscale>  0 0.65758387E+03</rscale>
<asrwt>0</asrwt>
<pdfrwt beam="1">  1        2 0.13164838E+00 0.65758387E+03</pdfrwt>
<pdfrwt beam="2">  1       -2 0.16758329E-01 0.65758387E+03</pdfrwt>
<totfact> 0.91670942E+02</totfact>
</mgrwt>
</event>
<event>
 4    1  0.1837449E-005  0.7139896E+03  0.7818608E-02  0.9693603E-01
          2   -1    0    0  501    0  0.00000000000E+00  0.00000000000E+00  0.17254173500E+04  0.17254173500E+04  0.25500000000E-02 0.  1.
         -2   -1    0    0    0  501 -0.00000000000E+00 -0.00000000000E+00 -0.73863459709E+02  0.73863459753E+02  0.25500000000E-02 0. -1.
    5000001    1    1    2    0    0 -0.29138835558E+03 -0.61022221092E+02  0.10970693949E+04  0.11486588452E+04  0.16500000000E+03 0.  0.
   -5000001    1    1    2    0    0  0.29138835558E+03  0.61022221092E+02  0.55448449533E+03  0.65062196458E+03  0.16500000000E+03 0.  0.
<mgrwt>
<rscale>  0 0.71398962E+03</rscale>
<asrwt>0</asrwt>
<pdfrwt beam="1">  1        2 0.24648817E+00 0.71398962E+03</pdfrwt>
<pdfrwt beam="2">  1       -2 0.10551924E-01 0.71398962E+03</pdfrwt>
<totfact> 0.71060664E+02</totfact>
</mgrwt>
</event>
<event>
 4    1  0.1837449E-005  0.7587754E+03  0.7818608E-02  0.9621683E-01
         -2   -1    0    0    0  501 -0.00000000000E+00  0.00000000000E+00  0.81349652447E+03  0.81349652447E+03  0.25500000000E-02 0. -1.
          2   -1    0    0  501    0  0.00000000000E+00 -0.00000000000E+00 -0.17693380567E+03  0.17693380569E+03  0.25500000000E-02 0.  1.
    5000001    1    1    2    0    0 -0.19296330824E+02 -0.28238981856E+03  0.68584139870E+02  0.33473144795E+03  0.16500000000E+03 0.  0.
   -5000001    1    1    2    0    0  0.19296330824E+02  0.28238981856E+03  0.56797857893E+03  0.65569888221E+03  0.16500000000E+03 0.  0.
<mgrwt>
<rscale>  0 0.75877542E+03</rscale>
<asrwt>0</asrwt>
<pdfrwt beam="1">  1        2 0.25276258E-01 0.75877542E+03</pdfrwt>
<pdfrwt beam="2">  1       -2 0.11621379E+00 0.75877542E+03</pdfrwt>
<totfact> 0.12546555E+02</totfact>
</mgrwt>
</event>
<event>
 4    1  0.1837449E-005  0.4568505E+03  0.7818608E-02  0.1025699E+00
          2   -1    0    0  501    0  0.00000000000E+00  0.00000000000E+00  0.82998268560E+03  0.82998268561E+03  0.25500000000E-02 0.  1.
         -2   -1    0    0    0  501 -0.00000000000E+00 -0.00000000000E+00 -0.62866482883E+02  0.62866482935E+02  0.25500000000E-02 0. -1.
    5000001    1    1    2    0    0  0.13663509266E+03 -0.77741515216E+02  0.35326867583E+03  0.42040058166E+03  0.16500000000E+03 0.  0.
   -5000001    1    1    2    0    0 -0.13663509266E+03  0.77741515216E+02  0.41384752689E+03  0.47244858688E+03  0.16500000000E+03 0.  0.
<mgrwt>
<rscale>  0 0.45685049E+03</rscale>
<asrwt>0</asrwt>
<pdfrwt beam="1">  1        2 0.11856896E+00 0.45685049E+03</pdfrwt>
<pdfrwt beam="2">  1       -2 0.89809261E-02 0.45685049E+03</pdfrwt>
<totfact> 0.29477599E+03</totfact>
</mgrwt>
</event>
<event>
 4    1  0.1837449E-005  0.3860091E+03  0.7818608E-02  0.1048735E+00
          2   -1    0    0  501    0  0.00000000000E+00  0.00000000000E+00  0.18363249590E+04  0.18363249590E+04  0.25500000000E-02 0.  1.
         -2   -1    0    0    0  501 -0.00000000000E+00 -0.00000000000E+00 -0.20285495169E+02  0.20285495329E+02  0.25500000000E-02 0. -1.
    5000001    1    1    2    0    0  0.70774598238E+02  0.43678113286E+02  0.63983788145E+03  0.66598373545E+03  0.16500000000E+03 0.  0.
   -5000001    1    1    2    0    0 -0.70774598238E+02 -0.43678113286E+02  0.11762015824E+04  0.11906267189E+04  0.16500000000E+03 0.  0.
<mgrwt>
<rscale>  0 0.38600913E+03</rscale>
<asrwt>0</asrwt>
<pdfrwt beam="1">  1        2 0.26233217E+00 0.38600913E+03</pdfrwt>
<pdfrwt beam="2">  1       -2 0.28979276E-02 0.38600913E+03</pdfrwt>
<totfact> 0.47405271E+03</totfact>
</mgrwt>
</event>
<event>
 4    1  0.1837449E-005  0.5270941E+03  0.7818608E-02  0.1006939E+00
         -2   -1    0    0    0  501 -0.00000000000E+00  0.00000000000E+00  0.10460838811E+03  0.10460838814E+03  0.25500000000E-02 0. -1.
          2   -1    0    0  501    0  0.00000000000E+00 -0.00000000000E+00 -0.66397206840E+03  0.66397206840E+03  0.25500000000E-02 0.  1.
    5000001    1    1    2    0    0 -0.18345717296E+03 -0.92183313810E+02 -0.29253920279E+03  0.39364766330E+03  0.16500000000E+03 0.  0.
   -5000001    1    1    2    0    0  0.18345717296E+03  0.92183313810E+02 -0.26682447750E+03  0.37493279324E+03  0.16500000000E+03 0.  0.
<mgrwt>
<rscale>  0 0.52709410E+03</rscale>
<asrwt>0</asrwt>
<pdfrwt beam="1">  1        2 0.94853150E-01 0.52709410E+03</pdfrwt>
<pdfrwt beam="2">  1       -2 0.14944056E-01 0.52709410E+03</pdfrwt>
<totfact> 0.16910146E+03</totfact>
</mgrwt>
</event>
<event>
 4    1  0.1837449E-005  0.8046663E+03  0.7818608E-02  0.9553287E-01
         -2   -1    0    0    0  501 -0.00000000000E+00  0.00000000000E+00  0.19171553981E+03  0.19171553983E+03  0.25500000000E-02 0.  1.
          2   -1    0    0  501    0  0.00000000000E+00 -0.00000000000E+00 -0.84433407269E+03  0.84433407269E+03  0.25500000000E-02 0. -1.
    5000001    1    1    2    0    0  0.34247228056E+03  0.12940972692E+03 -0.35818292913E+03  0.53810236117E+03  0.16500000000E+03 0.  0.
   -5000001    1    1    2    0    0 -0.34247228056E+03 -0.12940972692E+03 -0.29443560375E+03  0.49794725135E+03  0.16500000000E+03 0.  0.
<mgrwt>
<rscale>  0 0.80466630E+03</rscale>
<asrwt>0</asrwt>
<pdfrwt beam="1">  1        2 0.12061915E+00 0.80466630E+03</pdfrwt>
<pdfrwt beam="2">  1       -2 0.27387935E-01 0.80466630E+03</pdfrwt>
<totfact> 0.43088793E+02</totfact>
</mgrwt>
</event>
<event>
 4    1  0.1837449E-005  0.3980483E+03  0.7818608E-02  0.1044458E+00
         -2   -1    0    0    0  501 -0.00000000000E+00  0.00000000000E+00  0.62694905855E+02  0.62694905906E+02  0.25500000000E-02 0. -1.
          2   -1    0    0  501    0  0.00000000000E+00 -0.00000000000E+00 -0.63179943761E+03  0.63179943762E+03  0.25500000000E-02 0.  1.
    5000001    1    1    2    0    0  0.60811690872E+02  0.92802885996E+02 -0.26942529317E+03  0.33485134910E+03  0.16500000000E+03 0.  0.
   -5000001    1    1    2    0    0 -0.60811690872E+02 -0.92802885996E+02 -0.29967923858E+03  0.35964299442E+03  0.16500000000E+03 0.  0.
<mgrwt>
<rscale>  0 0.39804827E+03</rscale>
<asrwt>0</asrwt>
<pdfrwt beam="1">  1        2 0.90257058E-01 0.39804827E+03</pdfrwt>
<pdfrwt beam="2">  1       -2 0.89564155E-02 0.39804827E+03</pdfrwt>
<totfact> 0.41261492E+03</totfact>
</mgrwt>
</event>
<event>
 4    1  0.1837449E-005  0.4839058E+03  0.7818608E-02  0.1018067E+00
          2   -1    0    0  501    0  0.00000000000E+00  0.00000000000E+00  0.23741025110E+04  0.23741025110E+04  0.25500000000E-02 0.  1.
         -2   -1    0    0    0  501 -0.00000000000E+00 -0.00000000000E+00 -0.24658245194E+02  0.24658245326E+02  0.25500000000E-02 0. -1.
    5000001    1    1    2    0    0  0.34598698854E+02  0.15381265454E+03  0.77627633772E+03  0.80912629124E+03  0.16500000000E+03 0.  0.
   -5000001    1    1    2    0    0 -0.34598698854E+02 -0.15381265454E+03  0.15731679281E+04  0.15896344651E+04  0.16500000000E+03 0.  0.
<mgrwt>
<rscale>  0 0.48390578E+03</rscale>
<asrwt>0</asrwt>
<pdfrwt beam="1">  1        2 0.33915754E+00 0.48390578E+03</pdfrwt>
<pdfrwt beam="2">  1       -2 0.35226060E-02 0.48390578E+03</pdfrwt>
<totfact> 0.18991622E+03</totfact>
</mgrwt>
</event>
<event>
 4    1  0.1837449E-005  0.4325108E+03  0.7818608E-02  0.1033070E+00
         -2   -1    0    0    0  501 -0.00000000000E+00  0.00000000000E+00  0.38921973941E+02  0.38921974024E+02  0.25500000000E-02 0. -1.
          2   -1    0    0  501    0  0.00000000000E+00 -0.00000000000E+00 -0.12015422220E+04  0.12015422220E+04  0.25500000000E-02 0.  1.
    5000001    1    1    2    0    0  0.79991649954E+02 -0.15493876080E+01 -0.91007880104E+03  0.92836926315E+03  0.16500000000E+03 0.  0.
   -5000001    1    1    2    0    0 -0.79991649954E+02  0.15493876080E+01 -0.25254144703E+03  0.31209493289E+03  0.16500000000E+03 0.  0.
<mgrwt>
<rscale>  0 0.43251079E+03</rscale>
<asrwt>0</asrwt>
<pdfrwt beam="1">  1        2 0.17164887E+00 0.43251079E+03</pdfrwt>
<pdfrwt beam="2">  1       -2 0.55602827E-02 0.43251079E+03</pdfrwt>
<totfact> 0.37375236E+03</totfact>
</mgrwt>
</event>
<event>
 4    1  0.1837449E-005  0.5679957E+03  0.7818608E-02  0.9974124E-01
          2   -1    0    0  501    0  0.00000000000E+00  0.00000000000E+00  0.31172540053E+03  0.31172540054E+03  0.25500000000E-02 0.  1.
         -2   -1    0    0    0  501 -0.00000000000E+00 -0.00000000000E+00 -0.25873659415E+03  0.25873659417E+03  0.25500000000E-02 0. -1.
    5000001    1    1    2    0    0 -0.13003277349E+03  0.77691059858E+02  0.20185307877E+03  0.30151963182E+03  0.16500000000E+03 0.  0.
   -5000001    1    1    2    0    0  0.13003277349E+03 -0.77691059858E+02 -0.14886427239E+03  0.26894236289E+03  0.16500000000E+03 0.  0.
<mgrwt>
<rscale>  0 0.56799566E+03</rscale>
<asrwt>0</asrwt>
<pdfrwt beam="1">  1        2 0.44532200E-01 0.56799566E+03</pdfrwt>
<pdfrwt beam="2">  1       -2 0.36962370E-01 0.56799566E+03</pdfrwt>
<totfact> 0.79151473E+02</totfact>
</mgrwt>
</event>
<event>
 4    1  0.1837449E-005  0.6978666E+03  0.7818608E-02  0.9720887E-01
          2   -1    0    0  501    0  0.00000000000E+00  0.00000000000E+00  0.14263535864E+03  0.14263535867E+03  0.25500000000E-02 0.  1.
         -2   -1    0    0    0  501 -0.00000000000E+00 -0.00000000000E+00 -0.85360643680E+03  0.85360643680E+03  0.25500000000E-02 0. -1.
    5000001    1    1    2    0    0 -0.76476311488E+02 -0.28486419357E+03 -0.47938881800E+03  0.58654486087E+03  0.16500000000E+03 0.  0.
   -5000001    1    1    2    0    0  0.76476311488E+02  0.28486419357E+03 -0.23158226016E+03  0.40969693459E+03  0.16500000000E+03 0.  0.
<mgrwt>
<rscale>  0 0.69786664E+03</rscale>
<asrwt>0</asrwt>
<pdfrwt beam="1">  1        2 0.20376480E-01 0.69786664E+03</pdfrwt>
<pdfrwt beam="2">  1       -2 0.12194377E+00 0.69786664E+03</pdfrwt>
<totfact> 0.14339080E+02</totfact>
</mgrwt>
</event>
<event>
 4    1  0.1837449E-005  0.4646338E+03  0.7818608E-02  0.1023446E+00
         -2   -1    0    0    0  501 -0.00000000000E+00  0.00000000000E+00  0.56090856215E+02  0.56090856273E+02  0.25500000000E-02 0. -1.
          2   -1    0    0  501    0  0.00000000000E+00 -0.00000000000E+00 -0.96220938242E+03  0.96220938243E+03  0.25500000000E-02 0.  1.
    5000001    1    1    2    0    0  0.14740646983E+03 -0.30248929634E+02 -0.59343382683E+03  0.63406022735E+03  0.16500000000E+03 0.  0.
   -5000001    1    1    2    0    0 -0.14740646983E+03  0.30248929634E+02 -0.31268469938E+03  0.38424001135E+03  0.16500000000E+03 0.  0.
<mgrwt>
<rscale>  0 0.46463383E+03</rscale>
<asrwt>0</asrwt>
<pdfrwt beam="1">  1        2 0.13745847E+00 0.46463383E+03</pdfrwt>
<pdfrwt beam="2">  1       -2 0.80129800E-02 0.46463383E+03</pdfrwt>
<totfact> 0.29071470E+03</totfact>
</mgrwt>
</event>
<event>
 4    1  0.1837449E-005  0.4258679E+03  0.7818608E-02  0.1035173E+00
          2   -1    0    0  501    0  0.00000000000E+00  0.00000000000E+00  0.15189938144E+04  0.15189938144E+04  0.25500000000E-02 0.  1.
         -2   -1    0    0    0  501 -0.00000000000E+00 -0.00000000000E+00 -0.29849275119E+02  0.29849275228E+02  0.25500000000E-02 0. -1.
    5000001    1    1    2    0    0 -0.10901438764E+03  0.61287530746E+02  0.92552694270E+03  0.94840150769E+03  0.16500000000E+03 0.  0.
   -5000001    1    1    2    0    0  0.10901438764E+03 -0.61287530746E+02  0.56361759653E+03  0.60044158189E+03  0.16500000000E+03 0.  0.
<mgrwt>
<rscale>  0 0.42586789E+03</rscale>
<asrwt>0</asrwt>
<pdfrwt beam="1">  1        2 0.21699910E+00 0.42586789E+03</pdfrwt>
<pdfrwt beam="2">  1       -2 0.42641825E-02 0.42586789E+03</pdfrwt>
<totfact> 0.38142365E+03</totfact>
</mgrwt>
</event>
<event>
 4    1  0.1837449E-005  0.5965586E+03  0.7818608E-02  0.9912572E-01
         -2   -1    0    0    0  501 -0.00000000000E+00  0.00000000000E+00  0.94118365816E+02  0.94118365850E+02  0.25500000000E-02 0. -1.
          2   -1    0    0  501    0  0.00000000000E+00 -0.00000000000E+00 -0.94530492455E+03  0.94530492455E+03  0.25500000000E-02 0.  1.
    5000001    1    1    2    0    0 -0.90152752953E+02  0.17755130581E+03 -0.16660969084E+03  0.30762928038E+03  0.16500000000E+03 0.  0.
   -5000001    1    1    2    0    0  0.90152752953E+02 -0.17755130581E+03 -0.68457686788E+03  0.73179401002E+03  0.16500000000E+03 0.  0.
<mgrwt>
<rscale>  0 0.59655865E+03</rscale>
<asrwt>0</asrwt>
<pdfrwt beam="1">  1        2 0.13504356E+00 0.59655865E+03</pdfrwt>
<pdfrwt beam="2">  1       -2 0.13445481E-01 0.59655865E+03</pdfrwt>
<totfact> 0.12852801E+03</totfact>
</mgrwt>
</event>
<event>
 4    1  0.1837449E-005  0.3734604E+03  0.7818608E-02  0.1053378E+00
         -2   -1    0    0    0  501 -0.00000000000E+00  0.00000000000E+00  0.22939833177E+03  0.22939833178E+03  0.25500000000E-02 0. -1.
          2   -1    0    0  501    0  0.00000000000E+00 -0.00000000000E+00 -0.15199835507E+03  0.15199835510E+03  0.25500000000E-02 0.  1.
    5000001    1    1    2    0    0  0.34117347295E+02  0.63784656250E+02 -0.11442205572E+02  0.18052257429E+03  0.16500000000E+03 0.  0.
   -5000001    1    1    2    0    0 -0.34117347295E+02 -0.63784656250E+02  0.88842182267E+02  0.20087411259E+03  0.16500000000E+03 0.  0.
<mgrwt>
<rscale>  0 0.37346041E+03</rscale>
<asrwt>0</asrwt>
<pdfrwt beam="1">  1        2 0.21714051E-01 0.37346041E+03</pdfrwt>
<pdfrwt beam="2">  1       -2 0.32771190E-01 0.37346041E+03</pdfrwt>
<totfact> 0.22083323E+03</totfact>
</mgrwt>
</event>
<event>
 4    1  0.1837449E-005  0.6727721E+03  0.7818608E-02  0.9764963E-01
         -2   -1    0    0    0  501 -0.00000000000E+00  0.00000000000E+00  0.11955071274E+03  0.11955071277E+03  0.25500000000E-02 0. -1.
          2   -1    0    0  501    0  0.00000000000E+00 -0.00000000000E+00 -0.94650697308E+03  0.94650697308E+03  0.25500000000E-02 0.  1.
    5000001    1    1    2    0    0  0.25904821716E+03 -0.46476368622E+02 -0.20892339729E+03  0.37435279830E+03  0.16500000000E+03 0.  0.
   -5000001    1    1    2    0    0 -0.25904821716E+03  0.46476368622E+02 -0.61803286305E+03  0.69170488755E+03  0.16500000000E+03 0.  0.
<mgrwt>
<rscale>  0 0.67277213E+03</rscale>
<asrwt>0</asrwt>
<pdfrwt beam="1">  1        2 0.13521528E+00 0.67277213E+03</pdfrwt>
<pdfrwt beam="2">  1       -2 0.17078674E-01 0.67277213E+03</pdfrwt>
<totfact> 0.85537383E+02</totfact>
</mgrwt>
</event>
<event>
 4    1  0.1837449E-005  0.4404029E+03  0.7818608E-02  0.1030623E+00
          2   -1    0    0  501    0  0.00000000000E+00  0.00000000000E+00  0.72879755552E+03  0.72879755553E+03  0.25500000000E-02 0.  1.
         -2   -1    0    0    0  501 -0.00000000000E+00 -0.00000000000E+00 -0.66532434634E+02  0.66532434682E+02  0.25500000000E-02 0. -1.
    5000001    1    1    2    0    0 -0.10407924626E+03  0.74156108453E+02  0.20430568841E+03  0.29205724138E+03  0.16500000000E+03 0.  0.
   -5000001    1    1    2    0    0  0.10407924626E+03 -0.74156108453E+02  0.45795943248E+03  0.50327274884E+03  0.16500000000E+03 0.  0.
<mgrwt>
<rscale>  0 0.44040289E+03</rscale>
<asrwt>0</asrwt>
<pdfrwt beam="1">  1        2 0.10411394E+00 0.44040289E+03</pdfrwt>
<pdfrwt beam="2">  1       -2 0.95046330E-02 0.44040289E+03</pdfrwt>
<totfact> 0.31671103E+03</totfact>
</mgrwt>
</event>
<event>
 4    1  0.1837449E-005  0.4424794E+03  0.7818608E-02  0.1029989E+00
          2   -1    0    0  501    0  0.00000000000E+00  0.00000000000E+00  0.11100525596E+04  0.11100525596E+04  0.25500000000E-02 0.  1.
         -2   -1    0    0    0  501 -0.00000000000E+00 -0.00000000000E+00 -0.44094321513E+02  0.44094321587E+02  0.25500000000E-02 0. -1.
    5000001    1    1    2    0    0 -0.11689653794E+03 -0.80751629496E+02  0.63521856147E+03  0.67150074243E+03  0.16500000000E+03 0.  0.
   -5000001    1    1    2    0    0  0.11689653794E+03  0.80751629496E+02  0.43073967663E+03  0.48264613878E+03  0.16500000000E+03 0.  0.
<mgrwt>
<rscale>  0 0.44247944E+03</rscale>
<asrwt>0</asrwt>
<pdfrwt beam="1">  1        2 0.15857893E+00 0.44247944E+03</pdfrwt>
<pdfrwt beam="2">  1       -2 0.62991893E-02 0.44247944E+03</pdfrwt>
<totfact> 0.34669204E+03</totfact>
</mgrwt>
</event>
<event>
 4    1  0.1837449E-005  0.6068470E+03  0.7818608E-02  0.9891302E-01
         -2   -1    0    0    0  501 -0.00000000000E+00  0.00000000000E+00  0.12886669881E+03  0.12886669883E+03  0.25500000000E-02 0. -1.
          2   -1    0    0  501    0  0.00000000000E+00 -0.00000000000E+00 -0.71442686802E+03  0.71442686802E+03  0.25500000000E-02 0.  1.
    5000001    1    1    2    0    0  0.16670239257E+03 -0.12881387217E+03 -0.94018466040E+02  0.28363210909E+03  0.16500000000E+03 0.  0.
   -5000001    1    1    2    0    0 -0.16670239257E+03  0.12881387217E+03 -0.49154170317E+03  0.55966145777E+03  0.16500000000E+03 0.  0.
<mgrwt>
<rscale>  0 0.60684704E+03</rscale>
<asrwt>0</asrwt>
<pdfrwt beam="1">  1        2 0.10206098E+00 0.60684704E+03</pdfrwt>
<pdfrwt beam="2">  1       -2 0.18409529E-01 0.60684704E+03</pdfrwt>
<totfact> 0.10844324E+03</totfact>
</mgrwt>
</event>
<event>
 4    1  0.1837449E-005  0.1566439E+04  0.7818608E-02  0.8841435E-01
         -2   -1    0    0    0  501 -0.00000000000E+00  0.00000000000E+00  0.25221852265E+03  0.25221852266E+03  0.25500000000E-02 0. -1.
          2   -1    0    0  501    0  0.00000000000E+00 -0.00000000000E+00 -0.24321486188E+04  0.24321486188E+04  0.25500000000E-02 0.  1.
    5000001    1    1    2    0    0  0.24932618253E+03  0.58486373945E+03 -0.18210010481E+04  0.19358457987E+04  0.16500000000E+03 0.  0.
   -5000001    1    1    2    0    0 -0.24932618253E+03 -0.58486373945E+03 -0.35892904796E+03  0.74852134271E+03  0.16500000000E+03 0.  0.
<mgrwt>
<rscale>  0 0.15664392E+04</rscale>
<asrwt>0</asrwt>
<pdfrwt beam="1">  1        2 0.34744979E+00 0.15664392E+04</pdfrwt>
<pdfrwt beam="2">  1       -2 0.36031219E-01 0.15664392E+04</pdfrwt>
<totfact> 0.33429166E+01</totfact>
</mgrwt>
</event>
<event>
 4    1  0.1837449E-005  0.6493556E+03  0.7818608E-02  0.9807989E-01
          2   -1    0    0  501    0  0.00000000000E+00  0.00000000000E+00  0.67606428607E+02  0.67606428656E+02  0.25500000000E-02 0.  1.
         -2   -1    0    0    0  501 -0.00000000000E+00 -0.00000000000E+00 -0.15592552936E+04  0.15592552936E+04  0.25500000000E-02 0. -1.
    5000001    1    1    2    0    0  0.48730507049E+02 -0.24763480257E+03 -0.10474356846E+04  0.10899743901E+04  0.16500000000E+03 0.  0.
   -5000001    1    1    2    0    0 -0.48730507049E+02  0.24763480257E+03 -0.44421318035E+03  0.53688733209E+03  0.16500000000E+03 0.  0.
<mgrwt>
<rscale>  0 0.64935562E+03</rscale>
<asrwt>0</asrwt>
<pdfrwt beam="1">  1        2 0.96580622E-02 0.64935562E+03</pdfrwt>
<pdfrwt beam="2">  1       -2 0.22275073E+00 0.64935562E+03</pdfrwt>
<totfact> 0.67862072E+01</totfact>
</mgrwt>
</event>
<event>
 4    1  0.1837449E-005  0.4848866E+03  0.7818608E-02  0.1017801E+00
         -2   -1    0    0    0  501 -0.00000000000E+00  0.00000000000E+00  0.17337942860E+04  0.17337942860E+04  0.25500000000E-02 0. -1.
          2   -1    0    0  501    0  0.00000000000E+00 -0.00000000000E+00 -0.33901798952E+02  0.33901799048E+02  0.25500000000E-02 0.  1.
    5000001    1    1    2    0    0  0.17520182019E+03  0.65250981202E+01  0.74583995767E+03  0.78373496615E+03  0.16500000000E+03 0.  0.
   -5000001    1    1    2    0    0 -0.17520182019E+03 -0.65250981202E+01  0.95405252935E+03  0.98396111887E+03  0.16500000000E+03 0.  0.
<mgrwt>
<rscale>  0 0.48488657E+03</rscale>
<asrwt>0</asrwt>
<pdfrwt beam="1">  1        2 0.48431125E-02 0.48488657E+03</pdfrwt>
<pdfrwt beam="2">  1       -2 0.24768498E+00 0.48488657E+03</pdfrwt>
<totfact> 0.11981491E+02</totfact>
</mgrwt>
</event>
<event>
 4    1  0.1837449E-005  0.5693316E+03  0.7818608E-02  0.9971159E-01
         -2   -1    0    0    0  501 -0.00000000000E+00  0.00000000000E+00  0.12060825724E+03  0.12060825727E+03  0.25500000000E-02 0. -1.
          2   -1    0    0  501    0  0.00000000000E+00 -0.00000000000E+00 -0.67188280849E+03  0.67188280849E+03  0.25500000000E-02 0.  1.
    5000001    1    1    2    0    0  0.18388682204E+03 -0.59886559326E+02 -0.45394418954E+03  0.52027981945E+03  0.16500000000E+03 0.  0.
   -5000001    1    1    2    0    0 -0.18388682204E+03  0.59886559326E+02 -0.97330361708E+02  0.27221124631E+03  0.16500000000E+03 0.  0.
<mgrwt>
<rscale>  0 0.56933159E+03</rscale>
<asrwt>0</asrwt>
<pdfrwt beam="1">  1        2 0.95983256E-01 0.56933159E+03</pdfrwt>
<pdfrwt beam="2">  1       -2 0.17229751E-01 0.56933159E+03</pdfrwt>
<totfact> 0.13099454E+03</totfact>
</mgrwt>
</event>
<event>
 4    1  0.1837449E-005  0.5132761E+03  0.7818608E-02  0.1010371E+00
         -2   -1    0    0    0  501 -0.00000000000E+00  0.00000000000E+00  0.57892491094E+02  0.57892491150E+02  0.25500000000E-02 0. -1.
          2   -1    0    0  501    0  0.00000000000E+00 -0.00000000000E+00 -0.11376793411E+04  0.11376793411E+04  0.25500000000E-02 0.  1.
    5000001    1    1    2    0    0  0.96444401919E+02 -0.17113218785E+03 -0.55642039396E+03  0.61271233315E+03  0.16500000000E+03 0.  0.
   -5000001    1    1    2    0    0 -0.96444401919E+02  0.17113218785E+03 -0.52336645606E+03  0.58285949911E+03  0.16500000000E+03 0.  0.
<mgrwt>
<rscale>  0 0.51327611E+03</rscale>
<asrwt>0</asrwt>
<pdfrwt beam="1">  1        2 0.16252561E+00 0.51327611E+03</pdfrwt>
<pdfrwt beam="2">  1       -2 0.82703566E-02 0.51327611E+03</pdfrwt>
<totfact> 0.21774339E+03</totfact>
</mgrwt>
</event>
<event>
 4    1  0.1837449E-005  0.6177328E+03  0.7818608E-02  0.9869284E-01
          2   -1    0    0  501    0  0.00000000000E+00  0.00000000000E+00  0.28184053320E+03  0.28184053322E+03  0.25500000000E-02 0.  1.
         -2   -1    0    0    0  501 -0.00000000000E+00 -0.00000000000E+00 -0.33848380848E+03  0.33848380849E+03  0.25500000000E-02 0. -1.
    5000001    1    1    2    0    0 -0.71228811314E+02  0.14444631156E+03 -0.23469579332E+03  0.32900668061E+03  0.16500000000E+03 0.  0.
   -5000001    1    1    2    0    0  0.71228811314E+02 -0.14444631156E+03  0.17805251805E+03  0.29131766110E+03  0.16500000000E+03 0.  0.
<mgrwt>
<rscale>  0 0.61773281E+03</rscale>
<asrwt>0</asrwt>
<pdfrwt beam="1">  1        2 0.40262933E-01 0.61773281E+03</pdfrwt>
<pdfrwt beam="2">  1       -2 0.48354830E-01 0.61773281E+03</pdfrwt>
<totfact> 0.52193590E+02</totfact>
</mgrwt>
</event>
<event>
 4    1  0.1837449E-005  0.3908540E+03  0.7818608E-02  0.1046993E+00
          2   -1    0    0  501    0  0.00000000000E+00  0.00000000000E+00  0.44789430515E+03  0.44789430515E+03  0.25500000000E-02 0.  1.
         -2   -1    0    0    0  501 -0.00000000000E+00 -0.00000000000E+00 -0.85269456406E+02  0.85269456444E+02  0.25500000000E-02 0. -1.
    5000001    1    1    2    0    0 -0.30213278742E+02  0.98616420077E+02  0.15658255662E+03  0.24976216198E+03  0.16500000000E+03 0.  0.
   -5000001    1    1    2    0    0  0.30213278742E+02 -0.98616420077E+02  0.20604229212E+03  0.28340159962E+03  0.16500000000E+03 0.  0.
<mgrwt>
<rscale>  0 0.39085396E+03</rscale>
<asrwt>0</asrwt>
<pdfrwt beam="1">  1        2 0.63984901E-01 0.39085396E+03</pdfrwt>
<pdfrwt beam="2">  1       -2 0.12181351E-01 0.39085396E+03</pdfrwt>
<totfact> 0.37137035E+03</totfact>
</mgrwt>
</event>
<event>
 4    1  0.1837449E-005  0.6597768E+03  0.7818608E-02  0.9788605E-01
          2   -1    0    0  501    0  0.00000000000E+00  0.00000000000E+00  0.29576862043E+04  0.29576862043E+04  0.25500000000E-02 0.  1.
         -2   -1    0    0    0  501 -0.00000000000E+00 -0.00000000000E+00 -0.36794427184E+02  0.36794427272E+02  0.25500000000E-02 0. -1.
    5000001    1    1    2    0    0  0.36603092026E+02  0.24240563979E+03  0.79493575523E+03  0.84808498129E+03  0.16500000000E+03 0.  0.
   -5000001    1    1    2    0    0 -0.36603092026E+02 -0.24240563979E+03  0.21259560219E+04  0.21463956503E+04  0.16500000000E+03 0.  0.
<mgrwt>
<rscale>  0 0.65977684E+03</rscale>
<asrwt>0</asrwt>
<pdfrwt beam="1">  1        2 0.42252668E+00 0.65977684E+03</pdfrwt>
<pdfrwt beam="2">  1       -2 0.52563458E-02 0.65977684E+03</pdfrwt>
<totfact> 0.50202258E+02</totfact>
</mgrwt>
</event>
<event>
 4    1  0.1837449E-005  0.4212157E+03  0.7818608E-02  0.1036671E+00
          2   -1    0    0  501    0  0.00000000000E+00  0.00000000000E+00  0.70909813756E+03  0.70909813757E+03  0.25500000000E-02 0.  1.
         -2   -1    0    0    0  501 -0.00000000000E+00 -0.00000000000E+00 -0.62552226717E+02  0.62552226769E+02  0.25500000000E-02 0. -1.
    5000001    1    1    2    0    0 -0.32680207746E+02  0.12255827796E+03  0.26413326516E+03  0.33627356310E+03  0.16500000000E+03 0.  0.
   -5000001    1    1    2    0    0  0.32680207746E+02 -0.12255827796E+03  0.38241264569E+03  0.43537680124E+03  0.16500000000E+03 0.  0.
<mgrwt>
<rscale>  0 0.42121570E+03</rscale>
<asrwt>0</asrwt>
<pdfrwt beam="1">  1        2 0.10129973E+00 0.42121570E+03</pdfrwt>
<pdfrwt beam="2">  1       -2 0.89360327E-02 0.42121570E+03</pdfrwt>
<totfact> 0.36120383E+03</totfact>
</mgrwt>
</event>
<event>
 4    1  0.1837449E-005  0.5685337E+03  0.7818608E-02  0.9972929E-01
          2   -1    0    0  501    0  0.00000000000E+00  0.00000000000E+00  0.59931825485E+02  0.59931825539E+02  0.25500000000E-02 0.  1.
         -2   -1    0    0    0  501 -0.00000000000E+00 -0.00000000000E+00 -0.13483261599E+04  0.13483261599E+04  0.25500000000E-02 0. -1.
    5000001    1    1    2    0    0  0.16167894947E+03 -0.57581721095E+02 -0.25944874013E+03  0.35212836588E+03  0.16500000000E+03 0.  0.
   -5000001    1    1    2    0    0 -0.16167894947E+03  0.57581721095E+02 -0.10289455943E+04  0.10561296196E+04  0.16500000000E+03 0.  0.
<mgrwt>
<rscale>  0 0.56853372E+03</rscale>
<asrwt>0</asrwt>
<pdfrwt beam="1">  1        2 0.85616902E-02 0.56853372E+03</pdfrwt>
<pdfrwt beam="2">  1       -2 0.19261800E+00 0.56853372E+03</pdfrwt>
<totfact> 0.12378711E+02</totfact>
</mgrwt>
</event>
<event>
 4    1  0.1837449E-005  0.4899313E+03  0.7818608E-02  0.1016441E+00
          2   -1    0    0  501    0  0.00000000000E+00  0.00000000000E+00  0.67720166002E+03  0.67720166003E+03  0.25500000000E-02 0.  1.
         -2   -1    0    0    0  501 -0.00000000000E+00 -0.00000000000E+00 -0.88611971975E+02  0.88611972012E+02  0.25500000000E-02 0. -1.
    5000001    1    1    2    0    0 -0.13026340628E+03 -0.11200083325E+03  0.38368516755E+03  0.45161050637E+03  0.16500000000E+03 0.  0.
   -5000001    1    1    2    0    0  0.13026340628E+03  0.11200083325E+03  0.20490452050E+03  0.31420312567E+03  0.16500000000E+03 0.  0.
<mgrwt>
<rscale>  0 0.48993132E+03</rscale>
<asrwt>0</asrwt>
<pdfrwt beam="1">  1        2 0.96743099E-01 0.48993132E+03</pdfrwt>
<pdfrwt beam="2">  1       -2 0.12658853E-01 0.48993132E+03</pdfrwt>
<totfact> 0.21757496E+03</totfact>
</mgrwt>
</event>
<event>
 4    1  0.1837449E-005  0.4674588E+03  0.7818608E-02  0.1022640E+00
         -2   -1    0    0    0  501 -0.00000000000E+00  0.00000000000E+00  0.30910006855E+02  0.30910006960E+02  0.25500000000E-02 0. -1.
          2   -1    0    0  501    0  0.00000000000E+00 -0.00000000000E+00 -0.17673702371E+04  0.17673702371E+04  0.25500000000E-02 0.  1.
    5000001    1    1    2    0    0  0.41378357179E+02 -0.12756266886E+03 -0.49485957628E+03  0.53860505304E+03  0.16500000000E+03 0.  0.
   -5000001    1    1    2    0    0 -0.41378357179E+02  0.12756266886E+03 -0.12416006539E+04  0.12596751910E+04  0.16500000000E+03 0.  0.
<mgrwt>
<rscale>  0 0.46745877E+03</rscale>
<asrwt>0</asrwt>
<pdfrwt beam="1">  1        2 0.25248140E+00 0.46745877E+03</pdfrwt>
<pdfrwt beam="2">  1       -2 0.44157164E-02 0.46745877E+03</pdfrwt>
<totfact> 0.27053553E+03</totfact>
</mgrwt>
</event>
<event>
 4    1  0.1837449E-005  0.4719612E+03  0.7818608E-02  0.1021368E+00
         -2   -1    0    0    0  501 -0.00000000000E+00  0.00000000000E+00  0.13904981420E+02  0.13904981654E+02  0.25500000000E-02 0. -1.
          2   -1    0    0  501    0  0.00000000000E+00 -0.00000000000E+00 -0.40048120257E+04  0.40048120257E+04  0.25500000000E-02 0.  1.
    5000001    1    1    2    0    0  0.15401532043E+03 -0.26245500385E+02 -0.25374937535E+04  0.25476477571E+04  0.16500000000E+03 0.  0.
   -5000001    1    1    2    0    0 -0.15401532043E+03  0.26245500385E+02 -0.14534132907E+04  0.14710692502E+04  0.16500000000E+03 0.  0.
<mgrwt>
<rscale>  0 0.47196117E+03</rscale>
<asrwt>0</asrwt>
<pdfrwt beam="1">  1        2 0.57211526E+00 0.47196117E+03</pdfrwt>
<pdfrwt beam="2">  1       -2 0.19864285E-02 0.47196117E+03</pdfrwt>
<totfact> 0.53909958E+02</totfact>
</mgrwt>
</event>
<event>
 4    1  0.1837449E-005  0.3539150E+03  0.7818608E-02  0.1061020E+00
         -2   -1    0    0    0  501 -0.00000000000E+00  0.00000000000E+00  0.12774376664E+02  0.12774376919E+02  0.25500000000E-02 0. -1.
          2   -1    0    0  501    0  0.00000000000E+00 -0.00000000000E+00 -0.24513105074E+04  0.24513105074E+04  0.25500000000E-02 0.  1.
    5000001    1    1    2    0    0  0.46877310194E+02  0.52471844134E+01 -0.91867867626E+03  0.93456970064E+03  0.16500000000E+03 0.  0.
   -5000001    1    1    2    0    0 -0.46877310194E+02 -0.52471844134E+01 -0.15198574545E+04  0.15295151836E+04  0.16500000000E+03 0.  0.
<mgrwt>
<rscale>  0 0.35391504E+03</rscale>
<asrwt>0</asrwt>
<pdfrwt beam="1">  1        2 0.35018692E+00 0.35391504E+03</pdfrwt>
<pdfrwt beam="2">  1       -2 0.18249125E-02 0.35391504E+03</pdfrwt>
<totfact> 0.46822655E+03</totfact>
</mgrwt>
</event>
<event>
 4    1  0.1837449E-005  0.4066855E+03  0.7818608E-02  0.1041489E+00
         -2   -1    0    0    0  501 -0.00000000000E+00  0.00000000000E+00  0.21609738444E+02  0.21609738595E+02  0.25500000000E-02 0. -1.
          2   -1    0    0  501    0  0.00000000000E+00 -0.00000000000E+00 -0.19134095325E+04  0.19134095325E+04  0.25500000000E-02 0.  1.
    5000001    1    1    2    0    0 -0.46688428194E+02 -0.10928609446E+03 -0.94657129923E+03  0.96816604170E+03  0.16500000000E+03 0.  0.
   -5000001    1    1    2    0    0  0.46688428194E+02  0.10928609446E+03 -0.94522849482E+03  0.96685322940E+03  0.16500000000E+03 0.  0.
<mgrwt>
<rscale>  0 0.40668553E+03</rscale>
<asrwt>0</asrwt>
<pdfrwt beam="1">  1        2 0.27334411E+00 0.40668553E+03</pdfrwt>
<pdfrwt beam="2">  1       -2 0.30871067E-02 0.40668553E+03</pdfrwt>
<totfact> 0.39466000E+03</totfact>
</mgrwt>
</event>
<event>
 4    1  0.1837449E-005  0.5018946E+03  0.7818608E-02  0.1013286E+00
          2   -1    0    0  501    0  0.00000000000E+00  0.00000000000E+00  0.22223559809E+04  0.22223559809E+04  0.25500000000E-02 0.  1.
         -2   -1    0    0    0  501 -0.00000000000E+00 -0.00000000000E+00 -0.28336843367E+02  0.28336843482E+02  0.25500000000E-02 0. -1.
    5000001    1    1    2    0    0  0.17194831736E+03  0.43773266166E+02  0.80407086977E+03  0.83978407123E+03  0.16500000000E+03 0.  0.
   -5000001    1    1    2    0    0 -0.17194831736E+03 -0.43773266166E+02  0.13899482677E+04  0.14109087531E+04  0.16500000000E+03 0.  0.
<mgrwt>
<rscale>  0 0.50189462E+03</rscale>
<asrwt>0</asrwt>
<pdfrwt beam="1">  1        2 0.31747938E+00 0.50189462E+03</pdfrwt>
<pdfrwt beam="2">  1       -2 0.40481211E-02 0.50189462E+03</pdfrwt>
<totfact> 0.18293080E+03</totfact>
</mgrwt>
</event>
<event>
 4    1  0.1837449E-005  0.4678950E+03  0.7818608E-02  0.1022516E+00
         -2   -1    0    0    0  501 -0.00000000000E+00  0.00000000000E+00  0.19704890707E+02  0.19704890872E+02  0.25500000000E-02 0. -1.
          2   -1    0    0  501    0  0.00000000000E+00 -0.00000000000E+00 -0.27775556810E+04  0.27775556810E+04  0.25500000000E-02 0.  1.
    5000001    1    1    2    0    0  0.12528221236E+03 -0.93487854591E+02 -0.10476328358E+04  0.10720052100E+04  0.16500000000E+03 0.  0.
   -5000001    1    1    2    0    0 -0.12528221236E+03  0.93487854591E+02 -0.17102179545E+04  0.17252553618E+04  0.16500000000E+03 0.  0.
<mgrwt>
<rscale>  0 0.46789499E+03</rscale>
<asrwt>0</asrwt>
<pdfrwt beam="1">  1        2 0.39679342E+00 0.46789499E+03</pdfrwt>
<pdfrwt beam="2">  1       -2 0.28149862E-02 0.46789499E+03</pdfrwt>
<totfact> 0.16575644E+03</totfact>
</mgrwt>
</event>
<event>
 4    1  0.1837449E-005  0.4771131E+03  0.7818608E-02  0.1019932E+00
         -2   -1    0    0    0  501 -0.00000000000E+00  0.00000000000E+00  0.41045635983E+02  0.41045636062E+02  0.25500000000E-02 0. -1.
          2   -1    0    0  501    0  0.00000000000E+00 -0.00000000000E+00 -0.13864866395E+04  0.13864866395E+04  0.25500000000E-02 0.  1.
    5000001    1    1    2    0    0 -0.11572120492E+03  0.10033688993E+03 -0.43664765258E+03  0.49126882789E+03  0.16500000000E+03 0.  0.
   -5000001    1    1    2    0    0  0.11572120492E+03 -0.10033688993E+03 -0.90879335092E+03  0.93626344766E+03  0.16500000000E+03 0.  0.
<mgrwt>
<rscale>  0 0.47711309E+03</rscale>
<asrwt>0</asrwt>
<pdfrwt beam="1">  1        2 0.19806949E+00 0.47711309E+03</pdfrwt>
<pdfrwt beam="2">  1       -2 0.58636631E-02 0.47711309E+03</pdfrwt>
<totfact> 0.27353698E+03</totfact>
</mgrwt>
</event>
<event>
 4    1  0.1837449E-005  0.3905083E+03  0.7818608E-02  0.1047117E+00
          2   -1    0    0  501    0  0.00000000000E+00  0.00000000000E+00  0.69835489380E+03  0.69835489380E+03  0.25500000000E-02 0.  1.
         -2   -1    0    0    0  501 -0.00000000000E+00 -0.00000000000E+00 -0.54591428666E+02  0.54591428725E+02  0.25500000000E-02 0. -1.
    5000001    1    1    2    0    0  0.95761322535E+02  0.35957939316E+02  0.36214143118E+03  0.41089490198E+03  0.16500000000E+03 0.  0.
   -5000001    1    1    2    0    0 -0.95761322535E+02 -0.35957939316E+02  0.28162203395E+03  0.34205142055E+03  0.16500000000E+03 0.  0.
<mgrwt>
<rscale>  0 0.39050834E+03</rscale>
<asrwt>0</asrwt>
<pdfrwt beam="1">  1        2 0.99764987E-01 0.39050834E+03</pdfrwt>
<pdfrwt beam="2">  1       -2 0.77987753E-02 0.39050834E+03</pdfrwt>
<totfact> 0.45587907E+03</totfact>
</mgrwt>
</event>
<event>
 4    1  0.1837449E-005  0.3929956E+03  0.7818608E-02  0.1046232E+00
         -2   -1    0    0    0  501 -0.00000000000E+00  0.00000000000E+00  0.13806042406E+02  0.13806042642E+02  0.25500000000E-02 0. -1.
          2   -1    0    0  501    0  0.00000000000E+00 -0.00000000000E+00 -0.27967013133E+04  0.27967013133E+04  0.25500000000E-02 0.  1.
    5000001    1    1    2    0    0 -0.15043005619E+02  0.97602677846E+02 -0.11023817338E+04  0.11190277306E+04  0.16500000000E+03 0.  0.
   -5000001    1    1    2    0    0  0.15043005619E+02 -0.97602677846E+02 -0.16805135371E+04  0.16914796253E+04  0.16500000000E+03 0.  0.
<mgrwt>
<rscale>  0 0.39299556E+03</rscale>
<asrwt>0</asrwt>
<pdfrwt beam="1">  1        2 0.39952840E+00 0.39299556E+03</pdfrwt>
<pdfrwt beam="2">  1       -2 0.19722936E-02 0.39299556E+03</pdfrwt>
<totfact> 0.27738576E+03</totfact>
</mgrwt>
</event>
<event>
 4    1  0.1837449E-005  0.6842313E+03  0.7818608E-02  0.9744585E-01
         -2   -1    0    0    0  501 -0.00000000000E+00  0.00000000000E+00  0.22206267202E+03  0.22206267203E+03  0.25500000000E-02 0. -1.
          2   -1    0    0  501    0  0.00000000000E+00 -0.00000000000E+00 -0.52707251910E+03  0.52707251911E+03  0.25500000000E-02 0.  1.
    5000001    1    1    2    0    0  0.25707382177E+03  0.24035290505E+02 -0.31910125678E+03  0.44239717123E+03  0.16500000000E+03 0.  0.
   -5000001    1    1    2    0    0 -0.25707382177E+03 -0.24035290505E+02  0.14091409699E+02  0.30673801991E+03  0.16500000000E+03 0.  0.
<mgrwt>
<rscale>  0 0.68423134E+03</rscale>
<asrwt>0</asrwt>
<pdfrwt beam="1">  1        2 0.75296074E-01 0.68423134E+03</pdfrwt>
<pdfrwt beam="2">  1       -2 0.31723239E-01 0.68423134E+03</pdfrwt>
<totfact> 0.58608947E+02</totfact>
</mgrwt>
</event>
<event>
 4    1  0.1837449E-005  0.4118963E+03  0.7818608E-02  0.1039737E+00
          2   -1    0    0  501    0  0.00000000000E+00  0.00000000000E+00  0.19643885162E+04  0.19643885162E+04  0.25500000000E-02 0.  1.
         -2   -1    0    0    0  501 -0.00000000000E+00 -0.00000000000E+00 -0.21591774592E+02  0.21591774743E+02  0.25500000000E-02 0. -1.
    5000001    1    1    2    0    0  0.50747282421E+02 -0.78107429644E+02  0.13605302848E+04  0.13736606980E+04  0.16500000000E+03 0.  0.
   -5000001    1    1    2    0    0 -0.50747282421E+02  0.78107429644E+02  0.58226645679E+03  0.61231959298E+03  0.16500000000E+03 0.  0.
<mgrwt>
<rscale>  0 0.41189627E+03</rscale>
<asrwt>0</asrwt>
<pdfrwt beam="1">  1        2 0.28062702E+00 0.41189627E+03</pdfrwt>
<pdfrwt beam="2">  1       -2 0.30845382E-02 0.41189627E+03</pdfrwt>
<totfact> 0.37279454E+03</totfact>
</mgrwt>
</event>
<event>
 4    1  0.1837449E-005  0.5926618E+03  0.7818608E-02  0.9920749E-01
          2   -1    0    0  501    0  0.00000000000E+00  0.00000000000E+00  0.63801711842E+02  0.63801711893E+02  0.25500000000E-02 0.  1.
         -2   -1    0    0    0  501 -0.00000000000E+00 -0.00000000000E+00 -0.13763265574E+04  0.13763265574E+04  0.25500000000E-02 0. -1.
    5000001    1    1    2    0    0 -0.23742903679E+03  0.25632837961E+01 -0.81388758857E+03  0.86372282867E+03  0.16500000000E+03 0.  0.
   -5000001    1    1    2    0    0  0.23742903679E+03 -0.25632837961E+01 -0.49863725700E+03  0.57640544065E+03  0.16500000000E+03 0.  0.
<mgrwt>
<rscale>  0 0.59266176E+03</rscale>
<asrwt>0</asrwt>
<pdfrwt beam="1">  1        2 0.91145311E-02 0.59266176E+03</pdfrwt>
<pdfrwt beam="2">  1       -2 0.19661806E+00 0.59266176E+03</pdfrwt>
<totfact> 0.10740815E+02</totfact>
</mgrwt>
</event>
<event>
 4    1  0.1837449E-005  0.4812418E+03  0.7818608E-02  0.1018794E+00
          2   -1    0    0  501    0  0.00000000000E+00  0.00000000000E+00  0.68597058255E+03  0.68597058256E+03  0.25500000000E-02 0.  1.
         -2   -1    0    0    0  501 -0.00000000000E+00 -0.00000000000E+00 -0.84403627617E+02  0.84403627656E+02  0.25500000000E-02 0. -1.
    5000001    1    1    2    0    0 -0.14574474191E+02  0.16061591176E+03  0.41010239504E+03  0.47055165585E+03  0.16500000000E+03 0.  0.
   -5000001    1    1    2    0    0  0.14574474191E+02 -0.16061591176E+03  0.19146455990E+03  0.29982255436E+03  0.16500000000E+03 0.  0.
<mgrwt>
<rscale>  0 0.48124175E+03</rscale>
<asrwt>0</asrwt>
<pdfrwt beam="1">  1        2 0.97995803E-01 0.48124175E+03</pdfrwt>
<pdfrwt beam="2">  1       -2 0.12057660E-01 0.48124175E+03</pdfrwt>
<totfact> 0.23202942E+03</totfact>
</mgrwt>
</event>
<event>
 4    1  0.1837449E-005  0.4310294E+03  0.7818608E-02  0.1033535E+00
         -2   -1    0    0    0  501 -0.00000000000E+00  0.00000000000E+00  0.85061648238E+02  0.85061648276E+02  0.25500000000E-02 0. -1.
          2   -1    0    0  501    0  0.00000000000E+00 -0.00000000000E+00 -0.54603437397E+03  0.54603437397E+03  0.25500000000E-02 0.  1.
    5000001    1    1    2    0    0  0.11937985172E+03 -0.23138646309E+02 -0.32798928714E+03  0.38676726649E+03  0.16500000000E+03 0.  0.
   -5000001    1    1    2    0    0 -0.11937985172E+03  0.23138646309E+02 -0.13298343859E+03  0.24432875575E+03  0.16500000000E+03 0.  0.
<mgrwt>
<rscale>  0 0.43102939E+03</rscale>
<asrwt>0</asrwt>
<pdfrwt beam="1">  1        2 0.78004909E-01 0.43102939E+03</pdfrwt>
<pdfrwt beam="2">  1       -2 0.12151664E-01 0.43102939E+03</pdfrwt>
<totfact> 0.29899709E+03</totfact>
</mgrwt>
</event>
<event>
 4    1  0.1837449E-005  0.1205398E+04  0.7818608E-02  0.9108145E-01
         -2   -1    0    0    0  501 -0.00000000000E+00  0.00000000000E+00  0.31626370435E+03  0.31626370436E+03  0.25500000000E-02 0. -1.
          2   -1    0    0  501    0  0.00000000000E+00 -0.00000000000E+00 -0.11485540700E+04  0.11485540700E+04  0.25500000000E-02 0.  1.
    5000001    1    1    2    0    0  0.47234983730E+03 -0.43928965331E+02 -0.82097210571E+03  0.96242626790E+03  0.16500000000E+03 0.  0.
   -5000001    1    1    2    0    0 -0.47234983730E+03  0.43928965331E+02 -0.11318259976E+02  0.50239150650E+03  0.16500000000E+03 0.  0.
<mgrwt>
<rscale>  0 0.12053978E+04</rscale>
<asrwt>0</asrwt>
<pdfrwt beam="1">  1        2 0.16407915E+00 0.12053978E+04</pdfrwt>
<pdfrwt beam="2">  1       -2 0.45180530E-01 0.12053978E+04</pdfrwt>
<totfact> 0.10481924E+02</totfact>
</mgrwt>
</event>
<event>
 4    1  0.1837449E-005  0.1342936E+04  0.7818608E-02  0.8996192E-01
          2   -1    0    0  501    0  0.00000000000E+00  0.00000000000E+00  0.12362147837E+04  0.12362147837E+04  0.25500000000E-02 0.  1.
         -2   -1    0    0    0  501 -0.00000000000E+00 -0.00000000000E+00 -0.36471782262E+03  0.36471782263E+03  0.25500000000E-02 0. -1.
    5000001    1    1    2    0    0 -0.44047607860E+03 -0.46312298081E+03  0.28905315136E+03  0.72061001623E+03  0.16500000000E+03 0.  0.
   -5000001    1    1    2    0    0  0.44047607860E+03  0.46312298081E+03  0.58244380971E+03  0.88032259010E+03  0.16500000000E+03 0.  0.
<mgrwt>
<rscale>  0 0.13429364E+04</rscale>
<asrwt>0</asrwt>
<pdfrwt beam="1">  1        2 0.17660211E+00 0.13429364E+04</pdfrwt>
<pdfrwt beam="2">  1       -2 0.52102546E-01 0.13429364E+04</pdfrwt>
<totfact> 0.69315616E+01</totfact>
</mgrwt>
</event>
<event>
 4    1  0.1837449E-005  0.3806949E+03  0.7818608E-02  0.1050677E+00
          2   -1    0    0  501    0  0.00000000000E+00  0.00000000000E+00  0.70640282891E+03  0.70640282892E+03  0.25500000000E-02 0.  1.
         -2   -1    0    0    0  501 -0.00000000000E+00 -0.00000000000E+00 -0.51291070548E+02  0.51291070611E+02  0.25500000000E-02 0. -1.
    5000001    1    1    2    0    0  0.20107539737E+02 -0.89984035467E+02  0.37231388386E+03  0.41754528845E+03  0.16500000000E+03 0.  0.
   -5000001    1    1    2    0    0 -0.20107539737E+02  0.89984035467E+02  0.28279787450E+03  0.34014861107E+03  0.16500000000E+03 0.  0.
<mgrwt>
<rscale>  0 0.38069493E+03</rscale>
<asrwt>0</asrwt>
<pdfrwt beam="1">  1        2 0.10091469E+00 0.38069493E+03</pdfrwt>
<pdfrwt beam="2">  1       -2 0.73272959E-02 0.38069493E+03</pdfrwt>
<totfact> 0.49565411E+03</totfact>
</mgrwt>
</event>
<event>
 4    1  0.1837449E-005  0.3769662E+03  0.7818608E-02  0.1052061E+00
          2   -1    0    0  501    0  0.00000000000E+00  0.00000000000E+00  0.59459254628E+03  0.59459254629E+03  0.25500000000E-02 0.  1.
         -2   -1    0    0    0  501 -0.00000000000E+00 -0.00000000000E+00 -0.59748276767E+02  0.59748276821E+02  0.25500000000E-02 0. -1.
    5000001    1    1    2    0    0  0.27316358041E+02  0.86864775742E+02  0.26215506480E+03  0.32286522061E+03  0.16500000000E+03 0.  0.
   -5000001    1    1    2    0    0 -0.27316358041E+02 -0.86864775742E+02  0.27268920472E+03  0.33147560250E+03  0.16500000000E+03 0.  0.
<mgrwt>
<rscale>  0 0.37696621E+03</rscale>
<asrwt>0</asrwt>
<pdfrwt beam="1">  1        2 0.84941799E-01 0.37696621E+03</pdfrwt>
<pdfrwt beam="2">  1       -2 0.85354675E-02 0.37696621E+03</pdfrwt>
<totfact> 0.47743946E+03</totfact>
</mgrwt>
</event>
<event>
 4    1  0.1837449E-005  0.1226067E+04  0.7818608E-02  0.9090341E-01
         -2   -1    0    0    0  501 -0.00000000000E+00  0.00000000000E+00  0.10124827869E+04  0.10124827869E+04  0.25500000000E-02 0. -1.
          2   -1    0    0  501    0  0.00000000000E+00 -0.00000000000E+00 -0.37117679044E+03  0.37117679044E+03  0.25500000000E-02 0.  1.
    5000001    1    1    2    0    0 -0.42975267115E+03 -0.30438693127E+03  0.62188168906E+03  0.83144488541E+03  0.16500000000E+03 0.  0.
   -5000001    1    1    2    0    0  0.42975267115E+03  0.30438693127E+03  0.19424307424E+02  0.55221469195E+03  0.16500000000E+03 0.  0.
<mgrwt>
<rscale>  0 0.12260671E+04</rscale>
<asrwt>0</asrwt>
<pdfrwt beam="1">  1        2 0.53025255E-01 0.12260671E+04</pdfrwt>
<pdfrwt beam="2">  1       -2 0.14464040E+00 0.12260671E+04</pdfrwt>
<totfact> 0.30562133E+01</totfact>
</mgrwt>
</event>
<event>
 4    1  0.1837449E-005  0.5885100E+03  0.7818608E-02  0.9929535E-01
          2   -1    0    0  501    0  0.00000000000E+00  0.00000000000E+00  0.92860739918E+03  0.92860739919E+03  0.25500000000E-02 0.  1.
         -2   -1    0    0    0  501 -0.00000000000E+00 -0.00000000000E+00 -0.93242842159E+02  0.93242842193E+02  0.25500000000E-02 0. -1.
    5000001    1    1    2    0    0  0.20045737403E+03 -0.75803082645E+02  0.21644920365E+03  0.34641669114E+03  0.16500000000E+03 0.  0.
   -5000001    1    1    2    0    0 -0.20045737403E+03  0.75803082645E+02  0.61891535338E+03  0.67543355024E+03  0.16500000000E+03 0.  0.
<mgrwt>
<rscale>  0 0.58850996E+03</rscale>
<asrwt>0</asrwt>
<pdfrwt beam="1">  1        2 0.13265819E+00 0.58850996E+03</pdfrwt>
<pdfrwt beam="2">  1       -2 0.13320407E-01 0.58850996E+03</pdfrwt>
<totfact> 0.13376489E+03</totfact>
</mgrwt>
</event>
<event>
 4    1  0.1837449E-005  0.5035578E+03  0.7818608E-02  0.1012854E+00
          2   -1    0    0  501    0  0.00000000000E+00  0.00000000000E+00  0.17571679163E+04  0.17571679163E+04  0.25500000000E-02 0.  1.
         -2   -1    0    0    0  501 -0.00000000000E+00 -0.00000000000E+00 -0.36076579212E+02  0.36076579302E+02  0.25500000000E-02 0. -1.
    5000001    1    1    2    0    0 -0.22104828858E+02 -0.18757677558E+03  0.78140018051E+03  0.82066126526E+03  0.16500000000E+03 0.  0.
   -5000001    1    1    2    0    0  0.22104828858E+02  0.18757677558E+03  0.93969115657E+03  0.97258323034E+03  0.16500000000E+03 0.  0.
<mgrwt>
<rscale>  0 0.50355777E+03</rscale>
<asrwt>0</asrwt>
<pdfrwt beam="1">  1        2 0.25102405E+00 0.50355777E+03</pdfrwt>
<pdfrwt beam="2">  1       -2 0.51537957E-02 0.50355777E+03</pdfrwt>
<totfact> 0.21552865E+03</totfact>
</mgrwt>
</event>
<event>
 4    1  0.1837449E-005  0.4153507E+03  0.7818608E-02  0.1038590E+00
         -2   -1    0    0    0  501 -0.00000000000E+00  0.00000000000E+00  0.67603075903E+03  0.67603075903E+03  0.25500000000E-02 0. -1.
          2   -1    0    0  501    0  0.00000000000E+00 -0.00000000000E+00 -0.63797463633E+02  0.63797463684E+02  0.25500000000E-02 0.  1.
    5000001    1    1    2    0    0  0.11583564012E+03 -0.49858938581E+02  0.30524675491E+03  0.36919424517E+03  0.16500000000E+03 0.  0.
   -5000001    1    1    2    0    0 -0.11583564012E+03  0.49858938581E+02  0.30698654048E+03  0.37063397755E+03  0.16500000000E+03 0.  0.
<mgrwt>
<rscale>  0 0.41535068E+03</rscale>
<asrwt>0</asrwt>
<pdfrwt beam="1">  1        2 0.91139232E-02 0.41535068E+03</pdfrwt>
<pdfrwt beam="2">  1       -2 0.96575824E-01 0.41535068E+03</pdfrwt>
<totfact> 0.67465003E+02</totfact>
</mgrwt>
</event>
<event>
 4    1  0.1837449E-005  0.4785747E+03  0.7818608E-02  0.1019528E+00
         -2   -1    0    0    0  501 -0.00000000000E+00  0.00000000000E+00  0.40987699574E+03  0.40987699575E+03  0.25500000000E-02 0. -1.
          2   -1    0    0  501    0  0.00000000000E+00 -0.00000000000E+00 -0.13969661774E+03  0.13969661776E+03  0.25500000000E-02 0.  1.
    5000001    1    1    2    0    0  0.19246097983E+02 -0.14729243641E+03  0.32584110346E+02  0.22439295523E+03  0.16500000000E+03 0.  0.
   -5000001    1    1    2    0    0 -0.19246097983E+02  0.14729243641E+03  0.23759626766E+03  0.32518065827E+03  0.16500000000E+03 0.  0.
<mgrwt>
<rscale>  0 0.47857468E+03</rscale>
<asrwt>0</asrwt>
<pdfrwt beam="1">  1        2 0.19956660E-01 0.47857468E+03</pdfrwt>
<pdfrwt beam="2">  1       -2 0.58553855E-01 0.47857468E+03</pdfrwt>
<totfact> 0.78036685E+02</totfact>
</mgrwt>
</event>
<event>
 4    1  0.1837449E-005  0.4980987E+03  0.7818608E-02  0.1014276E+00
         -2   -1    0    0    0  501 -0.00000000000E+00  0.00000000000E+00  0.44198194101E+02  0.44198194174E+02  0.25500000000E-02 0. -1.
          2   -1    0    0  501    0  0.00000000000E+00 -0.00000000000E+00 -0.14033512453E+04  0.14033512453E+04  0.25500000000E-02 0.  1.
    5000001    1    1    2    0    0 -0.16206368069E+03 -0.33656263952E+02 -0.42952587323E+03  0.48899371824E+03  0.16500000000E+03 0.  0.
   -5000001    1    1    2    0    0  0.16206368069E+03  0.33656263952E+02 -0.92962717798E+03  0.95855572125E+03  0.16500000000E+03 0.  0.
<mgrwt>
<rscale>  0 0.49809875E+03</rscale>
<asrwt>0</asrwt>
<pdfrwt beam="1">  1        2 0.20047872E+00 0.49809875E+03</pdfrwt>
<pdfrwt beam="2">  1       -2 0.63140286E-02 0.49809875E+03</pdfrwt>
<totfact> 0.23871594E+03</totfact>
</mgrwt>
</event>
<event>
 4    1  0.1837449E-005  0.5171068E+03  0.7818608E-02  0.1009408E+00
         -2   -1    0    0    0  501 -0.00000000000E+00  0.00000000000E+00  0.13422682303E+03  0.13422682306E+03  0.25500000000E-02 0. -1.
          2   -1    0    0  501    0  0.00000000000E+00 -0.00000000000E+00 -0.49803643083E+03  0.49803643083E+03  0.25500000000E-02 0.  1.
    5000001    1    1    2    0    0 -0.24222650827E+02  0.17736474557E+03 -0.75454165045E+02  0.25487903171E+03  0.16500000000E+03 0.  0.
   -5000001    1    1    2    0    0  0.24222650827E+02 -0.17736474557E+03 -0.28835544275E+03  0.37738422218E+03  0.16500000000E+03 0.  0.
<mgrwt>
<rscale>  0 0.51710675E+03</rscale>
<asrwt>0</asrwt>
<pdfrwt beam="1">  1        2 0.71148061E-01 0.51710675E+03</pdfrwt>
<pdfrwt beam="2">  1       -2 0.19175261E-01 0.51710675E+03</pdfrwt>
<totfact> 0.15456900E+03</totfact>
</mgrwt>
</event>
<event>
 4    1  0.1837449E-005  0.6458836E+03  0.7818608E-02  0.9814534E-01
         -2   -1    0    0    0  501 -0.00000000000E+00  0.00000000000E+00  0.63760775486E+02  0.63760775537E+02  0.25500000000E-02 0. -1.
          2   -1    0    0  501    0  0.00000000000E+00 -0.00000000000E+00 -0.16356669848E+04  0.16356669848E+04  0.25500000000E-02 0.  1.
    5000001    1    1    2    0    0  0.15205324373E+03  0.10474772336E+03 -0.13313993722E+04  0.13542309858E+04  0.16500000000E+03 0.  0.
   -5000001    1    1    2    0    0 -0.15205324373E+03 -0.10474772336E+03 -0.24050683706E+03  0.34519677454E+03  0.16500000000E+03 0.  0.
<mgrwt>
<rscale>  0 0.64588357E+03</rscale>
<asrwt>0</asrwt>
<pdfrwt beam="1">  1        2 0.23366669E+00 0.64588357E+03</pdfrwt>
<pdfrwt beam="2">  1       -2 0.91086832E-02 0.64588357E+03</pdfrwt>
<totfact> 0.10061566E+03</totfact>
</mgrwt>
</event>
<event>
 4    1  0.1837449E-005  0.4603804E+03  0.7818608E-02  0.1024671E+00
          2   -1    0    0  501    0  0.00000000000E+00  0.00000000000E+00  0.52119753879E+03  0.52119753879E+03  0.25500000000E-02 0.  1.
         -2   -1    0    0    0  501 -0.00000000000E+00 -0.00000000000E+00 -0.10166495995E+03  0.10166495998E+03  0.25500000000E-02 0. -1.
    5000001    1    1    2    0    0 -0.68032725007E+01 -0.14859809492E+03  0.12819853144E+03  0.25649082205E+03  0.16500000000E+03 0.  0.
   -5000001    1    1    2    0    0  0.68032725007E+01  0.14859809492E+03  0.29133404740E+03  0.36637167672E+03  0.16500000000E+03 0.  0.
<mgrwt>
<rscale>  0 0.46038039E+03</rscale>
<asrwt>0</asrwt>
<pdfrwt beam="1">  1        2 0.74456792E-01 0.46038039E+03</pdfrwt>
<pdfrwt beam="2">  1       -2 0.14523566E-01 0.46038039E+03</pdfrwt>
<totfact> 0.23502785E+03</totfact>
</mgrwt>
</event>
<event>
 4    1  0.1837449E-005  0.4953605E+03  0.7818608E-02  0.1014997E+00
         -2   -1    0    0    0  501 -0.00000000000E+00  0.00000000000E+00  0.36882310655E+02  0.36882310743E+02  0.25500000000E-02 0.  1.
          2   -1    0    0  501    0  0.00000000000E+00 -0.00000000000E+00 -0.16632769564E+04  0.16632769564E+04  0.25500000000E-02 0. -1.
    5000001    1    1    2    0    0 -0.10867670182E+03 -0.48983692810E+02 -0.12974912452E+04  0.13133615492E+04  0.16500000000E+03 0.  0.
   -5000001    1    1    2    0    0  0.10867670182E+03  0.48983692810E+02 -0.32890340056E+03  0.38679771791E+03  0.16500000000E+03 0.  0.
<mgrwt>
<rscale>  0 0.49536046E+03</rscale>
<asrwt>0</asrwt>
<pdfrwt beam="1">  1        2 0.23761095E+00 0.49536046E+03</pdfrwt>
<pdfrwt beam="2">  1       -2 0.52689026E-02 0.49536046E+03</pdfrwt>
<totfact> 0.23235934E+03</totfact>
</mgrwt>
</event>
<event>
 4    1  0.1837449E-005  0.5224384E+03  0.7818608E-02  0.1008083E+00
         -2   -1    0    0    0  501 -0.00000000000E+00  0.00000000000E+00  0.63791216045E+03  0.63791216046E+03  0.25500000000E-02 0. -1.
          2   -1    0    0  501    0  0.00000000000E+00 -0.00000000000E+00 -0.10696686907E+03  0.10696686910E+03  0.25500000000E-02 0.  1.
    5000001    1    1    2    0    0  0.39958663894E+02  0.16809235306E+03  0.11486115589E+03  0.26508455087E+03  0.16500000000E+03 0.  0.
   -5000001    1    1    2    0    0 -0.39958663894E+02 -0.16809235306E+03  0.41608413549E+03  0.47979447869E+03  0.16500000000E+03 0.  0.
<mgrwt>
<rscale>  0 0.52243839E+03</rscale>
<asrwt>0</asrwt>
<pdfrwt beam="1">  1        2 0.15280982E-01 0.52243839E+03</pdfrwt>
<pdfrwt beam="2">  1       -2 0.91130306E-01 0.52243839E+03</pdfrwt>
<totfact> 0.40665167E+02</totfact>
</mgrwt>
</event>
<event>
 4    1  0.1837449E-005  0.1103469E+04  0.7818608E-02  0.9201817E-01
          2   -1    0    0  501    0  0.00000000000E+00  0.00000000000E+00  0.33002886551E+04  0.33002886551E+04  0.25500000000E-02 0.  1.
         -2   -1    0    0    0  501 -0.00000000000E+00 -0.00000000000E+00 -0.92237702170E+02  0.92237702205E+02  0.25500000000E-02 0. -1.
    5000001    1    1    2    0    0 -0.36774028513E+03  0.27310415854E+03  0.80605389981E+03  0.94168290210E+03  0.16500000000E+03 0.  0.
   -5000001    1    1    2    0    0  0.36774028513E+03 -0.27310415854E+03  0.24019970532E+04  0.24508434552E+04  0.16500000000E+03 0.  0.
<mgrwt>
<rscale>  0 0.11034692E+04</rscale>
<asrwt>0</asrwt>
<pdfrwt beam="1">  1        2 0.47146976E+00 0.11034692E+04</pdfrwt>
<pdfrwt beam="2">  1       -2 0.13176816E-01 0.11034692E+04</pdfrwt>
<totfact> 0.70208114E+01</totfact>
</mgrwt>
</event>
<event>
 4    1  0.1837449E-005  0.6667991E+03  0.7818608E-02  0.9775758E-01
         -2   -1    0    0    0  501 -0.00000000000E+00  0.00000000000E+00  0.97523376408E+02  0.97523376442E+02  0.25500000000E-02 0. -1.
          2   -1    0    0  501    0  0.00000000000E+00 -0.00000000000E+00 -0.11397807075E+04  0.11397807075E+04  0.25500000000E-02 0.  1.
    5000001    1    1    2    0    0  0.28130754844E+03  0.49226505873E+02 -0.61152220195E+03  0.69479607740E+03  0.16500000000E+03 0.  0.
   -5000001    1    1    2    0    0 -0.28130754844E+03 -0.49226505873E+02 -0.43073512913E+03  0.54250800653E+03  0.16500000000E+03 0.  0.
<mgrwt>
<rscale>  0 0.66679911E+03</rscale>
<asrwt>0</asrwt>
<pdfrwt beam="1">  1        2 0.16282581E+00 0.66679911E+03</pdfrwt>
<pdfrwt beam="2">  1       -2 0.13931912E-01 0.66679911E+03</pdfrwt>
<totfact> 0.92457001E+02</totfact>
</mgrwt>
</event>
<event>
 4    1  0.1837449E-005  0.4539928E+03  0.7818608E-02  0.1026538E+00
         -2   -1    0    0    0  501 -0.00000000000E+00  0.00000000000E+00  0.81949841403E+02  0.81949841443E+02  0.25500000000E-02 0. -1.
          2   -1    0    0  501    0  0.00000000000E+00 -0.00000000000E+00 -0.62876717863E+03  0.62876717864E+03  0.25500000000E-02 0.  1.
    5000001    1    1    2    0    0 -0.14401522419E+03 -0.16986832758E+02 -0.36297596758E+03  0.42427053907E+03  0.16500000000E+03 0.  0.
   -5000001    1    1    2    0    0  0.14401522419E+03  0.16986832758E+02 -0.18384136965E+03  0.28644648101E+03  0.16500000000E+03 0.  0.
<mgrwt>
<rscale>  0 0.45399282E+03</rscale>
<asrwt>0</asrwt>
<pdfrwt beam="1">  1        2 0.89823880E-01 0.45399282E+03</pdfrwt>
<pdfrwt beam="2">  1       -2 0.11707121E-01 0.45399282E+03</pdfrwt>
<totfact> 0.27000637E+03</totfact>
</mgrwt>
</event>
<event>
 4    1  0.1837449E-005  0.3934114E+03  0.7818608E-02  0.1046085E+00
          2   -1    0    0  501    0  0.00000000000E+00  0.00000000000E+00  0.70571251372E+02  0.70571251418E+02  0.25500000000E-02 0.  1.
         -2   -1    0    0    0  501 -0.00000000000E+00 -0.00000000000E+00 -0.54828472061E+03  0.54828472062E+03  0.25500000000E-02 0. -1.
    5000001    1    1    2    0    0  0.10378285039E+03 -0.17141764664E+01 -0.28030654800E+03  0.34142433903E+03  0.16500000000E+03 0.  0.
   -5000001    1    1    2    0    0 -0.10378285039E+03  0.17141764664E+01 -0.19740692125E+03  0.27743163300E+03  0.16500000000E+03 0.  0.
<mgrwt>
<rscale>  0 0.39341143E+03</rscale>
<asrwt>0</asrwt>
<pdfrwt beam="1">  1        2 0.10081608E-01 0.39341143E+03</pdfrwt>
<pdfrwt beam="2">  1       -2 0.78326386E-01 0.39341143E+03</pdfrwt>
<totfact> 0.95391852E+02</totfact>
</mgrwt>
</event>
<event>
 4    1  0.1837449E-005  0.3639263E+03  0.7818608E-02  0.1057040E+00
          2   -1    0    0  501    0  0.00000000000E+00  0.00000000000E+00  0.28483014842E+03  0.28483014843E+03  0.25500000000E-02 0. -1.
         -2   -1    0    0    0  501 -0.00000000000E+00 -0.00000000000E+00 -0.11624680898E+03  0.11624680901E+03  0.25500000000E-02 0.  1.
    5000001    1    1    2    0    0 -0.50915766208E+02 -0.53076159983E+02  0.10833884981E+03  0.21064614970E+03  0.16500000000E+03 0.  0.
   -5000001    1    1    2    0    0  0.50915766208E+02  0.53076159983E+02  0.60244489630E+02  0.19043080774E+03  0.16500000000E+03 0.  0.
<mgrwt>
<rscale>  0 0.36392634E+03</rscale>
<asrwt>0</asrwt>
<pdfrwt beam="1">  1        2 0.40690021E-01 0.36392634E+03</pdfrwt>
<pdfrwt beam="2">  1       -2 0.16606687E-01 0.36392634E+03</pdfrwt>
<totfact> 0.36379995E+03</totfact>
</mgrwt>
</event>
<event>
 4    1  0.1837449E-005  0.4227891E+03  0.7818608E-02  0.1036162E+00
          2   -1    0    0  501    0  0.00000000000E+00  0.00000000000E+00  0.60081463652E+03  0.60081463653E+03  0.25500000000E-02 0.  1.
         -2   -1    0    0    0  501 -0.00000000000E+00 -0.00000000000E+00 -0.74378446748E+02  0.74378446791E+02  0.25500000000E-02 0. -1.
    5000001    1    1    2    0    0 -0.12666229008E+03 -0.29138334100E+02  0.22508090227E+03  0.30786164232E+03  0.16500000000E+03 0.  0.
   -5000001    1    1    2    0    0  0.12666229008E+03  0.29138334100E+02  0.30135528750E+03  0.36733144100E+03  0.16500000000E+03 0.  0.
<mgrwt>
<rscale>  0 0.42278912E+03</rscale>
<asrwt>0</asrwt>
<pdfrwt beam="1">  1        2 0.85830661E-01 0.42278912E+03</pdfrwt>
<pdfrwt beam="2">  1       -2 0.10625493E-01 0.42278912E+03</pdfrwt>
<totfact> 0.33302482E+03</totfact>
</mgrwt>
</event>
<event>
 4    1  0.1837449E-005  0.5792399E+03  0.7818608E-02  0.9949438E-01
          2   -1    0    0  501    0  0.00000000000E+00  0.00000000000E+00  0.17896972169E+03  0.17896972170E+03  0.25500000000E-02 0.  1.
         -2   -1    0    0    0  501 -0.00000000000E+00 -0.00000000000E+00 -0.46868098070E+03  0.46868098071E+03  0.25500000000E-02 0. -1.
    5000001    1    1    2    0    0 -0.13008317459E+03 -0.19584789423E+03 -0.10336996372E+03  0.30526771756E+03  0.16500000000E+03 0.  0.
   -5000001    1    1    2    0    0  0.13008317459E+03  0.19584789423E+03 -0.18634129529E+03  0.34238298485E+03  0.16500000000E+03 0.  0.
<mgrwt>
<rscale>  0 0.57923986E+03</rscale>
<asrwt>0</asrwt>
<pdfrwt beam="1">  1        2 0.25567103E-01 0.57923986E+03</pdfrwt>
<pdfrwt beam="2">  1       -2 0.66954425E-01 0.57923986E+03</pdfrwt>
<totfact> 0.44132395E+02</totfact>
</mgrwt>
</event>
<event>
 4    1  0.1837449E-005  0.4560437E+03  0.7818608E-02  0.1025935E+00
         -2   -1    0    0    0  501 -0.00000000000E+00  0.00000000000E+00  0.21018922905E+02  0.21018923059E+02  0.25500000000E-02 0. -1.
          2   -1    0    0  501    0  0.00000000000E+00 -0.00000000000E+00 -0.24736736248E+04  0.24736736248E+04  0.25500000000E-02 0.  1.
    5000001    1    1    2    0    0  0.15387803477E+03 -0.22058341810E+02 -0.13607603355E+04  0.13795139401E+04  0.16500000000E+03 0.  0.
   -5000001    1    1    2    0    0 -0.15387803477E+03  0.22058341810E+02 -0.10918943663E+04  0.11151786078E+04  0.16500000000E+03 0.  0.
<mgrwt>
<rscale>  0 0.45604366E+03</rscale>
<asrwt>0</asrwt>
<pdfrwt beam="1">  1        2 0.35338176E+00 0.45604366E+03</pdfrwt>
<pdfrwt beam="2">  1       -2 0.30027049E-02 0.45604366E+03</pdfrwt>
<totfact> 0.21577806E+03</totfact>
</mgrwt>
</event>
<event>
 4    1  0.1837449E-005  0.5837021E+03  0.7818608E-02  0.9939808E-01
         -2   -1    0    0    0  501 -0.00000000000E+00  0.00000000000E+00  0.33676555388E+03  0.33676555389E+03  0.25500000000E-02 0. -1.
          2   -1    0    0  501    0  0.00000000000E+00 -0.00000000000E+00 -0.25292680916E+03  0.25292680917E+03  0.25500000000E-02 0.  1.
    5000001    1    1    2    0    0  0.22026895921E+03 -0.50670298655E+01 -0.56070613056E+02  0.28091458281E+03  0.16500000000E+03 0.  0.
   -5000001    1    1    2    0    0 -0.22026895921E+03  0.50670298655E+01  0.13990935777E+03  0.30877778025E+03  0.16500000000E+03 0.  0.
<mgrwt>
<rscale>  0 0.58370211E+03</rscale>
<asrwt>0</asrwt>
<pdfrwt beam="1">  1        2 0.36132401E-01 0.58370211E+03</pdfrwt>
<pdfrwt beam="2">  1       -2 0.48109365E-01 0.58370211E+03</pdfrwt>
<totfact> 0.59483731E+02</totfact>
</mgrwt>
</event>
<event>
 4    1  0.1837449E-005  0.4494954E+03  0.7818608E-02  0.1027873E+00
         -2   -1    0    0    0  501 -0.00000000000E+00  0.00000000000E+00  0.36743990914E+03  0.36743990915E+03  0.25500000000E-02 0. -1.
          2   -1    0    0  501    0  0.00000000000E+00 -0.00000000000E+00 -0.13746884054E+03  0.13746884056E+03  0.25500000000E-02 0.  1.
    5000001    1    1    2    0    0 -0.14174725812E+03 -0.55041868134E+02  0.10057224841E+03  0.24588954753E+03  0.16500000000E+03 0.  0.
   -5000001    1    1    2    0    0  0.14174725812E+03  0.55041868134E+02  0.12939882019E+03  0.25901920218E+03  0.16500000000E+03 0.  0.
<mgrwt>
<rscale>  0 0.44949544E+03</rscale>
<asrwt>0</asrwt>
<pdfrwt beam="1">  1        2 0.19638406E-01 0.44949544E+03</pdfrwt>
<pdfrwt beam="2">  1       -2 0.52491414E-01 0.44949544E+03</pdfrwt>
<totfact> 0.99562835E+02</totfact>
</mgrwt>
</event>
<event>
 4    1  0.1837449E-005  0.6251212E+03  0.7818608E-02  0.9854616E-01
         -2   -1    0    0    0  501 -0.00000000000E+00  0.00000000000E+00  0.51919766621E+02  0.51919766684E+02  0.25500000000E-02 0. -1.
          2   -1    0    0  501    0  0.00000000000E+00 -0.00000000000E+00 -0.18816365006E+04  0.18816365006E+04  0.25500000000E-02 0.  1.
    5000001    1    1    2    0    0  0.14997990978E+02 -0.21050248879E+03 -0.41675663498E+03  0.49542641261E+03  0.16500000000E+03 0.  0.
   -5000001    1    1    2    0    0 -0.14997990978E+02  0.21050248879E+03 -0.14129600990E+04  0.14381298546E+04  0.16500000000E+03 0.  0.
<mgrwt>
<rscale>  0 0.62512120E+03</rscale>
<asrwt>0</asrwt>
<pdfrwt beam="1">  1        2 0.26880517E+00 0.62512120E+03</pdfrwt>
<pdfrwt beam="2">  1       -2 0.74171107E-02 0.62512120E+03</pdfrwt>
<totfact> 0.10492350E+03</totfact>
</mgrwt>
</event>
<event>
 4    1  0.1837449E-005  0.1523605E+04  0.7818608E-02  0.8868906E-01
          2   -1    0    0  501    0  0.00000000000E+00  0.00000000000E+00  0.48018483091E+03  0.48018483091E+03  0.25500000000E-02 0.  1.
         -2   -1    0    0    0  501 -0.00000000000E+00 -0.00000000000E+00 -0.12085824901E+04  0.12085824901E+04  0.25500000000E-02 0. -1.
    5000001    1    1    2    0    0 -0.69478866124E+03 -0.24382580472E+03 -0.48010863791E+03  0.89437777870E+03  0.16500000000E+03 0.  0.
   -5000001    1    1    2    0    0  0.69478866124E+03  0.24382580472E+03 -0.24828902126E+03  0.79438954230E+03  0.16500000000E+03 0.  0.
<mgrwt>
<rscale>  0 0.15236049E+04</rscale>
<asrwt>0</asrwt>
<pdfrwt beam="1">  1        2 0.68597833E-01 0.15236049E+04</pdfrwt>
<pdfrwt beam="2">  1       -2 0.17265464E+00 0.15236049E+04</pdfrwt>
<totfact> 0.13858562E+01</totfact>
</mgrwt>
</event>
<event>
 4    1  0.1837449E-005  0.4672059E+03  0.7818608E-02  0.1022712E+00
         -2   -1    0    0    0  501 -0.00000000000E+00  0.00000000000E+00  0.39393337675E+02  0.39393337758E+02  0.25500000000E-02 0. -1.
          2   -1    0    0  501    0  0.00000000000E+00 -0.00000000000E+00 -0.13852683701E+04  0.13852683701E+04  0.25500000000E-02 0.  1.
    5000001    1    1    2    0    0 -0.11423160853E+03  0.11906398369E+03 -0.63949878409E+03  0.68074135136E+03  0.16500000000E+03 0.  0.
   -5000001    1    1    2    0    0  0.11423160853E+03 -0.11906398369E+03 -0.70637624830E+03  0.74392035647E+03  0.16500000000E+03 0.  0.
<mgrwt>
<rscale>  0 0.46720593E+03</rscale>
<asrwt>0</asrwt>
<pdfrwt beam="1">  1        2 0.19789545E+00 0.46720593E+03</pdfrwt>
<pdfrwt beam="2">  1       -2 0.56276205E-02 0.46720593E+03</pdfrwt>
<totfact> 0.29202093E+03</totfact>
</mgrwt>
</event>
<event>
 4    1  0.1837449E-005  0.4042008E+03  0.7818608E-02  0.1042335E+00
          2   -1    0    0  501    0  0.00000000000E+00  0.00000000000E+00  0.66478805695E+03  0.66478805696E+03  0.25500000000E-02 0.  1.
         -2   -1    0    0    0  501 -0.00000000000E+00 -0.00000000000E+00 -0.61439996817E+02  0.61439996870E+02  0.25500000000E-02 0. -1.
    5000001    1    1    2    0    0  0.57239184242E+02  0.87212792144E+02  0.20767409114E+03  0.28501916332E+03  0.16500000000E+03 0.  0.
   -5000001    1    1    2    0    0 -0.57239184242E+02 -0.87212792144E+02  0.39567396899E+03  0.44120889051E+03  0.16500000000E+03 0.  0.
<mgrwt>
<rscale>  0 0.40420082E+03</rscale>
<asrwt>0</asrwt>
<pdfrwt beam="1">  1        2 0.94969729E-01 0.40420082E+03</pdfrwt>
<pdfrwt beam="2">  1       -2 0.87771418E-02 0.40420082E+03</pdfrwt>
<totfact> 0.40135258E+03</totfact>
</mgrwt>
</event>
<event>
 4    1  0.1837449E-005  0.6367473E+03  0.7818608E-02  0.9831970E-01
         -2   -1    0    0    0  501 -0.00000000000E+00  0.00000000000E+00  0.32136155285E+03  0.32136155286E+03  0.25500000000E-02 0. -1.
          2   -1    0    0  501    0  0.00000000000E+00 -0.00000000000E+00 -0.31541350715E+03  0.31541350716E+03  0.25500000000E-02 0.  1.
    5000001    1    1    2    0    0 -0.41218821669E+02  0.26704187229E+03 -0.30589646980E+02  0.31807401547E+03  0.16500000000E+03 0.  0.
   -5000001    1    1    2    0    0  0.41218821669E+02 -0.26704187229E+03  0.36537692676E+02  0.31870104456E+03  0.16500000000E+03 0.  0.
<mgrwt>
<rscale>  0 0.63674728E+03</rscale>
<asrwt>0</asrwt>
<pdfrwt beam="1">  1        2 0.45059073E-01 0.63674728E+03</pdfrwt>
<pdfrwt beam="2">  1       -2 0.45908793E-01 0.63674728E+03</pdfrwt>
<totfact> 0.51123025E+02</totfact>
</mgrwt>
</event>
<event>
 4    1  0.1837449E-005  0.5756484E+03  0.7818608E-02  0.9957257E-01
          2   -1    0    0  501    0  0.00000000000E+00  0.00000000000E+00  0.20088913899E+04  0.20088913899E+04  0.25500000000E-02 0.  1.
         -2   -1    0    0    0  501 -0.00000000000E+00 -0.00000000000E+00 -0.41238051398E+02  0.41238051477E+02  0.25500000000E-02 0. -1.
    5000001    1    1    2    0    0  0.81216075559E+02 -0.15768672590E+03  0.43029560043E+03  0.49380204354E+03  0.16500000000E+03 0.  0.
   -5000001    1    1    2    0    0 -0.81216075559E+02  0.15768672590E+03  0.15373577381E+04  0.15563273979E+04  0.16500000000E+03 0.  0.
<mgrwt>
<rscale>  0 0.57564839E+03</rscale>
<asrwt>0</asrwt>
<pdfrwt beam="1">  1        2 0.28698448E+00 0.57564839E+03</pdfrwt>
<pdfrwt beam="2">  1       -2 0.58911503E-02 0.57564839E+03</pdfrwt>
<totfact> 0.13049541E+03</totfact>
</mgrwt>
</event>
<event>
 4    1  0.1837449E-005  0.4454715E+03  0.7818608E-02  0.1029081E+00
         -2   -1    0    0    0  501 -0.00000000000E+00  0.00000000000E+00  0.12151996128E+03  0.12151996131E+03  0.25500000000E-02 0. -1.
          2   -1    0    0  501    0  0.00000000000E+00 -0.00000000000E+00 -0.40825576319E+03  0.40825576320E+03  0.25500000000E-02 0.  1.
    5000001    1    1    2    0    0 -0.12948390297E+03 -0.27161366379E+02 -0.60270216278E+02  0.21991207316E+03  0.16500000000E+03 0.  0.
   -5000001    1    1    2    0    0  0.12948390297E+03  0.27161366379E+02 -0.22646558563E+03  0.30986365135E+03  0.16500000000E+03 0.  0.
<mgrwt>
<rscale>  0 0.44547155E+03</rscale>
<asrwt>0</asrwt>
<pdfrwt beam="1">  1        2 0.58322251E-01 0.44547155E+03</pdfrwt>
<pdfrwt beam="2">  1       -2 0.17359995E-01 0.44547155E+03</pdfrwt>
<totfact> 0.22855044E+03</totfact>
</mgrwt>
</event>
<event>
 4    1  0.1837449E-005  0.5715543E+03  0.7818608E-02  0.9966245E-01
          2   -1    0    0  501    0  0.00000000000E+00  0.00000000000E+00  0.58995335711E+03  0.58995335712E+03  0.25500000000E-02 0.  1.
         -2   -1    0    0    0  501 -0.00000000000E+00 -0.00000000000E+00 -0.13843224268E+03  0.13843224270E+03  0.25500000000E-02 0. -1.
    5000001    1    1    2    0    0 -0.12322379749E+03 -0.19102880317E+03  0.15871894640E+03  0.32263417651E+03  0.16500000000E+03 0.  0.
   -5000001    1    1    2    0    0  0.12322379749E+03  0.19102880317E+03  0.29280216804E+03  0.40575142331E+03  0.16500000000E+03 0.  0.
<mgrwt>
<rscale>  0 0.57155425E+03</rscale>
<asrwt>0</asrwt>
<pdfrwt beam="1">  1        2 0.84279051E-01 0.57155425E+03</pdfrwt>
<pdfrwt beam="2">  1       -2 0.19776035E-01 0.57155425E+03</pdfrwt>
<totfact> 0.12057546E+03</totfact>
</mgrwt>
</event>
<event>
 4    1  0.1837449E-005  0.4236372E+03  0.7818608E-02  0.1035889E+00
          2   -1    0    0  501    0  0.00000000000E+00  0.00000000000E+00  0.11817049910E+04  0.11817049910E+04  0.25500000000E-02 0.  1.
         -2   -1    0    0    0  501 -0.00000000000E+00 -0.00000000000E+00 -0.37968129799E+02  0.37968129885E+02  0.25500000000E-02 0. -1.
    5000001    1    1    2    0    0  0.11632151386E+03 -0.61127979047E+02  0.62760644621E+03  0.66210435411E+03  0.16500000000E+03 0.  0.
   -5000001    1    1    2    0    0 -0.11632151386E+03  0.61127979047E+02  0.51613041501E+03  0.55756876679E+03  0.16500000000E+03 0.  0.
<mgrwt>
<rscale>  0 0.42363724E+03</rscale>
<asrwt>0</asrwt>
<pdfrwt beam="1">  1        2 0.16881500E+00 0.42363724E+03</pdfrwt>
<pdfrwt beam="2">  1       -2 0.54240184E-02 0.42363724E+03</pdfrwt>
<totfact> 0.39828747E+03</totfact>
</mgrwt>
</event>
<event>
 4    1  0.1837449E-005  0.5090180E+03  0.7818608E-02  0.1011452E+00
          2   -1    0    0  501    0  0.00000000000E+00  0.00000000000E+00  0.12399174756E+04  0.12399174756E+04  0.25500000000E-02 0. -1.
         -2   -1    0    0    0  501 -0.00000000000E+00 -0.00000000000E+00 -0.52241236948E+02  0.52241237010E+02  0.25500000000E-02 0.  1.
    5000001    1    1    2    0    0 -0.31996492158E+02 -0.14810511289E+03  0.90047481523E+03  0.92792176008E+03  0.16500000000E+03 0.  0.
   -5000001    1    1    2    0    0  0.31996492158E+02  0.14810511289E+03  0.28720142345E+03  0.36423695255E+03  0.16500000000E+03 0.  0.
<mgrwt>
<rscale>  0 0.50901797E+03</rscale>
<asrwt>0</asrwt>
<pdfrwt beam="1">  1        2 0.17713106E+00 0.50901797E+03</pdfrwt>
<pdfrwt beam="2">  1       -2 0.74630342E-02 0.50901797E+03</pdfrwt>
<totfact> 0.22466297E+03</totfact>
</mgrwt>
</event>
<event>
 4    1  0.1837449E-005  0.5427863E+03  0.7818608E-02  0.1003178E+00
         -2   -1    0    0    0  501 -0.00000000000E+00  0.00000000000E+00  0.33891871410E+02  0.33891871506E+02  0.25500000000E-02 0. -1.
          2   -1    0    0  501    0  0.00000000000E+00 -0.00000000000E+00 -0.21732123006E+04  0.21732123006E+04  0.25500000000E-02 0.  1.
    5000001    1    1    2    0    0  0.47462245670E+02 -0.14659037286E+03 -0.16821381686E+04  0.16972198503E+04  0.16500000000E+03 0.  0.
   -5000001    1    1    2    0    0 -0.47462245670E+02  0.14659037286E+03 -0.45718226066E+03  0.50988432183E+03  0.16500000000E+03 0.  0.
<mgrwt>
<rscale>  0 0.54278626E+03</rscale>
<asrwt>0</asrwt>
<pdfrwt beam="1">  1        2 0.31045881E+00 0.54278626E+03</pdfrwt>
<pdfrwt beam="2">  1       -2 0.48416973E-02 0.54278626E+03</pdfrwt>
<totfact> 0.14669162E+03</totfact>
</mgrwt>
</event>
<event>
 4    1  0.1837449E-005  0.3996576E+03  0.7818608E-02  0.1043898E+00
          2   -1    0    0  501    0  0.00000000000E+00  0.00000000000E+00  0.46595254948E+03  0.46595254949E+03  0.25500000000E-02 0.  1.
         -2   -1    0    0    0  501 -0.00000000000E+00 -0.00000000000E+00 -0.85698743517E+02  0.85698743555E+02  0.25500000000E-02 0. -1.
    5000001    1    1    2    0    0 -0.68686796678E+02 -0.81106657750E+02  0.13828929408E+03  0.24009392918E+03  0.16500000000E+03 0.  0.
   -5000001    1    1    2    0    0  0.68686796678E+02  0.81106657750E+02  0.24196451188E+03  0.31155736386E+03  0.16500000000E+03 0.  0.
<mgrwt>
<rscale>  0 0.39965759E+03</rscale>
<asrwt>0</asrwt>
<pdfrwt beam="1">  1        2 0.66564648E-01 0.39965759E+03</pdfrwt>
<pdfrwt beam="2">  1       -2 0.12242678E-01 0.39965759E+03</pdfrwt>
<totfact> 0.35269654E+03</totfact>
</mgrwt>
</event>
<event>
 4    1  0.1837449E-005  0.9451933E+03  0.7818608E-02  0.9370787E-01
         -2   -1    0    0    0  501 -0.00000000000E+00  0.00000000000E+00  0.10526486778E+03  0.10526486782E+03  0.25500000000E-02 0. -1.
          2   -1    0    0  501    0  0.00000000000E+00 -0.00000000000E+00 -0.21217677545E+04  0.21217677545E+04  0.25500000000E-02 0.  1.
    5000001    1    1    2    0    0  0.40657514358E+03 -0.15466809818E+03 -0.12039272469E+04  0.12906941481E+04  0.16500000000E+03 0.  0.
   -5000001    1    1    2    0    0 -0.40657514358E+03  0.15466809818E+03 -0.81257563975E+03  0.93633847421E+03  0.16500000000E+03 0.  0.
<mgrwt>
<rscale>  0 0.94519332E+03</rscale>
<asrwt>0</asrwt>
<pdfrwt beam="1">  1        2 0.30310965E+00 0.94519332E+03</pdfrwt>
<pdfrwt beam="2">  1       -2 0.15037840E-01 0.94519332E+03</pdfrwt>
<totfact> 0.24414641E+02</totfact>
</mgrwt>
</event>
<event>
 4    1  0.1837449E-005  0.3596279E+03  0.7818608E-02  0.1058731E+00
         -2   -1    0    0    0  501 -0.00000000000E+00  0.00000000000E+00  0.14437363278E+02  0.14437363503E+02  0.25500000000E-02 0. -1.
          2   -1    0    0  501    0  0.00000000000E+00 -0.00000000000E+00 -0.22395403742E+04  0.22395403742E+04  0.25500000000E-02 0.  1.
    5000001    1    1    2    0    0 -0.69115341722E+02 -0.17787242908E+02 -0.10884873492E+04  0.11032329880E+04  0.16500000000E+03 0.  0.
   -5000001    1    1    2    0    0  0.69115341722E+02  0.17787242908E+02 -0.11366156617E+04  0.11507447497E+04  0.16500000000E+03 0.  0.
<mgrwt>
<rscale>  0 0.35962791E+03</rscale>
<asrwt>0</asrwt>
<pdfrwt beam="1">  1        2 0.31993412E+00 0.35962791E+03</pdfrwt>
<pdfrwt beam="2">  1       -2 0.20624819E-02 0.35962791E+03</pdfrwt>
<totfact> 0.49792419E+03</totfact>
</mgrwt>
</event>
<event>
 4    1  0.1837449E-005  0.1096519E+04  0.7818608E-02  0.9208591E-01
         -2   -1    0    0    0  501 -0.00000000000E+00  0.00000000000E+00  0.17508490646E+04  0.17508490646E+04  0.25500000000E-02 0. -1.
          2   -1    0    0  501    0  0.00000000000E+00 -0.00000000000E+00 -0.17168160639E+03  0.17168160641E+03  0.25500000000E-02 0.  1.
    5000001    1    1    2    0    0  0.59100234713E+02  0.45174559836E+03  0.12393210785E+04  0.13306797733E+04  0.16500000000E+03 0.  0.
   -5000001    1    1    2    0    0 -0.59100234713E+02 -0.45174559836E+03  0.33984637978E+03  0.59185089781E+03  0.16500000000E+03 0.  0.
<mgrwt>
<rscale>  0 0.10965192E+04</rscale>
<asrwt>0</asrwt>
<pdfrwt beam="1">  1        2 0.24525944E-01 0.10965192E+04</pdfrwt>
<pdfrwt beam="2">  1       -2 0.25012130E+00 0.10965192E+04</pdfrwt>
<totfact> 0.14368044E+01</totfact>
</mgrwt>
</event>
<event>
 4    1  0.1837449E-005  0.9037731E+03  0.7818608E-02  0.9420877E-01
         -2   -1    0    0    0  501 -0.00000000000E+00  0.00000000000E+00  0.73014071512E+02  0.73014071557E+02  0.25500000000E-02 0. -1.
          2   -1    0    0  501    0  0.00000000000E+00 -0.00000000000E+00 -0.27967408537E+04  0.27967408537E+04  0.25500000000E-02 0.  1.
    5000001    1    1    2    0    0 -0.33933166266E+03  0.35899257033E+02 -0.58057254947E+03  0.69334278617E+03  0.16500000000E+03 0.  0.
   -5000001    1    1    2    0    0  0.33933166266E+03 -0.35899257033E+02 -0.21431542328E+04  0.21764121391E+04  0.16500000000E+03 0.  0.
<mgrwt>
<rscale>  0 0.90377306E+03</rscale>
<asrwt>0</asrwt>
<pdfrwt beam="1">  1        2 0.39953434E+00 0.90377306E+03</pdfrwt>
<pdfrwt beam="2">  1       -2 0.10430583E-01 0.90377306E+03</pdfrwt>
<totfact> 0.20091013E+02</totfact>
</mgrwt>
</event>
<event>
 4    1  0.1837449E-005  0.7004124E+03  0.7818608E-02  0.9716527E-01
         -2   -1    0    0    0  501 -0.00000000000E+00  0.00000000000E+00  0.19795247916E+03  0.19795247918E+03  0.25500000000E-02 0.  1.
          2   -1    0    0  501    0  0.00000000000E+00 -0.00000000000E+00 -0.61956474995E+03  0.61956474995E+03  0.25500000000E-02 0. -1.
    5000001    1    1    2    0    0  0.13093767004E+03  0.97179533889E+02 -0.51702690235E+03  0.56668364454E+03  0.16500000000E+03 0.  0.
   -5000001    1    1    2    0    0 -0.13093767004E+03 -0.97179533889E+02  0.95414631563E+02  0.25083358459E+03  0.16500000000E+03 0.  0.
<mgrwt>
<rscale>  0 0.70041239E+03</rscale>
<asrwt>0</asrwt>
<pdfrwt beam="1">  1        2 0.88509249E-01 0.70041239E+03</pdfrwt>
<pdfrwt beam="2">  1       -2 0.28278926E-01 0.70041239E+03</pdfrwt>
<totfact> 0.59983573E+02</totfact>
</mgrwt>
</event>
<event>
 4    1  0.1837449E-005  0.4662275E+03  0.7818608E-02  0.1022990E+00
          2   -1    0    0  501    0  0.00000000000E+00  0.00000000000E+00  0.20040905536E+04  0.20040905536E+04  0.25500000000E-02 0.  1.
         -2   -1    0    0    0  501 -0.00000000000E+00 -0.00000000000E+00 -0.27115551098E+02  0.27115551218E+02  0.25500000000E-02 0. -1.
    5000001    1    1    2    0    0 -0.69435369043E+02 -0.14165045797E+03  0.78271094743E+03  0.81532051976E+03  0.16500000000E+03 0.  0.
   -5000001    1    1    2    0    0  0.69435369043E+02  0.14165045797E+03  0.11942640551E+04  0.12158855851E+04  0.16500000000E+03 0.  0.
<mgrwt>
<rscale>  0 0.46622750E+03</rscale>
<asrwt>0</asrwt>
<pdfrwt beam="1">  1        2 0.28629881E+00 0.46622750E+03</pdfrwt>
<pdfrwt beam="2">  1       -2 0.38736480E-02 0.46622750E+03</pdfrwt>
<totfact> 0.25183621E+03</totfact>
</mgrwt>
</event>
<event>
 4    1  0.1837449E-005  0.6597118E+03  0.7818608E-02  0.9788724E-01
         -2   -1    0    0    0  501 -0.00000000000E+00  0.00000000000E+00  0.14376575836E+03  0.14376575838E+03  0.25500000000E-02 0. -1.
          2   -1    0    0  501    0  0.00000000000E+00 -0.00000000000E+00 -0.75682079713E+03  0.75682079713E+03  0.25500000000E-02 0.  1.
    5000001    1    1    2    0    0  0.55611496568E+02 -0.26312889127E+03 -0.17523107633E+03  0.36091603190E+03  0.16500000000E+03 0.  0.
   -5000001    1    1    2    0    0 -0.55611496568E+02  0.26312889127E+03 -0.43782396244E+03  0.53967052361E+03  0.16500000000E+03 0.  0.
<mgrwt>
<rscale>  0 0.65971180E+03</rscale>
<asrwt>0</asrwt>
<pdfrwt beam="1">  1        2 0.10811725E+00 0.65971180E+03</pdfrwt>
<pdfrwt beam="2">  1       -2 0.20537966E-01 0.65971180E+03</pdfrwt>
<totfact> 0.83376469E+02</totfact>
</mgrwt>
</event>
<event>
 4    1  0.1837449E-005  0.7834354E+03  0.7818608E-02  0.9584308E-01
         -2   -1    0    0    0  501 -0.00000000000E+00  0.00000000000E+00  0.62044974346E+03  0.62044974346E+03  0.25500000000E-02 0. -1.
          2   -1    0    0  501    0  0.00000000000E+00 -0.00000000000E+00 -0.24730895211E+03  0.24730895212E+03  0.25500000000E-02 0.  1.
    5000001    1    1    2    0    0  0.28038600740E+03 -0.14065342988E+02  0.42772832714E+03  0.53757852344E+03  0.16500000000E+03 0.  0.
   -5000001    1    1    2    0    0 -0.28038600740E+03  0.14065342988E+02 -0.54587535796E+02  0.33018017215E+03  0.16500000000E+03 0.  0.
<mgrwt>
<rscale>  0 0.78343545E+03</rscale>
<asrwt>0</asrwt>
<pdfrwt beam="1">  1        2 0.35329851E-01 0.78343545E+03</pdfrwt>
<pdfrwt beam="2">  1       -2 0.88635676E-01 0.78343545E+03</pdfrwt>
<totfact> 0.16327557E+02</totfact>
</mgrwt>
</event>
<event>
 4    1  0.1837449E-005  0.8664645E+03  0.7818608E-02  0.9468501E-01
          2   -1    0    0  501    0  0.00000000000E+00  0.00000000000E+00  0.40107316835E+04  0.40107316835E+04  0.25500000000E-02 0.  1.
         -2   -1    0    0    0  501 -0.00000000000E+00 -0.00000000000E+00 -0.46796992789E+02  0.46796992858E+02  0.25500000000E-02 0. -1.
    5000001    1    1    2    0    0  0.33241118070E+03  0.58045303579E+02  0.29928433133E+04  0.30163226863E+04  0.16500000000E+03 0.  0.
   -5000001    1    1    2    0    0 -0.33241118070E+03 -0.58045303579E+02  0.97109137747E+03  0.10412059901E+04  0.16500000000E+03 0.  0.
<mgrwt>
<rscale>  0 0.86646450E+03</rscale>
<asrwt>0</asrwt>
<pdfrwt beam="1">  1        2 0.57296186E+00 0.86646450E+03</pdfrwt>
<pdfrwt beam="2">  1       -2 0.66852824E-02 0.86646450E+03</pdfrwt>
<totfact> 0.78419564E+01</totfact>
</mgrwt>
</event>
<event>
 4    1  0.1837449E-005  0.5964896E+03  0.7818608E-02  0.9912716E-01
          2   -1    0    0  501    0  0.00000000000E+00  0.00000000000E+00  0.13955459948E+04  0.13955459948E+04  0.25500000000E-02 0.  1.
         -2   -1    0    0    0  501 -0.00000000000E+00 -0.00000000000E+00 -0.63738467198E+02  0.63738467249E+02  0.25500000000E-02 0. -1.
    5000001    1    1    2    0    0  0.24641006996E+03  0.28268259535E+02  0.63062511692E+03  0.69744537791E+03  0.16500000000E+03 0.  0.
   -5000001    1    1    2    0    0 -0.24641006996E+03 -0.28268259535E+02  0.70118241067E+03  0.76183908413E+03  0.16500000000E+03 0.  0.
<mgrwt>
<rscale>  0 0.59648961E+03</rscale>
<asrwt>0</asrwt>
<pdfrwt beam="1">  1        2 0.19936373E+00 0.59648961E+03</pdfrwt>
<pdfrwt beam="2">  1       -2 0.91054944E-02 0.59648961E+03</pdfrwt>
<totfact> 0.13455290E+03</totfact>
</mgrwt>
</event>
<event>
 4    1  0.1837449E-005  0.5557469E+03  0.7818608E-02  0.1000172E+00
          2   -1    0    0  501    0  0.00000000000E+00  0.00000000000E+00  0.67373860498E+03  0.67373860499E+03  0.25500000000E-02 0.  1.
         -2   -1    0    0    0  501 -0.00000000000E+00 -0.00000000000E+00 -0.11460477371E+03  0.11460477374E+03  0.25500000000E-02 0. -1.
    5000001    1    1    2    0    0 -0.38271693599E+02  0.20986349697E+03  0.37452631704E+03  0.46152180019E+03  0.16500000000E+03 0.  0.
   -5000001    1    1    2    0    0  0.38271693599E+02 -0.20986349697E+03  0.18460751423E+03  0.32682157854E+03  0.16500000000E+03 0.  0.
<mgrwt>
<rscale>  0 0.55574692E+03</rscale>
<asrwt>0</asrwt>
<pdfrwt beam="1">  1        2 0.96248371E-01 0.55574692E+03</pdfrwt>
<pdfrwt beam="2">  1       -2 0.16372111E-01 0.55574692E+03</pdfrwt>
<totfact> 0.14242683E+03</totfact>
</mgrwt>
</event>
<event>
 4    1  0.1837449E-005  0.4817716E+03  0.7818608E-02  0.1018649E+00
          2   -1    0    0  501    0  0.00000000000E+00  0.00000000000E+00  0.24796314369E+04  0.24796314369E+04  0.25500000000E-02 0.  1.
         -2   -1    0    0    0  501 -0.00000000000E+00 -0.00000000000E+00 -0.23401050320E+02  0.23401050458E+02  0.25500000000E-02 0. -1.
    5000001    1    1    2    0    0  0.99520301059E+02  0.12945491883E+03  0.89389978621E+03  0.92355004961E+03  0.16500000000E+03 0.  0.
   -5000001    1    1    2    0    0 -0.99520301059E+02 -0.12945491883E+03  0.15623306003E+04  0.15794824377E+04  0.16500000000E+03 0.  0.
<mgrwt>
<rscale>  0 0.48177165E+03</rscale>
<asrwt>0</asrwt>
<pdfrwt beam="1">  1        2 0.35423312E+00 0.48177165E+03</pdfrwt>
<pdfrwt beam="2">  1       -2 0.33430066E-02 0.48177165E+03</pdfrwt>
<totfact> 0.18184476E+03</totfact>
</mgrwt>
</event>
<event>
 4    1  0.1837449E-005  0.3623322E+03  0.7818608E-02  0.1057664E+00
          2   -1    0    0  501    0  0.00000000000E+00  0.00000000000E+00  0.77510656592E+03  0.77510656592E+03  0.25500000000E-02 0.  1.
         -2   -1    0    0    0  501 -0.00000000000E+00 -0.00000000000E+00 -0.42344055525E+02  0.42344055602E+02  0.25500000000E-02 0. -1.
    5000001    1    1    2    0    0 -0.42635644284E+02  0.49175378170E+02  0.44958566198E+03  0.48330971793E+03  0.16500000000E+03 0.  0.
   -5000001    1    1    2    0    0  0.42635644284E+02 -0.49175378170E+02  0.28317684841E+03  0.33414090360E+03  0.16500000000E+03 0.  0.
<mgrwt>
<rscale>  0 0.36233220E+03</rscale>
<asrwt>0</asrwt>
<pdfrwt beam="1">  1        2 0.11072950E+00 0.36233220E+03</pdfrwt>
<pdfrwt beam="2">  1       -2 0.60491512E-02 0.36233220E+03</pdfrwt>
<totfact> 0.59574718E+03</totfact>
</mgrwt>
</event>
<event>
 4    1  0.1837449E-005  0.4761558E+03  0.7818608E-02  0.1020197E+00
         -2   -1    0    0    0  501 -0.00000000000E+00  0.00000000000E+00  0.13299784148E+02  0.13299784393E+02  0.25500000000E-02 0. -1.
          2   -1    0    0  501    0  0.00000000000E+00 -0.00000000000E+00 -0.42618041261E+04  0.42618041261E+04  0.25500000000E-02 0.  1.
    5000001    1    1    2    0    0  0.27811916173E+02 -0.10584792879E+03 -0.33112592403E+04  0.33171735021E+04  0.16500000000E+03 0.  0.
   -5000001    1    1    2    0    0 -0.27811916173E+02  0.10584792879E+03 -0.93724510160E+03  0.95793040832E+03  0.16500000000E+03 0.  0.
<mgrwt>
<rscale>  0 0.47615575E+03</rscale>
<asrwt>0</asrwt>
<pdfrwt beam="1">  1        2 0.60882829E+00 0.47615575E+03</pdfrwt>
<pdfrwt beam="2">  1       -2 0.18999719E-02 0.47615575E+03</pdfrwt>
<totfact> 0.38329070E+02</totfact>
</mgrwt>
</event>
<event>
 4    1  0.1837449E-005  0.3668785E+03  0.7818608E-02  0.1055893E+00
         -2   -1    0    0    0  501 -0.00000000000E+00  0.00000000000E+00  0.69336296414E+02  0.69336296461E+02  0.25500000000E-02 0. -1.
          2   -1    0    0  501    0  0.00000000000E+00 -0.00000000000E+00 -0.48531511638E+03  0.48531511639E+03  0.25500000000E-02 0.  1.
    5000001    1    1    2    0    0 -0.75393640909E+02  0.26153663163E+02 -0.19660177995E+03  0.26878518387E+03  0.16500000000E+03 0.  0.
   -5000001    1    1    2    0    0  0.75393640909E+02 -0.26153663163E+02 -0.21937704001E+03  0.28586622898E+03  0.16500000000E+03 0.  0.
<mgrwt>
<rscale>  0 0.36687847E+03</rscale>
<asrwt>0</asrwt>
<pdfrwt beam="1">  1        2 0.69330729E-01 0.36687847E+03</pdfrwt>
<pdfrwt beam="2">  1       -2 0.99051855E-02 0.36687847E+03</pdfrwt>
<totfact> 0.47389427E+03</totfact>
</mgrwt>
</event>
<event>
 4    1  0.1837449E-005  0.4147177E+03  0.7818608E-02  0.1038799E+00
         -2   -1    0    0    0  501 -0.00000000000E+00  0.00000000000E+00  0.13468173693E+03  0.13468173695E+03  0.25500000000E-02 0. -1.
          2   -1    0    0  501    0  0.00000000000E+00 -0.00000000000E+00 -0.31925404485E+03  0.31925404486E+03  0.25500000000E-02 0.  1.
    5000001    1    1    2    0    0 -0.45494945495E+02  0.55556714584E+02  0.20493171186E+02  0.18111131568E+03  0.16500000000E+03 0.  0.
   -5000001    1    1    2    0    0  0.45494945495E+02 -0.55556714584E+02 -0.20506547911E+03  0.27282446614E+03  0.16500000000E+03 0.  0.
<mgrwt>
<rscale>  0 0.41471768E+03</rscale>
<asrwt>0</asrwt>
<pdfrwt beam="1">  1        2 0.45607720E-01 0.41471768E+03</pdfrwt>
<pdfrwt beam="2">  1       -2 0.19240248E-01 0.41471768E+03</pdfrwt>
<totfact> 0.25077587E+03</totfact>
</mgrwt>
</event>
<event>
 4    1  0.1837449E-005  0.5097318E+03  0.7818608E-02  0.1011270E+00
         -2   -1    0    0    0  501 -0.00000000000E+00  0.00000000000E+00  0.14509090578E+04  0.14509090578E+04  0.25500000000E-02 0. -1.
          2   -1    0    0  501    0  0.00000000000E+00 -0.00000000000E+00 -0.44769611461E+02  0.44769611534E+02  0.25500000000E-02 0.  1.
    5000001    1    1    2    0    0  0.17576575033E+03 -0.25413302674E+02  0.47217233019E+03  0.53076467887E+03  0.16500000000E+03 0.  0.
   -5000001    1    1    2    0    0 -0.17576575033E+03  0.25413302674E+02  0.93396711612E+03  0.96491399044E+03  0.16500000000E+03 0.  0.
<mgrwt>
<rscale>  0 0.50973183E+03</rscale>
<asrwt>0</asrwt>
<pdfrwt beam="1">  1        2 0.63956586E-02 0.50973183E+03</pdfrwt>
<pdfrwt beam="2">  1       -2 0.20727273E+00 0.50973183E+03</pdfrwt>
<totfact> 0.14611785E+02</totfact>
</mgrwt>
</event>
<event>
 4    1  0.1837449E-005  0.6123446E+03  0.7818608E-02  0.9880121E-01
         -2   -1    0    0    0  501 -0.00000000000E+00  0.00000000000E+00  0.24341287960E+03  0.24341287962E+03  0.25500000000E-02 0. -1.
          2   -1    0    0  501    0  0.00000000000E+00 -0.00000000000E+00 -0.38511309689E+03  0.38511309690E+03  0.25500000000E-02 0.  1.
    5000001    1    1    2    0    0  0.14926092597E+03  0.10270583354E+03 -0.25924646820E+03  0.35673665853E+03  0.16500000000E+03 0.  0.
   -5000001    1    1    2    0    0 -0.14926092597E+03 -0.10270583354E+03  0.11754625091E+03  0.27178931798E+03  0.16500000000E+03 0.  0.
<mgrwt>
<rscale>  0 0.61234463E+03</rscale>
<asrwt>0</asrwt>
<pdfrwt beam="1">  1        2 0.55016156E-01 0.61234463E+03</pdfrwt>
<pdfrwt beam="2">  1       -2 0.34773269E-01 0.61234463E+03</pdfrwt>
<totfact> 0.70341812E+02</totfact>
</mgrwt>
</event>
<event>
 4    1  0.1837449E-005  0.5501955E+03  0.7818608E-02  0.1001449E+00
          2   -1    0    0  501    0  0.00000000000E+00  0.00000000000E+00  0.26608174152E+04  0.26608174152E+04  0.25500000000E-02 0.  1.
         -2   -1    0    0    0  501 -0.00000000000E+00 -0.00000000000E+00 -0.28441924678E+02  0.28441924792E+02  0.25500000000E-02 0. -1.
    5000001    1    1    2    0    0 -0.10630021273E+02  0.21708579144E+03  0.14865290099E+04  0.15113678359E+04  0.16500000000E+03 0.  0.
   -5000001    1    1    2    0    0  0.10630021273E+02 -0.21708579144E+03  0.11458464807E+04  0.11778915041E+04  0.16500000000E+03 0.  0.
<mgrwt>
<rscale>  0 0.55019549E+03</rscale>
<asrwt>0</asrwt>
<pdfrwt beam="1">  1        2 0.38011650E+00 0.55019549E+03</pdfrwt>
<pdfrwt beam="2">  1       -2 0.40631350E-02 0.55019549E+03</pdfrwt>
<totfact> 0.10844767E+03</totfact>
</mgrwt>
</event>
<event>
 4    1  0.1837449E-005  0.6207455E+03  0.7818608E-02  0.9863277E-01
          2   -1    0    0  501    0  0.00000000000E+00  0.00000000000E+00  0.10429840691E+04  0.10429840691E+04  0.25500000000E-02 0.  1.
         -2   -1    0    0    0  501 -0.00000000000E+00 -0.00000000000E+00 -0.92361173974E+02  0.92361174009E+02  0.25500000000E-02 0. -1.
    5000001    1    1    2    0    0 -0.13692389743E+03 -0.14962418083E+03  0.78120190715E+03  0.82379425156E+03  0.16500000000E+03 0.  0.
   -5000001    1    1    2    0    0  0.13692389743E+03  0.14962418083E+03  0.16942098800E+03  0.31155099157E+03  0.16500000000E+03 0.  0.
<mgrwt>
<rscale>  0 0.62074547E+03</rscale>
<asrwt>0</asrwt>
<pdfrwt beam="1">  1        2 0.14899772E+00 0.62074547E+03</pdfrwt>
<pdfrwt beam="2">  1       -2 0.13194454E-01 0.62074547E+03</pdfrwt>
<totfact> 0.11550677E+03</totfact>
</mgrwt>
</event>
<event>
 4    1  0.1837449E-005  0.6057965E+03  0.7818608E-02  0.9893453E-01
          2   -1    0    0  501    0  0.00000000000E+00  0.00000000000E+00  0.10063250428E+04  0.10063250428E+04  0.25500000000E-02 0.  1.
         -2   -1    0    0    0  501 -0.00000000000E+00 -0.00000000000E+00 -0.91170687942E+02  0.91170687978E+02  0.25500000000E-02 0. -1.
    5000001    1    1    2    0    0 -0.14857779810E+03  0.16459397993E+03  0.23307921783E+03  0.36154869949E+03  0.16500000000E+03 0.  0.
   -5000001    1    1    2    0    0  0.14857779810E+03 -0.16459397993E+03  0.68207513705E+03  0.73594703131E+03  0.16500000000E+03 0.  0.
<mgrwt>
<rscale>  0 0.60579649E+03</rscale>
<asrwt>0</asrwt>
<pdfrwt beam="1">  1        2 0.14376071E+00 0.60579649E+03</pdfrwt>
<pdfrwt beam="2">  1       -2 0.13024385E-01 0.60579649E+03</pdfrwt>
<totfact> 0.12422423E+03</totfact>
</mgrwt>
</event>
<event>
 4    1  0.1837449E-005  0.5397339E+03  0.7818608E-02  0.1003898E+00
         -2   -1    0    0    0  501 -0.00000000000E+00  0.00000000000E+00  0.49534128412E+02  0.49534128478E+02  0.25500000000E-02 0. -1.
          2   -1    0    0  501    0  0.00000000000E+00 -0.00000000000E+00 -0.14702624955E+04  0.14702624955E+04  0.25500000000E-02 0.  1.
    5000001    1    1    2    0    0 -0.19896224209E+03  0.17760203923E+01 -0.49199615575E+03  0.55576464920E+03  0.16500000000E+03 0.  0.
   -5000001    1    1    2    0    0  0.19896224209E+03 -0.17760203923E+01 -0.92873221131E+03  0.96403197475E+03  0.16500000000E+03 0.  0.
<mgrwt>
<rscale>  0 0.53973390E+03</rscale>
<asrwt>0</asrwt>
<pdfrwt beam="1">  1        2 0.21003747E+00 0.53973390E+03</pdfrwt>
<pdfrwt beam="2">  1       -2 0.70763050E-02 0.53973390E+03</pdfrwt>
<totfact> 0.18393227E+03</totfact>
</mgrwt>
</event>
<event>
 4    1  0.1837449E-005  0.5004799E+03  0.7818608E-02  0.1013654E+00
          2   -1    0    0  501    0  0.00000000000E+00  0.00000000000E+00  0.97856218885E+03  0.97856218885E+03  0.25500000000E-02 0.  1.
         -2   -1    0    0    0  501 -0.00000000000E+00 -0.00000000000E+00 -0.63991880596E+02  0.63991880646E+02  0.25500000000E-02 0. -1.
    5000001    1    1    2    0    0 -0.96557700355E+01 -0.14921242364E+03  0.21943232234E+03  0.31262297636E+03  0.16500000000E+03 0.  0.
   -5000001    1    1    2    0    0  0.96557700355E+01  0.14921242364E+03  0.69513798592E+03  0.72993109314E+03  0.16500000000E+03 0.  0.
<mgrwt>
<rscale>  0 0.50047991E+03</rscale>
<asrwt>0</asrwt>
<pdfrwt beam="1">  1        2 0.13979461E+00 0.50047991E+03</pdfrwt>
<pdfrwt beam="2">  1       -2 0.91416965E-02 0.50047991E+03</pdfrwt>
<totfact> 0.23029971E+03</totfact>
</mgrwt>
</event>
<event>
 4    1  0.1837449E-005  0.4200580E+03  0.7818608E-02  0.1037047E+00
          2   -1    0    0  501    0  0.00000000000E+00  0.00000000000E+00  0.29319488997E+03  0.29319488998E+03  0.25500000000E-02 0.  1.
         -2   -1    0    0    0  501 -0.00000000000E+00 -0.00000000000E+00 -0.15045341058E+03  0.15045341060E+03  0.25500000000E-02 0. -1.
    5000001    1    1    2    0    0 -0.51010974782E+02  0.78617577224E+02  0.16645050893E+03  0.25241555998E+03  0.16500000000E+03 0.  0.
   -5000001    1    1    2    0    0  0.51010974782E+02 -0.78617577224E+02 -0.23709029540E+02  0.19123274060E+03  0.16500000000E+03 0.  0.
<mgrwt>
<rscale>  0 0.42005795E+03</rscale>
<asrwt>0</asrwt>
<pdfrwt beam="1">  1        2 0.41884984E-01 0.42005795E+03</pdfrwt>
<pdfrwt beam="2">  1       -2 0.21493344E-01 0.42005795E+03</pdfrwt>
<totfact> 0.22721690E+03</totfact>
</mgrwt>
</event>
<event>
 4    1  0.1837449E-005  0.6004815E+03  0.7818608E-02  0.9904408E-01
          2   -1    0    0  501    0  0.00000000000E+00  0.00000000000E+00  0.14153206463E+04  0.14153206463E+04  0.25500000000E-02 0. -1.
         -2   -1    0    0    0  501 -0.00000000000E+00 -0.00000000000E+00 -0.63691942942E+02  0.63691942993E+02  0.25500000000E-02 0.  1.
    5000001    1    1    2    0    0  0.52652862034E+02 -0.14925368360E+03  0.11551314603E+04  0.11775409448E+04  0.16500000000E+03 0.  0.
   -5000001    1    1    2    0    0 -0.52652862034E+02  0.14925368360E+03  0.19649724307E+03  0.30147164457E+03  0.16500000000E+03 0.  0.
<mgrwt>
<rscale>  0 0.60048155E+03</rscale>
<asrwt>0</asrwt>
<pdfrwt beam="1">  1        2 0.20218864E+00 0.60048155E+03</pdfrwt>
<pdfrwt beam="2">  1       -2 0.90988501E-02 0.60048155E+03</pdfrwt>
<totfact> 0.13147928E+03</totfact>
</mgrwt>
</event>
<event>
 4    1  0.1837449E-005  0.4579945E+03  0.7818608E-02  0.1025364E+00
         -2   -1    0    0    0  501 -0.00000000000E+00  0.00000000000E+00  0.30111120724E+02  0.30111120832E+02  0.25500000000E-02 0. -1.
          2   -1    0    0  501    0  0.00000000000E+00 -0.00000000000E+00 -0.17415405706E+04  0.17415405706E+04  0.25500000000E-02 0.  1.
    5000001    1    1    2    0    0  0.10304129334E+03 -0.81349597839E+02 -0.12012601926E+04  0.12196254816E+04  0.16500000000E+03 0.  0.
   -5000001    1    1    2    0    0 -0.10304129334E+03  0.81349597839E+02 -0.51016925730E+03  0.55202620979E+03  0.16500000000E+03 0.  0.
<mgrwt>
<rscale>  0 0.45799449E+03</rscale>
<asrwt>0</asrwt>
<pdfrwt beam="1">  1        2 0.24879145E+00 0.45799449E+03</pdfrwt>
<pdfrwt beam="2">  1       -2 0.43015898E-02 0.45799449E+03</pdfrwt>
<totfact> 0.29020227E+03</totfact>
</mgrwt>
</event>
<event>
 4    1  0.1837449E-005  0.4208841E+03  0.7818608E-02  0.1036779E+00
         -2   -1    0    0    0  501 -0.00000000000E+00  0.00000000000E+00  0.33091752983E+03  0.33091752984E+03  0.25500000000E-02 0. -1.
          2   -1    0    0  501    0  0.00000000000E+00 -0.00000000000E+00 -0.13382747406E+03  0.13382747409E+03  0.25500000000E-02 0.  1.
    5000001    1    1    2    0    0  0.84522731226E+02 -0.98760635379E+02  0.84442992864E+02  0.22639208078E+03  0.16500000000E+03 0.  0.
   -5000001    1    1    2    0    0 -0.84522731226E+02  0.98760635379E+02  0.11264706291E+03  0.23835292315E+03  0.16500000000E+03 0.  0.
<mgrwt>
<rscale>  0 0.42088410E+03</rscale>
<asrwt>0</asrwt>
<pdfrwt beam="1">  1        2 0.19118211E-01 0.42088410E+03</pdfrwt>
<pdfrwt beam="2">  1       -2 0.47273933E-01 0.42088410E+03</pdfrwt>
<totfact> 0.12676738E+03</totfact>
</mgrwt>
</event>
<event>
 4    1  0.1837449E-005  0.4044519E+03  0.7818608E-02  0.1042249E+00
         -2   -1    0    0    0  501 -0.00000000000E+00  0.00000000000E+00  0.77475592329E+02  0.77475592371E+02  0.25500000000E-02 0.  1.
          2   -1    0    0  501    0  0.00000000000E+00 -0.00000000000E+00 -0.52784787992E+03  0.52784787992E+03  0.25500000000E-02 0. -1.
    5000001    1    1    2    0    0  0.11120382039E+03 -0.36098392518E+02 -0.22663994635E+03  0.30374339316E+03  0.16500000000E+03 0.  0.
   -5000001    1    1    2    0    0 -0.11120382039E+03  0.36098392518E+02 -0.22373234124E+03  0.30158007913E+03  0.16500000000E+03 0.  0.
<mgrwt>
<rscale>  0 0.40445186E+03</rscale>
<asrwt>0</asrwt>
<pdfrwt beam="1">  1        2 0.75406838E-01 0.40445186E+03</pdfrwt>
<pdfrwt beam="2">  1       -2 0.11067942E-01 0.40445186E+03</pdfrwt>
<totfact> 0.36140909E+03</totfact>
</mgrwt>
</event>
<event>
 4    1  0.1837449E-005  0.4147018E+03  0.7818608E-02  0.1038805E+00
          2   -1    0    0  501    0  0.00000000000E+00  0.00000000000E+00  0.27856173644E+03  0.27856173645E+03  0.25500000000E-02 0.  1.
         -2   -1    0    0    0  501 -0.00000000000E+00 -0.00000000000E+00 -0.15434425395E+03  0.15434425398E+03  0.25500000000E-02 0. -1.
    5000001    1    1    2    0    0  0.51725169958E+02  0.83343897412E+02 -0.19740403273E+02  0.19296730802E+03  0.16500000000E+03 0.  0.
   -5000001    1    1    2    0    0 -0.51725169958E+02 -0.83343897412E+02  0.14395788576E+03  0.23993868240E+03  0.16500000000E+03 0.  0.
<mgrwt>
<rscale>  0 0.41470184E+03</rscale>
<asrwt>0</asrwt>
<pdfrwt beam="1">  1        2 0.39794533E-01 0.41470184E+03</pdfrwt>
<pdfrwt beam="2">  1       -2 0.22049179E-01 0.41470184E+03</pdfrwt>
<totfact> 0.22976664E+03</totfact>
</mgrwt>
</event>
<event>
 4    1  0.1837449E-005  0.3911566E+03  0.7818608E-02  0.1046886E+00
          2   -1    0    0  501    0  0.00000000000E+00  0.00000000000E+00  0.22872850608E+04  0.22872850608E+04  0.25500000000E-02 0.  1.
         -2   -1    0    0    0  501 -0.00000000000E+00 -0.00000000000E+00 -0.16723266531E+02  0.16723266725E+02  0.25500000000E-02 0. -1.
    5000001    1    1    2    0    0  0.18742843949E+02  0.99656254922E+02  0.97470126568E+03  0.99375561415E+03  0.16500000000E+03 0.  0.
   -5000001    1    1    2    0    0 -0.18742843949E+02 -0.99656254922E+02  0.12958605286E+04  0.13102527134E+04  0.16500000000E+03 0.  0.
<mgrwt>
<rscale>  0 0.39115663E+03</rscale>
<asrwt>0</asrwt>
<pdfrwt beam="1">  1        2 0.32675459E+00 0.39115663E+03</pdfrwt>
<pdfrwt beam="2">  1       -2 0.23890412E-02 0.39115663E+03</pdfrwt>
<totfact> 0.37850040E+03</totfact>
</mgrwt>
</event>
<event>
 4    1  0.1837449E-005  0.6500361E+03  0.7818608E-02  0.9806711E-01
         -2   -1    0    0    0  501 -0.00000000000E+00  0.00000000000E+00  0.11305672108E+04  0.11305672108E+04  0.25500000000E-02 0. -1.
          2   -1    0    0  501    0  0.00000000000E+00 -0.00000000000E+00 -0.93436927368E+02  0.93436927402E+02  0.25500000000E-02 0.  1.
    5000001    1    1    2    0    0 -0.25403649204E+03 -0.11570592186E+03  0.56021800886E+03  0.64729561801E+03  0.16500000000E+03 0.  0.
   -5000001    1    1    2    0    0  0.25403649204E+03  0.11570592186E+03  0.47691227461E+03  0.57670852024E+03  0.16500000000E+03 0.  0.
<mgrwt>
<rscale>  0 0.65003608E+03</rscale>
<asrwt>0</asrwt>
<pdfrwt beam="1">  1        2 0.13348133E-01 0.65003608E+03</pdfrwt>
<pdfrwt beam="2">  1       -2 0.16150960E+00 0.65003608E+03</pdfrwt>
<totfact> 0.11546378E+02</totfact>
</mgrwt>
</event>
<event>
 4    1  0.1837449E-005  0.1031564E+04  0.7818608E-02  0.9274588E-01
          2   -1    0    0  501    0  0.00000000000E+00  0.00000000000E+00  0.31008860350E+04  0.31008860350E+04  0.25500000000E-02 0.  1.
         -2   -1    0    0    0  501 -0.00000000000E+00 -0.00000000000E+00 -0.85791961667E+02  0.85791961705E+02  0.25500000000E-02 0. -1.
    5000001    1    1    2    0    0  0.46326697671E+03  0.58387128373E+01  0.19876693838E+04  0.20476095725E+04  0.16500000000E+03 0.  0.
   -5000001    1    1    2    0    0 -0.46326697671E+03 -0.58387128373E+01  0.10274246896E+04  0.11390684242E+04  0.16500000000E+03 0.  0.
<mgrwt>
<rscale>  0 0.10315640E+04</rscale>
<asrwt>0</asrwt>
<pdfrwt beam="1">  1        2 0.44298373E+00 0.10315640E+04</pdfrwt>
<pdfrwt beam="2">  1       -2 0.12255994E-01 0.10315640E+04</pdfrwt>
<totfact> 0.10368258E+02</totfact>
</mgrwt>
</event>
<event>
 4    1  0.1837449E-005  0.4790566E+03  0.7818608E-02  0.1019395E+00
          2   -1    0    0  501    0  0.00000000000E+00  0.00000000000E+00  0.97734828280E+03  0.97734828280E+03  0.25500000000E-02 0.  1.
         -2   -1    0    0    0  501 -0.00000000000E+00 -0.00000000000E+00 -0.58703540268E+02  0.58703540323E+02  0.25500000000E-02 0. -1.
    5000001    1    1    2    0    0  0.30009289867E+02 -0.17097578708E+03  0.46784432701E+03  0.52558214540E+03  0.16500000000E+03 0.  0.
   -5000001    1    1    2    0    0 -0.30009289867E+02  0.17097578708E+03  0.45080041551E+03  0.51046967772E+03  0.16500000000E+03 0.  0.
<mgrwt>
<rscale>  0 0.47905659E+03</rscale>
<asrwt>0</asrwt>
<pdfrwt beam="1">  1        2 0.13962118E+00 0.47905659E+03</pdfrwt>
<pdfrwt beam="2">  1       -2 0.83862203E-02 0.47905659E+03</pdfrwt>
<totfact> 0.26474740E+03</totfact>
</mgrwt>
</event>
<event>
 4    1  0.1837449E-005  0.4920712E+03  0.7818608E-02  0.1015869E+00
          2   -1    0    0  501    0  0.00000000000E+00  0.00000000000E+00  0.31250618320E+03  0.31250618321E+03  0.25500000000E-02 0.  1.
         -2   -1    0    0    0  501 -0.00000000000E+00 -0.00000000000E+00 -0.19370339688E+03  0.19370339690E+03  0.25500000000E-02 0. -1.
    5000001    1    1    2    0    0  0.96127271575E+02 -0.14106174215E+03 -0.70267040521E+01  0.23751471956E+03  0.16500000000E+03 0.  0.
   -5000001    1    1    2    0    0 -0.96127271575E+02  0.14106174215E+03  0.12582949037E+03  0.26869486055E+03  0.16500000000E+03 0.  0.
<mgrwt>
<rscale>  0 0.49207117E+03</rscale>
<asrwt>0</asrwt>
<pdfrwt beam="1">  1        2 0.44643740E-01 0.49207117E+03</pdfrwt>
<pdfrwt beam="2">  1       -2 0.27671914E-01 0.49207117E+03</pdfrwt>
<totfact> 0.13536056E+03</totfact>
</mgrwt>
</event>
<event>
 4    1  0.1837449E-005  0.5319647E+03  0.7818608E-02  0.1005757E+00
         -2   -1    0    0    0  501 -0.00000000000E+00  0.00000000000E+00  0.26948721191E+03  0.26948721192E+03  0.25500000000E-02 0. -1.
          2   -1    0    0  501    0  0.00000000000E+00 -0.00000000000E+00 -0.26252305438E+03  0.26252305439E+03  0.25500000000E-02 0.  1.
    5000001    1    1    2    0    0 -0.90255872180E+02 -0.18610921682E+03  0.30666073485E+02  0.26636097896E+03  0.16500000000E+03 0.  0.
   -5000001    1    1    2    0    0  0.90255872180E+02  0.18610921682E+03 -0.23701915954E+02  0.26564928735E+03  0.16500000000E+03 0.  0.
<mgrwt>
<rscale>  0 0.53196468E+03</rscale>
<asrwt>0</asrwt>
<pdfrwt beam="1">  1        2 0.37503293E-01 0.53196468E+03</pdfrwt>
<pdfrwt beam="2">  1       -2 0.38498173E-01 0.53196468E+03</pdfrwt>
<totfact> 0.88495126E+02</totfact>
</mgrwt>
</event>
<event>
 4    1  0.1837449E-005  0.5890586E+03  0.7818608E-02  0.9928370E-01
          2   -1    0    0  501    0  0.00000000000E+00  0.00000000000E+00  0.27073616795E+03  0.27073616796E+03  0.25500000000E-02 0.  1.
         -2   -1    0    0    0  501 -0.00000000000E+00 -0.00000000000E+00 -0.32041343616E+03  0.32041343617E+03  0.25500000000E-02 0. -1.
    5000001    1    1    2    0    0 -0.10054290047E+03 -0.21377658951E+03 -0.85990980767E+02  0.30071374068E+03  0.16500000000E+03 0.  0.
   -5000001    1    1    2    0    0  0.10054290047E+03  0.21377658951E+03  0.36313712555E+02  0.29043586345E+03  0.16500000000E+03 0.  0.
<mgrwt>
<rscale>  0 0.58905859E+03</rscale>
<asrwt>0</asrwt>
<pdfrwt beam="1">  1        2 0.38676595E-01 0.58905859E+03</pdfrwt>
<pdfrwt beam="2">  1       -2 0.45773348E-01 0.58905859E+03</pdfrwt>
<totfact> 0.60931436E+02</totfact>
</mgrwt>
</event>
<event>
 4    1  0.1837449E-005  0.4319659E+03  0.7818608E-02  0.1033241E+00
         -2   -1    0    0    0  501 -0.00000000000E+00  0.00000000000E+00  0.87683750149E+02  0.87683750186E+02  0.25500000000E-02 0. -1.
          2   -1    0    0  501    0  0.00000000000E+00 -0.00000000000E+00 -0.53200991363E+03  0.53200991364E+03  0.25500000000E-02 0.  1.
    5000001    1    1    2    0    0 -0.81482258761E+02  0.78949359415E+02 -0.33827858446E+03  0.39310273536E+03  0.16500000000E+03 0.  0.
   -5000001    1    1    2    0    0  0.81482258761E+02 -0.78949359415E+02 -0.10604757902E+03  0.22659092846E+03  0.16500000000E+03 0.  0.
<mgrwt>
<rscale>  0 0.43196585E+03</rscale>
<asrwt>0</asrwt>
<pdfrwt beam="1">  1        2 0.76001415E-01 0.43196585E+03</pdfrwt>
<pdfrwt beam="2">  1       -2 0.12526250E-01 0.43196585E+03</pdfrwt>
<totfact> 0.29305933E+03</totfact>
</mgrwt>
</event>
<event>
 4    1  0.1837449E-005  0.6545131E+03  0.7818608E-02  0.9798347E-01
          2   -1    0    0  501    0  0.00000000000E+00  0.00000000000E+00  0.45902058158E+03  0.45902058159E+03  0.25500000000E-02 0.  1.
         -2   -1    0    0    0  501 -0.00000000000E+00 -0.00000000000E+00 -0.23331602303E+03  0.23331602305E+03  0.25500000000E-02 0. -1.
    5000001    1    1    2    0    0 -0.24607324198E+03 -0.11284471229E+02  0.25939506709E+03  0.39394184919E+03  0.16500000000E+03 0.  0.
   -5000001    1    1    2    0    0  0.24607324198E+03  0.11284471229E+02 -0.33690508548E+02  0.29839475544E+03  0.16500000000E+03 0.  0.
<mgrwt>
<rscale>  0 0.65451312E+03</rscale>
<asrwt>0</asrwt>
<pdfrwt beam="1">  1        2 0.65574368E-01 0.65451312E+03</pdfrwt>
<pdfrwt beam="2">  1       -2 0.33330861E-01 0.65451312E+03</pdfrwt>
<totfact> 0.62573414E+02</totfact>
</mgrwt>
</event>
<event>
 4    1  0.1837449E-005  0.4602316E+03  0.7818608E-02  0.1024714E+00
         -2   -1    0    0    0  501 -0.00000000000E+00  0.00000000000E+00  0.76591500573E+02  0.76591500615E+02  0.25500000000E-02 0. -1.
          2   -1    0    0  501    0  0.00000000000E+00 -0.00000000000E+00 -0.69137293156E+03  0.69137293157E+03  0.25500000000E-02 0.  1.
    5000001    1    1    2    0    0 -0.14662949484E+03  0.58024935132E+02 -0.25842256141E+03  0.34478155708E+03  0.16500000000E+03 0.  0.
   -5000001    1    1    2    0    0  0.14662949484E+03 -0.58024935132E+02 -0.35635886958E+03  0.42318287511E+03  0.16500000000E+03 0.  0.
<mgrwt>
<rscale>  0 0.46023164E+03</rscale>
<asrwt>0</asrwt>
<pdfrwt beam="1">  1        2 0.98767558E-01 0.46023164E+03</pdfrwt>
<pdfrwt beam="2">  1       -2 0.10941643E-01 0.46023164E+03</pdfrwt>
<totfact> 0.26919965E+03</totfact>
</mgrwt>
</event>
<event>
 4    1  0.1837449E-005  0.5595667E+03  0.7818608E-02  0.9993036E-01
         -2   -1    0    0    0  501 -0.00000000000E+00  0.00000000000E+00  0.67602961335E+02  0.67602961383E+02  0.25500000000E-02 0. -1.
          2   -1    0    0  501    0  0.00000000000E+00 -0.00000000000E+00 -0.11579185603E+04  0.11579185603E+04  0.25500000000E-02 0.  1.
    5000001    1    1    2    0    0 -0.18071369246E+03  0.39509896834E+02 -0.82932824215E+03  0.86558003894E+03  0.16500000000E+03 0.  0.
   -5000001    1    1    2    0    0  0.18071369246E+03 -0.39509896834E+02 -0.26098735685E+03  0.35994148278E+03  0.16500000000E+03 0.  0.
<mgrwt>
<rscale>  0 0.55956670E+03</rscale>
<asrwt>0</asrwt>
<pdfrwt beam="1">  1        2 0.16541692E+00 0.55956670E+03</pdfrwt>
<pdfrwt beam="2">  1       -2 0.96575666E-02 0.55956670E+03</pdfrwt>
<totfact> 0.16527751E+03</totfact>
</mgrwt>
</event>
<event>
 4    1  0.1837449E-005  0.5688161E+03  0.7818608E-02  0.9972302E-01
          2   -1    0    0  501    0  0.00000000000E+00  0.00000000000E+00  0.22664875418E+04  0.22664875418E+04  0.25500000000E-02 0.  1.
         -2   -1    0    0    0  501 -0.00000000000E+00 -0.00000000000E+00 -0.35688679856E+02  0.35688679947E+02  0.25500000000E-02 0. -1.
    5000001    1    1    2    0    0 -0.22416167970E+03 -0.57093647513E+02  0.10650424876E+04  0.11022924492E+04  0.16500000000E+03 0.  0.
   -5000001    1    1    2    0    0  0.22416167970E+03  0.57093647513E+02  0.11657563743E+04  0.11998837725E+04  0.16500000000E+03 0.  0.
<mgrwt>
<rscale>  0 0.56881613E+03</rscale>
<asrwt>0</asrwt>
<pdfrwt beam="1">  1        2 0.32378393E+00 0.56881613E+03</pdfrwt>
<pdfrwt beam="2">  1       -2 0.50983829E-02 0.56881613E+03</pdfrwt>
<totfact> 0.12136481E+03</totfact>
</mgrwt>
</event>
<event>
 4    1  0.1837449E-005  0.5139596E+03  0.7818608E-02  0.1010198E+00
         -2   -1    0    0    0  501 -0.00000000000E+00  0.00000000000E+00  0.33369430401E+02  0.33369430498E+02  0.25500000000E-02 0. -1.
          2   -1    0    0  501    0  0.00000000000E+00 -0.00000000000E+00 -0.19790153297E+04  0.19790153297E+04  0.25500000000E-02 0.  1.
    5000001    1    1    2    0    0  0.66940487520E+02  0.18423528040E+03 -0.89550419752E+03  0.93143783217E+03  0.16500000000E+03 0.  0.
   -5000001    1    1    2    0    0 -0.66940487520E+02 -0.18423528040E+03 -0.10501417018E+04  0.10809469281E+04  0.16500000000E+03 0.  0.
<mgrwt>
<rscale>  0 0.51395959E+03</rscale>
<asrwt>0</asrwt>
<pdfrwt beam="1">  1        2 0.28271640E+00 0.51395959E+03</pdfrwt>
<pdfrwt beam="2">  1       -2 0.47670627E-02 0.51395959E+03</pdfrwt>
<totfact> 0.18818191E+03</totfact>
</mgrwt>
</event>
<event>
 4    1  0.1837449E-005  0.4924070E+03  0.7818608E-02  0.1015780E+00
          2   -1    0    0  501    0  0.00000000000E+00  0.00000000000E+00  0.11071079450E+04  0.11071079450E+04  0.25500000000E-02 0.  1.
         -2   -1    0    0    0  501 -0.00000000000E+00 -0.00000000000E+00 -0.54751813634E+02  0.54751813694E+02  0.25500000000E-02 0. -1.
    5000001    1    1    2    0    0 -0.16282884727E+03  0.55612708894E+02  0.67134632023E+03  0.71241623268E+03  0.16500000000E+03 0.  0.
   -5000001    1    1    2    0    0  0.16282884727E+03 -0.55612708894E+02  0.38100981109E+03  0.44944352598E+03  0.16500000000E+03 0.  0.
<mgrwt>
<rscale>  0 0.49240702E+03</rscale>
<asrwt>0</asrwt>
<pdfrwt beam="1">  1        2 0.15815829E+00 0.49240702E+03</pdfrwt>
<pdfrwt beam="2">  1       -2 0.78216873E-02 0.49240702E+03</pdfrwt>
<totfact> 0.24773390E+03</totfact>
</mgrwt>
</event>
<event>
 4    1  0.1837449E-005  0.6380786E+03  0.7818608E-02  0.9829410E-01
         -2   -1    0    0    0  501 -0.00000000000E+00  0.00000000000E+00  0.60227762733E+03  0.60227762733E+03  0.25500000000E-02 0. -1.
          2   -1    0    0  501    0  0.00000000000E+00 -0.00000000000E+00 -0.16900191595E+03  0.16900191597E+03  0.25500000000E-02 0.  1.
    5000001    1    1    2    0    0  0.19259664761E+03  0.71283472282E+02  0.43416732957E+03  0.50783961263E+03  0.16500000000E+03 0.  0.
   -5000001    1    1    2    0    0 -0.19259664761E+03 -0.71283472282E+02 -0.89161818704E+00  0.26343993068E+03  0.16500000000E+03 0.  0.
<mgrwt>
<rscale>  0 0.63807859E+03</rscale>
<asrwt>0</asrwt>
<pdfrwt beam="1">  1        2 0.24143131E-01 0.63807859E+03</pdfrwt>
<pdfrwt beam="2">  1       -2 0.86039660E-01 0.63807859E+03</pdfrwt>
<totfact> 0.27017007E+02</totfact>
</mgrwt>
</event>
<event>
 4    1  0.1837449E-005  0.5842295E+03  0.7818608E-02  0.9938676E-01
          2   -1    0    0  501    0  0.00000000000E+00  0.00000000000E+00  0.28925760712E+03  0.28925760713E+03  0.25500000000E-02 0.  1.
         -2   -1    0    0    0  501 -0.00000000000E+00 -0.00000000000E+00 -0.29500009709E+03  0.29500009710E+03  0.25500000000E-02 0. -1.
    5000001    1    1    2    0    0  0.21313642678E+03 -0.81780247109E+02 -0.80275739350E+02  0.29288963718E+03  0.16500000000E+03 0.  0.
   -5000001    1    1    2    0    0 -0.21313642678E+03  0.81780247109E+02  0.74533249375E+02  0.29136806706E+03  0.16500000000E+03 0.  0.
<mgrwt>
<rscale>  0 0.58422948E+03</rscale>
<asrwt>0</asrwt>
<pdfrwt beam="1">  1        2 0.41322515E-01 0.58422948E+03</pdfrwt>
<pdfrwt beam="2">  1       -2 0.42142871E-01 0.58422948E+03</pdfrwt>
<totfact> 0.66677652E+02</totfact>
</mgrwt>
</event>
<event>
 4    1  0.1837449E-005  0.4842733E+03  0.7818608E-02  0.1017967E+00
         -2   -1    0    0    0  501 -0.00000000000E+00  0.00000000000E+00  0.58847648831E+02  0.58847648886E+02  0.25500000000E-02 0. -1.
          2   -1    0    0  501    0  0.00000000000E+00 -0.00000000000E+00 -0.99630396475E+03  0.99630396475E+03  0.25500000000E-02 0.  1.
    5000001    1    1    2    0    0 -0.42623447447E+02  0.15627144940E+03 -0.62535628021E+03  0.66673308105E+03  0.16500000000E+03 0.  0.
   -5000001    1    1    2    0    0  0.42623447447E+02 -0.15627144940E+03 -0.31210003571E+03  0.38841853259E+03  0.16500000000E+03 0.  0.
<mgrwt>
<rscale>  0 0.48427325E+03</rscale>
<asrwt>0</asrwt>
<pdfrwt beam="1">  1        2 0.14232913E+00 0.48427325E+03</pdfrwt>
<pdfrwt beam="2">  1       -2 0.84068076E-02 0.48427325E+03</pdfrwt>
<totfact> 0.25680944E+03</totfact>
</mgrwt>
</event>
<event>
 4    1  0.1837449E-005  0.5504743E+03  0.7818608E-02  0.1001384E+00
         -2   -1    0    0    0  501 -0.00000000000E+00  0.00000000000E+00  0.51834643591E+03  0.51834643592E+03  0.25500000000E-02 0. -1.
          2   -1    0    0  501    0  0.00000000000E+00 -0.00000000000E+00 -0.14614836133E+03  0.14614836135E+03  0.25500000000E-02 0.  1.
    5000001    1    1    2    0    0  0.13603929917E+03 -0.16718079500E+03  0.13111989124E+03  0.30145237603E+03  0.16500000000E+03 0.  0.
   -5000001    1    1    2    0    0 -0.13603929917E+03  0.16718079500E+03  0.24107818334E+03  0.36304242124E+03  0.16500000000E+03 0.  0.
<mgrwt>
<rscale>  0 0.55047428E+03</rscale>
<asrwt>0</asrwt>
<pdfrwt beam="1">  1        2 0.20878337E-01 0.55047428E+03</pdfrwt>
<pdfrwt beam="2">  1       -2 0.74049491E-01 0.55047428E+03</pdfrwt>
<totfact> 0.44785380E+02</totfact>
</mgrwt>
</event>
<event>
 4    1  0.1837449E-005  0.7707787E+03  0.7818608E-02  0.9603304E-01
          2   -1    0    0  501    0  0.00000000000E+00  0.00000000000E+00  0.24955848431E+04  0.24955848431E+04  0.25500000000E-02 0.  1.
         -2   -1    0    0    0  501 -0.00000000000E+00 -0.00000000000E+00 -0.59515086270E+02  0.59515086325E+02  0.25500000000E-02 0. -1.
    5000001    1    1    2    0    0 -0.14080936056E+03 -0.24076590286E+03  0.52660994178E+03  0.61833528670E+03  0.16500000000E+03 0.  0.
   -5000001    1    1    2    0    0  0.14080936056E+03  0.24076590286E+03  0.19094598151E+04  0.19367646427E+04  0.16500000000E+03 0.  0.
<mgrwt>
<rscale>  0 0.77077869E+03</rscale>
<asrwt>0</asrwt>
<pdfrwt beam="1">  1        2 0.35651212E+00 0.77077869E+03</pdfrwt>
<pdfrwt beam="2">  1       -2 0.85021553E-02 0.77077869E+03</pdfrwt>
<totfact> 0.40766968E+02</totfact>
</mgrwt>
</event>
<event>
 4    1  0.1837449E-005  0.5175745E+03  0.7818608E-02  0.1009291E+00
          2   -1    0    0  501    0  0.00000000000E+00  0.00000000000E+00  0.23224082524E+03  0.23224082525E+03  0.25500000000E-02 0.  1.
         -2   -1    0    0    0  501 -0.00000000000E+00 -0.00000000000E+00 -0.28836812240E+03  0.28836812241E+03  0.25500000000E-02 0. -1.
    5000001    1    1    2    0    0  0.58188838306E+01  0.19573230132E+03 -0.65711111114E+02  0.26436327906E+03  0.16500000000E+03 0.  0.
   -5000001    1    1    2    0    0 -0.58188838306E+01 -0.19573230132E+03  0.95838139503E+01  0.25624566861E+03  0.16500000000E+03 0.  0.
<mgrwt>
<rscale>  0 0.51757454E+03</rscale>
<asrwt>0</asrwt>
<pdfrwt beam="1">  1        2 0.33177261E-01 0.51757454E+03</pdfrwt>
<pdfrwt beam="2">  1       -2 0.41195446E-01 0.51757454E+03</pdfrwt>
<totfact> 0.88927657E+02</totfact>
</mgrwt>
</event>
<event>
 4    1  0.1837449E-005  0.5688675E+03  0.7818608E-02  0.9972188E-01
         -2   -1    0    0    0  501 -0.00000000000E+00  0.00000000000E+00  0.21789881973E+02  0.21789882122E+02  0.25500000000E-02 0. -1.
          2   -1    0    0  501    0  0.00000000000E+00 -0.00000000000E+00 -0.37128500922E+04  0.37128500922E+04  0.25500000000E-02 0.  1.
    5000001    1    1    2    0    0 -0.20349290367E+03  0.95891552290E+02 -0.14815984245E+04  0.15076350497E+04  0.16500000000E+03 0.  0.
   -5000001    1    1    2    0    0  0.20349290367E+03 -0.95891552290E+02 -0.22094617857E+04  0.22270049246E+04  0.16500000000E+03 0.  0.
<mgrwt>
<rscale>  0 0.56886753E+03</rscale>
<asrwt>0</asrwt>
<pdfrwt beam="1">  1        2 0.53040675E+00 0.56886753E+03</pdfrwt>
<pdfrwt beam="2">  1       -2 0.31128427E-02 0.56886753E+03</pdfrwt>
<totfact> 0.41590240E+02</totfact>
</mgrwt>
</event>
<event>
 4    1  0.1837449E-005  0.5347855E+03  0.7818608E-02  0.1005078E+00
         -2   -1    0    0    0  501 -0.00000000000E+00  0.00000000000E+00  0.13604374713E+03  0.13604374715E+03  0.25500000000E-02 0. -1.
          2   -1    0    0  501    0  0.00000000000E+00 -0.00000000000E+00 -0.52555801380E+03  0.52555801381E+03  0.25500000000E-02 0.  1.
    5000001    1    1    2    0    0  0.19362930903E+03  0.81238262923E+02 -0.21144318222E+03  0.34062469668E+03  0.16500000000E+03 0.  0.
   -5000001    1    1    2    0    0 -0.19362930903E+03 -0.81238262923E+02 -0.17807108445E+03  0.32097706428E+03  0.16500000000E+03 0.  0.
<mgrwt>
<rscale>  0 0.53478550E+03</rscale>
<asrwt>0</asrwt>
<pdfrwt beam="1">  1        2 0.75079715E-01 0.53478550E+03</pdfrwt>
<pdfrwt beam="2">  1       -2 0.19434821E-01 0.53478550E+03</pdfrwt>
<totfact> 0.14205882E+03</totfact>
</mgrwt>
</event>
<event>
 4    1  0.1837449E-005  0.1020417E+04  0.7818608E-02  0.9286431E-01
          2   -1    0    0  501    0  0.00000000000E+00  0.00000000000E+00  0.94754018155E+03  0.94754018156E+03  0.25500000000E-02 0.  1.
         -2   -1    0    0    0  501 -0.00000000000E+00 -0.00000000000E+00 -0.27472483285E+03  0.27472483286E+03  0.25500000000E-02 0. -1.
    5000001    1    1    2    0    0  0.53991863336E+02  0.24894520764E+03  0.82765396907E+03  0.88154689622E+03  0.16500000000E+03 0.  0.
   -5000001    1    1    2    0    0 -0.53991863336E+02 -0.24894520764E+03 -0.15483862037E+03  0.34071811820E+03  0.16500000000E+03 0.  0.
<mgrwt>
<rscale>  0 0.10204172E+04</rscale>
<asrwt>0</asrwt>
<pdfrwt beam="1">  1        2 0.13536288E+00 0.10204172E+04</pdfrwt>
<pdfrwt beam="2">  1       -2 0.39246405E-01 0.10204172E+04</pdfrwt>
<totfact> 0.18519358E+02</totfact>
</mgrwt>
</event>
<event>
 4    1  0.1837449E-005  0.4552894E+03  0.7818608E-02  0.1026156E+00
         -2   -1    0    0    0  501 -0.00000000000E+00  0.00000000000E+00  0.61263869557E+02  0.61263869610E+02  0.25500000000E-02 0. -1.
          2   -1    0    0  501    0  0.00000000000E+00 -0.00000000000E+00 -0.84588381425E+03  0.84588381426E+03  0.25500000000E-02 0.  1.
    5000001    1    1    2    0    0  0.12836755773E+03  0.75018017909E+02 -0.29286261924E+03  0.36755876623E+03  0.16500000000E+03 0.  0.
   -5000001    1    1    2    0    0 -0.12836755773E+03 -0.75018017909E+02 -0.49175732546E+03  0.53958891763E+03  0.16500000000E+03 0.  0.
<mgrwt>
<rscale>  0 0.45528943E+03</rscale>
<asrwt>0</asrwt>
<pdfrwt beam="1">  1        2 0.12084054E+00 0.45528943E+03</pdfrwt>
<pdfrwt beam="2">  1       -2 0.87519819E-02 0.45528943E+03</pdfrwt>
<totfact> 0.29975626E+03</totfact>
</mgrwt>
</event>
<event>
 4    1  0.1837449E-005  0.5288400E+03  0.7818608E-02  0.1006514E+00
         -2   -1    0    0    0  501 -0.00000000000E+00  0.00000000000E+00  0.39871348203E+02  0.39871348284E+02  0.25500000000E-02 0. -1.
          2   -1    0    0  501    0  0.00000000000E+00 -0.00000000000E+00 -0.17535885305E+04  0.17535885305E+04  0.25500000000E-02 0.  1.
    5000001    1    1    2    0    0 -0.18243431223E+03 -0.93172807971E+02 -0.76526257125E+03  0.80920655792E+03  0.16500000000E+03 0.  0.
   -5000001    1    1    2    0    0  0.18243431223E+03  0.93172807971E+02 -0.94845461107E+03  0.98425332089E+03  0.16500000000E+03 0.  0.
<mgrwt>
<rscale>  0 0.52884001E+03</rscale>
<asrwt>0</asrwt>
<pdfrwt beam="1">  1        2 0.25051260E+00 0.52884001E+03</pdfrwt>
<pdfrwt beam="2">  1       -2 0.56959080E-02 0.52884001E+03</pdfrwt>
<totfact> 0.18514879E+03</totfact>
</mgrwt>
</event>
<event>
 4    1  0.1837449E-005  0.6746869E+03  0.7818608E-02  0.9761528E-01
          2   -1    0    0  501    0  0.00000000000E+00  0.00000000000E+00  0.27754337158E+04  0.27754337158E+04  0.25500000000E-02 0.  1.
         -2   -1    0    0    0  501 -0.00000000000E+00 -0.00000000000E+00 -0.41002813517E+02  0.41002813596E+02  0.25500000000E-02 0. -1.
    5000001    1    1    2    0    0  0.21081647095E+03  0.74074735851E+01  0.22235053089E+04  0.22395756995E+04  0.16500000000E+03 0.  0.
   -5000001    1    1    2    0    0 -0.21081647095E+03 -0.74074735851E+01  0.51092559335E+03  0.57686082986E+03  0.16500000000E+03 0.  0.
<mgrwt>
<rscale>  0 0.67468686E+03</rscale>
<asrwt>0</asrwt>
<pdfrwt beam="1">  1        2 0.39649054E+00 0.67468686E+03</pdfrwt>
<pdfrwt beam="2">  1       -2 0.58575447E-02 0.67468686E+03</pdfrwt>
<totfact> 0.53001023E+02</totfact>
</mgrwt>
</event>
<event>
 4    1  0.1837449E-005  0.6894193E+03  0.7818608E-02  0.9735500E-01
         -2   -1    0    0    0  501 -0.00000000000E+00  0.00000000000E+00  0.18150276169E+03  0.18150276171E+03  0.25500000000E-02 0. -1.
          2   -1    0    0  501    0  0.00000000000E+00 -0.00000000000E+00 -0.65467189117E+03  0.65467189118E+03  0.25500000000E-02 0.  1.
    5000001    1    1    2    0    0  0.24707531971E+03 -0.12937703474E+03 -0.37914235491E+03  0.49875701099E+03  0.16500000000E+03 0.  0.
   -5000001    1    1    2    0    0 -0.24707531971E+03  0.12937703474E+03 -0.94026774576E+02  0.33741764190E+03  0.16500000000E+03 0.  0.
<mgrwt>
<rscale>  0 0.68941934E+03</rscale>
<asrwt>0</asrwt>
<pdfrwt beam="1">  1        2 0.93524555E-01 0.68941934E+03</pdfrwt>
<pdfrwt beam="2">  1       -2 0.25928966E-01 0.68941934E+03</pdfrwt>
<totfact> 0.65783500E+02</totfact>
</mgrwt>
</event>
<event>
 4    1  0.1837449E-005  0.5315077E+03  0.7818608E-02  0.1005867E+00
          2   -1    0    0  501    0  0.00000000000E+00  0.00000000000E+00  0.13450102762E+04  0.13450102762E+04  0.25500000000E-02 0.  1.
         -2   -1    0    0    0  501 -0.00000000000E+00 -0.00000000000E+00 -0.52508977552E+02  0.52508977614E+02  0.25500000000E-02 0. -1.
    5000001    1    1    2    0    0 -0.11496863890E+03  0.17372144406E+03  0.64155714222E+03  0.69441881800E+03  0.16500000000E+03 0.  0.
   -5000001    1    1    2    0    0  0.11496863890E+03 -0.17372144406E+03  0.65094415641E+03  0.70310043580E+03  0.16500000000E+03 0.  0.
<mgrwt>
<rscale>  0 0.53150772E+03</rscale>
<asrwt>0</asrwt>
<pdfrwt beam="1">  1        2 0.19214433E+00 0.53150772E+03</pdfrwt>
<pdfrwt beam="2">  1       -2 0.75012825E-02 0.53150772E+03</pdfrwt>
<totfact> 0.19537633E+03</totfact>
</mgrwt>
</event>
<event>
 4    1  0.1837449E-005  0.5439956E+03  0.7818608E-02  0.1002893E+00
          2   -1    0    0  501    0  0.00000000000E+00  0.00000000000E+00  0.97895465060E+03  0.97895465060E+03  0.25500000000E-02 0.  1.
         -2   -1    0    0    0  501 -0.00000000000E+00 -0.00000000000E+00 -0.75573261479E+02  0.75573261522E+02  0.25500000000E-02 0. -1.
    5000001    1    1    2    0    0  0.99071485414E+01 -0.21529080606E+03  0.41758694010E+03  0.49804832628E+03  0.16500000000E+03 0.  0.
   -5000001    1    1    2    0    0 -0.99071485414E+01  0.21529080606E+03  0.48579444902E+03  0.55647958585E+03  0.16500000000E+03 0.  0.
<mgrwt>
<rscale>  0 0.54399557E+03</rscale>
<asrwt>0</asrwt>
<pdfrwt beam="1">  1        2 0.13985066E+00 0.54399557E+03</pdfrwt>
<pdfrwt beam="2">  1       -2 0.10796180E-01 0.54399557E+03</pdfrwt>
<totfact> 0.17589265E+03</totfact>
</mgrwt>
</event>
<event>
 4    1  0.1837449E-005  0.4566510E+03  0.7818608E-02  0.1025757E+00
          2   -1    0    0  501    0  0.00000000000E+00  0.00000000000E+00  0.86339557103E+03  0.86339557104E+03  0.25500000000E-02 0.  1.
         -2   -1    0    0    0  501 -0.00000000000E+00 -0.00000000000E+00 -0.60380809548E+02  0.60380809602E+02  0.25500000000E-02 0. -1.
    5000001    1    1    2    0    0 -0.85526783654E+01  0.10853509538E+03  0.63264079995E+03  0.66280645516E+03  0.16500000000E+03 0.  0.
   -5000001    1    1    2    0    0  0.85526783654E+01 -0.10853509538E+03  0.17037396154E+03  0.26096992548E+03  0.16500000000E+03 0.  0.
<mgrwt>
<rscale>  0 0.45665095E+03</rscale>
<asrwt>0</asrwt>
<pdfrwt beam="1">  1        2 0.12334221E+00 0.45665095E+03</pdfrwt>
<pdfrwt beam="2">  1       -2 0.86258307E-02 0.45665095E+03</pdfrwt>
<totfact> 0.29873279E+03</totfact>
</mgrwt>
</event>
<event>
 4    1  0.1837449E-005  0.4668974E+03  0.7818608E-02  0.1022800E+00
         -2   -1    0    0    0  501 -0.00000000000E+00  0.00000000000E+00  0.32222300726E+03  0.32222300727E+03  0.25500000000E-02 0. -1.
          2   -1    0    0  501    0  0.00000000000E+00 -0.00000000000E+00 -0.16913224139E+03  0.16913224141E+03  0.25500000000E-02 0.  1.
    5000001    1    1    2    0    0  0.16421398455E+03  0.17507222268E+02  0.75755112033E+02  0.24543140091E+03  0.16500000000E+03 0.  0.
   -5000001    1    1    2    0    0 -0.16421398455E+03 -0.17507222268E+02  0.77335653837E+02  0.24592384778E+03  0.16500000000E+03 0.  0.
<mgrwt>
<rscale>  0 0.46689742E+03</rscale>
<asrwt>0</asrwt>
<pdfrwt beam="1">  1        2 0.24161749E-01 0.46689742E+03</pdfrwt>
<pdfrwt beam="2">  1       -2 0.46031858E-01 0.46689742E+03</pdfrwt>
<totfact> 0.10211007E+03</totfact>
</mgrwt>
</event>
<event>
 4    1  0.1837449E-005  0.4240825E+03  0.7818608E-02  0.1035746E+00
          2   -1    0    0  501    0  0.00000000000E+00  0.00000000000E+00  0.20384419066E+03  0.20384419067E+03  0.25500000000E-02 0.  1.
         -2   -1    0    0    0  501 -0.00000000000E+00 -0.00000000000E+00 -0.22056791465E+03  0.22056791467E+03  0.25500000000E-02 0. -1.
    5000001    1    1    2    0    0  0.53344149889E+02 -0.12130010110E+03 -0.21682925310E+02  0.21273096179E+03  0.16500000000E+03 0.  0.
   -5000001    1    1    2    0    0 -0.53344149889E+02  0.12130010110E+03  0.49592013126E+01  0.21168114355E+03  0.16500000000E+03 0.  0.
<mgrwt>
<rscale>  0 0.42408248E+03</rscale>
<asrwt>0</asrwt>
<pdfrwt beam="1">  1        2 0.29120599E-01 0.42408248E+03</pdfrwt>
<pdfrwt beam="2">  1       -2 0.31509702E-01 0.42408248E+03</pdfrwt>
<totfact> 0.17076789E+03</totfact>
</mgrwt>
</event>
<event>
 4    1  0.1837449E-005  0.7916329E+03  0.7818608E-02  0.9572208E-01
          2   -1    0    0  501    0  0.00000000000E+00  0.00000000000E+00  0.15208831498E+03  0.15208831501E+03  0.25500000000E-02 0.  1.
         -2   -1    0    0    0  501 -0.00000000000E+00 -0.00000000000E+00 -0.10301294435E+04  0.10301294435E+04  0.25500000000E-02 0. -1.
    5000001    1    1    2    0    0 -0.79537221798E+00  0.20318429061E+03  0.43964091609E+01  0.26178009279E+03  0.16500000000E+03 0.  0.
   -5000001    1    1    2    0    0  0.79537221798E+00 -0.20318429061E+03 -0.88243753764E+03  0.92043766568E+03  0.16500000000E+03 0.  0.
<mgrwt>
<rscale>  0 0.79163287E+03</rscale>
<asrwt>0</asrwt>
<pdfrwt beam="1">  1        2 0.21726903E-01 0.79163287E+03</pdfrwt>
<pdfrwt beam="2">  1       -2 0.14716135E+00 0.79163287E+03</pdfrwt>
<totfact> 0.81998199E+01</totfact>
</mgrwt>
</event>
<event>
 4    1  0.1837449E-005  0.4107193E+03  0.7818608E-02  0.1040130E+00
          2   -1    0    0  501    0  0.00000000000E+00  0.00000000000E+00  0.24481273111E+03  0.24481273112E+03  0.25500000000E-02 0.  1.
         -2   -1    0    0    0  501 -0.00000000000E+00 -0.00000000000E+00 -0.17226466590E+03  0.17226466592E+03  0.25500000000E-02 0. -1.
    5000001    1    1    2    0    0  0.11449109727E+03  0.40058588979E+01 -0.70873986987E+01  0.20099624245E+03  0.16500000000E+03 0.  0.
   -5000001    1    1    2    0    0 -0.11449109727E+03 -0.40058588979E+01  0.79635463910E+02  0.21608115459E+03  0.16500000000E+03 0.  0.
<mgrwt>
<rscale>  0 0.41071929E+03</rscale>
<asrwt>0</asrwt>
<pdfrwt beam="1">  1        2 0.34973247E-01 0.41071929E+03</pdfrwt>
<pdfrwt beam="2">  1       -2 0.24609238E-01 0.41071929E+03</pdfrwt>
<totfact> 0.21810046E+03</totfact>
</mgrwt>
</event>
<event>
 4    1  0.1837449E-005  0.5277391E+03  0.7818608E-02  0.1006782E+00
          2   -1    0    0  501    0  0.00000000000E+00  0.00000000000E+00  0.53433881907E+03  0.53433881908E+03  0.25500000000E-02 0.  1.
         -2   -1    0    0    0  501 -0.00000000000E+00 -0.00000000000E+00 -0.13030524164E+03  0.13030524167E+03  0.25500000000E-02 0. -1.
    5000001    1    1    2    0    0 -0.66887989355E+02 -0.17300035022E+03  0.89377903398E+02  0.26384945312E+03  0.16500000000E+03 0.  0.
   -5000001    1    1    2    0    0  0.66887989355E+02  0.17300035022E+03  0.31465567403E+03  0.40079460762E+03  0.16500000000E+03 0.  0.
<mgrwt>
<rscale>  0 0.52773914E+03</rscale>
<asrwt>0</asrwt>
<pdfrwt beam="1">  1        2 0.76334117E-01 0.52773914E+03</pdfrwt>
<pdfrwt beam="2">  1       -2 0.18615034E-01 0.52773914E+03</pdfrwt>
<totfact> 0.15015611E+03</totfact>
</mgrwt>
</event>
<event>
 4    1  0.1837449E-005  0.3787953E+03  0.7818608E-02  0.1051380E+00
          2   -1    0    0  501    0  0.00000000000E+00  0.00000000000E+00  0.22689790321E+03  0.22689790322E+03  0.25500000000E-02 0.  1.
         -2   -1    0    0    0  501 -0.00000000000E+00 -0.00000000000E+00 -0.15809523873E+03  0.15809523875E+03  0.25500000000E-02 0. -1.
    5000001    1    1    2    0    0 -0.40022140352E+02  0.75164426527E+02  0.72362351905E+02  0.19928063806E+03  0.16500000000E+03 0.  0.
   -5000001    1    1    2    0    0  0.40022140352E+02 -0.75164426527E+02 -0.35596874281E+01  0.18571250391E+03  0.16500000000E+03 0.  0.
<mgrwt>
<rscale>  0 0.37879534E+03</rscale>
<asrwt>0</asrwt>
<pdfrwt beam="1">  1        2 0.32413986E-01 0.37879534E+03</pdfrwt>
<pdfrwt beam="2">  1       -2 0.22585034E-01 0.37879534E+03</pdfrwt>
<totfact> 0.27553912E+03</totfact>
</mgrwt>
</event>
<event>
 4    1  0.1837449E-005  0.4903130E+03  0.7818608E-02  0.1016339E+00
         -2   -1    0    0    0  501 -0.00000000000E+00  0.00000000000E+00  0.34668563218E+02  0.34668563312E+02  0.25500000000E-02 0. -1.
          2   -1    0    0  501    0  0.00000000000E+00 -0.00000000000E+00 -0.17336084809E+04  0.17336084810E+04  0.25500000000E-02 0.  1.
    5000001    1    1    2    0    0  0.18041518562E+03 -0.17896832537E+01 -0.91437289452E+03  0.94649650417E+03  0.16500000000E+03 0.  0.
   -5000001    1    1    2    0    0 -0.18041518562E+03  0.17896832537E+01 -0.78456702321E+03  0.82178054010E+03  0.16500000000E+03 0.  0.
<mgrwt>
<rscale>  0 0.49031302E+03</rscale>
<asrwt>0</asrwt>
<pdfrwt beam="1">  1        2 0.24765830E+00 0.49031302E+03</pdfrwt>
<pdfrwt beam="2">  1       -2 0.49526530E-02 0.49031302E+03</pdfrwt>
<totfact> 0.23564227E+03</totfact>
</mgrwt>
</event>
<event>
 4    1  0.1837449E-005  0.6479315E+03  0.7818608E-02  0.9810668E-01
         -2   -1    0    0    0  501 -0.00000000000E+00  0.00000000000E+00  0.73485307170E+02  0.73485307214E+02  0.25500000000E-02 0. -1.
          2   -1    0    0  501    0  0.00000000000E+00 -0.00000000000E+00 -0.14282286688E+04  0.14282286688E+04  0.25500000000E-02 0.  1.
    5000001    1    1    2    0    0 -0.14475395573E+03 -0.16346690966E+03 -0.10791689273E+04  0.11133309086E+04  0.16500000000E+03 0.  0.
   -5000001    1    1    2    0    0  0.14475395573E+03  0.16346690966E+03 -0.27557443436E+03  0.38838306751E+03  0.16500000000E+03 0.  0.
<mgrwt>
<rscale>  0 0.64793155E+03</rscale>
<asrwt>0</asrwt>
<pdfrwt beam="1">  1        2 0.20403265E+00 0.64793155E+03</pdfrwt>
<pdfrwt beam="2">  1       -2 0.10497902E-01 0.64793155E+03</pdfrwt>
<totfact> 0.10249151E+03</totfact>
</mgrwt>
</event>
<event>
 4    1  0.1837449E-005  0.6148533E+03  0.7818608E-02  0.9875061E-01
          2   -1    0    0  501    0  0.00000000000E+00  0.00000000000E+00  0.22862487267E+04  0.22862487267E+04  0.25500000000E-02 0.  1.
         -2   -1    0    0    0  501 -0.00000000000E+00 -0.00000000000E+00 -0.41338959803E+02  0.41338959882E+02  0.25500000000E-02 0. -1.
    5000001    1    1    2    0    0 -0.44311945118E+01 -0.16412986687E+03  0.36223832504E+03  0.43058083191E+03  0.16500000000E+03 0.  0.
   -5000001    1    1    2    0    0  0.44311945118E+01  0.16412986687E+03  0.18826714418E+04  0.18970068546E+04  0.16500000000E+03 0.  0.
<mgrwt>
<rscale>  0 0.61485330E+03</rscale>
<asrwt>0</asrwt>
<pdfrwt beam="1">  1        2 0.32660700E+00 0.61485330E+03</pdfrwt>
<pdfrwt beam="2">  1       -2 0.59055650E-02 0.61485330E+03</pdfrwt>
<totfact> 0.94052575E+02</totfact>
</mgrwt>
</event>
<event>
 4    1  0.1837449E-005  0.4157376E+03  0.7818608E-02  0.1038463E+00
         -2   -1    0    0    0  501 -0.00000000000E+00  0.00000000000E+00  0.16239769739E+03  0.16239769741E+03  0.25500000000E-02 0. -1.
          2   -1    0    0  501    0  0.00000000000E+00 -0.00000000000E+00 -0.26607173258E+03  0.26607173259E+03  0.25500000000E-02 0.  1.
    5000001    1    1    2    0    0  0.71334154812E+02  0.77731975220E+02  0.19964431685E+02  0.19686137292E+03  0.16500000000E+03 0.  0.
   -5000001    1    1    2    0    0 -0.71334154812E+02 -0.77731975220E+02 -0.12363846688E+03  0.23160805708E+03  0.16500000000E+03 0.  0.
<mgrwt>
<rscale>  0 0.41573759E+03</rscale>
<asrwt>0</asrwt>
<pdfrwt beam="1">  1        2 0.38010247E-01 0.41573759E+03</pdfrwt>
<pdfrwt beam="2">  1       -2 0.23199671E-01 0.41573759E+03</pdfrwt>
<totfact> 0.22096807E+03</totfact>
</mgrwt>
</event>
<event>
 4    1  0.1837449E-005  0.5968809E+03  0.7818608E-02  0.9911898E-01
          2   -1    0    0  501    0  0.00000000000E+00  0.00000000000E+00  0.25259765558E+04  0.25259765558E+04  0.25500000000E-02 0. -1.
         -2   -1    0    0    0  501 -0.00000000000E+00 -0.00000000000E+00 -0.35260305824E+02  0.35260305916E+02  0.25500000000E-02 0.  1.
    5000001    1    1    2    0    0 -0.23175949551E+03  0.55571351257E+02  0.15500236359E+04  0.15768953392E+04  0.16500000000E+03 0.  0.
   -5000001    1    1    2    0    0  0.23175949551E+03 -0.55571351257E+02  0.94069261407E+03  0.98434152254E+03  0.16500000000E+03 0.  0.
<mgrwt>
<rscale>  0 0.59688091E+03</rscale>
<asrwt>0</asrwt>
<pdfrwt beam="1">  1        2 0.36085379E+00 0.59688091E+03</pdfrwt>
<pdfrwt beam="2">  1       -2 0.50371866E-02 0.59688091E+03</pdfrwt>
<totfact> 0.91064242E+02</totfact>
</mgrwt>
</event>
<event>
 4    1  0.1837449E-005  0.4562021E+03  0.7818608E-02  0.1025888E+00
          2   -1    0    0  501    0  0.00000000000E+00  0.00000000000E+00  0.11113869995E+04  0.11113869995E+04  0.25500000000E-02 0.  1.
         -2   -1    0    0    0  501 -0.00000000000E+00 -0.00000000000E+00 -0.46815464880E+02  0.46815464950E+02  0.25500000000E-02 0. -1.
    5000001    1    1    2    0    0 -0.15606355904E+03  0.20766592801E+02  0.54306091432E+03  0.58900529921E+03  0.16500000000E+03 0.  0.
   -5000001    1    1    2    0    0  0.15606355904E+03 -0.20766592801E+02  0.52151062031E+03  0.56919716525E+03  0.16500000000E+03 0.  0.
<mgrwt>
<rscale>  0 0.45620214E+03</rscale>
<asrwt>0</asrwt>
<pdfrwt beam="1">  1        2 0.15876954E+00 0.45620214E+03</pdfrwt>
<pdfrwt beam="2">  1       -2 0.66879247E-02 0.45620214E+03</pdfrwt>
<totfact> 0.31520997E+03</totfact>
</mgrwt>
</event>
<event>
 4    1  0.1837449E-005  0.4691003E+03  0.7818608E-02  0.1022174E+00
         -2   -1    0    0    0  501 -0.00000000000E+00  0.00000000000E+00  0.10705415065E+03  0.10705415068E+03  0.25500000000E-02 0. -1.
          2   -1    0    0  501    0  0.00000000000E+00 -0.00000000000E+00 -0.51388727576E+03  0.51388727577E+03  0.25500000000E-02 0.  1.
    5000001    1    1    2    0    0 -0.16062475633E+03 -0.35936637443E+02 -0.16846996070E+03  0.28757413290E+03  0.16500000000E+03 0.  0.
   -5000001    1    1    2    0    0  0.16062475633E+03  0.35936637443E+02 -0.23836316441E+03  0.33336729354E+03  0.16500000000E+03 0.  0.
<mgrwt>
<rscale>  0 0.46910027E+03</rscale>
<asrwt>0</asrwt>
<pdfrwt beam="1">  1        2 0.73412467E-01 0.46910027E+03</pdfrwt>
<pdfrwt beam="2">  1       -2 0.15293450E-01 0.46910027E+03</pdfrwt>
<totfact> 0.21909286E+03</totfact>
</mgrwt>
</event>
<event>
 4    1  0.1837449E-005  0.5002814E+03  0.7818608E-02  0.1013705E+00
          2   -1    0    0  501    0  0.00000000000E+00  0.00000000000E+00  0.90756225086E+03  0.90756225087E+03  0.25500000000E-02 0.  1.
         -2   -1    0    0    0  501 -0.00000000000E+00 -0.00000000000E+00 -0.68943348907E+02  0.68943348955E+02  0.25500000000E-02 0. -1.
    5000001    1    1    2    0    0 -0.13577143660E+01  0.13958073517E+03  0.66513232046E+03  0.69936444629E+03  0.16500000000E+03 0.  0.
   -5000001    1    1    2    0    0  0.13577143660E+01 -0.13958073517E+03  0.17348658150E+03  0.27714115353E+03  0.16500000000E+03 0.  0.
<mgrwt>
<rscale>  0 0.50028144E+03</rscale>
<asrwt>0</asrwt>
<pdfrwt beam="1">  1        2 0.12965174E+00 0.50028144E+03</pdfrwt>
<pdfrwt beam="2">  1       -2 0.98490505E-02 0.50028144E+03</pdfrwt>
<totfact> 0.22626421E+03</totfact>
</mgrwt>
</event>
<event>
 4    1  0.1837449E-005  0.4432036E+03  0.7818608E-02  0.1029768E+00
         -2   -1    0    0    0  501 -0.00000000000E+00  0.00000000000E+00  0.15831275116E+02  0.15831275321E+02  0.25500000000E-02 0. -1.
          2   -1    0    0  501    0  0.00000000000E+00 -0.00000000000E+00 -0.31019206558E+04  0.31019206558E+04  0.25500000000E-02 0.  1.
    5000001    1    1    2    0    0 -0.14994560677E+02  0.14120398743E+03 -0.12513888100E+04  0.12701820171E+04  0.16500000000E+03 0.  0.
   -5000001    1    1    2    0    0  0.14994560677E+02 -0.14120398743E+03 -0.18347005707E+04  0.18475699140E+04  0.16500000000E+03 0.  0.
<mgrwt>
<rscale>  0 0.44320361E+03</rscale>
<asrwt>0</asrwt>
<pdfrwt beam="1">  1        2 0.44313113E+00 0.44320361E+03</pdfrwt>
<pdfrwt beam="2">  1       -2 0.22616127E-02 0.44320361E+03</pdfrwt>
<totfact> 0.15475875E+03</totfact>
</mgrwt>
</event>
<event>
 4    1  0.1837449E-005  0.4677347E+03  0.7818608E-02  0.1022562E+00
         -2   -1    0    0    0  501 -0.00000000000E+00  0.00000000000E+00  0.31316370043E+02  0.31316370147E+02  0.25500000000E-02 0. -1.
          2   -1    0    0  501    0  0.00000000000E+00 -0.00000000000E+00 -0.17464963584E+04  0.17464963584E+04  0.25500000000E-02 0.  1.
    5000001    1    1    2    0    0  0.16469538187E+03 -0.26662935124E+01 -0.92739095735E+03  0.95624822389E+03  0.16500000000E+03 0.  0.
   -5000001    1    1    2    0    0 -0.16469538187E+03  0.26662935124E+01 -0.78778903105E+03  0.82156450469E+03  0.16500000000E+03 0.  0.
<mgrwt>
<rscale>  0 0.46773465E+03</rscale>
<asrwt>0</asrwt>
<pdfrwt beam="1">  1        2 0.24949942E+00 0.46773465E+03</pdfrwt>
<pdfrwt beam="2">  1       -2 0.44737683E-02 0.46773465E+03</pdfrwt>
<totfact> 0.27163967E+03</totfact>
</mgrwt>
</event>
<event>
 4    1  0.1837449E-005  0.8271151E+03  0.7818608E-02  0.9521578E-01
          2   -1    0    0  501    0  0.00000000000E+00  0.00000000000E+00  0.52011656865E+03  0.52011656866E+03  0.25500000000E-02 0.  1.
         -2   -1    0    0    0  501 -0.00000000000E+00 -0.00000000000E+00 -0.32882986424E+03  0.32882986425E+03  0.25500000000E-02 0. -1.
    5000001    1    1    2    0    0  0.28737523842E+03  0.16623961006E+03 -0.92455099117E+02  0.38209040940E+03  0.16500000000E+03 0.  0.
   -5000001    1    1    2    0    0 -0.28737523842E+03 -0.16623961006E+03  0.28374180353E+03  0.46685602350E+03  0.16500000000E+03 0.  0.
<mgrwt>
<rscale>  0 0.82711513E+03</rscale>
<asrwt>0</asrwt>
<pdfrwt beam="1">  1        2 0.74302367E-01 0.82711513E+03</pdfrwt>
<pdfrwt beam="2">  1       -2 0.46975695E-01 0.82711513E+03</pdfrwt>
<totfact> 0.27699081E+02</totfact>
</mgrwt>
</event>
<event>
 4    1  0.1837449E-005  0.4111661E+03  0.7818608E-02  0.1039980E+00
          2   -1    0    0  501    0  0.00000000000E+00  0.00000000000E+00  0.19015051971E+04  0.19015051971E+04  0.25500000000E-02 0.  1.
         -2   -1    0    0    0  501 -0.00000000000E+00 -0.00000000000E+00 -0.22226805987E+02  0.22226806133E+02  0.25500000000E-02 0. -1.
    5000001    1    1    2    0    0  0.91202820027E+02 -0.55632492059E+02  0.65788612798E+03  0.68662368583E+03  0.16500000000E+03 0.  0.
   -5000001    1    1    2    0    0 -0.91202820027E+02  0.55632492059E+02  0.12213922631E+04  0.12371083174E+04  0.16500000000E+03 0.  0.
<mgrwt>
<rscale>  0 0.41116608E+03</rscale>
<asrwt>0</asrwt>
<pdfrwt beam="1">  1        2 0.27164368E+00 0.41116608E+03</pdfrwt>
<pdfrwt beam="2">  1       -2 0.31752571E-02 0.41116608E+03</pdfrwt>
<totfact> 0.38340343E+03</totfact>
</mgrwt>
</event>
<event>
 4    1  0.1837449E-005  0.3761064E+03  0.7818608E-02  0.1052382E+00
         -2   -1    0    0    0  501 -0.00000000000E+00  0.00000000000E+00  0.13771178859E+04  0.13771178859E+04  0.25500000000E-02 0.  1.
          2   -1    0    0  501    0  0.00000000000E+00 -0.00000000000E+00 -0.25679719676E+02  0.25679719803E+02  0.25500000000E-02 0. -1.
    5000001    1    1    2    0    0  0.86467297067E+02 -0.23740103747E+02  0.71279539938E+03  0.73711767538E+03  0.16500000000E+03 0.  0.
   -5000001    1    1    2    0    0 -0.86467297067E+02  0.23740103747E+02  0.63864276684E+03  0.66567993031E+03  0.16500000000E+03 0.  0.
<mgrwt>
<rscale>  0 0.37610638E+03</rscale>
<asrwt>0</asrwt>
<pdfrwt beam="1">  1        2 0.36685314E-02 0.37610638E+03</pdfrwt>
<pdfrwt beam="2">  1       -2 0.19673113E+00 0.37610638E+03</pdfrwt>
<totfact> 0.36128166E+02</totfact>
</mgrwt>
</event>
<event>
 4    1  0.1837449E-005  0.1378611E+04  0.7818608E-02  0.8969448E-01
          2   -1    0    0  501    0  0.00000000000E+00  0.00000000000E+00  0.27701786884E+04  0.27701786884E+04  0.25500000000E-02 0.  1.
         -2   -1    0    0    0  501 -0.00000000000E+00 -0.00000000000E+00 -0.17152033551E+03  0.17152033553E+03  0.25500000000E-02 0. -1.
    5000001    1    1    2    0    0  0.43529585320E+03  0.37982493410E+03  0.57834153698E+03  0.83393848321E+03  0.16500000000E+03 0.  0.
   -5000001    1    1    2    0    0 -0.43529585320E+03 -0.37982493410E+03  0.20203168159E+04  0.21077605407E+04  0.16500000000E+03 0.  0.
<mgrwt>
<rscale>  0 0.13786109E+04</rscale>
<asrwt>0</asrwt>
<pdfrwt beam="1">  1        2 0.39573982E+00 0.13786109E+04</pdfrwt>
<pdfrwt beam="2">  1       -2 0.24502904E-01 0.13786109E+04</pdfrwt>
<totfact> 0.46067524E+01</totfact>
</mgrwt>
</event>
<event>
 4    1  0.1837449E-005  0.6289440E+03  0.7818608E-02  0.9847112E-01
         -2   -1    0    0    0  501 -0.00000000000E+00  0.00000000000E+00  0.18230549693E+03  0.18230549695E+03  0.25500000000E-02 0. -1.
          2   -1    0    0  501    0  0.00000000000E+00 -0.00000000000E+00 -0.54245555673E+03  0.54245555673E+03  0.25500000000E-02 0.  1.
    5000001    1    1    2    0    0 -0.10395067710E+03  0.24491123844E+03 -0.21426635756E+03  0.37937096616E+03  0.16500000000E+03 0.  0.
   -5000001    1    1    2    0    0  0.10395067710E+03 -0.24491123844E+03 -0.14588370223E+03  0.34539008752E+03  0.16500000000E+03 0.  0.
<mgrwt>
<rscale>  0 0.62894397E+03</rscale>
<asrwt>0</asrwt>
<pdfrwt beam="1">  1        2 0.77493650E-01 0.62894397E+03</pdfrwt>
<pdfrwt beam="2">  1       -2 0.26043643E-01 0.62894397E+03</pdfrwt>
<totfact> 0.81564424E+02</totfact>
</mgrwt>
</event>
<event>
 4    1  0.1837449E-005  0.4162617E+03  0.7818608E-02  0.1038290E+00
         -2   -1    0    0    0  501 -0.00000000000E+00  0.00000000000E+00  0.16802486381E+03  0.16802486382E+03  0.25500000000E-02 0. -1.
          2   -1    0    0  501    0  0.00000000000E+00 -0.00000000000E+00 -0.25780981063E+03  0.25780981064E+03  0.25500000000E-02 0.  1.
    5000001    1    1    2    0    0  0.89907994592E+02  0.79283663583E+02 -0.87369803114E+02  0.22187345334E+03  0.16500000000E+03 0.  0.
   -5000001    1    1    2    0    0 -0.89907994592E+02 -0.79283663583E+02 -0.24151437100E+01  0.20396122112E+03  0.16500000000E+03 0.  0.
<mgrwt>
<rscale>  0 0.41626174E+03</rscale>
<asrwt>0</asrwt>
<pdfrwt beam="1">  1        2 0.36829973E-01 0.41626174E+03</pdfrwt>
<pdfrwt beam="2">  1       -2 0.24003552E-01 0.41626174E+03</pdfrwt>
<totfact> 0.21539386E+03</totfact>
</mgrwt>
</event>
<event>
 4    1  0.1837449E-005  0.6183996E+03  0.7818608E-02  0.9867951E-01
          2   -1    0    0  501    0  0.00000000000E+00  0.00000000000E+00  0.50507640245E+03  0.50507640246E+03  0.25500000000E-02 0.  1.
         -2   -1    0    0    0  501 -0.00000000000E+00 -0.00000000000E+00 -0.18928724866E+03  0.18928724868E+03  0.25500000000E-02 0. -1.
    5000001    1    1    2    0    0 -0.24156288944E+03  0.98662130117E+02  0.17710390392E+03  0.35591802182E+03  0.16500000000E+03 0.  0.
   -5000001    1    1    2    0    0  0.24156288944E+03 -0.98662130117E+02  0.13868524986E+03  0.33844562931E+03  0.16500000000E+03 0.  0.
<mgrwt>
<rscale>  0 0.61839962E+03</rscale>
<asrwt>0</asrwt>
<pdfrwt beam="1">  1        2 0.72153772E-01 0.61839962E+03</pdfrwt>
<pdfrwt beam="2">  1       -2 0.27041035E-01 0.61839962E+03</pdfrwt>
<totfact> 0.82714398E+02</totfact>
</mgrwt>
</event>
<event>
 4    1  0.1837449E-005  0.6441930E+03  0.7818608E-02  0.9817737E-01
         -2   -1    0    0    0  501 -0.00000000000E+00  0.00000000000E+00  0.68436156065E+02  0.68436156113E+02  0.25500000000E-02 0. -1.
          2   -1    0    0  501    0  0.00000000000E+00 -0.00000000000E+00 -0.15159553593E+04  0.15159553593E+04  0.25500000000E-02 0.  1.
    5000001    1    1    2    0    0  0.70050017545E+02  0.23819193909E+03 -0.42375372220E+03  0.51810676688E+03  0.16500000000E+03 0.  0.
   -5000001    1    1    2    0    0 -0.70050017545E+02 -0.23819193909E+03 -0.10237654811E+04  0.10662847486E+04  0.16500000000E+03 0.  0.
<mgrwt>
<rscale>  0 0.64419301E+03</rscale>
<asrwt>0</asrwt>
<pdfrwt beam="1">  1        2 0.21656503E+00 0.64419301E+03</pdfrwt>
<pdfrwt beam="2">  1       -2 0.97765947E-02 0.64419301E+03</pdfrwt>
<totfact> 0.10349487E+03</totfact>
</mgrwt>
</event>
<event>
 4    1  0.1837449E-005  0.4661345E+03  0.7818608E-02  0.1023017E+00
         -2   -1    0    0    0  501 -0.00000000000E+00  0.00000000000E+00  0.31610270667E+03  0.31610270668E+03  0.25500000000E-02 0. -1.
          2   -1    0    0  501    0  0.00000000000E+00 -0.00000000000E+00 -0.17184397475E+03  0.17184397477E+03  0.25500000000E-02 0.  1.
    5000001    1    1    2    0    0  0.88505463866E+02 -0.97135199004E+02  0.17589868607E+03  0.27465216508E+03  0.16500000000E+03 0.  0.
   -5000001    1    1    2    0    0 -0.88505463866E+02  0.97135199004E+02 -0.31639954148E+02  0.21329451638E+03  0.16500000000E+03 0.  0.
<mgrwt>
<rscale>  0 0.46613451E+03</rscale>
<asrwt>0</asrwt>
<pdfrwt beam="1">  1        2 0.24549140E-01 0.46613451E+03</pdfrwt>
<pdfrwt beam="2">  1       -2 0.45157529E-01 0.46613451E+03</pdfrwt>
<totfact> 0.10415769E+03</totfact>
</mgrwt>
</event>
<event>
 4    1  0.1837449E-005  0.4569229E+03  0.7818608E-02  0.1025677E+00
         -2   -1    0    0    0  501 -0.00000000000E+00  0.00000000000E+00  0.12964572206E+02  0.12964572457E+02  0.25500000000E-02 0. -1.
          2   -1    0    0  501    0  0.00000000000E+00 -0.00000000000E+00 -0.40259434287E+04  0.40259434287E+04  0.25500000000E-02 0.  1.
    5000001    1    1    2    0    0 -0.11910019854E+03  0.10337582324E+03 -0.19188875087E+04  0.19324144714E+04  0.16500000000E+03 0.  0.
   -5000001    1    1    2    0    0  0.11910019854E+03 -0.10337582324E+03 -0.20940913478E+04  0.21064935298E+04  0.16500000000E+03 0.  0.
<mgrwt>
<rscale>  0 0.45692290E+03</rscale>
<asrwt>0</asrwt>
<pdfrwt beam="1">  1        2 0.57513398E+00 0.45692290E+03</pdfrwt>
<pdfrwt beam="2">  1       -2 0.18520843E-02 0.45692290E+03</pdfrwt>
<totfact> 0.58080104E+02</totfact>
</mgrwt>
</event>
<event>
 4    1  0.1837449E-005  0.3893878E+03  0.7818608E-02  0.1047518E+00
          2   -1    0    0  501    0  0.00000000000E+00  0.00000000000E+00  0.16406932799E+04  0.16406932799E+04  0.25500000000E-02 0.  1.
         -2   -1    0    0    0  501 -0.00000000000E+00 -0.00000000000E+00 -0.23103472175E+02  0.23103472316E+02  0.25500000000E-02 0. -1.
    5000001    1    1    2    0    0 -0.59268228115E+02  0.54175247141E+02  0.53079560933E+03  0.56161967482E+03  0.16500000000E+03 0.  0.
   -5000001    1    1    2    0    0  0.59268228115E+02 -0.54175247141E+02  0.10867941984E+04  0.11021770774E+04  0.16500000000E+03 0.  0.
<mgrwt>
<rscale>  0 0.38938778E+03</rscale>
<asrwt>0</asrwt>
<pdfrwt beam="1">  1        2 0.23438492E+00 0.38938778E+03</pdfrwt>
<pdfrwt beam="2">  1       -2 0.33004938E-02 0.38938778E+03</pdfrwt>
<totfact> 0.48799487E+03</totfact>
</mgrwt>
</event>
<event>
 4    1  0.1837449E-005  0.6694460E+03  0.7818608E-02  0.9770959E-01
         -2   -1    0    0    0  501 -0.00000000000E+00  0.00000000000E+00  0.59182288121E+02  0.59182288176E+02  0.25500000000E-02 0. -1.
          2   -1    0    0  501    0  0.00000000000E+00 -0.00000000000E+00 -0.18931251456E+04  0.18931251456E+04  0.25500000000E-02 0.  1.
    5000001    1    1    2    0    0 -0.24948397556E+03  0.93124152333E+02 -0.57314291697E+03  0.65317085443E+03  0.16500000000E+03 0.  0.
   -5000001    1    1    2    0    0  0.24948397556E+03 -0.93124152333E+02 -0.12607999405E+04  0.12991365793E+04  0.16500000000E+03 0.  0.
<mgrwt>
<rscale>  0 0.66944597E+03</rscale>
<asrwt>0</asrwt>
<pdfrwt beam="1">  1        2 0.27044641E+00 0.66944597E+03</pdfrwt>
<pdfrwt beam="2">  1       -2 0.84546138E-02 0.66944597E+03</pdfrwt>
<totfact> 0.83816649E+02</totfact>
</mgrwt>
</event>
<event>
 4    1  0.1837449E-005  0.7138066E+03  0.7818608E-02  0.9693908E-01
         -2   -1    0    0    0  501 -0.00000000000E+00  0.00000000000E+00  0.42275154894E+02  0.42275154971E+02  0.25500000000E-02 0. -1.
          2   -1    0    0  501    0  0.00000000000E+00 -0.00000000000E+00 -0.30131165097E+04  0.30131165097E+04  0.25500000000E-02 0.  1.
    5000001    1    1    2    0    0 -0.30168266408E+01  0.27093174281E+03 -0.21853949962E+04  0.22083001155E+04  0.16500000000E+03 0.  0.
   -5000001    1    1    2    0    0  0.30168266408E+01 -0.27093174281E+03 -0.78544635859E+03  0.84709154920E+03  0.16500000000E+03 0.  0.
<mgrwt>
<rscale>  0 0.71380660E+03</rscale>
<asrwt>0</asrwt>
<pdfrwt beam="1">  1        2 0.43044508E+00 0.71380660E+03</pdfrwt>
<pdfrwt beam="2">  1       -2 0.60393097E-02 0.71380660E+03</pdfrwt>
<totfact> 0.37486094E+02</totfact>
</mgrwt>
</event>
<event>
 4    1  0.1837449E-005  0.4557113E+03  0.7818608E-02  0.1026032E+00
          2   -1    0    0  501    0  0.00000000000E+00  0.00000000000E+00  0.36535370823E+03  0.36535370824E+03  0.25500000000E-02 0.  1.
         -2   -1    0    0    0  501 -0.00000000000E+00 -0.00000000000E+00 -0.14210392316E+03  0.14210392318E+03  0.25500000000E-02 0. -1.
    5000001    1    1    2    0    0  0.83243826618E+02  0.11557456498E+03  0.18554134972E+03  0.28624745797E+03  0.16500000000E+03 0.  0.
   -5000001    1    1    2    0    0 -0.83243826618E+02 -0.11557456498E+03  0.37708435353E+02  0.22121017345E+03  0.16500000000E+03 0.  0.
<mgrwt>
<rscale>  0 0.45571129E+03</rscale>
<asrwt>0</asrwt>
<pdfrwt beam="1">  1        2 0.52193386E-01 0.45571129E+03</pdfrwt>
<pdfrwt beam="2">  1       -2 0.20300561E-01 0.45571129E+03</pdfrwt>
<totfact> 0.19744946E+03</totfact>
</mgrwt>
</event>
<event>
 4    1  0.1837449E-005  0.4544649E+03  0.7818608E-02  0.1026399E+00
         -2   -1    0    0    0  501 -0.00000000000E+00  0.00000000000E+00  0.29575774550E+02  0.29575774660E+02  0.25500000000E-02 0. -1.
          2   -1    0    0  501    0  0.00000000000E+00 -0.00000000000E+00 -0.17458404882E+04  0.17458404882E+04  0.25500000000E-02 0.  1.
    5000001    1    1    2    0    0 -0.58355905595E+02 -0.97284616980E+02 -0.43846959789E+03  0.48202727796E+03  0.16500000000E+03 0.  0.
   -5000001    1    1    2    0    0  0.58355905595E+02  0.97284616980E+02 -0.12777951158E+04  0.12933889849E+04  0.16500000000E+03 0.  0.
<mgrwt>
<rscale>  0 0.45446489E+03</rscale>
<asrwt>0</asrwt>
<pdfrwt beam="1">  1        2 0.24940572E+00 0.45446489E+03</pdfrwt>
<pdfrwt beam="2">  1       -2 0.42251118E-02 0.45446489E+03</pdfrwt>
<totfact> 0.29682289E+03</totfact>
</mgrwt>
</event>
<event>
 4    1  0.1837449E-005  0.4199428E+03  0.7818608E-02  0.1037085E+00
         -2   -1    0    0    0  501 -0.00000000000E+00  0.00000000000E+00  0.28271669355E+03  0.28271669356E+03  0.25500000000E-02 0. -1.
          2   -1    0    0  501    0  0.00000000000E+00 -0.00000000000E+00 -0.15594404427E+03  0.15594404429E+03  0.25500000000E-02 0.  1.
    5000001    1    1    2    0    0 -0.64059449138E+02  0.10224328960E+02 -0.54121526284E+02  0.18537068143E+03  0.16500000000E+03 0.  0.
   -5000001    1    1    2    0    0  0.64059449138E+02 -0.10224328960E+02  0.18089417556E+03  0.25329005642E+03  0.16500000000E+03 0.  0.
<mgrwt>
<rscale>  0 0.41994278E+03</rscale>
<asrwt>0</asrwt>
<pdfrwt beam="1">  1        2 0.22277721E-01 0.41994278E+03</pdfrwt>
<pdfrwt beam="2">  1       -2 0.40388099E-01 0.41994278E+03</pdfrwt>
<totfact> 0.14462477E+03</totfact>
</mgrwt>
</event>
<event>
 4    1  0.1837449E-005  0.4350189E+03  0.7818608E-02  0.1032286E+00
         -2   -1    0    0    0  501 -0.00000000000E+00  0.00000000000E+00  0.12004094524E+03  0.12004094527E+03  0.25500000000E-02 0.  1.
          2   -1    0    0  501    0  0.00000000000E+00 -0.00000000000E+00 -0.39411849001E+03  0.39411849002E+03  0.25500000000E-02 0. -1.
    5000001    1    1    2    0    0  0.42396614045E+02 -0.12578568852E+03 -0.78347640634E+02  0.22579385535E+03  0.16500000000E+03 0.  0.
   -5000001    1    1    2    0    0 -0.42396614045E+02  0.12578568852E+03 -0.19572990413E+03  0.28836557994E+03  0.16500000000E+03 0.  0.
<mgrwt>
<rscale>  0 0.43501888E+03</rscale>
<asrwt>0</asrwt>
<pdfrwt beam="1">  1        2 0.56302641E-01 0.43501888E+03</pdfrwt>
<pdfrwt beam="2">  1       -2 0.17148707E-01 0.43501888E+03</pdfrwt>
<totfact> 0.24251816E+03</totfact>
</mgrwt>
</event>
<event>
 4    1  0.1837449E-005  0.5762303E+03  0.7818608E-02  0.9955986E-01
          2   -1    0    0  501    0  0.00000000000E+00  0.00000000000E+00  0.74730041050E+03  0.74730041051E+03  0.25500000000E-02 0. -1.
         -2   -1    0    0    0  501 -0.00000000000E+00 -0.00000000000E+00 -0.11108028249E+03  0.11108028252E+03  0.25500000000E-02 0.  1.
    5000001    1    1    2    0    0 -0.20942141928E+03 -0.44494531932E+02  0.16953117189E+03  0.31906568676E+03  0.16500000000E+03 0.  0.
   -5000001    1    1    2    0    0  0.20942141928E+03  0.44494531932E+02  0.46668895612E+03  0.53931500627E+03  0.16500000000E+03 0.  0.
<mgrwt>
<rscale>  0 0.57623030E+03</rscale>
<asrwt>0</asrwt>
<pdfrwt beam="1">  1        2 0.10675720E+00 0.57623030E+03</pdfrwt>
<pdfrwt beam="2">  1       -2 0.15868611E-01 0.57623030E+03</pdfrwt>
<totfact> 0.13222278E+03</totfact>
</mgrwt>
</event>
<event>
 4    1  0.1837449E-005  0.4839290E+03  0.7818608E-02  0.1018061E+00
          2   -1    0    0  501    0  0.00000000000E+00  0.00000000000E+00  0.54837618103E+03  0.54837618104E+03  0.25500000000E-02 0.  1.
         -2   -1    0    0    0  501 -0.00000000000E+00 -0.00000000000E+00 -0.10676399050E+03  0.10676399053E+03  0.25500000000E-02 0. -1.
    5000001    1    1    2    0    0 -0.78660533617E+02  0.15805766408E+03  0.23750363059E+03  0.33882544070E+03  0.16500000000E+03 0.  0.
   -5000001    1    1    2    0    0  0.78660533617E+02 -0.15805766408E+03  0.20410855995E+03  0.31631473087E+03  0.16500000000E+03 0.  0.
<mgrwt>
<rscale>  0 0.48392904E+03</rscale>
<asrwt>0</asrwt>
<pdfrwt beam="1">  1        2 0.78339454E-01 0.48392904E+03</pdfrwt>
<pdfrwt beam="2">  1       -2 0.15251999E-01 0.48392904E+03</pdfrwt>
<totfact> 0.20442837E+03</totfact>
</mgrwt>
</event>
<event>
 4    1  0.1837449E-005  0.4579513E+03  0.7818608E-02  0.1025377E+00
         -2   -1    0    0    0  501 -0.00000000000E+00  0.00000000000E+00  0.46839080710E+02  0.46839080779E+02  0.25500000000E-02 0. -1.
          2   -1    0    0  501    0  0.00000000000E+00 -0.00000000000E+00 -0.11193613396E+04  0.11193613396E+04  0.25500000000E-02 0.  1.
    5000001    1    1    2    0    0 -0.10787329960E+03 -0.94586626486E+02 -0.70938182358E+03  0.74231452249E+03  0.16500000000E+03 0.  0.
   -5000001    1    1    2    0    0  0.10787329960E+03  0.94586626486E+02 -0.36314043533E+03  0.42388589791E+03  0.16500000000E+03 0.  0.
<mgrwt>
<rscale>  0 0.45795133E+03</rscale>
<asrwt>0</asrwt>
<pdfrwt beam="1">  1        2 0.15990875E+00 0.45795133E+03</pdfrwt>
<pdfrwt beam="2">  1       -2 0.66912979E-02 0.45795133E+03</pdfrwt>
<totfact> 0.31167326E+03</totfact>
</mgrwt>
</event>
<event>
 4    1  0.1837449E-005  0.3893468E+03  0.7818608E-02  0.1047532E+00
          2   -1    0    0  501    0  0.00000000000E+00  0.00000000000E+00  0.22586262458E+04  0.22586262458E+04  0.25500000000E-02 0.  1.
         -2   -1    0    0    0  501 -0.00000000000E+00 -0.00000000000E+00 -0.16779107350E+02  0.16779107544E+02  0.25500000000E-02 0. -1.
    5000001    1    1    2    0    0 -0.10292341805E+03 -0.55668551079E+01  0.11616287292E+04  0.11778075074E+04  0.16500000000E+03 0.  0.
   -5000001    1    1    2    0    0  0.10292341805E+03  0.55668551079E+01  0.10802184093E+04  0.10975978460E+04  0.16500000000E+03 0.  0.
<mgrwt>
<rscale>  0 0.38934680E+03</rscale>
<asrwt>0</asrwt>
<pdfrwt beam="1">  1        2 0.32266064E+00 0.38934680E+03</pdfrwt>
<pdfrwt beam="2">  1       -2 0.23970172E-02 0.38934680E+03</pdfrwt>
<totfact> 0.38921660E+03</totfact>
</mgrwt>
</event>
<event>
 4    1  0.1837449E-005  0.4003611E+03  0.7818608E-02  0.1043655E+00
          2   -1    0    0  501    0  0.00000000000E+00  0.00000000000E+00  0.44697666110E+03  0.44697666111E+03  0.25500000000E-02 0.  1.
         -2   -1    0    0    0  501 -0.00000000000E+00 -0.00000000000E+00 -0.89651792427E+02  0.89651792463E+02  0.25500000000E-02 0. -1.
    5000001    1    1    2    0    0  0.11844927677E+02 -0.11271900951E+03  0.18023782077E+03  0.26936322959E+03  0.16500000000E+03 0.  0.
   -5000001    1    1    2    0    0 -0.11844927677E+02  0.11271900951E+03  0.17708704791E+03  0.26726522399E+03  0.16500000000E+03 0.  0.
<mgrwt>
<rscale>  0 0.40036113E+03</rscale>
<asrwt>0</asrwt>
<pdfrwt beam="1">  1        2 0.63853809E-01 0.40036113E+03</pdfrwt>
<pdfrwt beam="2">  1       -2 0.12807399E-01 0.40036113E+03</pdfrwt>
<totfact> 0.34307087E+03</totfact>
</mgrwt>
</event>
<event>
 4    1  0.1837449E-005  0.4138904E+03  0.7818608E-02  0.1039073E+00
          2   -1    0    0  501    0  0.00000000000E+00  0.00000000000E+00  0.33433203534E+04  0.33433203534E+04  0.25500000000E-02 0.  1.
         -2   -1    0    0    0  501 -0.00000000000E+00 -0.00000000000E+00 -0.12809516528E+02  0.12809516782E+02  0.25500000000E-02 0. -1.
    5000001    1    1    2    0    0 -0.11715644217E+03  0.34125799181E+02  0.18814891837E+04  0.18926480789E+04  0.16500000000E+03 0.  0.
   -5000001    1    1    2    0    0  0.11715644217E+03 -0.34125799181E+02  0.14490216531E+04  0.14634817913E+04  0.16500000000E+03 0.  0.
<mgrwt>
<rscale>  0 0.41389041E+03</rscale>
<asrwt>0</asrwt>
<pdfrwt beam="1">  1        2 0.47761794E+00 0.41389041E+03</pdfrwt>
<pdfrwt beam="2">  1       -2 0.18299281E-02 0.41389041E+03</pdfrwt>
<totfact> 0.15607571E+03</totfact>
</mgrwt>
</event>
<event>
 4    1  0.1837449E-005  0.6875027E+03  0.7818608E-02  0.9738846E-01
         -2   -1    0    0    0  501 -0.00000000000E+00  0.00000000000E+00  0.64707269504E+03  0.64707269504E+03  0.25500000000E-02 0. -1.
          2   -1    0    0  501    0  0.00000000000E+00 -0.00000000000E+00 -0.18261471067E+03  0.18261471069E+03  0.25500000000E-02 0.  1.
    5000001    1    1    2    0    0 -0.12061986719E+03  0.23765732283E+03  0.61944952890E+02  0.31951890811E+03  0.16500000000E+03 0.  0.
   -5000001    1    1    2    0    0  0.12061986719E+03 -0.23765732283E+03  0.40251303148E+03  0.51016849762E+03  0.16500000000E+03 0.  0.
<mgrwt>
<rscale>  0 0.68750271E+03</rscale>
<asrwt>0</asrwt>
<pdfrwt beam="1">  1        2 0.26087816E-01 0.68750271E+03</pdfrwt>
<pdfrwt beam="2">  1       -2 0.92438955E-01 0.68750271E+03</pdfrwt>
<totfact> 0.20938164E+02</totfact>
</mgrwt>
</event>
<event>
 4    1  0.1837449E-005  0.5576672E+03  0.7818608E-02  0.9997347E-01
         -2   -1    0    0    0  501 -0.00000000000E+00  0.00000000000E+00  0.89247932661E+02  0.89247932698E+02  0.25500000000E-02 0. -1.
          2   -1    0    0  501    0  0.00000000000E+00 -0.00000000000E+00 -0.87114807381E+03  0.87114807382E+03  0.25500000000E-02 0.  1.
    5000001    1    1    2    0    0 -0.19809015608E+03 -0.92321530577E+02 -0.48142843532E+03  0.55386037345E+03  0.16500000000E+03 0.  0.
   -5000001    1    1    2    0    0  0.19809015608E+03  0.92321530577E+02 -0.30047170583E+03  0.40653563307E+03  0.16500000000E+03 0.  0.
<mgrwt>
<rscale>  0 0.55766716E+03</rscale>
<asrwt>0</asrwt>
<pdfrwt beam="1">  1        2 0.12444972E+00 0.55766716E+03</pdfrwt>
<pdfrwt beam="2">  1       -2 0.12749705E-01 0.55766716E+03</pdfrwt>
<totfact> 0.15670881E+03</totfact>
</mgrwt>
</event>
<event>
 4    1  0.1837449E-005  0.3953677E+03  0.7818608E-02  0.1045396E+00
          2   -1    0    0  501    0  0.00000000000E+00  0.00000000000E+00  0.42747463345E+03  0.42747463346E+03  0.25500000000E-02 0.  1.
         -2   -1    0    0    0  501 -0.00000000000E+00 -0.00000000000E+00 -0.91418065931E+02  0.91418065967E+02  0.25500000000E-02 0. -1.
    5000001    1    1    2    0    0 -0.86430277455E+02  0.44275051680E+02  0.10341947690E+03  0.21760299002E+03  0.16500000000E+03 0.  0.
   -5000001    1    1    2    0    0  0.86430277455E+02 -0.44275051680E+02  0.23263709062E+03  0.30128970941E+03  0.16500000000E+03 0.  0.
<mgrwt>
<rscale>  0 0.39536770E+03</rscale>
<asrwt>0</asrwt>
<pdfrwt beam="1">  1        2 0.61067806E-01 0.39536770E+03</pdfrwt>
<pdfrwt beam="2">  1       -2 0.13059724E-01 0.39536770E+03</pdfrwt>
<totfact> 0.34894244E+03</totfact>
</mgrwt>
</event>
<event>
 4    1  0.1837449E-005  0.2055643E+04  0.7818608E-02  0.8581038E-01
          2   -1    0    0  501    0  0.00000000000E+00  0.00000000000E+00  0.44825317549E+04  0.44825317549E+04  0.25500000000E-02 0.  1.
         -2   -1    0    0    0  501 -0.00000000000E+00 -0.00000000000E+00 -0.23567429381E+03  0.23567429382E+03  0.25500000000E-02 0. -1.
    5000001    1    1    2    0    0 -0.17720985127E+03  0.93503859015E+03  0.29300107593E+04  0.30851075420E+04  0.16500000000E+03 0.  0.
   -5000001    1    1    2    0    0  0.17720985127E+03 -0.93503859015E+03  0.13168467018E+04  0.16330985067E+04  0.16500000000E+03 0.  0.
<mgrwt>
<rscale>  0 0.20556435E+04</rscale>
<asrwt>0</asrwt>
<pdfrwt beam="1">  1        2 0.64036167E+00 0.20556435E+04</pdfrwt>
<pdfrwt beam="2">  1       -2 0.33667757E-01 0.20556435E+04</pdfrwt>
<totfact> 0.19387543E+00</totfact>
</mgrwt>
</event>
<event>
 4    1  0.1837449E-005  0.6009180E+03  0.7818608E-02  0.9903503E-01
         -2   -1    0    0    0  501 -0.00000000000E+00  0.00000000000E+00  0.26782624018E+03  0.26782624019E+03  0.25500000000E-02 0. -1.
          2   -1    0    0  501    0  0.00000000000E+00 -0.00000000000E+00 -0.33706786675E+03  0.33706786676E+03  0.25500000000E-02 0.  1.
    5000001    1    1    2    0    0  0.18078260425E+03  0.77997052772E+02 -0.19148751020E+03  0.32040342820E+03  0.16500000000E+03 0.  0.
   -5000001    1    1    2    0    0 -0.18078260425E+03 -0.77997052772E+02  0.12224588362E+03  0.28449067876E+03  0.16500000000E+03 0.  0.
<mgrwt>
<rscale>  0 0.60091803E+03</rscale>
<asrwt>0</asrwt>
<pdfrwt beam="1">  1        2 0.48152552E-01 0.60091803E+03</pdfrwt>
<pdfrwt beam="2">  1       -2 0.38260892E-01 0.60091803E+03</pdfrwt>
<totfact> 0.67935584E+02</totfact>
</mgrwt>
</event>
<event>
 4    1  0.1837449E-005  0.5166769E+03  0.7818608E-02  0.1009515E+00
         -2   -1    0    0    0  501 -0.00000000000E+00  0.00000000000E+00  0.10473954634E+03  0.10473954638E+03  0.25500000000E-02 0. -1.
          2   -1    0    0  501    0  0.00000000000E+00 -0.00000000000E+00 -0.63718780737E+03  0.63718780738E+03  0.25500000000E-02 0.  1.
    5000001    1    1    2    0    0 -0.60160546939E+02  0.17229223375E+03 -0.37938156775E+03  0.45217173636E+03  0.16500000000E+03 0.  0.
   -5000001    1    1    2    0    0  0.60160546939E+02 -0.17229223375E+03 -0.15306669328E+03  0.28975561739E+03  0.16500000000E+03 0.  0.
<mgrwt>
<rscale>  0 0.51667693E+03</rscale>
<asrwt>0</asrwt>
<pdfrwt beam="1">  1        2 0.91026827E-01 0.51667693E+03</pdfrwt>
<pdfrwt beam="2">  1       -2 0.14962793E-01 0.51667693E+03</pdfrwt>
<totfact> 0.17724650E+03</totfact>
</mgrwt>
</event>
<event>
 4    1  0.1837449E-005  0.3985340E+03  0.7818608E-02  0.1044288E+00
         -2   -1    0    0    0  501 -0.00000000000E+00  0.00000000000E+00  0.20954253136E+02  0.20954253291E+02  0.25500000000E-02 0. -1.
          2   -1    0    0  501    0  0.00000000000E+00 -0.00000000000E+00 -0.18949539733E+04  0.18949539733E+04  0.25500000000E-02 0.  1.
    5000001    1    1    2    0    0  0.23257742757E+02  0.61346284213E+02 -0.13717445891E+04  0.13831892520E+04  0.16500000000E+03 0.  0.
   -5000001    1    1    2    0    0 -0.23257742757E+02 -0.61346284213E+02 -0.50225513104E+03  0.53271897454E+03  0.16500000000E+03 0.  0.
<mgrwt>
<rscale>  0 0.39853404E+03</rscale>
<asrwt>0</asrwt>
<pdfrwt beam="1">  1        2 0.27070760E+00 0.39853404E+03</pdfrwt>
<pdfrwt beam="2">  1       -2 0.29934660E-02 0.39853404E+03</pdfrwt>
<totfact> 0.42223972E+03</totfact>
</mgrwt>
</event>
<event>
 4    1  0.1837449E-005  0.5168553E+03  0.7818608E-02  0.1009471E+00
         -2   -1    0    0    0  501 -0.00000000000E+00  0.00000000000E+00  0.24981080917E+02  0.24981081047E+02  0.25500000000E-02 0. -1.
          2   -1    0    0  501    0  0.00000000000E+00 -0.00000000000E+00 -0.26734172951E+04  0.26734172951E+04  0.25500000000E-02 0.  1.
    5000001    1    1    2    0    0 -0.12671389574E+03  0.15183143753E+03 -0.12133873714E+04  0.12404205375E+04  0.16500000000E+03 0.  0.
   -5000001    1    1    2    0    0  0.12671389574E+03 -0.15183143753E+03 -0.14350488428E+04  0.14579778386E+04  0.16500000000E+03 0.  0.
<mgrwt>
<rscale>  0 0.51685531E+03</rscale>
<asrwt>0</asrwt>
<pdfrwt beam="1">  1        2 0.38191657E+00 0.51685531E+03</pdfrwt>
<pdfrwt beam="2">  1       -2 0.35687276E-02 0.51685531E+03</pdfrwt>
<totfact> 0.13059987E+03</totfact>
</mgrwt>
</event>
<event>
 4    1  0.1837449E-005  0.4287825E+03  0.7818608E-02  0.1034245E+00
          2   -1    0    0  501    0  0.00000000000E+00  0.00000000000E+00  0.12688006350E+04  0.12688006350E+04  0.25500000000E-02 0. -1.
         -2   -1    0    0    0  501 -0.00000000000E+00 -0.00000000000E+00 -0.36226030779E+02  0.36226030869E+02  0.25500000000E-02 0.  1.
    5000001    1    1    2    0    0  0.12369647638E+03 -0.36902156989E+02  0.47761221460E+03  0.52153716550E+03  0.16500000000E+03 0.  0.
   -5000001    1    1    2    0    0 -0.12369647638E+03  0.36902156989E+02  0.75496238964E+03  0.78348950040E+03  0.16500000000E+03 0.  0.
<mgrwt>
<rscale>  0 0.42878251E+03</rscale>
<asrwt>0</asrwt>
<pdfrwt beam="1">  1        2 0.18125725E+00 0.42878251E+03</pdfrwt>
<pdfrwt beam="2">  1       -2 0.51751469E-02 0.42878251E+03</pdfrwt>
<totfact> 0.38362676E+03</totfact>
</mgrwt>
</event>
<event>
 4    1  0.1837449E-005  0.4946482E+03  0.7818608E-02  0.1015185E+00
         -2   -1    0    0    0  501 -0.00000000000E+00  0.00000000000E+00  0.44469162474E+03  0.44469162475E+03  0.25500000000E-02 0.  1.
          2   -1    0    0  501    0  0.00000000000E+00 -0.00000000000E+00 -0.13755423651E+03  0.13755423654E+03  0.25500000000E-02 0. -1.
    5000001    1    1    2    0    0 -0.16498478320E+03  0.69025071970E+02  0.10145961981E+03  0.26363515262E+03  0.16500000000E+03 0.  0.
   -5000001    1    1    2    0    0  0.16498478320E+03 -0.69025071970E+02  0.20567776842E+03  0.31861070866E+03  0.16500000000E+03 0.  0.
<mgrwt>
<rscale>  0 0.49464823E+03</rscale>
<asrwt>0</asrwt>
<pdfrwt beam="1">  1        2 0.19650605E-01 0.49464823E+03</pdfrwt>
<pdfrwt beam="2">  1       -2 0.63527374E-01 0.49464823E+03</pdfrwt>
<totfact> 0.66944594E+02</totfact>
</mgrwt>
</event>
<event>
 4    1  0.1837449E-005  0.4325542E+03  0.7818608E-02  0.1033056E+00
         -2   -1    0    0    0  501 -0.00000000000E+00  0.00000000000E+00  0.75185599471E+02  0.75185599514E+02  0.25500000000E-02 0. -1.
          2   -1    0    0  501    0  0.00000000000E+00 -0.00000000000E+00 -0.62213760292E+03  0.62213760292E+03  0.25500000000E-02 0.  1.
    5000001    1    1    2    0    0 -0.11472485733E+03 -0.35147685887E+02 -0.15774480905E+03  0.25788675324E+03  0.16500000000E+03 0.  0.
   -5000001    1    1    2    0    0  0.11472485733E+03  0.35147685887E+02 -0.38920719440E+03  0.43943644920E+03  0.16500000000E+03 0.  0.
<mgrwt>
<rscale>  0 0.43255422E+03</rscale>
<asrwt>0</asrwt>
<pdfrwt beam="1">  1        2 0.88876798E-01 0.43255422E+03</pdfrwt>
<pdfrwt beam="2">  1       -2 0.10740800E-01 0.43255422E+03</pdfrwt>
<totfact> 0.31430157E+03</totfact>
</mgrwt>
</event>
<event>
 4    1  0.1837449E-005  0.6611894E+03  0.7818608E-02  0.9786007E-01
          2   -1    0    0  501    0  0.00000000000E+00  0.00000000000E+00  0.15666792619E+04  0.15666792619E+04  0.25500000000E-02 0.  1.
         -2   -1    0    0    0  501 -0.00000000000E+00 -0.00000000000E+00 -0.69760844658E+02  0.69760844705E+02  0.25500000000E-02 0. -1.
    5000001    1    1    2    0    0  0.14285150281E+03 -0.24740484982E+03  0.80108745244E+03  0.86636125146E+03  0.16500000000E+03 0.  0.
   -5000001    1    1    2    0    0 -0.14285150281E+03  0.24740484982E+03  0.69583096480E+03  0.77007885515E+03  0.16500000000E+03 0.  0.
<mgrwt>
<rscale>  0 0.66118944E+03</rscale>
<asrwt>0</asrwt>
<pdfrwt beam="1">  1        2 0.22381129E+00 0.66118944E+03</pdfrwt>
<pdfrwt beam="2">  1       -2 0.99658366E-02 0.66118944E+03</pdfrwt>
<totfact> 0.94350604E+02</totfact>
</mgrwt>
</event>
<event>
 4    1  0.1837449E-005  0.4365256E+03  0.7818608E-02  0.1031818E+00
         -2   -1    0    0    0  501 -0.00000000000E+00  0.00000000000E+00  0.41498083770E+02  0.41498083848E+02  0.25500000000E-02 0. -1.
          2   -1    0    0  501    0  0.00000000000E+00 -0.00000000000E+00 -0.11479725339E+04  0.11479725339E+04  0.25500000000E-02 0.  1.
    5000001    1    1    2    0    0  0.12305925791E+03  0.17960916908E+01 -0.35548582242E+03  0.41078215254E+03  0.16500000000E+03 0.  0.
   -5000001    1    1    2    0    0 -0.12305925791E+03 -0.17960916908E+01 -0.75098862775E+03  0.77868846525E+03  0.16500000000E+03 0.  0.
<mgrwt>
<rscale>  0 0.43652565E+03</rscale>
<asrwt>0</asrwt>
<pdfrwt beam="1">  1        2 0.16399606E+00 0.43652565E+03</pdfrwt>
<pdfrwt beam="2">  1       -2 0.59282984E-02 0.43652565E+03</pdfrwt>
<totfact> 0.36255535E+03</totfact>
</mgrwt>
</event>
<event>
 4    1  0.1837449E-005  0.6071546E+03  0.7818608E-02  0.9890673E-01
          2   -1    0    0  501    0  0.00000000000E+00  0.00000000000E+00  0.98903412476E+03  0.98903412477E+03  0.25500000000E-02 0.  1.
         -2   -1    0    0    0  501 -0.00000000000E+00 -0.00000000000E+00 -0.93180989318E+02  0.93180989353E+02  0.25500000000E-02 0. -1.
    5000001    1    1    2    0    0 -0.89601975101E+02  0.21341160668E+03  0.63791425565E+03  0.69837856881E+03  0.16500000000E+03 0.  0.
   -5000001    1    1    2    0    0  0.89601975101E+02 -0.21341160668E+03  0.25793887979E+03  0.38383654531E+03  0.16500000000E+03 0.  0.
<mgrwt>
<rscale>  0 0.60715460E+03</rscale>
<asrwt>0</asrwt>
<pdfrwt beam="1">  1        2 0.14129060E+00 0.60715460E+03</pdfrwt>
<pdfrwt beam="2">  1       -2 0.13311569E-01 0.60715460E+03</pdfrwt>
<totfact> 0.12274612E+03</totfact>
</mgrwt>
</event>
<event>
 4    1  0.1837449E-005  0.8781812E+03  0.7818608E-02  0.9453275E-01
          2   -1    0    0  501    0  0.00000000000E+00  0.00000000000E+00  0.19234888474E+04  0.19234888474E+04  0.25500000000E-02 0.  1.
         -2   -1    0    0    0  501 -0.00000000000E+00 -0.00000000000E+00 -0.10023482615E+03  0.10023482618E+03  0.25500000000E-02 0. -1.
    5000001    1    1    2    0    0  0.93077569630E+02  0.37749973321E+03  0.63503470993E+03  0.76266871272E+03  0.16500000000E+03 0.  0.
   -5000001    1    1    2    0    0 -0.93077569630E+02 -0.37749973321E+03  0.11882193114E+04  0.12610549609E+04  0.16500000000E+03 0.  0.
<mgrwt>
<rscale>  0 0.87818123E+03</rscale>
<asrwt>0</asrwt>
<pdfrwt beam="1">  1        2 0.27478409E+00 0.87818123E+03</pdfrwt>
<pdfrwt beam="2">  1       -2 0.14319262E-01 0.87818123E+03</pdfrwt>
<totfact> 0.33613772E+02</totfact>
</mgrwt>
</event>
<event>
 4    1  0.1837449E-005  0.5320346E+03  0.7818608E-02  0.1005740E+00
          2   -1    0    0  501    0  0.00000000000E+00  0.00000000000E+00  0.25036090260E+03  0.25036090261E+03  0.25500000000E-02 0.  1.
         -2   -1    0    0    0  501 -0.00000000000E+00 -0.00000000000E+00 -0.28265282297E+03  0.28265282298E+03  0.25500000000E-02 0. -1.
    5000001    1    1    2    0    0 -0.14167215217E+03 -0.14919139343E+03 -0.51011517016E+02  0.26861914571E+03  0.16500000000E+03 0.  0.
   -5000001    1    1    2    0    0  0.14167215217E+03  0.14919139343E+03  0.18719596652E+02  0.26439457988E+03  0.16500000000E+03 0.  0.
<mgrwt>
<rscale>  0 0.53203465E+03</rscale>
<asrwt>0</asrwt>
<pdfrwt beam="1">  1        2 0.35765843E-01 0.53203465E+03</pdfrwt>
<pdfrwt beam="2">  1       -2 0.40378975E-01 0.53203465E+03</pdfrwt>
<totfact> 0.85055840E+02</totfact>
</mgrwt>
</event>
<event>
 4    1  0.1837449E-005  0.5594497E+03  0.7818608E-02  0.9993301E-01
         -2   -1    0    0    0  501 -0.00000000000E+00  0.00000000000E+00  0.70978798017E+02  0.70978798062E+02  0.25500000000E-02 0. -1.
          2   -1    0    0  501    0  0.00000000000E+00 -0.00000000000E+00 -0.11023855033E+04  0.11023855033E+04  0.25500000000E-02 0.  1.
    5000001    1    1    2    0    0 -0.29129297560E+02  0.20885702501E+03 -0.68546245507E+03  0.73590322066E+03  0.16500000000E+03 0.  0.
   -5000001    1    1    2    0    0  0.29129297560E+02 -0.20885702501E+03 -0.34594425020E+03  0.43746108069E+03  0.16500000000E+03 0.  0.
<mgrwt>
<rscale>  0 0.55944972E+03</rscale>
<asrwt>0</asrwt>
<pdfrwt beam="1">  1        2 0.15748363E+00 0.55944972E+03</pdfrwt>
<pdfrwt beam="2">  1       -2 0.10139829E-01 0.55944972E+03</pdfrwt>
<totfact> 0.16437377E+03</totfact>
</mgrwt>
</event>
<event>
 4    1  0.1837449E-005  0.4297549E+03  0.7818608E-02  0.1033937E+00
          2   -1    0    0  501    0  0.00000000000E+00  0.00000000000E+00  0.52551586171E+03  0.52551586172E+03  0.25500000000E-02 0.  1.
         -2   -1    0    0    0  501 -0.00000000000E+00 -0.00000000000E+00 -0.87860950837E+02  0.87860950874E+02  0.25500000000E-02 0. -1.
    5000001    1    1    2    0    0 -0.38654597789E+02 -0.10274812816E+03  0.33735085474E+03  0.39125689127E+03  0.16500000000E+03 0.  0.
   -5000001    1    1    2    0    0  0.38654597789E+02  0.10274812816E+03  0.10030405613E+03  0.22211992132E+03  0.16500000000E+03 0.  0.
<mgrwt>
<rscale>  0 0.42975492E+03</rscale>
<asrwt>0</asrwt>
<pdfrwt beam="1">  1        2 0.75073698E-01 0.42975492E+03</pdfrwt>
<pdfrwt beam="2">  1       -2 0.12551564E-01 0.42975492E+03</pdfrwt>
<totfact> 0.29617209E+03</totfact>
</mgrwt>
</event>
<event>
 4    1  0.1837449E-005  0.8134414E+03  0.7818608E-02  0.9540763E-01
          2   -1    0    0  501    0  0.00000000000E+00  0.00000000000E+00  0.57537087298E+03  0.57537087299E+03  0.25500000000E-02 0.  1.
         -2   -1    0    0    0  501 -0.00000000000E+00 -0.00000000000E+00 -0.28750450207E+03  0.28750450208E+03  0.25500000000E-02 0. -1.
    5000001    1    1    2    0    0 -0.24815751237E+02 -0.37066748157E+03  0.15842011394E+03  0.43627071401E+03  0.16500000000E+03 0.  0.
   -5000001    1    1    2    0    0  0.24815751237E+02  0.37066748157E+03  0.12944625697E+03  0.42660466107E+03  0.16500000000E+03 0.  0.
<mgrwt>
<rscale>  0 0.81344137E+03</rscale>
<asrwt>0</asrwt>
<pdfrwt beam="1">  1        2 0.82195838E-01 0.81344137E+03</pdfrwt>
<pdfrwt beam="2">  1       -2 0.41072072E-01 0.81344137E+03</pdfrwt>
<totfact> 0.32163621E+02</totfact>
</mgrwt>
</event>
<event>
 4    1  0.1837449E-005  0.6722413E+03  0.7818608E-02  0.9765917E-01
          2   -1    0    0  501    0  0.00000000000E+00  0.00000000000E+00  0.13555565072E+03  0.13555565075E+03  0.25500000000E-02 0.  1.
         -2   -1    0    0    0  501 -0.00000000000E+00 -0.00000000000E+00 -0.83343704652E+03  0.83343704652E+03  0.25500000000E-02 0. -1.
    5000001    1    1    2    0    0 -0.19712566426E+03 -0.19699163934E+03 -0.47857272560E+03  0.57785905476E+03  0.16500000000E+03 0.  0.
   -5000001    1    1    2    0    0  0.19712566426E+03  0.19699163934E+03 -0.21930867019E+03  0.39113364251E+03  0.16500000000E+03 0.  0.
<mgrwt>
<rscale>  0 0.67224133E+03</rscale>
<asrwt>0</asrwt>
<pdfrwt beam="1">  1        2 0.19365093E-01 0.67224133E+03</pdfrwt>
<pdfrwt beam="2">  1       -2 0.11906243E+00 0.67224133E+03</pdfrwt>
<totfact> 0.16168297E+02</totfact>
</mgrwt>
</event>
<event>
 4    1  0.1837449E-005  0.5678486E+03  0.7818608E-02  0.9974451E-01
         -2   -1    0    0    0  501 -0.00000000000E+00  0.00000000000E+00  0.20407410994E+03  0.20407410995E+03  0.25500000000E-02 0. -1.
          2   -1    0    0  501    0  0.00000000000E+00 -0.00000000000E+00 -0.39501829625E+03  0.39501829625E+03  0.25500000000E-02 0.  1.
    5000001    1    1    2    0    0  0.18840220881E+03 -0.71732650874E+02  0.23642771520E+02  0.26158162422E+03  0.16500000000E+03 0.  0.
   -5000001    1    1    2    0    0 -0.18840220881E+03  0.71732650874E+02 -0.21458695783E+03  0.33751078199E+03  0.16500000000E+03 0.  0.
<mgrwt>
<rscale>  0 0.56784860E+03</rscale>
<asrwt>0</asrwt>
<pdfrwt beam="1">  1        2 0.56431185E-01 0.56784860E+03</pdfrwt>
<pdfrwt beam="2">  1       -2 0.29153445E-01 0.56784860E+03</pdfrwt>
<totfact> 0.95049482E+02</totfact>
</mgrwt>
</event>
<event>
 4    1  0.1837449E-005  0.7291199E+03  0.7818608E-02  0.9668690E-01
          2   -1    0    0  501    0  0.00000000000E+00  0.00000000000E+00  0.67464303036E+03  0.67464303037E+03  0.25500000000E-02 0.  1.
         -2   -1    0    0    0  501 -0.00000000000E+00 -0.00000000000E+00 -0.19699894736E+03  0.19699894737E+03  0.25500000000E-02 0. -1.
    5000001    1    1    2    0    0 -0.56033598122E+02 -0.28727951988E+03  0.69715953308E+02  0.34315390251E+03  0.16500000000E+03 0.  0.
   -5000001    1    1    2    0    0  0.56033598122E+02  0.28727951988E+03  0.40792812970E+03  0.52848807523E+03  0.16500000000E+03 0.  0.
<mgrwt>
<rscale>  0 0.72911993E+03</rscale>
<asrwt>0</asrwt>
<pdfrwt beam="1">  1        2 0.96377576E-01 0.72911993E+03</pdfrwt>
<pdfrwt beam="2">  1       -2 0.28142707E-01 0.72911993E+03</pdfrwt>
<totfact> 0.54574462E+02</totfact>
</mgrwt>
</event>
<event>
 4    1  0.1837449E-005  0.6658090E+03  0.7818608E-02  0.9777559E-01
         -2   -1    0    0    0  501 -0.00000000000E+00  0.00000000000E+00  0.46002147704E+02  0.46002147775E+02  0.25500000000E-02 0. -1.
          2   -1    0    0  501    0  0.00000000000E+00 -0.00000000000E+00 -0.24091357412E+04  0.24091357412E+04  0.25500000000E-02 0.  1.
    5000001    1    1    2    0    0  0.21061124510E+02 -0.26579855089E+03 -0.15939678370E+04  0.16245155912E+04  0.16500000000E+03 0.  0.
   -5000001    1    1    2    0    0 -0.21061124510E+02  0.26579855089E+03 -0.76916575652E+03  0.83062229781E+03  0.16500000000E+03 0.  0.
<mgrwt>
<rscale>  0 0.66580904E+03</rscale>
<asrwt>0</asrwt>
<pdfrwt beam="1">  1        2 0.34416217E+00 0.66580904E+03</pdfrwt>
<pdfrwt beam="2">  1       -2 0.65717369E-02 0.66580904E+03</pdfrwt>
<totfact> 0.68608758E+02</totfact>
</mgrwt>
</event>
<event>
 4    1  0.1837449E-005  0.4338368E+03  0.7818608E-02  0.1032655E+00
         -2   -1    0    0    0  501 -0.00000000000E+00  0.00000000000E+00  0.39135049278E+02  0.39135049361E+02  0.25500000000E-02 0. -1.
          2   -1    0    0  501    0  0.00000000000E+00 -0.00000000000E+00 -0.12023387518E+04  0.12023387518E+04  0.25500000000E-02 0.  1.
    5000001    1    1    2    0    0  0.13777278611E+03  0.28952640715E+02 -0.57302160649E+03  0.61269760690E+03  0.16500000000E+03 0.  0.
   -5000001    1    1    2    0    0 -0.13777278611E+03 -0.28952640715E+02 -0.59018209606E+03  0.62877619429E+03  0.16500000000E+03 0.  0.
<mgrwt>
<rscale>  0 0.43383677E+03</rscale>
<asrwt>0</asrwt>
<pdfrwt beam="1">  1        2 0.17176266E+00 0.43383677E+03</pdfrwt>
<pdfrwt beam="2">  1       -2 0.55907221E-02 0.43383677E+03</pdfrwt>
<totfact> 0.37023743E+03</totfact>
</mgrwt>
</event>
<event>
 4    1  0.1837449E-005  0.8402253E+03  0.7818608E-02  0.9503551E-01
          2   -1    0    0  501    0  0.00000000000E+00  0.00000000000E+00  0.45472737117E+03  0.45472737117E+03  0.25500000000E-02 0.  1.
         -2   -1    0    0    0  501 -0.00000000000E+00 -0.00000000000E+00 -0.38813282495E+03  0.38813282496E+03  0.25500000000E-02 0. -1.
    5000001    1    1    2    0    0 -0.57052486012E+02 -0.35007508358E+03 -0.12035640723E+03  0.40928989123E+03  0.16500000000E+03 0.  0.
   -5000001    1    1    2    0    0  0.57052486012E+02  0.35007508358E+03  0.18695095345E+03  0.43357030490E+03  0.16500000000E+03 0.  0.
<mgrwt>
<rscale>  0 0.84022525E+03</rscale>
<asrwt>0</asrwt>
<pdfrwt beam="1">  1        2 0.64961054E-01 0.84022525E+03</pdfrwt>
<pdfrwt beam="2">  1       -2 0.55447546E-01 0.84022525E+03</pdfrwt>
<totfact> 0.23001697E+02</totfact>
</mgrwt>
</event>
<event>
 4    1  0.1837449E-005  0.4376753E+03  0.7818608E-02  0.1031462E+00
         -2   -1    0    0    0  501 -0.00000000000E+00  0.00000000000E+00  0.10471168423E+03  0.10471168426E+03  0.25500000000E-02 0. -1.
          2   -1    0    0  501    0  0.00000000000E+00 -0.00000000000E+00 -0.45735034320E+03  0.45735034320E+03  0.25500000000E-02 0.  1.
    5000001    1    1    2    0    0  0.46550594778E+02  0.11333794032E+03 -0.79769476155E+02  0.22045547377E+03  0.16500000000E+03 0.  0.
   -5000001    1    1    2    0    0 -0.46550594778E+02 -0.11333794032E+03 -0.27286918282E+03  0.34160655369E+03  0.16500000000E+03 0.  0.
<mgrwt>
<rscale>  0 0.43767534E+03</rscale>
<asrwt>0</asrwt>
<pdfrwt beam="1">  1        2 0.65335762E-01 0.43767534E+03</pdfrwt>
<pdfrwt beam="2">  1       -2 0.14958812E-01 0.43767534E+03</pdfrwt>
<totfact> 0.25896347E+03</totfact>
</mgrwt>
</event>
<event>
 4    1  0.1837449E-005  0.5852958E+03  0.7818608E-02  0.9936391E-01
         -2   -1    0    0    0  501 -0.00000000000E+00  0.00000000000E+00  0.77353206758E+02  0.77353206800E+02  0.25500000000E-02 0. -1.
          2   -1    0    0  501    0  0.00000000000E+00 -0.00000000000E+00 -0.11071655684E+04  0.11071655684E+04  0.25500000000E-02 0.  1.
    5000001    1    1    2    0    0 -0.14690822631E+02  0.22000751061E+03 -0.31457417401E+03  0.41809213811E+03  0.16500000000E+03 0.  0.
   -5000001    1    1    2    0    0  0.14690822631E+02 -0.22000751061E+03 -0.71523818763E+03  0.76642663709E+03  0.16500000000E+03 0.  0.
<mgrwt>
<rscale>  0 0.58529585E+03</rscale>
<asrwt>0</asrwt>
<pdfrwt beam="1">  1        2 0.15816650E+00 0.58529585E+03</pdfrwt>
<pdfrwt beam="2">  1       -2 0.11050459E-01 0.58529585E+03</pdfrwt>
<totfact> 0.14193508E+03</totfact>
</mgrwt>
</event>
<event>
 4    1  0.1837449E-005  0.1080724E+04  0.7818608E-02  0.9224186E-01
         -2   -1    0    0    0  501 -0.00000000000E+00  0.00000000000E+00  0.25021870177E+03  0.25021870178E+03  0.25500000000E-02 0. -1.
          2   -1    0    0  501    0  0.00000000000E+00 -0.00000000000E+00 -0.11669427026E+04  0.11669427026E+04  0.25500000000E-02 0.  1.
    5000001    1    1    2    0    0  0.38853768850E+03 -0.33021195478E+03 -0.36784928751E+03  0.65003043682E+03  0.16500000000E+03 0.  0.
   -5000001    1    1    2    0    0 -0.38853768850E+03  0.33021195478E+03 -0.54887471330E+03  0.76713096754E+03  0.16500000000E+03 0.  0.
<mgrwt>
<rscale>  0 0.10807236E+04</rscale>
<asrwt>0</asrwt>
<pdfrwt beam="1">  1        2 0.16670610E+00 0.10807236E+04</pdfrwt>
<pdfrwt beam="2">  1       -2 0.35745529E-01 0.10807236E+04</pdfrwt>
<totfact> 0.16298226E+02</totfact>
</mgrwt>
</event>
<event>
 4    1  0.1837449E-005  0.4496105E+03  0.7818608E-02  0.1027838E+00
          2   -1    0    0  501    0  0.00000000000E+00  0.00000000000E+00  0.41856876152E+03  0.41856876153E+03  0.25500000000E-02 0.  1.
         -2   -1    0    0    0  501 -0.00000000000E+00 -0.00000000000E+00 -0.12073858207E+03  0.12073858209E+03  0.25500000000E-02 0. -1.
    5000001    1    1    2    0    0  0.86291191210E+02  0.56601696780E+02  0.13938257600E+02  0.19511329218E+03  0.16500000000E+03 0.  0.
   -5000001    1    1    2    0    0 -0.86291191210E+02 -0.56601696780E+02  0.28389192185E+03  0.34419405145E+03  0.16500000000E+03 0.  0.
<mgrwt>
<rscale>  0 0.44961049E+03</rscale>
<asrwt>0</asrwt>
<pdfrwt beam="1">  1        2 0.59795537E-01 0.44961049E+03</pdfrwt>
<pdfrwt beam="2">  1       -2 0.17248369E-01 0.44961049E+03</pdfrwt>
<totfact> 0.22481906E+03</totfact>
</mgrwt>
</event>
<event>
 4    1  0.1837449E-005  0.6136164E+03  0.7818608E-02  0.9877552E-01
         -2   -1    0    0    0  501 -0.00000000000E+00  0.00000000000E+00  0.35880695313E+02  0.35880695403E+02  0.25500000000E-02 0. -1.
          2   -1    0    0  501    0  0.00000000000E+00 -0.00000000000E+00 -0.26234513323E+04  0.26234513323E+04  0.25500000000E-02 0.  1.
    5000001    1    1    2    0    0 -0.22364678819E+03 -0.12445466632E+03 -0.11316611189E+04  0.11719166941E+04  0.16500000000E+03 0.  0.
   -5000001    1    1    2    0    0  0.22364678819E+03  0.12445466632E+03 -0.14559095181E+04  0.14874153337E+04  0.16500000000E+03 0.  0.
<mgrwt>
<rscale>  0 0.61361636E+03</rscale>
<asrwt>0</asrwt>
<pdfrwt beam="1">  1        2 0.37477864E+00 0.61361636E+03</pdfrwt>
<pdfrwt beam="2">  1       -2 0.51258153E-02 0.61361636E+03</pdfrwt>
<totfact> 0.78824207E+02</totfact>
</mgrwt>
</event>
<event>
 4    1  0.1837449E-005  0.3579798E+03  0.7818608E-02  0.1059387E+00
          2   -1    0    0  501    0  0.00000000000E+00  0.00000000000E+00  0.24913635228E+04  0.24913635228E+04  0.25500000000E-02 0.  1.
         -2   -1    0    0    0  501 -0.00000000000E+00 -0.00000000000E+00 -0.12859377474E+02  0.12859377726E+02  0.25500000000E-02 0. -1.
    5000001    1    1    2    0    0 -0.58673740319E+02  0.33825465004E+02  0.11341774435E+04  0.11481159538E+04  0.16500000000E+03 0.  0.
   -5000001    1    1    2    0    0  0.58673740319E+02 -0.33825465004E+02  0.13443267018E+04  0.13561069468E+04  0.16500000000E+03 0.  0.
<mgrwt>
<rscale>  0 0.35797980E+03</rscale>
<asrwt>0</asrwt>
<pdfrwt beam="1">  1        2 0.35590926E+00 0.35797980E+03</pdfrwt>
<pdfrwt beam="2">  1       -2 0.18370530E-02 0.35797980E+03</pdfrwt>
<totfact> 0.44259521E+03</totfact>
</mgrwt>
</event>
<event>
 4    1  0.1837449E-005  0.4307572E+03  0.7818608E-02  0.1033621E+00
         -2   -1    0    0    0  501 -0.00000000000E+00  0.00000000000E+00  0.43770278783E+03  0.43770278783E+03  0.25500000000E-02 0. -1.
          2   -1    0    0  501    0  0.00000000000E+00 -0.00000000000E+00 -0.10598045750E+03  0.10598045753E+03  0.25500000000E-02 0.  1.
    5000001    1    1    2    0    0  0.65692821750E+02 -0.11895355844E+03  0.19919372290E+03  0.29217911482E+03  0.16500000000E+03 0.  0.
   -5000001    1    1    2    0    0 -0.65692821750E+02  0.11895355844E+03  0.13252860742E+03  0.25150413054E+03  0.16500000000E+03 0.  0.
<mgrwt>
<rscale>  0 0.43075720E+03</rscale>
<asrwt>0</asrwt>
<pdfrwt beam="1">  1        2 0.15140066E-01 0.43075720E+03</pdfrwt>
<pdfrwt beam="2">  1       -2 0.62528969E-01 0.43075720E+03</pdfrwt>
<totfact> 0.94231544E+02</totfact>
</mgrwt>
</event>
<event>
 4    1  0.1837449E-005  0.4054910E+03  0.7818608E-02  0.1041895E+00
         -2   -1    0    0    0  501 -0.00000000000E+00  0.00000000000E+00  0.33593909541E+03  0.33593909542E+03  0.25500000000E-02 0. -1.
          2   -1    0    0  501    0  0.00000000000E+00 -0.00000000000E+00 -0.12236070980E+03  0.12236070983E+03  0.25500000000E-02 0.  1.
    5000001    1    1    2    0    0  0.10691635919E+03  0.16626848855E+02  0.54100566119E+02  0.20459577518E+03  0.16500000000E+03 0.  0.
   -5000001    1    1    2    0    0 -0.10691635919E+03 -0.16626848855E+02  0.15947781949E+03  0.25370403007E+03  0.16500000000E+03 0.  0.
<mgrwt>
<rscale>  0 0.40549104E+03</rscale>
<asrwt>0</asrwt>
<pdfrwt beam="1">  1        2 0.17480101E-01 0.40549104E+03</pdfrwt>
<pdfrwt beam="2">  1       -2 0.47991300E-01 0.40549104E+03</pdfrwt>
<totfact> 0.13659099E+03</totfact>
</mgrwt>
</event>
<event>
 4    1  0.1837449E-005  0.6501531E+03  0.7818608E-02  0.9806492E-01
          2   -1    0    0  501    0  0.00000000000E+00  0.00000000000E+00  0.93517003239E+03  0.93517003240E+03  0.25500000000E-02 0.  1.
         -2   -1    0    0    0  501 -0.00000000000E+00 -0.00000000000E+00 -0.11300057963E+03  0.11300057966E+03  0.25500000000E-02 0. -1.
    5000001    1    1    2    0    0 -0.16540965302E+03 -0.68200058583E+02  0.75850393990E+03  0.79659577462E+03  0.16500000000E+03 0.  0.
   -5000001    1    1    2    0    0  0.16540965302E+03  0.68200058583E+02  0.63665512861E+02  0.25157483743E+03  0.16500000000E+03 0.  0.
<mgrwt>
<rscale>  0 0.65015308E+03</rscale>
<asrwt>0</asrwt>
<pdfrwt beam="1">  1        2 0.13359572E+00 0.65015308E+03</pdfrwt>
<pdfrwt beam="2">  1       -2 0.16142939E-01 0.65015308E+03</pdfrwt>
<totfact> 0.95789813E+02</totfact>
</mgrwt>
</event>
<event>
 4    1  0.1837449E-005  0.3993251E+03  0.7818608E-02  0.1044014E+00
         -2   -1    0    0    0  501 -0.00000000000E+00  0.00000000000E+00  0.17999064333E+02  0.17999064513E+02  0.25500000000E-02 0. -1.
          2   -1    0    0  501    0  0.00000000000E+00 -0.00000000000E+00 -0.22148445140E+04  0.22148445141E+04  0.25500000000E-02 0.  1.
    5000001    1    1    2    0    0 -0.50791836547E+01  0.45467324314E+02 -0.52417763646E+03  0.55143473798E+03  0.16500000000E+03 0.  0.
   -5000001    1    1    2    0    0  0.50791836547E+01 -0.45467324314E+02 -0.16726678133E+04  0.16814088406E+04  0.16500000000E+03 0.  0.
<mgrwt>
<rscale>  0 0.39932508E+03</rscale>
<asrwt>0</asrwt>
<pdfrwt beam="1">  1        2 0.31640619E+00 0.39932508E+03</pdfrwt>
<pdfrwt beam="2">  1       -2 0.25712963E-02 0.39932508E+03</pdfrwt>
<totfact> 0.36832781E+03</totfact>
</mgrwt>
</event>
<event>
 4    1  0.1837449E-005  0.6047013E+03  0.7818608E-02  0.9895700E-01
         -2   -1    0    0    0  501 -0.00000000000E+00  0.00000000000E+00  0.54212592705E+03  0.54212592705E+03  0.25500000000E-02 0. -1.
          2   -1    0    0  501    0  0.00000000000E+00 -0.00000000000E+00 -0.16862487105E+03  0.16862487107E+03  0.25500000000E-02 0.  1.
    5000001    1    1    2    0    0  0.22740916143E+03  0.10930978604E+03  0.15975887745E+03  0.34119122930E+03  0.16500000000E+03 0.  0.
   -5000001    1    1    2    0    0 -0.22740916143E+03 -0.10930978604E+03  0.21374217854E+03  0.36955956883E+03  0.16500000000E+03 0.  0.
<mgrwt>
<rscale>  0 0.60470130E+03</rscale>
<asrwt>0</asrwt>
<pdfrwt beam="1">  1        2 0.24089267E-01 0.60470130E+03</pdfrwt>
<pdfrwt beam="2">  1       -2 0.77446561E-01 0.60470130E+03</pdfrwt>
<totfact> 0.34347219E+02</totfact>
</mgrwt>
</event>
<event>
 4    1  0.1837449E-005  0.6385289E+03  0.7818608E-02  0.9828545E-01
          2   -1    0    0  501    0  0.00000000000E+00  0.00000000000E+00  0.32748608908E+03  0.32748608909E+03  0.25500000000E-02 0.  1.
         -2   -1    0    0    0  501 -0.00000000000E+00 -0.00000000000E+00 -0.31124923182E+03  0.31124923183E+03  0.25500000000E-02 0. -1.
    5000001    1    1    2    0    0 -0.22929334951E+03  0.67407704954E+02 -0.12453497634E+03  0.31599556824E+03  0.16500000000E+03 0.  0.
   -5000001    1    1    2    0    0  0.22929334951E+03 -0.67407704954E+02  0.14077183361E+03  0.32273975267E+03  0.16500000000E+03 0.  0.
<mgrwt>
<rscale>  0 0.63852891E+03</rscale>
<asrwt>0</asrwt>
<pdfrwt beam="1">  1        2 0.46783727E-01 0.63852891E+03</pdfrwt>
<pdfrwt beam="2">  1       -2 0.44464176E-01 0.63852891E+03</pdfrwt>
<totfact> 0.52260973E+02</totfact>
</mgrwt>
</event>
<event>
 4    1  0.1837449E-005  0.4092600E+03  0.7818608E-02  0.1040620E+00
          2   -1    0    0  501    0  0.00000000000E+00  0.00000000000E+00  0.21495396161E+04  0.21495396161E+04  0.25500000000E-02 0.  1.
         -2   -1    0    0    0  501 -0.00000000000E+00 -0.00000000000E+00 -0.19480185368E+02  0.19480185535E+02  0.25500000000E-02 0. -1.
    5000001    1    1    2    0    0  0.11821552765E+03  0.25712298191E+02  0.10836902628E+04  0.11028352637E+04  0.16500000000E+03 0.  0.
   -5000001    1    1    2    0    0 -0.11821552765E+03 -0.25712298191E+02  0.10463691679E+04  0.10661845379E+04  0.16500000000E+03 0.  0.
<mgrwt>
<rscale>  0 0.40925997E+03</rscale>
<asrwt>0</asrwt>
<pdfrwt beam="1">  1        2 0.30707700E+00 0.40925997E+03</pdfrwt>
<pdfrwt beam="2">  1       -2 0.27828844E-02 0.40925997E+03</pdfrwt>
<totfact> 0.35238318E+03</totfact>
</mgrwt>
</event>
<event>
 4    1  0.1837449E-005  0.4945407E+03  0.7818608E-02  0.1015214E+00
         -2   -1    0    0    0  501 -0.00000000000E+00  0.00000000000E+00  0.29350620141E+03  0.29350620142E+03  0.25500000000E-02 0. -1.
          2   -1    0    0  501    0  0.00000000000E+00 -0.00000000000E+00 -0.20831800075E+03  0.20831800077E+03  0.25500000000E-02 0.  1.
    5000001    1    1    2    0    0  0.87443568658E+02 -0.98381684871E+02 -0.88114074681E+02  0.22872346573E+03  0.16500000000E+03 0.  0.
   -5000001    1    1    2    0    0 -0.87443568658E+02  0.98381684871E+02  0.17330227534E+03  0.27310073646E+03  0.16500000000E+03 0.  0.
<mgrwt>
<rscale>  0 0.49454070E+03</rscale>
<asrwt>0</asrwt>
<pdfrwt beam="1">  1        2 0.29759714E-01 0.49454070E+03</pdfrwt>
<pdfrwt beam="2">  1       -2 0.41929457E-01 0.49454070E+03</pdfrwt>
<totfact> 0.96993036E+02</totfact>
</mgrwt>
</event>
<event>
 4    1  0.1837449E-005  0.3746969E+03  0.7818608E-02  0.1052911E+00
          2   -1    0    0  501    0  0.00000000000E+00  0.00000000000E+00  0.17531022207E+04  0.17531022207E+04  0.25500000000E-02 0.  1.
         -2   -1    0    0    0  501 -0.00000000000E+00 -0.00000000000E+00 -0.20021333367E+02  0.20021333530E+02  0.25500000000E-02 0. -1.
    5000001    1    1    2    0    0 -0.80290289444E+02  0.37066679851E+02  0.90130641746E+03  0.92054262665E+03  0.16500000000E+03 0.  0.
   -5000001    1    1    2    0    0  0.80290289444E+02 -0.37066679851E+02  0.83177446983E+03  0.85258092753E+03  0.16500000000E+03 0.  0.
<mgrwt>
<rscale>  0 0.37469691E+03</rscale>
<asrwt>0</asrwt>
<pdfrwt beam="1">  1        2 0.25044323E+00 0.37469691E+03</pdfrwt>
<pdfrwt beam="2">  1       -2 0.28601899E-02 0.37469691E+03</pdfrwt>
<totfact> 0.53172085E+03</totfact>
</mgrwt>
</event>
<event>
 4    1  0.1837449E-005  0.4609058E+03  0.7818608E-02  0.1024519E+00
          2   -1    0    0  501    0  0.00000000000E+00  0.00000000000E+00  0.73277910461E+03  0.73277910462E+03  0.25500000000E-02 0.  1.
         -2   -1    0    0    0  501 -0.00000000000E+00 -0.00000000000E+00 -0.72475511885E+02  0.72475511930E+02  0.25500000000E-02 0. -1.
    5000001    1    1    2    0    0 -0.13339257616E+03  0.84655227846E+02  0.38324373917E+03  0.44616235900E+03  0.16500000000E+03 0.  0.
   -5000001    1    1    2    0    0  0.13339257616E+03 -0.84655227846E+02  0.27705985356E+03  0.35909225755E+03  0.16500000000E+03 0.  0.
<mgrwt>
<rscale>  0 0.46090581E+03</rscale>
<asrwt>0</asrwt>
<pdfrwt beam="1">  1        2 0.10468273E+00 0.46090581E+03</pdfrwt>
<pdfrwt beam="2">  1       -2 0.10353644E-01 0.46090581E+03</pdfrwt>
<totfact> 0.27425275E+03</totfact>
</mgrwt>
</event>
<event>
 4    1  0.1837449E-005  0.5275266E+03  0.7818608E-02  0.1006834E+00
         -2   -1    0    0    0  501 -0.00000000000E+00  0.00000000000E+00  0.15387378573E+03  0.15387378576E+03  0.25500000000E-02 0. -1.
          2   -1    0    0  501    0  0.00000000000E+00 -0.00000000000E+00 -0.45213079655E+03  0.45213079655E+03  0.25500000000E-02 0.  1.
    5000001    1    1    2    0    0  0.15433624101E+03  0.32425963328E+01  0.71876323650E+01  0.22606824585E+03  0.16500000000E+03 0.  0.
   -5000001    1    1    2    0    0 -0.15433624101E+03 -0.32425963328E+01 -0.30544464318E+03  0.37993633646E+03  0.16500000000E+03 0.  0.
<mgrwt>
<rscale>  0 0.52752660E+03</rscale>
<asrwt>0</asrwt>
<pdfrwt beam="1">  1        2 0.64590113E-01 0.52752660E+03</pdfrwt>
<pdfrwt beam="2">  1       -2 0.21981970E-01 0.52752660E+03</pdfrwt>
<totfact> 0.13582932E+03</totfact>
</mgrwt>
</event>
<event>
 4    1  0.1837449E-005  0.6078226E+03  0.7818608E-02  0.9889308E-01
         -2   -1    0    0    0  501 -0.00000000000E+00  0.00000000000E+00  0.96702936347E+02  0.96702936380E+02  0.25500000000E-02 0. -1.
          2   -1    0    0  501    0  0.00000000000E+00 -0.00000000000E+00 -0.95511130597E+03  0.95511130597E+03  0.25500000000E-02 0.  1.
    5000001    1    1    2    0    0  0.24671323563E+03  0.55770420932E+02 -0.48812402004E+03  0.57399287402E+03  0.16500000000E+03 0.  0.
   -5000001    1    1    2    0    0 -0.24671323563E+03 -0.55770420932E+02 -0.37028434958E+03  0.47782136833E+03  0.16500000000E+03 0.  0.
<mgrwt>
<rscale>  0 0.60782257E+03</rscale>
<asrwt>0</asrwt>
<pdfrwt beam="1">  1        2 0.13644447E+00 0.60782257E+03</pdfrwt>
<pdfrwt beam="2">  1       -2 0.13814706E-01 0.60782257E+03</pdfrwt>
<totfact> 0.12109951E+03</totfact>
</mgrwt>
</event>
<event>
 4    1  0.1837449E-005  0.3898087E+03  0.7818608E-02  0.1047367E+00
         -2   -1    0    0    0  501 -0.00000000000E+00  0.00000000000E+00  0.19411599703E+03  0.19411599705E+03  0.25500000000E-02 0. -1.
          2   -1    0    0  501    0  0.00000000000E+00 -0.00000000000E+00 -0.19569592658E+03  0.19569592660E+03  0.25500000000E-02 0.  1.
    5000001    1    1    2    0    0 -0.32693442596E+02 -0.98421083165E+02  0.18819682075E+01  0.19489513233E+03  0.16500000000E+03 0.  0.
   -5000001    1    1    2    0    0  0.32693442596E+02  0.98421083165E+02 -0.34618977580E+01  0.19491679131E+03  0.16500000000E+03 0.  0.
<mgrwt>
<rscale>  0 0.38980872E+03</rscale>
<asrwt>0</asrwt>
<pdfrwt beam="1">  1        2 0.27956561E-01 0.38980872E+03</pdfrwt>
<pdfrwt beam="2">  1       -2 0.27730857E-01 0.38980872E+03</pdfrwt>
<totfact> 0.22547958E+03</totfact>
</mgrwt>
</event>
<event>
 4    1  0.1837449E-005  0.4878146E+03  0.7818608E-02  0.1017009E+00
          2   -1    0    0  501    0  0.00000000000E+00  0.00000000000E+00  0.18114257816E+03  0.18114257818E+03  0.25500000000E-02 0.  1.
         -2   -1    0    0    0  501 -0.00000000000E+00 -0.00000000000E+00 -0.32841960321E+03  0.32841960322E+03  0.25500000000E-02 0. -1.
    5000001    1    1    2    0    0  0.92868730527E+02 -0.94067204721E+02  0.53408268361E+02  0.21806119151E+03  0.16500000000E+03 0.  0.
   -5000001    1    1    2    0    0 -0.92868730527E+02  0.94067204721E+02 -0.20068529341E+03  0.29150098989E+03  0.16500000000E+03 0.  0.
<mgrwt>
<rscale>  0 0.48781461E+03</rscale>
<asrwt>0</asrwt>
<pdfrwt beam="1">  1        2 0.25877511E-01 0.48781461E+03</pdfrwt>
<pdfrwt beam="2">  1       -2 0.46917086E-01 0.48781461E+03</pdfrwt>
<totfact> 0.90952261E+02</totfact>
</mgrwt>
</event>
<event>
 4    1  0.1837449E-005  0.3775803E+03  0.7818608E-02  0.1051832E+00
         -2   -1    0    0    0  501 -0.00000000000E+00  0.00000000000E+00  0.10085977224E+02  0.10085977547E+02  0.25500000000E-02 0. -1.
          2   -1    0    0  501    0  0.00000000000E+00 -0.00000000000E+00 -0.35337903733E+04  0.35337903733E+04  0.25500000000E-02 0.  1.
    5000001    1    1    2    0    0 -0.20711468778E+02 -0.61813544247E+02 -0.23677134012E+04  0.23743507806E+04  0.16500000000E+03 0.  0.
   -5000001    1    1    2    0    0  0.20711468778E+02  0.61813544247E+02 -0.11559909949E+04  0.11695255702E+04  0.16500000000E+03 0.  0.
<mgrwt>
<rscale>  0 0.37758035E+03</rscale>
<asrwt>0</asrwt>
<pdfrwt beam="1">  1        2 0.50482641E+00 0.37758035E+03</pdfrwt>
<pdfrwt beam="2">  1       -2 0.14408562E-02 0.37758035E+03</pdfrwt>
<totfact> 0.17317141E+03</totfact>
</mgrwt>
</event>
<event>
 4    1  0.1837449E-005  0.4513463E+03  0.7818608E-02  0.1027321E+00
         -2   -1    0    0    0  501 -0.00000000000E+00  0.00000000000E+00  0.12514925863E+03  0.12514925865E+03  0.25500000000E-02 0. -1.
          2   -1    0    0  501    0  0.00000000000E+00 -0.00000000000E+00 -0.40694105272E+03  0.40694105273E+03  0.25500000000E-02 0.  1.
    5000001    1    1    2    0    0  0.13016685362E+03 -0.81057634975E+02 -0.15712964452E+03  0.27464244966E+03  0.16500000000E+03 0.  0.
   -5000001    1    1    2    0    0 -0.13016685362E+03  0.81057634975E+02 -0.12466214957E+03  0.25744786172E+03  0.16500000000E+03 0.  0.
<mgrwt>
<rscale>  0 0.45134630E+03</rscale>
<asrwt>0</asrwt>
<pdfrwt beam="1">  1        2 0.58134436E-01 0.45134630E+03</pdfrwt>
<pdfrwt beam="2">  1       -2 0.17878466E-01 0.45134630E+03</pdfrwt>
<totfact> 0.21818403E+03</totfact>
</mgrwt>
</event>
<event>
 4    1  0.1837449E-005  0.5742816E+03  0.7818608E-02  0.9960249E-01
          2   -1    0    0  501    0  0.00000000000E+00  0.00000000000E+00  0.12291983312E+04  0.12291983312E+04  0.25500000000E-02 0.  1.
         -2   -1    0    0    0  501 -0.00000000000E+00 -0.00000000000E+00 -0.67076109618E+02  0.67076109667E+02  0.25500000000E-02 0. -1.
    5000001    1    1    2    0    0 -0.33893807749E+02 -0.22328001953E+03  0.43439306014E+03  0.51664793430E+03  0.16500000000E+03 0.  0.
   -5000001    1    1    2    0    0  0.33893807749E+02  0.22328001953E+03  0.72772916145E+03  0.77962650657E+03  0.16500000000E+03 0.  0.
<mgrwt>
<rscale>  0 0.57428161E+03</rscale>
<asrwt>0</asrwt>
<pdfrwt beam="1">  1        2 0.17559975E+00 0.57428161E+03</pdfrwt>
<pdfrwt beam="2">  1       -2 0.95823021E-02 0.57428161E+03</pdfrwt>
<totfact> 0.15261778E+03</totfact>
</mgrwt>
</event>
<event>
 4    1  0.1837449E-005  0.4626785E+03  0.7818608E-02  0.1024007E+00
         -2   -1    0    0    0  501 -0.00000000000E+00  0.00000000000E+00  0.61941506582E+02  0.61941506635E+02  0.25500000000E-02 0. -1.
          2   -1    0    0  501    0  0.00000000000E+00 -0.00000000000E+00 -0.86400626413E+03  0.86400626414E+03  0.25500000000E-02 0.  1.
    5000001    1    1    2    0    0  0.16065053051E+03  0.13168154350E+02 -0.36574762188E+03  0.43240989368E+03  0.16500000000E+03 0.  0.
   -5000001    1    1    2    0    0 -0.16065053051E+03 -0.13168154350E+02 -0.43631713568E+03  0.49353787709E+03  0.16500000000E+03 0.  0.
<mgrwt>
<rscale>  0 0.46267850E+03</rscale>
<asrwt>0</asrwt>
<pdfrwt beam="1">  1        2 0.12342946E+00 0.46267850E+03</pdfrwt>
<pdfrwt beam="2">  1       -2 0.88487872E-02 0.46267850E+03</pdfrwt>
<totfact> 0.28658713E+03</totfact>
</mgrwt>
</event>
<event>
 4    1  0.1837449E-005  0.7281990E+03  0.7818608E-02  0.9670187E-01
          2   -1    0    0  501    0  0.00000000000E+00  0.00000000000E+00  0.93888739009E+03  0.93888739009E+03  0.25500000000E-02 0.  1.
         -2   -1    0    0    0  501 -0.00000000000E+00 -0.00000000000E+00 -0.14119737923E+03  0.14119737925E+03  0.25500000000E-02 0. -1.
    5000001    1    1    2    0    0  0.18046775951E+03 -0.26658378124E+03  0.33754778160E+03  0.49477169432E+03  0.16500000000E+03 0.  0.
   -5000001    1    1    2    0    0 -0.18046775951E+03  0.26658378124E+03  0.46014222926E+03  0.58531307502E+03  0.16500000000E+03 0.  0.
<mgrwt>
<rscale>  0 0.72819898E+03</rscale>
<asrwt>0</asrwt>
<pdfrwt beam="1">  1        2 0.13412677E+00 0.72819898E+03</pdfrwt>
<pdfrwt beam="2">  1       -2 0.20171054E-01 0.72819898E+03</pdfrwt>
<totfact> 0.64740227E+02</totfact>
</mgrwt>
</event>
<event>
 4    1  0.1837449E-005  0.7277901E+03  0.7818608E-02  0.9670853E-01
          2   -1    0    0  501    0  0.00000000000E+00  0.00000000000E+00  0.81063775386E+03  0.81063775386E+03  0.25500000000E-02 0.  1.
         -2   -1    0    0    0  501 -0.00000000000E+00 -0.00000000000E+00 -0.16335237102E+03  0.16335237104E+03  0.25500000000E-02 0. -1.
    5000001    1    1    2    0    0  0.50290732109E+02 -0.31550928858E+03  0.39838716724E+03  0.53666805750E+03  0.16500000000E+03 0.  0.
   -5000001    1    1    2    0    0 -0.50290732109E+02  0.31550928858E+03  0.24889821559E+03  0.43732206741E+03  0.16500000000E+03 0.  0.
<mgrwt>
<rscale>  0 0.72779008E+03</rscale>
<asrwt>0</asrwt>
<pdfrwt beam="1">  1        2 0.11580539E+00 0.72779008E+03</pdfrwt>
<pdfrwt beam="2">  1       -2 0.23336053E-01 0.72779008E+03</pdfrwt>
<totfact> 0.60839380E+02</totfact>
</mgrwt>
</event>
<event>
 4    1  0.1837449E-005  0.4049357E+03  0.7818608E-02  0.1042084E+00
          2   -1    0    0  501    0  0.00000000000E+00  0.00000000000E+00  0.98888545576E+03  0.98888545576E+03  0.25500000000E-02 0.  1.
         -2   -1    0    0    0  501 -0.00000000000E+00 -0.00000000000E+00 -0.41453963371E+02  0.41453963450E+02  0.25500000000E-02 0. -1.
    5000001    1    1    2    0    0 -0.65730035017E+02  0.94598794533E+02  0.53054607726E+03  0.56742709622E+03  0.16500000000E+03 0.  0.
   -5000001    1    1    2    0    0  0.65730035017E+02 -0.94598794533E+02  0.41688541513E+03  0.46291232299E+03  0.16500000000E+03 0.  0.
<mgrwt>
<rscale>  0 0.40493566E+03</rscale>
<asrwt>0</asrwt>
<pdfrwt beam="1">  1        2 0.14126933E+00 0.40493566E+03</pdfrwt>
<pdfrwt beam="2">  1       -2 0.59219954E-02 0.40493566E+03</pdfrwt>
<totfact> 0.44921975E+03</totfact>
</mgrwt>
</event>
<event>
 4    1  0.1837449E-005  0.3588895E+03  0.7818608E-02  0.1059024E+00
          2   -1    0    0  501    0  0.00000000000E+00  0.00000000000E+00  0.14419165050E+04  0.14419165050E+04  0.25500000000E-02 0.  1.
         -2   -1    0    0    0  501 -0.00000000000E+00 -0.00000000000E+00 -0.22331677043E+02  0.22331677189E+02  0.25500000000E-02 0. -1.
    5000001    1    1    2    0    0 -0.46950571224E+02  0.46578330244E+02  0.80985641520E+03  0.82913588165E+03  0.16500000000E+03 0.  0.
   -5000001    1    1    2    0    0  0.46950571224E+02 -0.46578330244E+02  0.60972841277E+03  0.63511230056E+03  0.16500000000E+03 0.  0.
<mgrwt>
<rscale>  0 0.35888948E+03</rscale>
<asrwt>0</asrwt>
<pdfrwt beam="1">  1        2 0.20598810E+00 0.35888948E+03</pdfrwt>
<pdfrwt beam="2">  1       -2 0.31902391E-02 0.35888948E+03</pdfrwt>
<totfact> 0.64792246E+03</totfact>
</mgrwt>
</event>
<event>
 4    1  0.1837449E-005  0.1054988E+04  0.7818608E-02  0.9250210E-01
         -2   -1    0    0    0  501 -0.00000000000E+00  0.00000000000E+00  0.69230030110E+02  0.69230030157E+02  0.25500000000E-02 0. -1.
          2   -1    0    0  501    0  0.00000000000E+00 -0.00000000000E+00 -0.40192055328E+04  0.40192055328E+04  0.25500000000E-02 0.  1.
    5000001    1    1    2    0    0 -0.17855712676E+03 -0.16434690400E+03 -0.36736609513E+04  0.36853632571E+04  0.16500000000E+03 0.  0.
   -5000001    1    1    2    0    0  0.17855712676E+03  0.16434690400E+03 -0.27631455141E+03  0.40307230578E+03  0.16500000000E+03 0.  0.
<mgrwt>
<rscale>  0 0.10549876E+04</rscale>
<asrwt>0</asrwt>
<pdfrwt beam="1">  1        2 0.57417207E+00 0.10549876E+04</pdfrwt>
<pdfrwt beam="2">  1       -2 0.98900069E-02 0.10549876E+04</pdfrwt>
<totfact> 0.40259290E+01</totfact>
</mgrwt>
</event>
<event>
 4    1  0.1837449E-005  0.6614522E+03  0.7818608E-02  0.9785524E-01
         -2   -1    0    0    0  501 -0.00000000000E+00  0.00000000000E+00  0.31321976271E+03  0.31321976272E+03  0.25500000000E-02 0. -1.
          2   -1    0    0  501    0  0.00000000000E+00 -0.00000000000E+00 -0.34921084182E+03  0.34921084182E+03  0.25500000000E-02 0.  1.
    5000001    1    1    2    0    0  0.20452785931E+03  0.14062497775E+03 -0.16155229765E+03  0.33901500627E+03  0.16500000000E+03 0.  0.
   -5000001    1    1    2    0    0 -0.20452785931E+03 -0.14062497775E+03  0.12556121854E+03  0.32341559827E+03  0.16500000000E+03 0.  0.
<mgrwt>
<rscale>  0 0.66145215E+03</rscale>
<asrwt>0</asrwt>
<pdfrwt beam="1">  1        2 0.49887263E-01 0.66145215E+03</pdfrwt>
<pdfrwt beam="2">  1       -2 0.44745680E-01 0.66145215E+03</pdfrwt>
<totfact> 0.48045856E+02</totfact>
</mgrwt>
</event>
<event>
 4    1  0.1837449E-005  0.3834235E+03  0.7818608E-02  0.1049676E+00
         -2   -1    0    0    0  501 -0.00000000000E+00  0.00000000000E+00  0.11150304577E+03  0.11150304580E+03  0.25500000000E-02 0. -1.
          2   -1    0    0  501    0  0.00000000000E+00 -0.00000000000E+00 -0.32961792368E+03  0.32961792369E+03  0.25500000000E-02 0.  1.
    5000001    1    1    2    0    0 -0.60242425026E+02 -0.69818478346E+02 -0.72230718210E+02  0.20235129440E+03  0.16500000000E+03 0.  0.
   -5000001    1    1    2    0    0  0.60242425026E+02  0.69818478346E+02 -0.14588415970E+03  0.23876967509E+03  0.16500000000E+03 0.  0.
<mgrwt>
<rscale>  0 0.38342354E+03</rscale>
<asrwt>0</asrwt>
<pdfrwt beam="1">  1        2 0.47088274E-01 0.38342354E+03</pdfrwt>
<pdfrwt beam="2">  1       -2 0.15929007E-01 0.38342354E+03</pdfrwt>
<totfact> 0.33324725E+03</totfact>
</mgrwt>
</event>
<event>
 4    1  0.1837449E-005  0.4467790E+03  0.7818608E-02  0.1028687E+00
          2   -1    0    0  501    0  0.00000000000E+00  0.00000000000E+00  0.30585284920E+03  0.30585284921E+03  0.25500000000E-02 0.  1.
         -2   -1    0    0    0  501 -0.00000000000E+00 -0.00000000000E+00 -0.16315972288E+03  0.16315972290E+03  0.25500000000E-02 0. -1.
    5000001    1    1    2    0    0  0.23947111051E+02 -0.14224921994E+03  0.25956413657E+02  0.22069671522E+03  0.16500000000E+03 0.  0.
   -5000001    1    1    2    0    0 -0.23947111051E+02  0.14224921994E+03  0.11673671266E+03  0.24831585689E+03  0.16500000000E+03 0.  0.
<mgrwt>
<rscale>  0 0.44677899E+03</rscale>
<asrwt>0</asrwt>
<pdfrwt beam="1">  1        2 0.43693264E-01 0.44677899E+03</pdfrwt>
<pdfrwt beam="2">  1       -2 0.23308532E-01 0.44677899E+03</pdfrwt>
<totfact> 0.18830918E+03</totfact>
</mgrwt>
</event>
<event>
 4    1  0.1837449E-005  0.5518564E+03  0.7818608E-02  0.1001065E+00
          2   -1    0    0  501    0  0.00000000000E+00  0.00000000000E+00  0.11407250449E+04  0.11407250449E+04  0.25500000000E-02 0.  1.
         -2   -1    0    0    0  501 -0.00000000000E+00 -0.00000000000E+00 -0.66743844627E+02  0.66743844676E+02  0.25500000000E-02 0. -1.
    5000001    1    1    2    0    0  0.11876351341E+03 -0.18594468917E+03  0.57025815560E+03  0.63332421680E+03  0.16500000000E+03 0.  0.
   -5000001    1    1    2    0    0 -0.11876351341E+03  0.18594468917E+03  0.50372304463E+03  0.57414467274E+03  0.16500000000E+03 0.  0.
<mgrwt>
<rscale>  0 0.55185641E+03</rscale>
<asrwt>0</asrwt>
<pdfrwt beam="1">  1        2 0.16296073E+00 0.55185641E+03</pdfrwt>
<pdfrwt beam="2">  1       -2 0.95348346E-02 0.55185641E+03</pdfrwt>
<totfact> 0.17258975E+03</totfact>
</mgrwt>
</event>
<event>
 4    1  0.1837449E-005  0.5578430E+03  0.7818608E-02  0.9996947E-01
          2   -1    0    0  501    0  0.00000000000E+00  0.00000000000E+00  0.13390476186E+04  0.13390476186E+04  0.25500000000E-02 0.  1.
         -2   -1    0    0    0  501 -0.00000000000E+00 -0.00000000000E+00 -0.58098912153E+02  0.58098912209E+02  0.25500000000E-02 0. -1.
    5000001    1    1    2    0    0 -0.21599022982E+03  0.55679163334E+02  0.56874348534E+03  0.63280810735E+03  0.16500000000E+03 0.  0.
   -5000001    1    1    2    0    0  0.21599022982E+03 -0.55679163334E+02  0.71220522112E+03  0.76433842347E+03  0.16500000000E+03 0.  0.
<mgrwt>
<rscale>  0 0.55784302E+03</rscale>
<asrwt>0</asrwt>
<pdfrwt beam="1">  1        2 0.19129246E+00 0.55784302E+03</pdfrwt>
<pdfrwt beam="2">  1       -2 0.82998470E-02 0.55784302E+03</pdfrwt>
<totfact> 0.16749385E+03</totfact>
</mgrwt>
</event>
<event>
 4    1  0.1837449E-005  0.6220209E+03  0.7818608E-02  0.9860744E-01
         -2   -1    0    0    0  501 -0.00000000000E+00  0.00000000000E+00  0.87822357349E+02  0.87822357386E+02  0.25500000000E-02 0. -1.
          2   -1    0    0  501    0  0.00000000000E+00 -0.00000000000E+00 -0.11013996406E+04  0.11013996406E+04  0.25500000000E-02 0.  1.
    5000001    1    1    2    0    0 -0.24473222599E+03  0.59921977703E+02 -0.65510336714E+03  0.72102006039E+03  0.16500000000E+03 0.  0.
   -5000001    1    1    2    0    0  0.24473222599E+03 -0.59921977703E+02 -0.35847391616E+03  0.46820193764E+03  0.16500000000E+03 0.  0.
<mgrwt>
<rscale>  0 0.62202094E+03</rscale>
<asrwt>0</asrwt>
<pdfrwt beam="1">  1        2 0.15734280E+00 0.62202094E+03</pdfrwt>
<pdfrwt beam="2">  1       -2 0.12546052E-01 0.62202094E+03</pdfrwt>
<totfact> 0.11599656E+03</totfact>
</mgrwt>
</event>
<event>
 4    1  0.1837449E-005  0.3480569E+03  0.7818608E-02  0.1063415E+00
          2   -1    0    0  501    0  0.00000000000E+00  0.00000000000E+00  0.45483192527E+03  0.45483192527E+03  0.25500000000E-02 0.  1.
         -2   -1    0    0    0  501 -0.00000000000E+00 -0.00000000000E+00 -0.66587021898E+02  0.66587021947E+02  0.25500000000E-02 0. -1.
    5000001    1    1    2    0    0  0.13214471267E+01 -0.40840428222E+02  0.13824534384E+03  0.21910376969E+03  0.16500000000E+03 0.  0.
   -5000001    1    1    2    0    0 -0.13214471267E+01  0.40840428222E+02  0.24999955952E+03  0.30231517753E+03  0.16500000000E+03 0.  0.
<mgrwt>
<rscale>  0 0.34805691E+03</rscale>
<asrwt>0</asrwt>
<pdfrwt beam="1">  1        2 0.64975990E-01 0.34805691E+03</pdfrwt>
<pdfrwt beam="2">  1       -2 0.95124317E-02 0.34805691E+03</pdfrwt>
<totfact> 0.54249508E+03</totfact>
</mgrwt>
</event>
<event>
 4    1  0.1837449E-005  0.4031471E+03  0.7818608E-02  0.1042695E+00
         -2   -1    0    0    0  501 -0.00000000000E+00  0.00000000000E+00  0.50301276972E+02  0.50301277036E+02  0.25500000000E-02 0. -1.
          2   -1    0    0  501    0  0.00000000000E+00 -0.00000000000E+00 -0.80777068913E+03  0.80777068913E+03  0.25500000000E-02 0.  1.
    5000001    1    1    2    0    0 -0.12766012639E+02  0.10456854181E+03 -0.27645141649E+03  0.33874464822E+03  0.16500000000E+03 0.  0.
   -5000001    1    1    2    0    0  0.12766012639E+02 -0.10456854181E+03 -0.48101799567E+03  0.51932731795E+03  0.16500000000E+03 0.  0.
<mgrwt>
<rscale>  0 0.40314711E+03</rscale>
<asrwt>0</asrwt>
<pdfrwt beam="1">  1        2 0.11539581E+00 0.40314711E+03</pdfrwt>
<pdfrwt beam="2">  1       -2 0.71858972E-02 0.40314711E+03</pdfrwt>
<totfact> 0.43357701E+03</totfact>
</mgrwt>
</event>
<event>
 4    1  0.1837449E-005  0.3699079E+03  0.7818608E-02  0.1054728E+00
          2   -1    0    0  501    0  0.00000000000E+00  0.00000000000E+00  0.23475858695E+04  0.23475858695E+04  0.25500000000E-02 0.  1.
         -2   -1    0    0    0  501 -0.00000000000E+00 -0.00000000000E+00 -0.14571548435E+02  0.14571548659E+02  0.25500000000E-02 0. -1.
    5000001    1    1    2    0    0 -0.81425787830E+02  0.17766993481E+02  0.11275922837E+04  0.11426439442E+04  0.16500000000E+03 0.  0.
   -5000001    1    1    2    0    0  0.81425787830E+02 -0.17766993481E+02  0.12054220375E+04  0.12195134740E+04  0.16500000000E+03 0.  0.
<mgrwt>
<rscale>  0 0.36990789E+03</rscale>
<asrwt>0</asrwt>
<pdfrwt beam="1">  1        2 0.33536948E+00 0.36990789E+03</pdfrwt>
<pdfrwt beam="2">  1       -2 0.20816494E-02 0.36990789E+03</pdfrwt>
<totfact> 0.43390952E+03</totfact>
</mgrwt>
</event>
<event>
 4    1  0.1837449E-005  0.5258103E+03  0.7818608E-02  0.1007253E+00
          2   -1    0    0  501    0  0.00000000000E+00  0.00000000000E+00  0.23944123576E+04  0.23944123576E+04  0.25500000000E-02 0.  1.
         -2   -1    0    0    0  501 -0.00000000000E+00 -0.00000000000E+00 -0.28866837803E+02  0.28866837916E+02  0.25500000000E-02 0. -1.
    5000001    1    1    2    0    0  0.92333443394E+02 -0.17963816447E+03  0.10300058004E+04  0.10625122511E+04  0.16500000000E+03 0.  0.
   -5000001    1    1    2    0    0 -0.92333443394E+02  0.17963816447E+03  0.13355397194E+04  0.13607669444E+04  0.16500000000E+03 0.  0.
<mgrwt>
<rscale>  0 0.52581028E+03</rscale>
<asrwt>0</asrwt>
<pdfrwt beam="1">  1        2 0.34205888E+00 0.52581028E+03</pdfrwt>
<pdfrwt beam="2">  1       -2 0.41238343E-02 0.52581028E+03</pdfrwt>
<totfact> 0.14544254E+03</totfact>
</mgrwt>
</event>
<event>
 4    1  0.1837449E-005  0.3663561E+03  0.7818608E-02  0.1056095E+00
         -2   -1    0    0    0  501 -0.00000000000E+00  0.00000000000E+00  0.42570722981E+02  0.42570723058E+02  0.25500000000E-02 0. -1.
          2   -1    0    0  501    0  0.00000000000E+00 -0.00000000000E+00 -0.78819872326E+03  0.78819872326E+03  0.25500000000E-02 0.  1.
    5000001    1    1    2    0    0  0.22615052943E+02  0.65846611768E+02 -0.46011058132E+03  0.49373471009E+03  0.16500000000E+03 0.  0.
   -5000001    1    1    2    0    0 -0.22615052943E+02 -0.65846611768E+02 -0.28551741896E+03  0.33703473624E+03  0.16500000000E+03 0.  0.
<mgrwt>
<rscale>  0 0.36635605E+03</rscale>
<asrwt>0</asrwt>
<pdfrwt beam="1">  1        2 0.11259981E+00 0.36635605E+03</pdfrwt>
<pdfrwt beam="2">  1       -2 0.60815323E-02 0.36635605E+03</pdfrwt>
<totfact> 0.57881012E+03</totfact>
</mgrwt>
</event>
<event>
 4    1  0.1837449E-005  0.6616637E+03  0.7818608E-02  0.9785136E-01
          2   -1    0    0  501    0  0.00000000000E+00  0.00000000000E+00  0.24710320063E+04  0.24710320063E+04  0.25500000000E-02 0.  1.
         -2   -1    0    0    0  501 -0.00000000000E+00 -0.00000000000E+00 -0.44293113267E+02  0.44293113340E+02  0.25500000000E-02 0. -1.
    5000001    1    1    2    0    0 -0.26804785079E+03  0.92884064476E+02  0.13722892325E+04  0.14109854136E+04  0.16500000000E+03 0.  0.
   -5000001    1    1    2    0    0  0.26804785079E+03 -0.92884064476E+02  0.10544496605E+04  0.11043397060E+04  0.16500000000E+03 0.  0.
<mgrwt>
<rscale>  0 0.66166366E+03</rscale>
<asrwt>0</asrwt>
<pdfrwt beam="1">  1        2 0.35300450E+00 0.66166366E+03</pdfrwt>
<pdfrwt beam="2">  1       -2 0.63275889E-02 0.66166366E+03</pdfrwt>
<totfact> 0.67719364E+02</totfact>
</mgrwt>
</event>
<event>
 4    1  0.1837449E-005  0.6030994E+03  0.7818608E-02  0.9898997E-01
         -2   -1    0    0    0  501 -0.00000000000E+00  0.00000000000E+00  0.61610890949E+02  0.61610891002E+02  0.25500000000E-02 0. -1.
          2   -1    0    0  501    0  0.00000000000E+00 -0.00000000000E+00 -0.14759113208E+04  0.14759113208E+04  0.25500000000E-02 0.  1.
    5000001    1    1    2    0    0 -0.91539489883E+02 -0.34868254395E+02 -0.13001835016E+04  0.13142668721E+04  0.16500000000E+03 0.  0.
   -5000001    1    1    2    0    0  0.91539489883E+02  0.34868254395E+02 -0.11411692824E+03  0.22325533965E+03  0.16500000000E+03 0.  0.
<mgrwt>
<rscale>  0 0.60309937E+03</rscale>
<asrwt>0</asrwt>
<pdfrwt beam="1">  1        2 0.21084445E+00 0.60309937E+03</pdfrwt>
<pdfrwt beam="2">  1       -2 0.88015567E-02 0.60309937E+03</pdfrwt>
<totfact> 0.12885733E+03</totfact>
</mgrwt>
</event>
<event>
 4    1  0.1837449E-005  0.4001644E+03  0.7818608E-02  0.1043723E+00
         -2   -1    0    0    0  501 -0.00000000000E+00  0.00000000000E+00  0.17932107295E+03  0.17932107296E+03  0.25500000000E-02 0. -1.
          2   -1    0    0  501    0  0.00000000000E+00 -0.00000000000E+00 -0.22324696592E+03  0.22324696593E+03  0.25500000000E-02 0.  1.
    5000001    1    1    2    0    0 -0.82987104028E+02 -0.75451000413E+02 -0.37159061264E+02  0.20294213149E+03  0.16500000000E+03 0.  0.
   -5000001    1    1    2    0    0  0.82987104028E+02  0.75451000413E+02 -0.67668317095E+01  0.19962590741E+03  0.16500000000E+03 0.  0.
<mgrwt>
<rscale>  0 0.40016439E+03</rscale>
<asrwt>0</asrwt>
<pdfrwt beam="1">  1        2 0.31892424E-01 0.40016439E+03</pdfrwt>
<pdfrwt beam="2">  1       -2 0.25617296E-01 0.40016439E+03</pdfrwt>
<totfact> 0.22469752E+03</totfact>
</mgrwt>
</event>
<event>
 4    1  0.1837449E-005  0.4664712E+03  0.7818608E-02  0.1022921E+00
         -2   -1    0    0    0  501 -0.00000000000E+00  0.00000000000E+00  0.86060571068E+02  0.86060571106E+02  0.25500000000E-02 0. -1.
          2   -1    0    0  501    0  0.00000000000E+00 -0.00000000000E+00 -0.63209948670E+03  0.63209948670E+03  0.25500000000E-02 0.  1.
    5000001    1    1    2    0    0  0.15939108918E+03 -0.38431339849E+02 -0.24674050106E+03  0.33909933951E+03  0.16500000000E+03 0.  0.
   -5000001    1    1    2    0    0 -0.15939108918E+03  0.38431339849E+02 -0.29929841457E+03  0.37906071830E+03  0.16500000000E+03 0.  0.
<mgrwt>
<rscale>  0 0.46647119E+03</rscale>
<asrwt>0</asrwt>
<pdfrwt beam="1">  1        2 0.90299924E-01 0.46647119E+03</pdfrwt>
<pdfrwt beam="2">  1       -2 0.12294368E-01 0.46647119E+03</pdfrwt>
<totfact> 0.24773857E+03</totfact>
</mgrwt>
</event>
<event>
 4    1  0.1837449E-005  0.6848512E+03  0.7818608E-02  0.9743495E-01
          2   -1    0    0  501    0  0.00000000000E+00  0.00000000000E+00  0.23485694560E+04  0.23485694560E+04  0.25500000000E-02 0.  1.
         -2   -1    0    0    0  501 -0.00000000000E+00 -0.00000000000E+00 -0.49926258621E+02  0.49926258686E+02  0.25500000000E-02 0. -1.
    5000001    1    1    2    0    0 -0.72140130159E+02 -0.28731609808E+03  0.13163866819E+04  0.13593578024E+04  0.16500000000E+03 0.  0.
   -5000001    1    1    2    0    0  0.72140130159E+02  0.28731609808E+03  0.98225651546E+03  0.10391379123E+04  0.16500000000E+03 0.  0.
<mgrwt>
<rscale>  0 0.68485118E+03</rscale>
<asrwt>0</asrwt>
<pdfrwt beam="1">  1        2 0.33551000E+00 0.68485118E+03</pdfrwt>
<pdfrwt beam="2">  1       -2 0.71323211E-02 0.68485118E+03</pdfrwt>
<totfact> 0.64631537E+02</totfact>
</mgrwt>
</event>
<event>
 4    1  0.1837449E-005  0.4636538E+03  0.7818608E-02  0.1023727E+00
         -2   -1    0    0    0  501 -0.00000000000E+00  0.00000000000E+00  0.17610532484E+03  0.17610532486E+03  0.25500000000E-02 0.  1.
          2   -1    0    0  501    0  0.00000000000E+00 -0.00000000000E+00 -0.30517935749E+03  0.30517935750E+03  0.25500000000E-02 0. -1.
    5000001    1    1    2    0    0  0.57636739308E+02  0.13539298390E+03  0.78682243614E+01  0.22122423638E+03  0.16500000000E+03 0.  0.
   -5000001    1    1    2    0    0 -0.57636739308E+02 -0.13539298390E+03 -0.13694225701E+03  0.26006044598E+03  0.16500000000E+03 0.  0.
<mgrwt>
<rscale>  0 0.46365379E+03</rscale>
<asrwt>0</asrwt>
<pdfrwt beam="1">  1        2 0.43597051E-01 0.46365379E+03</pdfrwt>
<pdfrwt beam="2">  1       -2 0.25157904E-01 0.46365379E+03</pdfrwt>
<totfact> 0.16486979E+03</totfact>
</mgrwt>
</event>
<event>
 4    1  0.1837449E-005  0.8862659E+03  0.7818608E-02  0.9442914E-01
          2   -1    0    0  501    0  0.00000000000E+00  0.00000000000E+00  0.20735428904E+04  0.20735428904E+04  0.25500000000E-02 0.  1.
         -2   -1    0    0    0  501 -0.00000000000E+00 -0.00000000000E+00 -0.94701117404E+02  0.94701117438E+02  0.25500000000E-02 0. -1.
    5000001    1    1    2    0    0 -0.28918581227E+03  0.26413333237E+03  0.68241783035E+03  0.80393653137E+03  0.16500000000E+03 0.  0.
   -5000001    1    1    2    0    0  0.28918581227E+03 -0.26413333237E+03  0.12964239427E+04  0.13643074765E+04  0.16500000000E+03 0.  0.
<mgrwt>
<rscale>  0 0.88626594E+03</rscale>
<asrwt>0</asrwt>
<pdfrwt beam="1">  1        2 0.29622043E+00 0.88626594E+03</pdfrwt>
<pdfrwt beam="2">  1       -2 0.13528730E-01 0.88626594E+03</pdfrwt>
<totfact> 0.31007216E+02</totfact>
</mgrwt>
</event>
<event>
 4    1  0.1837449E-005  0.8882985E+03  0.7818608E-02  0.9440328E-01
          2   -1    0    0  501    0  0.00000000000E+00  0.00000000000E+00  0.94661333475E+03  0.94661333475E+03  0.25500000000E-02 0.  1.
         -2   -1    0    0    0  501 -0.00000000000E+00 -0.00000000000E+00 -0.20839401291E+03  0.20839401293E+03  0.25500000000E-02 0. -1.
    5000001    1    1    2    0    0 -0.16389410114E+03 -0.14316593776E+03  0.82454104447E+03  0.86859121349E+03  0.16500000000E+03 0.  0.
   -5000001    1    1    2    0    0  0.16389410114E+03  0.14316593776E+03 -0.86321722638E+02  0.28641613419E+03  0.16500000000E+03 0.  0.
<mgrwt>
<rscale>  0 0.88829849E+03</rscale>
<asrwt>0</asrwt>
<pdfrwt beam="1">  1        2 0.13523048E+00 0.88829849E+03</pdfrwt>
<pdfrwt beam="2">  1       -2 0.29770573E-01 0.88829849E+03</pdfrwt>
<totfact> 0.31557373E+02</totfact>
</mgrwt>
</event>
<event>
 4    1  0.1837449E-005  0.6124544E+03  0.7818608E-02  0.9879899E-01
         -2   -1    0    0    0  501 -0.00000000000E+00  0.00000000000E+00  0.31104895703E+02  0.31104895808E+02  0.25500000000E-02 0. -1.
          2   -1    0    0  501    0  0.00000000000E+00 -0.00000000000E+00 -0.30148020809E+04  0.30148020809E+04  0.25500000000E-02 0.  1.
    5000001    1    1    2    0    0  0.50195721689E+02  0.73792772311E+02 -0.28809796561E+03  0.34378833824E+03  0.16500000000E+03 0.  0.
   -5000001    1    1    2    0    0 -0.50195721689E+02 -0.73792772311E+02 -0.26955992196E+04  0.27021186385E+04  0.16500000000E+03 0.  0.
<mgrwt>
<rscale>  0 0.61245442E+03</rscale>
<asrwt>0</asrwt>
<pdfrwt beam="1">  1        2 0.43068583E+00 0.61245442E+03</pdfrwt>
<pdfrwt beam="2">  1       -2 0.44435584E-02 0.61245442E+03</pdfrwt>
<totfact> 0.60918399E+02</totfact>
</mgrwt>
</event>
<event>
 4    1  0.1837449E-005  0.6487323E+03  0.7818608E-02  0.9809161E-01
         -2   -1    0    0    0  501 -0.00000000000E+00  0.00000000000E+00  0.69724995695E+03  0.69724995696E+03  0.25500000000E-02 0. -1.
          2   -1    0    0  501    0  0.00000000000E+00 -0.00000000000E+00 -0.15089765775E+03  0.15089765778E+03  0.25500000000E-02 0.  1.
    5000001    1    1    2    0    0  0.20150715443E+02  0.25933373723E+03  0.40604444326E+03  0.50966374062E+03  0.16500000000E+03 0.  0.
   -5000001    1    1    2    0    0 -0.20150715443E+02 -0.25933373723E+03  0.14030785594E+03  0.33848387411E+03  0.16500000000E+03 0.  0.
<mgrwt>
<rscale>  0 0.64873226E+03</rscale>
<asrwt>0</asrwt>
<pdfrwt beam="1">  1        2 0.21556808E-01 0.64873226E+03</pdfrwt>
<pdfrwt beam="2">  1       -2 0.99607138E-01 0.64873226E+03</pdfrwt>
<totfact> 0.21936929E+02</totfact>
</mgrwt>
</event>
<event>
 4    1  0.1837449E-005  0.6486558E+03  0.7818608E-02  0.9809305E-01
         -2   -1    0    0    0  501 -0.00000000000E+00  0.00000000000E+00  0.28175380909E+03  0.28175380910E+03  0.25500000000E-02 0. -1.
          2   -1    0    0  501    0  0.00000000000E+00 -0.00000000000E+00 -0.37333513192E+03  0.37333513192E+03  0.25500000000E-02 0.  1.
    5000001    1    1    2    0    0  0.20261259245E+03 -0.53560652971E+02  0.14054663432E+03  0.30149454818E+03  0.16500000000E+03 0.  0.
   -5000001    1    1    2    0    0 -0.20261259245E+03  0.53560652971E+02 -0.23212795714E+03  0.35359439285E+03  0.16500000000E+03 0.  0.
<mgrwt>
<rscale>  0 0.64865583E+03</rscale>
<asrwt>0</asrwt>
<pdfrwt beam="1">  1        2 0.53333590E-01 0.64865583E+03</pdfrwt>
<pdfrwt beam="2">  1       -2 0.40250544E-01 0.64865583E+03</pdfrwt>
<totfact> 0.54950644E+02</totfact>
</mgrwt>
</event>
<event>
 4    1  0.1837449E-005  0.4554790E+03  0.7818608E-02  0.1026101E+00
          2   -1    0    0  501    0  0.00000000000E+00  0.00000000000E+00  0.57739936227E+03  0.57739936228E+03  0.25500000000E-02 0.  1.
         -2   -1    0    0    0  501 -0.00000000000E+00 -0.00000000000E+00 -0.89825642720E+02  0.89825642756E+02  0.25500000000E-02 0. -1.
    5000001    1    1    2    0    0 -0.34970833565E+02  0.14909036581E+03  0.19326690649E+03  0.29669511881E+03  0.16500000000E+03 0.  0.
   -5000001    1    1    2    0    0  0.34970833565E+02 -0.14909036581E+03  0.29430681306E+03  0.37052988623E+03  0.16500000000E+03 0.  0.
<mgrwt>
<rscale>  0 0.45547895E+03</rscale>
<asrwt>0</asrwt>
<pdfrwt beam="1">  1        2 0.82485622E-01 0.45547895E+03</pdfrwt>
<pdfrwt beam="2">  1       -2 0.12832235E-01 0.45547895E+03</pdfrwt>
<totfact> 0.25659141E+03</totfact>
</mgrwt>
</event>
<event>
 4    1  0.1837449E-005  0.6434295E+03  0.7818608E-02  0.9819187E-01
         -2   -1    0    0    0  501 -0.00000000000E+00  0.00000000000E+00  0.13666567147E+03  0.13666567150E+03  0.25500000000E-02 0. -1.
          2   -1    0    0  501    0  0.00000000000E+00 -0.00000000000E+00 -0.75732542393E+03  0.75732542393E+03  0.25500000000E-02 0.  1.
    5000001    1    1    2    0    0 -0.22895286796E+03 -0.13572432937E+03 -0.41275986378E+03  0.51810830381E+03  0.16500000000E+03 0.  0.
   -5000001    1    1    2    0    0  0.22895286796E+03  0.13572432937E+03 -0.20789988868E+03  0.37588279163E+03  0.16500000000E+03 0.  0.
<mgrwt>
<rscale>  0 0.64342952E+03</rscale>
<asrwt>0</asrwt>
<pdfrwt beam="1">  1        2 0.10818934E+00 0.64342952E+03</pdfrwt>
<pdfrwt beam="2">  1       -2 0.19523668E-01 0.64342952E+03</pdfrwt>
<totfact> 0.91036792E+02</totfact>
</mgrwt>
</event>
<event>
 4    1  0.1837449E-005  0.4160920E+03  0.7818608E-02  0.1038346E+00
          2   -1    0    0  501    0  0.00000000000E+00  0.00000000000E+00  0.11125665246E+03  0.11125665249E+03  0.25500000000E-02 0.  1.
         -2   -1    0    0    0  501 -0.00000000000E+00 -0.00000000000E+00 -0.38903856293E+03  0.38903856294E+03  0.25500000000E-02 0. -1.
    5000001    1    1    2    0    0 -0.54517151877E+02 -0.11080239468E+03 -0.10469555259E+03  0.23116108939E+03  0.16500000000E+03 0.  0.
   -5000001    1    1    2    0    0  0.54517151877E+02  0.11080239468E+03 -0.17308635787E+03  0.26913412604E+03  0.16500000000E+03 0.  0.
<mgrwt>
<rscale>  0 0.41609195E+03</rscale>
<asrwt>0</asrwt>
<pdfrwt beam="1">  1        2 0.15893808E-01 0.41609195E+03</pdfrwt>
<pdfrwt beam="2">  1       -2 0.55576937E-01 0.41609195E+03</pdfrwt>
<totfact> 0.11360957E+03</totfact>
</mgrwt>
</event>
<event>
 4    1  0.1837449E-005  0.1584653E+04  0.7818608E-02  0.8830032E-01
         -2   -1    0    0    0  501 -0.00000000000E+00  0.00000000000E+00  0.50809046550E+03  0.50809046551E+03  0.25500000000E-02 0. -1.
          2   -1    0    0  501    0  0.00000000000E+00 -0.00000000000E+00 -0.12355700427E+04  0.12355700427E+04  0.25500000000E-02 0.  1.
    5000001    1    1    2    0    0 -0.68363777936E+03 -0.36455296553E+03 -0.38269891395E+03  0.87974026666E+03  0.16500000000E+03 0.  0.
   -5000001    1    1    2    0    0  0.68363777936E+03  0.36455296553E+03 -0.34478066328E+03  0.86392024158E+03  0.16500000000E+03 0.  0.
<mgrwt>
<rscale>  0 0.15846531E+04</rscale>
<asrwt>0</asrwt>
<pdfrwt beam="1">  1        2 0.17651000E+00 0.15846531E+04</pdfrwt>
<pdfrwt beam="2">  1       -2 0.72584353E-01 0.15846531E+04</pdfrwt>
<totfact> 0.33694967E+01</totfact>
</mgrwt>
</event>
<event>
 4    1  0.1837449E-005  0.5621526E+03  0.7818608E-02  0.9987196E-01
          2   -1    0    0  501    0  0.00000000000E+00  0.00000000000E+00  0.69950016049E+03  0.69950016049E+03  0.25500000000E-02 0.  1.
         -2   -1    0    0    0  501 -0.00000000000E+00 -0.00000000000E+00 -0.11294335842E+03  0.11294335845E+03  0.25500000000E-02 0. -1.
    5000001    1    1    2    0    0 -0.20582933734E+03  0.30254244697E+02  0.42650586470E+03  0.50240749203E+03  0.16500000000E+03 0.  0.
   -5000001    1    1    2    0    0  0.20582933734E+03 -0.30254244697E+02  0.16005093737E+03  0.31003602691E+03  0.16500000000E+03 0.  0.
<mgrwt>
<rscale>  0 0.56215264E+03</rscale>
<asrwt>0</asrwt>
<pdfrwt beam="1">  1        2 0.99928593E-01 0.56215264E+03</pdfrwt>
<pdfrwt beam="2">  1       -2 0.16134766E-01 0.56215264E+03</pdfrwt>
<totfact> 0.13948955E+03</totfact>
</mgrwt>
</event>
<event>
 4    1  0.1837449E-005  0.5643014E+03  0.7818608E-02  0.9982369E-01
         -2   -1    0    0    0  501 -0.00000000000E+00  0.00000000000E+00  0.54293082060E+03  0.54293082060E+03  0.25500000000E-02 0. -1.
          2   -1    0    0  501    0  0.00000000000E+00 -0.00000000000E+00 -0.14662830136E+03  0.14662830139E+03  0.25500000000E-02 0.  1.
    5000001    1    1    2    0    0 -0.20530700164E+03 -0.74313618179E+02  0.28201919489E+03  0.39298003137E+03  0.16500000000E+03 0.  0.
   -5000001    1    1    2    0    0  0.20530700164E+03  0.74313618179E+02  0.11428332434E+03  0.29657909062E+03  0.16500000000E+03 0.  0.
<mgrwt>
<rscale>  0 0.56430142E+03</rscale>
<asrwt>0</asrwt>
<pdfrwt beam="1">  1        2 0.20946900E-01 0.56430142E+03</pdfrwt>
<pdfrwt beam="2">  1       -2 0.77561546E-01 0.56430142E+03</pdfrwt>
<totfact> 0.40265486E+02</totfact>
</mgrwt>
</event>
<event>
 4    1  0.1837449E-005  0.4817975E+03  0.7818608E-02  0.1018642E+00
          2   -1    0    0  501    0  0.00000000000E+00  0.00000000000E+00  0.37492266440E+02  0.37492266527E+02  0.25500000000E-02 0.  1.
         -2   -1    0    0    0  501 -0.00000000000E+00 -0.00000000000E+00 -0.15478445812E+04  0.15478445812E+04  0.25500000000E-02 0. -1.
    5000001    1    1    2    0    0 -0.58520788148E+02  0.14735430451E+03 -0.10029291960E+04  0.10287030407E+04  0.16500000000E+03 0.  0.
   -5000001    1    1    2    0    0  0.58520788148E+02 -0.14735430451E+03 -0.50742311876E+03  0.55663380706E+03  0.16500000000E+03 0.  0.
<mgrwt>
<rscale>  0 0.48179747E+03</rscale>
<asrwt>0</asrwt>
<pdfrwt beam="1">  1        2 0.53560390E-02 0.48179747E+03</pdfrwt>
<pdfrwt beam="2">  1       -2 0.22112061E+00 0.48179747E+03</pdfrwt>
<totfact> 0.15174742E+02</totfact>
</mgrwt>
</event>
<event>
 4    1  0.1837449E-005  0.4043310E+03  0.7818608E-02  0.1042290E+00
         -2   -1    0    0    0  501 -0.00000000000E+00  0.00000000000E+00  0.60028044706E+03  0.60028044707E+03  0.25500000000E-02 0. -1.
          2   -1    0    0  501    0  0.00000000000E+00 -0.00000000000E+00 -0.68086328216E+02  0.68086328263E+02  0.25500000000E-02 0.  1.
    5000001    1    1    2    0    0 -0.60553298326E+02 -0.97700443935E+02  0.30052642498E+03  0.36159813439E+03  0.16500000000E+03 0.  0.
   -5000001    1    1    2    0    0  0.60553298326E+02  0.97700443935E+02  0.23166769387E+03  0.30676864094E+03  0.16500000000E+03 0.  0.
<mgrwt>
<rscale>  0 0.40433101E+03</rscale>
<asrwt>0</asrwt>
<pdfrwt beam="1">  1        2 0.97266180E-02 0.40433101E+03</pdfrwt>
<pdfrwt beam="2">  1       -2 0.85754353E-01 0.40433101E+03</pdfrwt>
<totfact> 0.81529155E+02</totfact>
</mgrwt>
</event>
<event>
 4    1  0.1837449E-005  0.7107902E+03  0.7818608E-02  0.9698955E-01
          2   -1    0    0  501    0  0.00000000000E+00  0.00000000000E+00  0.10472939342E+04  0.10472939342E+04  0.25500000000E-02 0.  1.
         -2   -1    0    0    0  501 -0.00000000000E+00 -0.00000000000E+00 -0.12060194702E+03  0.12060194705E+03  0.25500000000E-02 0. -1.
    5000001    1    1    2    0    0  0.15168506587E+02  0.18580684508E+03  0.88007849175E+03  0.91461326193E+03  0.16500000000E+03 0.  0.
   -5000001    1    1    2    0    0 -0.15168506587E+02 -0.18580684508E+03  0.46613495387E+02  0.25328261927E+03  0.16500000000E+03 0.  0.
<mgrwt>
<rscale>  0 0.71079023E+03</rscale>
<asrwt>0</asrwt>
<pdfrwt beam="1">  1        2 0.14961343E+00 0.71079023E+03</pdfrwt>
<pdfrwt beam="2">  1       -2 0.17228849E-01 0.71079023E+03</pdfrwt>
<totfact> 0.72990776E+02</totfact>
</mgrwt>
</event>
<event>
 4    1  0.1837449E-005  0.5037913E+03  0.7818608E-02  0.1012794E+00
          2   -1    0    0  501    0  0.00000000000E+00  0.00000000000E+00  0.10599604252E+04  0.10599604252E+04  0.25500000000E-02 0.  1.
         -2   -1    0    0    0  501 -0.00000000000E+00 -0.00000000000E+00 -0.59862052198E+02  0.59862052252E+02  0.25500000000E-02 0. -1.
    5000001    1    1    2    0    0  0.18478428446E+03  0.38334020384E+02  0.55502349631E+03  0.60900805443E+03  0.16500000000E+03 0.  0.
   -5000001    1    1    2    0    0 -0.18478428446E+03 -0.38334020384E+02  0.44507487666E+03  0.51081442299E+03  0.16500000000E+03 0.  0.
<mgrwt>
<rscale>  0 0.50379125E+03</rscale>
<asrwt>0</asrwt>
<pdfrwt beam="1">  1        2 0.15142290E+00 0.50379125E+03</pdfrwt>
<pdfrwt beam="2">  1       -2 0.85517229E-02 0.50379125E+03</pdfrwt>
<totfact> 0.22897894E+03</totfact>
</mgrwt>
</event>
<event>
 4    1  0.1837449E-005  0.4919639E+03  0.7818608E-02  0.1015898E+00
         -2   -1    0    0    0  501 -0.00000000000E+00  0.00000000000E+00  0.49077738471E+02  0.49077738538E+02  0.25500000000E-02 0. -1.
          2   -1    0    0  501    0  0.00000000000E+00 -0.00000000000E+00 -0.12328833365E+04  0.12328833365E+04  0.25500000000E-02 0.  1.
    5000001    1    1    2    0    0 -0.88291260746E+01 -0.18204355683E+03 -0.61280061589E+03  0.66027827837E+03  0.16500000000E+03 0.  0.
   -5000001    1    1    2    0    0  0.88291260746E+01  0.18204355683E+03 -0.57100498212E+03  0.62168279665E+03  0.16500000000E+03 0.  0.
<mgrwt>
<rscale>  0 0.49196393E+03</rscale>
<asrwt>0</asrwt>
<pdfrwt beam="1">  1        2 0.17612617E+00 0.49196393E+03</pdfrwt>
<pdfrwt beam="2">  1       -2 0.70111063E-02 0.49196393E+03</pdfrwt>
<totfact> 0.25018315E+03</totfact>
</mgrwt>
</event>
<event>
 4    1  0.1837449E-005  0.8136691E+03  0.7818608E-02  0.9540440E-01
          2   -1    0    0  501    0  0.00000000000E+00  0.00000000000E+00  0.23702663544E+03  0.23702663545E+03  0.25500000000E-02 0.  1.
         -2   -1    0    0    0  501 -0.00000000000E+00 -0.00000000000E+00 -0.69829438260E+03  0.69829438260E+03  0.25500000000E-02 0. -1.
    5000001    1    1    2    0    0  0.31187737757E+03 -0.14178068570E+03 -0.39689656036E+03  0.54965547491E+03  0.16500000000E+03 0.  0.
   -5000001    1    1    2    0    0 -0.31187737757E+03  0.14178068570E+03 -0.64371186799E+02  0.38566554314E+03  0.16500000000E+03 0.  0.
<mgrwt>
<rscale>  0 0.81366914E+03</rscale>
<asrwt>0</asrwt>
<pdfrwt beam="1">  1        2 0.33860948E-01 0.81366914E+03</pdfrwt>
<pdfrwt beam="2">  1       -2 0.99756340E-01 0.81366914E+03</pdfrwt>
<totfact> 0.12984636E+02</totfact>
</mgrwt>
</event>
<event>
 4    1  0.1837449E-005  0.4726046E+03  0.7818608E-02  0.1021188E+00
          2   -1    0    0  501    0  0.00000000000E+00  0.00000000000E+00  0.46954455602E+03  0.46954455603E+03  0.25500000000E-02 0.  1.
         -2   -1    0    0    0  501 -0.00000000000E+00 -0.00000000000E+00 -0.11892114077E+03  0.11892114080E+03  0.25500000000E-02 0. -1.
    5000001    1    1    2    0    0 -0.13891325455E+03  0.94441705772E+02  0.20014141629E+03  0.30902704508E+03  0.16500000000E+03 0.  0.
   -5000001    1    1    2    0    0  0.13891325455E+03 -0.94441705772E+02  0.15048199895E+03  0.27943865174E+03  0.16500000000E+03 0.  0.
<mgrwt>
<rscale>  0 0.47260459E+03</rscale>
<asrwt>0</asrwt>
<pdfrwt beam="1">  1        2 0.67077795E-01 0.47260459E+03</pdfrwt>
<pdfrwt beam="2">  1       -2 0.16988734E-01 0.47260459E+03</pdfrwt>
<totfact> 0.20311656E+03</totfact>
</mgrwt>
</event>
<event>
 4    1  0.1837449E-005  0.4099379E+03  0.7818608E-02  0.1040392E+00
         -2   -1    0    0    0  501 -0.00000000000E+00  0.00000000000E+00  0.33597406819E+02  0.33597406916E+02  0.25500000000E-02 0. -1.
          2   -1    0    0  501    0  0.00000000000E+00 -0.00000000000E+00 -0.12504618000E+04  0.12504618000E+04  0.25500000000E-02 0.  1.
    5000001    1    1    2    0    0  0.11941860028E+03  0.21455862418E+02 -0.63390202267E+03  0.66616659363E+03  0.16500000000E+03 0.  0.
   -5000001    1    1    2    0    0 -0.11941860028E+03 -0.21455862418E+02 -0.58296237055E+03  0.61789261333E+03  0.16500000000E+03 0.  0.
<mgrwt>
<rscale>  0 0.40993792E+03</rscale>
<asrwt>0</asrwt>
<pdfrwt beam="1">  1        2 0.17863737E+00 0.40993792E+03</pdfrwt>
<pdfrwt beam="2">  1       -2 0.47996303E-02 0.40993792E+03</pdfrwt>
<totfact> 0.44060958E+03</totfact>
</mgrwt>
</event>
<event>
 4    1  0.1837449E-005  0.5163958E+03  0.7818608E-02  0.1009586E+00
          2   -1    0    0  501    0  0.00000000000E+00  0.00000000000E+00  0.17728856670E+03  0.17728856672E+03  0.25500000000E-02 0.  1.
         -2   -1    0    0    0  501 -0.00000000000E+00 -0.00000000000E+00 -0.37603184902E+03  0.37603184903E+03  0.25500000000E-02 0. -1.
    5000001    1    1    2    0    0  0.19655782638E+03 -0.36662232291E+01 -0.69202988694E+02  0.26582414102E+03  0.16500000000E+03 0.  0.
   -5000001    1    1    2    0    0 -0.19655782638E+03  0.36662232291E+01 -0.12954029363E+03  0.28749627472E+03  0.16500000000E+03 0.  0.
<mgrwt>
<rscale>  0 0.51639577E+03</rscale>
<asrwt>0</asrwt>
<pdfrwt beam="1">  1        2 0.25326938E-01 0.51639577E+03</pdfrwt>
<pdfrwt beam="2">  1       -2 0.53718835E-01 0.51639577E+03</pdfrwt>
<totfact> 0.70884030E+02</totfact>
</mgrwt>
</event>
<event>
 4    1  0.1837449E-005  0.8208307E+03  0.7818608E-02  0.9530345E-01
         -2   -1    0    0    0  501 -0.00000000000E+00  0.00000000000E+00  0.48012873843E+02  0.48012873911E+02  0.25500000000E-02 0. -1.
          2   -1    0    0  501    0  0.00000000000E+00 -0.00000000000E+00 -0.35082418953E+04  0.35082418953E+04  0.25500000000E-02 0.  1.
    5000001    1    1    2    0    0  0.26918416746E+03  0.16814226094E+03 -0.26018407179E+04  0.26263153004E+04  0.16500000000E+03 0.  0.
   -5000001    1    1    2    0    0 -0.26918416746E+03 -0.16814226094E+03 -0.85838830356E+03  0.92993946879E+03  0.16500000000E+03 0.  0.
<mgrwt>
<rscale>  0 0.82083074E+03</rscale>
<asrwt>0</asrwt>
<pdfrwt beam="1">  1        2 0.50117725E+00 0.82083074E+03</pdfrwt>
<pdfrwt beam="2">  1       -2 0.68589842E-02 0.82083074E+03</pdfrwt>
<totfact> 0.15789362E+02</totfact>
</mgrwt>
</event>
<event>
 4    1  0.1837449E-005  0.4589232E+03  0.7818608E-02  0.1025094E+00
          2   -1    0    0  501    0  0.00000000000E+00  0.00000000000E+00  0.41292289083E+03  0.41292289084E+03  0.25500000000E-02 0.  1.
         -2   -1    0    0    0  501 -0.00000000000E+00 -0.00000000000E+00 -0.12751197874E+03  0.12751197877E+03  0.25500000000E-02 0. -1.
    5000001    1    1    2    0    0  0.12148752934E+03 -0.10253325503E+03  0.15738209038E+03  0.27796836249E+03  0.16500000000E+03 0.  0.
   -5000001    1    1    2    0    0 -0.12148752934E+03  0.10253325503E+03  0.12802882171E+03  0.26246650712E+03  0.16500000000E+03 0.  0.
<mgrwt>
<rscale>  0 0.45892315E+03</rscale>
<asrwt>0</asrwt>
<pdfrwt beam="1">  1        2 0.58988984E-01 0.45892315E+03</pdfrwt>
<pdfrwt beam="2">  1       -2 0.18215997E-01 0.45892315E+03</pdfrwt>
<totfact> 0.20798267E+03</totfact>
</mgrwt>
</event>
<event>
 4    1  0.1837449E-005  0.5572891E+03  0.7818608E-02  0.9998207E-01
          2   -1    0    0  501    0  0.00000000000E+00  0.00000000000E+00  0.13439140800E+04  0.13439140800E+04  0.25500000000E-02 0.  1.
         -2   -1    0    0    0  501 -0.00000000000E+00 -0.00000000000E+00 -0.57773624755E+02  0.57773624812E+02  0.25500000000E-02 0. -1.
    5000001    1    1    2    0    0 -0.11816574610E+03  0.19093093111E+03  0.64268223223E+03  0.70048784117E+03  0.16500000000E+03 0.  0.
   -5000001    1    1    2    0    0  0.11816574610E+03 -0.19093093111E+03  0.64345822304E+03  0.70119986366E+03  0.16500000000E+03 0.  0.
<mgrwt>
<rscale>  0 0.55728911E+03</rscale>
<asrwt>0</asrwt>
<pdfrwt beam="1">  1        2 0.19198771E+00 0.55728911E+03</pdfrwt>
<pdfrwt beam="2">  1       -2 0.82533758E-02 0.55728911E+03</pdfrwt>
<totfact> 0.16798951E+03</totfact>
</mgrwt>
</event>
<event>
 4    1  0.1837449E-005  0.3631163E+03  0.7818608E-02  0.1057357E+00
          2   -1    0    0  501    0  0.00000000000E+00  0.00000000000E+00  0.27416809334E+04  0.27416809334E+04  0.25500000000E-02 0.  1.
         -2   -1    0    0    0  501 -0.00000000000E+00 -0.00000000000E+00 -0.12023048539E+02  0.12023048810E+02  0.25500000000E-02 0. -1.
    5000001    1    1    2    0    0  0.27988519525E+02 -0.38342648051E+02  0.18125044998E+04  0.18206183229E+04  0.16500000000E+03 0.  0.
   -5000001    1    1    2    0    0 -0.27988519525E+02  0.38342648051E+02  0.91715338511E+03  0.93308565936E+03  0.16500000000E+03 0.  0.
<mgrwt>
<rscale>  0 0.36311631E+03</rscale>
<asrwt>0</asrwt>
<pdfrwt beam="1">  1        2 0.39166901E+00 0.36311631E+03</pdfrwt>
<pdfrwt beam="2">  1       -2 0.17175770E-02 0.36311631E+03</pdfrwt>
<totfact> 0.36430510E+03</totfact>
</mgrwt>
</event>
<event>
 4    1  0.1837449E-005  0.4645015E+03  0.7818608E-02  0.1023484E+00
         -2   -1    0    0    0  501 -0.00000000000E+00  0.00000000000E+00  0.84886659980E+03  0.84886659981E+03  0.25500000000E-02 0. -1.
          2   -1    0    0  501    0  0.00000000000E+00 -0.00000000000E+00 -0.63544029365E+02  0.63544029417E+02  0.25500000000E-02 0.  1.
    5000001    1    1    2    0    0 -0.80739441496E+02 -0.14201761988E+03  0.40296999082E+03  0.46507813889E+03  0.16500000000E+03 0.  0.
   -5000001    1    1    2    0    0  0.80739441496E+02  0.14201761988E+03  0.38235257962E+03  0.44733249034E+03  0.16500000000E+03 0.  0.
<mgrwt>
<rscale>  0 0.46450147E+03</rscale>
<asrwt>0</asrwt>
<pdfrwt beam="1">  1        2 0.90777189E-02 0.46450147E+03</pdfrwt>
<pdfrwt beam="2">  1       -2 0.12126665E+00 0.46450147E+03</pdfrwt>
<totfact> 0.39362787E+02</totfact>
</mgrwt>
</event>
<event>
 4    1  0.1837449E-005  0.4194386E+03  0.7818608E-02  0.1037249E+00
         -2   -1    0    0    0  501 -0.00000000000E+00  0.00000000000E+00  0.11329509571E+03  0.11329509574E+03  0.25500000000E-02 0. -1.
          2   -1    0    0  501    0  0.00000000000E+00 -0.00000000000E+00 -0.38820914922E+03  0.38820914923E+03  0.25500000000E-02 0.  1.
    5000001    1    1    2    0    0 -0.98718437604E+02 -0.17352633717E+01 -0.23755599786E+03  0.30562426798E+03  0.16500000000E+03 0.  0.
   -5000001    1    1    2    0    0  0.98718437604E+02  0.17352633717E+01 -0.37358055657E+02  0.19587997699E+03  0.16500000000E+03 0.  0.
<mgrwt>
<rscale>  0 0.41943864E+03</rscale>
<asrwt>0</asrwt>
<pdfrwt beam="1">  1        2 0.55458449E-01 0.41943864E+03</pdfrwt>
<pdfrwt beam="2">  1       -2 0.16185014E-01 0.41943864E+03</pdfrwt>
<totfact> 0.27176663E+03</totfact>
</mgrwt>
</event>
<event>
 4    1  0.1837449E-005  0.5703209E+03  0.7818608E-02  0.9968969E-01
         -2   -1    0    0    0  501 -0.00000000000E+00  0.00000000000E+00  0.12919424712E+03  0.12919424715E+03  0.25500000000E-02 0.  1.
          2   -1    0    0  501    0  0.00000000000E+00 -0.00000000000E+00 -0.62941259038E+03  0.62941259039E+03  0.25500000000E-02 0. -1.
    5000001    1    1    2    0    0  0.22454448686E+03  0.15358381127E+02 -0.17214684274E+03  0.32789577905E+03  0.16500000000E+03 0.  0.
   -5000001    1    1    2    0    0 -0.22454448686E+03 -0.15358381127E+02 -0.32807150052E+03  0.43071105849E+03  0.16500000000E+03 0.  0.
<mgrwt>
<rscale>  0 0.57032091E+03</rscale>
<asrwt>0</asrwt>
<pdfrwt beam="1">  1        2 0.89916082E-01 0.57032091E+03</pdfrwt>
<pdfrwt beam="2">  1       -2 0.18456321E-01 0.57032091E+03</pdfrwt>
<totfact> 0.12589270E+03</totfact>
</mgrwt>
</event>
<event>
 4    1  0.1837449E-005  0.4206262E+03  0.7818608E-02  0.1036863E+00
          2   -1    0    0  501    0  0.00000000000E+00  0.00000000000E+00  0.17931585946E+04  0.17931585946E+04  0.25500000000E-02 0.  1.
         -2   -1    0    0    0  501 -0.00000000000E+00 -0.00000000000E+00 -0.24666862088E+02  0.24666862220E+02  0.25500000000E-02 0. -1.
    5000001    1    1    2    0    0  0.11217135722E+03 -0.59689364753E+02  0.75740803903E+03  0.78551713618E+03  0.16500000000E+03 0.  0.
   -5000001    1    1    2    0    0 -0.11217135722E+03  0.59689364753E+02  0.10110836935E+04  0.10323083207E+04  0.16500000000E+03 0.  0.
<mgrwt>
<rscale>  0 0.42062618E+03</rscale>
<asrwt>0</asrwt>
<pdfrwt beam="1">  1        2 0.25616561E+00 0.42062618E+03</pdfrwt>
<pdfrwt beam="2">  1       -2 0.35238362E-02 0.42062618E+03</pdfrwt>
<totfact> 0.37073188E+03</totfact>
</mgrwt>
</event>
<event>
 4    1  0.1837449E-005  0.8647372E+03  0.7818608E-02  0.9470768E-01
          2   -1    0    0  501    0  0.00000000000E+00  0.00000000000E+00  0.52839410675E+03  0.52839410675E+03  0.25500000000E-02 0.  1.
         -2   -1    0    0    0  501 -0.00000000000E+00 -0.00000000000E+00 -0.35379390507E+03  0.35379390508E+03  0.25500000000E-02 0. -1.
    5000001    1    1    2    0    0  0.21307887757E+03 -0.31394893258E+03  0.21533609782E+03  0.46643453491E+03  0.16500000000E+03 0.  0.
   -5000001    1    1    2    0    0 -0.21307887757E+03  0.31394893258E+03 -0.40735896150E+02  0.41575347692E+03  0.16500000000E+03 0.  0.
<mgrwt>
<rscale>  0 0.86473722E+03</rscale>
<asrwt>0</asrwt>
<pdfrwt beam="1">  1        2 0.75484872E-01 0.86473722E+03</pdfrwt>
<pdfrwt beam="2">  1       -2 0.50541987E-01 0.86473722E+03</pdfrwt>
<totfact> 0.23417100E+02</totfact>
</mgrwt>
</event>
<event>
 4    1  0.1837449E-005  0.4740578E+03  0.7818608E-02  0.1020781E+00
         -2   -1    0    0    0  501 -0.00000000000E+00  0.00000000000E+00  0.60148885637E+02  0.60148885691E+02  0.25500000000E-02 0. -1.
          2   -1    0    0  501    0  0.00000000000E+00 -0.00000000000E+00 -0.93406049310E+03  0.93406049310E+03  0.25500000000E-02 0.  1.
    5000001    1    1    2    0    0 -0.40385549078E+02  0.16521719992E+03 -0.42547221987E+03  0.48701060112E+03  0.16500000000E+03 0.  0.
   -5000001    1    1    2    0    0  0.40385549078E+02 -0.16521719992E+03 -0.44843938759E+03  0.50719877767E+03  0.16500000000E+03 0.  0.
<mgrwt>
<rscale>  0 0.47405779E+03</rscale>
<asrwt>0</asrwt>
<pdfrwt beam="1">  1        2 0.13343720E+00 0.47405779E+03</pdfrwt>
<pdfrwt beam="2">  1       -2 0.85926985E-02 0.47405779E+03</pdfrwt>
<totfact> 0.27088934E+03</totfact>
</mgrwt>
</event>
<event>
 4    1  0.1837449E-005  0.5355913E+03  0.7818608E-02  0.1004885E+00
         -2   -1    0    0    0  501 -0.00000000000E+00  0.00000000000E+00  0.15038449393E+04  0.15038449393E+04  0.25500000000E-02 0. -1.
          2   -1    0    0  501    0  0.00000000000E+00 -0.00000000000E+00 -0.47687429593E+02  0.47687429661E+02  0.25500000000E-02 0.  1.
    5000001    1    1    2    0    0 -0.99249440037E+02  0.13937316707E+03  0.37076357099E+03  0.44041566346E+03  0.16500000000E+03 0.  0.
   -5000001    1    1    2    0    0  0.99249440037E+02 -0.13937316707E+03  0.10853939387E+04  0.11111167055E+04  0.16500000000E+03 0.  0.
<mgrwt>
<rscale>  0 0.53559126E+03</rscale>
<asrwt>0</asrwt>
<pdfrwt beam="1">  1        2 0.68124901E-02 0.53559126E+03</pdfrwt>
<pdfrwt beam="2">  1       -2 0.21483499E+00 0.53559126E+03</pdfrwt>
<totfact> 0.12033833E+02</totfact>
</mgrwt>
</event>
<event>
 4    1  0.1837449E-005  0.3525861E+03  0.7818608E-02  0.1061559E+00
         -2   -1    0    0    0  501 -0.00000000000E+00  0.00000000000E+00  0.14813494273E+02  0.14813494493E+02  0.25500000000E-02 0. -1.
          2   -1    0    0  501    0  0.00000000000E+00 -0.00000000000E+00 -0.20980352156E+04  0.20980352156E+04  0.25500000000E-02 0.  1.
    5000001    1    1    2    0    0 -0.11944556160E+02 -0.49774977264E+02 -0.83110559258E+03  0.84887085402E+03  0.16500000000E+03 0.  0.
   -5000001    1    1    2    0    0  0.11944556160E+02  0.49774977264E+02 -0.12521161287E+04  0.12639778561E+04  0.16500000000E+03 0.  0.
<mgrwt>
<rscale>  0 0.35258606E+03</rscale>
<asrwt>0</asrwt>
<pdfrwt beam="1">  1        2 0.29971913E+00 0.35258606E+03</pdfrwt>
<pdfrwt beam="2">  1       -2 0.21162148E-02 0.35258606E+03</pdfrwt>
<totfact> 0.56298183E+03</totfact>
</mgrwt>
</event>
<event>
 4    1  0.1837449E-005  0.4136297E+03  0.7818608E-02  0.1039160E+00
          2   -1    0    0  501    0  0.00000000000E+00  0.00000000000E+00  0.33565505652E+03  0.33565505653E+03  0.25500000000E-02 0.  1.
         -2   -1    0    0    0  501 -0.00000000000E+00 -0.00000000000E+00 -0.12742958123E+03  0.12742958125E+03  0.25500000000E-02 0. -1.
    5000001    1    1    2    0    0 -0.94447666937E+02 -0.36926004301E+02  0.22888503482E+02  0.19501993533E+03  0.16500000000E+03 0.  0.
   -5000001    1    1    2    0    0  0.94447666937E+02  0.36926004301E+02  0.18533697181E+03  0.26806470246E+03  0.16500000000E+03 0.  0.
<mgrwt>
<rscale>  0 0.41362971E+03</rscale>
<asrwt>0</asrwt>
<pdfrwt beam="1">  1        2 0.47950722E-01 0.41362971E+03</pdfrwt>
<pdfrwt beam="2">  1       -2 0.18204226E-01 0.41362971E+03</pdfrwt>
<totfact> 0.26103402E+03</totfact>
</mgrwt>
</event>
<event>
 4    1  0.1837449E-005  0.5521986E+03  0.7818608E-02  0.1000986E+00
          2   -1    0    0  501    0  0.00000000000E+00  0.00000000000E+00  0.70858307133E+03  0.70858307134E+03  0.25500000000E-02 0.  1.
         -2   -1    0    0    0  501 -0.00000000000E+00 -0.00000000000E+00 -0.10758206723E+03  0.10758206726E+03  0.25500000000E-02 0. -1.
    5000001    1    1    2    0    0  0.15221911446E+02 -0.21999896732E+03  0.27189466420E+03  0.38701803657E+03  0.16500000000E+03 0.  0.
   -5000001    1    1    2    0    0 -0.15221911446E+02  0.21999896732E+03  0.32910633991E+03  0.42914710203E+03  0.16500000000E+03 0.  0.
<mgrwt>
<rscale>  0 0.55219863E+03</rscale>
<asrwt>0</asrwt>
<pdfrwt beam="1">  1        2 0.10122615E+00 0.55219863E+03</pdfrwt>
<pdfrwt beam="2">  1       -2 0.15368867E-01 0.55219863E+03</pdfrwt>
<totfact> 0.14907501E+03</totfact>
</mgrwt>
</event>
<event>
 4    1  0.1837449E-005  0.4044104E+03  0.7818608E-02  0.1042263E+00
         -2   -1    0    0    0  501 -0.00000000000E+00  0.00000000000E+00  0.51092260510E+02  0.51092260574E+02  0.25500000000E-02 0. -1.
          2   -1    0    0  501    0  0.00000000000E+00 -0.00000000000E+00 -0.80025702983E+03  0.80025702984E+03  0.25500000000E-02 0.  1.
    5000001    1    1    2    0    0  0.95485818179E+02  0.44760788239E+02 -0.26846738282E+03  0.33229626130E+03  0.16500000000E+03 0.  0.
   -5000001    1    1    2    0    0 -0.95485818179E+02 -0.44760788239E+02 -0.48069738650E+03  0.51905302911E+03  0.16500000000E+03 0.  0.
<mgrwt>
<rscale>  0 0.40441039E+03</rscale>
<asrwt>0</asrwt>
<pdfrwt beam="1">  1        2 0.11432243E+00 0.40441039E+03</pdfrwt>
<pdfrwt beam="2">  1       -2 0.72988948E-02 0.40441039E+03</pdfrwt>
<totfact> 0.42813154E+03</totfact>
</mgrwt>
</event>
<event>
 4    1  0.1837449E-005  0.4452497E+03  0.7818608E-02  0.1029148E+00
         -2   -1    0    0    0  501 -0.00000000000E+00  0.00000000000E+00  0.25641828140E+02  0.25641828267E+02  0.25500000000E-02 0. -1.
          2   -1    0    0  501    0  0.00000000000E+00 -0.00000000000E+00 -0.19328508827E+04  0.19328508827E+04  0.25500000000E-02 0.  1.
    5000001    1    1    2    0    0  0.49348310359E+02 -0.14106650510E+03 -0.95953157410E+03  0.98501820099E+03  0.16500000000E+03 0.  0.
   -5000001    1    1    2    0    0 -0.49348310359E+02  0.14106650510E+03 -0.94767748041E+03  0.97347450993E+03  0.16500000000E+03 0.  0.
<mgrwt>
<rscale>  0 0.44524973E+03</rscale>
<asrwt>0</asrwt>
<pdfrwt beam="1">  1        2 0.27612146E+00 0.44524973E+03</pdfrwt>
<pdfrwt beam="2">  1       -2 0.36631195E-02 0.44524973E+03</pdfrwt>
<totfact> 0.29770158E+03</totfact>
</mgrwt>
</event>
<event>
 4    1  0.1837449E-005  0.6086745E+03  0.7818608E-02  0.9887571E-01
         -2   -1    0    0    0  501 -0.00000000000E+00  0.00000000000E+00  0.96704784596E+02  0.96704784630E+02  0.25500000000E-02 0. -1.
          2   -1    0    0  501    0  0.00000000000E+00 -0.00000000000E+00 -0.95777213747E+03  0.95777213747E+03  0.25500000000E-02 0.  1.
    5000001    1    1    2    0    0 -0.16251761125E+03 -0.36972635090E+02 -0.76653828026E+03  0.80161392504E+03  0.16500000000E+03 0.  0.
   -5000001    1    1    2    0    0  0.16251761125E+03  0.36972635090E+02 -0.94529072610E+02  0.25286299706E+03  0.16500000000E+03 0.  0.
<mgrwt>
<rscale>  0 0.60867446E+03</rscale>
<asrwt>0</asrwt>
<pdfrwt beam="1">  1        2 0.13682459E+00 0.60867446E+03</pdfrwt>
<pdfrwt beam="2">  1       -2 0.13814970E-01 0.60867446E+03</pdfrwt>
<totfact> 0.12063119E+03</totfact>
</mgrwt>
</event>
<event>
 4    1  0.1837449E-005  0.1207078E+04  0.7818608E-02  0.9106684E-01
         -2   -1    0    0    0  501 -0.00000000000E+00  0.00000000000E+00  0.13313463905E+03  0.13313463907E+03  0.25500000000E-02 0. -1.
          2   -1    0    0  501    0  0.00000000000E+00 -0.00000000000E+00 -0.27360209087E+04  0.27360209087E+04  0.25500000000E-02 0.  1.
    5000001    1    1    2    0    0  0.36837603036E+03 -0.44867023972E+03 -0.12888045009E+04  0.14231120565E+04  0.16500000000E+03 0.  0.
   -5000001    1    1    2    0    0 -0.36837603036E+03  0.44867023972E+03 -0.13140817687E+04  0.14460434913E+04  0.16500000000E+03 0.  0.
<mgrwt>
<rscale>  0 0.12070777E+04</rscale>
<asrwt>0</asrwt>
<pdfrwt beam="1">  1        2 0.39086010E+00 0.12070777E+04</pdfrwt>
<pdfrwt beam="2">  1       -2 0.19019236E-01 0.12070777E+04</pdfrwt>
<totfact> 0.76482290E+01</totfact>
</mgrwt>
</event>
<event>
 4    1  0.1837449E-005  0.5860693E+03  0.7818608E-02  0.9934737E-01
         -2   -1    0    0    0  501 -0.00000000000E+00  0.00000000000E+00  0.40141744421E+02  0.40141744502E+02  0.25500000000E-02 0. -1.
          2   -1    0    0  501    0  0.00000000000E+00 -0.00000000000E+00 -0.21391525001E+04  0.21391525001E+04  0.25500000000E-02 0.  1.
    5000001    1    1    2    0    0  0.14317725774E+03  0.14249361209E+03 -0.55283734215E+03  0.61127594710E+03  0.16500000000E+03 0.  0.
   -5000001    1    1    2    0    0 -0.14317725774E+03 -0.14249361209E+03 -0.15461734136E+04  0.15680182975E+04  0.16500000000E+03 0.  0.
<mgrwt>
<rscale>  0 0.58606932E+03</rscale>
<asrwt>0</asrwt>
<pdfrwt beam="1">  1        2 0.30559314E+00 0.58606932E+03</pdfrwt>
<pdfrwt beam="2">  1       -2 0.57345363E-02 0.58606932E+03</pdfrwt>
<totfact> 0.11701927E+03</totfact>
</mgrwt>
</event>
<event>
 4    1  0.1837449E-005  0.5538517E+03  0.7818608E-02  0.1000606E+00
         -2   -1    0    0    0  501 -0.00000000000E+00  0.00000000000E+00  0.41790499346E+03  0.41790499347E+03  0.25500000000E-02 0. -1.
          2   -1    0    0  501    0  0.00000000000E+00 -0.00000000000E+00 -0.18350565966E+03  0.18350565967E+03  0.25500000000E-02 0.  1.
    5000001    1    1    2    0    0  0.16259626303E+03  0.14314447164E+03  0.17187237882E+03  0.32201397347E+03  0.16500000000E+03 0.  0.
   -5000001    1    1    2    0    0 -0.16259626303E+03 -0.14314447164E+03  0.62526954993E+02  0.27939667967E+03  0.16500000000E+03 0.  0.
<mgrwt>
<rscale>  0 0.55385172E+03</rscale>
<asrwt>0</asrwt>
<pdfrwt beam="1">  1        2 0.26215095E-01 0.55385172E+03</pdfrwt>
<pdfrwt beam="2">  1       -2 0.59700712E-01 0.55385172E+03</pdfrwt>
<totfact> 0.54740097E+02</totfact>
</mgrwt>
</event>
<event>
 4    1  0.1837449E-005  0.3920039E+03  0.7818608E-02  0.1046584E+00
          2   -1    0    0  501    0  0.00000000000E+00  0.00000000000E+00  0.99242184448E+03  0.99242184448E+03  0.25500000000E-02 0.  1.
         -2   -1    0    0    0  501 -0.00000000000E+00 -0.00000000000E+00 -0.38710111216E+02  0.38710111300E+02  0.25500000000E-02 0. -1.
    5000001    1    1    2    0    0  0.18228831822E+02 -0.86573210571E+02  0.32427948656E+03  0.37444545197E+03  0.16500000000E+03 0.  0.
   -5000001    1    1    2    0    0 -0.18228831822E+02  0.86573210571E+02  0.62943224670E+03  0.65668650381E+03  0.16500000000E+03 0.  0.
<mgrwt>
<rscale>  0 0.39200388E+03</rscale>
<asrwt>0</asrwt>
<pdfrwt beam="1">  1        2 0.14177456E+00 0.39200388E+03</pdfrwt>
<pdfrwt beam="2">  1       -2 0.55300155E-02 0.39200388E+03</pdfrwt>
<totfact> 0.49672313E+03</totfact>
</mgrwt>
</event>
<event>
 4    1  0.1837449E-005  0.4042329E+03  0.7818608E-02  0.1042324E+00
          2   -1    0    0  501    0  0.00000000000E+00  0.00000000000E+00  0.57850626353E+02  0.57850626409E+02  0.25500000000E-02 0.  1.
         -2   -1    0    0    0  501 -0.00000000000E+00 -0.00000000000E+00 -0.70614720137E+03  0.70614720138E+03  0.25500000000E-02 0. -1.
    5000001    1    1    2    0    0  0.70750363334E+02 -0.61729331817E+02 -0.45522635044E+03  0.49322627105E+03  0.16500000000E+03 0.  0.
   -5000001    1    1    2    0    0 -0.70750363334E+02  0.61729331817E+02 -0.19307022458E+03  0.27077155674E+03  0.16500000000E+03 0.  0.
<mgrwt>
<rscale>  0 0.40423289E+03</rscale>
<asrwt>0</asrwt>
<pdfrwt beam="1">  1        2 0.82643756E-02 0.40423289E+03</pdfrwt>
<pdfrwt beam="2">  1       -2 0.10087817E+00 0.40423289E+03</pdfrwt>
<totfact> 0.69035732E+02</totfact>
</mgrwt>
</event>
<event>
 4    1  0.1837449E-005  0.3436577E+03  0.7818608E-02  0.1065249E+00
          2   -1    0    0  501    0  0.00000000000E+00  0.00000000000E+00  0.11644640345E+04  0.11644640345E+04  0.25500000000E-02 0.  1.
         -2   -1    0    0    0  501 -0.00000000000E+00 -0.00000000000E+00 -0.25355144200E+02  0.25355144328E+02  0.25500000000E-02 0. -1.
    5000001    1    1    2    0    0  0.11090219466E+02 -0.45255530623E+02  0.53021629629E+03  0.55724803891E+03  0.16500000000E+03 0.  0.
   -5000001    1    1    2    0    0 -0.11090219466E+02  0.45255530623E+02  0.60889259405E+03  0.63257113996E+03  0.16500000000E+03 0.  0.
<mgrwt>
<rscale>  0 0.34365770E+03</rscale>
<asrwt>0</asrwt>
<pdfrwt beam="1">  1        2 0.16635208E+00 0.34365770E+03</pdfrwt>
<pdfrwt beam="2">  1       -2 0.36221619E-02 0.34365770E+03</pdfrwt>
<totfact> 0.75180376E+03</totfact>
</mgrwt>
</event>
<event>
 4    1  0.1837449E-005  0.4175040E+03  0.7818608E-02  0.1037882E+00
         -2   -1    0    0    0  501 -0.00000000000E+00  0.00000000000E+00  0.41202302900E+02  0.41202302979E+02  0.25500000000E-02 0. -1.
          2   -1    0    0  501    0  0.00000000000E+00 -0.00000000000E+00 -0.10576449479E+04  0.10576449479E+04  0.25500000000E-02 0.  1.
    5000001    1    1    2    0    0 -0.11656423835E+03  0.16691789382E+02 -0.63946457511E+03  0.67082470163E+03  0.16500000000E+03 0.  0.
   -5000001    1    1    2    0    0  0.11656423835E+03 -0.16691789382E+02 -0.37697806992E+03  0.42802254928E+03  0.16500000000E+03 0.  0.
<mgrwt>
<rscale>  0 0.41750405E+03</rscale>
<asrwt>0</asrwt>
<pdfrwt beam="1">  1        2 0.15109212E+00 0.41750405E+03</pdfrwt>
<pdfrwt beam="2">  1       -2 0.58860439E-02 0.41750405E+03</pdfrwt>
<totfact> 0.41293260E+03</totfact>
</mgrwt>
</event>
<event>
 4    1  0.1837449E-005  0.5638036E+03  0.7818608E-02  0.9983485E-01
          2   -1    0    0  501    0  0.00000000000E+00  0.00000000000E+00  0.19102602307E+04  0.19102602307E+04  0.25500000000E-02 0.  1.
         -2   -1    0    0    0  501 -0.00000000000E+00 -0.00000000000E+00 -0.41600940869E+02  0.41600940947E+02  0.25500000000E-02 0. -1.
    5000001    1    1    2    0    0 -0.61775139030E+02 -0.21914703022E+03  0.10037445368E+04  0.10423865328E+04  0.16500000000E+03 0.  0.
   -5000001    1    1    2    0    0  0.61775139030E+02  0.21914703022E+03  0.86491475305E+03  0.90947463884E+03  0.16500000000E+03 0.  0.
<mgrwt>
<rscale>  0 0.56380359E+03</rscale>
<asrwt>0</asrwt>
<pdfrwt beam="1">  1        2 0.27289430E+00 0.56380359E+03</pdfrwt>
<pdfrwt beam="2">  1       -2 0.59429920E-02 0.56380359E+03</pdfrwt>
<totfact> 0.14433296E+03</totfact>
</mgrwt>
</event>
<event>
 4    1  0.1837449E-005  0.6130868E+03  0.7818608E-02  0.9878621E-01
         -2   -1    0    0    0  501 -0.00000000000E+00  0.00000000000E+00  0.43328237032E+03  0.43328237033E+03  0.25500000000E-02 0. -1.
          2   -1    0    0  501    0  0.00000000000E+00 -0.00000000000E+00 -0.21687674126E+03  0.21687674127E+03  0.25500000000E-02 0.  1.
    5000001    1    1    2    0    0  0.15210454093E+03  0.16673823301E+03 -0.25123132131E+02  0.28070197984E+03  0.16500000000E+03 0.  0.
   -5000001    1    1    2    0    0 -0.15210454093E+03 -0.16673823301E+03  0.24152876119E+03  0.36945713175E+03  0.16500000000E+03 0.  0.
<mgrwt>
<rscale>  0 0.61308684E+03</rscale>
<asrwt>0</asrwt>
<pdfrwt beam="1">  1        2 0.30982392E-01 0.61308684E+03</pdfrwt>
<pdfrwt beam="2">  1       -2 0.61897481E-01 0.61308684E+03</pdfrwt>
<totfact> 0.41972435E+02</totfact>
</mgrwt>
</event>
<event>
 4    1  0.1837449E-005  0.6321637E+03  0.7818608E-02  0.9840836E-01
         -2   -1    0    0    0  501 -0.00000000000E+00  0.00000000000E+00  0.12858907996E+03  0.12858907999E+03  0.25500000000E-02 0. -1.
          2   -1    0    0  501    0  0.00000000000E+00 -0.00000000000E+00 -0.77695340867E+03  0.77695340867E+03  0.25500000000E-02 0.  1.
    5000001    1    1    2    0    0  0.58611526778E+02  0.20852375633E+03 -0.55411263853E+03  0.61740042452E+03  0.16500000000E+03 0.  0.
   -5000001    1    1    2    0    0 -0.58611526778E+02 -0.20852375633E+03 -0.94251690177E+02  0.28814206414E+03  0.16500000000E+03 0.  0.
<mgrwt>
<rscale>  0 0.63216366E+03</rscale>
<asrwt>0</asrwt>
<pdfrwt beam="1">  1        2 0.11099334E+00 0.63216366E+03</pdfrwt>
<pdfrwt beam="2">  1       -2 0.18369869E-01 0.63216366E+03</pdfrwt>
<totfact> 0.97973442E+02</totfact>
</mgrwt>
</event>
<event>
 4    1  0.1837449E-005  0.1197035E+04  0.7818608E-02  0.9115456E-01
          2   -1    0    0  501    0  0.00000000000E+00  0.00000000000E+00  0.18976787251E+04  0.18976787251E+04  0.25500000000E-02 0.  1.
         -2   -1    0    0    0  501 -0.00000000000E+00 -0.00000000000E+00 -0.18876903289E+03  0.18876903290E+03  0.25500000000E-02 0. -1.
    5000001    1    1    2    0    0 -0.69917892003E+02 -0.55282370359E+03  0.11039885415E+04  0.12476050091E+04  0.16500000000E+03 0.  0.
   -5000001    1    1    2    0    0  0.69917892003E+02  0.55282370359E+03  0.60492115070E+03  0.83884274894E+03  0.16500000000E+03 0.  0.
<mgrwt>
<rscale>  0 0.11970346E+04</rscale>
<asrwt>0</asrwt>
<pdfrwt beam="1">  1        2 0.27109697E+00 0.11970346E+04</pdfrwt>
<pdfrwt beam="2">  1       -2 0.26967004E-01 0.11970346E+04</pdfrwt>
<totfact> 0.11170659E+02</totfact>
</mgrwt>
</event>
<event>
 4    1  0.1837449E-005  0.4490571E+03  0.7818608E-02  0.1028004E+00
         -2   -1    0    0    0  501 -0.00000000000E+00  0.00000000000E+00  0.93500778681E+02  0.93500778716E+02  0.25500000000E-02 0. -1.
          2   -1    0    0  501    0  0.00000000000E+00 -0.00000000000E+00 -0.53917264144E+03  0.53917264145E+03  0.25500000000E-02 0.  1.
    5000001    1    1    2    0    0 -0.70181218227E+02 -0.12372403676E+03 -0.14624835012E+03  0.26238639556E+03  0.16500000000E+03 0.  0.
   -5000001    1    1    2    0    0  0.70181218227E+02  0.12372403676E+03 -0.29942351264E+03  0.37028702460E+03  0.16500000000E+03 0.  0.
<mgrwt>
<rscale>  0 0.44905706E+03</rscale>
<asrwt>0</asrwt>
<pdfrwt beam="1">  1        2 0.77024661E-01 0.44905706E+03</pdfrwt>
<pdfrwt beam="2">  1       -2 0.13357254E-01 0.44905706E+03</pdfrwt>
<totfact> 0.25978308E+03</totfact>
</mgrwt>
</event>
<event>
 4    1  0.1837449E-005  0.1376584E+04  0.7818608E-02  0.8970945E-01
          2   -1    0    0  501    0  0.00000000000E+00  0.00000000000E+00  0.13323114741E+04  0.13323114741E+04  0.25500000000E-02 0.  1.
         -2   -1    0    0    0  501 -0.00000000000E+00 -0.00000000000E+00 -0.35558195716E+03  0.35558195717E+03  0.25500000000E-02 0. -1.
    5000001    1    1    2    0    0 -0.23964058703E+03 -0.42814105473E+03  0.10445928091E+04  0.11658179577E+04  0.16500000000E+03 0.  0.
   -5000001    1    1    2    0    0  0.23964058703E+03  0.42814105473E+03 -0.67863292128E+02  0.52207547358E+03  0.16500000000E+03 0.  0.
<mgrwt>
<rscale>  0 0.13765841E+04</rscale>
<asrwt>0</asrwt>
<pdfrwt beam="1">  1        2 0.19033021E+00 0.13765841E+04</pdfrwt>
<pdfrwt beam="2">  1       -2 0.50797423E-01 0.13765841E+04</pdfrwt>
<totfact> 0.64399843E+01</totfact>
</mgrwt>
</event>
<event>
 4    1  0.1837449E-005  0.5852680E+03  0.7818608E-02  0.9936451E-01
         -2   -1    0    0    0  501 -0.00000000000E+00  0.00000000000E+00  0.65535647012E+02  0.65535647062E+02  0.25500000000E-02 0. -1.
          2   -1    0    0  501    0  0.00000000000E+00 -0.00000000000E+00 -0.13066880504E+04  0.13066880504E+04  0.25500000000E-02 0.  1.
    5000001    1    1    2    0    0  0.21669048014E+01  0.21875535775E+03 -0.86141025674E+03  0.90394205149E+03  0.16500000000E+03 0.  0.
   -5000001    1    1    2    0    0 -0.21669048014E+01 -0.21875535775E+03 -0.37974214665E+03  0.46828164598E+03  0.16500000000E+03 0.  0.
<mgrwt>
<rscale>  0 0.58526796E+03</rscale>
<asrwt>0</asrwt>
<pdfrwt beam="1">  1        2 0.18666970E+00 0.58526796E+03</pdfrwt>
<pdfrwt beam="2">  1       -2 0.93622361E-02 0.58526796E+03</pdfrwt>
<totfact> 0.14364251E+03</totfact>
</mgrwt>
</event>
<event>
 4    1  0.1837449E-005  0.7098218E+03  0.7818608E-02  0.9700582E-01
         -2   -1    0    0    0  501 -0.00000000000E+00  0.00000000000E+00  0.14124340577E+03  0.14124340579E+03  0.25500000000E-02 0. -1.
          2   -1    0    0  501    0  0.00000000000E+00 -0.00000000000E+00 -0.89180619873E+03  0.89180619873E+03  0.25500000000E-02 0.  1.
    5000001    1    1    2    0    0  0.21358616724E+03  0.22935031134E+03 -0.40834504941E+03  0.54054721859E+03  0.16500000000E+03 0.  0.
   -5000001    1    1    2    0    0 -0.21358616724E+03 -0.22935031134E+03 -0.34221774355E+03  0.49250238593E+03  0.16500000000E+03 0.  0.
<mgrwt>
<rscale>  0 0.70982179E+03</rscale>
<asrwt>0</asrwt>
<pdfrwt beam="1">  1        2 0.12740088E+00 0.70982179E+03</pdfrwt>
<pdfrwt beam="2">  1       -2 0.20177630E-01 0.70982179E+03</pdfrwt>
<totfact> 0.69418299E+02</totfact>
</mgrwt>
</event>
<event>
 4    1  0.1837449E-005  0.5522379E+03  0.7818608E-02  0.1000977E+00
         -2   -1    0    0    0  501 -0.00000000000E+00  0.00000000000E+00  0.21911877076E+03  0.21911877077E+03  0.25500000000E-02 0. -1.
          2   -1    0    0  501    0  0.00000000000E+00 -0.00000000000E+00 -0.34794675860E+03  0.34794675861E+03  0.25500000000E-02 0.  1.
    5000001    1    1    2    0    0  0.23247670875E+02 -0.21498102640E+03 -0.15604898965E+02  0.27244413883E+03  0.16500000000E+03 0.  0.
   -5000001    1    1    2    0    0 -0.23247670875E+02  0.21498102640E+03 -0.11322308888E+03  0.29462139055E+03  0.16500000000E+03 0.  0.
<mgrwt>
<rscale>  0 0.55223787E+03</rscale>
<asrwt>0</asrwt>
<pdfrwt beam="1">  1        2 0.49706679E-01 0.55223787E+03</pdfrwt>
<pdfrwt beam="2">  1       -2 0.31302682E-01 0.55223787E+03</pdfrwt>
<totfact> 0.95911757E+02</totfact>
</mgrwt>
</event>
<event>
 4    1  0.1837449E-005  0.3434657E+03  0.7818608E-02  0.1065329E+00
          2   -1    0    0  501    0  0.00000000000E+00  0.00000000000E+00  0.38228433588E+03  0.38228433589E+03  0.25500000000E-02 0.  1.
         -2   -1    0    0    0  501 -0.00000000000E+00 -0.00000000000E+00 -0.77147204566E+02  0.77147204608E+02  0.25500000000E-02 0. -1.
    5000001    1    1    2    0    0 -0.42352436699E+02  0.14754761628E+02  0.17395967892E+03  0.24392294229E+03  0.16500000000E+03 0.  0.
   -5000001    1    1    2    0    0  0.42352436699E+02 -0.14754761628E+02  0.13117745240E+03  0.21550859821E+03  0.16500000000E+03 0.  0.
<mgrwt>
<rscale>  0 0.34346568E+03</rscale>
<asrwt>0</asrwt>
<pdfrwt beam="1">  1        2 0.54612048E-01 0.34346568E+03</pdfrwt>
<pdfrwt beam="2">  1       -2 0.11021029E-01 0.34346568E+03</pdfrwt>
<totfact> 0.51810782E+03</totfact>
</mgrwt>
</event>
<event>
 4    1  0.1837449E-005  0.6316809E+03  0.7818608E-02  0.9841774E-01
          2   -1    0    0  501    0  0.00000000000E+00  0.00000000000E+00  0.20611424892E+04  0.20611424892E+04  0.25500000000E-02 0. -1.
         -2   -1    0    0    0  501 -0.00000000000E+00 -0.00000000000E+00 -0.48398003897E+02  0.48398003965E+02  0.25500000000E-02 0.  1.
    5000001    1    1    2    0    0  0.23002145348E+03  0.10557993658E+03  0.69896533964E+03  0.76146867177E+03  0.16500000000E+03 0.  0.
   -5000001    1    1    2    0    0 -0.23002145348E+03 -0.10557993658E+03  0.13137791457E+04  0.13480718214E+04  0.16500000000E+03 0.  0.
<mgrwt>
<rscale>  0 0.63168088E+03</rscale>
<asrwt>0</asrwt>
<pdfrwt beam="1">  1        2 0.29444894E+00 0.63168088E+03</pdfrwt>
<pdfrwt beam="2">  1       -2 0.69140003E-02 0.63168088E+03</pdfrwt>
<totfact> 0.95216181E+02</totfact>
</mgrwt>
</event>
<event>
 4    1  0.1837449E-005  0.4813598E+03  0.7818608E-02  0.1018762E+00
          2   -1    0    0  501    0  0.00000000000E+00  0.00000000000E+00  0.14054651769E+04  0.14054651769E+04  0.25500000000E-02 0.  1.
         -2   -1    0    0    0  501 -0.00000000000E+00 -0.00000000000E+00 -0.41215407324E+02  0.41215407403E+02  0.25500000000E-02 0. -1.
    5000001    1    1    2    0    0 -0.45996851424E+02  0.16907239581E+03  0.68451873729E+03  0.72559774467E+03  0.16500000000E+03 0.  0.
   -5000001    1    1    2    0    0  0.45996851424E+02 -0.16907239581E+03  0.67973103229E+03  0.72108283964E+03  0.16500000000E+03 0.  0.
<mgrwt>
<rscale>  0 0.48135982E+03</rscale>
<asrwt>0</asrwt>
<pdfrwt beam="1">  1        2 0.20078072E+00 0.48135982E+03</pdfrwt>
<pdfrwt beam="2">  1       -2 0.58879158E-02 0.48135982E+03</pdfrwt>
<totfact> 0.26558620E+03</totfact>
</mgrwt>
</event>
<event>
 4    1  0.1837449E-005  0.9340816E+03  0.7818608E-02  0.9383953E-01
         -2   -1    0    0    0  501 -0.00000000000E+00  0.00000000000E+00  0.23403730141E+03  0.23403730143E+03  0.25500000000E-02 0. -1.
          2   -1    0    0  501    0  0.00000000000E+00 -0.00000000000E+00 -0.93201853404E+03  0.93201853404E+03  0.25500000000E-02 0.  1.
    5000001    1    1    2    0    0  0.24103308743E+03 -0.75271021166E+02 -0.79410810714E+03  0.84946769314E+03  0.16500000000E+03 0.  0.
   -5000001    1    1    2    0    0 -0.24103308743E+03  0.75271021166E+02  0.96126874513E+02  0.31658814233E+03  0.16500000000E+03 0.  0.
<mgrwt>
<rscale>  0 0.93408159E+03</rscale>
<asrwt>0</asrwt>
<pdfrwt beam="1">  1        2 0.13314550E+00 0.93408159E+03</pdfrwt>
<pdfrwt beam="2">  1       -2 0.33433901E-01 0.93408159E+03</pdfrwt>
<totfact> 0.25884174E+02</totfact>
</mgrwt>
</event>
<event>
 4    1  0.1837449E-005  0.3683064E+03  0.7818608E-02  0.1055342E+00
         -2   -1    0    0    0  501 -0.00000000000E+00  0.00000000000E+00  0.83503966411E+02  0.83503966450E+02  0.25500000000E-02 0. -1.
          2   -1    0    0  501    0  0.00000000000E+00 -0.00000000000E+00 -0.40611732972E+03  0.40611732973E+03  0.25500000000E-02 0.  1.
    5000001    1    1    2    0    0  0.21824472520E+02  0.78809037680E+02 -0.16195229079E+03  0.24523604244E+03  0.16500000000E+03 0.  0.
   -5000001    1    1    2    0    0 -0.21824472520E+02 -0.78809037680E+02 -0.16066107252E+03  0.24438525374E+03  0.16500000000E+03 0.  0.
<mgrwt>
<rscale>  0 0.36830644E+03</rscale>
<asrwt>0</asrwt>
<pdfrwt beam="1">  1        2 0.58016761E-01 0.36830644E+03</pdfrwt>
<pdfrwt beam="2">  1       -2 0.11929138E-01 0.36830644E+03</pdfrwt>
<totfact> 0.42738208E+03</totfact>
</mgrwt>
</event>
<event>
 4    1  0.1837449E-005  0.5799807E+03  0.7818608E-02  0.9947833E-01
          2   -1    0    0  501    0  0.00000000000E+00  0.00000000000E+00  0.82202843764E+03  0.82202843764E+03  0.25500000000E-02 0.  1.
         -2   -1    0    0    0  501 -0.00000000000E+00 -0.00000000000E+00 -0.10230110198E+03  0.10230110201E+03  0.25500000000E-02 0. -1.
    5000001    1    1    2    0    0  0.20645572361E+03  0.11859171724E+03  0.38133190278E+03  0.47888096776E+03  0.16500000000E+03 0.  0.
   -5000001    1    1    2    0    0 -0.20645572361E+03 -0.11859171724E+03  0.33839543288E+03  0.44544857189E+03  0.16500000000E+03 0.  0.
<mgrwt>
<rscale>  0 0.57998074E+03</rscale>
<asrwt>0</asrwt>
<pdfrwt beam="1">  1        2 0.11743262E+00 0.57998074E+03</pdfrwt>
<pdfrwt beam="2">  1       -2 0.14614444E-01 0.57998074E+03</pdfrwt>
<totfact> 0.13461263E+03</totfact>
</mgrwt>
</event>
<event>
 4    1  0.1837449E-005  0.9165396E+03  0.7818608E-02  0.9405139E-01
         -2   -1    0    0    0  501 -0.00000000000E+00  0.00000000000E+00  0.14292253132E+03  0.14292253134E+03  0.25500000000E-02 0. -1.
          2   -1    0    0  501    0  0.00000000000E+00 -0.00000000000E+00 -0.14694058281E+04  0.14694058281E+04  0.25500000000E-02 0.  1.
    5000001    1    1    2    0    0 -0.41653258509E+03 -0.90710703403E+02 -0.60601188876E+03  0.75908051975E+03  0.16500000000E+03 0.  0.
   -5000001    1    1    2    0    0  0.41653258509E+03  0.90710703403E+02 -0.72047140807E+03  0.85324783973E+03  0.16500000000E+03 0.  0.
<mgrwt>
<rscale>  0 0.91653958E+03</rscale>
<asrwt>0</asrwt>
<pdfrwt beam="1">  1        2 0.20991511E+00 0.91653958E+03</pdfrwt>
<pdfrwt beam="2">  1       -2 0.20417505E-01 0.91653958E+03</pdfrwt>
<totfact> 0.31272194E+02</totfact>
</mgrwt>
</event>
<event>
 4    1  0.1837449E-005  0.5274873E+03  0.7818608E-02  0.1006843E+00
          2   -1    0    0  501    0  0.00000000000E+00  0.00000000000E+00  0.11991424638E+04  0.11991424638E+04  0.25500000000E-02 0.  1.
         -2   -1    0    0    0  501 -0.00000000000E+00 -0.00000000000E+00 -0.58008703875E+02  0.58008703931E+02  0.25500000000E-02 0. -1.
    5000001    1    1    2    0    0  0.15039136823E+03 -0.93647112168E+02  0.81994018894E+03  0.85493523655E+03  0.16500000000E+03 0.  0.
   -5000001    1    1    2    0    0 -0.15039136823E+03  0.93647112168E+02  0.32119357098E+03  0.40221593117E+03  0.16500000000E+03 0.  0.
<mgrwt>
<rscale>  0 0.52748725E+03</rscale>
<asrwt>0</asrwt>
<pdfrwt beam="1">  1        2 0.17130608E+00 0.52748725E+03</pdfrwt>
<pdfrwt beam="2">  1       -2 0.82869568E-02 0.52748725E+03</pdfrwt>
<totfact> 0.20037211E+03</totfact>
</mgrwt>
</event>
<event>
 4    1  0.1837449E-005  0.4210454E+03  0.7818608E-02  0.1036727E+00
         -2   -1    0    0    0  501 -0.00000000000E+00  0.00000000000E+00  0.79628750158E+02  0.79628750198E+02  0.25500000000E-02 0. -1.
          2   -1    0    0  501    0  0.00000000000E+00 -0.00000000000E+00 -0.55658052391E+03  0.55658052392E+03  0.25500000000E-02 0.  1.
    5000001    1    1    2    0    0  0.73361316673E+02  0.12855779840E+02 -0.76101323079E+02  0.19637608111E+03  0.16500000000E+03 0.  0.
   -5000001    1    1    2    0    0 -0.73361316673E+02 -0.12855779840E+02 -0.40085045067E+03  0.43983319300E+03  0.16500000000E+03 0.  0.
<mgrwt>
<rscale>  0 0.42104542E+03</rscale>
<asrwt>0</asrwt>
<pdfrwt beam="1">  1        2 0.79511501E-01 0.42104542E+03</pdfrwt>
<pdfrwt beam="2">  1       -2 0.11375536E-01 0.42104542E+03</pdfrwt>
<totfact> 0.32565570E+03</totfact>
</mgrwt>
</event>
<event>
 4    1  0.1837449E-005  0.3479622E+03  0.7818608E-02  0.1063455E+00
         -2   -1    0    0    0  501 -0.00000000000E+00  0.00000000000E+00  0.98978985808E+01  0.98978989092E+01  0.25500000000E-02 0. -1.
          2   -1    0    0  501    0  0.00000000000E+00 -0.00000000000E+00 -0.30581664500E+04  0.30581664500E+04  0.25500000000E-02 0.  1.
    5000001    1    1    2    0    0 -0.24459693570E+02  0.35893708667E+02 -0.18241518728E+04  0.18321139948E+04  0.16500000000E+03 0.  0.
   -5000001    1    1    2    0    0  0.24459693570E+02 -0.35893708667E+02 -0.12241166786E+04  0.12359503541E+04  0.16500000000E+03 0.  0.
<mgrwt>
<rscale>  0 0.34796219E+03</rscale>
<asrwt>0</asrwt>
<pdfrwt beam="1">  1        2 0.43688032E+00 0.34796219E+03</pdfrwt>
<pdfrwt beam="2">  1       -2 0.14139875E-02 0.34796219E+03</pdfrwt>
<totfact> 0.33072821E+03</totfact>
</mgrwt>
</event>
<event>
 4    1  0.1837449E-005  0.5307335E+03  0.7818608E-02  0.1006054E+00
          2   -1    0    0  501    0  0.00000000000E+00  0.00000000000E+00  0.21374209689E+04  0.21374209689E+04  0.25500000000E-02 0.  1.
         -2   -1    0    0    0  501 -0.00000000000E+00 -0.00000000000E+00 -0.32946017507E+02  0.32946017606E+02  0.25500000000E-02 0. -1.
    5000001    1    1    2    0    0 -0.87998708593E+02  0.10646361130E+03  0.41718232644E+03  0.46940852862E+03  0.16500000000E+03 0.  0.
   -5000001    1    1    2    0    0  0.87998708593E+02 -0.10646361130E+03  0.16872926250E+04  0.17009584579E+04  0.16500000000E+03 0.  0.
<mgrwt>
<rscale>  0 0.53073349E+03</rscale>
<asrwt>0</asrwt>
<pdfrwt beam="1">  1        2 0.30534578E+00 0.53073349E+03</pdfrwt>
<pdfrwt beam="2">  1       -2 0.47065750E-02 0.53073349E+03</pdfrwt>
<totfact> 0.15981070E+03</totfact>
</mgrwt>
</event>
<event>
 4    1  0.1837449E-005  0.5743132E+03  0.7818608E-02  0.9960179E-01
          2   -1    0    0  501    0  0.00000000000E+00  0.00000000000E+00  0.64828575002E+03  0.64828575003E+03  0.25500000000E-02 0.  1.
         -2   -1    0    0    0  501 -0.00000000000E+00 -0.00000000000E+00 -0.12719532932E+03  0.12719532934E+03  0.25500000000E-02 0. -1.
    5000001    1    1    2    0    0  0.12964902775E+03  0.77314995727E+02  0.50377267517E+03  0.55117908814E+03  0.16500000000E+03 0.  0.
   -5000001    1    1    2    0    0 -0.12964902775E+03 -0.77314995727E+02  0.17317745538E+02  0.22430199123E+03  0.16500000000E+03 0.  0.
<mgrwt>
<rscale>  0 0.57431322E+03</rscale>
<asrwt>0</asrwt>
<pdfrwt beam="1">  1        2 0.92612253E-01 0.57431322E+03</pdfrwt>
<pdfrwt beam="2">  1       -2 0.18170761E-01 0.57431322E+03</pdfrwt>
<totfact> 0.12483572E+03</totfact>
</mgrwt>
</event>
<event>
 4    1  0.1837449E-005  0.8946403E+03  0.7818608E-02  0.9432306E-01
         -2   -1    0    0    0  501 -0.00000000000E+00  0.00000000000E+00  0.40489093719E+03  0.40489093720E+03  0.25500000000E-02 0. -1.
          2   -1    0    0  501    0  0.00000000000E+00 -0.00000000000E+00 -0.49419559955E+03  0.49419559955E+03  0.25500000000E-02 0.  1.
    5000001    1    1    2    0    0  0.32611027058E+03  0.17728351676E+03  0.14360984258E+03  0.43084352238E+03  0.16500000000E+03 0.  0.
   -5000001    1    1    2    0    0 -0.32611027058E+03 -0.17728351676E+03 -0.23291450494E+03  0.46824301437E+03  0.16500000000E+03 0.  0.
<mgrwt>
<rscale>  0 0.89464031E+03</rscale>
<asrwt>0</asrwt>
<pdfrwt beam="1">  1        2 0.70599371E-01 0.89464031E+03</pdfrwt>
<pdfrwt beam="2">  1       -2 0.57841563E-01 0.89464031E+03</pdfrwt>
<totfact> 0.19110146E+02</totfact>
</mgrwt>
</event>
<event>
 4    1  0.1837449E-005  0.6782773E+03  0.7818608E-02  0.9755119E-01
         -2   -1    0    0    0  501 -0.00000000000E+00  0.00000000000E+00  0.31752067463E+03  0.31752067464E+03  0.25500000000E-02 0. -1.
          2   -1    0    0  501    0  0.00000000000E+00 -0.00000000000E+00 -0.36222840616E+03  0.36222840617E+03  0.25500000000E-02 0.  1.
    5000001    1    1    2    0    0  0.14091403313E+03 -0.26034297665E+03 -0.98859018913E+01  0.33905451078E+03  0.16500000000E+03 0.  0.
   -5000001    1    1    2    0    0 -0.14091403313E+03  0.26034297665E+03 -0.34821829638E+02  0.34069457002E+03  0.16500000000E+03 0.  0.
<mgrwt>
<rscale>  0 0.67827725E+03</rscale>
<asrwt>0</asrwt>
<pdfrwt beam="1">  1        2 0.51746915E-01 0.67827725E+03</pdfrwt>
<pdfrwt beam="2">  1       -2 0.45360097E-01 0.67827725E+03</pdfrwt>
<totfact> 0.44882645E+02</totfact>
</mgrwt>
</event>
<event>
 4    1  0.1837449E-005  0.3752737E+03  0.7818608E-02  0.1052695E+00
         -2   -1    0    0    0  501 -0.00000000000E+00  0.00000000000E+00  0.96400145639E+02  0.96400145672E+02  0.25500000000E-02 0. -1.
          2   -1    0    0  501    0  0.00000000000E+00 -0.00000000000E+00 -0.36522333334E+03  0.36522333335E+03  0.25500000000E-02 0.  1.
    5000001    1    1    2    0    0  0.37404106914E+02  0.79656959768E+02 -0.15339994724E+03  0.24186947362E+03  0.16500000000E+03 0.  0.
   -5000001    1    1    2    0    0 -0.37404106914E+02 -0.79656959768E+02 -0.11542324046E+03  0.21975400541E+03  0.16500000000E+03 0.  0.
<mgrwt>
<rscale>  0 0.37527367E+03</rscale>
<asrwt>0</asrwt>
<pdfrwt beam="1">  1        2 0.52174761E-01 0.37527367E+03</pdfrwt>
<pdfrwt beam="2">  1       -2 0.13771450E-01 0.37527367E+03</pdfrwt>
<totfact> 0.37948719E+03</totfact>
</mgrwt>
</event>
<event>
 4    1  0.1837449E-005  0.4671967E+03  0.7818608E-02  0.1022714E+00
          2   -1    0    0  501    0  0.00000000000E+00  0.00000000000E+00  0.32701016306E+04  0.32701016306E+04  0.25500000000E-02 0.  1.
         -2   -1    0    0    0  501 -0.00000000000E+00 -0.00000000000E+00 -0.16687000189E+02  0.16687000384E+02  0.25500000000E-02 0. -1.
    5000001    1    1    2    0    0 -0.15676228131E+03 -0.50620080742E+02  0.17277738395E+04  0.17434346119E+04  0.16500000000E+03 0.  0.
   -5000001    1    1    2    0    0  0.15676228131E+03  0.50620080742E+02  0.15256407909E+04  0.15433540191E+04  0.16500000000E+03 0.  0.
<mgrwt>
<rscale>  0 0.46719669E+03</rscale>
<asrwt>0</asrwt>
<pdfrwt beam="1">  1        2 0.46715753E+00 0.46719669E+03</pdfrwt>
<pdfrwt beam="2">  1       -2 0.23838564E-02 0.46719669E+03</pdfrwt>
<totfact> 0.11505683E+03</totfact>
</mgrwt>
</event>
<event>
 4    1  0.1837449E-005  0.6087691E+03  0.7818608E-02  0.9887378E-01
          2   -1    0    0  501    0  0.00000000000E+00  0.00000000000E+00  0.64298862361E+03  0.64298862362E+03  0.25500000000E-02 0.  1.
         -2   -1    0    0    0  501 -0.00000000000E+00 -0.00000000000E+00 -0.14409267695E+03  0.14409267697E+03  0.25500000000E-02 0. -1.
    5000001    1    1    2    0    0  0.49049772169E+02 -0.24972133354E+03  0.21627472604E+03  0.37251359934E+03  0.16500000000E+03 0.  0.
   -5000001    1    1    2    0    0 -0.49049772169E+02  0.24972133354E+03  0.28262122063E+03  0.41456770125E+03  0.16500000000E+03 0.  0.
<mgrwt>
<rscale>  0 0.60876909E+03</rscale>
<asrwt>0</asrwt>
<pdfrwt beam="1">  1        2 0.91855517E-01 0.60876909E+03</pdfrwt>
<pdfrwt beam="2">  1       -2 0.20584668E-01 0.60876909E+03</pdfrwt>
<totfact> 0.10150993E+03</totfact>
</mgrwt>
</event>
<event>
 4    1  0.1837449E-005  0.5083711E+03  0.7818608E-02  0.1011617E+00
          2   -1    0    0  501    0  0.00000000000E+00  0.00000000000E+00  0.51615441484E+03  0.51615441485E+03  0.25500000000E-02 0.  1.
         -2   -1    0    0    0  501 -0.00000000000E+00 -0.00000000000E+00 -0.12517629433E+03  0.12517629436E+03  0.25500000000E-02 0. -1.
    5000001    1    1    2    0    0 -0.21340694459E+02  0.11531309985E+03  0.15530750762E+01  0.20243504706E+03  0.16500000000E+03 0.  0.
   -5000001    1    1    2    0    0  0.21340694459E+02 -0.11531309985E+03  0.38942504543E+03  0.43889566214E+03  0.16500000000E+03 0.  0.
<mgrwt>
<rscale>  0 0.50837111E+03</rscale>
<asrwt>0</asrwt>
<pdfrwt beam="1">  1        2 0.73736346E-01 0.50837111E+03</pdfrwt>
<pdfrwt beam="2">  1       -2 0.17882327E-01 0.50837111E+03</pdfrwt>
<totfact> 0.16734204E+03</totfact>
</mgrwt>
</event>
<event>
 4    1  0.1837449E-005  0.4608802E+03  0.7818608E-02  0.1024526E+00
         -2   -1    0    0    0  501 -0.00000000000E+00  0.00000000000E+00  0.13220178275E+04  0.13220178275E+04  0.25500000000E-02 0. -1.
          2   -1    0    0  501    0  0.00000000000E+00 -0.00000000000E+00 -0.40167863445E+02  0.40167863526E+02  0.25500000000E-02 0.  1.
    5000001    1    1    2    0    0 -0.14058612923E+03 -0.36348610411E+02  0.43632553584E+03  0.48855977570E+03  0.16500000000E+03 0.  0.
   -5000001    1    1    2    0    0  0.14058612923E+03  0.36348610411E+02  0.84552442818E+03  0.87362591529E+03  0.16500000000E+03 0.  0.
<mgrwt>
<rscale>  0 0.46088016E+03</rscale>
<asrwt>0</asrwt>
<pdfrwt beam="1">  1        2 0.57382651E-02 0.46088016E+03</pdfrwt>
<pdfrwt beam="2">  1       -2 0.18885973E+00 0.46088016E+03</pdfrwt>
<totfact> 0.22228207E+02</totfact>
</mgrwt>
</event>
<event>
 4    1  0.1837449E-005  0.4536392E+03  0.7818608E-02  0.1026642E+00
         -2   -1    0    0    0  501 -0.00000000000E+00  0.00000000000E+00  0.14874675459E+02  0.14874675677E+02  0.25500000000E-02 0. -1.
          2   -1    0    0  501    0  0.00000000000E+00 -0.00000000000E+00 -0.34587062568E+04  0.34587062568E+04  0.25500000000E-02 0.  1.
    5000001    1    1    2    0    0 -0.11240858377E+03  0.82288068998E+02 -0.11905785229E+04  0.12100038162E+04  0.16500000000E+03 0.  0.
   -5000001    1    1    2    0    0  0.11240858377E+03 -0.82288068998E+02 -0.22532530584E+04  0.22635771163E+04  0.16500000000E+03 0.  0.
<mgrwt>
<rscale>  0 0.45363921E+03</rscale>
<asrwt>0</asrwt>
<pdfrwt beam="1">  1        2 0.49410038E+00 0.45363921E+03</pdfrwt>
<pdfrwt beam="2">  1       -2 0.21249559E-02 0.45363921E+03</pdfrwt>
<totfact> 0.10669496E+03</totfact>
</mgrwt>
</event>
<event>
 4    1  0.1837449E-005  0.6233185E+03  0.7818608E-02  0.9858175E-01
          2   -1    0    0  501    0  0.00000000000E+00  0.00000000000E+00  0.10490211103E+04  0.10490211103E+04  0.25500000000E-02 0.  1.
         -2   -1    0    0    0  501 -0.00000000000E+00 -0.00000000000E+00 -0.92592514366E+02  0.92592514402E+02  0.25500000000E-02 0. -1.
    5000001    1    1    2    0    0  0.75674447647E+01  0.26428690980E+03  0.48057782292E+03  0.57278694188E+03  0.16500000000E+03 0.  0.
   -5000001    1    1    2    0    0 -0.75674447647E+01 -0.26428690980E+03  0.47585077303E+03  0.56882668283E+03  0.16500000000E+03 0.  0.
<mgrwt>
<rscale>  0 0.62331855E+03</rscale>
<asrwt>0</asrwt>
<pdfrwt beam="1">  1        2 0.14986016E+00 0.62331855E+03</pdfrwt>
<pdfrwt beam="2">  1       -2 0.13227502E-01 0.62331855E+03</pdfrwt>
<totfact> 0.11406984E+03</totfact>
</mgrwt>
</event>
<event>
 4    1  0.1837449E-005  0.3539698E+03  0.7818608E-02  0.1060997E+00
          2   -1    0    0  501    0  0.00000000000E+00  0.00000000000E+00  0.16088771428E+04  0.16088771428E+04  0.25500000000E-02 0.  1.
         -2   -1    0    0    0  501 -0.00000000000E+00 -0.00000000000E+00 -0.19469260827E+02  0.19469260994E+02  0.25500000000E-02 0. -1.
    5000001    1    1    2    0    0 -0.77172859272E+01 -0.48627634680E+02  0.60646210926E+03  0.63043278256E+03  0.16500000000E+03 0.  0.
   -5000001    1    1    2    0    0  0.77172859272E+01  0.48627634680E+02  0.98294577269E+03  0.99791362121E+03  0.16500000000E+03 0.  0.
<mgrwt>
<rscale>  0 0.35396977E+03</rscale>
<asrwt>0</asrwt>
<pdfrwt beam="1">  1        2 0.22983964E+00 0.35396977E+03</pdfrwt>
<pdfrwt beam="2">  1       -2 0.27813224E-02 0.35396977E+03</pdfrwt>
<totfact> 0.65436215E+03</totfact>
</mgrwt>
</event>
<event>
 4    1  0.1837449E-005  0.4369723E+03  0.7818608E-02  0.1031680E+00
          2   -1    0    0  501    0  0.00000000000E+00  0.00000000000E+00  0.23745032348E+03  0.23745032349E+03  0.25500000000E-02 0.  1.
         -2   -1    0    0    0  501 -0.00000000000E+00 -0.00000000000E+00 -0.20103652256E+03  0.20103652258E+03  0.25500000000E-02 0. -1.
    5000001    1    1    2    0    0  0.14093986140E+03 -0.13892130918E+02  0.39591596447E+02  0.22101929857E+03  0.16500000000E+03 0.  0.
   -5000001    1    1    2    0    0 -0.14093986140E+03  0.13892130918E+02 -0.31777955333E+01  0.21746754750E+03  0.16500000000E+03 0.  0.
<mgrwt>
<rscale>  0 0.43697225E+03</rscale>
<asrwt>0</asrwt>
<pdfrwt beam="1">  1        2 0.33921475E-01 0.43697225E+03</pdfrwt>
<pdfrwt beam="2">  1       -2 0.28719503E-01 0.43697225E+03</pdfrwt>
<totfact> 0.17096161E+03</totfact>
</mgrwt>
</event>
<event>
 4    1  0.1837449E-005  0.4369666E+03  0.7818608E-02  0.1031682E+00
         -2   -1    0    0    0  501 -0.00000000000E+00  0.00000000000E+00  0.47373726211E+02  0.47373726280E+02  0.25500000000E-02 0. -1.
          2   -1    0    0  501    0  0.00000000000E+00 -0.00000000000E+00 -0.10076249915E+04  0.10076249916E+04  0.25500000000E-02 0.  1.
    5000001    1    1    2    0    0  0.11334111172E+03  0.35995949332E+02 -0.67279221910E+03  0.70286292125E+03  0.16500000000E+03 0.  0.
   -5000001    1    1    2    0    0 -0.11334111172E+03 -0.35995949332E+02 -0.28745904623E+03  0.35213579658E+03  0.16500000000E+03 0.  0.
<mgrwt>
<rscale>  0 0.43696659E+03</rscale>
<asrwt>0</asrwt>
<pdfrwt beam="1">  1        2 0.14394641E+00 0.43696659E+03</pdfrwt>
<pdfrwt beam="2">  1       -2 0.67676758E-02 0.43696659E+03</pdfrwt>
<totfact> 0.35581215E+03</totfact>
</mgrwt>
</event>
<event>
 4    1  0.1837449E-005  0.6935336E+03  0.7818608E-02  0.9728355E-01
          2   -1    0    0  501    0  0.00000000000E+00  0.00000000000E+00  0.20830381387E+04  0.20830381387E+04  0.25500000000E-02 0.  1.
         -2   -1    0    0    0  501 -0.00000000000E+00 -0.00000000000E+00 -0.57726842741E+02  0.57726842797E+02  0.25500000000E-02 0. -1.
    5000001    1    1    2    0    0 -0.23504281711E+03 -0.19258832527E+03  0.10935512508E+04  0.11469153094E+04  0.16500000000E+03 0.  0.
   -5000001    1    1    2    0    0  0.23504281711E+03  0.19258832527E+03  0.93176004522E+03  0.99384967211E+03  0.16500000000E+03 0.  0.
<mgrwt>
<rscale>  0 0.69353360E+03</rscale>
<asrwt>0</asrwt>
<pdfrwt beam="1">  1        2 0.29757682E+00 0.69353360E+03</pdfrwt>
<pdfrwt beam="2">  1       -2 0.82466935E-02 0.69353360E+03</pdfrwt>
<totfact> 0.69859131E+02</totfact>
</mgrwt>
</event>
<event>
 4    1  0.1837449E-005  0.7470507E+03  0.7818608E-02  0.9639989E-01
         -2   -1    0    0    0  501 -0.00000000000E+00  0.00000000000E+00  0.42563553016E+02  0.42563553092E+02  0.25500000000E-02 0. -1.
          2   -1    0    0  501    0  0.00000000000E+00 -0.00000000000E+00 -0.32779493358E+04  0.32779493358E+04  0.25500000000E-02 0.  1.
    5000001    1    1    2    0    0 -0.25094314547E+03  0.35211960386E+02 -0.64302955900E+03  0.71058029677E+03  0.16500000000E+03 0.  0.
   -5000001    1    1    2    0    0  0.25094314547E+03 -0.35211960386E+02 -0.25923562238E+04  0.26099325921E+04  0.16500000000E+03 0.  0.
<mgrwt>
<rscale>  0 0.74705066E+03</rscale>
<asrwt>0</asrwt>
<pdfrwt beam="1">  1        2 0.46827832E+00 0.74705066E+03</pdfrwt>
<pdfrwt beam="2">  1       -2 0.60805097E-02 0.74705066E+03</pdfrwt>
<totfact> 0.26272774E+02</totfact>
</mgrwt>
</event>
<event>
 4    1  0.1837449E-005  0.5821544E+03  0.7818608E-02  0.9943138E-01
         -2   -1    0    0    0  501 -0.00000000000E+00  0.00000000000E+00  0.14140578064E+02  0.14140578294E+02  0.25500000000E-02 0. -1.
          2   -1    0    0  501    0  0.00000000000E+00 -0.00000000000E+00 -0.59916887160E+04  0.59916887160E+04  0.25500000000E-02 0.  1.
    5000001    1    1    2    0    0  0.13882836520E+03 -0.18084193354E+03 -0.37555256014E+04  0.37660555841E+04  0.16500000000E+03 0.  0.
   -5000001    1    1    2    0    0 -0.13882836520E+03  0.18084193354E+03 -0.22220225365E+04  0.22397737102E+04  0.16500000000E+03 0.  0.
<mgrwt>
<rscale>  0 0.58215442E+03</rscale>
<asrwt>0</asrwt>
<pdfrwt beam="1">  1        2 0.85595391E+00 0.58215442E+03</pdfrwt>
<pdfrwt beam="2">  1       -2 0.20200864E-02 0.58215442E+03</pdfrwt>
<totfact> 0.48686863E+00</totfact>
</mgrwt>
</event>
<event>
 4    1  0.1837449E-005  0.1275855E+04  0.7818608E-02  0.9048935E-01
         -2   -1    0    0    0  501 -0.00000000000E+00  0.00000000000E+00  0.26157634334E+03  0.26157634335E+03  0.25500000000E-02 0. -1.
          2   -1    0    0  501    0  0.00000000000E+00 -0.00000000000E+00 -0.15557655630E+04  0.15557655630E+04  0.25500000000E-02 0.  1.
    5000001    1    1    2    0    0  0.18241800011E+03 -0.56694333482E+03 -0.87242813463E+03  0.10691384016E+04  0.16500000000E+03 0.  0.
   -5000001    1    1    2    0    0 -0.18241800011E+03  0.56694333482E+03 -0.42176108500E+03  0.74820350473E+03  0.16500000000E+03 0.  0.
<mgrwt>
<rscale>  0 0.12758550E+04</rscale>
<asrwt>0</asrwt>
<pdfrwt beam="1">  1        2 0.22225222E+00 0.12758550E+04</pdfrwt>
<pdfrwt beam="2">  1       -2 0.37368050E-01 0.12758550E+04</pdfrwt>
<totfact> 0.90505892E+01</totfact>
</mgrwt>
</event>
<event>
 4    1  0.1837449E-005  0.5176603E+03  0.7818608E-02  0.1009269E+00
          2   -1    0    0  501    0  0.00000000000E+00  0.00000000000E+00  0.10756951432E+04  0.10756951432E+04  0.25500000000E-02 0.  1.
         -2   -1    0    0    0  501 -0.00000000000E+00 -0.00000000000E+00 -0.62278845304E+02  0.62278845356E+02  0.25500000000E-02 0. -1.
    5000001    1    1    2    0    0 -0.65044569013E+02 -0.18510028243E+03  0.42820870994E+03  0.49907976295E+03  0.16500000000E+03 0.  0.
   -5000001    1    1    2    0    0  0.65044569013E+02  0.18510028243E+03  0.58520758792E+03  0.63889422558E+03  0.16500000000E+03 0.  0.
<mgrwt>
<rscale>  0 0.51766032E+03</rscale>
<asrwt>0</asrwt>
<pdfrwt beam="1">  1        2 0.15367074E+00 0.51766032E+03</pdfrwt>
<pdfrwt beam="2">  1       -2 0.88969777E-02 0.51766032E+03</pdfrwt>
<totfact> 0.21040893E+03</totfact>
</mgrwt>
</event>
<event>
 4    1  0.1837449E-005  0.4785598E+03  0.7818608E-02  0.1019532E+00
          2   -1    0    0  501    0  0.00000000000E+00  0.00000000000E+00  0.59127450922E+03  0.59127450922E+03  0.25500000000E-02 0.  1.
         -2   -1    0    0    0  501 -0.00000000000E+00 -0.00000000000E+00 -0.96832969061E+02  0.96832969094E+02  0.25500000000E-02 0. -1.
    5000001    1    1    2    0    0  0.79628665198E+02  0.15300209213E+03  0.27125954599E+03  0.36132686837E+03  0.16500000000E+03 0.  0.
   -5000001    1    1    2    0    0 -0.79628665198E+02 -0.15300209213E+03  0.22318199416E+03  0.32678060994E+03  0.16500000000E+03 0.  0.
<mgrwt>
<rscale>  0 0.47855978E+03</rscale>
<asrwt>0</asrwt>
<pdfrwt beam="1">  1        2 0.84467785E-01 0.47855978E+03</pdfrwt>
<pdfrwt beam="2">  1       -2 0.13833282E-01 0.47855978E+03</pdfrwt>
<totfact> 0.22055208E+03</totfact>
</mgrwt>
</event>
<event>
 4    1  0.1837449E-005  0.4519327E+03  0.7818608E-02  0.1027147E+00
         -2   -1    0    0    0  501 -0.00000000000E+00  0.00000000000E+00  0.62042301693E+02  0.62042301746E+02  0.25500000000E-02 0.  1.
          2   -1    0    0  501    0  0.00000000000E+00 -0.00000000000E+00 -0.82299961958E+03  0.82299961959E+03  0.25500000000E-02 0. -1.
    5000001    1    1    2    0    0  0.13154520118E+03 -0.61531479328E+02 -0.27786551303E+03  0.35429437793E+03  0.16500000000E+03 0.  0.
   -5000001    1    1    2    0    0 -0.13154520118E+03  0.61531479328E+02 -0.48309180486E+03  0.53074754340E+03  0.16500000000E+03 0.  0.
<mgrwt>
<rscale>  0 0.45193270E+03</rscale>
<asrwt>0</asrwt>
<pdfrwt beam="1">  1        2 0.11757137E+00 0.45193270E+03</pdfrwt>
<pdfrwt beam="2">  1       -2 0.88631865E-02 0.45193270E+03</pdfrwt>
<totfact> 0.30429824E+03</totfact>
</mgrwt>
</event>
<event>
 4    1  0.1837449E-005  0.4973109E+03  0.7818608E-02  0.1014483E+00
          2   -1    0    0  501    0  0.00000000000E+00  0.00000000000E+00  0.17127560989E+03  0.17127560991E+03  0.25500000000E-02 0.  1.
         -2   -1    0    0    0  501 -0.00000000000E+00 -0.00000000000E+00 -0.36099437888E+03  0.36099437889E+03  0.25500000000E-02 0. -1.
    5000001    1    1    2    0    0 -0.12939754220E+03 -0.90633203683E+02 -0.19997986358E+03  0.30360343768E+03  0.16500000000E+03 0.  0.
   -5000001    1    1    2    0    0  0.12939754220E+03  0.90633203683E+02  0.10261094594E+02  0.22866655111E+03  0.16500000000E+03 0.  0.
<mgrwt>
<rscale>  0 0.49731090E+03</rscale>
<asrwt>0</asrwt>
<pdfrwt beam="1">  1        2 0.24467945E-01 0.49731090E+03</pdfrwt>
<pdfrwt beam="2">  1       -2 0.51570625E-01 0.49731090E+03</pdfrwt>
<totfact> 0.80135456E+02</totfact>
</mgrwt>
</event>
<event>
 4    1  0.1837449E-005  0.7585565E+03  0.7818608E-02  0.9622021E-01
         -2   -1    0    0    0  501 -0.00000000000E+00  0.00000000000E+00  0.20770028142E+03  0.20770028143E+03  0.25500000000E-02 0. -1.
          2   -1    0    0  501    0  0.00000000000E+00 -0.00000000000E+00 -0.69259414628E+03  0.69259414629E+03  0.25500000000E-02 0.  1.
    5000001    1    1    2    0    0 -0.28290497100E+02 -0.33229381627E+03 -0.32972267173E+03  0.49715347007E+03  0.16500000000E+03 0.  0.
   -5000001    1    1    2    0    0  0.28290497100E+02  0.33229381627E+03 -0.15517119314E+03  0.40314095765E+03  0.16500000000E+03 0.  0.
<mgrwt>
<rscale>  0 0.75855652E+03</rscale>
<asrwt>0</asrwt>
<pdfrwt beam="1">  1        2 0.98942020E-01 0.75855652E+03</pdfrwt>
<pdfrwt beam="2">  1       -2 0.29671469E-01 0.75855652E+03</pdfrwt>
<totfact> 0.47894901E+02</totfact>
</mgrwt>
</event>
<event>
 4    1  0.1837449E-005  0.4292468E+03  0.7818608E-02  0.1034098E+00
         -2   -1    0    0    0  501 -0.00000000000E+00  0.00000000000E+00  0.23895650062E+02  0.23895650198E+02  0.25500000000E-02 0. -1.
          2   -1    0    0  501    0  0.00000000000E+00 -0.00000000000E+00 -0.19276813032E+04  0.19276813032E+04  0.25500000000E-02 0.  1.
    5000001    1    1    2    0    0 -0.16943038388E+02  0.13619059548E+03 -0.96009312947E+03  0.98378796603E+03  0.16500000000E+03 0.  0.
   -5000001    1    1    2    0    0  0.16943038388E+02 -0.13619059548E+03 -0.94369252365E+03  0.96778898735E+03  0.16500000000E+03 0.  0.
<mgrwt>
<rscale>  0 0.42924677E+03</rscale>
<asrwt>0</asrwt>
<pdfrwt beam="1">  1        2 0.27538294E+00 0.42924677E+03</pdfrwt>
<pdfrwt beam="2">  1       -2 0.34136655E-02 0.42924677E+03</pdfrwt>
<totfact> 0.33341948E+03</totfact>
</mgrwt>
</event>
<event>
 4    1  0.1837449E-005  0.7916381E+03  0.7818608E-02  0.9572200E-01
          2   -1    0    0  501    0  0.00000000000E+00  0.00000000000E+00  0.22476866638E+04  0.22476866638E+04  0.25500000000E-02 0.  1.
         -2   -1    0    0    0  501 -0.00000000000E+00 -0.00000000000E+00 -0.69703990163E+02  0.69703990210E+02  0.25500000000E-02 0. -1.
    5000001    1    1    2    0    0 -0.28383031591E+03  0.11286879759E+03  0.53242237193E+03  0.63560805205E+03  0.16500000000E+03 0.  0.
   -5000001    1    1    2    0    0  0.28383031591E+03 -0.11286879759E+03  0.16455603017E+04  0.16817826020E+04  0.16500000000E+03 0.  0.
<mgrwt>
<rscale>  0 0.79163812E+03</rscale>
<asrwt>0</asrwt>
<pdfrwt beam="1">  1        2 0.32109807E+00 0.79163812E+03</pdfrwt>
<pdfrwt beam="2">  1       -2 0.99577135E-02 0.79163812E+03</pdfrwt>
<totfact> 0.42231650E+02</totfact>
</mgrwt>
</event>
<event>
 4    1  0.1837449E-005  0.3574643E+03  0.7818608E-02  0.1059592E+00
          2   -1    0    0  501    0  0.00000000000E+00  0.00000000000E+00  0.37151448202E+03  0.37151448203E+03  0.25500000000E-02 0.  1.
         -2   -1    0    0    0  501 -0.00000000000E+00 -0.00000000000E+00 -0.85986393005E+02  0.85986393043E+02  0.25500000000E-02 0. -1.
    5000001    1    1    2    0    0 -0.94603496292E+01 -0.58219774143E+02  0.18785311903E+03  0.25689070564E+03  0.16500000000E+03 0.  0.
   -5000001    1    1    2    0    0  0.94603496292E+01  0.58219774143E+02  0.97674969986E+02  0.20061016943E+03  0.16500000000E+03 0.  0.
<mgrwt>
<rscale>  0 0.35746435E+03</rscale>
<asrwt>0</asrwt>
<pdfrwt beam="1">  1        2 0.53073497E-01 0.35746435E+03</pdfrwt>
<pdfrwt beam="2">  1       -2 0.12283770E-01 0.35746435E+03</pdfrwt>
<totfact> 0.44878477E+03</totfact>
</mgrwt>
</event>
<event>
 4    1  0.1837449E-005  0.7073059E+03  0.7818608E-02  0.9704819E-01
          2   -1    0    0  501    0  0.00000000000E+00  0.00000000000E+00  0.17360863072E+04  0.17360863072E+04  0.25500000000E-02 0.  1.
         -2   -1    0    0    0  501 -0.00000000000E+00 -0.00000000000E+00 -0.72041585419E+02  0.72041585464E+02  0.25500000000E-02 0. -1.
    5000001    1    1    2    0    0 -0.29824711640E+03  0.40315944898E+01  0.10728880169E+04  0.11257358896E+04  0.16500000000E+03 0.  0.
   -5000001    1    1    2    0    0  0.29824711640E+03 -0.40315944898E+01  0.59115670486E+03  0.68239200310E+03  0.16500000000E+03 0.  0.
<mgrwt>
<rscale>  0 0.70730590E+03</rscale>
<asrwt>0</asrwt>
<pdfrwt beam="1">  1        2 0.24801233E+00 0.70730590E+03</pdfrwt>
<pdfrwt beam="2">  1       -2 0.10291655E-01 0.70730590E+03</pdfrwt>
<totfact> 0.73120334E+02</totfact>
</mgrwt>
</event>
<event>
 4    1  0.1837449E-005  0.7274122E+03  0.7818608E-02  0.9671469E-01
         -2   -1    0    0    0  501 -0.00000000000E+00  0.00000000000E+00  0.16459669612E+03  0.16459669613E+03  0.25500000000E-02 0. -1.
          2   -1    0    0  501    0  0.00000000000E+00 -0.00000000000E+00 -0.80367418691E+03  0.80367418691E+03  0.25500000000E-02 0.  1.
    5000001    1    1    2    0    0  0.27931565805E+03  0.11595816245E+03 -0.16434175600E+03  0.38170242996E+03  0.16500000000E+03 0.  0.
   -5000001    1    1    2    0    0 -0.27931565805E+03 -0.11595816245E+03 -0.47473573480E+03  0.58656845309E+03  0.16500000000E+03 0.  0.
<mgrwt>
<rscale>  0 0.72741217E+03</rscale>
<asrwt>0</asrwt>
<pdfrwt beam="1">  1        2 0.11481060E+00 0.72741217E+03</pdfrwt>
<pdfrwt beam="2">  1       -2 0.23513814E-01 0.72741217E+03</pdfrwt>
<totfact> 0.60693062E+02</totfact>
</mgrwt>
</event>
<event>
 4    1  0.1837449E-005  0.6012212E+03  0.7818608E-02  0.9902876E-01
         -2   -1    0    0    0  501 -0.00000000000E+00  0.00000000000E+00  0.90610513265E+03  0.90610513266E+03  0.25500000000E-02 0. -1.
          2   -1    0    0  501    0  0.00000000000E+00 -0.00000000000E+00 -0.99730971561E+02  0.99730971593E+02  0.25500000000E-02 0.  1.
    5000001    1    1    2    0    0 -0.18122381150E+03  0.14092186062E+03  0.57413263387E+03  0.63996431301E+03  0.16500000000E+03 0.  0.
   -5000001    1    1    2    0    0  0.18122381150E+03 -0.14092186062E+03  0.23224152722E+03  0.36587179124E+03  0.16500000000E+03 0.  0.
<mgrwt>
<rscale>  0 0.60122124E+03</rscale>
<asrwt>0</asrwt>
<pdfrwt beam="1">  1        2 0.14247282E-01 0.60122124E+03</pdfrwt>
<pdfrwt beam="2">  1       -2 0.12944359E+00 0.60122124E+03</pdfrwt>
<totfact> 0.19010224E+02</totfact>
</mgrwt>
</event>
<event>
 4    1  0.1837449E-005  0.3449709E+03  0.7818608E-02  0.1064698E+00
         -2   -1    0    0    0  501 -0.00000000000E+00  0.00000000000E+00  0.76979924871E+02  0.76979924913E+02  0.25500000000E-02 0. -1.
          2   -1    0    0  501    0  0.00000000000E+00 -0.00000000000E+00 -0.38648038509E+03  0.38648038510E+03  0.25500000000E-02 0.  1.
    5000001    1    1    2    0    0 -0.14711949826E+02 -0.40525937518E+02 -0.18945870472E+03  0.25490859905E+03  0.16500000000E+03 0.  0.
   -5000001    1    1    2    0    0  0.14711949826E+02  0.40525937518E+02 -0.12004175551E+03  0.20855171096E+03  0.16500000000E+03 0.  0.
<mgrwt>
<rscale>  0 0.34497090E+03</rscale>
<asrwt>0</asrwt>
<pdfrwt beam="1">  1        2 0.55211482E-01 0.34497090E+03</pdfrwt>
<pdfrwt beam="2">  1       -2 0.10997132E-01 0.34497090E+03</pdfrwt>
<totfact> 0.51383536E+03</totfact>
</mgrwt>
</event>
<event>
 4    1  0.1837449E-005  0.4108909E+03  0.7818608E-02  0.1040072E+00
         -2   -1    0    0    0  501 -0.00000000000E+00  0.00000000000E+00  0.48390670751E+03  0.48390670751E+03  0.25500000000E-02 0. -1.
          2   -1    0    0  501    0  0.00000000000E+00 -0.00000000000E+00 -0.87223090359E+02  0.87223090396E+02  0.25500000000E-02 0.  1.
    5000001    1    1    2    0    0  0.52106707577E+02 -0.30886055919E+02  0.50494932367E+02  0.18287644906E+03  0.16500000000E+03 0.  0.
   -5000001    1    1    2    0    0 -0.52106707577E+02  0.30886055919E+02  0.34618868478E+03  0.38825334885E+03  0.16500000000E+03 0.  0.
<mgrwt>
<rscale>  0 0.41089093E+03</rscale>
<asrwt>0</asrwt>
<pdfrwt beam="1">  1        2 0.12460441E-01 0.41089093E+03</pdfrwt>
<pdfrwt beam="2">  1       -2 0.69129530E-01 0.41089093E+03</pdfrwt>
<totfact> 0.96354933E+02</totfact>
</mgrwt>
</event>
<event>
 4    1  0.1837449E-005  0.4350958E+03  0.7818608E-02  0.1032262E+00
          2   -1    0    0  501    0  0.00000000000E+00  0.00000000000E+00  0.27286488989E+04  0.27286488989E+04  0.25500000000E-02 0.  1.
         -2   -1    0    0    0  501 -0.00000000000E+00 -0.00000000000E+00 -0.17344512517E+02  0.17344512705E+02  0.25500000000E-02 0. -1.
    5000001    1    1    2    0    0 -0.87775759810E+02  0.93310186103E+02  0.97223675080E+03  0.99442479578E+03  0.16500000000E+03 0.  0.
   -5000001    1    1    2    0    0  0.87775759810E+02 -0.93310186103E+02  0.17390676356E+04  0.17515686158E+04  0.16500000000E+03 0.  0.
<mgrwt>
<rscale>  0 0.43509578E+03</rscale>
<asrwt>0</asrwt>
<pdfrwt beam="1">  1        2 0.38980644E+00 0.43509578E+03</pdfrwt>
<pdfrwt beam="2">  1       -2 0.24777910E-02 0.43509578E+03</pdfrwt>
<totfact> 0.21347611E+03</totfact>
</mgrwt>
</event>
<event>
 4    1  0.1837449E-005  0.4360264E+03  0.7818608E-02  0.1031973E+00
          2   -1    0    0  501    0  0.00000000000E+00  0.00000000000E+00  0.22625140961E+03  0.22625140962E+03  0.25500000000E-02 0.  1.
         -2   -1    0    0    0  501 -0.00000000000E+00 -0.00000000000E+00 -0.21007497554E+03  0.21007497555E+03  0.25500000000E-02 0. -1.
    5000001    1    1    2    0    0  0.13440887750E+03  0.42130956480E+02  0.29643590758E+02  0.21896233995E+03  0.16500000000E+03 0.  0.
   -5000001    1    1    2    0    0 -0.13440887750E+03 -0.42130956480E+02 -0.13467156687E+02  0.21736404522E+03  0.16500000000E+03 0.  0.
<mgrwt>
<rscale>  0 0.43602642E+03</rscale>
<asrwt>0</asrwt>
<pdfrwt beam="1">  1        2 0.32321630E-01 0.43602642E+03</pdfrwt>
<pdfrwt beam="2">  1       -2 0.30010711E-01 0.43602642E+03</pdfrwt>
<totfact> 0.16640612E+03</totfact>
</mgrwt>
</event>
<event>
 4    1  0.1837449E-005  0.3609023E+03  0.7818608E-02  0.1058227E+00
          2   -1    0    0  501    0  0.00000000000E+00  0.00000000000E+00  0.83068083756E+03  0.83068083756E+03  0.25500000000E-02 0.  1.
         -2   -1    0    0    0  501 -0.00000000000E+00 -0.00000000000E+00 -0.39199913960E+02  0.39199914043E+02  0.25500000000E-02 0. -1.
    5000001    1    1    2    0    0 -0.19367289130E+02 -0.68912887066E+02  0.36051885300E+03  0.40289318841E+03  0.16500000000E+03 0.  0.
   -5000001    1    1    2    0    0  0.19367289130E+02  0.68912887066E+02  0.43096207059E+03  0.46698756320E+03  0.16500000000E+03 0.  0.
<mgrwt>
<rscale>  0 0.36090230E+03</rscale>
<asrwt>0</asrwt>
<pdfrwt beam="1">  1        2 0.11866869E+00 0.36090230E+03</pdfrwt>
<pdfrwt beam="2">  1       -2 0.55999879E-02 0.36090230E+03</pdfrwt>
<totfact> 0.61520290E+03</totfact>
</mgrwt>
</event>
<event>
 4    1  0.1837449E-005  0.4665801E+03  0.7818608E-02  0.1022890E+00
          2   -1    0    0  501    0  0.00000000000E+00  0.00000000000E+00  0.24734665915E+04  0.24734665915E+04  0.25500000000E-02 0.  1.
         -2   -1    0    0    0  501 -0.00000000000E+00 -0.00000000000E+00 -0.22003224970E+02  0.22003225118E+02  0.25500000000E-02 0. -1.
    5000001    1    1    2    0    0 -0.60277230506E+02 -0.14970434001E+03  0.10440025202E+04  0.10692104546E+04  0.16500000000E+03 0.  0.
   -5000001    1    1    2    0    0  0.60277230506E+02  0.14970434001E+03  0.14074608463E+04  0.14262593621E+04  0.16500000000E+03 0.  0.
<mgrwt>
<rscale>  0 0.46658008E+03</rscale>
<asrwt>0</asrwt>
<pdfrwt beam="1">  1        2 0.35335258E+00 0.46658008E+03</pdfrwt>
<pdfrwt beam="2">  1       -2 0.31433160E-02 0.46658008E+03</pdfrwt>
<totfact> 0.20127421E+03</totfact>
</mgrwt>
</event>
<event>
 4    1  0.1837449E-005  0.4961873E+03  0.7818608E-02  0.1014779E+00
          2   -1    0    0  501    0  0.00000000000E+00  0.00000000000E+00  0.78994013375E+02  0.78994013416E+02  0.25500000000E-02 0.  1.
         -2   -1    0    0    0  501 -0.00000000000E+00 -0.00000000000E+00 -0.77917873340E+03  0.77917873340E+03  0.25500000000E-02 0. -1.
    5000001    1    1    2    0    0 -0.16296337020E+03 -0.83365245526E+02 -0.30060740129E+03  0.38871150472E+03  0.16500000000E+03 0.  0.
   -5000001    1    1    2    0    0  0.16296337020E+03  0.83365245526E+02 -0.39957731873E+03  0.46946124210E+03  0.16500000000E+03 0.  0.
<mgrwt>
<rscale>  0 0.49618728E+03</rscale>
<asrwt>0</asrwt>
<pdfrwt beam="1">  1        2 0.11284860E-01 0.49618728E+03</pdfrwt>
<pdfrwt beam="2">  1       -2 0.11131124E+00 0.49618728E+03</pdfrwt>
<totfact> 0.36829647E+02</totfact>
</mgrwt>
</event>
<event>
 4    1  0.1837449E-005  0.4899000E+03  0.7818608E-02  0.1016449E+00
         -2   -1    0    0    0  501 -0.00000000000E+00  0.00000000000E+00  0.31492249802E+03  0.31492249803E+03  0.25500000000E-02 0. -1.
          2   -1    0    0  501    0  0.00000000000E+00 -0.00000000000E+00 -0.19052462889E+03  0.19052462891E+03  0.25500000000E-02 0.  1.
    5000001    1    1    2    0    0 -0.13745414119E+03  0.11405167264E+03  0.31696063419E+02  0.24521636446E+03  0.16500000000E+03 0.  0.
   -5000001    1    1    2    0    0  0.13745414119E+03 -0.11405167264E+03  0.92701805706E+02  0.26023076248E+03  0.16500000000E+03 0.  0.
<mgrwt>
<rscale>  0 0.48989996E+03</rscale>
<asrwt>0</asrwt>
<pdfrwt beam="1">  1        2 0.27217804E-01 0.48989996E+03</pdfrwt>
<pdfrwt beam="2">  1       -2 0.44988928E-01 0.48989996E+03</pdfrwt>
<totfact> 0.93367926E+02</totfact>
</mgrwt>
</event>
<event>
 4    1  0.1837449E-005  0.5038799E+03  0.7818608E-02  0.1012771E+00
         -2   -1    0    0    0  501 -0.00000000000E+00  0.00000000000E+00  0.28709712598E+02  0.28709712711E+02  0.25500000000E-02 0.  1.
          2   -1    0    0  501    0  0.00000000000E+00 -0.00000000000E+00 -0.22108798753E+04  0.22108798753E+04  0.25500000000E-02 0. -1.
    5000001    1    1    2    0    0 -0.77236215992E+02  0.13227162095E+03 -0.15936989419E+04  0.16095224547E+04  0.16500000000E+03 0.  0.
   -5000001    1    1    2    0    0  0.77236215992E+02 -0.13227162095E+03 -0.58847122079E+03  0.63006713331E+03  0.16500000000E+03 0.  0.
<mgrwt>
<rscale>  0 0.50387985E+03</rscale>
<asrwt>0</asrwt>
<pdfrwt beam="1">  1        2 0.31583987E+00 0.50387985E+03</pdfrwt>
<pdfrwt beam="2">  1       -2 0.41013889E-02 0.50387985E+03</pdfrwt>
<totfact> 0.18167765E+03</totfact>
</mgrwt>
</event>
<event>
 4    1  0.1837449E-005  0.7748615E+03  0.7818608E-02  0.9597134E-01
         -2   -1    0    0    0  501 -0.00000000000E+00  0.00000000000E+00  0.23501277858E+03  0.23501277859E+03  0.25500000000E-02 0. -1.
          2   -1    0    0  501    0  0.00000000000E+00 -0.00000000000E+00 -0.63869974953E+03  0.63869974954E+03  0.25500000000E-02 0.  1.
    5000001    1    1    2    0    0 -0.20245435438E+03  0.28247647571E+03 -0.15021004959E+03  0.41299973842E+03  0.16500000000E+03 0.  0.
   -5000001    1    1    2    0    0  0.20245435438E+03 -0.28247647571E+03 -0.25347692136E+03  0.46071278971E+03  0.16500000000E+03 0.  0.
<mgrwt>
<rscale>  0 0.77486154E+03</rscale>
<asrwt>0</asrwt>
<pdfrwt beam="1">  1        2 0.91242820E-01 0.77486154E+03</pdfrwt>
<pdfrwt beam="2">  1       -2 0.33573255E-01 0.77486154E+03</pdfrwt>
<totfact> 0.41924901E+02</totfact>
</mgrwt>
</event>
<event>
 4    1  0.1837449E-005  0.8989458E+03  0.7818608E-02  0.9426900E-01
          2   -1    0    0  501    0  0.00000000000E+00  0.00000000000E+00  0.11218909718E+04  0.11218909718E+04  0.25500000000E-02 0. -1.
         -2   -1    0    0    0  501 -0.00000000000E+00 -0.00000000000E+00 -0.18007622569E+03  0.18007622570E+03  0.25500000000E-02 0.  1.
    5000001    1    1    2    0    0 -0.25877051515E+03 -0.26948055062E+03  0.74271065897E+03  0.84760018264E+03  0.16500000000E+03 0.  0.
   -5000001    1    1    2    0    0  0.25877051515E+03  0.26948055062E+03  0.19910408713E+03  0.45436701485E+03  0.16500000000E+03 0.  0.
<mgrwt>
<rscale>  0 0.89894581E+03</rscale>
<asrwt>0</asrwt>
<pdfrwt beam="1">  1        2 0.16027014E+00 0.89894581E+03</pdfrwt>
<pdfrwt beam="2">  1       -2 0.25725175E-01 0.89894581E+03</pdfrwt>
<totfact> 0.32268838E+02</totfact>
</mgrwt>
</event>
<event>
 4    1  0.1837449E-005  0.4848868E+03  0.7818608E-02  0.1017801E+00
          2   -1    0    0  501    0  0.00000000000E+00  0.00000000000E+00  0.10235257544E+04  0.10235257544E+04  0.25500000000E-02 0.  1.
         -2   -1    0    0    0  501 -0.00000000000E+00 -0.00000000000E+00 -0.57427775163E+02  0.57427775220E+02  0.25500000000E-02 0. -1.
    5000001    1    1    2    0    0  0.15918497359E+03 -0.59406795783E+02  0.59855944571E+03  0.64371378209E+03  0.16500000000E+03 0.  0.
   -5000001    1    1    2    0    0 -0.15918497359E+03  0.59406795783E+02  0.36753853355E+03  0.43723974756E+03  0.16500000000E+03 0.  0.
<mgrwt>
<rscale>  0 0.48488682E+03</rscale>
<asrwt>0</asrwt>
<pdfrwt beam="1">  1        2 0.14621795E+00 0.48488682E+03</pdfrwt>
<pdfrwt beam="2">  1       -2 0.82039687E-02 0.48488682E+03</pdfrwt>
<totfact> 0.25710116E+03</totfact>
</mgrwt>
</event>
<event>
 4    1  0.1837449E-005  0.5414422E+03  0.7818608E-02  0.1003494E+00
          2   -1    0    0  501    0  0.00000000000E+00  0.00000000000E+00  0.86414500103E+03  0.86414500103E+03  0.25500000000E-02 0.  1.
         -2   -1    0    0    0  501 -0.00000000000E+00 -0.00000000000E+00 -0.84812050323E+02  0.84812050361E+02  0.25500000000E-02 0. -1.
    5000001    1    1    2    0    0 -0.84497244421E+02  0.48928341851E+02  0.72465204268E+03  0.74958611907E+03  0.16500000000E+03 0.  0.
   -5000001    1    1    2    0    0  0.84497244421E+02 -0.48928341851E+02  0.54680908026E+02  0.19937093232E+03  0.16500000000E+03 0.  0.
<mgrwt>
<rscale>  0 0.54144218E+03</rscale>
<asrwt>0</asrwt>
<pdfrwt beam="1">  1        2 0.12344929E+00 0.54144218E+03</pdfrwt>
<pdfrwt beam="2">  1       -2 0.12116006E-01 0.54144218E+03</pdfrwt>
<totfact> 0.17228812E+03</totfact>
</mgrwt>
</event>
<event>
 4    1  0.1837449E-005  0.3454584E+03  0.7818608E-02  0.1064495E+00
          2   -1    0    0  501    0  0.00000000000E+00  0.00000000000E+00  0.12178956748E+04  0.12178956748E+04  0.25500000000E-02 0.  1.
         -2   -1    0    0    0  501 -0.00000000000E+00 -0.00000000000E+00 -0.24497479109E+02  0.24497479242E+02  0.25500000000E-02 0. -1.
    5000001    1    1    2    0    0  0.13016746645E+01 -0.50942784669E+02  0.58347922031E+03  0.60849803796E+03  0.16500000000E+03 0.  0.
   -5000001    1    1    2    0    0 -0.13016746645E+01  0.50942784669E+02  0.60991897536E+03  0.63389511606E+03  0.16500000000E+03 0.  0.
<mgrwt>
<rscale>  0 0.34545838E+03</rscale>
<asrwt>0</asrwt>
<pdfrwt beam="1">  1        2 0.17398511E+00 0.34545838E+03</pdfrwt>
<pdfrwt beam="2">  1       -2 0.34996396E-02 0.34545838E+03</pdfrwt>
<totfact> 0.74011072E+03</totfact>
</mgrwt>
</event>
<event>
 4    1  0.1837449E-005  0.3759724E+03  0.7818608E-02  0.1052432E+00
         -2   -1    0    0    0  501 -0.00000000000E+00  0.00000000000E+00  0.21803560164E+03  0.21803560165E+03  0.25500000000E-02 0.  1.
          2   -1    0    0  501    0  0.00000000000E+00 -0.00000000000E+00 -0.16207821016E+03  0.16207821018E+03  0.25500000000E-02 0. -1.
    5000001    1    1    2    0    0  0.15774859780E+02 -0.62306515597E+02  0.91783856354E+02  0.19944980415E+03  0.16500000000E+03 0.  0.
   -5000001    1    1    2    0    0 -0.15774859780E+02  0.62306515597E+02 -0.35826464880E+02  0.18066400768E+03  0.16500000000E+03 0.  0.
<mgrwt>
<rscale>  0 0.37597245E+03</rscale>
<asrwt>0</asrwt>
<pdfrwt beam="1">  1        2 0.23154030E-01 0.37597245E+03</pdfrwt>
<pdfrwt beam="2">  1       -2 0.31147943E-01 0.37597245E+03</pdfrwt>
<totfact> 0.22545659E+03</totfact>
</mgrwt>
</event>
<event>
 4    1  0.1837449E-005  0.4943854E+03  0.7818608E-02  0.1015255E+00
          2   -1    0    0  501    0  0.00000000000E+00  0.00000000000E+00  0.17074388662E+03  0.17074388663E+03  0.25500000000E-02 0.  1.
         -2   -1    0    0    0  501 -0.00000000000E+00 -0.00000000000E+00 -0.35787061094E+03  0.35787061095E+03  0.25500000000E-02 0. -1.
    5000001    1    1    2    0    0 -0.57944108472E+02  0.17025730587E+03 -0.13544341898E+03  0.27913256645E+03  0.16500000000E+03 0.  0.
   -5000001    1    1    2    0    0  0.57944108472E+02 -0.17025730587E+03 -0.51683305348E+02  0.24948193113E+03  0.16500000000E+03 0.  0.
<mgrwt>
<rscale>  0 0.49438535E+03</rscale>
<asrwt>0</asrwt>
<pdfrwt beam="1">  1        2 0.24391984E-01 0.49438535E+03</pdfrwt>
<pdfrwt beam="2">  1       -2 0.51124373E-01 0.49438535E+03</pdfrwt>
<totfact> 0.81851968E+02</totfact>
</mgrwt>
</event>
<event>
 4    1  0.1837449E-005  0.3843719E+03  0.7818608E-02  0.1049330E+00
          2   -1    0    0  501    0  0.00000000000E+00  0.00000000000E+00  0.75121002938E+03  0.75121002938E+03  0.25500000000E-02 0.  1.
         -2   -1    0    0    0  501 -0.00000000000E+00 -0.00000000000E+00 -0.49167919056E+02  0.49167919123E+02  0.25500000000E-02 0. -1.
    5000001    1    1    2    0    0  0.91118464411E+02  0.10436734045E+02  0.27597341269E+03  0.33436181673E+03  0.16500000000E+03 0.  0.
   -5000001    1    1    2    0    0 -0.91118464411E+02 -0.10436734045E+02  0.42606869763E+03  0.46601613177E+03  0.16500000000E+03 0.  0.
<mgrwt>
<rscale>  0 0.38437187E+03</rscale>
<asrwt>0</asrwt>
<pdfrwt beam="1">  1        2 0.10731572E+00 0.38437187E+03</pdfrwt>
<pdfrwt beam="2">  1       -2 0.70239883E-02 0.38437187E+03</pdfrwt>
<totfact> 0.49144254E+03</totfact>
</mgrwt>
</event>
<event>
 4    1  0.1837449E-005  0.1077125E+04  0.7818608E-02  0.9227778E-01
         -2   -1    0    0    0  501 -0.00000000000E+00  0.00000000000E+00  0.13861731644E+04  0.13861731644E+04  0.25500000000E-02 0. -1.
          2   -1    0    0  501    0  0.00000000000E+00 -0.00000000000E+00 -0.20924493124E+03  0.20924493125E+03  0.25500000000E-02 0.  1.
    5000001    1    1    2    0    0  0.34754931770E+03 -0.32071840817E+03  0.29530283491E+03  0.58144611950E+03  0.16500000000E+03 0.  0.
   -5000001    1    1    2    0    0 -0.34754931770E+03  0.32071840817E+03  0.88162539821E+03  0.10139719761E+04  0.16500000000E+03 0.  0.
<mgrwt>
<rscale>  0 0.10771253E+04</rscale>
<asrwt>0</asrwt>
<pdfrwt beam="1">  1        2 0.29892133E-01 0.10771253E+04</pdfrwt>
<pdfrwt beam="2">  1       -2 0.19802474E+00 0.10771253E+04</pdfrwt>
<totfact> 0.24384064E+01</totfact>
</mgrwt>
</event>
<event>
 4    1  0.1837449E-005  0.4481594E+03  0.7818608E-02  0.1028272E+00
          2   -1    0    0  501    0  0.00000000000E+00  0.00000000000E+00  0.21696364049E+04  0.21696364049E+04  0.25500000000E-02 0.  1.
         -2   -1    0    0    0  501 -0.00000000000E+00 -0.00000000000E+00 -0.23142920094E+02  0.23142920235E+02  0.25500000000E-02 0. -1.
    5000001    1    1    2    0    0  0.11640879510E+03 -0.79991301373E+02  0.80360174618E+03  0.83243641339E+03  0.16500000000E+03 0.  0.
   -5000001    1    1    2    0    0 -0.11640879510E+03  0.79991301373E+02  0.13428917387E+04  0.13603429118E+04  0.16500000000E+03 0.  0.
<mgrwt>
<rscale>  0 0.44815945E+03</rscale>
<asrwt>0</asrwt>
<pdfrwt beam="1">  1        2 0.30994781E+00 0.44815945E+03</pdfrwt>
<pdfrwt beam="2">  1       -2 0.33061341E-02 0.44815945E+03</pdfrwt>
<totfact> 0.26520976E+03</totfact>
</mgrwt>
</event>
<event>
 4    1  0.1837449E-005  0.7822152E+03  0.7818608E-02  0.9586123E-01
          2   -1    0    0  501    0  0.00000000000E+00  0.00000000000E+00  0.11770315369E+04  0.11770315369E+04  0.25500000000E-02 0.  1.
         -2   -1    0    0    0  501 -0.00000000000E+00 -0.00000000000E+00 -0.12995842852E+03  0.12995842854E+03  0.25500000000E-02 0. -1.
    5000001    1    1    2    0    0  0.23698779512E+03  0.28176081187E+01  0.82825535115E+02  0.30042673519E+03  0.16500000000E+03 0.  0.
   -5000001    1    1    2    0    0 -0.23698779512E+03 -0.28176081187E+01  0.96424757329E+03  0.10065632303E+04  0.16500000000E+03 0.  0.
<mgrwt>
<rscale>  0 0.78221524E+03</rscale>
<asrwt>0</asrwt>
<pdfrwt beam="1">  1        2 0.16814736E+00 0.78221524E+03</pdfrwt>
<pdfrwt beam="2">  1       -2 0.18565490E-01 0.78221524E+03</pdfrwt>
<totfact> 0.53753310E+02</totfact>
</mgrwt>
</event>
<event>
 4    1  0.1837449E-005  0.4704254E+03  0.7818608E-02  0.1021800E+00
         -2   -1    0    0    0  501 -0.00000000000E+00  0.00000000000E+00  0.44297519261E+02  0.44297519335E+02  0.25500000000E-02 0. -1.
          2   -1    0    0  501    0  0.00000000000E+00 -0.00000000000E+00 -0.12489418066E+04  0.12489418066E+04  0.25500000000E-02 0.  1.
    5000001    1    1    2    0    0  0.51893933165E+02  0.14685307428E+03 -0.43194058641E+03  0.48791031544E+03  0.16500000000E+03 0.  0.
   -5000001    1    1    2    0    0 -0.51893933165E+02 -0.14685307428E+03 -0.77270370098E+03  0.80532901055E+03  0.16500000000E+03 0.  0.
<mgrwt>
<rscale>  0 0.47042544E+03</rscale>
<asrwt>0</asrwt>
<pdfrwt beam="1">  1        2 0.17842024E+00 0.47042544E+03</pdfrwt>
<pdfrwt beam="2">  1       -2 0.63282178E-02 0.47042544E+03</pdfrwt>
<totfact> 0.28791000E+03</totfact>
</mgrwt>
</event>
<event>
 4    1  0.1837449E-005  0.4506398E+03  0.7818608E-02  0.1027531E+00
         -2   -1    0    0    0  501 -0.00000000000E+00  0.00000000000E+00  0.99533210151E+02  0.99533210183E+02  0.25500000000E-02 0. -1.
          2   -1    0    0  501    0  0.00000000000E+00 -0.00000000000E+00 -0.51007162004E+03  0.51007162005E+03  0.25500000000E-02 0.  1.
    5000001    1    1    2    0    0  0.48250964834E+02 -0.11610207777E+03 -0.32425172388E+03  0.38493119971E+03  0.16500000000E+03 0.  0.
   -5000001    1    1    2    0    0 -0.48250964834E+02  0.11610207777E+03 -0.86286686008E+02  0.22467363052E+03  0.16500000000E+03 0.  0.
<mgrwt>
<rscale>  0 0.45063984E+03</rscale>
<asrwt>0</asrwt>
<pdfrwt beam="1">  1        2 0.72867373E-01 0.45063984E+03</pdfrwt>
<pdfrwt beam="2">  1       -2 0.14219030E-01 0.45063984E+03</pdfrwt>
<totfact> 0.24944328E+03</totfact>
</mgrwt>
</event>
<event>
 4    1  0.1837449E-005  0.5472862E+03  0.7818608E-02  0.1002124E+00
         -2   -1    0    0    0  501 -0.00000000000E+00  0.00000000000E+00  0.23358516514E+03  0.23358516515E+03  0.25500000000E-02 0.  1.
          2   -1    0    0  501    0  0.00000000000E+00 -0.00000000000E+00 -0.32057069769E+03  0.32057069770E+03  0.25500000000E-02 0. -1.
    5000001    1    1    2    0    0  0.80410358859E+02  0.16640785660E+03  0.74147138277E+02  0.25861206211E+03  0.16500000000E+03 0.  0.
   -5000001    1    1    2    0    0 -0.80410358859E+02 -0.16640785660E+03 -0.16113267083E+03  0.29554380075E+03  0.16500000000E+03 0.  0.
<mgrwt>
<rscale>  0 0.54728625E+03</rscale>
<asrwt>0</asrwt>
<pdfrwt beam="1">  1        2 0.45795814E-01 0.54728625E+03</pdfrwt>
<pdfrwt beam="2">  1       -2 0.33369309E-01 0.54728625E+03</pdfrwt>
<totfact> 0.93164145E+02</totfact>
</mgrwt>
</event>
<event>
 4    1  0.1837449E-005  0.5340887E+03  0.7818608E-02  0.1005245E+00
         -2   -1    0    0    0  501 -0.00000000000E+00  0.00000000000E+00  0.12400621117E+03  0.12400621119E+03  0.25500000000E-02 0. -1.
          2   -1    0    0  501    0  0.00000000000E+00 -0.00000000000E+00 -0.57507354701E+03  0.57507354701E+03  0.25500000000E-02 0.  1.
    5000001    1    1    2    0    0  0.16676301074E+03 -0.87000970365E+02 -0.10338520248E+03  0.27072600667E+03  0.16500000000E+03 0.  0.
   -5000001    1    1    2    0    0 -0.16676301074E+03  0.87000970365E+02 -0.34768213336E+03  0.42835375153E+03  0.16500000000E+03 0.  0.
<mgrwt>
<rscale>  0 0.53408873E+03</rscale>
<asrwt>0</asrwt>
<pdfrwt beam="1">  1        2 0.82153362E-01 0.53408873E+03</pdfrwt>
<pdfrwt beam="2">  1       -2 0.17715173E-01 0.53408873E+03</pdfrwt>
<totfact> 0.15019559E+03</totfact>
</mgrwt>
</event>
<event>
 4    1  0.1837449E-005  0.5708816E+03  0.7818608E-02  0.9967730E-01
          2   -1    0    0  501    0  0.00000000000E+00  0.00000000000E+00  0.10005190214E+03  0.10005190217E+03  0.25500000000E-02 0.  1.
         -2   -1    0    0    0  501 -0.00000000000E+00 -0.00000000000E+00 -0.81434196089E+03  0.81434196089E+03  0.25500000000E-02 0. -1.
    5000001    1    1    2    0    0 -0.12483927086E+02 -0.16017939283E+03 -0.62725343117E+03  0.66819544538E+03  0.16500000000E+03 0.  0.
   -5000001    1    1    2    0    0  0.12483927086E+02  0.16017939283E+03 -0.87036627586E+02  0.24619841767E+03  0.16500000000E+03 0.  0.
<mgrwt>
<rscale>  0 0.57088164E+03</rscale>
<asrwt>0</asrwt>
<pdfrwt beam="1">  1        2 0.14293129E-01 0.57088164E+03</pdfrwt>
<pdfrwt beam="2">  1       -2 0.11633456E+00 0.57088164E+03</pdfrwt>
<totfact> 0.24698536E+02</totfact>
</mgrwt>
</event>
<event>
 4    1  0.1837449E-005  0.8037701E+03  0.7818608E-02  0.9554576E-01
         -2   -1    0    0    0  501 -0.00000000000E+00  0.00000000000E+00  0.56090289845E+02  0.56090289903E+02  0.25500000000E-02 0. -1.
          2   -1    0    0  501    0  0.00000000000E+00 -0.00000000000E+00 -0.28794931105E+04  0.28794931105E+04  0.25500000000E-02 0.  1.
    5000001    1    1    2    0    0 -0.26128066889E+03 -0.83451853159E+02 -0.52415682671E+03  0.61416380446E+03  0.16500000000E+03 0.  0.
   -5000001    1    1    2    0    0  0.26128066889E+03  0.83451853159E+02 -0.22992459939E+04  0.23214195959E+04  0.16500000000E+03 0.  0.
<mgrwt>
<rscale>  0 0.80377012E+03</rscale>
<asrwt>0</asrwt>
<pdfrwt beam="1">  1        2 0.41135606E+00 0.80377012E+03</pdfrwt>
<pdfrwt beam="2">  1       -2 0.80129004E-02 0.80377012E+03</pdfrwt>
<totfact> 0.28051748E+02</totfact>
</mgrwt>
</event>
<event>
 4    1  0.1837449E-005  0.5193876E+03  0.7818608E-02  0.1008839E+00
         -2   -1    0    0    0  501 -0.00000000000E+00  0.00000000000E+00  0.99278489680E+02  0.99278489713E+02  0.25500000000E-02 0. -1.
          2   -1    0    0  501    0  0.00000000000E+00 -0.00000000000E+00 -0.67930988704E+03  0.67930988704E+03  0.25500000000E-02 0.  1.
    5000001    1    1    2    0    0 -0.17091501139E+03 -0.10043200501E+03 -0.24461323945E+03  0.35547034428E+03  0.16500000000E+03 0.  0.
   -5000001    1    1    2    0    0  0.17091501139E+03  0.10043200501E+03 -0.33541815791E+03  0.42311803248E+03  0.16500000000E+03 0.  0.
<mgrwt>
<rscale>  0 0.51938756E+03</rscale>
<asrwt>0</asrwt>
<pdfrwt beam="1">  1        2 0.97044267E-01 0.51938756E+03</pdfrwt>
<pdfrwt beam="2">  1       -2 0.14182642E-01 0.51938756E+03</pdfrwt>
<totfact> 0.17955911E+03</totfact>
</mgrwt>
</event>
<event>
 4    1  0.1837449E-005  0.8082717E+03  0.7818608E-02  0.9548121E-01
         -2   -1    0    0    0  501 -0.00000000000E+00  0.00000000000E+00  0.21591552749E+03  0.21591552751E+03  0.25500000000E-02 0. -1.
          2   -1    0    0  501    0  0.00000000000E+00 -0.00000000000E+00 -0.75643366720E+03  0.75643366720E+03  0.25500000000E-02 0.  1.
    5000001    1    1    2    0    0 -0.31348726228E+03  0.19054420199E+03 -0.31715158181E+03  0.51224162499E+03  0.16500000000E+03 0.  0.
   -5000001    1    1    2    0    0  0.31348726228E+03 -0.19054420199E+03 -0.22336655789E+03  0.46010756972E+03  0.16500000000E+03 0.  0.
<mgrwt>
<rscale>  0 0.80827167E+03</rscale>
<asrwt>0</asrwt>
<pdfrwt beam="1">  1        2 0.10806195E+00 0.80827167E+03</pdfrwt>
<pdfrwt beam="2">  1       -2 0.30845076E-01 0.80827167E+03</pdfrwt>
<totfact> 0.39857039E+02</totfact>
</mgrwt>
</event>
<event>
 4    1  0.1837449E-005  0.3825495E+03  0.7818608E-02  0.1049995E+00
         -2   -1    0    0    0  501 -0.00000000000E+00  0.00000000000E+00  0.29426554137E+02  0.29426554248E+02  0.25500000000E-02 0. -1.
          2   -1    0    0  501    0  0.00000000000E+00 -0.00000000000E+00 -0.12433001400E+04  0.12433001400E+04  0.25500000000E-02 0.  1.
    5000001    1    1    2    0    0  0.79192242900E+02 -0.41992225542E+02 -0.72809844083E+03  0.75192226851E+03  0.16500000000E+03 0.  0.
   -5000001    1    1    2    0    0 -0.79192242900E+02  0.41992225542E+02 -0.48577514505E+03  0.52080442576E+03  0.16500000000E+03 0.  0.
<mgrwt>
<rscale>  0 0.38254955E+03</rscale>
<asrwt>0</asrwt>
<pdfrwt beam="1">  1        2 0.17761427E+00 0.38254955E+03</pdfrwt>
<pdfrwt beam="2">  1       -2 0.42037942E-02 0.38254955E+03</pdfrwt>
<totfact> 0.54401009E+03</totfact>
</mgrwt>
</event>
<event>
 4    1  0.1837449E-005  0.7318839E+03  0.7818608E-02  0.9664208E-01
         -2   -1    0    0    0  501 -0.00000000000E+00  0.00000000000E+00  0.47301150693E+02  0.47301150762E+02  0.25500000000E-02 0. -1.
          2   -1    0    0  501    0  0.00000000000E+00 -0.00000000000E+00 -0.28310835024E+04  0.28310835024E+04  0.25500000000E-02 0.  1.
    5000001    1    1    2    0    0  0.22646790155E+03  0.23517740147E+03 -0.13540894365E+04  0.14026329964E+04  0.16500000000E+03 0.  0.
   -5000001    1    1    2    0    0 -0.22646790155E+03 -0.23517740147E+03 -0.14296929153E+04  0.14757516568E+04  0.16500000000E+03 0.  0.
<mgrwt>
<rscale>  0 0.73188389E+03</rscale>
<asrwt>0</asrwt>
<pdfrwt beam="1">  1        2 0.40444039E+00 0.73188389E+03</pdfrwt>
<pdfrwt beam="2">  1       -2 0.67573091E-02 0.73188389E+03</pdfrwt>
<totfact> 0.39325915E+02</totfact>
</mgrwt>
</event>
<event>
 4    1  0.1837449E-005  0.1404051E+04  0.7818608E-02  0.8950892E-01
         -2   -1    0    0    0  501 -0.00000000000E+00  0.00000000000E+00  0.36050466443E+03  0.36050466444E+03  0.25500000000E-02 0. -1.
          2   -1    0    0  501    0  0.00000000000E+00 -0.00000000000E+00 -0.13670822291E+04  0.13670822291E+04  0.25500000000E-02 0.  1.
    5000001    1    1    2    0    0  0.21083108304E+03 -0.64483567206E+03 -0.59330158194E+03  0.91623935555E+03  0.16500000000E+03 0.  0.
   -5000001    1    1    2    0    0 -0.21083108304E+03  0.64483567206E+03 -0.41327598276E+03  0.81134753802E+03  0.16500000000E+03 0.  0.
<mgrwt>
<rscale>  0 0.14040506E+04</rscale>
<asrwt>0</asrwt>
<pdfrwt beam="1">  1        2 0.19529746E+00 0.14040506E+04</pdfrwt>
<pdfrwt beam="2">  1       -2 0.51500667E-01 0.14040506E+04</pdfrwt>
<totfact> 0.59808964E+01</totfact>
</mgrwt>
</event>
<event>
 4    1  0.1837449E-005  0.5336211E+03  0.7818608E-02  0.1005358E+00
         -2   -1    0    0    0  501 -0.00000000000E+00  0.00000000000E+00  0.49977852849E+03  0.49977852850E+03  0.25500000000E-02 0. -1.
          2   -1    0    0  501    0  0.00000000000E+00 -0.00000000000E+00 -0.14243885489E+03  0.14243885491E+03  0.25500000000E-02 0.  1.
    5000001    1    1    2    0    0 -0.30694289184E+02  0.19182342158E+03  0.27362134138E+03  0.37394117574E+03  0.16500000000E+03 0.  0.
   -5000001    1    1    2    0    0  0.30694289184E+02 -0.19182342158E+03  0.83718332217E+02  0.26827620767E+03  0.16500000000E+03 0.  0.
<mgrwt>
<rscale>  0 0.53362114E+03</rscale>
<asrwt>0</asrwt>
<pdfrwt beam="1">  1        2 0.20348408E-01 0.53362114E+03</pdfrwt>
<pdfrwt beam="2">  1       -2 0.71396933E-01 0.53362114E+03</pdfrwt>
<totfact> 0.49990611E+02</totfact>
</mgrwt>
</event>
<event>
 4    1  0.1837449E-005  0.4189514E+03  0.7818608E-02  0.1037408E+00
         -2   -1    0    0    0  501 -0.00000000000E+00  0.00000000000E+00  0.29624614855E+02  0.29624614965E+02  0.25500000000E-02 0. -1.
          2   -1    0    0  501    0  0.00000000000E+00 -0.00000000000E+00 -0.14812031654E+04  0.14812031654E+04  0.25500000000E-02 0.  1.
    5000001    1    1    2    0    0 -0.27454854261E+02 -0.12603834511E+03 -0.74005088483E+03  0.76911621073E+03  0.16500000000E+03 0.  0.
   -5000001    1    1    2    0    0  0.27454854261E+02  0.12603834511E+03 -0.71152766568E+03  0.74171156960E+03  0.16500000000E+03 0.  0.
<mgrwt>
<rscale>  0 0.41895142E+03</rscale>
<asrwt>0</asrwt>
<pdfrwt beam="1">  1        2 0.21160041E+00 0.41895142E+03</pdfrwt>
<pdfrwt beam="2">  1       -2 0.42320888E-02 0.41895142E+03</pdfrwt>
<totfact> 0.40350539E+03</totfact>
</mgrwt>
</event>
<event>
 4    1  0.1837449E-005  0.6712429E+03  0.7818608E-02  0.9767715E-01
         -2   -1    0    0    0  501 -0.00000000000E+00  0.00000000000E+00  0.44473636875E+02  0.44473636948E+02  0.25500000000E-02 0. -1.
          2   -1    0    0  501    0  0.00000000000E+00 -0.00000000000E+00 -0.25327756604E+04  0.25327756604E+04  0.25500000000E-02 0.  1.
    5000001    1    1    2    0    0  0.16220841777E+03 -0.15303110913E+03 -0.19694710302E+04  0.19889120720E+04  0.16500000000E+03 0.  0.
   -5000001    1    1    2    0    0 -0.16220841777E+03  0.15303110913E+03 -0.51883099335E+03  0.58833722543E+03  0.16500000000E+03 0.  0.
<mgrwt>
<rscale>  0 0.67124286E+03</rscale>
<asrwt>0</asrwt>
<pdfrwt beam="1">  1        2 0.36182500E+00 0.67124286E+03</pdfrwt>
<pdfrwt beam="2">  1       -2 0.63533783E-02 0.67124286E+03</pdfrwt>
<totfact> 0.62490656E+02</totfact>
</mgrwt>
</event>
<event>
 4    1  0.1837449E-005  0.4064631E+03  0.7818608E-02  0.1041564E+00
         -2   -1    0    0    0  501 -0.00000000000E+00  0.00000000000E+00  0.15602856765E+04  0.15602856765E+04  0.25500000000E-02 0. -1.
          2   -1    0    0  501    0  0.00000000000E+00 -0.00000000000E+00 -0.26471479477E+02  0.26471479600E+02  0.25500000000E-02 0.  1.
    5000001    1    1    2    0    0 -0.74693549643E+02  0.72272009271E+02  0.54347713898E+03  0.57740347269E+03  0.16500000000E+03 0.  0.
   -5000001    1    1    2    0    0  0.74693549643E+02 -0.72272009271E+02  0.99033705807E+03  0.10093536834E+04  0.16500000000E+03 0.  0.
<mgrwt>
<rscale>  0 0.40646314E+03</rscale>
<asrwt>0</asrwt>
<pdfrwt beam="1">  1        2 0.37816396E-02 0.40646314E+03</pdfrwt>
<pdfrwt beam="2">  1       -2 0.22289797E+00 0.40646314E+03</pdfrwt>
<totfact> 0.23749851E+02</totfact>
</mgrwt>
</event>
<event>
 4    1  0.1837449E-005  0.4204311E+03  0.7818608E-02  0.1036926E+00
          2   -1    0    0  501    0  0.00000000000E+00  0.00000000000E+00  0.63051572211E+03  0.63051572211E+03  0.25500000000E-02 0.  1.
         -2   -1    0    0    0  501 -0.00000000000E+00 -0.00000000000E+00 -0.70086396713E+02  0.70086396759E+02  0.25500000000E-02 0. -1.
    5000001    1    1    2    0    0 -0.12930766324E+03 -0.73628691693E+01  0.25719124214E+03  0.33188404398E+03  0.16500000000E+03 0.  0.
   -5000001    1    1    2    0    0  0.12930766324E+03  0.73628691693E+01  0.30323808325E+03  0.36871807489E+03  0.16500000000E+03 0.  0.
<mgrwt>
<rscale>  0 0.42043109E+03</rscale>
<asrwt>0</asrwt>
<pdfrwt beam="1">  1        2 0.90073676E-01 0.42043109E+03</pdfrwt>
<pdfrwt beam="2">  1       -2 0.10012342E-01 0.42043109E+03</pdfrwt>
<totfact> 0.34638188E+03</totfact>
</mgrwt>
</event>
<event>
 4    1  0.1837449E-005  0.4406054E+03  0.7818608E-02  0.1030561E+00
         -2   -1    0    0    0  501 -0.00000000000E+00  0.00000000000E+00  0.60154995618E+02  0.60154995672E+02  0.25500000000E-02 0. -1.
          2   -1    0    0  501    0  0.00000000000E+00 -0.00000000000E+00 -0.80680379879E+03  0.80680379879E+03  0.25500000000E-02 0.  1.
    5000001    1    1    2    0    0 -0.12636763543E+03 -0.65366230383E+02 -0.30905842390E+03  0.37813176637E+03  0.16500000000E+03 0.  0.
   -5000001    1    1    2    0    0  0.12636763543E+03  0.65366230383E+02 -0.43759037928E+03  0.48882702809E+03  0.16500000000E+03 0.  0.
<mgrwt>
<rscale>  0 0.44060540E+03</rscale>
<asrwt>0</asrwt>
<pdfrwt beam="1">  1        2 0.11525768E+00 0.44060540E+03</pdfrwt>
<pdfrwt beam="2">  1       -2 0.85935713E-02 0.44060540E+03</pdfrwt>
<totfact> 0.32775305E+03</totfact>
</mgrwt>
</event>
<event>
 4    1  0.1837449E-005  0.4306085E+03  0.7818608E-02  0.1033668E+00
         -2   -1    0    0    0  501 -0.00000000000E+00  0.00000000000E+00  0.32520694081E+02  0.32520694181E+02  0.25500000000E-02 0. -1.
          2   -1    0    0  501    0  0.00000000000E+00 -0.00000000000E+00 -0.14254284192E+04  0.14254284192E+04  0.25500000000E-02 0.  1.
    5000001    1    1    2    0    0  0.83542332343E+02  0.81323091260E+02 -0.94842008222E+03  0.96970016955E+03  0.16500000000E+03 0.  0.
   -5000001    1    1    2    0    0 -0.83542332343E+02 -0.81323091260E+02 -0.44448764289E+03  0.48824894383E+03  0.16500000000E+03 0.  0.
<mgrwt>
<rscale>  0 0.43060851E+03</rscale>
<asrwt>0</asrwt>
<pdfrwt beam="1">  1        2 0.20363259E+00 0.43060851E+03</pdfrwt>
<pdfrwt beam="2">  1       -2 0.46458143E-02 0.43060851E+03</pdfrwt>
<totfact> 0.37394727E+03</totfact>
</mgrwt>
</event>
<event>
 4    1  0.1837449E-005  0.5392963E+03  0.7818608E-02  0.1004002E+00
         -2   -1    0    0    0  501 -0.00000000000E+00  0.00000000000E+00  0.10110277417E+03  0.10110277421E+03  0.25500000000E-02 0. -1.
          2   -1    0    0  501    0  0.00000000000E+00 -0.00000000000E+00 -0.71917038166E+03  0.71917038167E+03  0.25500000000E-02 0.  1.
    5000001    1    1    2    0    0 -0.96534365993E+02  0.18998163967E+03 -0.32204827657E+03  0.41994285286E+03  0.16500000000E+03 0.  0.
   -5000001    1    1    2    0    0  0.96534365993E+02 -0.18998163967E+03 -0.29601933092E+03  0.40033030301E+03  0.16500000000E+03 0.  0.
<mgrwt>
<rscale>  0 0.53929628E+03</rscale>
<asrwt>0</asrwt>
<pdfrwt beam="1">  1        2 0.10273862E+00 0.53929628E+03</pdfrwt>
<pdfrwt beam="2">  1       -2 0.14443254E-01 0.53929628E+03</pdfrwt>
<totfact> 0.16248727E+03</totfact>
</mgrwt>
</event>
<event>
 4    1  0.1837449E-005  0.6729235E+03  0.7818608E-02  0.9764691E-01
         -2   -1    0    0    0  501 -0.00000000000E+00  0.00000000000E+00  0.56641794126E+03  0.56641794127E+03  0.25500000000E-02 0. -1.
          2   -1    0    0  501    0  0.00000000000E+00 -0.00000000000E+00 -0.19986391255E+03  0.19986391256E+03  0.25500000000E-02 0.  1.
    5000001    1    1    2    0    0 -0.26300131268E+03  0.27793960527E+02  0.32749376594E+03  0.45212759421E+03  0.16500000000E+03 0.  0.
   -5000001    1    1    2    0    0  0.26300131268E+03 -0.27793960527E+02  0.39060262773E+02  0.31415425963E+03  0.16500000000E+03 0.  0.
<mgrwt>
<rscale>  0 0.67292349E+03</rscale>
<asrwt>0</asrwt>
<pdfrwt beam="1">  1        2 0.28551987E-01 0.67292349E+03</pdfrwt>
<pdfrwt beam="2">  1       -2 0.80916849E-01 0.67292349E+03</pdfrwt>
<totfact> 0.25612428E+02</totfact>
</mgrwt>
</event>
<event>
 4    1  0.1837449E-005  0.3896292E+03  0.7818608E-02  0.1047431E+00
          2   -1    0    0  501    0  0.00000000000E+00  0.00000000000E+00  0.15199048913E+04  0.15199048913E+04  0.25500000000E-02 0.  1.
         -2   -1    0    0    0  501 -0.00000000000E+00 -0.00000000000E+00 -0.24970458335E+02  0.24970458465E+02  0.25500000000E-02 0. -1.
    5000001    1    1    2    0    0  0.22952973085E+02  0.96142009769E+02  0.62477038771E+03  0.65370724516E+03  0.16500000000E+03 0.  0.
   -5000001    1    1    2    0    0 -0.22952973085E+02 -0.96142009769E+02  0.87016404529E+03  0.89116810464E+03  0.16500000000E+03 0.  0.
<mgrwt>
<rscale>  0 0.38962917E+03</rscale>
<asrwt>0</asrwt>
<pdfrwt beam="1">  1        2 0.21712935E+00 0.38962917E+03</pdfrwt>
<pdfrwt beam="2">  1       -2 0.35672071E-02 0.38962917E+03</pdfrwt>
<totfact> 0.49962827E+03</totfact>
</mgrwt>
</event>
<event>
 4    1  0.1837449E-005  0.4429703E+03  0.7818608E-02  0.1029839E+00
         -2   -1    0    0    0  501 -0.00000000000E+00  0.00000000000E+00  0.19931542724E+02  0.19931542887E+02  0.25500000000E-02 0. -1.
          2   -1    0    0  501    0  0.00000000000E+00 -0.00000000000E+00 -0.24612078199E+04  0.24612078199E+04  0.25500000000E-02 0.  1.
    5000001    1    1    2    0    0  0.37687106731E+02  0.13375396794E+03 -0.15018258890E+04  0.15172397447E+04  0.16500000000E+03 0.  0.
   -5000001    1    1    2    0    0 -0.37687106731E+02 -0.13375396794E+03 -0.93945038817E+03  0.96389961811E+03  0.16500000000E+03 0.  0.
<mgrwt>
<rscale>  0 0.44297029E+03</rscale>
<asrwt>0</asrwt>
<pdfrwt beam="1">  1        2 0.35160092E+00 0.44297029E+03</pdfrwt>
<pdfrwt beam="2">  1       -2 0.28473649E-02 0.44297029E+03</pdfrwt>
<totfact> 0.23737963E+03</totfact>
</mgrwt>
</event>
<event>
 4    1  0.1837449E-005  0.5146338E+03  0.7818608E-02  0.1010028E+00
          2   -1    0    0  501    0  0.00000000000E+00  0.00000000000E+00  0.66115624300E+03  0.66115624301E+03  0.25500000000E-02 0.  1.
         -2   -1    0    0    0  501 -0.00000000000E+00 -0.00000000000E+00 -0.10014576182E+03  0.10014576185E+03  0.25500000000E-02 0. -1.
    5000001    1    1    2    0    0 -0.55360764821E+02 -0.14377356120E+03  0.97816112104E+02  0.24602569575E+03  0.16500000000E+03 0.  0.
   -5000001    1    1    2    0    0  0.55360764821E+02  0.14377356120E+03  0.46319436908E+03  0.51527630911E+03  0.16500000000E+03 0.  0.
<mgrwt>
<rscale>  0 0.51463383E+03</rscale>
<asrwt>0</asrwt>
<pdfrwt beam="1">  1        2 0.94450895E-01 0.51463383E+03</pdfrwt>
<pdfrwt beam="2">  1       -2 0.14306537E-01 0.51463383E+03</pdfrwt>
<totfact> 0.18283043E+03</totfact>
</mgrwt>
</event>
<event>
 4    1  0.1837449E-005  0.4778025E+03  0.7818608E-02  0.1019741E+00
          2   -1    0    0  501    0  0.00000000000E+00  0.00000000000E+00  0.38079558374E+03  0.38079558374E+03  0.25500000000E-02 0.  1.
         -2   -1    0    0    0  501 -0.00000000000E+00 -0.00000000000E+00 -0.14988040911E+03  0.14988040914E+03  0.25500000000E-02 0. -1.
    5000001    1    1    2    0    0  0.16972076066E+03  0.31232806524E+02  0.12462797157E+03  0.26932834255E+03  0.16500000000E+03 0.  0.
   -5000001    1    1    2    0    0 -0.16972076066E+03 -0.31232806524E+02  0.10628720306E+03  0.26134765033E+03  0.16500000000E+03 0.  0.
<mgrwt>
<rscale>  0 0.47780246E+03</rscale>
<asrwt>0</asrwt>
<pdfrwt beam="1">  1        2 0.54399369E-01 0.47780246E+03</pdfrwt>
<pdfrwt beam="2">  1       -2 0.21411487E-01 0.47780246E+03</pdfrwt>
<totfact> 0.17201160E+03</totfact>
</mgrwt>
</event>
<event>
 4    1  0.1837449E-005  0.4228926E+03  0.7818608E-02  0.1036129E+00
          2   -1    0    0  501    0  0.00000000000E+00  0.00000000000E+00  0.48974211501E+03  0.48974211501E+03  0.25500000000E-02 0.  1.
         -2   -1    0    0    0  501 -0.00000000000E+00 -0.00000000000E+00 -0.91291999870E+02  0.91291999906E+02  0.25500000000E-02 0. -1.
    5000001    1    1    2    0    0  0.29560351200E+02 -0.10080809310E+03  0.88893625340E+02  0.21485614402E+03  0.16500000000E+03 0.  0.
   -5000001    1    1    2    0    0 -0.29560351200E+02  0.10080809310E+03  0.30955648980E+03  0.36617797090E+03  0.16500000000E+03 0.  0.
<mgrwt>
<rscale>  0 0.42289260E+03</rscale>
<asrwt>0</asrwt>
<pdfrwt beam="1">  1        2 0.69963160E-01 0.42289260E+03</pdfrwt>
<pdfrwt beam="2">  1       -2 0.13041714E-01 0.42289260E+03</pdfrwt>
<totfact> 0.30104671E+03</totfact>
</mgrwt>
</event>
<event>
 4    1  0.1837449E-005  0.3711820E+03  0.7818608E-02  0.1054242E+00
          2   -1    0    0  501    0  0.00000000000E+00  0.00000000000E+00  0.16925067071E+03  0.16925067073E+03  0.25500000000E-02 0.  1.
         -2   -1    0    0    0  501 -0.00000000000E+00 -0.00000000000E+00 -0.20350892141E+03  0.20350892143E+03  0.25500000000E-02 0. -1.
    5000001    1    1    2    0    0  0.18173671972E+02  0.76911368168E+02 -0.48460773262E+02  0.18925931272E+03  0.16500000000E+03 0.  0.
   -5000001    1    1    2    0    0 -0.18173671972E+02 -0.76911368168E+02  0.14202522560E+02  0.18350027944E+03  0.16500000000E+03 0.  0.
<mgrwt>
<rscale>  0 0.37118201E+03</rscale>
<asrwt>0</asrwt>
<pdfrwt beam="1">  1        2 0.24178667E-01 0.37118201E+03</pdfrwt>
<pdfrwt beam="2">  1       -2 0.29072703E-01 0.37118201E+03</pdfrwt>
<totfact> 0.24345418E+03</totfact>
</mgrwt>
</event>
<event>
 4    1  0.1837449E-005  0.4951762E+03  0.7818608E-02  0.1015046E+00
         -2   -1    0    0    0  501 -0.00000000000E+00  0.00000000000E+00  0.32412506809E+02  0.32412506909E+02  0.25500000000E-02 0. -1.
          2   -1    0    0  501    0  0.00000000000E+00 -0.00000000000E+00 -0.18912411714E+04  0.18912411714E+04  0.25500000000E-02 0.  1.
    5000001    1    1    2    0    0  0.14747662957E+03 -0.11039171254E+03 -0.97524509238E+03  0.10061131530E+04  0.16500000000E+03 0.  0.
   -5000001    1    1    2    0    0 -0.14747662957E+03  0.11039171254E+03 -0.88358357218E+03  0.91754052526E+03  0.16500000000E+03 0.  0.
<mgrwt>
<rscale>  0 0.49517620E+03</rscale>
<asrwt>0</asrwt>
<pdfrwt beam="1">  1        2 0.27017724E+00 0.49517620E+03</pdfrwt>
<pdfrwt beam="2">  1       -2 0.46303593E-02 0.49517620E+03</pdfrwt>
<totfact> 0.21787514E+03</totfact>
</mgrwt>
</event>
<event>
 4    1  0.1837449E-005  0.4762302E+03  0.7818608E-02  0.1020176E+00
          2   -1    0    0  501    0  0.00000000000E+00  0.00000000000E+00  0.36296799511E+02  0.36296799600E+02  0.25500000000E-02 0.  1.
         -2   -1    0    0    0  501 -0.00000000000E+00 -0.00000000000E+00 -0.15620878910E+04  0.15620878910E+04  0.25500000000E-02 0. -1.
    5000001    1    1    2    0    0  0.14703929466E+03  0.87951369053E+02 -0.79932269795E+03  0.83396509096E+03  0.16500000000E+03 0.  0.
   -5000001    1    1    2    0    0 -0.14703929466E+03 -0.87951369053E+02 -0.72646839351E+03  0.76441959960E+03  0.16500000000E+03 0.  0.
<mgrwt>
<rscale>  0 0.47623016E+03</rscale>
<asrwt>0</asrwt>
<pdfrwt beam="1">  1        2 0.51852581E-02 0.47623016E+03</pdfrwt>
<pdfrwt beam="2">  1       -2 0.22315537E+00 0.47623016E+03</pdfrwt>
<totfact> 0.15400937E+02</totfact>
</mgrwt>
</event>
<event>
 4    1  0.1837449E-005  0.4992366E+03  0.7818608E-02  0.1013978E+00
         -2   -1    0    0    0  501 -0.00000000000E+00  0.00000000000E+00  0.12246418693E+03  0.12246418696E+03  0.25500000000E-02 0. -1.
          2   -1    0    0  501    0  0.00000000000E+00 -0.00000000000E+00 -0.50879609953E+03  0.50879609953E+03  0.25500000000E-02 0.  1.
    5000001    1    1    2    0    0 -0.46849912529E+02 -0.12820009706E+03 -0.30970238709E+02  0.21636620548E+03  0.16500000000E+03 0.  0.
   -5000001    1    1    2    0    0  0.46849912529E+02  0.12820009706E+03 -0.35536167388E+03  0.41489408101E+03  0.16500000000E+03 0.  0.
<mgrwt>
<rscale>  0 0.49923662E+03</rscale>
<asrwt>0</asrwt>
<pdfrwt beam="1">  1        2 0.72685156E-01 0.49923662E+03</pdfrwt>
<pdfrwt beam="2">  1       -2 0.17494884E-01 0.49923662E+03</pdfrwt>
<totfact> 0.17656953E+03</totfact>
</mgrwt>
</event>
<event>
 4    1  0.1837449E-005  0.5534318E+03  0.7818608E-02  0.1000703E+00
         -2   -1    0    0    0  501 -0.00000000000E+00  0.00000000000E+00  0.33398040964E+02  0.33398041061E+02  0.25500000000E-02 0. -1.
          2   -1    0    0  501    0  0.00000000000E+00 -0.00000000000E+00 -0.22926999396E+04  0.22926999396E+04  0.25500000000E-02 0.  1.
    5000001    1    1    2    0    0  0.21334827131E+03  0.61243694311E+02 -0.11668690498E+04  0.11991983382E+04  0.16500000000E+03 0.  0.
   -5000001    1    1    2    0    0 -0.21334827131E+03 -0.61243694311E+02 -0.10924328489E+04  0.11268996425E+04  0.16500000000E+03 0.  0.
<mgrwt>
<rscale>  0 0.55343179E+03</rscale>
<asrwt>0</asrwt>
<pdfrwt beam="1">  1        2 0.32752846E+00 0.55343179E+03</pdfrwt>
<pdfrwt beam="2">  1       -2 0.47711502E-02 0.55343179E+03</pdfrwt>
<totfact> 0.13058389E+03</totfact>
</mgrwt>
</event>
<event>
 4    1  0.1837449E-005  0.6770354E+03  0.7818608E-02  0.9757331E-01
         -2   -1    0    0    0  501 -0.00000000000E+00  0.00000000000E+00  0.42451003143E+03  0.42451003144E+03  0.25500000000E-02 0. -1.
          2   -1    0    0  501    0  0.00000000000E+00 -0.00000000000E+00 -0.26994473718E+03  0.26994473720E+03  0.25500000000E-02 0.  1.
    5000001    1    1    2    0    0 -0.27622735506E+03  0.80042021012E+02  0.14731049949E+03  0.36281353348E+03  0.16500000000E+03 0.  0.
   -5000001    1    1    2    0    0  0.27622735506E+03 -0.80042021012E+02  0.72547947589E+01  0.33164123516E+03  0.16500000000E+03 0.  0.
<mgrwt>
<rscale>  0 0.67703545E+03</rscale>
<asrwt>0</asrwt>
<pdfrwt beam="1">  1        2 0.38563534E-01 0.67703545E+03</pdfrwt>
<pdfrwt beam="2">  1       -2 0.60644290E-01 0.67703545E+03</pdfrwt>
<totfact> 0.34278997E+02</totfact>
</mgrwt>
</event>
<event>
 4    1  0.1837449E-005  0.4236128E+03  0.7818608E-02  0.1035897E+00
         -2   -1    0    0    0  501 -0.00000000000E+00  0.00000000000E+00  0.30301083002E+02  0.30301083110E+02  0.25500000000E-02 0. -1.
          2   -1    0    0  501    0  0.00000000000E+00 -0.00000000000E+00 -0.14805392141E+04  0.14805392141E+04  0.25500000000E-02 0.  1.
    5000001    1    1    2    0    0  0.32948832092E+01 -0.12203298624E+03 -0.91160737947E+03  0.93442812473E+03  0.16500000000E+03 0.  0.
   -5000001    1    1    2    0    0 -0.32948832092E+01  0.12203298624E+03 -0.53863075164E+03  0.57641217249E+03  0.16500000000E+03 0.  0.
<mgrwt>
<rscale>  0 0.42361276E+03</rscale>
<asrwt>0</asrwt>
<pdfrwt beam="1">  1        2 0.21150556E+00 0.42361276E+03</pdfrwt>
<pdfrwt beam="2">  1       -2 0.43287271E-02 0.42361276E+03</pdfrwt>
<totfact> 0.39013995E+03</totfact>
</mgrwt>
</event>
<event>
 4    1  0.1837449E-005  0.7284710E+03  0.7818608E-02  0.9669745E-01
          2   -1    0    0  501    0  0.00000000000E+00  0.00000000000E+00  0.25435945888E+04  0.25435945888E+04  0.25500000000E-02 0.  1.
         -2   -1    0    0    0  501 -0.00000000000E+00 -0.00000000000E+00 -0.52157485888E+02  0.52157485951E+02  0.25500000000E-02 0. -1.
    5000001    1    1    2    0    0  0.22587605516E+02  0.29317531534E+03  0.75480485288E+03  0.82669058987E+03  0.16500000000E+03 0.  0.
   -5000001    1    1    2    0    0 -0.22587605516E+02 -0.29317531534E+03  0.17366322500E+04  0.17690614848E+04  0.16500000000E+03 0.  0.
<mgrwt>
<rscale>  0 0.72847100E+03</rscale>
<asrwt>0</asrwt>
<pdfrwt beam="1">  1        2 0.36337069E+00 0.72847100E+03</pdfrwt>
<pdfrwt beam="2">  1       -2 0.74510687E-02 0.72847100E+03</pdfrwt>
<totfact> 0.47711624E+02</totfact>
</mgrwt>
</event>
<event>
 4    1  0.1837449E-005  0.4719349E+03  0.7818608E-02  0.1021376E+00
          2   -1    0    0  501    0  0.00000000000E+00  0.00000000000E+00  0.14166186905E+03  0.14166186907E+03  0.25500000000E-02 0.  1.
         -2   -1    0    0    0  501 -0.00000000000E+00 -0.00000000000E+00 -0.39305312134E+03  0.39305312135E+03  0.25500000000E-02 0. -1.
    5000001    1    1    2    0    0  0.11438364226E+03  0.11688665416E+03 -0.78848936488E+02  0.24533296216E+03  0.16500000000E+03 0.  0.
   -5000001    1    1    2    0    0 -0.11438364226E+03 -0.11688665416E+03 -0.17254231581E+03  0.28938202826E+03  0.16500000000E+03 0.  0.
<mgrwt>
<rscale>  0 0.47193491E+03</rscale>
<asrwt>0</asrwt>
<pdfrwt beam="1">  1        2 0.20237410E-01 0.47193491E+03</pdfrwt>
<pdfrwt beam="2">  1       -2 0.56150445E-01 0.47193491E+03</pdfrwt>
<totfact> 0.83750385E+02</totfact>
</mgrwt>
</event>
<event>
 4    1  0.1837449E-005  0.9006317E+03  0.7818608E-02  0.9424792E-01
          2   -1    0    0  501    0  0.00000000000E+00  0.00000000000E+00  0.35743253732E+03  0.35743253733E+03  0.25500000000E-02 0.  1.
         -2   -1    0    0    0  501 -0.00000000000E+00 -0.00000000000E+00 -0.56733606029E+03  0.56733606029E+03  0.25500000000E-02 0. -1.
    5000001    1    1    2    0    0  0.30676984117E+02  0.30264007149E+03  0.19091504241E+03  0.39522859670E+03  0.16500000000E+03 0.  0.
   -5000001    1    1    2    0    0 -0.30676984117E+02 -0.30264007149E+03 -0.40081856538E+03  0.52954000093E+03  0.16500000000E+03 0.  0.
<mgrwt>
<rscale>  0 0.90063171E+03</rscale>
<asrwt>0</asrwt>
<pdfrwt beam="1">  1        2 0.51061791E-01 0.90063171E+03</pdfrwt>
<pdfrwt beam="2">  1       -2 0.81048009E-01 0.90063171E+03</pdfrwt>
<totfact> 0.13218492E+02</totfact>
</mgrwt>
</event>
<event>
 4    1  0.1837449E-005  0.3871526E+03  0.7818608E-02  0.1048321E+00
          2   -1    0    0  501    0  0.00000000000E+00  0.00000000000E+00  0.87245974913E+03  0.87245974913E+03  0.25500000000E-02 0.  1.
         -2   -1    0    0    0  501 -0.00000000000E+00 -0.00000000000E+00 -0.42949582683E+02  0.42949582759E+02  0.25500000000E-02 0. -1.
    5000001    1    1    2    0    0  0.85114803396E+02  0.51064614586E+02  0.36778261591E+03  0.41513994892E+03  0.16500000000E+03 0.  0.
   -5000001    1    1    2    0    0 -0.85114803396E+02 -0.51064614586E+02  0.46172755053E+03  0.50026938298E+03  0.16500000000E+03 0.  0.
<mgrwt>
<rscale>  0 0.38715259E+03</rscale>
<asrwt>0</asrwt>
<pdfrwt beam="1">  1        2 0.12463710E+00 0.38715259E+03</pdfrwt>
<pdfrwt beam="2">  1       -2 0.61356550E-02 0.38715259E+03</pdfrwt>
<totfact> 0.50226480E+03</totfact>
</mgrwt>
</event>
<event>
 4    1  0.1837449E-005  0.4822877E+03  0.7818608E-02  0.1018508E+00
         -2   -1    0    0    0  501 -0.00000000000E+00  0.00000000000E+00  0.10030685991E+03  0.10030685994E+03  0.25500000000E-02 0. -1.
          2   -1    0    0  501    0  0.00000000000E+00 -0.00000000000E+00 -0.57972459601E+03  0.57972459601E+03  0.25500000000E-02 0.  1.
    5000001    1    1    2    0    0 -0.11620619111E+03 -0.12417192976E+03 -0.30281075707E+03  0.38450214770E+03  0.16500000000E+03 0.  0.
   -5000001    1    1    2    0    0  0.11620619111E+03  0.12417192976E+03 -0.17660697903E+03  0.29552930825E+03  0.16500000000E+03 0.  0.
<mgrwt>
<rscale>  0 0.48228769E+03</rscale>
<asrwt>0</asrwt>
<pdfrwt beam="1">  1        2 0.82817798E-01 0.48228769E+03</pdfrwt>
<pdfrwt beam="2">  1       -2 0.14329552E-01 0.48228769E+03</pdfrwt>
<totfact> 0.21281899E+03</totfact>
</mgrwt>
</event>
<event>
 4    1  0.1837449E-005  0.5402822E+03  0.7818608E-02  0.1003769E+00
         -2   -1    0    0    0  501 -0.00000000000E+00  0.00000000000E+00  0.48243312379E+02  0.48243312446E+02  0.25500000000E-02 0. -1.
          2   -1    0    0  501    0  0.00000000000E+00 -0.00000000000E+00 -0.15126700123E+04  0.15126700123E+04  0.25500000000E-02 0.  1.
    5000001    1    1    2    0    0 -0.16814391347E+03 -0.12770257773E+03 -0.83107225810E+03  0.87320468515E+03  0.16500000000E+03 0.  0.
   -5000001    1    1    2    0    0  0.16814391347E+03  0.12770257773E+03 -0.63335444182E+03  0.68770863959E+03  0.16500000000E+03 0.  0.
<mgrwt>
<rscale>  0 0.54028219E+03</rscale>
<asrwt>0</asrwt>
<pdfrwt beam="1">  1        2 0.21609569E+00 0.54028219E+03</pdfrwt>
<pdfrwt beam="2">  1       -2 0.68919027E-02 0.54028219E+03</pdfrwt>
<totfact> 0.18225416E+03</totfact>
</mgrwt>
</event>
<event>
 4    1  0.1837449E-005  0.4619781E+03  0.7818608E-02  0.1024209E+00
         -2   -1    0    0    0  501 -0.00000000000E+00  0.00000000000E+00  0.87248865346E+02  0.87248865384E+02  0.25500000000E-02 0. -1.
          2   -1    0    0  501    0  0.00000000000E+00 -0.00000000000E+00 -0.61153726055E+03  0.61153726056E+03  0.25500000000E-02 0.  1.
    5000001    1    1    2    0    0 -0.13324381734E+03  0.43265431426E+01 -0.40043135682E+03  0.45314777431E+03  0.16500000000E+03 0.  0.
   -5000001    1    1    2    0    0  0.13324381734E+03 -0.43265431426E+01 -0.12385703839E+03  0.24563835163E+03  0.16500000000E+03 0.  0.
<mgrwt>
<rscale>  0 0.46197806E+03</rscale>
<asrwt>0</asrwt>
<pdfrwt beam="1">  1        2 0.87362463E-01 0.46197806E+03</pdfrwt>
<pdfrwt beam="2">  1       -2 0.12464124E-01 0.46197806E+03</pdfrwt>
<totfact> 0.25180592E+03</totfact>
</mgrwt>
</event>
<event>
 4    1  0.1837449E-005  0.5068479E+03  0.7818608E-02  0.1012007E+00
          2   -1    0    0  501    0  0.00000000000E+00  0.00000000000E+00  0.28715699287E+04  0.28715699287E+04  0.25500000000E-02 0.  1.
         -2   -1    0    0    0  501 -0.00000000000E+00 -0.00000000000E+00 -0.22365362981E+02  0.22365363127E+02  0.25500000000E-02 0. -1.
    5000001    1    1    2    0    0  0.15744977368E+02  0.16054759797E+03  0.20227641482E+04  0.20358838953E+04  0.16500000000E+03 0.  0.
   -5000001    1    1    2    0    0 -0.15744977368E+02 -0.16054759797E+03  0.82644041742E+03  0.85805139652E+03  0.16500000000E+03 0.  0.
<mgrwt>
<rscale>  0 0.50684792E+03</rscale>
<asrwt>0</asrwt>
<pdfrwt beam="1">  1        2 0.41022417E+00 0.50684792E+03</pdfrwt>
<pdfrwt beam="2">  1       -2 0.31950527E-02 0.50684792E+03</pdfrwt>
<totfact> 0.12169550E+03</totfact>
</mgrwt>
</event>
<event>
 4    1  0.1837449E-005  0.3690256E+03  0.7818608E-02  0.1055066E+00
         -2   -1    0    0    0  501 -0.00000000000E+00  0.00000000000E+00  0.11045414420E+03  0.11045414423E+03  0.25500000000E-02 0. -1.
          2   -1    0    0  501    0  0.00000000000E+00 -0.00000000000E+00 -0.30822728443E+03  0.30822728444E+03  0.25500000000E-02 0.  1.
    5000001    1    1    2    0    0  0.36649166662E+02  0.97475841699E+01 -0.15654423158E+02  0.17002422703E+03  0.16500000000E+03 0.  0.
   -5000001    1    1    2    0    0 -0.36649166662E+02 -0.97475841699E+01 -0.18211871707E+03  0.24865720163E+03  0.16500000000E+03 0.  0.
<mgrwt>
<rscale>  0 0.36902564E+03</rscale>
<asrwt>0</asrwt>
<pdfrwt beam="1">  1        2 0.44032469E-01 0.36902564E+03</pdfrwt>
<pdfrwt beam="2">  1       -2 0.15779164E-01 0.36902564E+03</pdfrwt>
<totfact> 0.36389791E+03</totfact>
</mgrwt>
</event>
<event>
 4    1  0.1837449E-005  0.4485441E+03  0.7818608E-02  0.1028157E+00
          2   -1    0    0  501    0  0.00000000000E+00  0.00000000000E+00  0.50738068236E+02  0.50738068300E+02  0.25500000000E-02 0.  1.
         -2   -1    0    0    0  501 -0.00000000000E+00 -0.00000000000E+00 -0.99132577781E+03  0.99132577781E+03  0.25500000000E-02 0. -1.
    5000001    1    1    2    0    0  0.21549810202E+02 -0.82640827589E+02 -0.17846404364E+03  0.25762048749E+03  0.16500000000E+03 0.  0.
   -5000001    1    1    2    0    0 -0.21549810202E+02  0.82640827589E+02 -0.76212366593E+03  0.78444335862E+03  0.16500000000E+03 0.  0.
<mgrwt>
<rscale>  0 0.44854411E+03</rscale>
<asrwt>0</asrwt>
<pdfrwt beam="1">  1        2 0.72482961E-02 0.44854411E+03</pdfrwt>
<pdfrwt beam="2">  1       -2 0.14161796E+00 0.44854411E+03</pdfrwt>
<totfact> 0.35628941E+02</totfact>
</mgrwt>
</event>
<event>
 4    1  0.1837449E-005  0.3967966E+03  0.7818608E-02  0.1044895E+00
         -2   -1    0    0    0  501 -0.00000000000E+00  0.00000000000E+00  0.61691492295E+02  0.61691492348E+02  0.25500000000E-02 0. -1.
          2   -1    0    0  501    0  0.00000000000E+00 -0.00000000000E+00 -0.63804399025E+03  0.63804399025E+03  0.25500000000E-02 0.  1.
    5000001    1    1    2    0    0 -0.83208607729E+02  0.53994499661E+02 -0.20364393126E+03  0.28024084130E+03  0.16500000000E+03 0.  0.
   -5000001    1    1    2    0    0  0.83208607729E+02 -0.53994499661E+02 -0.37270856669E+03  0.41949464130E+03  0.16500000000E+03 0.  0.
<mgrwt>
<rscale>  0 0.39679660E+03</rscale>
<asrwt>0</asrwt>
<pdfrwt beam="1">  1        2 0.91149137E-01 0.39679660E+03</pdfrwt>
<pdfrwt beam="2">  1       -2 0.88130707E-02 0.39679660E+03</pdfrwt>
<totfact> 0.41845099E+03</totfact>
</mgrwt>
</event>
<event>
 4    1  0.1837449E-005  0.5580348E+03  0.7818608E-02  0.9996511E-01
          2   -1    0    0  501    0  0.00000000000E+00  0.00000000000E+00  0.12640470424E+04  0.12640470424E+04  0.25500000000E-02 0.  1.
         -2   -1    0    0    0  501 -0.00000000000E+00 -0.00000000000E+00 -0.61588455894E+02  0.61588455946E+02  0.25500000000E-02 0. -1.
    5000001    1    1    2    0    0 -0.22017000642E+03 -0.27082677392E+02  0.51179389671E+03  0.58169261285E+03  0.16500000000E+03 0.  0.
   -5000001    1    1    2    0    0  0.22017000642E+03  0.27082677392E+02  0.69066468982E+03  0.74394288551E+03  0.16500000000E+03 0.  0.
<mgrwt>
<rscale>  0 0.55803479E+03</rscale>
<asrwt>0</asrwt>
<pdfrwt beam="1">  1        2 0.18057814E+00 0.55803479E+03</pdfrwt>
<pdfrwt beam="2">  1       -2 0.87983512E-02 0.55803479E+03</pdfrwt>
<totfact> 0.16756109E+03</totfact>
</mgrwt>
</event>
<event>
 4    1  0.1837449E-005  0.5485084E+03  0.7818608E-02  0.1001840E+00
         -2   -1    0    0    0  501 -0.00000000000E+00  0.00000000000E+00  0.27146760831E+03  0.27146760832E+03  0.25500000000E-02 0. -1.
          2   -1    0    0  501    0  0.00000000000E+00 -0.00000000000E+00 -0.27706936667E+03  0.27706936668E+03  0.25500000000E-02 0.  1.
    5000001    1    1    2    0    0  0.10524184460E+03 -0.19058242243E+03 -0.27150715990E+02  0.27451715242E+03  0.16500000000E+03 0.  0.
   -5000001    1    1    2    0    0 -0.10524184460E+03  0.19058242243E+03  0.21548957634E+02  0.27401982258E+03  0.16500000000E+03 0.  0.
<mgrwt>
<rscale>  0 0.54850837E+03</rscale>
<asrwt>0</asrwt>
<pdfrwt beam="1">  1        2 0.39581338E-01 0.54850837E+03</pdfrwt>
<pdfrwt beam="2">  1       -2 0.38781087E-01 0.54850837E+03</pdfrwt>
<totfact> 0.82203036E+02</totfact>
</mgrwt>
</event>
<event>
 4    1  0.1837449E-005  0.1226906E+04  0.7818608E-02  0.9089627E-01
         -2   -1    0    0    0  501 -0.00000000000E+00  0.00000000000E+00  0.31851947048E+03  0.31851947049E+03  0.25500000000E-02 0. -1.
          2   -1    0    0  501    0  0.00000000000E+00 -0.00000000000E+00 -0.11814799598E+04  0.11814799598E+04  0.25500000000E-02 0.  1.
    5000001    1    1    2    0    0  0.51704212902E+03 -0.28479419302E+03 -0.40009340756E+03  0.73194264142E+03  0.16500000000E+03 0.  0.
   -5000001    1    1    2    0    0 -0.51704212902E+03  0.28479419302E+03 -0.46286708176E+03  0.76805678887E+03  0.16500000000E+03 0.  0.
<mgrwt>
<rscale>  0 0.12269057E+04</rscale>
<asrwt>0</asrwt>
<pdfrwt beam="1">  1        2 0.16878285E+00 0.12269057E+04</pdfrwt>
<pdfrwt beam="2">  1       -2 0.45502782E-01 0.12269057E+04</pdfrwt>
<totfact> 0.98776873E+01</totfact>
</mgrwt>
</event>
<event>
 4    1  0.1837449E-005  0.6076369E+03  0.7818608E-02  0.9889687E-01
          2   -1    0    0  501    0  0.00000000000E+00  0.00000000000E+00  0.10896862572E+03  0.10896862575E+03  0.25500000000E-02 0.  1.
         -2   -1    0    0    0  501 -0.00000000000E+00 -0.00000000000E+00 -0.84708462183E+03  0.84708462184E+03  0.25500000000E-02 0. -1.
    5000001    1    1    2    0    0  0.20216230771E+03  0.57366051430E+02 -0.59663098306E+03  0.65372317724E+03  0.16500000000E+03 0.  0.
   -5000001    1    1    2    0    0 -0.20216230771E+03 -0.57366051430E+02 -0.14148501306E+03  0.30233007034E+03  0.16500000000E+03 0.  0.
<mgrwt>
<rscale>  0 0.60763689E+03</rscale>
<asrwt>0</asrwt>
<pdfrwt beam="1">  1        2 0.15566947E-01 0.60763689E+03</pdfrwt>
<pdfrwt beam="2">  1       -2 0.12101208E+00 0.60763689E+03</pdfrwt>
<totfact> 0.20194700E+02</totfact>
</mgrwt>
</event>
<event>
 4    1  0.1837449E-005  0.6203657E+03  0.7818608E-02  0.9864032E-01
         -2   -1    0    0    0  501 -0.00000000000E+00  0.00000000000E+00  0.16818145341E+04  0.16818145341E+04  0.25500000000E-02 0. -1.
          2   -1    0    0  501    0  0.00000000000E+00 -0.00000000000E+00 -0.57208091454E+02  0.57208091511E+02  0.25500000000E-02 0.  1.
    5000001    1    1    2    0    0  0.20183479131E+03 -0.14225019306E+03  0.10632815899E+04  0.11039769653E+04  0.16500000000E+03 0.  0.
   -5000001    1    1    2    0    0 -0.20183479131E+03  0.14225019306E+03  0.56132485268E+03  0.63504566028E+03  0.16500000000E+03 0.  0.
<mgrwt>
<rscale>  0 0.62036570E+03</rscale>
<asrwt>0</asrwt>
<pdfrwt beam="1">  1        2 0.81725830E-02 0.62036570E+03</pdfrwt>
<pdfrwt beam="2">  1       -2 0.24025926E+00 0.62036570E+03</pdfrwt>
<totfact> 0.65837260E+01</totfact>
</mgrwt>
</event>
<event>
 4    1  0.1837449E-005  0.1689399E+04  0.7818608E-02  0.8767434E-01
          2   -1    0    0  501    0  0.00000000000E+00  0.00000000000E+00  0.24378834268E+04  0.24378834268E+04  0.25500000000E-02 0.  1.
         -2   -1    0    0    0  501 -0.00000000000E+00 -0.00000000000E+00 -0.29267902450E+03  0.29267902451E+03  0.25500000000E-02 0. -1.
    5000001    1    1    2    0    0 -0.64771398477E+02  0.67653407832E+03  0.30695275766E+03  0.76376612168E+03  0.16500000000E+03 0.  0.
   -5000001    1    1    2    0    0  0.64771398477E+02 -0.67653407832E+03  0.18382516446E+04  0.19667963296E+04  0.16500000000E+03 0.  0.
<mgrwt>
<rscale>  0 0.16893991E+04</rscale>
<asrwt>0</asrwt>
<pdfrwt beam="1">  1        2 0.34826905E+00 0.16893991E+04</pdfrwt>
<pdfrwt beam="2">  1       -2 0.41811290E-01 0.16893991E+04</pdfrwt>
<totfact> 0.24608001E+01</totfact>
</mgrwt>
</event>
<event>
 4    1  0.1837449E-005  0.3952685E+03  0.7818608E-02  0.1045430E+00
         -2   -1    0    0    0  501 -0.00000000000E+00  0.00000000000E+00  0.27762215067E+02  0.27762215184E+02  0.25500000000E-02 0. -1.
          2   -1    0    0  501    0  0.00000000000E+00 -0.00000000000E+00 -0.14069230148E+04  0.14069230148E+04  0.25500000000E-02 0.  1.
    5000001    1    1    2    0    0  0.37005602911E+02 -0.13745921020E+02 -0.10575187604E+04  0.10710412194E+04  0.16500000000E+03 0.  0.
   -5000001    1    1    2    0    0 -0.37005602911E+02  0.13745921020E+02 -0.32164203935E+03  0.36364401063E+03  0.16500000000E+03 0.  0.
<mgrwt>
<rscale>  0 0.39526851E+03</rscale>
<asrwt>0</asrwt>
<pdfrwt beam="1">  1        2 0.20098896E+00 0.39526851E+03</pdfrwt>
<pdfrwt beam="2">  1       -2 0.39660316E-02 0.39526851E+03</pdfrwt>
<totfact> 0.48664111E+03</totfact>
</mgrwt>
</event>
<event>
 4    1  0.1837449E-005  0.9676932E+03  0.7818608E-02  0.9344706E-01
         -2   -1    0    0    0  501 -0.00000000000E+00  0.00000000000E+00  0.93762634805E+03  0.93762634806E+03  0.25500000000E-02 0. -1.
          2   -1    0    0  501    0  0.00000000000E+00 -0.00000000000E+00 -0.24968102640E+03  0.24968102641E+03  0.25500000000E-02 0.  1.
    5000001    1    1    2    0    0  0.24715428788E+03 -0.27760176372E+03  0.22300872021E+02  0.40727178902E+03  0.16500000000E+03 0.  0.
   -5000001    1    1    2    0    0 -0.24715428788E+03  0.27760176372E+03  0.66564444964E+03  0.78003558545E+03  0.16500000000E+03 0.  0.
<mgrwt>
<rscale>  0 0.96769315E+03</rscale>
<asrwt>0</asrwt>
<pdfrwt beam="1">  1        2 0.35668719E-01 0.96769315E+03</pdfrwt>
<pdfrwt beam="2">  1       -2 0.13394662E+00 0.96769315E+03</pdfrwt>
<totfact> 0.58932679E+01</totfact>
</mgrwt>
</event>
<event>
 4    1  0.1837449E-005  0.4607240E+03  0.7818608E-02  0.1024571E+00
          2   -1    0    0  501    0  0.00000000000E+00  0.00000000000E+00  0.25076446737E+04  0.25076446737E+04  0.25500000000E-02 0.  1.
         -2   -1    0    0    0  501 -0.00000000000E+00 -0.00000000000E+00 -0.21161954356E+02  0.21161954510E+02  0.25500000000E-02 0. -1.
    5000001    1    1    2    0    0 -0.14271349183E+03 -0.59704111169E+02  0.10033665304E+04  0.10285432008E+04  0.16500000000E+03 0.  0.
   -5000001    1    1    2    0    0  0.14271349183E+03  0.59704111169E+02  0.14831161890E+04  0.15002634274E+04  0.16500000000E+03 0.  0.
<mgrwt>
<rscale>  0 0.46072405E+03</rscale>
<asrwt>0</asrwt>
<pdfrwt beam="1">  1        2 0.35823505E+00 0.46072405E+03</pdfrwt>
<pdfrwt beam="2">  1       -2 0.30231355E-02 0.46072405E+03</pdfrwt>
<totfact> 0.20519852E+03</totfact>
</mgrwt>
</event>
<event>
 4    1  0.1837449E-005  0.5791138E+03  0.7818608E-02  0.9949711E-01
         -2   -1    0    0    0  501 -0.00000000000E+00  0.00000000000E+00  0.44986738479E+03  0.44986738480E+03  0.25500000000E-02 0. -1.
          2   -1    0    0  501    0  0.00000000000E+00 -0.00000000000E+00 -0.18637316594E+03  0.18637316596E+03  0.25500000000E-02 0.  1.
    5000001    1    1    2    0    0  0.21047103210E+03  0.53439646321E+02  0.23862871650E+03  0.36238448572E+03  0.16500000000E+03 0.  0.
   -5000001    1    1    2    0    0 -0.21047103210E+03 -0.53439646321E+02  0.24865502353E+02  0.27385606504E+03  0.16500000000E+03 0.  0.
<mgrwt>
<rscale>  0 0.57911384E+03</rscale>
<asrwt>0</asrwt>
<pdfrwt beam="1">  1        2 0.26624738E-01 0.57911384E+03</pdfrwt>
<pdfrwt beam="2">  1       -2 0.64266769E-01 0.57911384E+03</pdfrwt>
<totfact> 0.46007694E+02</totfact>
</mgrwt>
</event>
<event>
 4    1  0.1837449E-005  0.4345688E+03  0.7818608E-02  0.1032426E+00
         -2   -1    0    0    0  501 -0.00000000000E+00  0.00000000000E+00  0.12478727481E+03  0.12478727483E+03  0.25500000000E-02 0. -1.
          2   -1    0    0  501    0  0.00000000000E+00 -0.00000000000E+00 -0.37834397633E+03  0.37834397634E+03  0.25500000000E-02 0.  1.
    5000001    1    1    2    0    0  0.41837977721E+02 -0.67938758813E+02  0.83461077240E+01  0.18346865902E+03  0.16500000000E+03 0.  0.
   -5000001    1    1    2    0    0 -0.41837977721E+02  0.67938758813E+02 -0.26190280925E+03  0.31966259215E+03  0.16500000000E+03 0.  0.
<mgrwt>
<rscale>  0 0.43456882E+03</rscale>
<asrwt>0</asrwt>
<pdfrwt beam="1">  1        2 0.54049139E-01 0.43456882E+03</pdfrwt>
<pdfrwt beam="2">  1       -2 0.17826754E-01 0.43456882E+03</pdfrwt>
<totfact> 0.23746665E+03</totfact>
</mgrwt>
</event>
<event>
 4    1  0.1837449E-005  0.6889178E+03  0.7818608E-02  0.9736374E-01
         -2   -1    0    0    0  501 -0.00000000000E+00  0.00000000000E+00  0.13964075327E+03  0.13964075330E+03  0.25500000000E-02 0. -1.
          2   -1    0    0  501    0  0.00000000000E+00 -0.00000000000E+00 -0.84969412198E+03  0.84969412199E+03  0.25500000000E-02 0.  1.
    5000001    1    1    2    0    0  0.18453643673E+03  0.22657127250E+03 -0.24343103448E+03  0.41457436794E+03  0.16500000000E+03 0.  0.
   -5000001    1    1    2    0    0 -0.18453643673E+03 -0.22657127250E+03 -0.46662233423E+03  0.57476050735E+03  0.16500000000E+03 0.  0.
<mgrwt>
<rscale>  0 0.68891778E+03</rscale>
<asrwt>0</asrwt>
<pdfrwt beam="1">  1        2 0.12138487E+00 0.68891778E+03</pdfrwt>
<pdfrwt beam="2">  1       -2 0.19948679E-01 0.68891778E+03</pdfrwt>
<totfact> 0.75555565E+02</totfact>
</mgrwt>
</event>
<event>
 4    1  0.1837449E-005  0.4575102E+03  0.7818608E-02  0.1025506E+00
          2   -1    0    0  501    0  0.00000000000E+00  0.00000000000E+00  0.12082008094E+04  0.12082008094E+04  0.25500000000E-02 0.  1.
         -2   -1    0    0    0  501 -0.00000000000E+00 -0.00000000000E+00 -0.43311428129E+02  0.43311428204E+02  0.25500000000E-02 0. -1.
    5000001    1    1    2    0    0  0.56908441261E+02  0.13540255776E+03  0.74500428985E+03  0.77706422851E+03  0.16500000000E+03 0.  0.
   -5000001    1    1    2    0    0 -0.56908441261E+02 -0.13540255776E+03  0.41988509140E+03  0.47444800908E+03  0.16500000000E+03 0.  0.
<mgrwt>
<rscale>  0 0.45751023E+03</rscale>
<asrwt>0</asrwt>
<pdfrwt beam="1">  1        2 0.17260012E+00 0.45751023E+03</pdfrwt>
<pdfrwt beam="2">  1       -2 0.61873469E-02 0.45751023E+03</pdfrwt>
<totfact> 0.31398782E+03</totfact>
</mgrwt>
</event>
<event>
 4    1  0.1837449E-005  0.5363891E+03  0.7818608E-02  0.1004694E+00
         -2   -1    0    0    0  501 -0.00000000000E+00  0.00000000000E+00  0.54842514712E+02  0.54842514771E+02  0.25500000000E-02 0. -1.
          2   -1    0    0  501    0  0.00000000000E+00 -0.00000000000E+00 -0.13115432378E+04  0.13115432378E+04  0.25500000000E-02 0.  1.
    5000001    1    1    2    0    0  0.17385553833E+03 -0.60527220465E+01 -0.93446997778E+03  0.96473909583E+03  0.16500000000E+03 0.  0.
   -5000001    1    1    2    0    0 -0.17385553833E+03  0.60527220465E+01 -0.32223074532E+03  0.40164665675E+03  0.16500000000E+03 0.  0.
<mgrwt>
<rscale>  0 0.53638915E+03</rscale>
<asrwt>0</asrwt>
<pdfrwt beam="1">  1        2 0.18736330E+00 0.53638915E+03</pdfrwt>
<pdfrwt beam="2">  1       -2 0.78346458E-02 0.53638915E+03</pdfrwt>
<totfact> 0.19005770E+03</totfact>
</mgrwt>
</event>
<event>
 4    1  0.1837449E-005  0.6285039E+03  0.7818608E-02  0.9847973E-01
          2   -1    0    0  501    0  0.00000000000E+00  0.00000000000E+00  0.35049277310E+03  0.35049277311E+03  0.25500000000E-02 0.  1.
         -2   -1    0    0    0  501 -0.00000000000E+00 -0.00000000000E+00 -0.28175841502E+03  0.28175841503E+03  0.25500000000E-02 0. -1.
    5000001    1    1    2    0    0 -0.36481843288E+02 -0.24894524271E+03 -0.56863277428E+02  0.30620759474E+03  0.16500000000E+03 0.  0.
   -5000001    1    1    2    0    0  0.36481843288E+02  0.24894524271E+03  0.12559763551E+03  0.32604359341E+03  0.16500000000E+03 0.  0.
<mgrwt>
<rscale>  0 0.62850390E+03</rscale>
<asrwt>0</asrwt>
<pdfrwt beam="1">  1        2 0.50070396E-01 0.62850390E+03</pdfrwt>
<pdfrwt beam="2">  1       -2 0.40251202E-01 0.62850390E+03</pdfrwt>
<totfact> 0.58955759E+02</totfact>
</mgrwt>
</event>
<event>
 4    1  0.1837449E-005  0.5416825E+03  0.7818608E-02  0.1003438E+00
         -2   -1    0    0    0  501 -0.00000000000E+00  0.00000000000E+00  0.15844282497E+02  0.15844282702E+02  0.25500000000E-02 0. -1.
          2   -1    0    0  501    0  0.00000000000E+00 -0.00000000000E+00 -0.46297444793E+04  0.46297444793E+04  0.25500000000E-02 0.  1.
    5000001    1    1    2    0    0  0.19486675595E+02  0.17892313556E+03 -0.33121168982E+04  0.33211047208E+04  0.16500000000E+03 0.  0.
   -5000001    1    1    2    0    0 -0.19486675595E+02 -0.17892313556E+03 -0.13017832986E+04  0.13244840413E+04  0.16500000000E+03 0.  0.
<mgrwt>
<rscale>  0 0.54168249E+03</rscale>
<asrwt>0</asrwt>
<pdfrwt beam="1">  1        2 0.66139120E+00 0.54168249E+03</pdfrwt>
<pdfrwt beam="2">  1       -2 0.22634719E-02 0.54168249E+03</pdfrwt>
<totfact> 0.15323890E+02</totfact>
</mgrwt>
</event>
<event>
 4    1  0.1837449E-005  0.3987010E+03  0.7818608E-02  0.1044230E+00
         -2   -1    0    0    0  501 -0.00000000000E+00  0.00000000000E+00  0.22523314194E+03  0.22523314195E+03  0.25500000000E-02 0. -1.
          2   -1    0    0  501    0  0.00000000000E+00 -0.00000000000E+00 -0.17644214853E+03  0.17644214855E+03  0.25500000000E-02 0.  1.
    5000001    1    1    2    0    0 -0.85362446068E+02 -0.55153818744E+02  0.71508967938E+02  0.20656045947E+03  0.16500000000E+03 0.  0.
   -5000001    1    1    2    0    0  0.85362446068E+02  0.55153818744E+02 -0.22717974529E+02  0.19511483103E+03  0.16500000000E+03 0.  0.
<mgrwt>
<rscale>  0 0.39870099E+03</rscale>
<asrwt>0</asrwt>
<pdfrwt beam="1">  1        2 0.25206021E-01 0.39870099E+03</pdfrwt>
<pdfrwt beam="2">  1       -2 0.32176163E-01 0.39870099E+03</pdfrwt>
<totfact> 0.19302997E+03</totfact>
</mgrwt>
</event>
<event>
 4    1  0.1837449E-005  0.4837822E+03  0.7818608E-02  0.1018101E+00
         -2   -1    0    0    0  501 -0.00000000000E+00  0.00000000000E+00  0.84036100989E+02  0.84036101027E+02  0.25500000000E-02 0. -1.
          2   -1    0    0  501    0  0.00000000000E+00 -0.00000000000E+00 -0.69626401112E+03  0.69626401113E+03  0.25500000000E-02 0.  1.
    5000001    1    1    2    0    0  0.10803098638E+03  0.56490254559E+01 -0.53182832395E+03  0.56724683486E+03  0.16500000000E+03 0.  0.
   -5000001    1    1    2    0    0 -0.10803098638E+03 -0.56490254559E+01 -0.80399586181E+02  0.21305327729E+03  0.16500000000E+03 0.  0.
<mgrwt>
<rscale>  0 0.48378224E+03</rscale>
<asrwt>0</asrwt>
<pdfrwt beam="1">  1        2 0.99466283E-01 0.48378224E+03</pdfrwt>
<pdfrwt beam="2">  1       -2 0.12005158E-01 0.48378224E+03</pdfrwt>
<totfact> 0.22952804E+03</totfact>
</mgrwt>
</event>
<event>
 4    1  0.1837449E-005  0.5641979E+03  0.7818608E-02  0.9982601E-01
          2   -1    0    0  501    0  0.00000000000E+00  0.00000000000E+00  0.70667195764E+03  0.70667195764E+03  0.25500000000E-02 0.  1.
         -2   -1    0    0    0  501 -0.00000000000E+00 -0.00000000000E+00 -0.11261210747E+03  0.11261210750E+03  0.25500000000E-02 0. -1.
    5000001    1    1    2    0    0 -0.74489419175E+02 -0.21596964135E+03  0.31558409246E+03  0.42309559082E+03  0.16500000000E+03 0.  0.
   -5000001    1    1    2    0    0  0.74489419175E+02  0.21596964135E+03  0.27847575771E+03  0.39618847432E+03  0.16500000000E+03 0.  0.
<mgrwt>
<rscale>  0 0.56419790E+03</rscale>
<asrwt>0</asrwt>
<pdfrwt beam="1">  1        2 0.10095313E+00 0.56419790E+03</pdfrwt>
<pdfrwt beam="2">  1       -2 0.16087444E-01 0.56419790E+03</pdfrwt>
<totfact> 0.13844557E+03</totfact>
</mgrwt>
</event>
<event>
 4    1  0.1837449E-005  0.7124982E+03  0.7818608E-02  0.9696094E-01
         -2   -1    0    0    0  501 -0.00000000000E+00  0.00000000000E+00  0.12929444300E+03  0.12929444303E+03  0.25500000000E-02 0. -1.
          2   -1    0    0  501    0  0.00000000000E+00 -0.00000000000E+00 -0.98158449274E+03  0.98158449274E+03  0.25500000000E-02 0.  1.
    5000001    1    1    2    0    0 -0.30486628210E+03 -0.34440807348E+02 -0.30990022637E+03  0.46625397530E+03  0.16500000000E+03 0.  0.
   -5000001    1    1    2    0    0  0.30486628210E+03  0.34440807348E+02 -0.54238982337E+03  0.64462496047E+03  0.16500000000E+03 0.  0.
<mgrwt>
<rscale>  0 0.71249820E+03</rscale>
<asrwt>0</asrwt>
<pdfrwt beam="1">  1        2 0.14022635E+00 0.71249820E+03</pdfrwt>
<pdfrwt beam="2">  1       -2 0.18470635E-01 0.71249820E+03</pdfrwt>
<totfact> 0.70988855E+02</totfact>
</mgrwt>
</event>
<event>
 4    1  0.1837449E-005  0.2022031E+04  0.7818608E-02  0.8596389E-01
          2   -1    0    0  501    0  0.00000000000E+00  0.00000000000E+00  0.19705633408E+04  0.19705633408E+04  0.25500000000E-02 0.  1.
         -2   -1    0    0    0  501 -0.00000000000E+00 -0.00000000000E+00 -0.51871063636E+03  0.51871063637E+03  0.25500000000E-02 0. -1.
    5000001    1    1    2    0    0 -0.99493855495E+03  0.33735494725E+02  0.80267240300E+03  0.12893986188E+04  0.16500000000E+03 0.  0.
   -5000001    1    1    2    0    0  0.99493855495E+03 -0.33735494725E+02  0.64918030141E+03  0.11998753583E+04  0.16500000000E+03 0.  0.
<mgrwt>
<rscale>  0 0.20220308E+04</rscale>
<asrwt>0</asrwt>
<pdfrwt beam="1">  1        2 0.28150904E+00 0.20220308E+04</pdfrwt>
<pdfrwt beam="2">  1       -2 0.74101520E-01 0.20220308E+04</pdfrwt>
<totfact> 0.12685338E+01</totfact>
</mgrwt>
</event>
<event>
 4    1  0.1837449E-005  0.4259400E+03  0.7818608E-02  0.1035150E+00
         -2   -1    0    0    0  501 -0.00000000000E+00  0.00000000000E+00  0.52898866282E+02  0.52898866343E+02  0.25500000000E-02 0. -1.
          2   -1    0    0  501    0  0.00000000000E+00 -0.00000000000E+00 -0.85741366099E+03  0.85741366100E+03  0.25500000000E-02 0.  1.
    5000001    1    1    2    0    0 -0.12665187973E+03  0.41121497124E+02 -0.44497621916E+03  0.49291024719E+03  0.16500000000E+03 0.  0.
   -5000001    1    1    2    0    0  0.12665187973E+03 -0.41121497124E+02 -0.35953857555E+03  0.41740228015E+03  0.16500000000E+03 0.  0.
<mgrwt>
<rscale>  0 0.42593995E+03</rscale>
<asrwt>0</asrwt>
<pdfrwt beam="1">  1        2 0.12248766E+00 0.42593995E+03</pdfrwt>
<pdfrwt beam="2">  1       -2 0.75569814E-02 0.42593995E+03</pdfrwt>
<totfact> 0.37145201E+03</totfact>
</mgrwt>
</event>
<event>
 4    1  0.1837449E-005  0.4320006E+03  0.7818608E-02  0.1033230E+00
          2   -1    0    0  501    0  0.00000000000E+00  0.00000000000E+00  0.17624961819E+03  0.17624961821E+03  0.25500000000E-02 0.  1.
         -2   -1    0    0    0  501 -0.00000000000E+00 -0.00000000000E+00 -0.26471619202E+03  0.26471619203E+03  0.25500000000E-02 0. -1.
    5000001    1    1    2    0    0 -0.66003345140E+02 -0.11506232742E+03 -0.87963306515E+02  0.22925602294E+03  0.16500000000E+03 0.  0.
   -5000001    1    1    2    0    0  0.66003345140E+02  0.11506232742E+03 -0.50326731542E+00  0.21170978730E+03  0.16500000000E+03 0.  0.
<mgrwt>
<rscale>  0 0.43200059E+03</rscale>
<asrwt>0</asrwt>
<pdfrwt beam="1">  1        2 0.25178517E-01 0.43200059E+03</pdfrwt>
<pdfrwt beam="2">  1       -2 0.37816599E-01 0.43200059E+03</pdfrwt>
<totfact> 0.14277279E+03</totfact>
</mgrwt>
</event>
<event>
 4    1  0.1837449E-005  0.3872924E+03  0.7818608E-02  0.1048271E+00
          2   -1    0    0  501    0  0.00000000000E+00  0.00000000000E+00  0.12553671867E+04  0.12553671867E+04  0.25500000000E-02 0.  1.
         -2   -1    0    0    0  501 -0.00000000000E+00 -0.00000000000E+00 -0.29870823002E+02  0.29870823111E+02  0.25500000000E-02 0. -1.
    5000001    1    1    2    0    0 -0.49633075197E+02  0.88164446887E+02  0.63305342608E+03  0.66198040161E+03  0.16500000000E+03 0.  0.
   -5000001    1    1    2    0    0  0.49633075197E+02 -0.88164446887E+02  0.59244293764E+03  0.62325760822E+03  0.16500000000E+03 0.  0.
<mgrwt>
<rscale>  0 0.38729240E+03</rscale>
<asrwt>0</asrwt>
<pdfrwt beam="1">  1        2 0.17933817E+00 0.38729240E+03</pdfrwt>
<pdfrwt beam="2">  1       -2 0.42672603E-02 0.38729240E+03</pdfrwt>
<totfact> 0.52386179E+03</totfact>
</mgrwt>
</event>
<event>
 4    1  0.1837449E-005  0.5757901E+03  0.7818608E-02  0.9956947E-01
         -2   -1    0    0    0  501 -0.00000000000E+00  0.00000000000E+00  0.55812307432E+02  0.55812307491E+02  0.25500000000E-02 0. -1.
          2   -1    0    0  501    0  0.00000000000E+00 -0.00000000000E+00 -0.14850410690E+04  0.14850410690E+04  0.25500000000E-02 0.  1.
    5000001    1    1    2    0    0  0.18083441875E+03 -0.10728464615E+03 -0.10009346979E+04  0.10360049960E+04  0.16500000000E+03 0.  0.
   -5000001    1    1    2    0    0 -0.18083441875E+03  0.10728464615E+03 -0.42829406372E+03  0.50484838053E+03  0.16500000000E+03 0.  0.
<mgrwt>
<rscale>  0 0.57579013E+03</rscale>
<asrwt>0</asrwt>
<pdfrwt beam="1">  1        2 0.21214870E+00 0.57579013E+03</pdfrwt>
<pdfrwt beam="2">  1       -2 0.79731877E-02 0.57579013E+03</pdfrwt>
<totfact> 0.14940128E+03</totfact>
</mgrwt>
</event>
<event>
 4    1  0.1837449E-005  0.4610670E+03  0.7818608E-02  0.1024472E+00
          2   -1    0    0  501    0  0.00000000000E+00  0.00000000000E+00  0.10498053404E+04  0.10498053404E+04  0.25500000000E-02 0.  1.
         -2   -1    0    0    0  501 -0.00000000000E+00 -0.00000000000E+00 -0.50624335459E+02  0.50624335524E+02  0.25500000000E-02 0. -1.
    5000001    1    1    2    0    0 -0.45869273512E+01  0.14736506427E+03  0.34522426032E+03  0.41005157235E+03  0.16500000000E+03 0.  0.
   -5000001    1    1    2    0    0  0.45869273512E+01 -0.14736506427E+03  0.65395674467E+03  0.69037810362E+03  0.16500000000E+03 0.  0.
<mgrwt>
<rscale>  0 0.46106701E+03</rscale>
<asrwt>0</asrwt>
<pdfrwt beam="1">  1        2 0.14997219E+00 0.46106701E+03</pdfrwt>
<pdfrwt beam="2">  1       -2 0.72320480E-02 0.46106701E+03</pdfrwt>
<totfact> 0.30272864E+03</totfact>
</mgrwt>
</event>
<event>
 4    1  0.1837449E-005  0.3597551E+03  0.7818608E-02  0.1058681E+00
         -2   -1    0    0    0  501 -0.00000000000E+00  0.00000000000E+00  0.28727372670E+03  0.28727372671E+03  0.25500000000E-02 0. -1.
          2   -1    0    0  501    0  0.00000000000E+00 -0.00000000000E+00 -0.11263101590E+03  0.11263101592E+03  0.25500000000E-02 0.  1.
    5000001    1    1    2    0    0 -0.64826199312E+02 -0.15955288628E+02  0.58464090036E+02  0.18735009254E+03  0.16500000000E+03 0.  0.
   -5000001    1    1    2    0    0  0.64826199312E+02  0.15955288628E+02  0.11617862077E+03  0.21255465009E+03  0.16500000000E+03 0.  0.
<mgrwt>
<rscale>  0 0.35975509E+03</rscale>
<asrwt>0</asrwt>
<pdfrwt beam="1">  1        2 0.16090145E-01 0.35975509E+03</pdfrwt>
<pdfrwt beam="2">  1       -2 0.41039103E-01 0.35975509E+03</pdfrwt>
<totfact> 0.20442926E+03</totfact>
</mgrwt>
</event>
<event>
 4    1  0.1837449E-005  0.9432194E+03  0.7818608E-02  0.9373111E-01
         -2   -1    0    0    0  501 -0.00000000000E+00  0.00000000000E+00  0.16148465682E+03  0.16148465685E+03  0.25500000000E-02 0. -1.
          2   -1    0    0  501    0  0.00000000000E+00 -0.00000000000E+00 -0.13773179540E+04  0.13773179540E+04  0.25500000000E-02 0.  1.
    5000001    1    1    2    0    0 -0.24495137329E+03  0.32393432354E+03 -0.32414001913E+03  0.54518471480E+03  0.16500000000E+03 0.  0.
   -5000001    1    1    2    0    0  0.24495137329E+03 -0.32393432354E+03 -0.89169327805E+03  0.99361789606E+03  0.16500000000E+03 0.  0.
<mgrwt>
<rscale>  0 0.94321942E+03</rscale>
<asrwt>0</asrwt>
<pdfrwt beam="1">  1        2 0.19675970E+00 0.94321942E+03</pdfrwt>
<pdfrwt beam="2">  1       -2 0.23069238E-01 0.94321942E+03</pdfrwt>
<totfact> 0.28175429E+02</totfact>
</mgrwt>
</event>
<event>
 4    1  0.1837449E-005  0.4912518E+03  0.7818608E-02  0.1016088E+00
          2   -1    0    0  501    0  0.00000000000E+00  0.00000000000E+00  0.19814064798E+04  0.19814064798E+04  0.25500000000E-02 0.  1.
         -2   -1    0    0    0  501 -0.00000000000E+00 -0.00000000000E+00 -0.30449117139E+02  0.30449117246E+02  0.25500000000E-02 0. -1.
    5000001    1    1    2    0    0  0.99295231585E+02 -0.14431249511E+03  0.77395345351E+03  0.81050267579E+03  0.16500000000E+03 0.  0.
   -5000001    1    1    2    0    0 -0.99295231585E+02  0.14431249511E+03  0.11770039091E+04  0.12013529212E+04  0.16500000000E+03 0.  0.
<mgrwt>
<rscale>  0 0.49125178E+03</rscale>
<asrwt>0</asrwt>
<pdfrwt beam="1">  1        2 0.28305793E+00 0.49125178E+03</pdfrwt>
<pdfrwt beam="2">  1       -2 0.43498759E-02 0.49125178E+03</pdfrwt>
<totfact> 0.21626204E+03</totfact>
</mgrwt>
</event>
<event>
 4    1  0.1837449E-005  0.5248683E+03  0.7818608E-02  0.1007484E+00
          2   -1    0    0  501    0  0.00000000000E+00  0.00000000000E+00  0.22364588364E+04  0.22364588364E+04  0.25500000000E-02 0.  1.
         -2   -1    0    0    0  501 -0.00000000000E+00 -0.00000000000E+00 -0.30794966505E+02  0.30794966611E+02  0.25500000000E-02 0. -1.
    5000001    1    1    2    0    0  0.12652632938E+02 -0.18582187617E+03  0.14631243240E+04  0.14841319504E+04  0.16500000000E+03 0.  0.
   -5000001    1    1    2    0    0 -0.12652632938E+02  0.18582187617E+03  0.74253954587E+03  0.78312185257E+03  0.16500000000E+03 0.  0.
<mgrwt>
<rscale>  0 0.52486827E+03</rscale>
<asrwt>0</asrwt>
<pdfrwt beam="1">  1        2 0.31949413E+00 0.52486827E+03</pdfrwt>
<pdfrwt beam="2">  1       -2 0.43992809E-02 0.52486827E+03</pdfrwt>
<totfact> 0.15821693E+03</totfact>
</mgrwt>
</event>
<event>
 4    1  0.1837449E-005  0.1514658E+04  0.7818608E-02  0.8874764E-01
         -2   -1    0    0    0  501 -0.00000000000E+00  0.00000000000E+00  0.43285209526E+03  0.43285209526E+03  0.25500000000E-02 0. -1.
          2   -1    0    0  501    0  0.00000000000E+00 -0.00000000000E+00 -0.13250421700E+04  0.13250421700E+04  0.25500000000E-02 0.  1.
    5000001    1    1    2    0    0  0.15952870431E+03  0.70715687923E+03 -0.27870450176E+03  0.79399084292E+03  0.16500000000E+03 0.  0.
   -5000001    1    1    2    0    0 -0.15952870431E+03 -0.70715687923E+03 -0.61348557300E+03  0.96390342235E+03  0.16500000000E+03 0.  0.
<mgrwt>
<rscale>  0 0.15146581E+04</rscale>
<asrwt>0</asrwt>
<pdfrwt beam="1">  1        2 0.18929174E+00 0.15146581E+04</pdfrwt>
<pdfrwt beam="2">  1       -2 0.61836014E-01 0.15146581E+04</pdfrwt>
<totfact> 0.42705342E+01</totfact>
</mgrwt>
</event>
<event>
 4    1  0.1837449E-005  0.4844395E+03  0.7818608E-02  0.1017922E+00
          2   -1    0    0  501    0  0.00000000000E+00  0.00000000000E+00  0.27889349501E+03  0.27889349503E+03  0.25500000000E-02 0.  1.
         -2   -1    0    0    0  501 -0.00000000000E+00 -0.00000000000E+00 -0.21036853524E+03  0.21036853525E+03  0.25500000000E-02 0. -1.
    5000001    1    1    2    0    0 -0.88308361342E+02 -0.15365511604E+03  0.28106337696E+02  0.24376879945E+03  0.16500000000E+03 0.  0.
   -5000001    1    1    2    0    0  0.88308361342E+02  0.15365511604E+03  0.40418622081E+02  0.24549323082E+03  0.16500000000E+03 0.  0.
<mgrwt>
<rscale>  0 0.48443954E+03</rscale>
<asrwt>0</asrwt>
<pdfrwt beam="1">  1        2 0.39841928E-01 0.48443954E+03</pdfrwt>
<pdfrwt beam="2">  1       -2 0.30052648E-01 0.48443954E+03</pdfrwt>
<totfact> 0.13187686E+03</totfact>
</mgrwt>
</event>
<event>
 4    1  0.1837449E-005  0.8481452E+03  0.7818608E-02  0.9492830E-01
         -2   -1    0    0    0  501 -0.00000000000E+00  0.00000000000E+00  0.18594387524E+03  0.18594387526E+03  0.25500000000E-02 0. -1.
          2   -1    0    0  501    0  0.00000000000E+00 -0.00000000000E+00 -0.96716051454E+03  0.96716051455E+03  0.25500000000E-02 0.  1.
    5000001    1    1    2    0    0  0.74705489975E+02 -0.38315587436E+03 -0.37029484569E+03  0.56279002037E+03  0.16500000000E+03 0.  0.
   -5000001    1    1    2    0    0 -0.74705489975E+02  0.38315587436E+03 -0.41092179362E+03  0.59031436943E+03  0.16500000000E+03 0.  0.
<mgrwt>
<rscale>  0 0.84814521E+03</rscale>
<asrwt>0</asrwt>
<pdfrwt beam="1">  1        2 0.13816578E+00 0.84814521E+03</pdfrwt>
<pdfrwt beam="2">  1       -2 0.26563411E-01 0.84814521E+03</pdfrwt>
<totfact> 0.37839330E+02</totfact>
</mgrwt>
</event>
<event>
 4    1  0.1837449E-005  0.7096386E+03  0.7818608E-02  0.9700889E-01
          2   -1    0    0  501    0  0.00000000000E+00  0.00000000000E+00  0.13109719402E+04  0.13109719402E+04  0.25500000000E-02 0.  1.
         -2   -1    0    0    0  501 -0.00000000000E+00 -0.00000000000E+00 -0.96033139948E+02  0.96033139982E+02  0.25500000000E-02 0. -1.
    5000001    1    1    2    0    0 -0.28246869314E+03 -0.91752451338E+02  0.81029432278E+03  0.87864040680E+03  0.16500000000E+03 0.  0.
   -5000001    1    1    2    0    0  0.28246869314E+03  0.91752451338E+02  0.40464447747E+03  0.52836467338E+03  0.16500000000E+03 0.  0.
<mgrwt>
<rscale>  0 0.70963865E+03</rscale>
<asrwt>0</asrwt>
<pdfrwt beam="1">  1        2 0.18728169E+00 0.70963865E+03</pdfrwt>
<pdfrwt beam="2">  1       -2 0.13719021E-01 0.70963865E+03</pdfrwt>
<totfact> 0.75988293E+02</totfact>
</mgrwt>
</event>
<event>
 4    1  0.1837449E-005  0.4397426E+03  0.7818608E-02  0.1030826E+00
          2   -1    0    0  501    0  0.00000000000E+00  0.00000000000E+00  0.99660328767E+03  0.99660328768E+03  0.25500000000E-02 0.  1.
         -2   -1    0    0    0  501 -0.00000000000E+00 -0.00000000000E+00 -0.48508153307E+02  0.48508153374E+02  0.25500000000E-02 0. -1.
    5000001    1    1    2    0    0  0.75611594637E+02 -0.12251100683E+03  0.42697291671E+03  0.47985094731E+03  0.16500000000E+03 0.  0.
   -5000001    1    1    2    0    0 -0.75611594637E+02  0.12251100683E+03  0.52112221766E+03  0.56526049374E+03  0.16500000000E+03 0.  0.
<mgrwt>
<rscale>  0 0.43974258E+03</rscale>
<asrwt>0</asrwt>
<pdfrwt beam="1">  1        2 0.14237189E+00 0.43974258E+03</pdfrwt>
<pdfrwt beam="2">  1       -2 0.69297368E-02 0.43974258E+03</pdfrwt>
<totfact> 0.34815429E+03</totfact>
</mgrwt>
</event>
<event>
 4    1  0.1837449E-005  0.4633687E+03  0.7818608E-02  0.1023809E+00
          2   -1    0    0  501    0  0.00000000000E+00  0.00000000000E+00  0.16411535110E+04  0.16411535110E+04  0.25500000000E-02 0.  1.
         -2   -1    0    0    0  501 -0.00000000000E+00 -0.00000000000E+00 -0.32707261701E+02  0.32707261801E+02  0.25500000000E-02 0. -1.
    5000001    1    1    2    0    0  0.14658971346E+03  0.46967422592E+02  0.99393824308E+03  0.10192314330E+04  0.16500000000E+03 0.  0.
   -5000001    1    1    2    0    0 -0.14658971346E+03 -0.46967422592E+02  0.61450800624E+03  0.65462933986E+03  0.16500000000E+03 0.  0.
<mgrwt>
<rscale>  0 0.46336870E+03</rscale>
<asrwt>0</asrwt>
<pdfrwt beam="1">  1        2 0.23445053E+00 0.46336870E+03</pdfrwt>
<pdfrwt beam="2">  1       -2 0.46724654E-02 0.46336870E+03</pdfrwt>
<totfact> 0.28718531E+03</totfact>
</mgrwt>
</event>
<event>
 4    1  0.1837449E-005  0.6383616E+03  0.7818608E-02  0.9828866E-01
         -2   -1    0    0    0  501 -0.00000000000E+00  0.00000000000E+00  0.91717816181E+02  0.91717816217E+02  0.25500000000E-02 0. -1.
          2   -1    0    0  501    0  0.00000000000E+00 -0.00000000000E+00 -0.11107589618E+04  0.11107589618E+04  0.25500000000E-02 0.  1.
    5000001    1    1    2    0    0  0.22678065742E+03  0.96312207562E+01 -0.79599763900E+03  0.84401390290E+03  0.16500000000E+03 0.  0.
   -5000001    1    1    2    0    0 -0.22678065742E+03 -0.96312207562E+01 -0.22304350661E+03  0.35846287511E+03  0.16500000000E+03 0.  0.
<mgrwt>
<rscale>  0 0.63836161E+03</rscale>
<asrwt>0</asrwt>
<pdfrwt beam="1">  1        2 0.15867984E+00 0.63836161E+03</pdfrwt>
<pdfrwt beam="2">  1       -2 0.13102546E-01 0.63836161E+03</pdfrwt>
<totfact> 0.10654953E+03</totfact>
</mgrwt>
</event>
<event>
 4    1  0.1837449E-005  0.3510332E+03  0.7818608E-02  0.1062192E+00
         -2   -1    0    0    0  501 -0.00000000000E+00  0.00000000000E+00  0.73372578749E+02  0.73372578793E+02  0.25500000000E-02 0. -1.
          2   -1    0    0  501    0  0.00000000000E+00 -0.00000000000E+00 -0.41985816937E+03  0.41985816938E+03  0.25500000000E-02 0.  1.
    5000001    1    1    2    0    0 -0.46055971416E+02  0.27648167860E+02 -0.21029818888E+03  0.27264611117E+03  0.16500000000E+03 0.  0.
   -5000001    1    1    2    0    0  0.46055971416E+02 -0.27648167860E+02 -0.13618740174E+03  0.22058463701E+03  0.16500000000E+03 0.  0.
<mgrwt>
<rscale>  0 0.35103320E+03</rscale>
<asrwt>0</asrwt>
<pdfrwt beam="1">  1        2 0.59979738E-01 0.35103320E+03</pdfrwt>
<pdfrwt beam="2">  1       -2 0.10481797E-01 0.35103320E+03</pdfrwt>
<totfact> 0.50729939E+03</totfact>
</mgrwt>
</event>
<event>
 4    1  0.1837449E-005  0.8073480E+03  0.7818608E-02  0.9549442E-01
          2   -1    0    0  501    0  0.00000000000E+00  0.00000000000E+00  0.35737910998E+03  0.35737910998E+03  0.25500000000E-02 0.  1.
         -2   -1    0    0    0  501 -0.00000000000E+00 -0.00000000000E+00 -0.45596591127E+03  0.45596591128E+03  0.25500000000E-02 0. -1.
    5000001    1    1    2    0    0 -0.29694024691E+03 -0.21390469015E+03 -0.65641391272E+01  0.40149323111E+03  0.16500000000E+03 0.  0.
   -5000001    1    1    2    0    0  0.29694024691E+03  0.21390469015E+03 -0.92022662168E+02  0.41185179016E+03  0.16500000000E+03 0.  0.
<mgrwt>
<rscale>  0 0.80734798E+03</rscale>
<asrwt>0</asrwt>
<pdfrwt beam="1">  1        2 0.51054158E-01 0.80734798E+03</pdfrwt>
<pdfrwt beam="2">  1       -2 0.65137987E-01 0.80734798E+03</pdfrwt>
<totfact> 0.21471271E+02</totfact>
</mgrwt>
</event>
<event>
 4    1  0.1837449E-005  0.7549469E+03  0.7818608E-02  0.9627621E-01
          2   -1    0    0  501    0  0.00000000000E+00  0.00000000000E+00  0.80024674088E+03  0.80024674089E+03  0.25500000000E-02 0.  1.
         -2   -1    0    0    0  501 -0.00000000000E+00 -0.00000000000E+00 -0.17805285664E+03  0.17805285666E+03  0.25500000000E-02 0. -1.
    5000001    1    1    2    0    0  0.30186947768E+03  0.10577923598E+03  0.16364975230E+03  0.39537408836E+03  0.16500000000E+03 0.  0.
   -5000001    1    1    2    0    0 -0.30186947768E+03 -0.10577923598E+03  0.45854413194E+03  0.58292550918E+03  0.16500000000E+03 0.  0.
<mgrwt>
<rscale>  0 0.75494693E+03</rscale>
<asrwt>0</asrwt>
<pdfrwt beam="1">  1        2 0.11432096E+00 0.75494693E+03</pdfrwt>
<pdfrwt beam="2">  1       -2 0.25436123E-01 0.75494693E+03</pdfrwt>
<totfact> 0.52944829E+02</totfact>
</mgrwt>
</event>
<event>
 4    1  0.1837449E-005  0.7499433E+03  0.7818608E-02  0.9635439E-01
         -2   -1    0    0    0  501 -0.00000000000E+00  0.00000000000E+00  0.32089760117E+03  0.32089760118E+03  0.25500000000E-02 0. -1.
          2   -1    0    0  501    0  0.00000000000E+00 -0.00000000000E+00 -0.43815768615E+03  0.43815768615E+03  0.25500000000E-02 0.  1.
    5000001    1    1    2    0    0 -0.77634863809E+02 -0.32674565370E+03 -0.83191241527E+02  0.38332189731E+03  0.16500000000E+03 0.  0.
   -5000001    1    1    2    0    0  0.77634863809E+02  0.32674565370E+03 -0.34068843449E+02  0.37573339003E+03  0.16500000000E+03 0.  0.
<mgrwt>
<rscale>  0 0.74994333E+03</rscale>
<asrwt>0</asrwt>
<pdfrwt beam="1">  1        2 0.62593956E-01 0.74994333E+03</pdfrwt>
<pdfrwt beam="2">  1       -2 0.45842514E-01 0.74994333E+03</pdfrwt>
<totfact> 0.35458453E+02</totfact>
</mgrwt>
</event>
<event>
 4    1  0.1837449E-005  0.4840191E+03  0.7818608E-02  0.1018036E+00
         -2   -1    0    0    0  501 -0.00000000000E+00  0.00000000000E+00  0.32377793893E+02  0.32377793993E+02  0.25500000000E-02 0. -1.
          2   -1    0    0  501    0  0.00000000000E+00 -0.00000000000E+00 -0.18089134746E+04  0.18089134746E+04  0.25500000000E-02 0.  1.
    5000001    1    1    2    0    0  0.38282829708E+02 -0.17117076484E+03 -0.79676018456E+03  0.83235617225E+03  0.16500000000E+03 0.  0.
   -5000001    1    1    2    0    0 -0.38282829708E+02  0.17117076484E+03 -0.97977549618E+03  0.10089350964E+04  0.16500000000E+03 0.  0.
<mgrwt>
<rscale>  0 0.48401912E+03</rscale>
<asrwt>0</asrwt>
<pdfrwt beam="1">  1        2 0.25841615E+00 0.48401912E+03</pdfrwt>
<pdfrwt beam="2">  1       -2 0.46254003E-02 0.48401912E+03</pdfrwt>
<totfact> 0.24002912E+03</totfact>
</mgrwt>
</event>
<event>
 4    1  0.1837449E-005  0.6110489E+03  0.7818608E-02  0.9882744E-01
         -2   -1    0    0    0  501 -0.00000000000E+00  0.00000000000E+00  0.30481337973E+02  0.30481338080E+02  0.25500000000E-02 0. -1.
          2   -1    0    0  501    0  0.00000000000E+00 -0.00000000000E+00 -0.30623722518E+04  0.30623722518E+04  0.25500000000E-02 0.  1.
    5000001    1    1    2    0    0 -0.96684241105E+02  0.18447132814E+03 -0.22792613090E+04  0.22946970667E+04  0.16500000000E+03 0.  0.
   -5000001    1    1    2    0    0  0.96684241105E+02 -0.18447132814E+03 -0.75262960488E+03  0.79815652319E+03  0.16500000000E+03 0.  0.
<mgrwt>
<rscale>  0 0.61104895E+03</rscale>
<asrwt>0</asrwt>
<pdfrwt beam="1">  1        2 0.43748155E+00 0.61104895E+03</pdfrwt>
<pdfrwt beam="2">  1       -2 0.43544788E-02 0.61104895E+03</pdfrwt>
<totfact> 0.59201698E+02</totfact>
</mgrwt>
</event>
<event>
 4    1  0.1837449E-005  0.5369176E+03  0.7818608E-02  0.1004568E+00
         -2   -1    0    0    0  501 -0.00000000000E+00  0.00000000000E+00  0.71600064634E+02  0.71600064680E+02  0.25500000000E-02 0. -1.
          2   -1    0    0  501    0  0.00000000000E+00 -0.00000000000E+00 -0.10065650553E+04  0.10065650553E+04  0.25500000000E-02 0.  1.
    5000001    1    1    2    0    0 -0.97350481043E+02 -0.18648199710E+03 -0.41860471954E+03  0.49669665050E+03  0.16500000000E+03 0.  0.
   -5000001    1    1    2    0    0  0.97350481043E+02  0.18648199710E+03 -0.51636027114E+03  0.58146846949E+03  0.16500000000E+03 0.  0.
<mgrwt>
<rscale>  0 0.53691758E+03</rscale>
<asrwt>0</asrwt>
<pdfrwt beam="1">  1        2 0.14379500E+00 0.53691758E+03</pdfrwt>
<pdfrwt beam="2">  1       -2 0.10228581E-01 0.53691758E+03</pdfrwt>
<totfact> 0.18472995E+03</totfact>
</mgrwt>
</event>
<event>
 4    1  0.1837449E-005  0.5209098E+03  0.7818608E-02  0.1008461E+00
         -2   -1    0    0    0  501 -0.00000000000E+00  0.00000000000E+00  0.37346430721E+02  0.37346430808E+02  0.25500000000E-02 0. -1.
          2   -1    0    0  501    0  0.00000000000E+00 -0.00000000000E+00 -0.18164189967E+04  0.18164189967E+04  0.25500000000E-02 0.  1.
    5000001    1    1    2    0    0 -0.51974545488E+02 -0.60491166070E+02 -0.23092326423E+03  0.29480686646E+03  0.16500000000E+03 0.  0.
   -5000001    1    1    2    0    0  0.51974545488E+02  0.60491166070E+02 -0.15481493018E+04  0.15589585611E+04  0.16500000000E+03 0.  0.
<mgrwt>
<rscale>  0 0.52090984E+03</rscale>
<asrwt>0</asrwt>
<pdfrwt beam="1">  1        2 0.25948837E+00 0.52090984E+03</pdfrwt>
<pdfrwt beam="2">  1       -2 0.53352055E-02 0.52090984E+03</pdfrwt>
<totfact> 0.19063070E+03</totfact>
</mgrwt>
</event>
<event>
 4    1  0.1837449E-005  0.3994794E+03  0.7818608E-02  0.1043960E+00
          2   -1    0    0  501    0  0.00000000000E+00  0.00000000000E+00  0.15943339026E+04  0.15943339026E+04  0.25500000000E-02 0.  1.
         -2   -1    0    0    0  501 -0.00000000000E+00 -0.00000000000E+00 -0.25023577588E+02  0.25023577717E+02  0.25500000000E-02 0. -1.
    5000001    1    1    2    0    0  0.77896705911E+02  0.36555086557E-01  0.45525761465E+03  0.49046140911E+03  0.16500000000E+03 0.  0.
   -5000001    1    1    2    0    0 -0.77896705911E+02 -0.36555086557E-01  0.11140527103E+04  0.11288960712E+04  0.16500000000E+03 0.  0.
<mgrwt>
<rscale>  0 0.39947935E+03</rscale>
<asrwt>0</asrwt>
<pdfrwt beam="1">  1        2 0.22776200E+00 0.39947935E+03</pdfrwt>
<pdfrwt beam="2">  1       -2 0.35747966E-02 0.39947935E+03</pdfrwt>
<totfact> 0.45649937E+03</totfact>
</mgrwt>
</event>
<event>
 4    1  0.1837449E-005  0.1107618E+04  0.7818608E-02  0.9197798E-01
         -2   -1    0    0    0  501 -0.00000000000E+00  0.00000000000E+00  0.10838346101E+04  0.10838346101E+04  0.25500000000E-02 0. -1.
          2   -1    0    0  501    0  0.00000000000E+00 -0.00000000000E+00 -0.28298086039E+03  0.28298086040E+03  0.25500000000E-02 0.  1.
    5000001    1    1    2    0    0 -0.47154154797E+03 -0.38483478740E+02  0.69152599230E+03  0.85397049575E+03  0.16500000000E+03 0.  0.
   -5000001    1    1    2    0    0  0.47154154797E+03  0.38483478740E+02  0.10932775744E+03  0.51284497477E+03  0.16500000000E+03 0.  0.
<mgrwt>
<rscale>  0 0.11076181E+04</rscale>
<asrwt>0</asrwt>
<pdfrwt beam="1">  1        2 0.40425837E-01 0.11076181E+04</pdfrwt>
<pdfrwt beam="2">  1       -2 0.15483352E+00 0.11076181E+04</pdfrwt>
<totfact> 0.34773350E+01</totfact>
</mgrwt>
</event>
<event>
 4    1  0.1837449E-005  0.3563157E+03  0.7818608E-02  0.1060052E+00
         -2   -1    0    0    0  501 -0.00000000000E+00  0.00000000000E+00  0.51108458863E+02  0.51108458927E+02  0.25500000000E-02 0. -1.
          2   -1    0    0  501    0  0.00000000000E+00 -0.00000000000E+00 -0.62103659326E+03  0.62103659326E+03  0.25500000000E-02 0.  1.
    5000001    1    1    2    0    0 -0.37642548078E+02  0.49943096518E+02 -0.23860570176E+03  0.29676414074E+03  0.16500000000E+03 0.  0.
   -5000001    1    1    2    0    0  0.37642548078E+02 -0.49943096518E+02 -0.33132243264E+03  0.37538091145E+03  0.16500000000E+03 0.  0.
<mgrwt>
<rscale>  0 0.35631572E+03</rscale>
<asrwt>0</asrwt>
<pdfrwt beam="1">  1        2 0.88719509E-01 0.35631572E+03</pdfrwt>
<pdfrwt beam="2">  1       -2 0.73012088E-02 0.35631572E+03</pdfrwt>
<totfact> 0.57966503E+03</totfact>
</mgrwt>
</event>
<event>
 4    1  0.1837449E-005  0.5505559E+03  0.7818608E-02  0.1001365E+00
         -2   -1    0    0    0  501 -0.00000000000E+00  0.00000000000E+00  0.54090221946E+02  0.54090222006E+02  0.25500000000E-02 0. -1.
          2   -1    0    0  501    0  0.00000000000E+00 -0.00000000000E+00 -0.14009545756E+04  0.14009545756E+04  0.25500000000E-02 0.  1.
    5000001    1    1    2    0    0 -0.33156858656E+02  0.21473768299E+03 -0.57664072947E+03  0.63792725342E+03  0.16500000000E+03 0.  0.
   -5000001    1    1    2    0    0  0.33156858656E+02 -0.21473768299E+03 -0.77022362418E+03  0.81711754418E+03  0.16500000000E+03 0.  0.
<mgrwt>
<rscale>  0 0.55055588E+03</rscale>
<asrwt>0</asrwt>
<pdfrwt beam="1">  1        2 0.20013634E+00 0.55055588E+03</pdfrwt>
<pdfrwt beam="2">  1       -2 0.77271755E-02 0.55055588E+03</pdfrwt>
<totfact> 0.17397473E+03</totfact>
</mgrwt>
</event>
<event>
 4    1  0.1837449E-005  0.5021678E+03  0.7818608E-02  0.1013215E+00
          2   -1    0    0  501    0  0.00000000000E+00  0.00000000000E+00  0.10262920641E+04  0.10262920641E+04  0.25500000000E-02 0.  1.
         -2   -1    0    0    0  501 -0.00000000000E+00 -0.00000000000E+00 -0.61428055475E+02  0.61428055528E+02  0.25500000000E-02 0. -1.
    5000001    1    1    2    0    0  0.99668558526E+01 -0.80208716894E+02  0.11175682895E+03  0.21505200603E+03  0.16500000000E+03 0.  0.
   -5000001    1    1    2    0    0 -0.99668558526E+01  0.80208716894E+02  0.85310717968E+03  0.87266811360E+03  0.16500000000E+03 0.  0.
<mgrwt>
<rscale>  0 0.50216780E+03</rscale>
<asrwt>0</asrwt>
<pdfrwt beam="1">  1        2 0.14661316E+00 0.50216780E+03</pdfrwt>
<pdfrwt beam="2">  1       -2 0.87754362E-02 0.50216780E+03</pdfrwt>
<totfact> 0.23006559E+03</totfact>
</mgrwt>
</event>
<event>
 4    1  0.1837449E-005  0.5726267E+03  0.7818608E-02  0.9963883E-01
          2   -1    0    0  501    0  0.00000000000E+00  0.00000000000E+00  0.53268840303E+03  0.53268840304E+03  0.25500000000E-02 0.  1.
         -2   -1    0    0    0  501 -0.00000000000E+00 -0.00000000000E+00 -0.15388983238E+03  0.15388983240E+03  0.25500000000E-02 0. -1.
    5000001    1    1    2    0    0  0.11087440392E+03  0.15249466466E+03  0.35554845034E+03  0.43495684468E+03  0.16500000000E+03 0.  0.
   -5000001    1    1    2    0    0 -0.11087440392E+03 -0.15249466466E+03  0.23250120321E+02  0.25162139076E+03  0.16500000000E+03 0.  0.
<mgrwt>
<rscale>  0 0.57262668E+03</rscale>
<asrwt>0</asrwt>
<pdfrwt beam="1">  1        2 0.76098344E-01 0.57262668E+03</pdfrwt>
<pdfrwt beam="2">  1       -2 0.21984262E-01 0.57262668E+03</pdfrwt>
<totfact> 0.11277559E+03</totfact>
</mgrwt>
</event>
<event>
 4    1  0.1837449E-005  0.5612547E+03  0.7818608E-02  0.9989220E-01
          2   -1    0    0  501    0  0.00000000000E+00  0.00000000000E+00  0.23245126119E+04  0.23245126119E+04  0.25500000000E-02 0.  1.
         -2   -1    0    0    0  501 -0.00000000000E+00 -0.00000000000E+00 -0.33878805697E+02  0.33878805793E+02  0.25500000000E-02 0. -1.
    5000001    1    1    2    0    0  0.14818336251E+03 -0.12319377855E+03  0.64122250976E+03  0.68958416674E+03  0.16500000000E+03 0.  0.
   -5000001    1    1    2    0    0 -0.14818336251E+03  0.12319377855E+03  0.16494112964E+04  0.16688072509E+04  0.16500000000E+03 0.  0.
<mgrwt>
<rscale>  0 0.56125471E+03</rscale>
<asrwt>0</asrwt>
<pdfrwt beam="1">  1        2 0.33207332E+00 0.56125471E+03</pdfrwt>
<pdfrwt beam="2">  1       -2 0.48398281E-02 0.56125471E+03</pdfrwt>
<totfact> 0.12303006E+03</totfact>
</mgrwt>
</event>
<event>
 4    1  0.1837449E-005  0.5966891E+03  0.7818608E-02  0.9912299E-01
          2   -1    0    0  501    0  0.00000000000E+00  0.00000000000E+00  0.24139206362E+04  0.24139206362E+04  0.25500000000E-02 0.  1.
         -2   -1    0    0    0  501 -0.00000000000E+00 -0.00000000000E+00 -0.36873398358E+02  0.36873398446E+02  0.25500000000E-02 0. -1.
    5000001    1    1    2    0    0  0.75130550912E+01 -0.18435461532E+03  0.50441851771E+03  0.56187730973E+03  0.16500000000E+03 0.  0.
   -5000001    1    1    2    0    0 -0.75130550912E+01  0.18435461532E+03  0.18726287201E+04  0.18889167249E+04  0.16500000000E+03 0.  0.
<mgrwt>
<rscale>  0 0.59668906E+03</rscale>
<asrwt>0</asrwt>
<pdfrwt beam="1">  1        2 0.34484590E+00 0.59668906E+03</pdfrwt>
<pdfrwt beam="2">  1       -2 0.52676270E-02 0.59668906E+03</pdfrwt>
<totfact> 0.96946045E+02</totfact>
</mgrwt>
</event>
<event>
 4    1  0.1837449E-005  0.5053268E+03  0.7818608E-02  0.1012398E+00
         -2   -1    0    0    0  501 -0.00000000000E+00  0.00000000000E+00  0.24525591163E+03  0.24525591164E+03  0.25500000000E-02 0. -1.
          2   -1    0    0  501    0  0.00000000000E+00 -0.00000000000E+00 -0.26029460746E+03  0.26029460747E+03  0.25500000000E-02 0.  1.
    5000001    1    1    2    0    0 -0.13071300381E+03 -0.42303942275E+02 -0.14076344253E+03  0.25673889392E+03  0.16500000000E+03 0.  0.
   -5000001    1    1    2    0    0  0.13071300381E+03  0.42303942275E+02  0.12572474670E+03  0.24881162519E+03  0.16500000000E+03 0.  0.
<mgrwt>
<rscale>  0 0.50532679E+03</rscale>
<asrwt>0</asrwt>
<pdfrwt beam="1">  1        2 0.37184944E-01 0.50532679E+03</pdfrwt>
<pdfrwt beam="2">  1       -2 0.35036559E-01 0.50532679E+03</pdfrwt>
<totfact> 0.10690998E+03</totfact>
</mgrwt>
</event>
<event>
 4    1  0.1837449E-005  0.4211469E+03  0.7818608E-02  0.1036694E+00
          2   -1    0    0  501    0  0.00000000000E+00  0.00000000000E+00  0.16681327089E+04  0.16681327089E+04  0.25500000000E-02 0.  1.
         -2   -1    0    0    0  501 -0.00000000000E+00 -0.00000000000E+00 -0.26581321555E+02  0.26581321677E+02  0.25500000000E-02 0. -1.
    5000001    1    1    2    0    0  0.64148780348E+02 -0.71995388128E+02  0.11765743410E+04  0.11919943716E+04  0.16500000000E+03 0.  0.
   -5000001    1    1    2    0    0 -0.64148780348E+02  0.71995388128E+02  0.46497704628E+03  0.50271965895E+03  0.16500000000E+03 0.  0.
<mgrwt>
<rscale>  0 0.42114687E+03</rscale>
<asrwt>0</asrwt>
<pdfrwt beam="1">  1        2 0.23830471E+00 0.42114687E+03</pdfrwt>
<pdfrwt beam="2">  1       -2 0.37973310E-02 0.42114687E+03</pdfrwt>
<totfact> 0.38229944E+03</totfact>
</mgrwt>
</event>
<event>
 4    1  0.1837449E-005  0.3994775E+03  0.7818608E-02  0.1043961E+00
         -2   -1    0    0    0  501 -0.00000000000E+00  0.00000000000E+00  0.53011601576E+02  0.53011601638E+02  0.25500000000E-02 0. -1.
          2   -1    0    0  501    0  0.00000000000E+00 -0.00000000000E+00 -0.75258164776E+03  0.75258164776E+03  0.25500000000E-02 0.  1.
    5000001    1    1    2    0    0  0.96066263555E+02  0.49197366462E+02 -0.41423640575E+03  0.45876563484E+03  0.16500000000E+03 0.  0.
   -5000001    1    1    2    0    0 -0.96066263555E+02 -0.49197366462E+02 -0.28533364043E+03  0.34682761456E+03  0.16500000000E+03 0.  0.
<mgrwt>
<rscale>  0 0.39947745E+03</rscale>
<asrwt>0</asrwt>
<pdfrwt beam="1">  1        2 0.10751166E+00 0.39947745E+03</pdfrwt>
<pdfrwt beam="2">  1       -2 0.75730864E-02 0.39947745E+03</pdfrwt>
<totfact> 0.43606365E+03</totfact>
</mgrwt>
</event>
<event>
 4    1  0.1837449E-005  0.6563256E+03  0.7818608E-02  0.9794981E-01
         -2   -1    0    0    0  501 -0.00000000000E+00  0.00000000000E+00  0.78296258553E+02  0.78296258595E+02  0.25500000000E-02 0. -1.
          2   -1    0    0  501    0  0.00000000000E+00 -0.00000000000E+00 -0.13754274984E+04  0.13754274984E+04  0.25500000000E-02 0.  1.
    5000001    1    1    2    0    0 -0.19366143947E+03  0.16479641164E+03 -0.92700796508E+03  0.97531091338E+03  0.16500000000E+03 0.  0.
   -5000001    1    1    2    0    0  0.19366143947E+03 -0.16479641164E+03 -0.37012327481E+03  0.47841284366E+03  0.16500000000E+03 0.  0.
<mgrwt>
<rscale>  0 0.65632561E+03</rscale>
<asrwt>0</asrwt>
<pdfrwt beam="1">  1        2 0.19648963E+00 0.65632561E+03</pdfrwt>
<pdfrwt beam="2">  1       -2 0.11185181E-01 0.65632561E+03</pdfrwt>
<totfact> 0.98548655E+02</totfact>
</mgrwt>
</event>
<event>
 4    1  0.1837449E-005  0.6253492E+03  0.7818608E-02  0.9854167E-01
         -2   -1    0    0    0  501 -0.00000000000E+00  0.00000000000E+00  0.39019958505E+03  0.39019958506E+03  0.25500000000E-02 0. -1.
          2   -1    0    0  501    0  0.00000000000E+00 -0.00000000000E+00 -0.25055227573E+03  0.25055227574E+03  0.25500000000E-02 0.  1.
    5000001    1    1    2    0    0 -0.35580126539E+02 -0.26220008811E+03  0.93313461982E+02  0.32549536679E+03  0.16500000000E+03 0.  0.
   -5000001    1    1    2    0    0  0.35580126539E+02  0.26220008811E+03  0.46333847338E+02  0.31525649402E+03  0.16500000000E+03 0.  0.
<mgrwt>
<rscale>  0 0.62534916E+03</rscale>
<asrwt>0</asrwt>
<pdfrwt beam="1">  1        2 0.35793182E-01 0.62534916E+03</pdfrwt>
<pdfrwt beam="2">  1       -2 0.55742798E-01 0.62534916E+03</pdfrwt>
<totfact> 0.44473735E+02</totfact>
</mgrwt>
</event>
<event>
 4    1  0.1837449E-005  0.5394725E+03  0.7818608E-02  0.1003960E+00
         -2   -1    0    0    0  501 -0.00000000000E+00  0.00000000000E+00  0.19307599413E+03  0.19307599414E+03  0.25500000000E-02 0. -1.
          2   -1    0    0  501    0  0.00000000000E+00 -0.00000000000E+00 -0.37683417617E+03  0.37683417618E+03  0.25500000000E-02 0.  1.
    5000001    1    1    2    0    0  0.13311813243E+03 -0.13848103855E+03 -0.19004784517E+03  0.31660798896E+03  0.16500000000E+03 0.  0.
   -5000001    1    1    2    0    0 -0.13311813243E+03  0.13848103855E+03  0.62896631322E+01  0.25330218136E+03  0.16500000000E+03 0.  0.
<mgrwt>
<rscale>  0 0.53947246E+03</rscale>
<asrwt>0</asrwt>
<pdfrwt beam="1">  1        2 0.53833454E-01 0.53947246E+03</pdfrwt>
<pdfrwt beam="2">  1       -2 0.27582285E-01 0.53947246E+03</pdfrwt>
<totfact> 0.11082897E+03</totfact>
</mgrwt>
</event>
<event>
 4    1  0.1837449E-005  0.5736457E+03  0.7818608E-02  0.9961644E-01
         -2   -1    0    0    0  501 -0.00000000000E+00  0.00000000000E+00  0.11115383148E+03  0.11115383151E+03  0.25500000000E-02 0. -1.
          2   -1    0    0  501    0  0.00000000000E+00 -0.00000000000E+00 -0.74012146137E+03  0.74012146137E+03  0.25500000000E-02 0.  1.
    5000001    1    1    2    0    0  0.23370510208E+03 -0.16718982795E+02 -0.29663060885E+03  0.41244674473E+03  0.16500000000E+03 0.  0.
   -5000001    1    1    2    0    0 -0.23370510208E+03  0.16718982795E+02 -0.33233702104E+03  0.43882854816E+03  0.16500000000E+03 0.  0.
<mgrwt>
<rscale>  0 0.57364566E+03</rscale>
<asrwt>0</asrwt>
<pdfrwt beam="1">  1        2 0.10573163E+00 0.57364566E+03</pdfrwt>
<pdfrwt beam="2">  1       -2 0.15879119E-01 0.57364566E+03</pdfrwt>
<totfact> 0.13367481E+03</totfact>
</mgrwt>
</event>
<event>
 4    1  0.1837449E-005  0.5009454E+03  0.7818608E-02  0.1013532E+00
         -2   -1    0    0    0  501 -0.00000000000E+00  0.00000000000E+00  0.30578122865E+02  0.30578122972E+02  0.25500000000E-02 0. -1.
          2   -1    0    0  501    0  0.00000000000E+00 -0.00000000000E+00 -0.20516818506E+04  0.20516818506E+04  0.25500000000E-02 0.  1.
    5000001    1    1    2    0    0  0.41174396938E+01 -0.18712194361E+03 -0.91948355011E+03  0.95273636123E+03  0.16500000000E+03 0.  0.
   -5000001    1    1    2    0    0 -0.41174396938E+01  0.18712194361E+03 -0.11016201776E+04  0.11295236123E+04  0.16500000000E+03 0.  0.
<mgrwt>
<rscale>  0 0.50094543E+03</rscale>
<asrwt>0</asrwt>
<pdfrwt beam="1">  1        2 0.29309732E+00 0.50094543E+03</pdfrwt>
<pdfrwt beam="2">  1       -2 0.43683046E-02 0.50094543E+03</pdfrwt>
<totfact> 0.19812351E+03</totfact>
</mgrwt>
</event>
<event>
 4    1  0.1837449E-005  0.6292607E+03  0.7818608E-02  0.9846493E-01
          2   -1    0    0  501    0  0.00000000000E+00  0.00000000000E+00  0.17611668839E+03  0.17611668841E+03  0.25500000000E-02 0.  1.
         -2   -1    0    0    0  501 -0.00000000000E+00 -0.00000000000E+00 -0.56208327520E+03  0.56208327520E+03  0.25500000000E-02 0. -1.
    5000001    1    1    2    0    0  0.18588947250E+03  0.89701764606E+02 -0.39332964789E+03  0.47385073016E+03  0.16500000000E+03 0.  0.
   -5000001    1    1    2    0    0 -0.18588947250E+03 -0.89701764606E+02  0.73630610882E+01  0.26434923345E+03  0.16500000000E+03 0.  0.
<mgrwt>
<rscale>  0 0.62926066E+03</rscale>
<asrwt>0</asrwt>
<pdfrwt beam="1">  1        2 0.25159527E-01 0.62926066E+03</pdfrwt>
<pdfrwt beam="2">  1       -2 0.80297610E-01 0.62926066E+03</pdfrwt>
<totfact> 0.30126659E+02</totfact>
</mgrwt>
</event>
<event>
 4    1  0.1837449E-005  0.5259729E+03  0.7818608E-02  0.1007213E+00
          2   -1    0    0  501    0  0.00000000000E+00  0.00000000000E+00  0.77741026185E+03  0.77741026186E+03  0.25500000000E-02 0.  1.
         -2   -1    0    0    0  501 -0.00000000000E+00 -0.00000000000E+00 -0.88964430498E+02  0.88964430535E+02  0.25500000000E-02 0. -1.
    5000001    1    1    2    0    0 -0.18258296413E+03 -0.79317600574E+02  0.26507158551E+03  0.37029146087E+03  0.16500000000E+03 0.  0.
   -5000001    1    1    2    0    0  0.18258296413E+03  0.79317600574E+02  0.42337424585E+03  0.49608323152E+03  0.16500000000E+03 0.  0.
<mgrwt>
<rscale>  0 0.52597286E+03</rscale>
<asrwt>0</asrwt>
<pdfrwt beam="1">  1        2 0.11105861E+00 0.52597286E+03</pdfrwt>
<pdfrwt beam="2">  1       -2 0.12709204E-01 0.52597286E+03</pdfrwt>
<totfact> 0.18242283E+03</totfact>
</mgrwt>
</event>
<event>
 4    1  0.1837449E-005  0.5463418E+03  0.7818608E-02  0.1002344E+00
          2   -1    0    0  501    0  0.00000000000E+00  0.00000000000E+00  0.12520176413E+04  0.12520176413E+04  0.25500000000E-02 0.  1.
         -2   -1    0    0    0  501 -0.00000000000E+00 -0.00000000000E+00 -0.59601669093E+02  0.59601669148E+02  0.25500000000E-02 0. -1.
    5000001    1    1    2    0    0  0.17487637598E+03 -0.90451487915E+02  0.37313217643E+03  0.45300754920E+03  0.16500000000E+03 0.  0.
   -5000001    1    1    2    0    0 -0.17487637598E+03  0.90451487915E+02  0.81928379581E+03  0.85861176129E+03  0.16500000000E+03 0.  0.
<mgrwt>
<rscale>  0 0.54634180E+03</rscale>
<asrwt>0</asrwt>
<pdfrwt beam="1">  1        2 0.17885965E+00 0.54634180E+03</pdfrwt>
<pdfrwt beam="2">  1       -2 0.85145247E-02 0.54634180E+03</pdfrwt>
<totfact> 0.17933277E+03</totfact>
</mgrwt>
</event>
<event>
 4    1  0.1837449E-005  0.5055874E+03  0.7818608E-02  0.1012331E+00
         -2   -1    0    0    0  501 -0.00000000000E+00  0.00000000000E+00  0.47785868894E+03  0.47785868895E+03  0.25500000000E-02 0. -1.
          2   -1    0    0  501    0  0.00000000000E+00 -0.00000000000E+00 -0.13373126136E+03  0.13373126138E+03  0.25500000000E-02 0.  1.
    5000001    1    1    2    0    0 -0.37095602984E+02 -0.18458281620E+03  0.12959189766E+03  0.28189707295E+03  0.16500000000E+03 0.  0.
   -5000001    1    1    2    0    0  0.37095602984E+02  0.18458281620E+03  0.21453552992E+03  0.32969287738E+03  0.16500000000E+03 0.  0.
<mgrwt>
<rscale>  0 0.50558736E+03</rscale>
<asrwt>0</asrwt>
<pdfrwt beam="1">  1        2 0.19104466E-01 0.50558736E+03</pdfrwt>
<pdfrwt beam="2">  1       -2 0.68265526E-01 0.50558736E+03</pdfrwt>
<totfact> 0.59322918E+02</totfact>
</mgrwt>
</event>
<event>
 4    1  0.1837449E-005  0.4551857E+03  0.7818608E-02  0.1026187E+00
          2   -1    0    0  501    0  0.00000000000E+00  0.00000000000E+00  0.28419617202E+04  0.28419617202E+04  0.25500000000E-02 0.  1.
         -2   -1    0    0    0  501 -0.00000000000E+00 -0.00000000000E+00 -0.18226322007E+02  0.18226322186E+02  0.25500000000E-02 0. -1.
    5000001    1    1    2    0    0 -0.45008040997E+02 -0.11456280065E+03  0.80190394898E+03  0.82790416260E+03  0.16500000000E+03 0.  0.
   -5000001    1    1    2    0    0  0.45008040997E+02  0.11456280065E+03  0.20218314492E+04  0.20322838798E+04  0.16500000000E+03 0.  0.
<mgrwt>
<rscale>  0 0.45518572E+03</rscale>
<asrwt>0</asrwt>
<pdfrwt beam="1">  1        2 0.40599453E+00 0.45518572E+03</pdfrwt>
<pdfrwt beam="2">  1       -2 0.26037603E-02 0.45518572E+03</pdfrwt>
<totfact> 0.17260442E+03</totfact>
</mgrwt>
</event>
<event>
 4    1  0.1837449E-005  0.1883995E+04  0.7818608E-02  0.8662865E-01
          2   -1    0    0  501    0  0.00000000000E+00  0.00000000000E+00  0.17094533136E+04  0.17094533136E+04  0.25500000000E-02 0.  1.
         -2   -1    0    0    0  501 -0.00000000000E+00 -0.00000000000E+00 -0.51908933915E+03  0.51908933916E+03  0.25500000000E-02 0. -1.
    5000001    1    1    2    0    0 -0.55329793855E+03 -0.55891517698E+03  0.11766127659E+04  0.14248394242E+04  0.16500000000E+03 0.  0.
   -5000001    1    1    2    0    0  0.55329793855E+03  0.55891517698E+03  0.13751208537E+02  0.80370322856E+03  0.16500000000E+03 0.  0.
<mgrwt>
<rscale>  0 0.18839947E+04</rscale>
<asrwt>0</asrwt>
<pdfrwt beam="1">  1        2 0.24420762E+00 0.18839947E+04</pdfrwt>
<pdfrwt beam="2">  1       -2 0.74155619E-01 0.18839947E+04</pdfrwt>
<totfact> 0.17472292E+01</totfact>
</mgrwt>
</event>
<event>
 4    1  0.1837449E-005  0.1056141E+04  0.7818608E-02  0.9249027E-01
          2   -1    0    0  501    0  0.00000000000E+00  0.00000000000E+00  0.76538135213E+03  0.76538135213E+03  0.25500000000E-02 0.  1.
         -2   -1    0    0    0  501 -0.00000000000E+00 -0.00000000000E+00 -0.36433925742E+03  0.36433925742E+03  0.25500000000E-02 0. -1.
    5000001    1    1    2    0    0  0.16980166941E+03  0.45490493501E+03  0.33524137341E+03  0.61268498046E+03  0.16500000000E+03 0.  0.
   -5000001    1    1    2    0    0 -0.16980166941E+03 -0.45490493501E+03  0.65800721300E+02  0.51703562910E+03  0.16500000000E+03 0.  0.
<mgrwt>
<rscale>  0 0.10561410E+04</rscale>
<asrwt>0</asrwt>
<pdfrwt beam="1">  1        2 0.10934019E+00 0.10561410E+04</pdfrwt>
<pdfrwt beam="2">  1       -2 0.52048465E-01 0.10561410E+04</pdfrwt>
<totfact> 0.13956536E+02</totfact>
</mgrwt>
</event>
<event>
 4    1  0.1837449E-005  0.6062119E+03  0.7818608E-02  0.9892601E-01
         -2   -1    0    0    0  501 -0.00000000000E+00  0.00000000000E+00  0.73529286826E+02  0.73529286870E+02  0.25500000000E-02 0. -1.
          2   -1    0    0  501    0  0.00000000000E+00 -0.00000000000E+00 -0.12494778982E+04  0.12494778982E+04  0.25500000000E-02 0.  1.
    5000001    1    1    2    0    0 -0.31743788450E+02  0.18520242871E+03 -0.21414588291E+03  0.32922798617E+03  0.16500000000E+03 0.  0.
   -5000001    1    1    2    0    0  0.31743788450E+02 -0.18520242871E+03 -0.96180272850E+03  0.99377919894E+03  0.16500000000E+03 0.  0.
<mgrwt>
<rscale>  0 0.60621191E+03</rscale>
<asrwt>0</asrwt>
<pdfrwt beam="1">  1        2 0.17849683E+00 0.60621191E+03</pdfrwt>
<pdfrwt beam="2">  1       -2 0.10504185E-01 0.60621191E+03</pdfrwt>
<totfact> 0.12804761E+03</totfact>
</mgrwt>
</event>
<event>
 4    1  0.1837449E-005  0.8821354E+03  0.7818608E-02  0.9448193E-01
          2   -1    0    0  501    0  0.00000000000E+00  0.00000000000E+00  0.65426277288E+03  0.65426277289E+03  0.25500000000E-02 0.  1.
         -2   -1    0    0    0  501 -0.00000000000E+00 -0.00000000000E+00 -0.29734339049E+03  0.29734339050E+03  0.25500000000E-02 0. -1.
    5000001    1    1    2    0    0  0.33902948010E+03 -0.14595976677E+03  0.36860950625E+03  0.54712266448E+03  0.16500000000E+03 0.  0.
   -5000001    1    1    2    0    0 -0.33902948010E+03  0.14595976677E+03 -0.11690123856E+02  0.40448349891E+03  0.16500000000E+03 0.  0.
<mgrwt>
<rscale>  0 0.88213539E+03</rscale>
<asrwt>0</asrwt>
<pdfrwt beam="1">  1        2 0.93466110E-01 0.88213539E+03</pdfrwt>
<pdfrwt beam="2">  1       -2 0.42477627E-01 0.88213539E+03</pdfrwt>
<totfact> 0.25752737E+02</totfact>
</mgrwt>
</event>
<event>
 4    1  0.1837449E-005  0.4287491E+03  0.7818608E-02  0.1034256E+00
         -2   -1    0    0    0  501 -0.00000000000E+00  0.00000000000E+00  0.19478232038E+03  0.19478232040E+03  0.25500000000E-02 0. -1.
          2   -1    0    0  501    0  0.00000000000E+00 -0.00000000000E+00 -0.23593743650E+03  0.23593743651E+03  0.25500000000E-02 0.  1.
    5000001    1    1    2    0    0  0.57455279114E+02 -0.97604009203E+02 -0.97766846773E+02  0.22273528692E+03  0.16500000000E+03 0.  0.
   -5000001    1    1    2    0    0 -0.57455279114E+02  0.97604009203E+02  0.56611730655E+02  0.20798446999E+03  0.16500000000E+03 0.  0.
<mgrwt>
<rscale>  0 0.42874907E+03</rscale>
<asrwt>0</asrwt>
<pdfrwt beam="1">  1        2 0.33705348E-01 0.42874907E+03</pdfrwt>
<pdfrwt beam="2">  1       -2 0.27826046E-01 0.42874907E+03</pdfrwt>
<totfact> 0.18231736E+03</totfact>
</mgrwt>
</event>
<event>
 4    1  0.1837449E-005  0.5113476E+03  0.7818608E-02  0.1010859E+00
         -2   -1    0    0    0  501 -0.00000000000E+00  0.00000000000E+00  0.10615823830E+03  0.10615823833E+03  0.25500000000E-02 0. -1.
          2   -1    0    0  501    0  0.00000000000E+00 -0.00000000000E+00 -0.61577039068E+03  0.61577039069E+03  0.25500000000E-02 0.  1.
    5000001    1    1    2    0    0  0.10293231111E+03 -0.16541317952E+03 -0.27413915193E+03  0.37461160587E+03  0.16500000000E+03 0.  0.
   -5000001    1    1    2    0    0 -0.10293231111E+03  0.16541317952E+03 -0.23547300045E+03  0.34731702315E+03  0.16500000000E+03 0.  0.
<mgrwt>
<rscale>  0 0.51134763E+03</rscale>
<asrwt>0</asrwt>
<pdfrwt beam="1">  1        2 0.87967197E-01 0.51134763E+03</pdfrwt>
<pdfrwt beam="2">  1       -2 0.15165463E-01 0.51134763E+03</pdfrwt>
<totfact> 0.18043241E+03</totfact>
</mgrwt>
</event>
<event>
 4    1  0.1837449E-005  0.4363108E+03  0.7818608E-02  0.1031885E+00
          2   -1    0    0  501    0  0.00000000000E+00  0.00000000000E+00  0.16518399767E+04  0.16518399767E+04  0.25500000000E-02 0.  1.
         -2   -1    0    0    0  501 -0.00000000000E+00 -0.00000000000E+00 -0.28811378254E+02  0.28811378367E+02  0.25500000000E-02 0. -1.
    5000001    1    1    2    0    0  0.71858242958E+02  0.82335499328E+02  0.11650570758E+04  0.11817468982E+04  0.16500000000E+03 0.  0.
   -5000001    1    1    2    0    0 -0.71858242958E+02 -0.82335499328E+02  0.45797152266E+03  0.49890445689E+03  0.16500000000E+03 0.  0.
<mgrwt>
<rscale>  0 0.43631084E+03</rscale>
<asrwt>0</asrwt>
<pdfrwt beam="1">  1        2 0.23597706E+00 0.43631084E+03</pdfrwt>
<pdfrwt beam="2">  1       -2 0.41159126E-02 0.43631084E+03</pdfrwt>
<totfact> 0.34457426E+03</totfact>
</mgrwt>
</event>
<event>
 4    1  0.1837449E-005  0.4524862E+03  0.7818608E-02  0.1026983E+00
         -2   -1    0    0    0  501 -0.00000000000E+00  0.00000000000E+00  0.23033019328E+03  0.23033019329E+03  0.25500000000E-02 0. -1.
          2   -1    0    0  501    0  0.00000000000E+00 -0.00000000000E+00 -0.22222850231E+03  0.22222850232E+03  0.25500000000E-02 0.  1.
    5000001    1    1    2    0    0 -0.76337123421E+01  0.12130207142E+03 -0.91821014145E+02  0.22456305291E+03  0.16500000000E+03 0.  0.
   -5000001    1    1    2    0    0  0.76337123421E+01 -0.12130207142E+03  0.99922705115E+02  0.22799564270E+03  0.16500000000E+03 0.  0.
<mgrwt>
<rscale>  0 0.45248617E+03</rscale>
<asrwt>0</asrwt>
<pdfrwt beam="1">  1        2 0.31746929E-01 0.45248617E+03</pdfrwt>
<pdfrwt beam="2">  1       -2 0.32904313E-01 0.45248617E+03</pdfrwt>
<totfact> 0.14321648E+03</totfact>
</mgrwt>
</event>
<event>
 4    1  0.1837449E-005  0.3690934E+03  0.7818608E-02  0.1055040E+00
         -2   -1    0    0    0  501 -0.00000000000E+00  0.00000000000E+00  0.32373950431E+02  0.32373950531E+02  0.25500000000E-02 0. -1.
          2   -1    0    0  501    0  0.00000000000E+00 -0.00000000000E+00 -0.10520029107E+04  0.10520029107E+04  0.25500000000E-02 0.  1.
    5000001    1    1    2    0    0  0.54760457407E+02  0.40487493446E+02 -0.64744546043E+03  0.67160149572E+03  0.16500000000E+03 0.  0.
   -5000001    1    1    2    0    0 -0.54760457407E+02 -0.40487493446E+02 -0.37218349981E+03  0.41277536548E+03  0.16500000000E+03 0.  0.
<mgrwt>
<rscale>  0 0.36909343E+03</rscale>
<asrwt>0</asrwt>
<pdfrwt beam="1">  1        2 0.15028611E+00 0.36909343E+03</pdfrwt>
<pdfrwt beam="2">  1       -2 0.46248507E-02 0.36909343E+03</pdfrwt>
<totfact> 0.60193693E+03</totfact>
</mgrwt>
</event>
<event>
 4    1  0.1837449E-005  0.5557858E+03  0.7818608E-02  0.1000164E+00
         -2   -1    0    0    0  501 -0.00000000000E+00  0.00000000000E+00  0.50324074310E+02  0.50324074375E+02  0.25500000000E-02 0. -1.
          2   -1    0    0  501    0  0.00000000000E+00 -0.00000000000E+00 -0.15345433458E+04  0.15345433458E+04  0.25500000000E-02 0.  1.
    5000001    1    1    2    0    0 -0.20353367501E+03  0.92589521131E+02 -0.73972872851E+03  0.79020400408E+03  0.16500000000E+03 0.  0.
   -5000001    1    1    2    0    0  0.20353367501E+03 -0.92589521131E+02 -0.74449054294E+03  0.79466341606E+03  0.16500000000E+03 0.  0.
<mgrwt>
<rscale>  0 0.55578583E+03</rscale>
<asrwt>0</asrwt>
<pdfrwt beam="1">  1        2 0.21922045E+00 0.55578583E+03</pdfrwt>
<pdfrwt beam="2">  1       -2 0.71891545E-02 0.55578583E+03</pdfrwt>
<totfact> 0.16604421E+03</totfact>
</mgrwt>
</event>
<event>
 4    1  0.1837449E-005  0.8453900E+03  0.7818608E-02  0.9496545E-01
         -2   -1    0    0    0  501 -0.00000000000E+00  0.00000000000E+00  0.57513102346E+02  0.57513102403E+02  0.25500000000E-02 0. -1.
          2   -1    0    0  501    0  0.00000000000E+00 -0.00000000000E+00 -0.31066149840E+04  0.31066149840E+04  0.25500000000E-02 0.  1.
    5000001    1    1    2    0    0 -0.20876173869E+03 -0.33596730358E+02 -0.30176024153E+03  0.40372570788E+03  0.16500000000E+03 0.  0.
   -5000001    1    1    2    0    0  0.20876173869E+03  0.33596730358E+02 -0.27473416402E+04  0.27604023786E+04  0.16500000000E+03 0.  0.
<mgrwt>
<rscale>  0 0.84539001E+03</rscale>
<asrwt>0</asrwt>
<pdfrwt beam="1">  1        2 0.44380204E+00 0.84539001E+03</pdfrwt>
<pdfrwt beam="2">  1       -2 0.82161594E-02 0.84539001E+03</pdfrwt>
<totfact> 0.20144570E+02</totfact>
</mgrwt>
</event>
<event>
 4    1  0.1837449E-005  0.5094848E+03  0.7818608E-02  0.1011332E+00
         -2   -1    0    0    0  501 -0.00000000000E+00  0.00000000000E+00  0.95272761100E+03  0.95272761100E+03  0.25500000000E-02 0. -1.
          2   -1    0    0  501    0  0.00000000000E+00 -0.00000000000E+00 -0.68113576223E+02  0.68113576271E+02  0.25500000000E-02 0.  1.
    5000001    1    1    2    0    0 -0.18052501224E+03  0.46133160425E+02  0.55115530489E+03  0.60474351476E+03  0.16500000000E+03 0.  0.
   -5000001    1    1    2    0    0  0.18052501224E+03 -0.46133160425E+02  0.33345872989E+03  0.41609767251E+03  0.16500000000E+03 0.  0.
<mgrwt>
<rscale>  0 0.50948478E+03</rscale>
<asrwt>0</asrwt>
<pdfrwt beam="1">  1        2 0.97305120E-02 0.50948478E+03</pdfrwt>
<pdfrwt beam="2">  1       -2 0.13610393E+00 0.50948478E+03</pdfrwt>
<totfact> 0.26984159E+02</totfact>
</mgrwt>
</event>
<event>
 4    1  0.1837449E-005  0.3836659E+03  0.7818608E-02  0.1049587E+00
          2   -1    0    0  501    0  0.00000000000E+00  0.00000000000E+00  0.11104985947E+04  0.11104985947E+04  0.25500000000E-02 0.  1.
         -2   -1    0    0    0  501 -0.00000000000E+00 -0.00000000000E+00 -0.33138162920E+02  0.33138163018E+02  0.25500000000E-02 0. -1.
    5000001    1    1    2    0    0  0.52070692835E+02  0.82385672999E+02  0.56468809522E+03  0.59631904301E+03  0.16500000000E+03 0.  0.
   -5000001    1    1    2    0    0 -0.52070692835E+02 -0.82385672999E+02  0.51267233658E+03  0.54731771473E+03  0.16500000000E+03 0.  0.
<mgrwt>
<rscale>  0 0.38366591E+03</rscale>
<asrwt>0</asrwt>
<pdfrwt beam="1">  1        2 0.15864267E+00 0.38366591E+03</pdfrwt>
<pdfrwt beam="2">  1       -2 0.47340229E-02 0.38366591E+03</pdfrwt>
<totfact> 0.53783062E+03</totfact>
</mgrwt>
</event>
<event>
 4    1  0.1837449E-005  0.6910062E+03  0.7818608E-02  0.9732738E-01
          2   -1    0    0  501    0  0.00000000000E+00  0.00000000000E+00  0.55174880589E+03  0.55174880590E+03  0.25500000000E-02 0.  1.
         -2   -1    0    0    0  501 -0.00000000000E+00 -0.00000000000E+00 -0.21635277908E+03  0.21635277910E+03  0.25500000000E-02 0. -1.
    5000001    1    1    2    0    0 -0.10603041631E+03 -0.28174405474E+03  0.12428661066E+03  0.36509495087E+03  0.16500000000E+03 0.  0.
   -5000001    1    1    2    0    0  0.10603041631E+03  0.28174405474E+03  0.21110941615E+03  0.40300663413E+03  0.16500000000E+03 0.  0.
<mgrwt>
<rscale>  0 0.69100619E+03</rscale>
<asrwt>0</asrwt>
<pdfrwt beam="1">  1        2 0.78821259E-01 0.69100619E+03</pdfrwt>
<pdfrwt beam="2">  1       -2 0.30907539E-01 0.69100619E+03</pdfrwt>
<totfact> 0.58344329E+02</totfact>
</mgrwt>
</event>
<event>
 4    1  0.1837449E-005  0.5116831E+03  0.7818608E-02  0.1010774E+00
          2   -1    0    0  501    0  0.00000000000E+00  0.00000000000E+00  0.82558020829E+03  0.82558020829E+03  0.25500000000E-02 0.  1.
         -2   -1    0    0    0  501 -0.00000000000E+00 -0.00000000000E+00 -0.79283501683E+02  0.79283501724E+02  0.25500000000E-02 0. -1.
    5000001    1    1    2    0    0 -0.12531527403E+02  0.19068823495E+03  0.44629388579E+03  0.51275947053E+03  0.16500000000E+03 0.  0.
   -5000001    1    1    2    0    0  0.12531527403E+02 -0.19068823495E+03  0.30000282082E+03  0.39210423949E+03  0.16500000000E+03 0.  0.
<mgrwt>
<rscale>  0 0.51168307E+03</rscale>
<asrwt>0</asrwt>
<pdfrwt beam="1">  1        2 0.11794003E+00 0.51168307E+03</pdfrwt>
<pdfrwt beam="2">  1       -2 0.11326214E-01 0.51168307E+03</pdfrwt>
<totfact> 0.20416815E+03</totfact>
</mgrwt>
</event>
<event>
 4    1  0.1837449E-005  0.6236524E+03  0.7818608E-02  0.9857515E-01
         -2   -1    0    0    0  501 -0.00000000000E+00  0.00000000000E+00  0.29255961287E+02  0.29255961398E+02  0.25500000000E-02 0. -1.
          2   -1    0    0  501    0  0.00000000000E+00 -0.00000000000E+00 -0.33236156073E+04  0.33236156073E+04  0.25500000000E-02 0.  1.
    5000001    1    1    2    0    0  0.17090861826E+03 -0.11960247944E+03 -0.25222945594E+04  0.25362786426E+04  0.16500000000E+03 0.  0.
   -5000001    1    1    2    0    0 -0.17090861826E+03  0.11960247944E+03 -0.77206508669E+03  0.81659292610E+03  0.16500000000E+03 0.  0.
<mgrwt>
<rscale>  0 0.62365237E+03</rscale>
<asrwt>0</asrwt>
<pdfrwt beam="1">  1        2 0.47480199E+00 0.62365237E+03</pdfrwt>
<pdfrwt beam="2">  1       -2 0.41794252E-02 0.62365237E+03</pdfrwt>
<totfact> 0.44929705E+02</totfact>
</mgrwt>
</event>
<event>
 4    1  0.1837449E-005  0.1346810E+04  0.7818608E-02  0.8993246E-01
          2   -1    0    0  501    0  0.00000000000E+00  0.00000000000E+00  0.11589084579E+04  0.11589084579E+04  0.25500000000E-02 0.  1.
         -2   -1    0    0    0  501 -0.00000000000E+00 -0.00000000000E+00 -0.39129458549E+03  0.39129458550E+03  0.25500000000E-02 0. -1.
    5000001    1    1    2    0    0 -0.46783849664E+03 -0.97886696125E+02 -0.12809844298E+03  0.52162139077E+03  0.16500000000E+03 0.  0.
   -5000001    1    1    2    0    0  0.46783849664E+03  0.97886696125E+02  0.89571231542E+03  0.10285816527E+04  0.16500000000E+03 0.  0.
<mgrwt>
<rscale>  0 0.13468105E+04</rscale>
<asrwt>0</asrwt>
<pdfrwt beam="1">  1        2 0.16555835E+00 0.13468105E+04</pdfrwt>
<pdfrwt beam="2">  1       -2 0.55899226E-01 0.13468105E+04</pdfrwt>
<totfact> 0.66322459E+01</totfact>
</mgrwt>
</event>
<event>
 4    1  0.1837449E-005  0.8157363E+03  0.7818608E-02  0.9537515E-01
          2   -1    0    0  501    0  0.00000000000E+00  0.00000000000E+00  0.79061497457E+03  0.79061497457E+03  0.25500000000E-02 0.  1.
         -2   -1    0    0    0  501 -0.00000000000E+00 -0.00000000000E+00 -0.21041397010E+03  0.21041397011E+03  0.25500000000E-02 0. -1.
    5000001    1    1    2    0    0 -0.35779111522E+03 -0.10425570188E+03  0.27078697024E+03  0.48932025991E+03  0.16500000000E+03 0.  0.
   -5000001    1    1    2    0    0  0.35779111522E+03  0.10425570188E+03  0.30941403423E+03  0.51170868478E+03  0.16500000000E+03 0.  0.
<mgrwt>
<rscale>  0 0.81573632E+03</rscale>
<asrwt>0</asrwt>
<pdfrwt beam="1">  1        2 0.11294500E+00 0.81573632E+03</pdfrwt>
<pdfrwt beam="2">  1       -2 0.30059138E-01 0.81573632E+03</pdfrwt>
<totfact> 0.39516706E+02</totfact>
</mgrwt>
</event>
<event>
 4    1  0.1837449E-005  0.4165783E+03  0.7818608E-02  0.1038186E+00
          2   -1    0    0  501    0  0.00000000000E+00  0.00000000000E+00  0.40354829178E+04  0.40354829178E+04  0.25500000000E-02 0.  1.
         -2   -1    0    0    0  501 -0.00000000000E+00 -0.00000000000E+00 -0.10750727318E+02  0.10750727620E+02  0.25500000000E-02 0. -1.
    5000001    1    1    2    0    0  0.28059702454E+02 -0.12209564584E+03  0.22217449734E+04  0.22313830735E+04  0.16500000000E+03 0.  0.
   -5000001    1    1    2    0    0 -0.28059702454E+02  0.12209564584E+03  0.18029872171E+04  0.18148505720E+04  0.16500000000E+03 0.  0.
<mgrwt>
<rscale>  0 0.41657833E+03</rscale>
<asrwt>0</asrwt>
<pdfrwt beam="1">  1        2 0.57649919E+00 0.41657833E+03</pdfrwt>
<pdfrwt beam="2">  1       -2 0.15358139E-02 0.41657833E+03</pdfrwt>
<totfact> 0.76066207E+02</totfact>
</mgrwt>
</event>
<event>
 4    1  0.1837449E-005  0.3698844E+03  0.7818608E-02  0.1054737E+00
         -2   -1    0    0    0  501 -0.00000000000E+00  0.00000000000E+00  0.37508523335E+02  0.37508523421E+02  0.25500000000E-02 0. -1.
          2   -1    0    0  501    0  0.00000000000E+00 -0.00000000000E+00 -0.91188917890E+03  0.91188917890E+03  0.25500000000E-02 0.  1.
    5000001    1    1    2    0    0 -0.24942618602E+02 -0.19736729558E+02 -0.23891980931E+03  0.29209475860E+03  0.16500000000E+03 0.  0.
   -5000001    1    1    2    0    0  0.24942618602E+02  0.19736729558E+02 -0.63546084625E+03  0.65730294373E+03  0.16500000000E+03 0.  0.
<mgrwt>
<rscale>  0 0.36988440E+03</rscale>
<asrwt>0</asrwt>
<pdfrwt beam="1">  1        2 0.13026987E+00 0.36988440E+03</pdfrwt>
<pdfrwt beam="2">  1       -2 0.53583611E-02 0.36988440E+03</pdfrwt>
<totfact> 0.58381910E+03</totfact>
</mgrwt>
</event>
<event>
 4    1  0.1837449E-005  0.5789034E+03  0.7818608E-02  0.9950168E-01
          2   -1    0    0  501    0  0.00000000000E+00  0.00000000000E+00  0.19907711709E+03  0.19907711711E+03  0.25500000000E-02 0.  1.
         -2   -1    0    0    0  501 -0.00000000000E+00 -0.00000000000E+00 -0.42085336139E+03  0.42085336140E+03  0.25500000000E-02 0. -1.
    5000001    1    1    2    0    0  0.11078577497E+03  0.20019271212E+03 -0.18034349283E+03  0.33481246292E+03  0.16500000000E+03 0.  0.
   -5000001    1    1    2    0    0 -0.11078577497E+03 -0.20019271212E+03 -0.41432751468E+02  0.28511801559E+03  0.16500000000E+03 0.  0.
<mgrwt>
<rscale>  0 0.57890336E+03</rscale>
<asrwt>0</asrwt>
<pdfrwt beam="1">  1        2 0.28439588E-01 0.57890336E+03</pdfrwt>
<pdfrwt beam="2">  1       -2 0.60121908E-01 0.57890336E+03</pdfrwt>
<totfact> 0.49172201E+02</totfact>
</mgrwt>
</event>
<event>
 4    1  0.1837449E-005  0.5319109E+03  0.7818608E-02  0.1005770E+00
         -2   -1    0    0    0  501 -0.00000000000E+00  0.00000000000E+00  0.19821078146E+04  0.19821078146E+04  0.25500000000E-02 0. -1.
          2   -1    0    0  501    0  0.00000000000E+00 -0.00000000000E+00 -0.35685389288E+02  0.35685389379E+02  0.25500000000E-02 0.  1.
    5000001    1    1    2    0    0  0.22723050587E+02 -0.19917318425E+03  0.11918221543E+04  0.12197751194E+04  0.16500000000E+03 0.  0.
   -5000001    1    1    2    0    0 -0.22723050587E+02  0.19917318425E+03  0.75460027098E+03  0.79801808458E+03  0.16500000000E+03 0.  0.
<mgrwt>
<rscale>  0 0.53191085E+03</rscale>
<asrwt>0</asrwt>
<pdfrwt beam="1">  1        2 0.50979110E-02 0.53191085E+03</pdfrwt>
<pdfrwt beam="2">  1       -2 0.28315836E+00 0.53191085E+03</pdfrwt>
<totfact> 0.68536087E+01</totfact>
</mgrwt>
</event>
<event>
 4    1  0.1837449E-005  0.6007689E+03  0.7818608E-02  0.9903812E-01
          2   -1    0    0  501    0  0.00000000000E+00  0.00000000000E+00  0.76068369511E+03  0.76068369511E+03  0.25500000000E-02 0.  1.
         -2   -1    0    0    0  501 -0.00000000000E+00 -0.00000000000E+00 -0.11861804878E+03  0.11861804881E+03  0.25500000000E-02 0. -1.
    5000001    1    1    2    0    0  0.34276439619E+02  0.24669023052E+03  0.36673155925E+03  0.47302006373E+03  0.16500000000E+03 0.  0.
   -5000001    1    1    2    0    0 -0.34276439619E+02 -0.24669023052E+03  0.27533408708E+03  0.40628168018E+03  0.16500000000E+03 0.  0.
<mgrwt>
<rscale>  0 0.60076889E+03</rscale>
<asrwt>0</asrwt>
<pdfrwt beam="1">  1        2 0.10866910E+00 0.60076889E+03</pdfrwt>
<pdfrwt beam="2">  1       -2 0.16945435E-01 0.60076889E+03</pdfrwt>
<totfact> 0.11563089E+03</totfact>
</mgrwt>
</event>
<event>
 4    1  0.1837449E-005  0.4896038E+03  0.7818608E-02  0.1016529E+00
         -2   -1    0    0    0  501 -0.00000000000E+00  0.00000000000E+00  0.46755051020E+02  0.46755051089E+02  0.25500000000E-02 0. -1.
          2   -1    0    0  501    0  0.00000000000E+00 -0.00000000000E+00 -0.12817431863E+04  0.12817431863E+04  0.25500000000E-02 0.  1.
    5000001    1    1    2    0    0 -0.16354588580E+03  0.19549413783E+02 -0.41492111836E+03  0.47593483882E+03  0.16500000000E+03 0.  0.
   -5000001    1    1    2    0    0  0.16354588580E+03 -0.19549413783E+02 -0.82006701691E+03  0.85256339856E+03  0.16500000000E+03 0.  0.
<mgrwt>
<rscale>  0 0.48960379E+03</rscale>
<asrwt>0</asrwt>
<pdfrwt beam="1">  1        2 0.18310615E+00 0.48960379E+03</pdfrwt>
<pdfrwt beam="2">  1       -2 0.66792938E-02 0.48960379E+03</pdfrwt>
<totfact> 0.25389174E+03</totfact>
</mgrwt>
</event>
<event>
 4    1  0.1837449E-005  0.4683870E+03  0.7818608E-02  0.1022376E+00
          2   -1    0    0  501    0  0.00000000000E+00  0.00000000000E+00  0.10655513720E+03  0.10655513723E+03  0.25500000000E-02 0.  1.
         -2   -1    0    0    0  501 -0.00000000000E+00 -0.00000000000E+00 -0.51472495711E+03  0.51472495712E+03  0.25500000000E-02 0. -1.
    5000001    1    1    2    0    0 -0.62088825466E+02  0.15366984309E+03 -0.18772382100E+03  0.29989110673E+03  0.16500000000E+03 0.  0.
   -5000001    1    1    2    0    0  0.62088825466E+02 -0.15366984309E+03 -0.22044599891E+03  0.32138898761E+03  0.16500000000E+03 0.  0.
<mgrwt>
<rscale>  0 0.46838697E+03</rscale>
<asrwt>0</asrwt>
<pdfrwt beam="1">  1        2 0.15222163E-01 0.46838697E+03</pdfrwt>
<pdfrwt beam="2">  1       -2 0.73532135E-01 0.46838697E+03</pdfrwt>
<totfact> 0.66118345E+02</totfact>
</mgrwt>
</event>
<event>
 4    1  0.1837449E-005  0.8707428E+03  0.7818608E-02  0.9462912E-01
          2   -1    0    0  501    0  0.00000000000E+00  0.00000000000E+00  0.13475233691E+04  0.13475233691E+04  0.25500000000E-02 0.  1.
         -2   -1    0    0    0  501 -0.00000000000E+00 -0.00000000000E+00 -0.14066416085E+03  0.14066416087E+03  0.25500000000E-02 0. -1.
    5000001    1    1    2    0    0 -0.15887484087E+03  0.36220714076E+03  0.47228444137E+03  0.63774040286E+03  0.16500000000E+03 0.  0.
   -5000001    1    1    2    0    0  0.15887484087E+03 -0.36220714076E+03  0.73457476686E+03  0.85044712709E+03  0.16500000000E+03 0.  0.
<mgrwt>
<rscale>  0 0.87074277E+03</rscale>
<asrwt>0</asrwt>
<pdfrwt beam="1">  1        2 0.19250335E+00 0.87074277E+03</pdfrwt>
<pdfrwt beam="2">  1       -2 0.20094879E-01 0.87074277E+03</pdfrwt>
<totfact> 0.37484388E+02</totfact>
</mgrwt>
</event>
<event>
 4    1  0.1837449E-005  0.5048369E+03  0.7818608E-02  0.1012524E+00
         -2   -1    0    0    0  501 -0.00000000000E+00  0.00000000000E+00  0.53533064207E+02  0.53533064267E+02  0.25500000000E-02 0. -1.
          2   -1    0    0  501    0  0.00000000000E+00 -0.00000000000E+00 -0.11902003429E+04  0.11902003429E+04  0.25500000000E-02 0.  1.
    5000001    1    1    2    0    0  0.61501635327E+02  0.16408158152E+03 -0.38095397741E+03  0.45061752013E+03  0.16500000000E+03 0.  0.
   -5000001    1    1    2    0    0 -0.61501635327E+02 -0.16408158152E+03 -0.75571330130E+03  0.79311588706E+03  0.16500000000E+03 0.  0.
<mgrwt>
<rscale>  0 0.50483689E+03</rscale>
<asrwt>0</asrwt>
<pdfrwt beam="1">  1        2 0.17002860E+00 0.50483689E+03</pdfrwt>
<pdfrwt beam="2">  1       -2 0.76475813E-02 0.50483689E+03</pdfrwt>
<totfact> 0.23031585E+03</totfact>
</mgrwt>
</event>
<event>
 4    1  0.1837449E-005  0.5843385E+03  0.7818608E-02  0.9938442E-01
          2   -1    0    0  501    0  0.00000000000E+00  0.00000000000E+00  0.62816472963E+03  0.62816472963E+03  0.25500000000E-02 0.  1.
         -2   -1    0    0    0  501 -0.00000000000E+00 -0.00000000000E+00 -0.13589248043E+03  0.13589248046E+03  0.25500000000E-02 0. -1.
    5000001    1    1    2    0    0 -0.20212125579E+03 -0.24730159136E+02  0.77297454330E+02  0.27324801785E+03  0.16500000000E+03 0.  0.
   -5000001    1    1    2    0    0  0.20212125579E+03  0.24730159136E+02  0.41497479486E+03  0.49080919224E+03  0.16500000000E+03 0.  0.
<mgrwt>
<rscale>  0 0.58433847E+03</rscale>
<asrwt>0</asrwt>
<pdfrwt beam="1">  1        2 0.89737819E-01 0.58433847E+03</pdfrwt>
<pdfrwt beam="2">  1       -2 0.19413211E-01 0.58433847E+03</pdfrwt>
<totfact> 0.11562077E+03</totfact>
</mgrwt>
</event>
<event>
 4    1  0.1837449E-005  0.5489558E+03  0.7818608E-02  0.1001736E+00
         -2   -1    0    0    0  501 -0.00000000000E+00  0.00000000000E+00  0.74511647128E+02  0.74511647172E+02  0.25500000000E-02 0. -1.
          2   -1    0    0  501    0  0.00000000000E+00 -0.00000000000E+00 -0.10110916748E+04  0.10110916748E+04  0.25500000000E-02 0.  1.
    5000001    1    1    2    0    0 -0.63863358095E+02  0.20892087224E+03 -0.42940421729E+03  0.50925380823E+03  0.16500000000E+03 0.  0.
   -5000001    1    1    2    0    0  0.63863358095E+02 -0.20892087224E+03 -0.50717581038E+03  0.57634951375E+03  0.16500000000E+03 0.  0.
<mgrwt>
<rscale>  0 0.54895576E+03</rscale>
<asrwt>0</asrwt>
<pdfrwt beam="1">  1        2 0.14444166E+00 0.54895576E+03</pdfrwt>
<pdfrwt beam="2">  1       -2 0.10644522E-01 0.54895576E+03</pdfrwt>
<totfact> 0.17204741E+03</totfact>
</mgrwt>
</event>
<event>
 4    1  0.1837449E-005  0.7495039E+03  0.7818608E-02  0.9636129E-01
         -2   -1    0    0    0  501 -0.00000000000E+00  0.00000000000E+00  0.67062529881E+02  0.67062529929E+02  0.25500000000E-02 0. -1.
          2   -1    0    0  501    0  0.00000000000E+00 -0.00000000000E+00 -0.20941502555E+04  0.20941502555E+04  0.25500000000E-02 0.  1.
    5000001    1    1    2    0    0 -0.22586031985E+03 -0.15742344721E+03 -0.15713325055E+04  0.16037786221E+04  0.16500000000E+03 0.  0.
   -5000001    1    1    2    0    0  0.22586031985E+03  0.15742344721E+03 -0.45575522019E+03  0.55743416342E+03  0.16500000000E+03 0.  0.
<mgrwt>
<rscale>  0 0.74950387E+03</rscale>
<asrwt>0</asrwt>
<pdfrwt beam="1">  1        2 0.29916428E+00 0.74950387E+03</pdfrwt>
<pdfrwt beam="2">  1       -2 0.95803627E-02 0.74950387E+03</pdfrwt>
<totfact> 0.53962111E+02</totfact>
</mgrwt>
</event>
<event>
 4    1  0.1837449E-005  0.5022693E+03  0.7818608E-02  0.1013188E+00
         -2   -1    0    0    0  501 -0.00000000000E+00  0.00000000000E+00  0.44939050426E+03  0.44939050427E+03  0.25500000000E-02 0. -1.
          2   -1    0    0  501    0  0.00000000000E+00 -0.00000000000E+00 -0.14034252943E+03  0.14034252946E+03  0.25500000000E-02 0.  1.
    5000001    1    1    2    0    0  0.18307405814E+03  0.45116684920E+02  0.13446121262E+03  0.28435267489E+03  0.16500000000E+03 0.  0.
   -5000001    1    1    2    0    0 -0.18307405814E+03 -0.45116684920E+02  0.17458676221E+03  0.30538035883E+03  0.16500000000E+03 0.  0.
<mgrwt>
<rscale>  0 0.50226925E+03</rscale>
<asrwt>0</asrwt>
<pdfrwt beam="1">  1        2 0.20048933E-01 0.50226925E+03</pdfrwt>
<pdfrwt beam="2">  1       -2 0.64198643E-01 0.50226925E+03</pdfrwt>
<totfact> 0.63949667E+02</totfact>
</mgrwt>
</event>
<event>
 4    1  0.1837449E-005  0.5871541E+03  0.7818608E-02  0.9932421E-01
         -2   -1    0    0    0  501 -0.00000000000E+00  0.00000000000E+00  0.21063322979E+02  0.21063323133E+02  0.25500000000E-02 0. -1.
          2   -1    0    0  501    0  0.00000000000E+00 -0.00000000000E+00 -0.40918279300E+04  0.40918279300E+04  0.25500000000E-02 0.  1.
    5000001    1    1    2    0    0 -0.18847465152E+03 -0.10273783417E+03 -0.12402619324E+04  0.12694693450E+04  0.16500000000E+03 0.  0.
   -5000001    1    1    2    0    0  0.18847465152E+03  0.10273783417E+03 -0.28305026746E+04  0.28434219082E+04  0.16500000000E+03 0.  0.
<mgrwt>
<rscale>  0 0.58715413E+03</rscale>
<asrwt>0</asrwt>
<pdfrwt beam="1">  1        2 0.58454634E+00 0.58715413E+03</pdfrwt>
<pdfrwt beam="2">  1       -2 0.30090488E-02 0.58715413E+03</pdfrwt>
<totfact> 0.24757461E+02</totfact>
</mgrwt>
</event>
<event>
 4    1  0.1837449E-005  0.3568694E+03  0.7818608E-02  0.1059830E+00
          2   -1    0    0  501    0  0.00000000000E+00  0.00000000000E+00  0.35446115607E+04  0.35446115608E+04  0.25500000000E-02 0.  1.
         -2   -1    0    0    0  501 -0.00000000000E+00 -0.00000000000E+00 -0.89823504512E+01  0.89823508132E+01  0.25500000000E-02 0. -1.
    5000001    1    1    2    0    0 -0.14144936340E+02  0.56342891157E+02  0.21183680864E+04  0.21255782625E+04  0.16500000000E+03 0.  0.
   -5000001    1    1    2    0    0  0.14144936340E+02 -0.56342891157E+02  0.14172611239E+04  0.14280156491E+04  0.16500000000E+03 0.  0.
<mgrwt>
<rscale>  0 0.35686941E+03</rscale>
<asrwt>0</asrwt>
<pdfrwt beam="1">  1        2 0.50637229E+00 0.35686941E+03</pdfrwt>
<pdfrwt beam="2">  1       -2 0.12831950E-02 0.35686941E+03</pdfrwt>
<totfact> 0.20286964E+03</totfact>
</mgrwt>
</event>
<event>
 4    1  0.1837449E-005  0.5508169E+03  0.7818608E-02  0.1001305E+00
          2   -1    0    0  501    0  0.00000000000E+00  0.00000000000E+00  0.26620692146E+03  0.26620692147E+03  0.25500000000E-02 0.  1.
         -2   -1    0    0    0  501 -0.00000000000E+00 -0.00000000000E+00 -0.28492804253E+03  0.28492804254E+03  0.25500000000E-02 0. -1.
    5000001    1    1    2    0    0 -0.10066476274E+03 -0.18013228330E+03 -0.87147222321E+02  0.27820976313E+03  0.16500000000E+03 0.  0.
   -5000001    1    1    2    0    0  0.10066476274E+03  0.18013228330E+03  0.68426101250E+02  0.27292520088E+03  0.16500000000E+03 0.  0.
<mgrwt>
<rscale>  0 0.55081691E+03</rscale>
<asrwt>0</asrwt>
<pdfrwt beam="1">  1        2 0.38029560E-01 0.55081691E+03</pdfrwt>
<pdfrwt beam="2">  1       -2 0.40704006E-01 0.55081691E+03</pdfrwt>
<totfact> 0.78233770E+02</totfact>
</mgrwt>
</event>
<event>
 4    1  0.1837449E-005  0.5203795E+03  0.7818608E-02  0.1008592E+00
         -2   -1    0    0    0  501 -0.00000000000E+00  0.00000000000E+00  0.10561607321E+03  0.10561607325E+03  0.25500000000E-02 0. -1.
          2   -1    0    0  501    0  0.00000000000E+00 -0.00000000000E+00 -0.64098874603E+03  0.64098874603E+03  0.25500000000E-02 0.  1.
    5000001    1    1    2    0    0 -0.14626545409E+03  0.11248553692E+03 -0.15266476334E+03  0.29082315768E+03  0.16500000000E+03 0.  0.
   -5000001    1    1    2    0    0  0.14626545409E+03 -0.11248553692E+03 -0.38270790948E+03  0.45578166160E+03  0.16500000000E+03 0.  0.
<mgrwt>
<rscale>  0 0.52037953E+03</rscale>
<asrwt>0</asrwt>
<pdfrwt beam="1">  1        2 0.91569819E-01 0.52037953E+03</pdfrwt>
<pdfrwt beam="2">  1       -2 0.15088011E-01 0.52037953E+03</pdfrwt>
<totfact> 0.17355479E+03</totfact>
</mgrwt>
</event>
<event>
 4    1  0.1837449E-005  0.4779462E+03  0.7818608E-02  0.1019701E+00
          2   -1    0    0  501    0  0.00000000000E+00  0.00000000000E+00  0.42280869827E+02  0.42280869904E+02  0.25500000000E-02 0.  1.
         -2   -1    0    0    0  501 -0.00000000000E+00 -0.00000000000E+00 -0.13506852671E+04  0.13506852671E+04  0.25500000000E-02 0. -1.
    5000001    1    1    2    0    0 -0.15869079146E+03 -0.26136270926E+02 -0.46947648062E+03  0.52297135467E+03  0.16500000000E+03 0.  0.
   -5000001    1    1    2    0    0  0.15869079146E+03  0.26136270926E+02 -0.83892791668E+03  0.86999478236E+03  0.16500000000E+03 0.  0.
<mgrwt>
<rscale>  0 0.47794622E+03</rscale>
<asrwt>0</asrwt>
<pdfrwt beam="1">  1        2 0.60401251E-02 0.47794622E+03</pdfrwt>
<pdfrwt beam="2">  1       -2 0.19295501E+00 0.47794622E+03</pdfrwt>
<totfact> 0.19509035E+02</totfact>
</mgrwt>
</event>
<event>
 4    1  0.1837449E-005  0.5989804E+03  0.7818608E-02  0.9907524E-01
         -2   -1    0    0    0  501 -0.00000000000E+00  0.00000000000E+00  0.37568241559E+03  0.37568241560E+03  0.25500000000E-02 0. -1.
          2   -1    0    0  501    0  0.00000000000E+00 -0.00000000000E+00 -0.23875056115E+03  0.23875056116E+03  0.25500000000E-02 0.  1.
    5000001    1    1    2    0    0 -0.14156583794E+03 -0.20559733800E+03  0.81369622356E+02  0.31009219162E+03  0.16500000000E+03 0.  0.
   -5000001    1    1    2    0    0  0.14156583794E+03  0.20559733800E+03  0.55562232079E+02  0.30434078514E+03  0.16500000000E+03 0.  0.
<mgrwt>
<rscale>  0 0.59898043E+03</rscale>
<asrwt>0</asrwt>
<pdfrwt beam="1">  1        2 0.34107223E-01 0.59898043E+03</pdfrwt>
<pdfrwt beam="2">  1       -2 0.53668916E-01 0.59898043E+03</pdfrwt>
<totfact> 0.50773999E+02</totfact>
</mgrwt>
</event>
<event>
 4    1  0.1837449E-005  0.4716129E+03  0.7818608E-02  0.1021466E+00
          2   -1    0    0  501    0  0.00000000000E+00  0.00000000000E+00  0.62671459916E+03  0.62671459917E+03  0.25500000000E-02 0.  1.
         -2   -1    0    0    0  501 -0.00000000000E+00 -0.00000000000E+00 -0.88724085586E+02  0.88724085622E+02  0.25500000000E-02 0. -1.
    5000001    1    1    2    0    0  0.15410931953E+03  0.65671378408E+02  0.29601613769E+03  0.37803831298E+03  0.16500000000E+03 0.  0.
   -5000001    1    1    2    0    0 -0.15410931953E+03 -0.65671378408E+02  0.24197437588E+03  0.33740037181E+03  0.16500000000E+03 0.  0.
<mgrwt>
<rscale>  0 0.47161289E+03</rscale>
<asrwt>0</asrwt>
<pdfrwt beam="1">  1        2 0.89530660E-01 0.47161289E+03</pdfrwt>
<pdfrwt beam="2">  1       -2 0.12674869E-01 0.47161289E+03</pdfrwt>
<totfact> 0.23804822E+03</totfact>
</mgrwt>
</event>
<event>
 4    1  0.1837449E-005  0.5185301E+03  0.7818608E-02  0.1009052E+00
         -2   -1    0    0    0  501 -0.00000000000E+00  0.00000000000E+00  0.20518808284E+03  0.20518808286E+03  0.25500000000E-02 0.  1.
          2   -1    0    0  501    0  0.00000000000E+00 -0.00000000000E+00 -0.32759397035E+03  0.32759397036E+03  0.25500000000E-02 0. -1.
    5000001    1    1    2    0    0 -0.13440208995E+03  0.25200336902E+02  0.88733870286E+02  0.23194326569E+03  0.16500000000E+03 0.  0.
   -5000001    1    1    2    0    0  0.13440208995E+03 -0.25200336902E+02 -0.21113975779E+03  0.30083878753E+03  0.16500000000E+03 0.  0.
<mgrwt>
<rscale>  0 0.51853015E+03</rscale>
<asrwt>0</asrwt>
<pdfrwt beam="1">  1        2 0.46799139E-01 0.51853015E+03</pdfrwt>
<pdfrwt beam="2">  1       -2 0.29312583E-01 0.51853015E+03</pdfrwt>
<totfact> 0.11571199E+03</totfact>
</mgrwt>
</event>
<event>
 4    1  0.1837449E-005  0.6771309E+03  0.7818608E-02  0.9757161E-01
         -2   -1    0    0    0  501 -0.00000000000E+00  0.00000000000E+00  0.41741790201E+02  0.41741790279E+02  0.25500000000E-02 0. -1.
          2   -1    0    0  501    0  0.00000000000E+00 -0.00000000000E+00 -0.27460867360E+04  0.27460867360E+04  0.25500000000E-02 0.  1.
    5000001    1    1    2    0    0  0.19520002478E+03 -0.14982445255E+03 -0.20268168880E+04  0.20483559538E+04  0.16500000000E+03 0.  0.
   -5000001    1    1    2    0    0 -0.19520002478E+03  0.14982445255E+03 -0.67752805783E+03  0.73947257245E+03  0.16500000000E+03 0.  0.
<mgrwt>
<rscale>  0 0.67713094E+03</rscale>
<asrwt>0</asrwt>
<pdfrwt beam="1">  1        2 0.39229799E+00 0.67713094E+03</pdfrwt>
<pdfrwt beam="2">  1       -2 0.59631146E-02 0.67713094E+03</pdfrwt>
<totfact> 0.53400679E+02</totfact>
</mgrwt>
</event>
<event>
 4    1  0.1837449E-005  0.5634229E+03  0.7818608E-02  0.9984339E-01
          2   -1    0    0  501    0  0.00000000000E+00  0.00000000000E+00  0.15841659278E+04  0.15841659278E+04  0.25500000000E-02 0.  1.
         -2   -1    0    0    0  501 -0.00000000000E+00 -0.00000000000E+00 -0.50096601839E+02  0.50096601903E+02  0.25500000000E-02 0. -1.
    5000001    1    1    2    0    0 -0.60376163090E+02 -0.12303542509E+03  0.23730172376E+03  0.31987513970E+03  0.16500000000E+03 0.  0.
   -5000001    1    1    2    0    0  0.60376163090E+02  0.12303542509E+03  0.12967676022E+04  0.13143873900E+04  0.16500000000E+03 0.  0.
<mgrwt>
<rscale>  0 0.56342286E+03</rscale>
<asrwt>0</asrwt>
<pdfrwt beam="1">  1        2 0.22630938E+00 0.56342286E+03</pdfrwt>
<pdfrwt beam="2">  1       -2 0.71566585E-02 0.56342286E+03</pdfrwt>
<totfact> 0.15763428E+03</totfact>
</mgrwt>
</event>
<event>
 4    1  0.1837449E-005  0.7039593E+03  0.7818608E-02  0.9710485E-01
         -2   -1    0    0    0  501 -0.00000000000E+00  0.00000000000E+00  0.21868968206E+03  0.21868968208E+03  0.25500000000E-02 0. -1.
          2   -1    0    0  501    0  0.00000000000E+00 -0.00000000000E+00 -0.56650902973E+03  0.56650902973E+03  0.25500000000E-02 0.  1.
    5000001    1    1    2    0    0 -0.69680383636E+02  0.26977862351E+03 -0.32777399477E+03  0.46075660952E+03  0.16500000000E+03 0.  0.
   -5000001    1    1    2    0    0  0.69680383636E+02 -0.26977862351E+03 -0.20045352898E+02  0.32444210229E+03  0.16500000000E+03 0.  0.
<mgrwt>
<rscale>  0 0.70395932E+03</rscale>
<asrwt>0</asrwt>
<pdfrwt beam="1">  1        2 0.80929861E-01 0.70395932E+03</pdfrwt>
<pdfrwt beam="2">  1       -2 0.31241383E-01 0.70395932E+03</pdfrwt>
<totfact> 0.55438074E+02</totfact>
</mgrwt>
</event>
<event>
 4    1  0.1837449E-005  0.3938014E+03  0.7818608E-02  0.1045947E+00
         -2   -1    0    0    0  501 -0.00000000000E+00  0.00000000000E+00  0.23040512541E+02  0.23040512683E+02  0.25500000000E-02 0. -1.
          2   -1    0    0  501    0  0.00000000000E+00 -0.00000000000E+00 -0.16826829979E+04  0.16826829979E+04  0.25500000000E-02 0.  1.
    5000001    1    1    2    0    0  0.61827066876E+02 -0.22164291138E+02 -0.11981466730E+04  0.12112366788E+04  0.16500000000E+03 0.  0.
   -5000001    1    1    2    0    0 -0.61827066876E+02  0.22164291138E+02 -0.46149581230E+03  0.49448683174E+03  0.16500000000E+03 0.  0.
<mgrwt>
<rscale>  0 0.39380137E+03</rscale>
<asrwt>0</asrwt>
<pdfrwt beam="1">  1        2 0.24038321E+00 0.39380137E+03</pdfrwt>
<pdfrwt beam="2">  1       -2 0.32915029E-02 0.39380137E+03</pdfrwt>
<totfact> 0.46679596E+03</totfact>
</mgrwt>
</event>
<event>
 4    1  0.1837449E-005  0.4259631E+03  0.7818608E-02  0.1035143E+00
         -2   -1    0    0    0  501 -0.00000000000E+00  0.00000000000E+00  0.27292256963E+03  0.27292256964E+03  0.25500000000E-02 0. -1.
          2   -1    0    0  501    0  0.00000000000E+00 -0.00000000000E+00 -0.16620518041E+03  0.16620518043E+03  0.25500000000E-02 0.  1.
    5000001    1    1    2    0    0 -0.82542273240E+02  0.10323464448E+03  0.26763604022E+02  0.21310070200E+03  0.16500000000E+03 0.  0.
   -5000001    1    1    2    0    0  0.82542273240E+02 -0.10323464448E+03  0.79953785193E+02  0.22602704807E+03  0.16500000000E+03 0.  0.
<mgrwt>
<rscale>  0 0.42596312E+03</rscale>
<asrwt>0</asrwt>
<pdfrwt beam="1">  1        2 0.23743597E-01 0.42596312E+03</pdfrwt>
<pdfrwt beam="2">  1       -2 0.38988939E-01 0.42596312E+03</pdfrwt>
<totfact> 0.14393198E+03</totfact>
</mgrwt>
</event>
<event>
 4    1  0.1837449E-005  0.5018740E+03  0.7818608E-02  0.1013291E+00
          2   -1    0    0  501    0  0.00000000000E+00  0.00000000000E+00  0.17639621144E+03  0.17639621146E+03  0.25500000000E-02 0.  1.
         -2   -1    0    0    0  501 -0.00000000000E+00 -0.00000000000E+00 -0.35697692745E+03  0.35697692746E+03  0.25500000000E-02 0. -1.
    5000001    1    1    2    0    0 -0.22977723643E+02  0.11968631360E+03 -0.24390130703E+03  0.31869364132E+03  0.16500000000E+03 0.  0.
   -5000001    1    1    2    0    0  0.22977723643E+02 -0.11968631360E+03  0.63320591021E+02  0.21467949761E+03  0.16500000000E+03 0.  0.
<mgrwt>
<rscale>  0 0.50187400E+03</rscale>
<asrwt>0</asrwt>
<pdfrwt beam="1">  1        2 0.25199459E-01 0.50187400E+03</pdfrwt>
<pdfrwt beam="2">  1       -2 0.50996703E-01 0.50187400E+03</pdfrwt>
<totfact> 0.79271183E+02</totfact>
</mgrwt>
</event>
<event>
 4    1  0.1837449E-005  0.1759847E+04  0.7818608E-02  0.8727949E-01
          2   -1    0    0  501    0  0.00000000000E+00  0.00000000000E+00  0.13156274353E+04  0.13156274353E+04  0.25500000000E-02 0.  1.
         -2   -1    0    0    0  501 -0.00000000000E+00 -0.00000000000E+00 -0.58851398204E+03  0.58851398204E+03  0.25500000000E-02 0. -1.
    5000001    1    1    2    0    0 -0.54837211916E+03  0.34519692944E+03 -0.25532727393E+03  0.71574431047E+03  0.16500000000E+03 0.  0.
   -5000001    1    1    2    0    0  0.54837211916E+03 -0.34519692944E+03  0.98244072716E+03  0.11883971068E+04  0.16500000000E+03 0.  0.
<mgrwt>
<rscale>  0 0.17598467E+04</rscale>
<asrwt>0</asrwt>
<pdfrwt beam="1">  1        2 0.18794677E+00 0.17598467E+04</pdfrwt>
<pdfrwt beam="2">  1       -2 0.84073428E-01 0.17598467E+04</pdfrwt>
<totfact> 0.21596341E+01</totfact>
</mgrwt>
</event>
<event>
 4    1  0.1837449E-005  0.4790779E+03  0.7818608E-02  0.1019389E+00
          2   -1    0    0  501    0  0.00000000000E+00  0.00000000000E+00  0.28916630570E+03  0.28916630572E+03  0.25500000000E-02 0.  1.
         -2   -1    0    0    0  501 -0.00000000000E+00 -0.00000000000E+00 -0.19842871060E+03  0.19842871062E+03  0.25500000000E-02 0. -1.
    5000001    1    1    2    0    0  0.11294648424E+03 -0.80012279142E+02 -0.61352539190E+02  0.22393750731E+03  0.16500000000E+03 0.  0.
   -5000001    1    1    2    0    0 -0.11294648424E+03  0.80012279142E+02  0.15209013429E+03  0.26365750902E+03  0.16500000000E+03 0.  0.
<mgrwt>
<rscale>  0 0.47907785E+03</rscale>
<asrwt>0</asrwt>
<pdfrwt beam="1">  1        2 0.41309472E-01 0.47907785E+03</pdfrwt>
<pdfrwt beam="2">  1       -2 0.28346959E-01 0.47907785E+03</pdfrwt>
<totfact> 0.14104658E+03</totfact>
</mgrwt>
</event>
<event>
 4    1  0.1837449E-005  0.4743121E+03  0.7818608E-02  0.1020710E+00
         -2   -1    0    0    0  501 -0.00000000000E+00  0.00000000000E+00  0.14508050421E+03  0.14508050423E+03  0.25500000000E-02 0. -1.
          2   -1    0    0  501    0  0.00000000000E+00 -0.00000000000E+00 -0.38766752923E+03  0.38766752924E+03  0.25500000000E-02 0.  1.
    5000001    1    1    2    0    0 -0.13782457473E+03 -0.57157753529E+02 -0.28976347417E+02  0.22433735957E+03  0.16500000000E+03 0.  0.
   -5000001    1    1    2    0    0  0.13782457473E+03  0.57157753529E+02 -0.21361067761E+03  0.30841067390E+03  0.16500000000E+03 0.  0.
<mgrwt>
<rscale>  0 0.47431214E+03</rscale>
<asrwt>0</asrwt>
<pdfrwt beam="1">  1        2 0.55381075E-01 0.47431214E+03</pdfrwt>
<pdfrwt beam="2">  1       -2 0.20725787E-01 0.47431214E+03</pdfrwt>
<totfact> 0.17850064E+03</totfact>
</mgrwt>
</event>
<event>
 4    1  0.1837449E-005  0.3676845E+03  0.7818608E-02  0.1055582E+00
         -2   -1    0    0    0  501 -0.00000000000E+00  0.00000000000E+00  0.53811436797E+02  0.53811436857E+02  0.25500000000E-02 0. -1.
          2   -1    0    0  501    0  0.00000000000E+00 -0.00000000000E+00 -0.62808169587E+03  0.62808169587E+03  0.25500000000E-02 0.  1.
    5000001    1    1    2    0    0 -0.75661258110E+02 -0.19245270343E+02 -0.24658966982E+03  0.30680037756E+03  0.16500000000E+03 0.  0.
   -5000001    1    1    2    0    0  0.75661258110E+02  0.19245270343E+02 -0.32768058924E+03  0.37509275516E+03  0.16500000000E+03 0.  0.
<mgrwt>
<rscale>  0 0.36768453E+03</rscale>
<asrwt>0</asrwt>
<pdfrwt beam="1">  1        2 0.89725952E-01 0.36768453E+03</pdfrwt>
<pdfrwt beam="2">  1       -2 0.76873485E-02 0.36768453E+03</pdfrwt>
<totfact> 0.52809597E+03</totfact>
</mgrwt>
</event>
<event>
 4    1  0.1837449E-005  0.3987079E+03  0.7818608E-02  0.1044228E+00
         -2   -1    0    0    0  501 -0.00000000000E+00  0.00000000000E+00  0.20445513405E+02  0.20445513564E+02  0.25500000000E-02 0. -1.
          2   -1    0    0  501    0  0.00000000000E+00 -0.00000000000E+00 -0.19438004877E+04  0.19438004877E+04  0.25500000000E-02 0.  1.
    5000001    1    1    2    0    0 -0.98976176251E+02  0.49798550245E+02 -0.88522575740E+03  0.90726281784E+03  0.16500000000E+03 0.  0.
   -5000001    1    1    2    0    0  0.98976176251E+02 -0.49798550245E+02 -0.10381292169E+04  0.10569831834E+04  0.16500000000E+03 0.  0.
<mgrwt>
<rscale>  0 0.39870791E+03</rscale>
<asrwt>0</asrwt>
<pdfrwt beam="1">  1        2 0.27768567E+00 0.39870791E+03</pdfrwt>
<pdfrwt beam="2">  1       -2 0.29207889E-02 0.39870791E+03</pdfrwt>
<totfact> 0.41440722E+03</totfact>
</mgrwt>
</event>
<event>
 4    1  0.1837449E-005  0.4151131E+03  0.7818608E-02  0.1038669E+00
         -2   -1    0    0    0  501 -0.00000000000E+00  0.00000000000E+00  0.12787577648E+02  0.12787577902E+02  0.25500000000E-02 0. -1.
          2   -1    0    0  501    0  0.00000000000E+00 -0.00000000000E+00 -0.33688731616E+04  0.33688731616E+04  0.25500000000E-02 0.  1.
    5000001    1    1    2    0    0  0.86487277021E+02 -0.91442686896E+02 -0.17073170240E+04  0.17198832037E+04  0.16500000000E+03 0.  0.
   -5000001    1    1    2    0    0 -0.86487277021E+02  0.91442686896E+02 -0.16487685600E+04  0.16617775358E+04  0.16500000000E+03 0.  0.
<mgrwt>
<rscale>  0 0.41511313E+03</rscale>
<asrwt>0</asrwt>
<pdfrwt beam="1">  1        2 0.48126703E+00 0.41511313E+03</pdfrwt>
<pdfrwt beam="2">  1       -2 0.18267990E-02 0.41511313E+03</pdfrwt>
<totfact> 0.15128678E+03</totfact>
</mgrwt>
</event>
<event>
 4    1  0.1837449E-005  0.3742617E+03  0.7818608E-02  0.1053075E+00
         -2   -1    0    0    0  501 -0.00000000000E+00  0.00000000000E+00  0.53981913967E+03  0.53981913967E+03  0.25500000000E-02 0. -1.
          2   -1    0    0  501    0  0.00000000000E+00 -0.00000000000E+00 -0.64869804589E+02  0.64869804639E+02  0.25500000000E-02 0.  1.
    5000001    1    1    2    0    0  0.27400363105E+02  0.82931475977E+02  0.25820035094E+03  0.31862333692E+03  0.16500000000E+03 0.  0.
   -5000001    1    1    2    0    0 -0.27400363105E+02 -0.82931475977E+02  0.21674898414E+03  0.28606560739E+03  0.16500000000E+03 0.  0.
<mgrwt>
<rscale>  0 0.37426174E+03</rscale>
<asrwt>0</asrwt>
<pdfrwt beam="1">  1        2 0.92671144E-02 0.37426174E+03</pdfrwt>
<pdfrwt beam="2">  1       -2 0.77117025E-01 0.37426174E+03</pdfrwt>
<totfact> 0.10971245E+03</totfact>
</mgrwt>
</event>
<event>
 4    1  0.1837449E-005  0.6873857E+03  0.7818608E-02  0.9739051E-01
         -2   -1    0    0    0  501 -0.00000000000E+00  0.00000000000E+00  0.30496438011E+03  0.30496438012E+03  0.25500000000E-02 0. -1.
          2   -1    0    0  501    0  0.00000000000E+00 -0.00000000000E+00 -0.38733952963E+03  0.38733952964E+03  0.25500000000E-02 0.  1.
    5000001    1    1    2    0    0  0.25350259032E+03  0.16319778117E+03 -0.39538644238E+02  0.34595575362E+03  0.16500000000E+03 0.  0.
   -5000001    1    1    2    0    0 -0.25350259032E+03 -0.16319778117E+03 -0.42836505279E+02  0.34634815614E+03  0.16500000000E+03 0.  0.
<mgrwt>
<rscale>  0 0.68738565E+03</rscale>
<asrwt>0</asrwt>
<pdfrwt beam="1">  1        2 0.55334218E-01 0.68738565E+03</pdfrwt>
<pdfrwt beam="2">  1       -2 0.43566340E-01 0.68738565E+03</pdfrwt>
<totfact> 0.45120665E+02</totfact>
</mgrwt>
</event>
<event>
 4    1  0.1837449E-005  0.4989627E+03  0.7818608E-02  0.1014050E+00
          2   -1    0    0  501    0  0.00000000000E+00  0.00000000000E+00  0.16380519360E+04  0.16380519360E+04  0.25500000000E-02 0.  1.
         -2   -1    0    0    0  501 -0.00000000000E+00 -0.00000000000E+00 -0.37996928436E+02  0.37996928522E+02  0.25500000000E-02 0. -1.
    5000001    1    1    2    0    0  0.13728763762E+02 -0.18567079672E+03  0.86321176374E+03  0.89834384996E+03  0.16500000000E+03 0.  0.
   -5000001    1    1    2    0    0 -0.13728763762E+02  0.18567079672E+03  0.73684324386E+03  0.77770501460E+03  0.16500000000E+03 0.  0.
<mgrwt>
<rscale>  0 0.49896269E+03</rscale>
<asrwt>0</asrwt>
<pdfrwt beam="1">  1        2 0.23400748E+00 0.49896269E+03</pdfrwt>
<pdfrwt beam="2">  1       -2 0.54281312E-02 0.49896269E+03</pdfrwt>
<totfact> 0.22849832E+03</totfact>
</mgrwt>
</event>
<event>
 4    1  0.1837449E-005  0.3937201E+03  0.7818608E-02  0.1045976E+00
          2   -1    0    0  501    0  0.00000000000E+00  0.00000000000E+00  0.85864177607E+03  0.85864177607E+03  0.25500000000E-02 0.  1.
         -2   -1    0    0    0  501 -0.00000000000E+00 -0.00000000000E+00 -0.45133930860E+02  0.45133930932E+02  0.25500000000E-02 0. -1.
    5000001    1    1    2    0    0 -0.55705075897E+02 -0.83474258869E+02  0.31910780945E+03  0.37299571235E+03  0.16500000000E+03 0.  0.
   -5000001    1    1    2    0    0  0.55705075897E+02  0.83474258869E+02  0.49440003576E+03  0.53077999466E+03  0.16500000000E+03 0.  0.
<mgrwt>
<rscale>  0 0.39372010E+03</rscale>
<asrwt>0</asrwt>
<pdfrwt beam="1">  1        2 0.12266310E+00 0.39372010E+03</pdfrwt>
<pdfrwt beam="2">  1       -2 0.64477052E-02 0.39372010E+03</pdfrwt>
<totfact> 0.47485420E+03</totfact>
</mgrwt>
</event>
<event>
 4    1  0.1837449E-005  0.4260217E+03  0.7818608E-02  0.1035124E+00
          2   -1    0    0  501    0  0.00000000000E+00  0.00000000000E+00  0.17974963322E+04  0.17974963322E+04  0.25500000000E-02 0.  1.
         -2   -1    0    0    0  501 -0.00000000000E+00 -0.00000000000E+00 -0.25242677007E+02  0.25242677135E+02  0.25500000000E-02 0. -1.
    5000001    1    1    2    0    0  0.42485971047E+02  0.66632992673E+02  0.41932553247E+03  0.45749744877E+03  0.16500000000E+03 0.  0.
   -5000001    1    1    2    0    0 -0.42485971047E+02 -0.66632992673E+02  0.13529281227E+04  0.13652415606E+04  0.16500000000E+03 0.  0.
<mgrwt>
<rscale>  0 0.42602169E+03</rscale>
<asrwt>0</asrwt>
<pdfrwt beam="1">  1        2 0.25678523E+00 0.42602169E+03</pdfrwt>
<pdfrwt beam="2">  1       -2 0.36060962E-02 0.42602169E+03</pdfrwt>
<totfact> 0.35618037E+03</totfact>
</mgrwt>
</event>
<event>
 4    1  0.1837449E-005  0.5079544E+03  0.7818608E-02  0.1011723E+00
         -2   -1    0    0    0  501 -0.00000000000E+00  0.00000000000E+00  0.26987076488E+02  0.26987076609E+02  0.25500000000E-02 0. -1.
          2   -1    0    0  501    0  0.00000000000E+00 -0.00000000000E+00 -0.23901967366E+04  0.23901967366E+04  0.25500000000E-02 0.  1.
    5000001    1    1    2    0    0 -0.13520843110E+03 -0.10551412781E+03 -0.75958705205E+03  0.79599751297E+03  0.16500000000E+03 0.  0.
   -5000001    1    1    2    0    0  0.13520843110E+03  0.10551412781E+03 -0.16036226080E+04  0.16211863002E+04  0.16500000000E+03 0.  0.
<mgrwt>
<rscale>  0 0.50795442E+03</rscale>
<asrwt>0</asrwt>
<pdfrwt beam="1">  1        2 0.34145654E+00 0.50795442E+03</pdfrwt>
<pdfrwt beam="2">  1       -2 0.38552982E-02 0.50795442E+03</pdfrwt>
<totfact> 0.16220497E+03</totfact>
</mgrwt>
</event>
<event>
 4    1  0.1837449E-005  0.4986128E+03  0.7818608E-02  0.1014142E+00
          2   -1    0    0  501    0  0.00000000000E+00  0.00000000000E+00  0.63306462857E+03  0.63306462858E+03  0.25500000000E-02 0.  1.
         -2   -1    0    0    0  501 -0.00000000000E+00 -0.00000000000E+00 -0.98179050921E+02  0.98179050954E+02  0.25500000000E-02 0. -1.
    5000001    1    1    2    0    0 -0.63215482236E+02 -0.16577908342E+03  0.35358074483E+03  0.42862949596E+03  0.16500000000E+03 0.  0.
   -5000001    1    1    2    0    0  0.63215482236E+02  0.16577908342E+03  0.18130483282E+03  0.30261418357E+03  0.16500000000E+03 0.  0.
<mgrwt>
<rscale>  0 0.49861281E+03</rscale>
<asrwt>0</asrwt>
<pdfrwt beam="1">  1        2 0.90437805E-01 0.49861281E+03</pdfrwt>
<pdfrwt beam="2">  1       -2 0.14025579E-01 0.49861281E+03</pdfrwt>
<totfact> 0.19899241E+03</totfact>
</mgrwt>
</event>
<event>
 4    1  0.1837449E-005  0.4574819E+03  0.7818608E-02  0.1025514E+00
         -2   -1    0    0    0  501 -0.00000000000E+00  0.00000000000E+00  0.17858529159E+02  0.17858529341E+02  0.25500000000E-02 0. -1.
          2   -1    0    0  501    0  0.00000000000E+00 -0.00000000000E+00 -0.29298283997E+04  0.29298283997E+04  0.25500000000E-02 0.  1.
    5000001    1    1    2    0    0 -0.78398859865E+02 -0.10866622824E+03 -0.20005358600E+04  0.20117960775E+04  0.16500000000E+03 0.  0.
   -5000001    1    1    2    0    0  0.78398859865E+02  0.10866622824E+03 -0.91143401055E+03  0.93589085153E+03  0.16500000000E+03 0.  0.
<mgrwt>
<rscale>  0 0.45748192E+03</rscale>
<asrwt>0</asrwt>
<pdfrwt beam="1">  1        2 0.41854661E+00 0.45748192E+03</pdfrwt>
<pdfrwt beam="2">  1       -2 0.25512203E-02 0.45748192E+03</pdfrwt>
<totfact> 0.15982474E+03</totfact>
</mgrwt>
</event>
<event>
 4    1  0.1837449E-005  0.3739434E+03  0.7818608E-02  0.1053195E+00
         -2   -1    0    0    0  501 -0.00000000000E+00  0.00000000000E+00  0.48934822999E+02  0.48934823066E+02  0.25500000000E-02 0. -1.
          2   -1    0    0  501    0  0.00000000000E+00 -0.00000000000E+00 -0.71438746896E+03  0.71438746896E+03  0.25500000000E-02 0.  1.
    5000001    1    1    2    0    0 -0.59187935153E+02 -0.65022462165E+02 -0.33581676552E+03  0.38435534634E+03  0.16500000000E+03 0.  0.
   -5000001    1    1    2    0    0  0.59187935153E+02  0.65022462165E+02 -0.32963588044E+03  0.37896694569E+03  0.16500000000E+03 0.  0.
<mgrwt>
<rscale>  0 0.37394344E+03</rscale>
<asrwt>0</asrwt>
<pdfrwt beam="1">  1        2 0.10205535E+00 0.37394344E+03</pdfrwt>
<pdfrwt beam="2">  1       -2 0.69906894E-02 0.37394344E+03</pdfrwt>
<totfact> 0.52610551E+03</totfact>
</mgrwt>
</event>
<event>
 4    1  0.1837449E-005  0.1908472E+04  0.7818608E-02  0.8650651E-01
          2   -1    0    0  501    0  0.00000000000E+00  0.00000000000E+00  0.18950357842E+04  0.18950357842E+04  0.25500000000E-02 0.  1.
         -2   -1    0    0    0  501 -0.00000000000E+00 -0.00000000000E+00 -0.48050089797E+03  0.48050089798E+03  0.25500000000E-02 0. -1.
    5000001    1    1    2    0    0 -0.55517141028E+03 -0.69557305074E+03  0.10833830809E+04  0.14117298126E+04  0.16500000000E+03 0.  0.
   -5000001    1    1    2    0    0  0.55517141028E+03  0.69557305074E+03  0.33115180528E+03  0.96380686958E+03  0.16500000000E+03 0.  0.
<mgrwt>
<rscale>  0 0.19084721E+04</rscale>
<asrwt>0</asrwt>
<pdfrwt beam="1">  1        2 0.27071940E+00 0.19084721E+04</pdfrwt>
<pdfrwt beam="2">  1       -2 0.68642984E-01 0.19084721E+04</pdfrwt>
<totfact> 0.16557115E+01</totfact>
</mgrwt>
</event>
<event>
 4    1  0.1837449E-005  0.8050612E+03  0.7818608E-02  0.9552720E-01
         -2   -1    0    0    0  501 -0.00000000000E+00  0.00000000000E+00  0.74862324565E+02  0.74862324609E+02  0.25500000000E-02 0. -1.
          2   -1    0    0  501    0  0.00000000000E+00 -0.00000000000E+00 -0.21643849354E+04  0.21643849354E+04  0.25500000000E-02 0.  1.
    5000001    1    1    2    0    0 -0.24131590143E+03 -0.12153534984E+03 -0.17362312343E+04  0.17648592308E+04  0.16500000000E+03 0.  0.
   -5000001    1    1    2    0    0  0.24131590143E+03  0.12153534984E+03 -0.35329137657E+03  0.47438802926E+03  0.16500000000E+03 0.  0.
<mgrwt>
<rscale>  0 0.80506121E+03</rscale>
<asrwt>0</asrwt>
<pdfrwt beam="1">  1        2 0.30919781E+00 0.80506121E+03</pdfrwt>
<pdfrwt beam="2">  1       -2 0.10694619E-01 0.80506121E+03</pdfrwt>
<totfact> 0.41393600E+02</totfact>
</mgrwt>
</event>
<event>
 4    1  0.1837449E-005  0.7674503E+03  0.7818608E-02  0.9608364E-01
          2   -1    0    0  501    0  0.00000000000E+00  0.00000000000E+00  0.11708977845E+04  0.11708977845E+04  0.25500000000E-02 0. -1.
         -2   -1    0    0    0  501 -0.00000000000E+00 -0.00000000000E+00 -0.12575392455E+03  0.12575392458E+03  0.25500000000E-02 0.  1.
    5000001    1    1    2    0    0  0.18282085540E+03  0.24844144887E+03  0.25610678053E+03  0.43354619329E+03  0.16500000000E+03 0.  0.
   -5000001    1    1    2    0    0 -0.18282085540E+03 -0.24844144887E+03  0.78903707938E+03  0.86310551575E+03  0.16500000000E+03 0.  0.
<mgrwt>
<rscale>  0 0.76745030E+03</rscale>
<asrwt>0</asrwt>
<pdfrwt beam="1">  1        2 0.16727111E+00 0.76745030E+03</pdfrwt>
<pdfrwt beam="2">  1       -2 0.17964846E-01 0.76745030E+03</pdfrwt>
<totfact> 0.57394884E+02</totfact>
</mgrwt>
</event>
<event>
 4    1  0.1837449E-005  0.1209587E+04  0.7818608E-02  0.9104506E-01
         -2   -1    0    0    0  501 -0.00000000000E+00  0.00000000000E+00  0.12050934176E+04  0.12050934176E+04  0.25500000000E-02 0. -1.
          2   -1    0    0  501    0  0.00000000000E+00 -0.00000000000E+00 -0.30352431145E+03  0.30352431146E+03  0.25500000000E-02 0.  1.
    5000001    1    1    2    0    0 -0.12446953418E+03 -0.37850361322E+03 -0.78059832793E+02  0.43826474608E+03  0.16500000000E+03 0.  0.
   -5000001    1    1    2    0    0  0.12446953418E+03  0.37850361322E+03  0.97962893898E+03  0.10703529830E+04  0.16500000000E+03 0.  0.
<mgrwt>
<rscale>  0 0.12095870E+04</rscale>
<asrwt>0</asrwt>
<pdfrwt beam="1">  1        2 0.43360615E-01 0.12095870E+04</pdfrwt>
<pdfrwt beam="2">  1       -2 0.17215621E+00 0.12095870E+04</pdfrwt>
<totfact> 0.23886827E+01</totfact>
</mgrwt>
</event>
<event>
 4    1  0.1837449E-005  0.4136777E+03  0.7818608E-02  0.1039144E+00
          2   -1    0    0  501    0  0.00000000000E+00  0.00000000000E+00  0.36624948683E+04  0.36624948683E+04  0.25500000000E-02 0.  1.
         -2   -1    0    0    0  501 -0.00000000000E+00 -0.00000000000E+00 -0.11681195755E+02  0.11681196034E+02  0.25500000000E-02 0. -1.
    5000001    1    1    2    0    0 -0.11731861496E+03  0.33686547697E+02  0.15974247777E+04  0.16105556064E+04  0.16500000000E+03 0.  0.
   -5000001    1    1    2    0    0  0.11731861496E+03 -0.33686547697E+02  0.20533888949E+04  0.20636204580E+04  0.16500000000E+03 0.  0.
<mgrwt>
<rscale>  0 0.41367775E+03</rscale>
<asrwt>0</asrwt>
<pdfrwt beam="1">  1        2 0.52321345E+00 0.41367775E+03</pdfrwt>
<pdfrwt beam="2">  1       -2 0.16687426E-02 0.41367775E+03</pdfrwt>
<totfact> 0.11617674E+03</totfact>
</mgrwt>
</event>
<event>
 4    1  0.1837449E-005  0.3720480E+03  0.7818608E-02  0.1053913E+00
          2   -1    0    0  501    0  0.00000000000E+00  0.00000000000E+00  0.43480383638E+02  0.43480383713E+02  0.25500000000E-02 0.  1.
         -2   -1    0    0    0  501 -0.00000000000E+00 -0.00000000000E+00 -0.79587436672E+03  0.79587436673E+03  0.25500000000E-02 0. -1.
    5000001    1    1    2    0    0 -0.49491712056E+02  0.66624153415E+02 -0.32617009756E+03  0.37483348293E+03  0.16500000000E+03 0.  0.
   -5000001    1    1    2    0    0  0.49491712056E+02 -0.66624153415E+02 -0.42622388552E+03  0.46452126751E+03  0.16500000000E+03 0.  0.
<mgrwt>
<rscale>  0 0.37204797E+03</rscale>
<asrwt>0</asrwt>
<pdfrwt beam="1">  1        2 0.62114839E-02 0.37204797E+03</pdfrwt>
<pdfrwt beam="2">  1       -2 0.11369633E+00 0.37204797E+03</pdfrwt>
<totfact> 0.75188186E+02</totfact>
</mgrwt>
</event>
<event>
 4    1  0.1837449E-005  0.3746981E+03  0.7818608E-02  0.1052911E+00
         -2   -1    0    0    0  501 -0.00000000000E+00  0.00000000000E+00  0.17917841662E+02  0.17917841843E+02  0.25500000000E-02 0. -1.
          2   -1    0    0  501    0  0.00000000000E+00 -0.00000000000E+00 -0.19589230139E+04  0.19589230139E+04  0.25500000000E-02 0.  1.
    5000001    1    1    2    0    0  0.54988383538E+02  0.27879528738E+02 -0.63377108329E+03  0.65779311068E+03  0.16500000000E+03 0.  0.
   -5000001    1    1    2    0    0 -0.54988383538E+02 -0.27879528738E+02 -0.13072340890E+04  0.13190477451E+04  0.16500000000E+03 0.  0.
<mgrwt>
<rscale>  0 0.37469813E+03</rscale>
<asrwt>0</asrwt>
<pdfrwt beam="1">  1        2 0.27984601E+00 0.37469813E+03</pdfrwt>
<pdfrwt beam="2">  1       -2 0.25596929E-02 0.37469813E+03</pdfrwt>
<totfact> 0.49654469E+03</totfact>
</mgrwt>
</event>
<event>
 4    1  0.1837449E-005  0.8999810E+03  0.7818608E-02  0.9425605E-01
          2   -1    0    0  501    0  0.00000000000E+00  0.00000000000E+00  0.26971764175E+04  0.26971764175E+04  0.25500000000E-02 0.  1.
         -2   -1    0    0    0  501 -0.00000000000E+00 -0.00000000000E+00 -0.75075349106E+02  0.75075349149E+02  0.25500000000E-02 0. -1.
    5000001    1    1    2    0    0  0.33101317094E+03  0.74588558851E+02  0.55568564459E+03  0.67167306635E+03  0.16500000000E+03 0.  0.
   -5000001    1    1    2    0    0 -0.33101317094E+03 -0.74588558851E+02  0.20664154238E+04  0.21005787003E+04  0.16500000000E+03 0.  0.
<mgrwt>
<rscale>  0 0.89998102E+03</rscale>
<asrwt>0</asrwt>
<pdfrwt beam="1">  1        2 0.38531096E+00 0.89998102E+03</pdfrwt>
<pdfrwt beam="2">  1       -2 0.10725049E-01 0.89998102E+03</pdfrwt>
<totfact> 0.21693555E+02</totfact>
</mgrwt>
</event>
<event>
 4    1  0.1837449E-005  0.4000807E+03  0.7818608E-02  0.1043752E+00
         -2   -1    0    0    0  501 -0.00000000000E+00  0.00000000000E+00  0.25384966853E+02  0.25384966981E+02  0.25500000000E-02 0. -1.
          2   -1    0    0  501    0  0.00000000000E+00 -0.00000000000E+00 -0.15763718669E+04  0.15763718669E+04  0.25500000000E-02 0.  1.
    5000001    1    1    2    0    0 -0.84361119441E+02  0.23080467087E+02 -0.10625714006E+04  0.10788570285E+04  0.16500000000E+03 0.  0.
   -5000001    1    1    2    0    0  0.84361119441E+02 -0.23080467087E+02 -0.48841549941E+03  0.52289980541E+03  0.16500000000E+03 0.  0.
<mgrwt>
<rscale>  0 0.40008073E+03</rscale>
<asrwt>0</asrwt>
<pdfrwt beam="1">  1        2 0.22519592E+00 0.40008073E+03</pdfrwt>
<pdfrwt beam="2">  1       -2 0.36264248E-02 0.40008073E+03</pdfrwt>
<totfact> 0.45615919E+03</totfact>
</mgrwt>
</event>
<event>
 4    1  0.1837449E-005  0.5617349E+03  0.7818608E-02  0.9988137E-01
          2   -1    0    0  501    0  0.00000000000E+00  0.00000000000E+00  0.42886981481E+03  0.42886981482E+03  0.25500000000E-02 0.  1.
         -2   -1    0    0    0  501 -0.00000000000E+00 -0.00000000000E+00 -0.18394049406E+03  0.18394049407E+03  0.25500000000E-02 0. -1.
    5000001    1    1    2    0    0  0.16643695200E+03  0.14181474349E+03  0.54784734789E+02  0.27935469860E+03  0.16500000000E+03 0.  0.
   -5000001    1    1    2    0    0 -0.16643695200E+03 -0.14181474349E+03  0.19014458596E+03  0.33345561029E+03  0.16500000000E+03 0.  0.
<mgrwt>
<rscale>  0 0.56173490E+03</rscale>
<asrwt>0</asrwt>
<pdfrwt beam="1">  1        2 0.61267118E-01 0.56173490E+03</pdfrwt>
<pdfrwt beam="2">  1       -2 0.26277213E-01 0.56173490E+03</pdfrwt>
<totfact> 0.10481939E+03</totfact>
</mgrwt>
</event>
<event>
 4    1  0.1837449E-005  0.5506855E+03  0.7818608E-02  0.1001335E+00
          2   -1    0    0  501    0  0.00000000000E+00  0.00000000000E+00  0.19040116257E+04  0.19040116257E+04  0.25500000000E-02 0.  1.
         -2   -1    0    0    0  501 -0.00000000000E+00 -0.00000000000E+00 -0.39817838933E+02  0.39817839015E+02  0.25500000000E-02 0. -1.
    5000001    1    1    2    0    0  0.13232285894E+03 -0.17613294048E+03  0.90556985400E+03  0.94647446462E+03  0.16500000000E+03 0.  0.
   -5000001    1    1    2    0    0 -0.13232285894E+03  0.17613294048E+03  0.95862393273E+03  0.99735500005E+03  0.16500000000E+03 0.  0.
<mgrwt>
<rscale>  0 0.55068549E+03</rscale>
<asrwt>0</asrwt>
<pdfrwt beam="1">  1        2 0.27200173E+00 0.55068549E+03</pdfrwt>
<pdfrwt beam="2">  1       -2 0.56882613E-02 0.55068549E+03</pdfrwt>
<totfact> 0.15575913E+03</totfact>
</mgrwt>
</event>
<event>
 4    1  0.1837449E-005  0.4671500E+03  0.7818608E-02  0.1022728E+00
         -2   -1    0    0    0  501 -0.00000000000E+00  0.00000000000E+00  0.10709946686E+03  0.10709946689E+03  0.25500000000E-02 0. -1.
          2   -1    0    0  501    0  0.00000000000E+00 -0.00000000000E+00 -0.50940759397E+03  0.50940759398E+03  0.25500000000E-02 0.  1.
    5000001    1    1    2    0    0 -0.49395749807E+02 -0.15742719270E+03 -0.18737448114E+03  0.29926151988E+03  0.16500000000E+03 0.  0.
   -5000001    1    1    2    0    0  0.49395749807E+02  0.15742719270E+03 -0.21493364598E+03  0.31724554098E+03  0.16500000000E+03 0.  0.
<mgrwt>
<rscale>  0 0.46715000E+03</rscale>
<asrwt>0</asrwt>
<pdfrwt beam="1">  1        2 0.72772512E-01 0.46715000E+03</pdfrwt>
<pdfrwt beam="2">  1       -2 0.15299924E-01 0.46715000E+03</pdfrwt>
<totfact> 0.22111144E+03</totfact>
</mgrwt>
</event>
<event>
 4    1  0.1837449E-005  0.7009564E+03  0.7818608E-02  0.9715598E-01
         -2   -1    0    0    0  501 -0.00000000000E+00  0.00000000000E+00  0.12338683863E+03  0.12338683866E+03  0.25500000000E-02 0. -1.
          2   -1    0    0  501    0  0.00000000000E+00 -0.00000000000E+00 -0.99552719975E+03  0.99552719975E+03  0.25500000000E-02 0.  1.
    5000001    1    1    2    0    0  0.27670480871E+03  0.96548932331E+02 -0.27867213669E+03  0.43677271809E+03  0.16500000000E+03 0.  0.
   -5000001    1    1    2    0    0 -0.27670480871E+03 -0.96548932331E+02 -0.59346822442E+03  0.68214132033E+03  0.16500000000E+03 0.  0.
<mgrwt>
<rscale>  0 0.70095636E+03</rscale>
<asrwt>0</asrwt>
<pdfrwt beam="1">  1        2 0.14221817E+00 0.70095636E+03</pdfrwt>
<pdfrwt beam="2">  1       -2 0.17626692E-01 0.70095636E+03</pdfrwt>
<totfact> 0.75470004E+02</totfact>
</mgrwt>
</event>
<event>
 4    1  0.1837449E-005  0.6446683E+03  0.7818608E-02  0.9816836E-01
         -2   -1    0    0    0  501 -0.00000000000E+00  0.00000000000E+00  0.91837210132E+02  0.91837210168E+02  0.25500000000E-02 0. -1.
          2   -1    0    0  501    0  0.00000000000E+00 -0.00000000000E+00 -0.11313419692E+04  0.11313419692E+04  0.25500000000E-02 0.  1.
    5000001    1    1    2    0    0  0.26687138882E+03 -0.15517909067E+02 -0.38275768151E+03  0.49516622101E+03  0.16500000000E+03 0.  0.
   -5000001    1    1    2    0    0 -0.26687138882E+03  0.15517909067E+02 -0.65674707760E+03  0.72801295840E+03  0.16500000000E+03 0.  0.
<mgrwt>
<rscale>  0 0.64466826E+03</rscale>
<asrwt>0</asrwt>
<pdfrwt beam="1">  1        2 0.16162027E+00 0.64466826E+03</pdfrwt>
<pdfrwt beam="2">  1       -2 0.13119602E-01 0.64466826E+03</pdfrwt>
<totfact> 0.10342616E+03</totfact>
</mgrwt>
</event>
<event>
 4    1  0.1837449E-005  0.4132727E+03  0.7818608E-02  0.1039278E+00
         -2   -1    0    0    0  501 -0.00000000000E+00  0.00000000000E+00  0.29582752657E+02  0.29582752767E+02  0.25500000000E-02 0. -1.
          2   -1    0    0  501    0  0.00000000000E+00 -0.00000000000E+00 -0.14433607955E+04  0.14433607955E+04  0.25500000000E-02 0.  1.
    5000001    1    1    2    0    0  0.25453888401E+02 -0.10317489442E+03 -0.93733547689E+03  0.95766160804E+03  0.16500000000E+03 0.  0.
   -5000001    1    1    2    0    0 -0.25453888401E+02  0.10317489442E+03 -0.47644256591E+03  0.51528194019E+03  0.16500000000E+03 0.  0.
<mgrwt>
<rscale>  0 0.41327272E+03</rscale>
<asrwt>0</asrwt>
<pdfrwt beam="1">  1        2 0.20619436E+00 0.41327272E+03</pdfrwt>
<pdfrwt beam="2">  1       -2 0.42261084E-02 0.41327272E+03</pdfrwt>
<totfact> 0.42300992E+03</totfact>
</mgrwt>
</event>
<event>
 4    1  0.1837449E-005  0.4488684E+03  0.7818608E-02  0.1028060E+00
         -2   -1    0    0    0  501 -0.00000000000E+00  0.00000000000E+00  0.85183521497E+02  0.85183521536E+02  0.25500000000E-02 0. -1.
          2   -1    0    0  501    0  0.00000000000E+00 -0.00000000000E+00 -0.59131977782E+03  0.59131977783E+03  0.25500000000E-02 0.  1.
    5000001    1    1    2    0    0 -0.14798577376E+03 -0.22795586875E+02 -0.29368447663E+03  0.36863938996E+03  0.16500000000E+03 0.  0.
   -5000001    1    1    2    0    0  0.14798577376E+03  0.22795586875E+02 -0.21245177970E+03  0.30786390941E+03  0.16500000000E+03 0.  0.
<mgrwt>
<rscale>  0 0.44886836E+03</rscale>
<asrwt>0</asrwt>
<pdfrwt beam="1">  1        2 0.84474252E-01 0.44886836E+03</pdfrwt>
<pdfrwt beam="2">  1       -2 0.12169075E-01 0.44886836E+03</pdfrwt>
<totfact> 0.27228579E+03</totfact>
</mgrwt>
</event>
<event>
 4    1  0.1837449E-005  0.3762422E+03  0.7818608E-02  0.1052331E+00
         -2   -1    0    0    0  501 -0.00000000000E+00  0.00000000000E+00  0.14210748963E+02  0.14210749192E+02  0.25500000000E-02 0. -1.
          2   -1    0    0  501    0  0.00000000000E+00 -0.00000000000E+00 -0.24903365894E+04  0.24903365894E+04  0.25500000000E-02 0.  1.
    5000001    1    1    2    0    0  0.13998531148E+02  0.88895911602E+02 -0.12921861318E+04  0.13057826929E+04  0.16500000000E+03 0.  0.
   -5000001    1    1    2    0    0 -0.13998531148E+02 -0.88895911602E+02 -0.11839397087E+04  0.11987646457E+04  0.16500000000E+03 0.  0.
<mgrwt>
<rscale>  0 0.37624220E+03</rscale>
<asrwt>0</asrwt>
<pdfrwt beam="1">  1        2 0.35576209E+00 0.37624220E+03</pdfrwt>
<pdfrwt beam="2">  1       -2 0.20301086E-02 0.37624220E+03</pdfrwt>
<totfact> 0.38184836E+03</totfact>
</mgrwt>
</event>
<event>
 4    1  0.1837449E-005  0.5363556E+03  0.7818608E-02  0.1004702E+00
         -2   -1    0    0    0  501 -0.00000000000E+00  0.00000000000E+00  0.10549807956E+04  0.10549807956E+04  0.25500000000E-02 0. -1.
          2   -1    0    0  501    0  0.00000000000E+00 -0.00000000000E+00 -0.68171223062E+02  0.68171223110E+02  0.25500000000E-02 0.  1.
    5000001    1    1    2    0    0  0.13510603584E+03  0.27171674697E+02  0.82912112948E+03  0.85653884219E+03  0.16500000000E+03 0.  0.
   -5000001    1    1    2    0    0 -0.13510603584E+03 -0.27171674697E+02  0.15768844307E+03  0.26661317653E+03  0.16500000000E+03 0.  0.
<mgrwt>
<rscale>  0 0.53635560E+03</rscale>
<asrwt>0</asrwt>
<pdfrwt beam="1">  1        2 0.97387469E-02 0.53635560E+03</pdfrwt>
<pdfrwt beam="2">  1       -2 0.15071153E+00 0.53635560E+03</pdfrwt>
<totfact> 0.20689905E+02</totfact>
</mgrwt>
</event>
<event>
 4    1  0.1837449E-005  0.4408702E+03  0.7818608E-02  0.1030480E+00
         -2   -1    0    0    0  501 -0.00000000000E+00  0.00000000000E+00  0.44645647479E+02  0.44645647552E+02  0.25500000000E-02 0. -1.
          2   -1    0    0  501    0  0.00000000000E+00 -0.00000000000E+00 -0.10883843521E+04  0.10883843521E+04  0.25500000000E-02 0.  1.
    5000001    1    1    2    0    0 -0.52822362940E+02 -0.11090840146E+03 -0.31827605556E+03  0.37896638781E+03  0.16500000000E+03 0.  0.
   -5000001    1    1    2    0    0  0.52822362940E+02  0.11090840146E+03 -0.72546264906E+03  0.75406361185E+03  0.16500000000E+03 0.  0.
<mgrwt>
<rscale>  0 0.44087016E+03</rscale>
<asrwt>0</asrwt>
<pdfrwt beam="1">  1        2 0.15548346E+00 0.44087016E+03</pdfrwt>
<pdfrwt beam="2">  1       -2 0.63779503E-02 0.44087016E+03</pdfrwt>
<totfact> 0.34993056E+03</totfact>
</mgrwt>
</event>
<event>
 4    1  0.1837449E-005  0.4996686E+03  0.7818608E-02  0.1013865E+00
         -2   -1    0    0    0  501 -0.00000000000E+00  0.00000000000E+00  0.38224674237E+02  0.38224674322E+02  0.25500000000E-02 0. -1.
          2   -1    0    0  501    0  0.00000000000E+00 -0.00000000000E+00 -0.16329026581E+04  0.16329026581E+04  0.25500000000E-02 0.  1.
    5000001    1    1    2    0    0  0.30468502377E+02 -0.14258303482E+03 -0.11921271986E+04  0.12122914291E+04  0.16500000000E+03 0.  0.
   -5000001    1    1    2    0    0 -0.30468502377E+02  0.14258303482E+03 -0.40255078530E+03  0.45883590335E+03  0.16500000000E+03 0.  0.
<mgrwt>
<rscale>  0 0.49966858E+03</rscale>
<asrwt>0</asrwt>
<pdfrwt beam="1">  1        2 0.23327176E+00 0.49966858E+03</pdfrwt>
<pdfrwt beam="2">  1       -2 0.54606688E-02 0.49966858E+03</pdfrwt>
<totfact> 0.22775453E+03</totfact>
</mgrwt>
</event>
<event>
 4    1  0.1837449E-005  0.3937496E+03  0.7818608E-02  0.1045966E+00
         -2   -1    0    0    0  501 -0.00000000000E+00  0.00000000000E+00  0.15798165951E+02  0.15798166157E+02  0.25500000000E-02 0. -1.
          2   -1    0    0  501    0  0.00000000000E+00 -0.00000000000E+00 -0.24534299107E+04  0.24534299107E+04  0.25500000000E-02 0.  1.
    5000001    1    1    2    0    0 -0.20455886257E+02 -0.10266605369E+03 -0.10683193806E+04  0.10860433052E+04  0.16500000000E+03 0.  0.
   -5000001    1    1    2    0    0  0.20455886257E+02  0.10266605369E+03 -0.13693123642E+04  0.13831847717E+04  0.16500000000E+03 0.  0.
<mgrwt>
<rscale>  0 0.39374963E+03</rscale>
<asrwt>0</asrwt>
<pdfrwt beam="1">  1        2 0.35048975E+00 0.39374963E+03</pdfrwt>
<pdfrwt beam="2">  1       -2 0.22568824E-02 0.39374963E+03</pdfrwt>
<totfact> 0.34018171E+03</totfact>
</mgrwt>
</event>
<event>
 4    1  0.1837449E-005  0.5867134E+03  0.7818608E-02  0.9933362E-01
         -2   -1    0    0    0  501 -0.00000000000E+00  0.00000000000E+00  0.16161803808E+03  0.16161803810E+03  0.25500000000E-02 0. -1.
          2   -1    0    0  501    0  0.00000000000E+00 -0.00000000000E+00 -0.53247855588E+03  0.53247855589E+03  0.25500000000E-02 0.  1.
    5000001    1    1    2    0    0 -0.10148413081E+03 -0.22021260458E+03 -0.17789972066E+03  0.34302467934E+03  0.16500000000E+03 0.  0.
   -5000001    1    1    2    0    0  0.10148413081E+03  0.22021260458E+03 -0.19296079714E+03  0.35107191465E+03  0.16500000000E+03 0.  0.
<mgrwt>
<rscale>  0 0.58671335E+03</rscale>
<asrwt>0</asrwt>
<pdfrwt beam="1">  1        2 0.76068364E-01 0.58671335E+03</pdfrwt>
<pdfrwt beam="2">  1       -2 0.23088291E-01 0.58671335E+03</pdfrwt>
<totfact> 0.10345101E+03</totfact>
</mgrwt>
</event>
<event>
 4    1  0.1837449E-005  0.3597587E+03  0.7818608E-02  0.1058679E+00
         -2   -1    0    0    0  501 -0.00000000000E+00  0.00000000000E+00  0.61994614469E+02  0.61994614522E+02  0.25500000000E-02 0. -1.
          2   -1    0    0  501    0  0.00000000000E+00 -0.00000000000E+00 -0.52192579854E+03  0.52192579854E+03  0.25500000000E-02 0.  1.
    5000001    1    1    2    0    0  0.38492219493E+01 -0.67206149755E+02 -0.19020469814E+03  0.26064211147E+03  0.16500000000E+03 0.  0.
   -5000001    1    1    2    0    0 -0.38492219493E+01  0.67206149755E+02 -0.26972648593E+03  0.32327830160E+03  0.16500000000E+03 0.  0.
<mgrwt>
<rscale>  0 0.35975875E+03</rscale>
<asrwt>0</asrwt>
<pdfrwt beam="1">  1        2 0.74560826E-01 0.35975875E+03</pdfrwt>
<pdfrwt beam="2">  1       -2 0.88563738E-02 0.35975875E+03</pdfrwt>
<totfact> 0.52185795E+03</totfact>
</mgrwt>
</event>
<event>
 4    1  0.1837449E-005  0.5290099E+03  0.7818608E-02  0.1006473E+00
         -2   -1    0    0    0  501 -0.00000000000E+00  0.00000000000E+00  0.60932323952E+03  0.60932323952E+03  0.25500000000E-02 0. -1.
          2   -1    0    0  501    0  0.00000000000E+00 -0.00000000000E+00 -0.11482060708E+03  0.11482060711E+03  0.25500000000E-02 0.  1.
    5000001    1    1    2    0    0  0.19955242140E+03 -0.10103452456E+02  0.17462891458E+03  0.31247960965E+03  0.16500000000E+03 0.  0.
   -5000001    1    1    2    0    0 -0.19955242140E+03  0.10103452456E+02  0.31987371786E+03  0.41166423699E+03  0.16500000000E+03 0.  0.
<mgrwt>
<rscale>  0 0.52900988E+03</rscale>
<asrwt>0</asrwt>
<pdfrwt beam="1">  1        2 0.16402944E-01 0.52900988E+03</pdfrwt>
<pdfrwt beam="2">  1       -2 0.87046178E-01 0.52900988E+03</pdfrwt>
<totfact> 0.41473976E+02</totfact>
</mgrwt>
</event>
<event>
 4    1  0.1837449E-005  0.5213837E+03  0.7818608E-02  0.1008343E+00
          2   -1    0    0  501    0  0.00000000000E+00  0.00000000000E+00  0.26571307060E+03  0.26571307061E+03  0.25500000000E-02 0.  1.
         -2   -1    0    0    0  501 -0.00000000000E+00 -0.00000000000E+00 -0.25576551061E+03  0.25576551062E+03  0.25500000000E-02 0. -1.
    5000001    1    1    2    0    0 -0.12678948011E+03  0.15698739430E+03  0.87987337876E+01  0.26081225422E+03  0.16500000000E+03 0.  0.
   -5000001    1    1    2    0    0  0.12678948011E+03 -0.15698739430E+03  0.11488261990E+01  0.26066632701E+03  0.16500000000E+03 0.  0.
<mgrwt>
<rscale>  0 0.52138369E+03</rscale>
<asrwt>0</asrwt>
<pdfrwt beam="1">  1        2 0.37959010E-01 0.52138369E+03</pdfrwt>
<pdfrwt beam="2">  1       -2 0.36537930E-01 0.52138369E+03</pdfrwt>
<totfact> 0.96509535E+02</totfact>
</mgrwt>
</event>
<event>
 4    1  0.1837449E-005  0.3866815E+03  0.7818608E-02  0.1048492E+00
          2   -1    0    0  501    0  0.00000000000E+00  0.00000000000E+00  0.35005832781E+04  0.35005832781E+04  0.25500000000E-02 0.  1.
         -2   -1    0    0    0  501 -0.00000000000E+00 -0.00000000000E+00 -0.10678406077E+02  0.10678406381E+02  0.25500000000E-02 0. -1.
    5000001    1    1    2    0    0 -0.72519799030E+02  0.14891932692E+02  0.11240985465E+04  0.11385532193E+04  0.16500000000E+03 0.  0.
   -5000001    1    1    2    0    0  0.72519799030E+02 -0.14891932692E+02  0.23658063255E+04  0.23727084652E+04  0.16500000000E+03 0.  0.
<mgrwt>
<rscale>  0 0.38668152E+03</rscale>
<asrwt>0</asrwt>
<pdfrwt beam="1">  1        2 0.50008371E+00 0.38668152E+03</pdfrwt>
<pdfrwt beam="2">  1       -2 0.15254854E-02 0.38668152E+03</pdfrwt>
<totfact> 0.16631541E+03</totfact>
</mgrwt>
</event>
<event>
 4    1  0.1837449E-005  0.6926880E+03  0.7818608E-02  0.9729819E-01
         -2   -1    0    0    0  501 -0.00000000000E+00  0.00000000000E+00  0.32170107014E+03  0.32170107015E+03  0.25500000000E-02 0. -1.
          2   -1    0    0  501    0  0.00000000000E+00 -0.00000000000E+00 -0.37287460483E+03  0.37287460484E+03  0.25500000000E-02 0.  1.
    5000001    1    1    2    0    0  0.20781737388E+03  0.17574323910E+03  0.11137026773E+03  0.33719739546E+03  0.16500000000E+03 0.  0.
   -5000001    1    1    2    0    0 -0.20781737388E+03 -0.17574323910E+03 -0.16254380242E+03  0.35737827953E+03  0.16500000000E+03 0.  0.
<mgrwt>
<rscale>  0 0.69268798E+03</rscale>
<asrwt>0</asrwt>
<pdfrwt beam="1">  1        2 0.53267801E-01 0.69268798E+03</pdfrwt>
<pdfrwt beam="2">  1       -2 0.45957296E-01 0.69268798E+03</pdfrwt>
<totfact> 0.42326731E+02</totfact>
</mgrwt>
</event>
<event>
 4    1  0.1837449E-005  0.6921131E+03  0.7818608E-02  0.9730816E-01
         -2   -1    0    0    0  501 -0.00000000000E+00  0.00000000000E+00  0.88242560951E+03  0.88242560951E+03  0.25500000000E-02 0. -1.
          2   -1    0    0  501    0  0.00000000000E+00 -0.00000000000E+00 -0.13571131529E+03  0.13571131531E+03  0.25500000000E-02 0.  1.
    5000001    1    1    2    0    0  0.27446468956E+03 -0.12986313617E+03  0.34643883088E+03  0.48932623422E+03  0.16500000000E+03 0.  0.
   -5000001    1    1    2    0    0 -0.27446468956E+03  0.12986313617E+03  0.40027546333E+03  0.52881069060E+03  0.16500000000E+03 0.  0.
<mgrwt>
<rscale>  0 0.69211311E+03</rscale>
<asrwt>0</asrwt>
<pdfrwt beam="1">  1        2 0.19387330E-01 0.69211311E+03</pdfrwt>
<pdfrwt beam="2">  1       -2 0.12606081E+00 0.69211311E+03</pdfrwt>
<totfact> 0.13996443E+02</totfact>
</mgrwt>
</event>
<event>
 4    1  0.1837449E-005  0.6421226E+03  0.7818608E-02  0.9821674E-01
          2   -1    0    0  501    0  0.00000000000E+00  0.00000000000E+00  0.39162169140E+03  0.39162169141E+03  0.25500000000E-02 0.  1.
         -2   -1    0    0    0  501 -0.00000000000E+00 -0.00000000000E+00 -0.26321408194E+03  0.26321408196E+03  0.25500000000E-02 0. -1.
    5000001    1    1    2    0    0  0.14855431291E+01 -0.21855472556E+03  0.23511358251E+03  0.36093181016E+03  0.16500000000E+03 0.  0.
   -5000001    1    1    2    0    0 -0.14855431291E+01  0.21855472556E+03 -0.10670597306E+03  0.29390396321E+03  0.16500000000E+03 0.  0.
<mgrwt>
<rscale>  0 0.64212256E+03</rscale>
<asrwt>0</asrwt>
<pdfrwt beam="1">  1        2 0.55945955E-01 0.64212256E+03</pdfrwt>
<pdfrwt beam="2">  1       -2 0.37602012E-01 0.64212256E+03</pdfrwt>
<totfact> 0.59442671E+02</totfact>
</mgrwt>
</event>
<event>
 4    1  0.1837449E-005  0.4491729E+03  0.7818608E-02  0.1027969E+00
         -2   -1    0    0    0  501 -0.00000000000E+00  0.00000000000E+00  0.29182427897E+02  0.29182428008E+02  0.25500000000E-02 0. -1.
          2   -1    0    0  501    0  0.00000000000E+00 -0.00000000000E+00 -0.17284058715E+04  0.17284058715E+04  0.25500000000E-02 0.  1.
    5000001    1    1    2    0    0  0.10737566599E+03 -0.70644923694E+02 -0.52947073925E+03  0.56928420197E+03  0.16500000000E+03 0.  0.
   -5000001    1    1    2    0    0 -0.10737566599E+03  0.70644923694E+02 -0.11697527044E+04  0.11883040976E+04  0.16500000000E+03 0.  0.
<mgrwt>
<rscale>  0 0.44917293E+03</rscale>
<asrwt>0</asrwt>
<pdfrwt beam="1">  1        2 0.24691506E+00 0.44917293E+03</pdfrwt>
<pdfrwt beam="2">  1       -2 0.41689194E-02 0.44917293E+03</pdfrwt>
<totfact> 0.30915602E+03</totfact>
</mgrwt>
</event>
<event>
 4    1  0.1837449E-005  0.6250373E+03  0.7818608E-02  0.9854781E-01
         -2   -1    0    0    0  501 -0.00000000000E+00  0.00000000000E+00  0.23835843467E+03  0.23835843469E+03  0.25500000000E-02 0. -1.
          2   -1    0    0  501    0  0.00000000000E+00 -0.00000000000E+00 -0.40975228707E+03  0.40975228708E+03  0.25500000000E-02 0.  1.
    5000001    1    1    2    0    0  0.18527262039E+03  0.14573342139E+03  0.40784376226E+02  0.29060719076E+03  0.16500000000E+03 0.  0.
   -5000001    1    1    2    0    0 -0.18527262039E+03 -0.14573342139E+03 -0.21217822862E+03  0.35750353100E+03  0.16500000000E+03 0.  0.
<mgrwt>
<rscale>  0 0.62503732E+03</rscale>
<asrwt>0</asrwt>
<pdfrwt beam="1">  1        2 0.58536041E-01 0.62503732E+03</pdfrwt>
<pdfrwt beam="2">  1       -2 0.34051205E-01 0.62503732E+03</pdfrwt>
<totfact> 0.68294895E+02</totfact>
</mgrwt>
</event>
<event>
 4    1  0.1837449E-005  0.3698903E+03  0.7818608E-02  0.1054735E+00
         -2   -1    0    0    0  501 -0.00000000000E+00  0.00000000000E+00  0.40870474184E+02  0.40870474264E+02  0.25500000000E-02 0. -1.
          2   -1    0    0  501    0  0.00000000000E+00 -0.00000000000E+00 -0.83690492263E+03  0.83690492264E+03  0.25500000000E-02 0.  1.
    5000001    1    1    2    0    0  0.82820493182E+02 -0.63327802114E+01 -0.37674375876E+03  0.41959527876E+03  0.16500000000E+03 0.  0.
   -5000001    1    1    2    0    0 -0.82820493182E+02  0.63327802114E+01 -0.41929068969E+03  0.45818011814E+03  0.16500000000E+03 0.  0.
<mgrwt>
<rscale>  0 0.36989026E+03</rscale>
<asrwt>0</asrwt>
<pdfrwt beam="1">  1        2 0.11955784E+00 0.36989026E+03</pdfrwt>
<pdfrwt beam="2">  1       -2 0.58386397E-02 0.36989026E+03</pdfrwt>
<totfact> 0.57169163E+03</totfact>
</mgrwt>
</event>
<event>
 4    1  0.1837449E-005  0.6877778E+03  0.7818608E-02  0.9738365E-01
         -2   -1    0    0    0  501 -0.00000000000E+00  0.00000000000E+00  0.10076493438E+03  0.10076493441E+03  0.25500000000E-02 0.  1.
          2   -1    0    0  501    0  0.00000000000E+00 -0.00000000000E+00 -0.11736182941E+04  0.11736182941E+04  0.25500000000E-02 0. -1.
    5000001    1    1    2    0    0  0.40830282864E+02  0.11651371187E+03 -0.26316929174E+02  0.20775018126E+03  0.16500000000E+03 0.  0.
   -5000001    1    1    2    0    0 -0.40830282864E+02 -0.11651371187E+03 -0.10465364305E+04  0.10666330472E+04  0.16500000000E+03 0.  0.
<mgrwt>
<rscale>  0 0.68777779E+03</rscale>
<asrwt>0</asrwt>
<pdfrwt beam="1">  1        2 0.16765975E+00 0.68777779E+03</pdfrwt>
<pdfrwt beam="2">  1       -2 0.14394991E-01 0.68777779E+03</pdfrwt>
<totfact> 0.83651382E+02</totfact>
</mgrwt>
</event>
<event>
 4    1  0.1837449E-005  0.5150976E+03  0.7818608E-02  0.1009912E+00
          2   -1    0    0  501    0  0.00000000000E+00  0.00000000000E+00  0.54731564694E+03  0.54731564694E+03  0.25500000000E-02 0.  1.
         -2   -1    0    0    0  501 -0.00000000000E+00 -0.00000000000E+00 -0.12119402319E+03  0.12119402321E+03  0.25500000000E-02 0. -1.
    5000001    1    1    2    0    0  0.10126226937E+03  0.16197566170E+03  0.27944360891E+03  0.37656857641E+03  0.16500000000E+03 0.  0.
   -5000001    1    1    2    0    0 -0.10126226937E+03 -0.16197566170E+03  0.14667801485E+03  0.29194109375E+03  0.16500000000E+03 0.  0.
<mgrwt>
<rscale>  0 0.51509760E+03</rscale>
<asrwt>0</asrwt>
<pdfrwt beam="1">  1        2 0.78187951E-01 0.51509760E+03</pdfrwt>
<pdfrwt beam="2">  1       -2 0.17313432E-01 0.51509760E+03</pdfrwt>
<totfact> 0.16538194E+03</totfact>
</mgrwt>
</event>
<event>
 4    1  0.1837449E-005  0.4304519E+03  0.7818608E-02  0.1033717E+00
          2   -1    0    0  501    0  0.00000000000E+00  0.00000000000E+00  0.79382568248E+03  0.79382568248E+03  0.25500000000E-02 0.  1.
         -2   -1    0    0    0  501 -0.00000000000E+00 -0.00000000000E+00 -0.58353120718E+02  0.58353120774E+02  0.25500000000E-02 0. -1.
    5000001    1    1    2    0    0 -0.12264515557E+03 -0.26055349593E+02  0.48277363388E+03  0.52537234129E+03  0.16500000000E+03 0.  0.
   -5000001    1    1    2    0    0  0.12264515557E+03  0.26055349593E+02  0.25269892788E+03  0.32680646196E+03  0.16500000000E+03 0.  0.
<mgrwt>
<rscale>  0 0.43045188E+03</rscale>
<asrwt>0</asrwt>
<pdfrwt beam="1">  1        2 0.11340365E+00 0.43045188E+03</pdfrwt>
<pdfrwt beam="2">  1       -2 0.83361611E-02 0.43045188E+03</pdfrwt>
<totfact> 0.35100065E+03</totfact>
</mgrwt>
</event>
<event>
 4    1  0.1837449E-005  0.3881295E+03  0.7818608E-02  0.1047969E+00
          2   -1    0    0  501    0  0.00000000000E+00  0.00000000000E+00  0.50631964415E+03  0.50631964416E+03  0.25500000000E-02 0.  1.
         -2   -1    0    0    0  501 -0.00000000000E+00 -0.00000000000E+00 -0.74382108625E+02  0.74382108669E+02  0.25500000000E-02 0. -1.
    5000001    1    1    2    0    0 -0.10010249382E+03  0.17005711091E+02  0.19914655150E+03  0.27783817674E+03  0.16500000000E+03 0.  0.
   -5000001    1    1    2    0    0  0.10010249382E+03 -0.17005711091E+02  0.23279098403E+03  0.30286357609E+03  0.16500000000E+03 0.  0.
<mgrwt>
<rscale>  0 0.38812948E+03</rscale>
<asrwt>0</asrwt>
<pdfrwt beam="1">  1        2 0.72331376E-01 0.38812948E+03</pdfrwt>
<pdfrwt beam="2">  1       -2 0.10626016E-01 0.38812948E+03</pdfrwt>
<totfact> 0.40423713E+03</totfact>
</mgrwt>
</event>
<event>
 4    1  0.1837449E-005  0.6162247E+03  0.7818608E-02  0.9872305E-01
         -2   -1    0    0    0  501 -0.00000000000E+00  0.00000000000E+00  0.79830496475E+03  0.79830496476E+03  0.25500000000E-02 0.  1.
          2   -1    0    0  501    0  0.00000000000E+00 -0.00000000000E+00 -0.11891847573E+03  0.11891847576E+03  0.25500000000E-02 0. -1.
    5000001    1    1    2    0    0  0.19499768102E+03  0.14158246850E+03  0.48582385958E+03  0.56685052133E+03  0.16500000000E+03 0.  0.
   -5000001    1    1    2    0    0 -0.19499768102E+03 -0.14158246850E+03  0.19356262944E+03  0.35037291919E+03  0.16500000000E+03 0.  0.
<mgrwt>
<rscale>  0 0.61622467E+03</rscale>
<asrwt>0</asrwt>
<pdfrwt beam="1">  1        2 0.16988353E-01 0.61622467E+03</pdfrwt>
<pdfrwt beam="2">  1       -2 0.11404357E+00 0.61622467E+03</pdfrwt>
<totfact> 0.21019851E+02</totfact>
</mgrwt>
</event>
<event>
 4    1  0.1837449E-005  0.6421209E+03  0.7818608E-02  0.9821677E-01
         -2   -1    0    0    0  501 -0.00000000000E+00  0.00000000000E+00  0.65982731896E+02  0.65982731945E+02  0.25500000000E-02 0. -1.
          2   -1    0    0  501    0  0.00000000000E+00 -0.00000000000E+00 -0.15622238548E+04  0.15622238548E+04  0.25500000000E-02 0.  1.
    5000001    1    1    2    0    0 -0.11240943981E+03 -0.24114961255E+03 -0.56764604112E+03  0.64825615754E+03  0.16500000000E+03 0.  0.
   -5000001    1    1    2    0    0  0.11240943981E+03  0.24114961255E+03 -0.92859508181E+03  0.97995042923E+03  0.16500000000E+03 0.  0.
<mgrwt>
<rscale>  0 0.64212085E+03</rscale>
<asrwt>0</asrwt>
<pdfrwt beam="1">  1        2 0.22317481E+00 0.64212085E+03</pdfrwt>
<pdfrwt beam="2">  1       -2 0.94261055E-02 0.64212085E+03</pdfrwt>
<totfact> 0.10389100E+03</totfact>
</mgrwt>
</event>
<event>
 4    1  0.1837449E-005  0.6540345E+03  0.7818608E-02  0.9799238E-01
         -2   -1    0    0    0  501 -0.00000000000E+00  0.00000000000E+00  0.23247020687E+03  0.23247020689E+03  0.25500000000E-02 0. -1.
          2   -1    0    0  501    0  0.00000000000E+00 -0.00000000000E+00 -0.46001721282E+03  0.46001721283E+03  0.25500000000E-02 0.  1.
    5000001    1    1    2    0    0 -0.19289977124E+03  0.84116852448E+02 -0.31306678995E+03  0.41173022913E+03  0.16500000000E+03 0.  0.
   -5000001    1    1    2    0    0  0.19289977124E+03 -0.84116852448E+02  0.85519784001E+02  0.28075719059E+03  0.16500000000E+03 0.  0.
<mgrwt>
<rscale>  0 0.65403455E+03</rscale>
<asrwt>0</asrwt>
<pdfrwt beam="1">  1        2 0.65716744E-01 0.65403455E+03</pdfrwt>
<pdfrwt beam="2">  1       -2 0.33210030E-01 0.65403455E+03</pdfrwt>
<totfact> 0.62849179E+02</totfact>
</mgrwt>
</event>
<event>
 4    1  0.1837449E-005  0.6756780E+03  0.7818608E-02  0.9759754E-01
          2   -1    0    0  501    0  0.00000000000E+00  0.00000000000E+00  0.18490360420E+04  0.18490360420E+04  0.25500000000E-02 0.  1.
         -2   -1    0    0    0  501 -0.00000000000E+00 -0.00000000000E+00 -0.61726869044E+02  0.61726869097E+02  0.25500000000E-02 0. -1.
    5000001    1    1    2    0    0 -0.18719182708E+03  0.99795370268E+02  0.31472275524E+03  0.41385421191E+03  0.16500000000E+03 0.  0.
   -5000001    1    1    2    0    0  0.18719182708E+03 -0.99795370268E+02  0.14725864177E+04  0.14969086992E+04  0.16500000000E+03 0.  0.
<mgrwt>
<rscale>  0 0.67567805E+03</rscale>
<asrwt>0</asrwt>
<pdfrwt beam="1">  1        2 0.26414798E+00 0.67567805E+03</pdfrwt>
<pdfrwt beam="2">  1       -2 0.88181251E-02 0.67567805E+03</pdfrwt>
<totfact> 0.82432678E+02</totfact>
</mgrwt>
</event>
<event>
 4    1  0.1837449E-005  0.3644615E+03  0.7818608E-02  0.1056831E+00
          2   -1    0    0  501    0  0.00000000000E+00  0.00000000000E+00  0.45149047700E+03  0.45149047700E+03  0.25500000000E-02 0. -1.
         -2   -1    0    0    0  501 -0.00000000000E+00 -0.00000000000E+00 -0.73552036537E+02  0.73552036581E+02  0.25500000000E-02 0.  1.
    5000001    1    1    2    0    0 -0.30878419282E+01  0.74372356805E+02  0.15867341047E+03  0.24071359209E+03  0.16500000000E+03 0.  0.
   -5000001    1    1    2    0    0  0.30878419282E+01 -0.74372356805E+02  0.21926502999E+03  0.28432892150E+03  0.16500000000E+03 0.  0.
<mgrwt>
<rscale>  0 0.36446149E+03</rscale>
<asrwt>0</asrwt>
<pdfrwt beam="1">  1        2 0.64498639E-01 0.36446149E+03</pdfrwt>
<pdfrwt beam="2">  1       -2 0.10507434E-01 0.36446149E+03</pdfrwt>
<totfact> 0.46696380E+03</totfact>
</mgrwt>
</event>
<event>
 4    1  0.1837449E-005  0.3837223E+03  0.7818608E-02  0.1049566E+00
          2   -1    0    0  501    0  0.00000000000E+00  0.00000000000E+00  0.73995879827E+02  0.73995879871E+02  0.25500000000E-02 0.  1.
         -2   -1    0    0    0  501 -0.00000000000E+00 -0.00000000000E+00 -0.49746962221E+03  0.49746962222E+03  0.25500000000E-02 0. -1.
    5000001    1    1    2    0    0  0.31741428248E+02  0.84101338134E+02 -0.15395884181E+03  0.24291743107E+03  0.16500000000E+03 0.  0.
   -5000001    1    1    2    0    0 -0.31741428248E+02 -0.84101338134E+02 -0.26951490058E+03  0.32854807103E+03  0.16500000000E+03 0.  0.
<mgrwt>
<rscale>  0 0.38372231E+03</rscale>
<asrwt>0</asrwt>
<pdfrwt beam="1">  1        2 0.10570840E-01 0.38372231E+03</pdfrwt>
<pdfrwt beam="2">  1       -2 0.71067088E-01 0.38372231E+03</pdfrwt>
<totfact> 0.11117975E+03</totfact>
</mgrwt>
</event>
<event>
 4    1  0.1837449E-005  0.4778353E+03  0.7818608E-02  0.1019732E+00
          2   -1    0    0  501    0  0.00000000000E+00  0.00000000000E+00  0.36183756586E+03  0.36183756587E+03  0.25500000000E-02 0.  1.
         -2   -1    0    0    0  501 -0.00000000000E+00 -0.00000000000E+00 -0.15775489614E+03  0.15775489616E+03  0.25500000000E-02 0. -1.
    5000001    1    1    2    0    0  0.36624422061E+02  0.14854210206E+03  0.18937521222E+03  0.29409875107E+03  0.16500000000E+03 0.  0.
   -5000001    1    1    2    0    0 -0.36624422061E+02 -0.14854210206E+03  0.14707457492E+02  0.22549371096E+03  0.16500000000E+03 0.  0.
<mgrwt>
<rscale>  0 0.47783532E+03</rscale>
<asrwt>0</asrwt>
<pdfrwt beam="1">  1        2 0.51691081E-01 0.47783532E+03</pdfrwt>
<pdfrwt beam="2">  1       -2 0.22536414E-01 0.47783532E+03</pdfrwt>
<totfact> 0.16631643E+03</totfact>
</mgrwt>
</event>
<event>
 4    1  0.1837449E-005  0.5630892E+03  0.7818608E-02  0.9985089E-01
         -2   -1    0    0    0  501 -0.00000000000E+00  0.00000000000E+00  0.67368554508E+03  0.67368554509E+03  0.25500000000E-02 0. -1.
          2   -1    0    0  501    0  0.00000000000E+00 -0.00000000000E+00 -0.11766223619E+03  0.11766223622E+03  0.25500000000E-02 0.  1.
    5000001    1    1    2    0    0  0.20814737745E+03 -0.19380276984E+02  0.14965739867E+03  0.30548856419E+03  0.16500000000E+03 0.  0.
   -5000001    1    1    2    0    0 -0.20814737745E+03  0.19380276984E+02  0.40636591022E+03  0.48585921712E+03  0.16500000000E+03 0.  0.
<mgrwt>
<rscale>  0 0.56308915E+03</rscale>
<asrwt>0</asrwt>
<pdfrwt beam="1">  1        2 0.16808891E-01 0.56308915E+03</pdfrwt>
<pdfrwt beam="2">  1       -2 0.96240792E-01 0.56308915E+03</pdfrwt>
<totfact> 0.31946924E+02</totfact>
</mgrwt>
</event>
<event>
 4    1  0.1837449E-005  0.3913940E+03  0.7818608E-02  0.1046801E+00
          2   -1    0    0  501    0  0.00000000000E+00  0.00000000000E+00  0.31034653230E+03  0.31034653231E+03  0.25500000000E-02 0.  1.
         -2   -1    0    0    0  501 -0.00000000000E+00 -0.00000000000E+00 -0.12340178808E+03  0.12340178810E+03  0.25500000000E-02 0. -1.
    5000001    1    1    2    0    0  0.10477522618E+03 -0.53510446264E+01  0.84480438273E+02  0.21299865293E+03  0.16500000000E+03 0.  0.
   -5000001    1    1    2    0    0 -0.10477522618E+03  0.53510446264E+01  0.10246430595E+03  0.22074966748E+03  0.16500000000E+03 0.  0.
<mgrwt>
<rscale>  0 0.39139401E+03</rscale>
<asrwt>0</asrwt>
<pdfrwt beam="1">  1        2 0.44335219E-01 0.39139401E+03</pdfrwt>
<pdfrwt beam="2">  1       -2 0.17628827E-01 0.39139401E+03</pdfrwt>
<totfact> 0.30000796E+03</totfact>
</mgrwt>
</event>
<event>
 4    1  0.1837449E-005  0.3783178E+03  0.7818608E-02  0.1051557E+00
         -2   -1    0    0    0  501 -0.00000000000E+00  0.00000000000E+00  0.17548895662E+02  0.17548895848E+02  0.25500000000E-02 0. -1.
          2   -1    0    0  501    0  0.00000000000E+00 -0.00000000000E+00 -0.20389371842E+04  0.20389371842E+04  0.25500000000E-02 0.  1.
    5000001    1    1    2    0    0 -0.29000181210E+02  0.75929059511E+02 -0.77066108273E+03  0.79230659282E+03  0.16500000000E+03 0.  0.
   -5000001    1    1    2    0    0  0.29000181210E+02 -0.75929059511E+02 -0.12507272058E+04  0.12641794872E+04  0.16500000000E+03 0.  0.
<mgrwt>
<rscale>  0 0.37831784E+03</rscale>
<asrwt>0</asrwt>
<pdfrwt beam="1">  1        2 0.29127659E+00 0.37831784E+03</pdfrwt>
<pdfrwt beam="2">  1       -2 0.25069864E-02 0.37831784E+03</pdfrwt>
<totfact> 0.46768873E+03</totfact>
</mgrwt>
</event>
<event>
 4    1  0.1837449E-005  0.6209571E+03  0.7818608E-02  0.9862856E-01
          2   -1    0    0  501    0  0.00000000000E+00  0.00000000000E+00  0.10273076970E+04  0.10273076970E+04  0.25500000000E-02 0.  1.
         -2   -1    0    0    0  501 -0.00000000000E+00 -0.00000000000E+00 -0.93834520881E+02  0.93834520916E+02  0.25500000000E-02 0. -1.
    5000001    1    1    2    0    0 -0.16510127661E+03 -0.75818775648E+02  0.81009160544E+03  0.84645160965E+03  0.16500000000E+03 0.  0.
   -5000001    1    1    2    0    0  0.16510127661E+03  0.75818775648E+02  0.12338157065E+03  0.27469060824E+03  0.16500000000E+03 0.  0.
<mgrwt>
<rscale>  0 0.62095709E+03</rscale>
<asrwt>0</asrwt>
<pdfrwt beam="1">  1        2 0.14675824E+00 0.62095709E+03</pdfrwt>
<pdfrwt beam="2">  1       -2 0.13404932E-01 0.62095709E+03</pdfrwt>
<totfact> 0.11496534E+03</totfact>
</mgrwt>
</event>
<event>
 4    1  0.1837449E-005  0.5939887E+03  0.7818608E-02  0.9917957E-01
         -2   -1    0    0    0  501 -0.00000000000E+00  0.00000000000E+00  0.17381916509E+03  0.17381916511E+03  0.25500000000E-02 0. -1.
          2   -1    0    0  501    0  0.00000000000E+00 -0.00000000000E+00 -0.50745637897E+03  0.50745637898E+03  0.25500000000E-02 0.  1.
    5000001    1    1    2    0    0  0.91676672790E+01  0.23188927149E+03 -0.70011895641E+02  0.29322916957E+03  0.16500000000E+03 0.  0.
   -5000001    1    1    2    0    0 -0.91676672790E+01 -0.23188927149E+03 -0.26362531825E+03  0.38804637452E+03  0.16500000000E+03 0.  0.
<mgrwt>
<rscale>  0 0.59398870E+03</rscale>
<asrwt>0</asrwt>
<pdfrwt beam="1">  1        2 0.72493768E-01 0.59398870E+03</pdfrwt>
<pdfrwt beam="2">  1       -2 0.24831310E-01 0.59398870E+03</pdfrwt>
<totfact> 0.95993787E+02</totfact>
</mgrwt>
</event>
<event>
 4    1  0.1837449E-005  0.4681472E+03  0.7818608E-02  0.1022444E+00
         -2   -1    0    0    0  501 -0.00000000000E+00  0.00000000000E+00  0.19679985544E+03  0.19679985546E+03  0.25500000000E-02 0. -1.
          2   -1    0    0  501    0  0.00000000000E+00 -0.00000000000E+00 -0.27840699749E+03  0.27840699750E+03  0.25500000000E-02 0.  1.
    5000001    1    1    2    0    0 -0.15109175831E+03  0.67366123966E+02 -0.55106575946E+02  0.24005967758E+03  0.16500000000E+03 0.  0.
   -5000001    1    1    2    0    0  0.15109175831E+03 -0.67366123966E+02 -0.26500566101E+02  0.23514717538E+03  0.16500000000E+03 0.  0.
<mgrwt>
<rscale>  0 0.46814723E+03</rscale>
<asrwt>0</asrwt>
<pdfrwt beam="1">  1        2 0.39772428E-01 0.46814723E+03</pdfrwt>
<pdfrwt beam="2">  1       -2 0.28114265E-01 0.46814723E+03</pdfrwt>
<totfact> 0.14923940E+03</totfact>
</mgrwt>
</event>
<event>
 4    1  0.1837449E-005  0.3630332E+03  0.7818608E-02  0.1057389E+00
          2   -1    0    0  501    0  0.00000000000E+00  0.00000000000E+00  0.74128927165E+03  0.74128927166E+03  0.25500000000E-02 0.  1.
         -2   -1    0    0    0  501 -0.00000000000E+00 -0.00000000000E+00 -0.44447248133E+02  0.44447248206E+02  0.25500000000E-02 0. -1.
    5000001    1    1    2    0    0 -0.33980704526E+02  0.62991673670E+02  0.29537731380E+03  0.34582567392E+03  0.16500000000E+03 0.  0.
   -5000001    1    1    2    0    0  0.33980704526E+02 -0.62991673670E+02  0.40146470972E+03  0.43991084595E+03  0.16500000000E+03 0.  0.
<mgrwt>
<rscale>  0 0.36303316E+03</rscale>
<asrwt>0</asrwt>
<pdfrwt beam="1">  1        2 0.10589846E+00 0.36303316E+03</pdfrwt>
<pdfrwt beam="2">  1       -2 0.63496074E-02 0.36303316E+03</pdfrwt>
<totfact> 0.58385221E+03</totfact>
</mgrwt>
</event>
<event>
 4    1  0.1837449E-005  0.4818302E+03  0.7818608E-02  0.1018633E+00
          2   -1    0    0  501    0  0.00000000000E+00  0.00000000000E+00  0.33049586337E+03  0.33049586338E+03  0.25500000000E-02 0.  1.
         -2   -1    0    0    0  501 -0.00000000000E+00 -0.00000000000E+00 -0.17561518810E+03  0.17561518812E+03  0.25500000000E-02 0. -1.
    5000001    1    1    2    0    0 -0.12965131365E+03 -0.10618425317E+02 -0.46367432892E+02  0.21516773206E+03  0.16500000000E+03 0.  0.
   -5000001    1    1    2    0    0  0.12965131365E+03  0.10618425317E+02  0.20124810816E+03  0.29094331944E+03  0.16500000000E+03 0.  0.
<mgrwt>
<rscale>  0 0.48183023E+03</rscale>
<asrwt>0</asrwt>
<pdfrwt beam="1">  1        2 0.47213695E-01 0.48183023E+03</pdfrwt>
<pdfrwt beam="2">  1       -2 0.25087884E-01 0.48183023E+03</pdfrwt>
<totfact> 0.15187927E+03</totfact>
</mgrwt>
</event>
<event>
 4    1  0.1837449E-005  0.4273539E+03  0.7818608E-02  0.1034699E+00
         -2   -1    0    0    0  501 -0.00000000000E+00  0.00000000000E+00  0.64313099792E+02  0.64313099843E+02  0.25500000000E-02 0. -1.
          2   -1    0    0  501    0  0.00000000000E+00 -0.00000000000E+00 -0.70993075633E+03  0.70993075634E+03  0.25500000000E-02 0.  1.
    5000001    1    1    2    0    0  0.21432999936E+02  0.56815283902E+02 -0.54280735470E+03  0.57057179591E+03  0.16500000000E+03 0.  0.
   -5000001    1    1    2    0    0 -0.21432999936E+02 -0.56815283902E+02 -0.10281030184E+03  0.20367206027E+03  0.16500000000E+03 0.  0.
<mgrwt>
<rscale>  0 0.42735394E+03</rscale>
<asrwt>0</asrwt>
<pdfrwt beam="1">  1        2 0.10141868E+00 0.42735394E+03</pdfrwt>
<pdfrwt beam="2">  1       -2 0.91875861E-02 0.42735394E+03</pdfrwt>
<totfact> 0.34512618E+03</totfact>
</mgrwt>
</event>
<event>
 4    1  0.1837449E-005  0.4442896E+03  0.7818608E-02  0.1029439E+00
          2   -1    0    0  501    0  0.00000000000E+00  0.00000000000E+00  0.91297980870E+03  0.91297980871E+03  0.25500000000E-02 0.  1.
         -2   -1    0    0    0  501 -0.00000000000E+00 -0.00000000000E+00 -0.54051918984E+02  0.54051919044E+02  0.25500000000E-02 0. -1.
    5000001    1    1    2    0    0  0.72568614895E+02 -0.10728333703E+03  0.58862822529E+03  0.62488727454E+03  0.16500000000E+03 0.  0.
   -5000001    1    1    2    0    0 -0.72568614895E+02  0.10728333703E+03  0.27029966443E+03  0.34214445321E+03  0.16500000000E+03 0.  0.
<mgrwt>
<rscale>  0 0.44428959E+03</rscale>
<asrwt>0</asrwt>
<pdfrwt beam="1">  1        2 0.13042568E+00 0.44428959E+03</pdfrwt>
<pdfrwt beam="2">  1       -2 0.77217029E-02 0.44428959E+03</pdfrwt>
<totfact> 0.33076182E+03</totfact>
</mgrwt>
</event>
<event>
 4    1  0.1837449E-005  0.3662133E+03  0.7818608E-02  0.1056150E+00
          2   -1    0    0  501    0  0.00000000000E+00  0.00000000000E+00  0.99567479326E+02  0.99567479359E+02  0.25500000000E-02 0.  1.
         -2   -1    0    0    0  501 -0.00000000000E+00 -0.00000000000E+00 -0.33673694826E+03  0.33673694827E+03  0.25500000000E-02 0. -1.
    5000001    1    1    2    0    0  0.30555610782E+01 -0.66836883217E+02 -0.16950263867E+03  0.24583053091E+03  0.16500000000E+03 0.  0.
   -5000001    1    1    2    0    0 -0.30555610782E+01  0.66836883217E+02 -0.67666830256E+02  0.19047389671E+03  0.16500000000E+03 0.  0.
<mgrwt>
<rscale>  0 0.36621332E+03</rscale>
<asrwt>0</asrwt>
<pdfrwt beam="1">  1        2 0.14223926E-01 0.36621332E+03</pdfrwt>
<pdfrwt beam="2">  1       -2 0.48105278E-01 0.36621332E+03</pdfrwt>
<totfact> 0.17351784E+03</totfact>
</mgrwt>
</event>
<event>
 4    1  0.1837449E-005  0.6477293E+03  0.7818608E-02  0.9811049E-01
         -2   -1    0    0    0  501 -0.00000000000E+00  0.00000000000E+00  0.10196450893E+03  0.10196450896E+03  0.25500000000E-02 0. -1.
          2   -1    0    0  501    0  0.00000000000E+00 -0.00000000000E+00 -0.10286746504E+04  0.10286746504E+04  0.25500000000E-02 0.  1.
    5000001    1    1    2    0    0  0.12538308446E+03  0.17456995202E+03 -0.77299939810E+03  0.81911455577E+03  0.16500000000E+03 0.  0.
   -5000001    1    1    2    0    0 -0.12538308446E+03 -0.17456995202E+03 -0.15371074339E+03  0.31152460360E+03  0.16500000000E+03 0.  0.
<mgrwt>
<rscale>  0 0.64772928E+03</rscale>
<asrwt>0</asrwt>
<pdfrwt beam="1">  1        2 0.14695352E+00 0.64772928E+03</pdfrwt>
<pdfrwt beam="2">  1       -2 0.14566359E-01 0.64772928E+03</pdfrwt>
<totfact> 0.99784609E+02</totfact>
</mgrwt>
</event>
<event>
 4    1  0.1837449E-005  0.4080884E+03  0.7818608E-02  0.1041014E+00
         -2   -1    0    0    0  501 -0.00000000000E+00  0.00000000000E+00  0.36066596382E+03  0.36066596383E+03  0.25500000000E-02 0. -1.
          2   -1    0    0  501    0  0.00000000000E+00 -0.00000000000E+00 -0.11543652658E+03  0.11543652661E+03  0.25500000000E-02 0.  1.
    5000001    1    1    2    0    0 -0.54064694829E+02 -0.61545486078E+02  0.22497713046E+03  0.29077576810E+03  0.16500000000E+03 0.  0.
   -5000001    1    1    2    0    0  0.54064694829E+02  0.61545486078E+02  0.20252306773E+02  0.18532672234E+03  0.16500000000E+03 0.  0.
<mgrwt>
<rscale>  0 0.40808835E+03</rscale>
<asrwt>0</asrwt>
<pdfrwt beam="1">  1        2 0.16490932E-01 0.40808835E+03</pdfrwt>
<pdfrwt beam="2">  1       -2 0.51523709E-01 0.40808835E+03</pdfrwt>
<totfact> 0.12687738E+03</totfact>
</mgrwt>
</event>
<event>
 4    1  0.1837449E-005  0.1271959E+04  0.7818608E-02  0.9052102E-01
         -2   -1    0    0    0  501 -0.00000000000E+00  0.00000000000E+00  0.15979888807E+03  0.15979888809E+03  0.25500000000E-02 0. -1.
          2   -1    0    0  501    0  0.00000000000E+00 -0.00000000000E+00 -0.25311203115E+04  0.25311203115E+04  0.25500000000E-02 0.  1.
    5000001    1    1    2    0    0  0.48151248366E+03 -0.18246223649E+03 -0.47734441083E+03  0.72126931601E+03  0.16500000000E+03 0.  0.
   -5000001    1    1    2    0    0 -0.48151248366E+03  0.18246223649E+03 -0.18939770126E+04  0.19696498836E+04  0.16500000000E+03 0.  0.
<mgrwt>
<rscale>  0 0.12719595E+04</rscale>
<asrwt>0</asrwt>
<pdfrwt beam="1">  1        2 0.36158859E+00 0.12719595E+04</pdfrwt>
<pdfrwt beam="2">  1       -2 0.22828414E-01 0.12719595E+04</pdfrwt>
<totfact> 0.70741473E+01</totfact>
</mgrwt>
</event>
<event>
 4    1  0.1837449E-005  0.5878845E+03  0.7818608E-02  0.9930866E-01
          2   -1    0    0  501    0  0.00000000000E+00  0.00000000000E+00  0.37402339599E+03  0.37402339600E+03  0.25500000000E-02 0.  1.
         -2   -1    0    0    0  501 -0.00000000000E+00 -0.00000000000E+00 -0.23100705074E+03  0.23100705075E+03  0.25500000000E-02 0. -1.
    5000001    1    1    2    0    0 -0.91209142865E+02 -0.20301115963E+03  0.17257832154E+03  0.32640605960E+03  0.16500000000E+03 0.  0.
   -5000001    1    1    2    0    0  0.91209142865E+02  0.20301115963E+03 -0.29561976287E+02  0.27862438715E+03  0.16500000000E+03 0.  0.
<mgrwt>
<rscale>  0 0.58788448E+03</rscale>
<asrwt>0</asrwt>
<pdfrwt beam="1">  1        2 0.53431913E-01 0.58788448E+03</pdfrwt>
<pdfrwt beam="2">  1       -2 0.33001008E-01 0.58788448E+03</pdfrwt>
<totfact> 0.80213829E+02</totfact>
</mgrwt>
</event>
<event>
 4    1  0.1837449E-005  0.4157996E+03  0.7818608E-02  0.1038442E+00
         -2   -1    0    0    0  501 -0.00000000000E+00  0.00000000000E+00  0.38180345275E+03  0.38180345276E+03  0.25500000000E-02 0. -1.
          2   -1    0    0  501    0  0.00000000000E+00 -0.00000000000E+00 -0.11320569252E+03  0.11320569255E+03  0.25500000000E-02 0.  1.
    5000001    1    1    2    0    0 -0.83943426896E+02  0.84350584513E+02  0.83290403372E+02  0.21982677571E+03  0.16500000000E+03 0.  0.
   -5000001    1    1    2    0    0  0.83943426896E+02 -0.84350584513E+02  0.18530735686E+03  0.27518236959E+03  0.16500000000E+03 0.  0.
<mgrwt>
<rscale>  0 0.41579959E+03</rscale>
<asrwt>0</asrwt>
<pdfrwt beam="1">  1        2 0.16172241E-01 0.41579959E+03</pdfrwt>
<pdfrwt beam="2">  1       -2 0.54543352E-01 0.41579959E+03</pdfrwt>
<totfact> 0.11565457E+03</totfact>
</mgrwt>
</event>
<event>
 4    1  0.1837449E-005  0.5923880E+03  0.7818608E-02  0.9921326E-01
          2   -1    0    0  501    0  0.00000000000E+00  0.00000000000E+00  0.29335063535E+04  0.29335063535E+04  0.25500000000E-02 0.  1.
         -2   -1    0    0    0  501 -0.00000000000E+00 -0.00000000000E+00 -0.29906494148E+02  0.29906494256E+02  0.25500000000E-02 0. -1.
    5000001    1    1    2    0    0  0.37422421206E+01 -0.12853510322E+03  0.25007798078E+04  0.25095138820E+04  0.16500000000E+03 0.  0.
   -5000001    1    1    2    0    0 -0.37422421206E+01  0.12853510322E+03  0.40282005158E+03  0.45389896573E+03  0.16500000000E+03 0.  0.
<mgrwt>
<rscale>  0 0.59238802E+03</rscale>
<asrwt>0</asrwt>
<pdfrwt beam="1">  1        2 0.41907203E+00 0.59238802E+03</pdfrwt>
<pdfrwt beam="2">  1       -2 0.42723594E-02 0.59238802E+03</pdfrwt>
<totfact> 0.71769859E+02</totfact>
</mgrwt>
</event>
<event>
 4    1  0.1837449E-005  0.5007277E+03  0.7818608E-02  0.1013589E+00
          2   -1    0    0  501    0  0.00000000000E+00  0.00000000000E+00  0.22416756669E+04  0.22416756669E+04  0.25500000000E-02 0.  1.
         -2   -1    0    0    0  501 -0.00000000000E+00 -0.00000000000E+00 -0.27962139565E+02  0.27962139681E+02  0.25500000000E-02 0. -1.
    5000001    1    1    2    0    0  0.17693876360E+03 -0.64383624002E+02  0.10972726530E+04  0.11254709468E+04  0.16500000000E+03 0.  0.
   -5000001    1    1    2    0    0 -0.17693876360E+03  0.64383624002E+02  0.11164408743E+04  0.11441668598E+04  0.16500000000E+03 0.  0.
<mgrwt>
<rscale>  0 0.50072766E+03</rscale>
<asrwt>0</asrwt>
<pdfrwt beam="1">  1        2 0.32023948E+00 0.50072766E+03</pdfrwt>
<pdfrwt beam="2">  1       -2 0.39945902E-02 0.50072766E+03</pdfrwt>
<totfact> 0.18258788E+03</totfact>
</mgrwt>
</event>
<event>
 4    1  0.1837449E-005  0.3874645E+03  0.7818608E-02  0.1048209E+00
         -2   -1    0    0    0  501 -0.00000000000E+00  0.00000000000E+00  0.23896886891E+02  0.23896887027E+02  0.25500000000E-02 0. -1.
          2   -1    0    0  501    0  0.00000000000E+00 -0.00000000000E+00 -0.15705888966E+04  0.15705888966E+04  0.25500000000E-02 0.  1.
    5000001    1    1    2    0    0  0.51076251221E+02 -0.81881062628E+02 -0.64361055915E+03  0.67139618982E+03  0.16500000000E+03 0.  0.
   -5000001    1    1    2    0    0 -0.51076251221E+02  0.81881062628E+02 -0.90308145056E+03  0.92308959381E+03  0.16500000000E+03 0.  0.
<mgrwt>
<rscale>  0 0.38746450E+03</rscale>
<asrwt>0</asrwt>
<pdfrwt beam="1">  1        2 0.22436978E+00 0.38746450E+03</pdfrwt>
<pdfrwt beam="2">  1       -2 0.34138420E-02 0.38746450E+03</pdfrwt>
<totfact> 0.50313146E+03</totfact>
</mgrwt>
</event>
<event>
 4    1  0.1837449E-005  0.4170636E+03  0.7818608E-02  0.1038026E+00
         -2   -1    0    0    0  501 -0.00000000000E+00  0.00000000000E+00  0.28061430979E+02  0.28061431095E+02  0.25500000000E-02 0. -1.
          2   -1    0    0  501    0  0.00000000000E+00 -0.00000000000E+00 -0.15496540202E+04  0.15496540202E+04  0.25500000000E-02 0.  1.
    5000001    1    1    2    0    0 -0.55339308490E+02 -0.87872428226E+02 -0.10407448395E+04  0.10588478756E+04  0.16500000000E+03 0.  0.
   -5000001    1    1    2    0    0  0.55339308490E+02  0.87872428226E+02 -0.48084774977E+03  0.51886757575E+03  0.16500000000E+03 0.  0.
<mgrwt>
<rscale>  0 0.41706359E+03</rscale>
<asrwt>0</asrwt>
<pdfrwt beam="1">  1        2 0.22137909E+00 0.41706359E+03</pdfrwt>
<pdfrwt beam="2">  1       -2 0.40087768E-02 0.41706359E+03</pdfrwt>
<totfact> 0.40422865E+03</totfact>
</mgrwt>
</event>
<event>
 4    1  0.1837449E-005  0.5735988E+03  0.7818608E-02  0.9961747E-01
          2   -1    0    0  501    0  0.00000000000E+00  0.00000000000E+00  0.15007864455E+04  0.15007864455E+04  0.25500000000E-02 0.  1.
         -2   -1    0    0    0  501 -0.00000000000E+00 -0.00000000000E+00 -0.54807190396E+02  0.54807190456E+02  0.25500000000E-02 0. -1.
    5000001    1    1    2    0    0 -0.16415450964E+03 -0.16602983940E+03  0.78461076543E+03  0.83507584316E+03  0.16500000000E+03 0.  0.
   -5000001    1    1    2    0    0  0.16415450964E+03  0.16602983940E+03  0.66136848969E+03  0.72051779282E+03  0.16500000000E+03 0.  0.
<mgrwt>
<rscale>  0 0.57359877E+03</rscale>
<asrwt>0</asrwt>
<pdfrwt beam="1">  1        2 0.21439808E+00 0.57359877E+03</pdfrwt>
<pdfrwt beam="2">  1       -2 0.78295982E-02 0.57359877E+03</pdfrwt>
<totfact> 0.15091716E+03</totfact>
</mgrwt>
</event>
<event>
 4    1  0.1837449E-005  0.4307354E+03  0.7818608E-02  0.1033628E+00
         -2   -1    0    0    0  501 -0.00000000000E+00  0.00000000000E+00  0.28380027334E+02  0.28380027449E+02  0.25500000000E-02 0. -1.
          2   -1    0    0  501    0  0.00000000000E+00 -0.00000000000E+00 -0.16343621735E+04  0.16343621735E+04  0.25500000000E-02 0.  1.
    5000001    1    1    2    0    0  0.97012300710E+02  0.98576959155E+02 -0.78204597239E+03  0.81114099040E+03  0.16500000000E+03 0.  0.
   -5000001    1    1    2    0    0 -0.97012300710E+02 -0.98576959155E+02 -0.82393617374E+03  0.85160121053E+03  0.16500000000E+03 0.  0.
<mgrwt>
<rscale>  0 0.43073539E+03</rscale>
<asrwt>0</asrwt>
<pdfrwt beam="1">  1        2 0.23348025E+00 0.43073539E+03</pdfrwt>
<pdfrwt beam="2">  1       -2 0.40542906E-02 0.43073539E+03</pdfrwt>
<totfact> 0.35985404E+03</totfact>
</mgrwt>
</event>
<event>
 4    1  0.1837449E-005  0.4166700E+03  0.7818608E-02  0.1038156E+00
          2   -1    0    0  501    0  0.00000000000E+00  0.00000000000E+00  0.13225172728E+03  0.13225172731E+03  0.25500000000E-02 0.  1.
         -2   -1    0    0    0  501 -0.00000000000E+00 -0.00000000000E+00 -0.32818829382E+03  0.32818829383E+03  0.25500000000E-02 0. -1.
    5000001    1    1    2    0    0  0.36101913668E+02  0.86721534158E+02 -0.32012444415E+01  0.18989265553E+03  0.16500000000E+03 0.  0.
   -5000001    1    1    2    0    0 -0.36101913668E+02 -0.86721534158E+02 -0.19273532210E+03  0.27054736561E+03  0.16500000000E+03 0.  0.
<mgrwt>
<rscale>  0 0.41666998E+03</rscale>
<asrwt>0</asrwt>
<pdfrwt beam="1">  1        2 0.18893104E-01 0.41666998E+03</pdfrwt>
<pdfrwt beam="2">  1       -2 0.46884042E-01 0.41666998E+03</pdfrwt>
<totfact> 0.13065460E+03</totfact>
</mgrwt>
</event>
<event>
 4    1  0.1837449E-005  0.5354814E+03  0.7818608E-02  0.1004911E+00
          2   -1    0    0  501    0  0.00000000000E+00  0.00000000000E+00  0.24715284251E+04  0.24715284251E+04  0.25500000000E-02 0.  1.
         -2   -1    0    0    0  501 -0.00000000000E+00 -0.00000000000E+00 -0.29004351614E+02  0.29004351726E+02  0.25500000000E-02 0. -1.
    5000001    1    1    2    0    0  0.17412600338E+03 -0.36809668274E+02  0.17492730742E+04  0.17660283420E+04  0.16500000000E+03 0.  0.
   -5000001    1    1    2    0    0 -0.17412600338E+03  0.36809668274E+02  0.69325099933E+03  0.73450443485E+03  0.16500000000E+03 0.  0.
<mgrwt>
<rscale>  0 0.53548139E+03</rscale>
<asrwt>0</asrwt>
<pdfrwt beam="1">  1        2 0.35307542E+00 0.53548139E+03</pdfrwt>
<pdfrwt beam="2">  1       -2 0.41434796E-02 0.53548139E+03</pdfrwt>
<totfact> 0.13184061E+03</totfact>
</mgrwt>
</event>
<event>
 4    1  0.1837449E-005  0.9517369E+03  0.7818608E-02  0.9363123E-01
         -2   -1    0    0    0  501 -0.00000000000E+00  0.00000000000E+00  0.12756164822E+03  0.12756164824E+03  0.25500000000E-02 0. -1.
          2   -1    0    0  501    0  0.00000000000E+00 -0.00000000000E+00 -0.17752262539E+04  0.17752262539E+04  0.25500000000E-02 0.  1.
    5000001    1    1    2    0    0  0.43958577323E+03  0.67239127566E+02 -0.74720395075E+03  0.88503982753E+03  0.16500000000E+03 0.  0.
   -5000001    1    1    2    0    0 -0.43958577323E+03 -0.67239127566E+02 -0.90046065496E+03  0.10177480746E+04  0.16500000000E+03 0.  0.
<mgrwt>
<rscale>  0 0.95173691E+03</rscale>
<asrwt>0</asrwt>
<pdfrwt beam="1">  1        2 0.25360374E+00 0.95173691E+03</pdfrwt>
<pdfrwt beam="2">  1       -2 0.18223094E-01 0.95173691E+03</pdfrwt>
<totfact> 0.26377554E+02</totfact>
</mgrwt>
</event>
<event>
 4    1  0.1837449E-005  0.7517620E+03  0.7818608E-02  0.9632590E-01
         -2   -1    0    0    0  501 -0.00000000000E+00  0.00000000000E+00  0.20000955167E+03  0.20000955168E+03  0.25500000000E-02 0. -1.
          2   -1    0    0  501    0  0.00000000000E+00 -0.00000000000E+00 -0.70639887484E+03  0.70639887484E+03  0.25500000000E-02 0.  1.
    5000001    1    1    2    0    0  0.21107805828E+03  0.23727881845E+03 -0.11463565102E+03  0.37579451414E+03  0.16500000000E+03 0.  0.
   -5000001    1    1    2    0    0 -0.21107805828E+03 -0.23727881845E+03 -0.39175367215E+03  0.53061391239E+03  0.16500000000E+03 0.  0.
<mgrwt>
<rscale>  0 0.75176199E+03</rscale>
<asrwt>0</asrwt>
<pdfrwt beam="1">  1        2 0.10091412E+00 0.75176199E+03</pdfrwt>
<pdfrwt beam="2">  1       -2 0.28572793E-01 0.75176199E+03</pdfrwt>
<totfact> 0.50126544E+02</totfact>
</mgrwt>
</event>
<event>
 4    1  0.1837449E-005  0.4135499E+03  0.7818608E-02  0.1039186E+00
          2   -1    0    0  501    0  0.00000000000E+00  0.00000000000E+00  0.51624815825E+03  0.51624815825E+03  0.25500000000E-02 0.  1.
         -2   -1    0    0    0  501 -0.00000000000E+00 -0.00000000000E+00 -0.82820420460E+02  0.82820420500E+02  0.25500000000E-02 0. -1.
    5000001    1    1    2    0    0 -0.25584385593E+01 -0.12355841383E+03  0.19346113526E+03  0.28271087367E+03  0.16500000000E+03 0.  0.
   -5000001    1    1    2    0    0  0.25584385593E+01  0.12355841383E+03  0.23996660252E+03  0.31635770508E+03  0.16500000000E+03 0.  0.
<mgrwt>
<rscale>  0 0.41354995E+03</rscale>
<asrwt>0</asrwt>
<pdfrwt beam="1">  1        2 0.73749735E-01 0.41354995E+03</pdfrwt>
<pdfrwt beam="2">  1       -2 0.11831489E-01 0.41354995E+03</pdfrwt>
<totfact> 0.33266412E+03</totfact>
</mgrwt>
</event>
<event>
 4    1  0.1837449E-005  0.6759066E+03  0.7818608E-02  0.9759346E-01
         -2   -1    0    0    0  501 -0.00000000000E+00  0.00000000000E+00  0.59885538516E+03  0.59885538517E+03  0.25500000000E-02 0. -1.
          2   -1    0    0  501    0  0.00000000000E+00 -0.00000000000E+00 -0.19071787855E+03  0.19071787857E+03  0.25500000000E-02 0.  1.
    5000001    1    1    2    0    0  0.16968313996E+03  0.13109285918E+03  0.44063303522E+03  0.51706883241E+03  0.16500000000E+03 0.  0.
   -5000001    1    1    2    0    0 -0.16968313996E+03 -0.13109285918E+03 -0.32495528611E+02  0.27250443133E+03  0.16500000000E+03 0.  0.
<mgrwt>
<rscale>  0 0.67590659E+03</rscale>
<asrwt>0</asrwt>
<pdfrwt beam="1">  1        2 0.27245412E-01 0.67590659E+03</pdfrwt>
<pdfrwt beam="2">  1       -2 0.85550768E-01 0.67590659E+03</pdfrwt>
<totfact> 0.23811807E+02</totfact>
</mgrwt>
</event>
<event>
 4    1  0.1837449E-005  0.6123596E+03  0.7818608E-02  0.9880091E-01
         -2   -1    0    0    0  501 -0.00000000000E+00  0.00000000000E+00  0.97079520237E+02  0.97079520270E+02  0.25500000000E-02 0. -1.
          2   -1    0    0  501    0  0.00000000000E+00 -0.00000000000E+00 -0.96566262587E+03  0.96566262587E+03  0.25500000000E-02 0.  1.
    5000001    1    1    2    0    0 -0.21000074020E+03 -0.14343251344E+03 -0.35968846247E+03  0.47039769007E+03  0.16500000000E+03 0.  0.
   -5000001    1    1    2    0    0  0.21000074020E+03  0.14343251344E+03 -0.50889464316E+03  0.59234445607E+03  0.16500000000E+03 0.  0.
<mgrwt>
<rscale>  0 0.61235958E+03</rscale>
<asrwt>0</asrwt>
<pdfrwt beam="1">  1        2 0.13795180E+00 0.61235958E+03</pdfrwt>
<pdfrwt beam="2">  1       -2 0.13868503E-01 0.61235958E+03</pdfrwt>
<totfact> 0.11849707E+03</totfact>
</mgrwt>
</event>
<event>
 4    1  0.1837449E-005  0.4134092E+03  0.7818608E-02  0.1039233E+00
         -2   -1    0    0    0  501 -0.00000000000E+00  0.00000000000E+00  0.35554650980E+03  0.35554650981E+03  0.25500000000E-02 0. -1.
          2   -1    0    0  501    0  0.00000000000E+00 -0.00000000000E+00 -0.12017214364E+03  0.12017214367E+03  0.25500000000E-02 0.  1.
    5000001    1    1    2    0    0  0.36665553784E+02 -0.11193266496E+03  0.16412418906E+03  0.26083526172E+03  0.16500000000E+03 0.  0.
   -5000001    1    1    2    0    0 -0.36665553784E+02  0.11193266496E+03  0.71250177095E+02  0.21488339176E+03  0.16500000000E+03 0.  0.
<mgrwt>
<rscale>  0 0.41340917E+03</rscale>
<asrwt>0</asrwt>
<pdfrwt beam="1">  1        2 0.17167449E-01 0.41340917E+03</pdfrwt>
<pdfrwt beam="2">  1       -2 0.50792359E-01 0.41340917E+03</pdfrwt>
<totfact> 0.12454247E+03</totfact>
</mgrwt>
</event>
<event>
 4    1  0.1837449E-005  0.5012744E+03  0.7818608E-02  0.1013447E+00
         -2   -1    0    0    0  501 -0.00000000000E+00  0.00000000000E+00  0.35846342064E+03  0.35846342065E+03  0.25500000000E-02 0. -1.
          2   -1    0    0  501    0  0.00000000000E+00 -0.00000000000E+00 -0.17524522597E+03  0.17524522599E+03  0.25500000000E-02 0.  1.
    5000001    1    1    2    0    0  0.18475103203E+03  0.21323217042E+02  0.12538521005E+03  0.27844941070E+03  0.16500000000E+03 0.  0.
   -5000001    1    1    2    0    0 -0.18475103203E+03 -0.21323217042E+02  0.57832984626E+02  0.25525923594E+03  0.16500000000E+03 0.  0.
<mgrwt>
<rscale>  0 0.50127439E+03</rscale>
<asrwt>0</asrwt>
<pdfrwt beam="1">  1        2 0.25035032E-01 0.50127439E+03</pdfrwt>
<pdfrwt beam="2">  1       -2 0.51209060E-01 0.50127439E+03</pdfrwt>
<totfact> 0.79193523E+02</totfact>
</mgrwt>
</event>
<event>
 4    1  0.1837449E-005  0.6324058E+03  0.7818608E-02  0.9840365E-01
          2   -1    0    0  501    0  0.00000000000E+00  0.00000000000E+00  0.98841617789E+02  0.98841617822E+02  0.25500000000E-02 0.  1.
         -2   -1    0    0    0  501 -0.00000000000E+00 -0.00000000000E+00 -0.10115604352E+04  0.10115604352E+04  0.25500000000E-02 0. -1.
    5000001    1    1    2    0    0 -0.25795896788E+03 -0.39195118911E+02 -0.33623926035E+03  0.45646569056E+03  0.16500000000E+03 0.  0.
   -5000001    1    1    2    0    0  0.25795896788E+03  0.39195118911E+02 -0.57647955709E+03  0.65393636250E+03  0.16500000000E+03 0.  0.
<mgrwt>
<rscale>  0 0.63240579E+03</rscale>
<asrwt>0</asrwt>
<pdfrwt beam="1">  1        2 0.14120232E-01 0.63240579E+03</pdfrwt>
<pdfrwt beam="2">  1       -2 0.14450863E+00 0.63240579E+03</pdfrwt>
<totfact> 0.14486462E+02</totfact>
</mgrwt>
</event>
<event>
 4    1  0.1837449E-005  0.3603936E+03  0.7818608E-02  0.1058428E+00
          2   -1    0    0  501    0  0.00000000000E+00  0.00000000000E+00  0.20951227132E+03  0.20951227133E+03  0.25500000000E-02 0.  1.
         -2   -1    0    0    0  501 -0.00000000000E+00 -0.00000000000E+00 -0.15498322438E+03  0.15498322440E+03  0.25500000000E-02 0. -1.
    5000001    1    1    2    0    0 -0.21164199352E+02 -0.52897977978E+02  0.72492264198E+02  0.18901388250E+03  0.16500000000E+03 0.  0.
   -5000001    1    1    2    0    0  0.21164199352E+02  0.52897977978E+02 -0.17963217258E+02  0.17548161323E+03  0.16500000000E+03 0.  0.
<mgrwt>
<rscale>  0 0.36039360E+03</rscale>
<asrwt>0</asrwt>
<pdfrwt beam="1">  1        2 0.29930325E-01 0.36039360E+03</pdfrwt>
<pdfrwt beam="2">  1       -2 0.22140461E-01 0.36039360E+03</pdfrwt>
<totfact> 0.31124656E+03</totfact>
</mgrwt>
</event>
<event>
 4    1  0.1837449E-005  0.5923190E+03  0.7818608E-02  0.9921471E-01
          2   -1    0    0  501    0  0.00000000000E+00  0.00000000000E+00  0.10793636858E+04  0.10793636858E+04  0.25500000000E-02 0.  1.
         -2   -1    0    0    0  501 -0.00000000000E+00 -0.00000000000E+00 -0.81261261679E+02  0.81261261719E+02  0.25500000000E-02 0. -1.
    5000001    1    1    2    0    0  0.23339960432E+03  0.23660138601E+02  0.64371023620E+03  0.70471486833E+03  0.16500000000E+03 0.  0.
   -5000001    1    1    2    0    0 -0.23339960432E+03 -0.23660138601E+02  0.35439218796E+03  0.45591007923E+03  0.16500000000E+03 0.  0.
<mgrwt>
<rscale>  0 0.59231902E+03</rscale>
<asrwt>0</asrwt>
<pdfrwt beam="1">  1        2 0.15419481E+00 0.59231902E+03</pdfrwt>
<pdfrwt beam="2">  1       -2 0.11608752E-01 0.59231902E+03</pdfrwt>
<totfact> 0.13589161E+03</totfact>
</mgrwt>
</event>
<event>
 4    1  0.1837449E-005  0.4821702E+03  0.7818608E-02  0.1018540E+00
          2   -1    0    0  501    0  0.00000000000E+00  0.00000000000E+00  0.55066344565E+03  0.55066344566E+03  0.25500000000E-02 0.  1.
         -2   -1    0    0    0  501 -0.00000000000E+00 -0.00000000000E+00 -0.10554910319E+03  0.10554910322E+03  0.25500000000E-02 0. -1.
    5000001    1    1    2    0    0  0.14172996640E+03  0.45455367818E+02  0.34981537155E+03  0.41442655322E+03  0.16500000000E+03 0.  0.
   -5000001    1    1    2    0    0 -0.14172996640E+03 -0.45455367818E+02  0.95298970915E+02  0.24178599566E+03  0.16500000000E+03 0.  0.
<mgrwt>
<rscale>  0 0.48217023E+03</rscale>
<asrwt>0</asrwt>
<pdfrwt beam="1">  1        2 0.78666208E-01 0.48217023E+03</pdfrwt>
<pdfrwt beam="2">  1       -2 0.15078443E-01 0.48217023E+03</pdfrwt>
<totfact> 0.20739226E+03</totfact>
</mgrwt>
</event>
<event>
 4    1  0.1837449E-005  0.5775404E+03  0.7818608E-02  0.9953130E-01
         -2   -1    0    0    0  501 -0.00000000000E+00  0.00000000000E+00  0.10600099402E+03  0.10600099405E+03  0.25500000000E-02 0. -1.
          2   -1    0    0  501    0  0.00000000000E+00 -0.00000000000E+00 -0.78667406676E+03  0.78667406677E+03  0.25500000000E-02 0.  1.
    5000001    1    1    2    0    0 -0.13431442313E+03  0.37334379023E+02 -0.44115669185E+02  0.22046635205E+03  0.16500000000E+03 0.  0.
   -5000001    1    1    2    0    0  0.13431442313E+03 -0.37334379023E+02 -0.63655740356E+03  0.67220870877E+03  0.16500000000E+03 0.  0.
<mgrwt>
<rscale>  0 0.57754042E+03</rscale>
<asrwt>0</asrwt>
<pdfrwt beam="1">  1        2 0.11238201E+00 0.57754042E+03</pdfrwt>
<pdfrwt beam="2">  1       -2 0.15143000E-01 0.57754042E+03</pdfrwt>
<totfact> 0.13414444E+03</totfact>
</mgrwt>
</event>
<event>
 4    1  0.1837449E-005  0.3765680E+03  0.7818608E-02  0.1052210E+00
         -2   -1    0    0    0  501 -0.00000000000E+00  0.00000000000E+00  0.32954944402E+02  0.32954944500E+02  0.25500000000E-02 0. -1.
          2   -1    0    0  501    0  0.00000000000E+00 -0.00000000000E+00 -0.10757373784E+04  0.10757373784E+04  0.25500000000E-02 0.  1.
    5000001    1    1    2    0    0 -0.21985652172E+02 -0.85231997849E+02 -0.45702128916E+03  0.49380291727E+03  0.16500000000E+03 0.  0.
   -5000001    1    1    2    0    0  0.21985652172E+02  0.85231997849E+02 -0.58576114486E+03  0.61488940566E+03  0.16500000000E+03 0.  0.
<mgrwt>
<rscale>  0 0.37656800E+03</rscale>
<asrwt>0</asrwt>
<pdfrwt beam="1">  1        2 0.15367675E+00 0.37656800E+03</pdfrwt>
<pdfrwt beam="2">  1       -2 0.47078499E-02 0.37656800E+03</pdfrwt>
<totfact> 0.56771117E+03</totfact>
</mgrwt>
</event>
<event>
 4    1  0.1837449E-005  0.4740099E+03  0.7818608E-02  0.1020795E+00
         -2   -1    0    0    0  501 -0.00000000000E+00  0.00000000000E+00  0.44557528397E+03  0.44557528397E+03  0.25500000000E-02 0. -1.
          2   -1    0    0  501    0  0.00000000000E+00 -0.00000000000E+00 -0.12606476061E+03  0.12606476064E+03  0.25500000000E-02 0.  1.
    5000001    1    1    2    0    0 -0.10274162248E+03 -0.12828009021E+03  0.10671029300E+03  0.25617124969E+03  0.16500000000E+03 0.  0.
   -5000001    1    1    2    0    0  0.10274162248E+03  0.12828009021E+03  0.21280023035E+03  0.31546879492E+03  0.16500000000E+03 0.  0.
<mgrwt>
<rscale>  0 0.47400988E+03</rscale>
<asrwt>0</asrwt>
<pdfrwt beam="1">  1        2 0.18009251E-01 0.47400988E+03</pdfrwt>
<pdfrwt beam="2">  1       -2 0.63653613E-01 0.47400988E+03</pdfrwt>
<totfact> 0.73844941E+02</totfact>
</mgrwt>
</event>
<event>
 4    1  0.1837449E-005  0.4691496E+03  0.7818608E-02  0.1022161E+00
         -2   -1    0    0    0  501 -0.00000000000E+00  0.00000000000E+00  0.19359776124E+03  0.19359776126E+03  0.25500000000E-02 0. -1.
          2   -1    0    0  501    0  0.00000000000E+00 -0.00000000000E+00 -0.28422503554E+03  0.28422503555E+03  0.25500000000E-02 0.  1.
    5000001    1    1    2    0    0  0.15686392973E+03 -0.16699202684E+02  0.96768842443E+01  0.22848150452E+03  0.16500000000E+03 0.  0.
   -5000001    1    1    2    0    0 -0.15686392973E+03  0.16699202684E+02 -0.10030415854E+03  0.24934129229E+03  0.16500000000E+03 0.  0.
<mgrwt>
<rscale>  0 0.46914957E+03</rscale>
<asrwt>0</asrwt>
<pdfrwt beam="1">  1        2 0.40603577E-01 0.46914957E+03</pdfrwt>
<pdfrwt beam="2">  1       -2 0.27656823E-01 0.46914957E+03</pdfrwt>
<totfact> 0.15030720E+03</totfact>
</mgrwt>
</event>
<event>
 4    1  0.1837449E-005  0.7359209E+03  0.7818608E-02  0.9657701E-01
         -2   -1    0    0    0  501 -0.00000000000E+00  0.00000000000E+00  0.14323761653E+03  0.14323761656E+03  0.25500000000E-02 0. -1.
          2   -1    0    0  501    0  0.00000000000E+00 -0.00000000000E+00 -0.94524675787E+03  0.94524675787E+03  0.25500000000E-02 0.  1.
    5000001    1    1    2    0    0 -0.23230447421E+03 -0.20740452301E+01 -0.56661303442E+02  0.29052568511E+03  0.16500000000E+03 0.  0.
   -5000001    1    1    2    0    0  0.23230447421E+03  0.20740452301E+01 -0.74534783789E+03  0.79795868931E+03  0.16500000000E+03 0.  0.
<mgrwt>
<rscale>  0 0.73592090E+03</rscale>
<asrwt>0</asrwt>
<pdfrwt beam="1">  1        2 0.13503525E+00 0.73592090E+03</pdfrwt>
<pdfrwt beam="2">  1       -2 0.20462517E-01 0.73592090E+03</pdfrwt>
<totfact> 0.62534192E+02</totfact>
</mgrwt>
</event>
<event>
 4    1  0.1837449E-005  0.5840341E+03  0.7818608E-02  0.9939095E-01
         -2   -1    0    0    0  501 -0.00000000000E+00  0.00000000000E+00  0.22332259388E+04  0.22332259388E+04  0.25500000000E-02 0. -1.
          2   -1    0    0  501    0  0.00000000000E+00 -0.00000000000E+00 -0.38184211059E+02  0.38184211144E+02  0.25500000000E-02 0.  1.
    5000001    1    1    2    0    0 -0.12413799929E+02 -0.23688012816E+03  0.93331329014E+03  0.97701842106E+03  0.16500000000E+03 0.  0.
   -5000001    1    1    2    0    0  0.12413799929E+02  0.23688012816E+03  0.12617284376E+04  0.12943917289E+04  0.16500000000E+03 0.  0.
<mgrwt>
<rscale>  0 0.58403415E+03</rscale>
<asrwt>0</asrwt>
<pdfrwt beam="1">  1        2 0.54548897E-02 0.58403415E+03</pdfrwt>
<pdfrwt beam="2">  1       -2 0.31903213E+00 0.58403415E+03</pdfrwt>
<totfact> 0.38013927E+01</totfact>
</mgrwt>
</event>
<event>
 4    1  0.1837449E-005  0.5433353E+03  0.7818608E-02  0.1003048E+00
         -2   -1    0    0    0  501 -0.00000000000E+00  0.00000000000E+00  0.96792759043E+02  0.96792759077E+02  0.25500000000E-02 0. -1.
          2   -1    0    0  501    0  0.00000000000E+00 -0.00000000000E+00 -0.76248789996E+03  0.76248789997E+03  0.25500000000E-02 0.  1.
    5000001    1    1    2    0    0 -0.11769173335E+03  0.17530782593E+03 -0.26222495052E+03  0.37492812992E+03  0.16500000000E+03 0.  0.
   -5000001    1    1    2    0    0  0.11769173335E+03 -0.17530782593E+03 -0.40347019040E+03  0.48435252913E+03  0.16500000000E+03 0.  0.
<mgrwt>
<rscale>  0 0.54333528E+03</rscale>
<asrwt>0</asrwt>
<pdfrwt beam="1">  1        2 0.10892684E+00 0.54333528E+03</pdfrwt>
<pdfrwt beam="2">  1       -2 0.13827537E-01 0.54333528E+03</pdfrwt>
<totfact> 0.16251241E+03</totfact>
</mgrwt>
</event>
<event>
 4    1  0.1837449E-005  0.4002281E+03  0.7818608E-02  0.1043701E+00
          2   -1    0    0  501    0  0.00000000000E+00  0.00000000000E+00  0.28241728265E+03  0.28241728266E+03  0.25500000000E-02 0.  1.
         -2   -1    0    0    0  501 -0.00000000000E+00 -0.00000000000E+00 -0.14179597251E+03  0.14179597254E+03  0.25500000000E-02 0. -1.
    5000001    1    1    2    0    0 -0.45888847031E+02  0.10184607382E+03  0.89918597742E+02  0.21860641174E+03  0.16500000000E+03 0.  0.
   -5000001    1    1    2    0    0  0.45888847031E+02 -0.10184607382E+03  0.50702712396E+02  0.20560684346E+03  0.16500000000E+03 0.  0.
<mgrwt>
<rscale>  0 0.40022810E+03</rscale>
<asrwt>0</asrwt>
<pdfrwt beam="1">  1        2 0.40345326E-01 0.40022810E+03</pdfrwt>
<pdfrwt beam="2">  1       -2 0.20256568E-01 0.40022810E+03</pdfrwt>
<totfact> 0.26216936E+03</totfact>
</mgrwt>
</event>
<event>
 4    1  0.1837449E-005  0.4739560E+03  0.7818608E-02  0.1020810E+00
          2   -1    0    0  501    0  0.00000000000E+00  0.00000000000E+00  0.10145654370E+04  0.10145654370E+04  0.25500000000E-02 0.  1.
         -2   -1    0    0    0  501 -0.00000000000E+00 -0.00000000000E+00 -0.55352345536E+02  0.55352345594E+02  0.25500000000E-02 0. -1.
    5000001    1    1    2    0    0 -0.12963233285E+03  0.10650450977E+03  0.54288780378E+03  0.59169241994E+03  0.16500000000E+03 0.  0.
   -5000001    1    1    2    0    0  0.12963233285E+03 -0.10650450977E+03  0.41632528765E+03  0.47822536263E+03  0.16500000000E+03 0.  0.
<mgrwt>
<rscale>  0 0.47395602E+03</rscale>
<asrwt>0</asrwt>
<pdfrwt beam="1">  1        2 0.14493791E+00 0.47395602E+03</pdfrwt>
<pdfrwt beam="2">  1       -2 0.79074785E-02 0.47395602E+03</pdfrwt>
<totfact> 0.27593548E+03</totfact>
</mgrwt>
</event>
<event>
 4    1  0.1837449E-005  0.4390041E+03  0.7818608E-02  0.1031053E+00
          2   -1    0    0  501    0  0.00000000000E+00  0.00000000000E+00  0.78496001970E+03  0.78496001970E+03  0.25500000000E-02 0.  1.
         -2   -1    0    0    0  501 -0.00000000000E+00 -0.00000000000E+00 -0.61380377298E+02  0.61380377351E+02  0.25500000000E-02 0. -1.
    5000001    1    1    2    0    0 -0.61566411950E+02 -0.12681333407E+03  0.42526598682E+03  0.47743921532E+03  0.16500000000E+03 0.  0.
   -5000001    1    1    2    0    0  0.61566411950E+02  0.12681333407E+03  0.29831365558E+03  0.36890118173E+03  0.16500000000E+03 0.  0.
<mgrwt>
<rscale>  0 0.43900406E+03</rscale>
<asrwt>0</asrwt>
<pdfrwt beam="1">  1        2 0.11213715E+00 0.43900406E+03</pdfrwt>
<pdfrwt beam="2">  1       -2 0.87686251E-02 0.43900406E+03</pdfrwt>
<totfact> 0.32856496E+03</totfact>
</mgrwt>
</event>
<event>
 4    1  0.1837449E-005  0.5032645E+03  0.7818608E-02  0.1012930E+00
         -2   -1    0    0    0  501 -0.00000000000E+00  0.00000000000E+00  0.21747422268E+02  0.21747422418E+02  0.25500000000E-02 0.  1.
          2   -1    0    0  501    0  0.00000000000E+00 -0.00000000000E+00 -0.29115542943E+04  0.29115542943E+04  0.25500000000E-02 0. -1.
    5000001    1    1    2    0    0  0.16217240034E+03  0.98166379189E+02 -0.15179989807E+04  0.15386625462E+04  0.16500000000E+03 0.  0.
   -5000001    1    1    2    0    0 -0.16217240034E+03 -0.98166379189E+02 -0.13718078913E+04  0.13946391705E+04  0.16500000000E+03 0.  0.
<mgrwt>
<rscale>  0 0.50326455E+03</rscale>
<asrwt>0</asrwt>
<pdfrwt beam="1">  1        2 0.41593608E+00 0.50326455E+03</pdfrwt>
<pdfrwt beam="2">  1       -2 0.31067765E-02 0.50326455E+03</pdfrwt>
<totfact> 0.12093543E+03</totfact>
</mgrwt>
</event>
<event>
 4    1  0.1837449E-005  0.6825144E+03  0.7818608E-02  0.9747611E-01
         -2   -1    0    0    0  501 -0.00000000000E+00  0.00000000000E+00  0.20072105793E+03  0.20072105795E+03  0.25500000000E-02 0. -1.
          2   -1    0    0  501    0  0.00000000000E+00 -0.00000000000E+00 -0.58019067595E+03  0.58019067596E+03  0.25500000000E-02 0.  1.
    5000001    1    1    2    0    0  0.25191540374E+03 -0.19569717433E+02 -0.74304655207E+01  0.30186844204E+03  0.16500000000E+03 0.  0.
   -5000001    1    1    2    0    0 -0.25191540374E+03  0.19569717433E+02 -0.37203915250E+03  0.47904329186E+03  0.16500000000E+03 0.  0.
<mgrwt>
<rscale>  0 0.68251443E+03</rscale>
<asrwt>0</asrwt>
<pdfrwt beam="1">  1        2 0.82884382E-01 0.68251443E+03</pdfrwt>
<pdfrwt beam="2">  1       -2 0.28674437E-01 0.68251443E+03</pdfrwt>
<totfact> 0.63217852E+02</totfact>
</mgrwt>
</event>
<event>
 4    1  0.1837449E-005  0.7112887E+03  0.7818608E-02  0.9698119E-01
          2   -1    0    0  501    0  0.00000000000E+00  0.00000000000E+00  0.22484245826E+03  0.22484245827E+03  0.25500000000E-02 0.  1.
         -2   -1    0    0    0  501 -0.00000000000E+00 -0.00000000000E+00 -0.56254010974E+03  0.56254010975E+03  0.25500000000E-02 0. -1.
    5000001    1    1    2    0    0 -0.21496851580E+03  0.59653281598E+02 -0.41510635067E+03  0.49930777999E+03  0.16500000000E+03 0.  0.
   -5000001    1    1    2    0    0  0.21496851580E+03 -0.59653281598E+02  0.77408699187E+02  0.28807478803E+03  0.16500000000E+03 0.  0.
<mgrwt>
<rscale>  0 0.71128869E+03</rscale>
<asrwt>0</asrwt>
<pdfrwt beam="1">  1        2 0.32120351E-01 0.71128869E+03</pdfrwt>
<pdfrwt beam="2">  1       -2 0.80362872E-01 0.71128869E+03</pdfrwt>
<totfact> 0.22752266E+02</totfact>
</mgrwt>
</event>
<event>
 4    1  0.1837449E-005  0.5055482E+03  0.7818608E-02  0.1012341E+00
         -2   -1    0    0    0  501 -0.00000000000E+00  0.00000000000E+00  0.38218979224E+02  0.38218979309E+02  0.25500000000E-02 0. -1.
          2   -1    0    0  501    0  0.00000000000E+00 -0.00000000000E+00 -0.16718065872E+04  0.16718065872E+04  0.25500000000E-02 0.  1.
    5000001    1    1    2    0    0 -0.18672248707E+03 -0.41698859961E+02 -0.78938514177E+03  0.82882928529E+03  0.16500000000E+03 0.  0.
   -5000001    1    1    2    0    0  0.18672248707E+03  0.41698859961E+02 -0.84420246624E+03  0.88119628126E+03  0.16500000000E+03 0.  0.
<mgrwt>
<rscale>  0 0.50554818E+03</rscale>
<asrwt>0</asrwt>
<pdfrwt beam="1">  1        2 0.23882947E+00 0.50554818E+03</pdfrwt>
<pdfrwt beam="2">  1       -2 0.54598552E-02 0.50554818E+03</pdfrwt>
<totfact> 0.21764601E+03</totfact>
</mgrwt>
</event>
<event>
 4    1  0.1837449E-005  0.8639037E+03  0.7818608E-02  0.9471864E-01
          2   -1    0    0  501    0  0.00000000000E+00  0.00000000000E+00  0.65528191061E+03  0.65528191062E+03  0.25500000000E-02 0.  1.
         -2   -1    0    0    0  501 -0.00000000000E+00 -0.00000000000E+00 -0.28473608391E+03  0.28473608392E+03  0.25500000000E-02 0. -1.
    5000001    1    1    2    0    0  0.35658748659E+03 -0.65688930551E+02  0.35634937994E+01  0.39838093538E+03  0.16500000000E+03 0.  0.
   -5000001    1    1    2    0    0 -0.35658748659E+03  0.65688930551E+02  0.36698233291E+03  0.54163705916E+03  0.16500000000E+03 0.  0.
<mgrwt>
<rscale>  0 0.86390371E+03</rscale>
<asrwt>0</asrwt>
<pdfrwt beam="1">  1        2 0.93611704E-01 0.86390371E+03</pdfrwt>
<pdfrwt beam="2">  1       -2 0.40676583E-01 0.86390371E+03</pdfrwt>
<totfact> 0.28010023E+02</totfact>
</mgrwt>
</event>
<event>
 4    1  0.1837449E-005  0.4008544E+03  0.7818608E-02  0.1043484E+00
         -2   -1    0    0    0  501 -0.00000000000E+00  0.00000000000E+00  0.20338663861E+03  0.20338663862E+03  0.25500000000E-02 0. -1.
          2   -1    0    0  501    0  0.00000000000E+00 -0.00000000000E+00 -0.19751085307E+03  0.19751085308E+03  0.25500000000E-02 0.  1.
    5000001    1    1    2    0    0  0.10881092740E+03  0.27677199533E+02 -0.15509229088E+02  0.20017837416E+03  0.16500000000E+03 0.  0.
   -5000001    1    1    2    0    0 -0.10881092740E+03 -0.27677199533E+02  0.21385014626E+02  0.20071911754E+03  0.16500000000E+03 0.  0.
<mgrwt>
<rscale>  0 0.40085443E+03</rscale>
<asrwt>0</asrwt>
<pdfrwt beam="1">  1        2 0.28215836E-01 0.40085443E+03</pdfrwt>
<pdfrwt beam="2">  1       -2 0.29055234E-01 0.40085443E+03</pdfrwt>
<totfact> 0.20513902E+03</totfact>
</mgrwt>
</event>
<event>
 4    1  0.1837449E-005  0.5056778E+03  0.7818608E-02  0.1012307E+00
          2   -1    0    0  501    0  0.00000000000E+00  0.00000000000E+00  0.24295452016E+04  0.24295452016E+04  0.25500000000E-02 0.  1.
         -2   -1    0    0    0  501 -0.00000000000E+00 -0.00000000000E+00 -0.26312539144E+02  0.26312539268E+02  0.25500000000E-02 0. -1.
    5000001    1    1    2    0    0  0.96860171962E+02  0.91992039652E+02  0.53468976255E+03  0.57529346463E+03  0.16500000000E+03 0.  0.
   -5000001    1    1    2    0    0 -0.96860171962E+02 -0.91992039652E+02  0.18685428999E+04  0.18805642763E+04  0.16500000000E+03 0.  0.
<mgrwt>
<rscale>  0 0.50567778E+03</rscale>
<asrwt>0</asrwt>
<pdfrwt beam="1">  1        2 0.34707781E+00 0.50567778E+03</pdfrwt>
<pdfrwt beam="2">  1       -2 0.37589350E-02 0.50567778E+03</pdfrwt>
<totfact> 0.16105527E+03</totfact>
</mgrwt>
</event>
<event>
 4    1  0.1837449E-005  0.4560945E+03  0.7818608E-02  0.1025920E+00
          2   -1    0    0  501    0  0.00000000000E+00  0.00000000000E+00  0.49183411187E+03  0.49183411188E+03  0.25500000000E-02 0.  1.
         -2   -1    0    0    0  501 -0.00000000000E+00 -0.00000000000E+00 -0.10573797826E+03  0.10573797829E+03  0.25500000000E-02 0. -1.
    5000001    1    1    2    0    0  0.69153609825E+02  0.25458221156E+02  0.10793577279E+02  0.18102995356E+03  0.16500000000E+03 0.  0.
   -5000001    1    1    2    0    0 -0.69153609825E+02 -0.25458221156E+02  0.37530255633E+03  0.41654213660E+03  0.16500000000E+03 0.  0.
<mgrwt>
<rscale>  0 0.45609448E+03</rscale>
<asrwt>0</asrwt>
<pdfrwt beam="1">  1        2 0.70262018E-01 0.45609448E+03</pdfrwt>
<pdfrwt beam="2">  1       -2 0.15105425E-01 0.45609448E+03</pdfrwt>
<totfact> 0.23497965E+03</totfact>
</mgrwt>
</event>
<event>
 4    1  0.1837449E-005  0.7981427E+03  0.7818608E-02  0.9562709E-01
          2   -1    0    0  501    0  0.00000000000E+00  0.00000000000E+00  0.15153996552E+04  0.15153996552E+04  0.25500000000E-02 0.  1.
         -2   -1    0    0    0  501 -0.00000000000E+00 -0.00000000000E+00 -0.10509303958E+03  0.10509303961E+03  0.25500000000E-02 0. -1.
    5000001    1    1    2    0    0  0.85906510000E+02 -0.33463383554E+03  0.93371848372E+03  0.10091654667E+04  0.16500000000E+03 0.  0.
   -5000001    1    1    2    0    0 -0.85906510000E+02  0.33463383554E+03  0.47658813187E+03  0.61132722808E+03  0.16500000000E+03 0.  0.
<mgrwt>
<rscale>  0 0.79814273E+03</rscale>
<asrwt>0</asrwt>
<pdfrwt beam="1">  1        2 0.21648564E+00 0.79814273E+03</pdfrwt>
<pdfrwt beam="2">  1       -2 0.15013293E-01 0.79814273E+03</pdfrwt>
<totfact> 0.50564191E+02</totfact>
</mgrwt>
</event>
<event>
 4    1  0.1837449E-005  0.8277883E+03  0.7818608E-02  0.9520643E-01
         -2   -1    0    0    0  501 -0.00000000000E+00  0.00000000000E+00  0.10672270691E+03  0.10672270694E+03  0.25500000000E-02 0. -1.
          2   -1    0    0  501    0  0.00000000000E+00 -0.00000000000E+00 -0.16051724588E+04  0.16051724588E+04  0.25500000000E-02 0.  1.
    5000001    1    1    2    0    0 -0.10524597124E+03 -0.36058672477E+03 -0.63625924059E+03  0.75706692028E+03  0.16500000000E+03 0.  0.
   -5000001    1    1    2    0    0  0.10524597124E+03  0.36058672477E+03 -0.86219051128E+03  0.95482824544E+03  0.16500000000E+03 0.  0.
<mgrwt>
<rscale>  0 0.82778826E+03</rscale>
<asrwt>0</asrwt>
<pdfrwt beam="1">  1        2 0.22931034E+00 0.82778826E+03</pdfrwt>
<pdfrwt beam="2">  1       -2 0.15246102E-01 0.82778826E+03</pdfrwt>
<totfact> 0.44154253E+02</totfact>
</mgrwt>
</event>
<event>
 4    1  0.1837449E-005  0.6135945E+03  0.7818608E-02  0.9877596E-01
          2   -1    0    0  501    0  0.00000000000E+00  0.00000000000E+00  0.47226179908E+04  0.47226179908E+04  0.25500000000E-02 0. -1.
         -2   -1    0    0    0  501 -0.00000000000E+00 -0.00000000000E+00 -0.19930589324E+02  0.19930589488E+02  0.25500000000E-02 0.  1.
    5000001    1    1    2    0    0  0.10083453223E+03  0.22892301399E+03  0.28597186652E+04  0.28753763569E+04  0.16500000000E+03 0.  0.
   -5000001    1    1    2    0    0 -0.10083453223E+03 -0.22892301399E+03  0.18429687362E+04  0.18671722234E+04  0.16500000000E+03 0.  0.
<mgrwt>
<rscale>  0 0.61359452E+03</rscale>
<asrwt>0</asrwt>
<pdfrwt beam="1">  1        2 0.67465958E+00 0.61359452E+03</pdfrwt>
<pdfrwt beam="2">  1       -2 0.28472276E-02 0.61359452E+03</pdfrwt>
<totfact> 0.89609844E+01</totfact>
</mgrwt>
</event>
<event>
 4    1  0.1837449E-005  0.5047007E+03  0.7818608E-02  0.1012559E+00
         -2   -1    0    0    0  501 -0.00000000000E+00  0.00000000000E+00  0.88370028181E+02  0.88370028218E+02  0.25500000000E-02 0. -1.
          2   -1    0    0  501    0  0.00000000000E+00 -0.00000000000E+00 -0.72061415499E+03  0.72061415499E+03  0.25500000000E-02 0.  1.
    5000001    1    1    2    0    0 -0.16798175993E+03  0.90615866037E+02 -0.32438692382E+03  0.41095131487E+03  0.16500000000E+03 0.  0.
   -5000001    1    1    2    0    0  0.16798175993E+03 -0.90615866037E+02 -0.30785720299E+03  0.39803286834E+03  0.16500000000E+03 0.  0.
<mgrwt>
<rscale>  0 0.50470068E+03</rscale>
<asrwt>0</asrwt>
<pdfrwt beam="1">  1        2 0.10294488E+00 0.50470068E+03</pdfrwt>
<pdfrwt beam="2">  1       -2 0.12624290E-01 0.50470068E+03</pdfrwt>
<totfact> 0.20268185E+03</totfact>
</mgrwt>
</event>
<event>
 4    1  0.1837449E-005  0.3955166E+03  0.7818608E-02  0.1045343E+00
         -2   -1    0    0    0  501 -0.00000000000E+00  0.00000000000E+00  0.62700105742E+03  0.62700105742E+03  0.25500000000E-02 0. -1.
          2   -1    0    0  501    0  0.00000000000E+00 -0.00000000000E+00 -0.62373637093E+02  0.62373637145E+02  0.25500000000E-02 0.  1.
    5000001    1    1    2    0    0 -0.66174810992E+02  0.17010514838E+02  0.43036255464E+03  0.46594569604E+03  0.16500000000E+03 0.  0.
   -5000001    1    1    2    0    0  0.66174810992E+02 -0.17010514838E+02  0.13426486569E+03  0.22342899853E+03  0.16500000000E+03 0.  0.
<mgrwt>
<rscale>  0 0.39551656E+03</rscale>
<asrwt>0</asrwt>
<pdfrwt beam="1">  1        2 0.89105194E-02 0.39551656E+03</pdfrwt>
<pdfrwt beam="2">  1       -2 0.89571582E-01 0.39551656E+03</pdfrwt>
<totfact> 0.82517774E+02</totfact>
</mgrwt>
</event>
<event>
 4    1  0.1837449E-005  0.4557473E+03  0.7818608E-02  0.1026022E+00
          2   -1    0    0  501    0  0.00000000000E+00  0.00000000000E+00  0.13001116295E+04  0.13001116295E+04  0.25500000000E-02 0.  1.
         -2   -1    0    0    0  501 -0.00000000000E+00 -0.00000000000E+00 -0.39939948885E+02  0.39939948966E+02  0.25500000000E-02 0. -1.
    5000001    1    1    2    0    0 -0.13006535878E+03 -0.79548945604E+02  0.51787578321E+03  0.56450452534E+03  0.16500000000E+03 0.  0.
   -5000001    1    1    2    0    0  0.13006535878E+03  0.79548945604E+02  0.74229589739E+03  0.77554705311E+03  0.16500000000E+03 0.  0.
<mgrwt>
<rscale>  0 0.45574726E+03</rscale>
<asrwt>0</asrwt>
<pdfrwt beam="1">  1        2 0.18573026E+00 0.45574726E+03</pdfrwt>
<pdfrwt beam="2">  1       -2 0.57057063E-02 0.45574726E+03</pdfrwt>
<totfact> 0.31733199E+03</totfact>
</mgrwt>
</event>
<event>
 4    1  0.1837449E-005  0.4964832E+03  0.7818608E-02  0.1014701E+00
         -2   -1    0    0    0  501 -0.00000000000E+00  0.00000000000E+00  0.62504336470E+03  0.62504336471E+03  0.25500000000E-02 0. -1.
          2   -1    0    0  501    0  0.00000000000E+00 -0.00000000000E+00 -0.98591387090E+02  0.98591387123E+02  0.25500000000E-02 0.  1.
    5000001    1    1    2    0    0  0.17221949820E+03  0.63642524311E+02  0.30148323548E+03  0.38964992972E+03  0.16500000000E+03 0.  0.
   -5000001    1    1    2    0    0 -0.17221949820E+03 -0.63642524311E+02  0.22496874214E+03  0.33398482211E+03  0.16500000000E+03 0.  0.
<mgrwt>
<rscale>  0 0.49648320E+03</rscale>
<asrwt>0</asrwt>
<pdfrwt beam="1">  1        2 0.14084483E-01 0.49648320E+03</pdfrwt>
<pdfrwt beam="2">  1       -2 0.89291913E-01 0.49648320E+03</pdfrwt>
<totfact> 0.47042925E+02</totfact>
</mgrwt>
</event>
<event>
 4    1  0.1837449E-005  0.3588544E+03  0.7818608E-02  0.1059038E+00
         -2   -1    0    0    0  501 -0.00000000000E+00  0.00000000000E+00  0.21085484040E+02  0.21085484194E+02  0.25500000000E-02 0. -1.
          2   -1    0    0  501    0  0.00000000000E+00 -0.00000000000E+00 -0.15268376654E+04  0.15268376654E+04  0.25500000000E-02 0.  1.
    5000001    1    1    2    0    0 -0.19172244743E+02 -0.65031191687E+02 -0.66962634010E+03  0.69297984546E+03  0.16500000000E+03 0.  0.
   -5000001    1    1    2    0    0  0.19172244743E+02  0.65031191687E+02 -0.83612584125E+03  0.85494330412E+03  0.16500000000E+03 0.  0.
<mgrwt>
<rscale>  0 0.35885435E+03</rscale>
<asrwt>0</asrwt>
<pdfrwt beam="1">  1        2 0.21811960E+00 0.35885435E+03</pdfrwt>
<pdfrwt beam="2">  1       -2 0.30122130E-02 0.35885435E+03</pdfrwt>
<totfact> 0.63896710E+03</totfact>
</mgrwt>
</event>
<event>
 4    1  0.1837449E-005  0.5471297E+03  0.7818608E-02  0.1002160E+00
         -2   -1    0    0    0  501 -0.00000000000E+00  0.00000000000E+00  0.13481745113E+04  0.13481745113E+04  0.25500000000E-02 0. -1.
          2   -1    0    0  501    0  0.00000000000E+00 -0.00000000000E+00 -0.55510406268E+02  0.55510406327E+02  0.25500000000E-02 0.  1.
    5000001    1    1    2    0    0  0.20060501546E+03  0.68767375983E+02  0.77818677761E+03  0.82326847691E+03  0.16500000000E+03 0.  0.
   -5000001    1    1    2    0    0 -0.20060501546E+03 -0.68767375983E+02  0.51447732746E+03  0.58041644075E+03  0.16500000000E+03 0.  0.
<mgrwt>
<rscale>  0 0.54712966E+03</rscale>
<asrwt>0</asrwt>
<pdfrwt beam="1">  1        2 0.79300576E-02 0.54712966E+03</pdfrwt>
<pdfrwt beam="2">  1       -2 0.19259637E+00 0.54712966E+03</pdfrwt>
<totfact> 0.13686513E+02</totfact>
</mgrwt>
</event>
<event>
 4    1  0.1837449E-005  0.4489075E+03  0.7818608E-02  0.1028048E+00
         -2   -1    0    0    0  501 -0.00000000000E+00  0.00000000000E+00  0.23998979833E+02  0.23998979969E+02  0.25500000000E-02 0. -1.
          2   -1    0    0  501    0  0.00000000000E+00 -0.00000000000E+00 -0.20992343094E+04  0.20992343094E+04  0.25500000000E-02 0.  1.
    5000001    1    1    2    0    0 -0.49782165057E+02 -0.12940374711E+03 -0.13341596705E+04  0.13514550011E+04  0.16500000000E+03 0.  0.
   -5000001    1    1    2    0    0  0.49782165057E+02  0.12940374711E+03 -0.74107565912E+03  0.77177828828E+03  0.16500000000E+03 0.  0.
<mgrwt>
<rscale>  0 0.44890748E+03</rscale>
<asrwt>0</asrwt>
<pdfrwt beam="1">  1        2 0.29989050E+00 0.44890748E+03</pdfrwt>
<pdfrwt beam="2">  1       -2 0.34284270E-02 0.44890748E+03</pdfrwt>
<totfact> 0.27208540E+03</totfact>
</mgrwt>
</event>
<event>
 4    1  0.1837449E-005  0.3739786E+03  0.7818608E-02  0.1053182E+00
          2   -1    0    0  501    0  0.00000000000E+00  0.00000000000E+00  0.23458502688E+04  0.23458502688E+04  0.25500000000E-02 0.  1.
         -2   -1    0    0    0  501 -0.00000000000E+00 -0.00000000000E+00 -0.14905042064E+02  0.14905042282E+02  0.25500000000E-02 0. -1.
    5000001    1    1    2    0    0 -0.53037564078E+02  0.64740555520E+02  0.13366896869E+04  0.13494327111E+04  0.16500000000E+03 0.  0.
   -5000001    1    1    2    0    0  0.53037564078E+02 -0.64740555520E+02  0.99425553980E+03  0.10113225999E+04  0.16500000000E+03 0.  0.
<mgrwt>
<rscale>  0 0.37397859E+03</rscale>
<asrwt>0</asrwt>
<pdfrwt beam="1">  1        2 0.33512154E+00 0.37397859E+03</pdfrwt>
<pdfrwt beam="2">  1       -2 0.21292913E-02 0.37397859E+03</pdfrwt>
<totfact> 0.42034377E+03</totfact>
</mgrwt>
</event>
<event>
 4    1  0.1837449E-005  0.7537075E+03  0.7818608E-02  0.9629552E-01
         -2   -1    0    0    0  501 -0.00000000000E+00  0.00000000000E+00  0.15812153947E+03  0.15812153949E+03  0.25500000000E-02 0. -1.
          2   -1    0    0  501    0  0.00000000000E+00 -0.00000000000E+00 -0.89816205790E+03  0.89816205791E+03  0.25500000000E-02 0.  1.
    5000001    1    1    2    0    0  0.21596980756E+03  0.26016494408E+03 -0.33979921494E+03  0.50696869961E+03  0.16500000000E+03 0.  0.
   -5000001    1    1    2    0    0 -0.21596980756E+03 -0.26016494408E+03 -0.40024130350E+03  0.54931489779E+03  0.16500000000E+03 0.  0.
<mgrwt>
<rscale>  0 0.75370755E+03</rscale>
<asrwt>0</asrwt>
<pdfrwt beam="1">  1        2 0.12830886E+00 0.75370755E+03</pdfrwt>
<pdfrwt beam="2">  1       -2 0.22588792E-01 0.75370755E+03</pdfrwt>
<totfact> 0.56268524E+02</totfact>
</mgrwt>
</event>
<event>
 4    1  0.1837449E-005  0.7345456E+03  0.7818608E-02  0.9659913E-01
          2   -1    0    0  501    0  0.00000000000E+00  0.00000000000E+00  0.22373915947E+04  0.22373915947E+04  0.25500000000E-02 0.  1.
         -2   -1    0    0    0  501 -0.00000000000E+00 -0.00000000000E+00 -0.60288641048E+02  0.60288641102E+02  0.25500000000E-02 0. -1.
    5000001    1    1    2    0    0  0.31509487478E+03 -0.50203706607E+02  0.84911707955E+03  0.92197071919E+03  0.16500000000E+03 0.  0.
   -5000001    1    1    2    0    0 -0.31509487478E+03  0.50203706607E+02  0.13279858741E+04  0.13757095166E+04  0.16500000000E+03 0.  0.
<mgrwt>
<rscale>  0 0.73454557E+03</rscale>
<asrwt>0</asrwt>
<pdfrwt beam="1">  1        2 0.31962744E+00 0.73454557E+03</pdfrwt>
<pdfrwt beam="2">  1       -2 0.86126612E-02 0.73454557E+03</pdfrwt>
<totfact> 0.54279685E+02</totfact>
</mgrwt>
</event>
<event>
 4    1  0.1837449E-005  0.4179400E+03  0.7818608E-02  0.1037739E+00
          2   -1    0    0  501    0  0.00000000000E+00  0.00000000000E+00  0.11922863057E+04  0.11922863057E+04  0.25500000000E-02 0.  1.
         -2   -1    0    0    0  501 -0.00000000000E+00 -0.00000000000E+00 -0.36625817004E+02  0.36625817092E+02  0.25500000000E-02 0. -1.
    5000001    1    1    2    0    0 -0.72580790185E+02 -0.84295668296E+02  0.76541159380E+03  0.79085626932E+03  0.16500000000E+03 0.  0.
   -5000001    1    1    2    0    0  0.72580790185E+02  0.84295668296E+02  0.39024889490E+03  0.43805585348E+03  0.16500000000E+03 0.  0.
<mgrwt>
<rscale>  0 0.41794000E+03</rscale>
<asrwt>0</asrwt>
<pdfrwt beam="1">  1        2 0.17032663E+00 0.41794000E+03</pdfrwt>
<pdfrwt beam="2">  1       -2 0.52322591E-02 0.41794000E+03</pdfrwt>
<totfact> 0.41533583E+03</totfact>
</mgrwt>
</event>
<event>
 4    1  0.1837449E-005  0.4915066E+03  0.7818608E-02  0.1016020E+00
          2   -1    0    0  501    0  0.00000000000E+00  0.00000000000E+00  0.15191448934E+04  0.15191448934E+04  0.25500000000E-02 0.  1.
         -2   -1    0    0    0  501 -0.00000000000E+00 -0.00000000000E+00 -0.39755714833E+02  0.39755714915E+02  0.25500000000E-02 0. -1.
    5000001    1    1    2    0    0  0.62530583501E+02  0.13127635718E+03  0.10875126208E+04  0.11095279430E+04  0.16500000000E+03 0.  0.
   -5000001    1    1    2    0    0 -0.62530583501E+02 -0.13127635718E+03  0.39187655770E+03  0.44937266529E+03  0.16500000000E+03 0.  0.
<mgrwt>
<rscale>  0 0.49150663E+03</rscale>
<asrwt>0</asrwt>
<pdfrwt beam="1">  1        2 0.21702071E+00 0.49150663E+03</pdfrwt>
<pdfrwt beam="2">  1       -2 0.56793877E-02 0.49150663E+03</pdfrwt>
<totfact> 0.24507668E+03</totfact>
</mgrwt>
</event>
<event>
 4    1  0.1837449E-005  0.7658459E+03  0.7818608E-02  0.9610813E-01
          2   -1    0    0  501    0  0.00000000000E+00  0.00000000000E+00  0.12029062329E+04  0.12029062329E+04  0.25500000000E-02 0.  1.
         -2   -1    0    0    0  501 -0.00000000000E+00 -0.00000000000E+00 -0.12189645230E+03  0.12189645233E+03  0.25500000000E-02 0. -1.
    5000001    1    1    2    0    0 -0.20340527298E+03 -0.64941103152E+02  0.10104844905E+04  0.10458943338E+04  0.16500000000E+03 0.  0.
   -5000001    1    1    2    0    0  0.20340527298E+03  0.64941103152E+02  0.70525290114E+02  0.27890835144E+03  0.16500000000E+03 0.  0.
<mgrwt>
<rscale>  0 0.76584594E+03</rscale>
<asrwt>0</asrwt>
<pdfrwt beam="1">  1        2 0.17184374E+00 0.76584594E+03</pdfrwt>
<pdfrwt beam="2">  1       -2 0.17413779E-01 0.76584594E+03</pdfrwt>
<totfact> 0.58081343E+02</totfact>
</mgrwt>
</event>
<event>
 4    1  0.1837449E-005  0.3995310E+03  0.7818608E-02  0.1043942E+00
         -2   -1    0    0    0  501 -0.00000000000E+00  0.00000000000E+00  0.43643391616E+02  0.43643391691E+02  0.25500000000E-02 0. -1.
          2   -1    0    0  501    0  0.00000000000E+00 -0.00000000000E+00 -0.91437124545E+03  0.91437124546E+03  0.25500000000E-02 0.  1.
    5000001    1    1    2    0    0 -0.24160811036E+02 -0.83241510685E+02 -0.60774848396E+03  0.63568554620E+03  0.16500000000E+03 0.  0.
   -5000001    1    1    2    0    0  0.24160811036E+02  0.83241510685E+02 -0.26297936988E+03  0.32232909095E+03  0.16500000000E+03 0.  0.
<mgrwt>
<rscale>  0 0.39953104E+03</rscale>
<asrwt>0</asrwt>
<pdfrwt beam="1">  1        2 0.13062445E+00 0.39953104E+03</pdfrwt>
<pdfrwt beam="2">  1       -2 0.62347708E-02 0.39953104E+03</pdfrwt>
<totfact> 0.46090667E+03</totfact>
</mgrwt>
</event>
<event>
 4    1  0.1837449E-005  0.4873725E+03  0.7818608E-02  0.1017128E+00
         -2   -1    0    0    0  501 -0.00000000000E+00  0.00000000000E+00  0.16256611882E+02  0.16256612082E+02  0.25500000000E-02 0. -1.
          2   -1    0    0  501    0  0.00000000000E+00 -0.00000000000E+00 -0.36528513402E+04  0.36528513402E+04  0.25500000000E-02 0.  1.
    5000001    1    1    2    0    0  0.57139811821E+02  0.83878921693E+02 -0.70528937765E+03  0.73140873513E+03  0.16500000000E+03 0.  0.
   -5000001    1    1    2    0    0 -0.57139811821E+02 -0.83878921693E+02 -0.29313053507E+04  0.29376992172E+04  0.16500000000E+03 0.  0.
<mgrwt>
<rscale>  0 0.48737249E+03</rscale>
<asrwt>0</asrwt>
<pdfrwt beam="1">  1        2 0.52183538E+00 0.48737249E+03</pdfrwt>
<pdfrwt beam="2">  1       -2 0.23223755E-02 0.48737249E+03</pdfrwt>
<totfact> 0.71231724E+02</totfact>
</mgrwt>
</event>
<event>
 4    1  0.1837449E-005  0.5498101E+03  0.7818608E-02  0.1001538E+00
          2   -1    0    0  501    0  0.00000000000E+00  0.00000000000E+00  0.57299583854E+03  0.57299583855E+03  0.25500000000E-02 0.  1.
         -2   -1    0    0    0  501 -0.00000000000E+00 -0.00000000000E+00 -0.13189066027E+03  0.13189066029E+03  0.25500000000E-02 0. -1.
    5000001    1    1    2    0    0 -0.12700815939E+03 -0.86973101316E+01 -0.92932782557E+01  0.20860987699E+03  0.16500000000E+03 0.  0.
   -5000001    1    1    2    0    0  0.12700815939E+03  0.86973101316E+01  0.45039845653E+03  0.49627662185E+03  0.16500000000E+03 0.  0.
<mgrwt>
<rscale>  0 0.54981015E+03</rscale>
<asrwt>0</asrwt>
<pdfrwt beam="1">  1        2 0.81856550E-01 0.54981015E+03</pdfrwt>
<pdfrwt beam="2">  1       -2 0.18841523E-01 0.54981015E+03</pdfrwt>
<totfact> 0.13567014E+03</totfact>
</mgrwt>
</event>
<event>
 4    1  0.1837449E-005  0.1020673E+04  0.7818608E-02  0.9286157E-01
          2   -1    0    0  501    0  0.00000000000E+00  0.00000000000E+00  0.51225140806E+03  0.51225140806E+03  0.25500000000E-02 0.  1.
         -2   -1    0    0    0  501 -0.00000000000E+00 -0.00000000000E+00 -0.50842857805E+03  0.50842857805E+03  0.25500000000E-02 0. -1.
    5000001    1    1    2    0    0  0.55149001871E+02  0.46686452477E+03 -0.10860794733E+03  0.50992605652E+03  0.16500000000E+03 0.  0.
   -5000001    1    1    2    0    0 -0.55149001871E+02 -0.46686452477E+03  0.11243077734E+03  0.51075392959E+03  0.16500000000E+03 0.  0.
<mgrwt>
<rscale>  0 0.10206728E+04</rscale>
<asrwt>0</asrwt>
<pdfrwt beam="1">  1        2 0.73178772E-01 0.10206728E+04</pdfrwt>
<pdfrwt beam="2">  1       -2 0.72632654E-01 0.10206728E+04</pdfrwt>
<totfact> 0.11173961E+02</totfact>
</mgrwt>
</event>
<event>
 4    1  0.1837449E-005  0.4170703E+03  0.7818608E-02  0.1038024E+00
          2   -1    0    0  501    0  0.00000000000E+00  0.00000000000E+00  0.28995203061E+03  0.28995203062E+03  0.25500000000E-02 0.  1.
         -2   -1    0    0    0  501 -0.00000000000E+00 -0.00000000000E+00 -0.14997967068E+03  0.14997967070E+03  0.25500000000E-02 0. -1.
    5000001    1    1    2    0    0  0.31921542800E+02 -0.11506363914E+03  0.22774738344E+02  0.20494466242E+03  0.16500000000E+03 0.  0.
   -5000001    1    1    2    0    0 -0.31921542800E+02  0.11506363914E+03  0.11719762159E+03  0.23498703890E+03  0.16500000000E+03 0.  0.
<mgrwt>
<rscale>  0 0.41707031E+03</rscale>
<asrwt>0</asrwt>
<pdfrwt beam="1">  1        2 0.41421719E-01 0.41707031E+03</pdfrwt>
<pdfrwt beam="2">  1       -2 0.21425667E-01 0.41707031E+03</pdfrwt>
<totfact> 0.23124084E+03</totfact>
</mgrwt>
</event>
<event>
 4    1  0.1837449E-005  0.1220159E+04  0.7818608E-02  0.9095392E-01
          2   -1    0    0  501    0  0.00000000000E+00  0.00000000000E+00  0.12811521493E+04  0.12811521493E+04  0.25500000000E-02 0.  1.
         -2   -1    0    0    0  501 -0.00000000000E+00 -0.00000000000E+00 -0.29051752807E+03  0.29051752808E+03  0.25500000000E-02 0. -1.
    5000001    1    1    2    0    0 -0.74042472151E+02 -0.52980984633E+03  0.18299598830E+03  0.58897647889E+03  0.16500000000E+03 0.  0.
   -5000001    1    1    2    0    0  0.74042472151E+02  0.52980984633E+03  0.80763863293E+03  0.98269319849E+03  0.16500000000E+03 0.  0.
<mgrwt>
<rscale>  0 0.12201593E+04</rscale>
<asrwt>0</asrwt>
<pdfrwt beam="1">  1        2 0.18302174E+00 0.12201593E+04</pdfrwt>
<pdfrwt beam="2">  1       -2 0.41502503E-01 0.12201593E+04</pdfrwt>
<totfact> 0.10419285E+02</totfact>
</mgrwt>
</event>
<event>
 4    1  0.1837449E-005  0.7542557E+03  0.7818608E-02  0.9628697E-01
         -2   -1    0    0    0  501 -0.00000000000E+00  0.00000000000E+00  0.93230960652E+02  0.93230960687E+02  0.25500000000E-02 0. -1.
          2   -1    0    0  501    0  0.00000000000E+00 -0.00000000000E+00 -0.15255171783E+04  0.15255171783E+04  0.25500000000E-02 0.  1.
    5000001    1    1    2    0    0  0.31063280602E+03  0.90220629344E+02 -0.93467090312E+03  0.10027298735E+04  0.16500000000E+03 0.  0.
   -5000001    1    1    2    0    0 -0.31063280602E+03 -0.90220629344E+02 -0.49761531456E+03  0.61601826549E+03  0.16500000000E+03 0.  0.
<mgrwt>
<rscale>  0 0.75425574E+03</rscale>
<asrwt>0</asrwt>
<pdfrwt beam="1">  1        2 0.21793101E+00 0.75425574E+03</pdfrwt>
<pdfrwt beam="2">  1       -2 0.13318710E-01 0.75425574E+03</pdfrwt>
<totfact> 0.61228998E+02</totfact>
</mgrwt>
</event>
<event>
 4    1  0.1837449E-005  0.4911008E+03  0.7818608E-02  0.1016128E+00
          2   -1    0    0  501    0  0.00000000000E+00  0.00000000000E+00  0.10237893889E+04  0.10237893889E+04  0.25500000000E-02 0.  1.
         -2   -1    0    0    0  501 -0.00000000000E+00 -0.00000000000E+00 -0.58893957667E+02  0.58893957722E+02  0.25500000000E-02 0. -1.
    5000001    1    1    2    0    0 -0.11672118653E+03  0.13703186876E+03  0.53944604981E+03  0.59213901164E+03  0.16500000000E+03 0.  0.
   -5000001    1    1    2    0    0  0.11672118653E+03 -0.13703186876E+03  0.42544938146E+03  0.49054433503E+03  0.16500000000E+03 0.  0.
<mgrwt>
<rscale>  0 0.49110084E+03</rscale>
<asrwt>0</asrwt>
<pdfrwt beam="1">  1        2 0.14625563E+00 0.49110084E+03</pdfrwt>
<pdfrwt beam="2">  1       -2 0.84134222E-02 0.49110084E+03</pdfrwt>
<totfact> 0.24690937E+03</totfact>
</mgrwt>
</event>
<event>
 4    1  0.1837449E-005  0.3755233E+03  0.7818608E-02  0.1052601E+00
         -2   -1    0    0    0  501 -0.00000000000E+00  0.00000000000E+00  0.25254965821E+02  0.25254965950E+02  0.25500000000E-02 0. -1.
          2   -1    0    0  501    0  0.00000000000E+00 -0.00000000000E+00 -0.13959406636E+04  0.13959406636E+04  0.25500000000E-02 0.  1.
    5000001    1    1    2    0    0  0.47744528423E+02 -0.46987802350E+02 -0.46010376984E+03  0.49336383388E+03  0.16500000000E+03 0.  0.
   -5000001    1    1    2    0    0 -0.47744528423E+02  0.46987802350E+02 -0.91058192796E+03  0.92783179569E+03  0.16500000000E+03 0.  0.
<mgrwt>
<rscale>  0 0.37552328E+03</rscale>
<asrwt>0</asrwt>
<pdfrwt beam="1">  1        2 0.19942005E+00 0.37552328E+03</pdfrwt>
<pdfrwt beam="2">  1       -2 0.36078532E-02 0.37552328E+03</pdfrwt>
<totfact> 0.56892494E+03</totfact>
</mgrwt>
</event>
<event>
 4    1  0.1837449E-005  0.3990880E+03  0.7818608E-02  0.1044096E+00
         -2   -1    0    0    0  501 -0.00000000000E+00  0.00000000000E+00  0.10117527863E+02  0.10117528185E+02  0.25500000000E-02 0. -1.
          2   -1    0    0  501    0  0.00000000000E+00 -0.00000000000E+00 -0.39355281308E+04  0.39355281308E+04  0.25500000000E-02 0.  1.
    5000001    1    1    2    0    0  0.54273150985E+01  0.10393136144E+03 -0.23776660565E+04  0.23856554780E+04  0.16500000000E+03 0.  0.
   -5000001    1    1    2    0    0 -0.54273150985E+01 -0.10393136144E+03 -0.15477445464E+04  0.15599901809E+04  0.16500000000E+03 0.  0.
<mgrwt>
<rscale>  0 0.39908804E+03</rscale>
<asrwt>0</asrwt>
<pdfrwt beam="1">  1        2 0.56221732E+00 0.39908804E+03</pdfrwt>
<pdfrwt beam="2">  1       -2 0.14453637E-02 0.39908804E+03</pdfrwt>
<totfact> 0.97070109E+02</totfact>
</mgrwt>
</event>
<event>
 4    1  0.1837449E-005  0.6055462E+03  0.7818608E-02  0.9893966E-01
          2   -1    0    0  501    0  0.00000000000E+00  0.00000000000E+00  0.72403876212E+03  0.72403876212E+03  0.25500000000E-02 0.  1.
         -2   -1    0    0    0  501 -0.00000000000E+00 -0.00000000000E+00 -0.12661140024E+03  0.12661140026E+03  0.25500000000E-02 0. -1.
    5000001    1    1    2    0    0  0.23529144074E+03  0.31160477415E+02  0.17217932947E+03  0.33645766292E+03  0.16500000000E+03 0.  0.
   -5000001    1    1    2    0    0 -0.23529144074E+03 -0.31160477415E+02  0.42524803241E+03  0.51419249947E+03  0.16500000000E+03 0.  0.
<mgrwt>
<rscale>  0 0.60554624E+03</rscale>
<asrwt>0</asrwt>
<pdfrwt beam="1">  1        2 0.10343411E+00 0.60554624E+03</pdfrwt>
<pdfrwt beam="2">  1       -2 0.18087343E-01 0.60554624E+03</pdfrwt>
<totfact> 0.10996336E+03</totfact>
</mgrwt>
</event>
<event>
 4    1  0.1837449E-005  0.5565437E+03  0.7818608E-02  0.9999906E-01
          2   -1    0    0  501    0  0.00000000000E+00  0.00000000000E+00  0.82048780015E+03  0.82048780015E+03  0.25500000000E-02 0.  1.
         -2   -1    0    0    0  501 -0.00000000000E+00 -0.00000000000E+00 -0.94377043216E+02  0.94377043251E+02  0.25500000000E-02 0. -1.
    5000001    1    1    2    0    0  0.84302390882E+02  0.11664063062E+03  0.80726005998E+02  0.23335298983E+03  0.16500000000E+03 0.  0.
   -5000001    1    1    2    0    0 -0.84302390882E+02 -0.11664063062E+03  0.64538475093E+03  0.68151185357E+03  0.16500000000E+03 0.  0.
<mgrwt>
<rscale>  0 0.55654366E+03</rscale>
<asrwt>0</asrwt>
<pdfrwt beam="1">  1        2 0.11721255E+00 0.55654366E+03</pdfrwt>
<pdfrwt beam="2">  1       -2 0.13482434E-01 0.55654366E+03</pdfrwt>
<totfact> 0.15442525E+03</totfact>
</mgrwt>
</event>
<event>
 4    1  0.1837449E-005  0.7831268E+03  0.7818608E-02  0.9584767E-01
         -2   -1    0    0    0  501 -0.00000000000E+00  0.00000000000E+00  0.78755891109E+02  0.78755891150E+02  0.25500000000E-02 0. -1.
          2   -1    0    0  501    0  0.00000000000E+00 -0.00000000000E+00 -0.19467990400E+04  0.19467990400E+04  0.25500000000E-02 0.  1.
    5000001    1    1    2    0    0 -0.11143661126E+03 -0.11435122077E+03 -0.17544042634E+04  0.17693653211E+04  0.16500000000E+03 0.  0.
   -5000001    1    1    2    0    0  0.11143661126E+03  0.11435122077E+03 -0.11363888553E+03  0.25618961010E+03  0.16500000000E+03 0.  0.
<mgrwt>
<rscale>  0 0.78312679E+03</rscale>
<asrwt>0</asrwt>
<pdfrwt beam="1">  1        2 0.27811412E+00 0.78312679E+03</pdfrwt>
<pdfrwt beam="2">  1       -2 0.11250843E-01 0.78312679E+03</pdfrwt>
<totfact> 0.49172898E+02</totfact>
</mgrwt>
</event>
<event>
 4    1  0.1837449E-005  0.4508785E+03  0.7818608E-02  0.1027460E+00
         -2   -1    0    0    0  501 -0.00000000000E+00  0.00000000000E+00  0.10720469965E+04  0.10720469966E+04  0.25500000000E-02 0. -1.
          2   -1    0    0  501    0  0.00000000000E+00 -0.00000000000E+00 -0.47407304841E+02  0.47407304909E+02  0.25500000000E-02 0.  1.
    5000001    1    1    2    0    0 -0.79891842030E+02 -0.10801480711E+03  0.32738734291E+03  0.39045790718E+03  0.16500000000E+03 0.  0.
   -5000001    1    1    2    0    0  0.79891842030E+02  0.10801480711E+03  0.69725234879E+03  0.72899639428E+03  0.16500000000E+03 0.  0.
<mgrwt>
<rscale>  0 0.45087851E+03</rscale>
<asrwt>0</asrwt>
<pdfrwt beam="1">  1        2 0.67724731E-02 0.45087851E+03</pdfrwt>
<pdfrwt beam="2">  1       -2 0.15314955E+00 0.45087851E+03</pdfrwt>
<totfact> 0.31761561E+02</totfact>
</mgrwt>
</event>
<event>
 4    1  0.1837449E-005  0.4460504E+03  0.7818608E-02  0.1028906E+00
         -2   -1    0    0    0  501 -0.00000000000E+00  0.00000000000E+00  0.13473304303E+03  0.13473304305E+03  0.25500000000E-02 0. -1.
          2   -1    0    0  501    0  0.00000000000E+00 -0.00000000000E+00 -0.36917621056E+03  0.36917621057E+03  0.25500000000E-02 0.  1.
    5000001    1    1    2    0    0  0.13288921588E+03 -0.14667260825E+01 -0.38517421701E+02  0.21533761111E+03  0.16500000000E+03 0.  0.
   -5000001    1    1    2    0    0 -0.13288921588E+03  0.14667260825E+01 -0.19592574583E+03  0.28857164251E+03  0.16500000000E+03 0.  0.
<mgrwt>
<rscale>  0 0.44605038E+03</rscale>
<asrwt>0</asrwt>
<pdfrwt beam="1">  1        2 0.52739458E-01 0.44605038E+03</pdfrwt>
<pdfrwt beam="2">  1       -2 0.19247578E-01 0.44605038E+03</pdfrwt>
<totfact> 0.21398384E+03</totfact>
</mgrwt>
</event>
<event>
 4    1  0.1837449E-005  0.4873428E+03  0.7818608E-02  0.1017136E+00
         -2   -1    0    0    0  501 -0.00000000000E+00  0.00000000000E+00  0.35563518180E+03  0.35563518181E+03  0.25500000000E-02 0. -1.
          2   -1    0    0  501    0  0.00000000000E+00 -0.00000000000E+00 -0.16695688267E+03  0.16695688269E+03  0.25500000000E-02 0.  1.
    5000001    1    1    2    0    0  0.12386933015E+03 -0.95434770052E+02  0.24667248754E+00  0.22732458541E+03  0.16500000000E+03 0.  0.
   -5000001    1    1    2    0    0 -0.12386933015E+03  0.95434770052E+02  0.18843162664E+03  0.29526747909E+03  0.16500000000E+03 0.  0.
<mgrwt>
<rscale>  0 0.48734276E+03</rscale>
<asrwt>0</asrwt>
<pdfrwt beam="1">  1        2 0.23850983E-01 0.48734276E+03</pdfrwt>
<pdfrwt beam="2">  1       -2 0.50805026E-01 0.48734276E+03</pdfrwt>
<totfact> 0.85046413E+02</totfact>
</mgrwt>
</event>
<event>
 4    1  0.1837449E-005  0.4372172E+03  0.7818608E-02  0.1031604E+00
          2   -1    0    0  501    0  0.00000000000E+00  0.00000000000E+00  0.50459315057E+03  0.50459315058E+03  0.25500000000E-02 0.  1.
         -2   -1    0    0    0  501 -0.00000000000E+00 -0.00000000000E+00 -0.94709412015E+02  0.94709412049E+02  0.25500000000E-02 0. -1.
    5000001    1    1    2    0    0 -0.10961064648E+03  0.86886263045E+02  0.16157412660E+03  0.26999058301E+03  0.16500000000E+03 0.  0.
   -5000001    1    1    2    0    0  0.10961064648E+03 -0.86886263045E+02  0.24830961196E+03  0.32931197962E+03  0.16500000000E+03 0.  0.
<mgrwt>
<rscale>  0 0.43721720E+03</rscale>
<asrwt>0</asrwt>
<pdfrwt beam="1">  1        2 0.72084735E-01 0.43721720E+03</pdfrwt>
<pdfrwt beam="2">  1       -2 0.13529916E-01 0.43721720E+03</pdfrwt>
<totfact> 0.27409394E+03</totfact>
</mgrwt>
</event>
<event>
 4    1  0.1837449E-005  0.5193817E+03  0.7818608E-02  0.1008840E+00
          2   -1    0    0  501    0  0.00000000000E+00  0.00000000000E+00  0.54360743592E+03  0.54360743593E+03  0.25500000000E-02 0.  1.
         -2   -1    0    0    0  501 -0.00000000000E+00 -0.00000000000E+00 -0.12405889951E+03  0.12405889954E+03  0.25500000000E-02 0. -1.
    5000001    1    1    2    0    0 -0.57645534481E+02 -0.12946152282E+03  0.27382175844E+02  0.21922152515E+03  0.16500000000E+03 0.  0.
   -5000001    1    1    2    0    0  0.57645534481E+02  0.12946152282E+03  0.39216636057E+03  0.44844481031E+03  0.16500000000E+03 0.  0.
<mgrwt>
<rscale>  0 0.51938171E+03</rscale>
<asrwt>0</asrwt>
<pdfrwt beam="1">  1        2 0.77658203E-01 0.51938171E+03</pdfrwt>
<pdfrwt beam="2">  1       -2 0.17722701E-01 0.51938171E+03</pdfrwt>
<totfact> 0.16016291E+03</totfact>
</mgrwt>
</event>
<event>
 4    1  0.1837449E-005  0.3726002E+03  0.7818608E-02  0.1053703E+00
          2   -1    0    0  501    0  0.00000000000E+00  0.00000000000E+00  0.23265811889E+03  0.23265811891E+03  0.25500000000E-02 0.  1.
         -2   -1    0    0    0  501 -0.00000000000E+00 -0.00000000000E+00 -0.14917911909E+03  0.14917911911E+03  0.25500000000E-02 0. -1.
    5000001    1    1    2    0    0 -0.17796835059E+02  0.68487704909E+02 -0.92477250955E+01  0.17977155916E+03  0.16500000000E+03 0.  0.
   -5000001    1    1    2    0    0  0.17796835059E+02 -0.68487704909E+02  0.92726724901E+02  0.20206567886E+03  0.16500000000E+03 0.  0.
<mgrwt>
<rscale>  0 0.37260023E+03</rscale>
<asrwt>0</asrwt>
<pdfrwt beam="1">  1        2 0.33236874E-01 0.37260023E+03</pdfrwt>
<pdfrwt beam="2">  1       -2 0.21311303E-01 0.37260023E+03</pdfrwt>
<totfact> 0.29650874E+03</totfact>
</mgrwt>
</event>
<event>
 4    1  0.1837449E-005  0.3533797E+03  0.7818608E-02  0.1061236E+00
          2   -1    0    0  501    0  0.00000000000E+00  0.00000000000E+00  0.21677153072E+03  0.21677153074E+03  0.25500000000E-02 0. -1.
         -2   -1    0    0    0  501 -0.00000000000E+00 -0.00000000000E+00 -0.14401935026E+03  0.14401935028E+03  0.25500000000E-02 0.  1.
    5000001    1    1    2    0    0  0.27825920449E+02  0.55752117581E+02  0.47167268924E+02  0.18257144279E+03  0.16500000000E+03 0.  0.
   -5000001    1    1    2    0    0 -0.27825920449E+02 -0.55752117581E+02  0.25584911542E+02  0.17821943823E+03  0.16500000000E+03 0.  0.
<mgrwt>
<rscale>  0 0.35337965E+03</rscale>
<asrwt>0</asrwt>
<pdfrwt beam="1">  1        2 0.30967361E-01 0.35337965E+03</pdfrwt>
<pdfrwt beam="2">  1       -2 0.20574193E-01 0.35337965E+03</pdfrwt>
<totfact> 0.34031816E+03</totfact>
</mgrwt>
</event>
<event>
 4    1  0.1837449E-005  0.4005671E+03  0.7818608E-02  0.1043584E+00
         -2   -1    0    0    0  501 -0.00000000000E+00  0.00000000000E+00  0.34405029886E+02  0.34405029980E+02  0.25500000000E-02 0. -1.
          2   -1    0    0  501    0  0.00000000000E+00 -0.00000000000E+00 -0.11659193970E+04  0.11659193970E+04  0.25500000000E-02 0.  1.
    5000001    1    1    2    0    0  0.82474581260E+02 -0.68881378632E+02 -0.67552267664E+03  0.70363526599E+03  0.16500000000E+03 0.  0.
   -5000001    1    1    2    0    0 -0.82474581260E+02  0.68881378632E+02 -0.45599169048E+03  0.49668916101E+03  0.16500000000E+03 0.  0.
<mgrwt>
<rscale>  0 0.40056706E+03</rscale>
<asrwt>0</asrwt>
<pdfrwt beam="1">  1        2 0.16655989E+00 0.40056706E+03</pdfrwt>
<pdfrwt beam="2">  1       -2 0.49150050E-02 0.40056706E+03</pdfrwt>
<totfact> 0.47280037E+03</totfact>
</mgrwt>
</event>
<event>
 4    1  0.1837449E-005  0.7007488E+03  0.7818608E-02  0.9715952E-01
          2   -1    0    0  501    0  0.00000000000E+00  0.00000000000E+00  0.36182779558E+03  0.36182779559E+03  0.25500000000E-02 0.  1.
         -2   -1    0    0    0  501 -0.00000000000E+00 -0.00000000000E+00 -0.33928359910E+03  0.33928359911E+03  0.25500000000E-02 0. -1.
    5000001    1    1    2    0    0 -0.23706626846E+03 -0.14198291275E+03  0.14982722331E+03  0.35501092941E+03  0.16500000000E+03 0.  0.
   -5000001    1    1    2    0    0  0.23706626846E+03  0.14198291275E+03 -0.12728302682E+03  0.34610046529E+03  0.16500000000E+03 0.  0.
<mgrwt>
<rscale>  0 0.70074885E+03</rscale>
<asrwt>0</asrwt>
<pdfrwt beam="1">  1        2 0.51689685E-01 0.70074885E+03</pdfrwt>
<pdfrwt beam="2">  1       -2 0.48469085E-01 0.70074885E+03</pdfrwt>
<totfact> 0.39322414E+02</totfact>
</mgrwt>
</event>
<event>
 4    1  0.1837449E-005  0.5257054E+03  0.7818608E-02  0.1007279E+00
         -2   -1    0    0    0  501 -0.00000000000E+00  0.00000000000E+00  0.13110754342E+03  0.13110754345E+03  0.25500000000E-02 0. -1.
          2   -1    0    0  501    0  0.00000000000E+00 -0.00000000000E+00 -0.52698369687E+03  0.52698369688E+03  0.25500000000E-02 0.  1.
    5000001    1    1    2    0    0 -0.56108729275E+02  0.17152352902E+03 -0.77229231330E+02  0.25643296332E+03  0.16500000000E+03 0.  0.
   -5000001    1    1    2    0    0  0.56108729275E+02 -0.17152352902E+03 -0.31864692212E+03  0.40165827700E+03  0.16500000000E+03 0.  0.
<mgrwt>
<rscale>  0 0.52570538E+03</rscale>
<asrwt>0</asrwt>
<pdfrwt beam="1">  1        2 0.75283384E-01 0.52570538E+03</pdfrwt>
<pdfrwt beam="2">  1       -2 0.18729649E-01 0.52570538E+03</pdfrwt>
<totfact> 0.15095272E+03</totfact>
</mgrwt>
</event>
<event>
 4    1  0.1837449E-005  0.6255712E+03  0.7818608E-02  0.9853730E-01
          2   -1    0    0  501    0  0.00000000000E+00  0.00000000000E+00  0.73617220194E+03  0.73617220195E+03  0.25500000000E-02 0.  1.
         -2   -1    0    0    0  501 -0.00000000000E+00 -0.00000000000E+00 -0.13289665432E+03  0.13289665435E+03  0.25500000000E-02 0. -1.
    5000001    1    1    2    0    0 -0.17791217942E+03  0.14301294536E+03  0.11265827682E+03  0.30335183115E+03  0.16500000000E+03 0.  0.
   -5000001    1    1    2    0    0  0.17791217942E+03 -0.14301294536E+03  0.49061727080E+03  0.56571702514E+03  0.16500000000E+03 0.  0.
<mgrwt>
<rscale>  0 0.62557117E+03</rscale>
<asrwt>0</asrwt>
<pdfrwt beam="1">  1        2 0.10516746E+00 0.62557117E+03</pdfrwt>
<pdfrwt beam="2">  1       -2 0.18985236E-01 0.62557117E+03</pdfrwt>
<totfact> 0.99045705E+02</totfact>
</mgrwt>
</event>
<event>
 4    1  0.1837449E-005  0.5020383E+03  0.7818608E-02  0.1013248E+00
          2   -1    0    0  501    0  0.00000000000E+00  0.00000000000E+00  0.27895913436E+03  0.27895913437E+03  0.25500000000E-02 0.  1.
         -2   -1    0    0    0  501 -0.00000000000E+00 -0.00000000000E+00 -0.22587755924E+03  0.22587755926E+03  0.25500000000E-02 0. -1.
    5000001    1    1    2    0    0  0.10245167565E+03 -0.11270772010E+03 -0.86272941393E+02  0.24055643086E+03  0.16500000000E+03 0.  0.
   -5000001    1    1    2    0    0 -0.10245167565E+03  0.11270772010E+03  0.13935451651E+03  0.26428026276E+03  0.16500000000E+03 0.  0.
<mgrwt>
<rscale>  0 0.50203828E+03</rscale>
<asrwt>0</asrwt>
<pdfrwt beam="1">  1        2 0.39851305E-01 0.50203828E+03</pdfrwt>
<pdfrwt beam="2">  1       -2 0.32268223E-01 0.50203828E+03</pdfrwt>
<totfact> 0.11558957E+03</totfact>
</mgrwt>
</event>
<event>
 4    1  0.1837449E-005  0.3847547E+03  0.7818608E-02  0.1049190E+00
         -2   -1    0    0    0  501 -0.00000000000E+00  0.00000000000E+00  0.32219172831E+02  0.32219172932E+02  0.25500000000E-02 0. -1.
          2   -1    0    0  501    0  0.00000000000E+00 -0.00000000000E+00 -0.11486654679E+04  0.11486654679E+04  0.25500000000E-02 0.  1.
    5000001    1    1    2    0    0 -0.79417619052E+02  0.52602211711E+02 -0.63999846018E+03  0.66775532939E+03  0.16500000000E+03 0.  0.
   -5000001    1    1    2    0    0  0.79417619052E+02 -0.52602211711E+02 -0.47644783485E+03  0.51312931140E+03  0.16500000000E+03 0.  0.
<mgrwt>
<rscale>  0 0.38475473E+03</rscale>
<asrwt>0</asrwt>
<pdfrwt beam="1">  1        2 0.16409504E+00 0.38475473E+03</pdfrwt>
<pdfrwt beam="2">  1       -2 0.46027397E-02 0.38475473E+03</pdfrwt>
<totfact> 0.53429427E+03</totfact>
</mgrwt>
</event>
<event>
 4    1  0.1837449E-005  0.8373364E+03  0.7818608E-02  0.9507493E-01
         -2   -1    0    0    0  501 -0.00000000000E+00  0.00000000000E+00  0.16213861096E+03  0.16213861098E+03  0.25500000000E-02 0. -1.
          2   -1    0    0  501    0  0.00000000000E+00 -0.00000000000E+00 -0.10810692684E+04  0.10810692684E+04  0.25500000000E-02 0.  1.
    5000001    1    1    2    0    0  0.18640526657E+02  0.36866118828E+03 -0.62074368975E+03  0.74081459850E+03  0.16500000000E+03 0.  0.
   -5000001    1    1    2    0    0 -0.18640526657E+02 -0.36866118828E+03 -0.29818696769E+03  0.50239328089E+03  0.16500000000E+03 0.  0.
<mgrwt>
<rscale>  0 0.83733642E+03</rscale>
<asrwt>0</asrwt>
<pdfrwt beam="1">  1        2 0.15443846E+00 0.83733642E+03</pdfrwt>
<pdfrwt beam="2">  1       -2 0.23162659E-01 0.83733642E+03</pdfrwt>
<totfact> 0.41311996E+02</totfact>
</mgrwt>
</event>
<event>
 4    1  0.1837449E-005  0.4104151E+03  0.7818608E-02  0.1040232E+00
          2   -1    0    0  501    0  0.00000000000E+00  0.00000000000E+00  0.16912726980E+04  0.16912726980E+04  0.25500000000E-02 0.  1.
         -2   -1    0    0    0  501 -0.00000000000E+00 -0.00000000000E+00 -0.24898489572E+02  0.24898489703E+02  0.25500000000E-02 0. -1.
    5000001    1    1    2    0    0 -0.11238529994E+03  0.32276811671E+02  0.97881599997E+03  0.99948887439E+03  0.16500000000E+03 0.  0.
   -5000001    1    1    2    0    0  0.11238529994E+03 -0.32276811671E+02  0.68755820849E+03  0.71668231336E+03  0.16500000000E+03 0.  0.
<mgrwt>
<rscale>  0 0.41041509E+03</rscale>
<asrwt>0</asrwt>
<pdfrwt beam="1">  1        2 0.24161040E+00 0.41041509E+03</pdfrwt>
<pdfrwt beam="2">  1       -2 0.35569268E-02 0.41041509E+03</pdfrwt>
<totfact> 0.41104909E+03</totfact>
</mgrwt>
</event>
<event>
 4    1  0.1837449E-005  0.4469801E+03  0.7818608E-02  0.1028626E+00
          2   -1    0    0  501    0  0.00000000000E+00  0.00000000000E+00  0.48814449611E+03  0.48814449611E+03  0.25500000000E-02 0.  1.
         -2   -1    0    0    0  501 -0.00000000000E+00 -0.00000000000E+00 -0.10232174500E+03  0.10232174503E+03  0.25500000000E-02 0. -1.
    5000001    1    1    2    0    0  0.55073273834E+02  0.11553004239E+03  0.29811689699E+03  0.36397656581E+03  0.16500000000E+03 0.  0.
   -5000001    1    1    2    0    0 -0.55073273834E+02 -0.11553004239E+03  0.87705854116E+02  0.22648967533E+03  0.16500000000E+03 0.  0.
<mgrwt>
<rscale>  0 0.44698007E+03</rscale>
<asrwt>0</asrwt>
<pdfrwt beam="1">  1        2 0.69734928E-01 0.44698007E+03</pdfrwt>
<pdfrwt beam="2">  1       -2 0.14617392E-01 0.44698007E+03</pdfrwt>
<totfact> 0.25029275E+03</totfact>
</mgrwt>
</event>
<event>
 4    1  0.1837449E-005  0.4100373E+03  0.7818608E-02  0.1040358E+00
         -2   -1    0    0    0  501 -0.00000000000E+00  0.00000000000E+00  0.30838637188E+02  0.30838637293E+02  0.25500000000E-02 0. -1.
          2   -1    0    0  501    0  0.00000000000E+00 -0.00000000000E+00 -0.13629865693E+04  0.13629865693E+04  0.25500000000E-02 0.  1.
    5000001    1    1    2    0    0 -0.70649996320E+02  0.76880532053E+02 -0.45363734322E+03  0.49387637861E+03  0.16500000000E+03 0.  0.
   -5000001    1    1    2    0    0  0.70649996320E+02 -0.76880532053E+02 -0.87851058886E+03  0.89994882795E+03  0.16500000000E+03 0.  0.
<mgrwt>
<rscale>  0 0.41003731E+03</rscale>
<asrwt>0</asrwt>
<pdfrwt beam="1">  1        2 0.19471233E+00 0.41003731E+03</pdfrwt>
<pdfrwt beam="2">  1       -2 0.44055205E-02 0.41003731E+03</pdfrwt>
<totfact> 0.43733116E+03</totfact>
</mgrwt>
</event>
<event>
 4    1  0.1837449E-005  0.4050227E+03  0.7818608E-02  0.1042054E+00
          2   -1    0    0  501    0  0.00000000000E+00  0.00000000000E+00  0.13185820071E+04  0.13185820071E+04  0.25500000000E-02 0.  1.
         -2   -1    0    0    0  501 -0.00000000000E+00 -0.00000000000E+00 -0.31102238292E+02  0.31102238397E+02  0.25500000000E-02 0. -1.
    5000001    1    1    2    0    0  0.77275313437E+02 -0.86853484347E+02  0.58889738350E+03  0.62252721234E+03  0.16500000000E+03 0.  0.
   -5000001    1    1    2    0    0 -0.77275313437E+02  0.86853484347E+02  0.69858238527E+03  0.72715703312E+03  0.16500000000E+03 0.  0.
<mgrwt>
<rscale>  0 0.40502272E+03</rscale>
<asrwt>0</asrwt>
<pdfrwt beam="1">  1        2 0.18836885E+00 0.40502272E+03</pdfrwt>
<pdfrwt beam="2">  1       -2 0.44431771E-02 0.40502272E+03</pdfrwt>
<totfact> 0.45569371E+03</totfact>
</mgrwt>
</event>
<event>
 4    1  0.1837449E-005  0.3631952E+03  0.7818608E-02  0.1057326E+00
          2   -1    0    0  501    0  0.00000000000E+00  0.00000000000E+00  0.44036843268E+03  0.44036843269E+03  0.25500000000E-02 0.  1.
         -2   -1    0    0    0  501 -0.00000000000E+00 -0.00000000000E+00 -0.74886587491E+02  0.74886587534E+02  0.25500000000E-02 0. -1.
    5000001    1    1    2    0    0  0.26818451498E+02 -0.58230256010E+02  0.24023999967E+03  0.29841288427E+03  0.16500000000E+03 0.  0.
   -5000001    1    1    2    0    0 -0.26818451498E+02  0.58230256010E+02  0.12524184552E+03  0.21684213595E+03  0.16500000000E+03 0.  0.
<mgrwt>
<rscale>  0 0.36319520E+03</rscale>
<asrwt>0</asrwt>
<pdfrwt beam="1">  1        2 0.62909775E-01 0.36319520E+03</pdfrwt>
<pdfrwt beam="2">  1       -2 0.10698084E-01 0.36319520E+03</pdfrwt>
<totfact> 0.46625636E+03</totfact>
</mgrwt>
</event>
<event>
 4    1  0.1837449E-005  0.7161654E+03  0.7818608E-02  0.9689980E-01
         -2   -1    0    0    0  501 -0.00000000000E+00  0.00000000000E+00  0.62518057651E+02  0.62518057703E+02  0.25500000000E-02 0. -1.
          2   -1    0    0  501    0  0.00000000000E+00 -0.00000000000E+00 -0.20509792209E+04  0.20509792209E+04  0.25500000000E-02 0.  1.
    5000001    1    1    2    0    0  0.13032615048E+03  0.22499765072E+03 -0.15334835743E+04  0.15640990125E+04  0.16500000000E+03 0.  0.
   -5000001    1    1    2    0    0 -0.13032615048E+03 -0.22499765072E+03 -0.45497758895E+03  0.54939826608E+03  0.16500000000E+03 0.  0.
<mgrwt>
<rscale>  0 0.71616545E+03</rscale>
<asrwt>0</asrwt>
<pdfrwt beam="1">  1        2 0.29299699E+00 0.71616545E+03</pdfrwt>
<pdfrwt beam="2">  1       -2 0.89311524E-02 0.71616545E+03</pdfrwt>
<totfact> 0.63700026E+02</totfact>
</mgrwt>
</event>
<event>
 4    1  0.1837449E-005  0.4142854E+03  0.7818608E-02  0.1038942E+00
         -2   -1    0    0    0  501 -0.00000000000E+00  0.00000000000E+00  0.65335810567E+02  0.65335810617E+02  0.25500000000E-02 0. -1.
          2   -1    0    0  501    0  0.00000000000E+00 -0.00000000000E+00 -0.65673181591E+03  0.65673181591E+03  0.25500000000E-02 0.  1.
    5000001    1    1    2    0    0  0.12463484641E+03  0.11921432140E+02 -0.29104075919E+03  0.35721938496E+03  0.16500000000E+03 0.  0.
   -5000001    1    1    2    0    0 -0.12463484641E+03 -0.11921432140E+02 -0.30035524616E+03  0.36484824157E+03  0.16500000000E+03 0.  0.
<mgrwt>
<rscale>  0 0.41428544E+03</rscale>
<asrwt>0</asrwt>
<pdfrwt beam="1">  1        2 0.93818827E-01 0.41428544E+03</pdfrwt>
<pdfrwt beam="2">  1       -2 0.93336876E-02 0.41428544E+03</pdfrwt>
<totfact> 0.36934618E+03</totfact>
</mgrwt>
</event>
<event>
 4    1  0.1837449E-005  0.6848020E+03  0.7818608E-02  0.9743582E-01
          2   -1    0    0  501    0  0.00000000000E+00  0.00000000000E+00  0.58551199101E+03  0.58551199102E+03  0.25500000000E-02 0.  1.
         -2   -1    0    0    0  501 -0.00000000000E+00 -0.00000000000E+00 -0.20023235946E+03  0.20023235948E+03  0.25500000000E-02 0. -1.
    5000001    1    1    2    0    0 -0.20189321859E+03 -0.17098592246E+03  0.30305954075E+02  0.31327385503E+03  0.16500000000E+03 0.  0.
   -5000001    1    1    2    0    0  0.20189321859E+03  0.17098592246E+03  0.35497367747E+03  0.47247049547E+03  0.16500000000E+03 0.  0.
<mgrwt>
<rscale>  0 0.68480201E+03</rscale>
<asrwt>0</asrwt>
<pdfrwt beam="1">  1        2 0.83644571E-01 0.68480201E+03</pdfrwt>
<pdfrwt beam="2">  1       -2 0.28604622E-01 0.68480201E+03</pdfrwt>
<totfact> 0.62821334E+02</totfact>
</mgrwt>
</event>
<event>
 4    1  0.1837449E-005  0.4480918E+03  0.7818608E-02  0.1028293E+00
         -2   -1    0    0    0  501 -0.00000000000E+00  0.00000000000E+00  0.49762920635E+02  0.49762920700E+02  0.25500000000E-02 0. -1.
          2   -1    0    0  501    0  0.00000000000E+00 -0.00000000000E+00 -0.10087141913E+04  0.10087141913E+04  0.25500000000E-02 0.  1.
    5000001    1    1    2    0    0  0.12416393344E+03 -0.74892003719E+02 -0.37526940775E+03  0.43483056813E+03  0.16500000000E+03 0.  0.
   -5000001    1    1    2    0    0 -0.12416393344E+03  0.74892003719E+02 -0.58368186291E+03  0.62364654386E+03  0.16500000000E+03 0.  0.
<mgrwt>
<rscale>  0 0.44809180E+03</rscale>
<asrwt>0</asrwt>
<pdfrwt beam="1">  1        2 0.14410201E+00 0.44809180E+03</pdfrwt>
<pdfrwt beam="2">  1       -2 0.71089893E-02 0.44809180E+03</pdfrwt>
<totfact> 0.32895299E+03</totfact>
</mgrwt>
</event>
<event>
 4    1  0.1837449E-005  0.9466544E+03  0.7818608E-02  0.9369070E-01
         -2   -1    0    0    0  501 -0.00000000000E+00  0.00000000000E+00  0.11150721978E+03  0.11150721981E+03  0.25500000000E-02 0. -1.
          2   -1    0    0  501    0  0.00000000000E+00 -0.00000000000E+00 -0.20091851786E+04  0.20091851786E+04  0.25500000000E-02 0.  1.
    5000001    1    1    2    0    0 -0.19677601909E+03  0.36206660503E+03 -0.58073279226E+03  0.73095047997E+03  0.16500000000E+03 0.  0.
   -5000001    1    1    2    0    0  0.19677601909E+03 -0.36206660503E+03 -0.13169451665E+04  0.13897419184E+04  0.16500000000E+03 0.  0.
<mgrwt>
<rscale>  0 0.94665443E+03</rscale>
<asrwt>0</asrwt>
<pdfrwt beam="1">  1        2 0.28702643E+00 0.94665443E+03</pdfrwt>
<pdfrwt beam="2">  1       -2 0.15929604E-01 0.94665443E+03</pdfrwt>
<totfact> 0.25257043E+02</totfact>
</mgrwt>
</event>
<event>
 4    1  0.1837449E-005  0.8282615E+03  0.7818608E-02  0.9519987E-01
          2   -1    0    0  501    0  0.00000000000E+00  0.00000000000E+00  0.44647846179E+03  0.44647846180E+03  0.25500000000E-02 0.  1.
         -2   -1    0    0    0  501 -0.00000000000E+00 -0.00000000000E+00 -0.38412669447E+03  0.38412669448E+03  0.25500000000E-02 0. -1.
    5000001    1    1    2    0    0 -0.20818839938E+03  0.31692696441E+03  0.88827033304E+01  0.41362907638E+03  0.16500000000E+03 0.  0.
   -5000001    1    1    2    0    0  0.20818839938E+03 -0.31692696441E+03  0.53469063986E+02  0.41697607990E+03  0.16500000000E+03 0.  0.
<mgrwt>
<rscale>  0 0.82826154E+03</rscale>
<asrwt>0</asrwt>
<pdfrwt beam="1">  1        2 0.63782637E-01 0.82826154E+03</pdfrwt>
<pdfrwt beam="2">  1       -2 0.54875242E-01 0.82826154E+03</pdfrwt>
<totfact> 0.24005599E+02</totfact>
</mgrwt>
</event>
<event>
 4    1  0.1837449E-005  0.5675365E+03  0.7818608E-02  0.9975145E-01
          2   -1    0    0  501    0  0.00000000000E+00  0.00000000000E+00  0.10268787674E+04  0.10268787674E+04  0.25500000000E-02 0.  1.
         -2   -1    0    0    0  501 -0.00000000000E+00 -0.00000000000E+00 -0.78416663444E+02  0.78416663486E+02  0.25500000000E-02 0. -1.
    5000001    1    1    2    0    0 -0.11469571521E+03  0.11653975019E+03  0.15682045197E+03  0.28027535500E+03  0.16500000000E+03 0.  0.
   -5000001    1    1    2    0    0  0.11469571521E+03 -0.11653975019E+03  0.79164165197E+03  0.82502007588E+03  0.16500000000E+03 0.  0.
<mgrwt>
<rscale>  0 0.56753645E+03</rscale>
<asrwt>0</asrwt>
<pdfrwt beam="1">  1        2 0.14669696E+00 0.56753645E+03</pdfrwt>
<pdfrwt beam="2">  1       -2 0.11202381E-01 0.56753645E+03</pdfrwt>
<totfact> 0.15483427E+03</totfact>
</mgrwt>
</event>
<event>
 4    1  0.1837449E-005  0.4988452E+03  0.7818608E-02  0.1014081E+00
         -2   -1    0    0    0  501 -0.00000000000E+00  0.00000000000E+00  0.25975483696E+02  0.25975483821E+02  0.25500000000E-02 0.  1.
          2   -1    0    0  501    0  0.00000000000E+00 -0.00000000000E+00 -0.23950130413E+04  0.23950130413E+04  0.25500000000E-02 0. -1.
    5000001    1    1    2    0    0 -0.10422951903E+03  0.15455760568E+03 -0.12588812907E+04  0.12832610608E+04  0.16500000000E+03 0.  0.
   -5000001    1    1    2    0    0  0.10422951903E+03 -0.15455760568E+03 -0.11101562670E+04  0.11377274644E+04  0.16500000000E+03 0.  0.
<mgrwt>
<rscale>  0 0.49884516E+03</rscale>
<asrwt>0</asrwt>
<pdfrwt beam="1">  1        2 0.34214458E+00 0.49884516E+03</pdfrwt>
<pdfrwt beam="2">  1       -2 0.37107849E-02 0.49884516E+03</pdfrwt>
<totfact> 0.17107663E+03</totfact>
</mgrwt>
</event>
<event>
 4    1  0.1837449E-005  0.1000510E+04  0.7818608E-02  0.9307985E-01
          2   -1    0    0  501    0  0.00000000000E+00  0.00000000000E+00  0.12591828811E+04  0.12591828811E+04  0.25500000000E-02 0.  1.
         -2   -1    0    0    0  501 -0.00000000000E+00 -0.00000000000E+00 -0.19874410563E+03  0.19874410564E+03  0.25500000000E-02 0. -1.
    5000001    1    1    2    0    0  0.22870708138E+03 -0.39134195860E+03  0.72339772629E+03  0.86947382252E+03  0.16500000000E+03 0.  0.
   -5000001    1    1    2    0    0 -0.22870708138E+03  0.39134195860E+03  0.33704104914E+03  0.58845316418E+03  0.16500000000E+03 0.  0.
<mgrwt>
<rscale>  0 0.10005102E+04</rscale>
<asrwt>0</asrwt>
<pdfrwt beam="1">  1        2 0.17988326E+00 0.10005102E+04</pdfrwt>
<pdfrwt beam="2">  1       -2 0.28392016E-01 0.10005102E+04</pdfrwt>
<totfact> 0.22375625E+02</totfact>
</mgrwt>
</event>
<event>
 4    1  0.1837449E-005  0.4653136E+03  0.7818608E-02  0.1023251E+00
          2   -1    0    0  501    0  0.00000000000E+00  0.00000000000E+00  0.18428819847E+03  0.18428819849E+03  0.25500000000E-02 0.  1.
         -2   -1    0    0    0  501 -0.00000000000E+00 -0.00000000000E+00 -0.29372033250E+03  0.29372033251E+03  0.25500000000E-02 0. -1.
    5000001    1    1    2    0    0 -0.12767871348E+03  0.93768524052E+02 -0.98418467317E+02  0.24900920603E+03  0.16500000000E+03 0.  0.
   -5000001    1    1    2    0    0  0.12767871348E+03 -0.93768524052E+02 -0.11013666711E+02  0.22899932496E+03  0.16500000000E+03 0.  0.
<mgrwt>
<rscale>  0 0.46531362E+03</rscale>
<asrwt>0</asrwt>
<pdfrwt beam="1">  1        2 0.26326886E-01 0.46531362E+03</pdfrwt>
<pdfrwt beam="2">  1       -2 0.41960047E-01 0.46531362E+03</pdfrwt>
<totfact> 0.11113645E+03</totfact>
</mgrwt>
</event>
<event>
 4    1  0.1837449E-005  0.4633743E+03  0.7818608E-02  0.1023807E+00
         -2   -1    0    0    0  501 -0.00000000000E+00  0.00000000000E+00  0.41280138540E+03  0.41280138541E+03  0.25500000000E-02 0. -1.
          2   -1    0    0  501    0  0.00000000000E+00 -0.00000000000E+00 -0.13003574831E+03  0.13003574833E+03  0.25500000000E-02 0.  1.
    5000001    1    1    2    0    0  0.99366106462E+02 -0.12456729600E+03  0.10318258125E+03  0.25151993842E+03  0.16500000000E+03 0.  0.
   -5000001    1    1    2    0    0 -0.99366106462E+02  0.12456729600E+03  0.17958305584E+03  0.29131719533E+03  0.16500000000E+03 0.  0.
<mgrwt>
<rscale>  0 0.46337431E+03</rscale>
<asrwt>0</asrwt>
<pdfrwt beam="1">  1        2 0.18576536E-01 0.46337431E+03</pdfrwt>
<pdfrwt beam="2">  1       -2 0.58971626E-01 0.46337431E+03</pdfrwt>
<totfact> 0.83601383E+02</totfact>
</mgrwt>
</event>
<event>
 4    1  0.1837449E-005  0.5044687E+03  0.7818608E-02  0.1012619E+00
         -2   -1    0    0    0  501 -0.00000000000E+00  0.00000000000E+00  0.43961289485E+02  0.43961289559E+02  0.25500000000E-02 0. -1.
          2   -1    0    0  501    0  0.00000000000E+00 -0.00000000000E+00 -0.14472316975E+04  0.14472316975E+04  0.25500000000E-02 0.  1.
    5000001    1    1    2    0    0  0.51279255158E+02 -0.18179020098E+03 -0.62232199967E+03  0.67095969362E+03  0.16500000000E+03 0.  0.
   -5000001    1    1    2    0    0 -0.51279255158E+02  0.18179020098E+03 -0.78094840834E+03  0.82023329345E+03  0.16500000000E+03 0.  0.
<mgrwt>
<rscale>  0 0.50446872E+03</rscale>
<asrwt>0</asrwt>
<pdfrwt beam="1">  1        2 0.20674736E+00 0.50446872E+03</pdfrwt>
<pdfrwt beam="2">  1       -2 0.62801851E-02 0.50446872E+03</pdfrwt>
<totfact> 0.22827273E+03</totfact>
</mgrwt>
</event>
<event>
 4    1  0.1837449E-005  0.5926499E+03  0.7818608E-02  0.9920774E-01
          2   -1    0    0  501    0  0.00000000000E+00  0.00000000000E+00  0.24765419817E+04  0.24765419817E+04  0.25500000000E-02 0.  1.
         -2   -1    0    0    0  501 -0.00000000000E+00 -0.00000000000E+00 -0.35456084170E+02  0.35456084262E+02  0.25500000000E-02 0. -1.
    5000001    1    1    2    0    0 -0.12443713234E+01  0.18672803968E+03  0.19002326996E+04  0.19165015581E+04  0.16500000000E+03 0.  0.
   -5000001    1    1    2    0    0  0.12443713234E+01 -0.18672803968E+03  0.54085319792E+03  0.59549650793E+03  0.16500000000E+03 0.  0.
<mgrwt>
<rscale>  0 0.59264992E+03</rscale>
<asrwt>0</asrwt>
<pdfrwt beam="1">  1        2 0.35379182E+00 0.59264992E+03</pdfrwt>
<pdfrwt beam="2">  1       -2 0.50651533E-02 0.59264992E+03</pdfrwt>
<totfact> 0.95745303E+02</totfact>
</mgrwt>
</event>
<event>
 4    1  0.1837449E-005  0.5549495E+03  0.7818608E-02  0.1000355E+00
          2   -1    0    0  501    0  0.00000000000E+00  0.00000000000E+00  0.22650884393E+04  0.22650884393E+04  0.25500000000E-02 0.  1.
         -2   -1    0    0    0  501 -0.00000000000E+00 -0.00000000000E+00 -0.33990830709E+02  0.33990830805E+02  0.25500000000E-02 0. -1.
    5000001    1    1    2    0    0  0.20916932765E+03 -0.63607273121E+02  0.93169042434E+03  0.97111777846E+03  0.16500000000E+03 0.  0.
   -5000001    1    1    2    0    0 -0.20916932765E+03  0.63607273121E+02  0.12994071842E+04  0.13279614916E+04  0.16500000000E+03 0.  0.
<mgrwt>
<rscale>  0 0.55494950E+03</rscale>
<asrwt>0</asrwt>
<pdfrwt beam="1">  1        2 0.32358415E+00 0.55494950E+03</pdfrwt>
<pdfrwt beam="2">  1       -2 0.48558317E-02 0.55494950E+03</pdfrwt>
<totfact> 0.13120694E+03</totfact>
</mgrwt>
</event>
<event>
 4    1  0.1837449E-005  0.6434781E+03  0.7818608E-02  0.9819095E-01
          2   -1    0    0  501    0  0.00000000000E+00  0.00000000000E+00  0.39200978188E+03  0.39200978189E+03  0.25500000000E-02 0.  1.
         -2   -1    0    0    0  501 -0.00000000000E+00 -0.00000000000E+00 -0.26406486281E+03  0.26406486282E+03  0.25500000000E-02 0. -1.
    5000001    1    1    2    0    0  0.15713169538E+03  0.22435910400E+03  0.27728986094E+02  0.32096927253E+03  0.16500000000E+03 0.  0.
   -5000001    1    1    2    0    0 -0.15713169538E+03 -0.22435910400E+03  0.10021593297E+03  0.33510537218E+03  0.16500000000E+03 0.  0.
<mgrwt>
<rscale>  0 0.64347808E+03</rscale>
<asrwt>0</asrwt>
<pdfrwt beam="1">  1        2 0.56001397E-01 0.64347808E+03</pdfrwt>
<pdfrwt beam="2">  1       -2 0.37723552E-01 0.64347808E+03</pdfrwt>
<totfact> 0.59008425E+02</totfact>
</mgrwt>
</event>
<event>
 4    1  0.1837449E-005  0.4702650E+03  0.7818608E-02  0.1021845E+00
         -2   -1    0    0    0  501 -0.00000000000E+00  0.00000000000E+00  0.25961076415E+02  0.25961076541E+02  0.25500000000E-02 0. -1.
          2   -1    0    0  501    0  0.00000000000E+00 -0.00000000000E+00 -0.21296227731E+04  0.21296227731E+04  0.25500000000E-02 0.  1.
    5000001    1    1    2    0    0 -0.14693220871E+03 -0.64168496975E+02 -0.12743030480E+04  0.12949053742E+04  0.16500000000E+03 0.  0.
   -5000001    1    1    2    0    0  0.14693220871E+03  0.64168496975E+02 -0.82935864872E+03  0.86067847549E+03  0.16500000000E+03 0.  0.
<mgrwt>
<rscale>  0 0.47026503E+03</rscale>
<asrwt>0</asrwt>
<pdfrwt beam="1">  1        2 0.30423171E+00 0.47026503E+03</pdfrwt>
<pdfrwt beam="2">  1       -2 0.37087266E-02 0.47026503E+03</pdfrwt>
<totfact> 0.23299256E+03</totfact>
</mgrwt>
</event>
<event>
 4    1  0.1837449E-005  0.4055227E+03  0.7818608E-02  0.1041884E+00
          2   -1    0    0  501    0  0.00000000000E+00  0.00000000000E+00  0.94940530554E+03  0.94940530554E+03  0.25500000000E-02 0.  1.
         -2   -1    0    0    0  501 -0.00000000000E+00 -0.00000000000E+00 -0.43303068331E+02  0.43303068406E+02  0.25500000000E-02 0. -1.
    5000001    1    1    2    0    0  0.11130723328E+03 -0.11902867707E+02  0.36290108301E+03  0.41406904556E+03  0.16500000000E+03 0.  0.
   -5000001    1    1    2    0    0 -0.11130723328E+03  0.11902867707E+02  0.54320115419E+03  0.57863932839E+03  0.16500000000E+03 0.  0.
<mgrwt>
<rscale>  0 0.40552269E+03</rscale>
<asrwt>0</asrwt>
<pdfrwt beam="1">  1        2 0.13562933E+00 0.40552269E+03</pdfrwt>
<pdfrwt beam="2">  1       -2 0.61861526E-02 0.40552269E+03</pdfrwt>
<totfact> 0.44376463E+03</totfact>
</mgrwt>
</event>
<event>
 4    1  0.1837449E-005  0.4828876E+03  0.7818608E-02  0.1018345E+00
          2   -1    0    0  501    0  0.00000000000E+00  0.00000000000E+00  0.61321492440E+03  0.61321492440E+03  0.25500000000E-02 0.  1.
         -2   -1    0    0    0  501 -0.00000000000E+00 -0.00000000000E+00 -0.95064716548E+02  0.95064716582E+02  0.25500000000E-02 0. -1.
    5000001    1    1    2    0    0 -0.16831197865E+03 -0.26342364707E+02  0.19270915701E+03  0.30558904027E+03  0.16500000000E+03 0.  0.
   -5000001    1    1    2    0    0  0.16831197865E+03  0.26342364707E+02  0.32544105084E+03  0.40269060072E+03  0.16500000000E+03 0.  0.
<mgrwt>
<rscale>  0 0.48288758E+03</rscale>
<asrwt>0</asrwt>
<pdfrwt beam="1">  1        2 0.87602132E-01 0.48288758E+03</pdfrwt>
<pdfrwt beam="2">  1       -2 0.13580674E-01 0.48288758E+03</pdfrwt>
<totfact> 0.21793798E+03</totfact>
</mgrwt>
</event>
<event>
 4    1  0.1837449E-005  0.4737140E+03  0.7818608E-02  0.1020877E+00
          2   -1    0    0  501    0  0.00000000000E+00  0.00000000000E+00  0.69036505780E+03  0.69036505780E+03  0.25500000000E-02 0.  1.
         -2   -1    0    0    0  501 -0.00000000000E+00 -0.00000000000E+00 -0.81263142332E+02  0.81263142372E+02  0.25500000000E-02 0. -1.
    5000001    1    1    2    0    0  0.37095664577E+01  0.10854899821E+03  0.51742886130E+03  0.55385401723E+03  0.16500000000E+03 0.  0.
   -5000001    1    1    2    0    0 -0.37095664577E+01 -0.10854899821E+03  0.91673054167E+02  0.21777418294E+03  0.16500000000E+03 0.  0.
<mgrwt>
<rscale>  0 0.47371398E+03</rscale>
<asrwt>0</asrwt>
<pdfrwt beam="1">  1        2 0.98623579E-01 0.47371398E+03</pdfrwt>
<pdfrwt beam="2">  1       -2 0.11609020E-01 0.47371398E+03</pdfrwt>
<totfact> 0.24495301E+03</totfact>
</mgrwt>
</event>
<event>
 4    1  0.1837449E-005  0.3743880E+03  0.7818608E-02  0.1053028E+00
         -2   -1    0    0    0  501 -0.00000000000E+00  0.00000000000E+00  0.12505443468E+02  0.12505443728E+02  0.25500000000E-02 0. -1.
          2   -1    0    0  501    0  0.00000000000E+00 -0.00000000000E+00 -0.28021068518E+04  0.28021068518E+04  0.25500000000E-02 0.  1.
    5000001    1    1    2    0    0 -0.82290240907E+01  0.84863692331E+02 -0.12189675752E+04  0.12330354871E+04  0.16500000000E+03 0.  0.
   -5000001    1    1    2    0    0  0.82290240907E+01 -0.84863692331E+02 -0.15706338332E+04  0.15815768085E+04  0.16500000000E+03 0.  0.
<mgrwt>
<rscale>  0 0.37438798E+03</rscale>
<asrwt>0</asrwt>
<pdfrwt beam="1">  1        2 0.40030058E+00 0.37438798E+03</pdfrwt>
<pdfrwt beam="2">  1       -2 0.17864937E-02 0.37438798E+03</pdfrwt>
<totfact> 0.31954845E+03</totfact>
</mgrwt>
</event>
<event>
 4    1  0.1837449E-005  0.5945049E+03  0.7818608E-02  0.9916873E-01
          2   -1    0    0  501    0  0.00000000000E+00  0.00000000000E+00  0.19773362033E+03  0.19773362035E+03  0.25500000000E-02 0.  1.
         -2   -1    0    0    0  501 -0.00000000000E+00 -0.00000000000E+00 -0.44685883243E+03  0.44685883244E+03  0.25500000000E-02 0. -1.
    5000001    1    1    2    0    0 -0.14584245837E+03 -0.11811195380E+03  0.49976728313E+02  0.25483941937E+03  0.16500000000E+03 0.  0.
   -5000001    1    1    2    0    0  0.14584245837E+03  0.11811195380E+03 -0.29910194041E+03  0.38975303341E+03  0.16500000000E+03 0.  0.
<mgrwt>
<rscale>  0 0.59450489E+03</rscale>
<asrwt>0</asrwt>
<pdfrwt beam="1">  1        2 0.28247660E-01 0.59450489E+03</pdfrwt>
<pdfrwt beam="2">  1       -2 0.63836976E-01 0.59450489E+03</pdfrwt>
<totfact> 0.43635224E+02</totfact>
</mgrwt>
</event>
<event>
 4    1  0.1837449E-005  0.9865900E+03  0.7818608E-02  0.9323376E-01
          2   -1    0    0  501    0  0.00000000000E+00  0.00000000000E+00  0.56371410171E+03  0.56371410172E+03  0.25500000000E-02 0.  1.
         -2   -1    0    0    0  501 -0.00000000000E+00 -0.00000000000E+00 -0.43167265639E+03  0.43167265640E+03  0.25500000000E-02 0. -1.
    5000001    1    1    2    0    0  0.29509324221E+03 -0.31119811729E+03 -0.11499661715E+03  0.47368081211E+03  0.16500000000E+03 0.  0.
   -5000001    1    1    2    0    0 -0.29509324221E+03  0.31119811729E+03  0.24703806247E+03  0.52170594602E+03  0.16500000000E+03 0.  0.
<mgrwt>
<rscale>  0 0.98659001E+03</rscale>
<asrwt>0</asrwt>
<pdfrwt beam="1">  1        2 0.80530586E-01 0.98659001E+03</pdfrwt>
<pdfrwt beam="2">  1       -2 0.61667522E-01 0.98659001E+03</pdfrwt>
<totfact> 0.14268740E+02</totfact>
</mgrwt>
</event>
<event>
 4    1  0.1837449E-005  0.5492606E+03  0.7818608E-02  0.1001665E+00
         -2   -1    0    0    0  501 -0.00000000000E+00  0.00000000000E+00  0.12267780444E+04  0.12267780444E+04  0.25500000000E-02 0. -1.
          2   -1    0    0  501    0  0.00000000000E+00 -0.00000000000E+00 -0.61479571457E+02  0.61479571510E+02  0.25500000000E-02 0.  1.
    5000001    1    1    2    0    0 -0.19958099286E+03  0.89858952906E+02  0.54273646766E+03  0.60802555658E+03  0.16500000000E+03 0.  0.
   -5000001    1    1    2    0    0  0.19958099286E+03 -0.89858952906E+02  0.62256200533E+03  0.68023205938E+03  0.16500000000E+03 0.  0.
<mgrwt>
<rscale>  0 0.54926055E+03</rscale>
<asrwt>0</asrwt>
<pdfrwt beam="1">  1        2 0.87827960E-02 0.54926055E+03</pdfrwt>
<pdfrwt beam="2">  1       -2 0.17525400E+00 0.54926055E+03</pdfrwt>
<totfact> 0.15691590E+02</totfact>
</mgrwt>
</event>
<event>
 4    1  0.1837449E-005  0.5197222E+03  0.7818608E-02  0.1008756E+00
          2   -1    0    0  501    0  0.00000000000E+00  0.00000000000E+00  0.57985972238E+03  0.57985972239E+03  0.25500000000E-02 0.  1.
         -2   -1    0    0    0  501 -0.00000000000E+00 -0.00000000000E+00 -0.11645539211E+03  0.11645539213E+03  0.25500000000E-02 0. -1.
    5000001    1    1    2    0    0 -0.11447656698E+03  0.70226184673E+02  0.31781582536E+02  0.21510850841E+03  0.16500000000E+03 0.  0.
   -5000001    1    1    2    0    0  0.11447656698E+03 -0.70226184673E+02  0.43162274774E+03  0.48120660611E+03  0.16500000000E+03 0.  0.
<mgrwt>
<rscale>  0 0.51972220E+03</rscale>
<asrwt>0</asrwt>
<pdfrwt beam="1">  1        2 0.82837103E-01 0.51972220E+03</pdfrwt>
<pdfrwt beam="2">  1       -2 0.16636485E-01 0.51972220E+03</pdfrwt>
<totfact> 0.16556228E+03</totfact>
</mgrwt>
</event>
<event>
 4    1  0.1837449E-005  0.5870948E+03  0.7818608E-02  0.9932548E-01
         -2   -1    0    0    0  501 -0.00000000000E+00  0.00000000000E+00  0.53313067863E+03  0.53313067864E+03  0.25500000000E-02 0. -1.
          2   -1    0    0  501    0  0.00000000000E+00 -0.00000000000E+00 -0.16163030901E+03  0.16163030903E+03  0.25500000000E-02 0.  1.
    5000001    1    1    2    0    0  0.20178879938E+03  0.80638963110E+02  0.57617535860E+02  0.27886581427E+03  0.16500000000E+03 0.  0.
   -5000001    1    1    2    0    0 -0.20178879938E+03 -0.80638963110E+02  0.31388283376E+03  0.41589517340E+03  0.16500000000E+03 0.  0.
<mgrwt>
<rscale>  0 0.58709480E+03</rscale>
<asrwt>0</asrwt>
<pdfrwt beam="1">  1        2 0.23090044E-01 0.58709480E+03</pdfrwt>
<pdfrwt beam="2">  1       -2 0.76161525E-01 0.58709480E+03</pdfrwt>
<totfact> 0.37439163E+02</totfact>
</mgrwt>
</event>
<event>
 4    1  0.1837449E-005  0.5130527E+03  0.7818608E-02  0.1010427E+00
          2   -1    0    0  501    0  0.00000000000E+00  0.00000000000E+00  0.70574121071E+02  0.70574121117E+02  0.25500000000E-02 0.  1.
         -2   -1    0    0    0  501 -0.00000000000E+00 -0.00000000000E+00 -0.93243497111E+03  0.93243497111E+03  0.25500000000E-02 0. -1.
    5000001    1    1    2    0    0 -0.15646953692E+03 -0.74694411950E+02 -0.61137019228E+03  0.65655196532E+03  0.16500000000E+03 0.  0.
   -5000001    1    1    2    0    0  0.15646953692E+03  0.74694411950E+02 -0.25049065776E+03  0.34645712691E+03  0.16500000000E+03 0.  0.
<mgrwt>
<rscale>  0 0.51305274E+03</rscale>
<asrwt>0</asrwt>
<pdfrwt beam="1">  1        2 0.10082018E-01 0.51305274E+03</pdfrwt>
<pdfrwt beam="2">  1       -2 0.13320499E+00 0.51305274E+03</pdfrwt>
<totfact> 0.27240243E+02</totfact>
</mgrwt>
</event>
<event>
 4    1  0.1837449E-005  0.8834319E+03  0.7818608E-02  0.9446533E-01
         -2   -1    0    0    0  501 -0.00000000000E+00  0.00000000000E+00  0.20633468048E+03  0.20633468050E+03  0.25500000000E-02 0. -1.
          2   -1    0    0  501    0  0.00000000000E+00 -0.00000000000E+00 -0.94561400681E+03  0.94561400681E+03  0.25500000000E-02 0.  1.
    5000001    1    1    2    0    0  0.19318578534E+03 -0.35050332825E+03 -0.25511007052E+03  0.50247336134E+03  0.16500000000E+03 0.  0.
   -5000001    1    1    2    0    0 -0.19318578534E+03  0.35050332825E+03 -0.48416925581E+03  0.64947532597E+03  0.16500000000E+03 0.  0.
<mgrwt>
<rscale>  0 0.88343186E+03</rscale>
<asrwt>0</asrwt>
<pdfrwt beam="1">  1        2 0.13508771E+00 0.88343186E+03</pdfrwt>
<pdfrwt beam="2">  1       -2 0.29476383E-01 0.88343186E+03</pdfrwt>
<totfact> 0.32198080E+02</totfact>
</mgrwt>
</event>
<event>
 4    1  0.1837449E-005  0.9949690E+03  0.7818608E-02  0.9314080E-01
          2   -1    0    0  501    0  0.00000000000E+00  0.00000000000E+00  0.68830351276E+03  0.68830351276E+03  0.25500000000E-02 0.  1.
         -2   -1    0    0    0  501 -0.00000000000E+00 -0.00000000000E+00 -0.35956645271E+03  0.35956645272E+03  0.25500000000E-02 0. -1.
    5000001    1    1    2    0    0  0.35564695894E+03 -0.19915170362E+03  0.40937383012E+03  0.60079788053E+03  0.16500000000E+03 0.  0.
   -5000001    1    1    2    0    0 -0.35564695894E+03  0.19915170362E+03 -0.80636770072E+02  0.44707208495E+03  0.16500000000E+03 0.  0.
<mgrwt>
<rscale>  0 0.99496905E+03</rscale>
<asrwt>0</asrwt>
<pdfrwt beam="1">  1        2 0.98329073E-01 0.99496905E+03</pdfrwt>
<pdfrwt beam="2">  1       -2 0.51366636E-01 0.99496905E+03</pdfrwt>
<totfact> 0.16431805E+02</totfact>
</mgrwt>
</event>
<event>
 4    1  0.1837449E-005  0.9710832E+03  0.7818608E-02  0.9340841E-01
         -2   -1    0    0    0  501 -0.00000000000E+00  0.00000000000E+00  0.88294235327E+03  0.88294235327E+03  0.25500000000E-02 0. -1.
          2   -1    0    0  501    0  0.00000000000E+00 -0.00000000000E+00 -0.26700568134E+03  0.26700568135E+03  0.25500000000E-02 0.  1.
    5000001    1    1    2    0    0 -0.18741389333E+03  0.38224212367E+03  0.11233431699E+03  0.47018826792E+03  0.16500000000E+03 0.  0.
   -5000001    1    1    2    0    0  0.18741389333E+03 -0.38224212367E+03  0.50360235494E+03  0.67975976670E+03  0.16500000000E+03 0.  0.
<mgrwt>
<rscale>  0 0.97108316E+03</rscale>
<asrwt>0</asrwt>
<pdfrwt beam="1">  1        2 0.38143669E-01 0.97108316E+03</pdfrwt>
<pdfrwt beam="2">  1       -2 0.12613462E+00 0.97108316E+03</pdfrwt>
<totfact> 0.63652596E+01</totfact>
</mgrwt>
</event>
<event>
 4    1  0.1837449E-005  0.4427928E+03  0.7818608E-02  0.1029893E+00
          2   -1    0    0  501    0  0.00000000000E+00  0.00000000000E+00  0.19294782035E+03  0.19294782037E+03  0.25500000000E-02 0.  1.
         -2   -1    0    0    0  501 -0.00000000000E+00 -0.00000000000E+00 -0.25403944747E+03  0.25403944748E+03  0.25500000000E-02 0. -1.
    5000001    1    1    2    0    0 -0.10277471227E+03 -0.76597863654E+02  0.43369959764E+02  0.21339125476E+03  0.16500000000E+03 0.  0.
   -5000001    1    1    2    0    0  0.10277471227E+03  0.76597863654E+02 -0.10446158688E+03  0.23359601309E+03  0.16500000000E+03 0.  0.
<mgrwt>
<rscale>  0 0.44279276E+03</rscale>
<asrwt>0</asrwt>
<pdfrwt beam="1">  1        2 0.27563974E-01 0.44279276E+03</pdfrwt>
<pdfrwt beam="2">  1       -2 0.36291350E-01 0.44279276E+03</pdfrwt>
<totfact> 0.13944643E+03</totfact>
</mgrwt>
</event>
<event>
 4    1  0.1837449E-005  0.5514619E+03  0.7818608E-02  0.1001156E+00
          2   -1    0    0  501    0  0.00000000000E+00  0.00000000000E+00  0.26856931732E+04  0.26856931732E+04  0.25500000000E-02 0.  1.
         -2   -1    0    0    0  501 -0.00000000000E+00 -0.00000000000E+00 -0.28308358371E+02  0.28308358486E+02  0.25500000000E-02 0. -1.
    5000001    1    1    2    0    0  0.21241996477E+03  0.52870107829E+02  0.11822777184E+04  0.12136404299E+04  0.16500000000E+03 0.  0.
   -5000001    1    1    2    0    0 -0.21241996477E+03 -0.52870107829E+02  0.14751070964E+04  0.15003611017E+04  0.16500000000E+03 0.  0.
<mgrwt>
<rscale>  0 0.55146193E+03</rscale>
<asrwt>0</asrwt>
<pdfrwt beam="1">  1        2 0.38367052E+00 0.55146193E+03</pdfrwt>
<pdfrwt beam="2">  1       -2 0.40440505E-02 0.55146193E+03</pdfrwt>
<totfact> 0.10601519E+03</totfact>
</mgrwt>
</event>
<event>
 4    1  0.1837449E-005  0.3563299E+03  0.7818608E-02  0.1060047E+00
          2   -1    0    0  501    0  0.00000000000E+00  0.00000000000E+00  0.29066169892E+04  0.29066169892E+04  0.25500000000E-02 0.  1.
         -2   -1    0    0    0  501 -0.00000000000E+00 -0.00000000000E+00 -0.10920855147E+02  0.10920855445E+02  0.25500000000E-02 0. -1.
    5000001    1    1    2    0    0  0.75883927537E+01 -0.66724856481E+02  0.14709389085E+04  0.14816868977E+04  0.16500000000E+03 0.  0.
   -5000001    1    1    2    0    0 -0.75883927537E+01  0.66724856481E+02  0.14247572256E+04  0.14358509470E+04  0.16500000000E+03 0.  0.
<mgrwt>
<rscale>  0 0.35632987E+03</rscale>
<asrwt>0</asrwt>
<pdfrwt beam="1">  1        2 0.41523126E+00 0.35632987E+03</pdfrwt>
<pdfrwt beam="2">  1       -2 0.15601212E-02 0.35632987E+03</pdfrwt>
<totfact> 0.34447383E+03</totfact>
</mgrwt>
</event>
<event>
 4    1  0.1837449E-005  0.5921026E+03  0.7818608E-02  0.9921927E-01
          2   -1    0    0  501    0  0.00000000000E+00  0.00000000000E+00  0.77886247520E+03  0.77886247520E+03  0.25500000000E-02 0.  1.
         -2   -1    0    0    0  501 -0.00000000000E+00 -0.00000000000E+00 -0.11253126927E+03  0.11253126930E+03  0.25500000000E-02 0. -1.
    5000001    1    1    2    0    0  0.69935850900E+02 -0.18862475366E+03  0.54581080914E+03  0.60465259472E+03  0.16500000000E+03 0.  0.
   -5000001    1    1    2    0    0 -0.69935850900E+02  0.18862475366E+03  0.12052039679E+03  0.28674114978E+03  0.16500000000E+03 0.  0.
<mgrwt>
<rscale>  0 0.59210264E+03</rscale>
<asrwt>0</asrwt>
<pdfrwt beam="1">  1        2 0.11126607E+00 0.59210264E+03</pdfrwt>
<pdfrwt beam="2">  1       -2 0.16075895E-01 0.59210264E+03</pdfrwt>
<totfact> 0.12277626E+03</totfact>
</mgrwt>
</event>
<event>
 4    1  0.1837449E-005  0.6799121E+03  0.7818608E-02  0.9752215E-01
          2   -1    0    0  501    0  0.00000000000E+00  0.00000000000E+00  0.84642922910E+03  0.84642922911E+03  0.25500000000E-02 0.  1.
         -2   -1    0    0    0  501 -0.00000000000E+00 -0.00000000000E+00 -0.13653843547E+03  0.13653843550E+03  0.25500000000E-02 0. -1.
    5000001    1    1    2    0    0  0.18076563799E+03 -0.19293968116E+03  0.15860736874E+03  0.34969019698E+03  0.16500000000E+03 0.  0.
   -5000001    1    1    2    0    0 -0.18076563799E+03  0.19293968116E+03  0.55128342489E+03  0.63327746762E+03  0.16500000000E+03 0.  0.
<mgrwt>
<rscale>  0 0.67991212E+03</rscale>
<asrwt>0</asrwt>
<pdfrwt beam="1">  1        2 0.12091847E+00 0.67991212E+03</pdfrwt>
<pdfrwt beam="2">  1       -2 0.19505490E-01 0.67991212E+03</pdfrwt>
<totfact> 0.78990404E+02</totfact>
</mgrwt>
</event>
<event>
 4    1  0.1837449E-005  0.5340383E+03  0.7818608E-02  0.1005257E+00
          2   -1    0    0  501    0  0.00000000000E+00  0.00000000000E+00  0.12701849468E+03  0.12701849470E+03  0.25500000000E-02 0.  1.
         -2   -1    0    0    0  501 -0.00000000000E+00 -0.00000000000E+00 -0.56132956441E+03  0.56132956441E+03  0.25500000000E-02 0. -1.
    5000001    1    1    2    0    0 -0.10783156058E+03 -0.17639930178E+03 -0.17015081989E+03  0.31451655065E+03  0.16500000000E+03 0.  0.
   -5000001    1    1    2    0    0  0.10783156058E+03  0.17639930178E+03 -0.26416024984E+03  0.37383150846E+03  0.16500000000E+03 0.  0.
<mgrwt>
<rscale>  0 0.53403834E+03</rscale>
<asrwt>0</asrwt>
<pdfrwt beam="1">  1        2 0.18145500E-01 0.53403834E+03</pdfrwt>
<pdfrwt beam="2">  1       -2 0.80189936E-01 0.53403834E+03</pdfrwt>
<totfact> 0.44254888E+02</totfact>
</mgrwt>
</event>
<event>
 4    1  0.1837449E-005  0.5081199E+03  0.7818608E-02  0.1011681E+00
         -2   -1    0    0    0  501 -0.00000000000E+00  0.00000000000E+00  0.11674990456E+03  0.11674990459E+03  0.25500000000E-02 0. -1.
          2   -1    0    0  501    0  0.00000000000E+00 -0.00000000000E+00 -0.55286086100E+03  0.55286086101E+03  0.25500000000E-02 0.  1.
    5000001    1    1    2    0    0  0.54954291446E+02  0.10855146124E+03 -0.41580785725E+03  0.46359957726E+03  0.16500000000E+03 0.  0.
   -5000001    1    1    2    0    0 -0.54954291446E+02 -0.10855146124E+03 -0.20303099193E+02  0.20601118834E+03  0.16500000000E+03 0.  0.
<mgrwt>
<rscale>  0 0.50811988E+03</rscale>
<asrwt>0</asrwt>
<pdfrwt beam="1">  1        2 0.78980121E-01 0.50811988E+03</pdfrwt>
<pdfrwt beam="2">  1       -2 0.16678558E-01 0.50811988E+03</pdfrwt>
<totfact> 0.17419531E+03</totfact>
</mgrwt>
</event>
<event>
 4    1  0.1837449E-005  0.3908545E+03  0.7818608E-02  0.1046993E+00
         -2   -1    0    0    0  501 -0.00000000000E+00  0.00000000000E+00  0.14838027716E+03  0.14838027718E+03  0.25500000000E-02 0. -1.
          2   -1    0    0  501    0  0.00000000000E+00 -0.00000000000E+00 -0.25739143425E+03  0.25739143427E+03  0.25500000000E-02 0.  1.
    5000001    1    1    2    0    0  0.83139313464E+02 -0.62091283224E+02 -0.69163192512E+02  0.20682364491E+03  0.16500000000E+03 0.  0.
   -5000001    1    1    2    0    0 -0.83139313464E+02  0.62091283224E+02 -0.39847964585E+02  0.19894806653E+03  0.16500000000E+03 0.  0.
<mgrwt>
<rscale>  0 0.39085451E+03</rscale>
<asrwt>0</asrwt>
<pdfrwt beam="1">  1        2 0.36770205E-01 0.39085451E+03</pdfrwt>
<pdfrwt beam="2">  1       -2 0.21197182E-01 0.39085451E+03</pdfrwt>
<totfact> 0.26810776E+03</totfact>
</mgrwt>
</event>
<event>
 4    1  0.1837449E-005  0.3831415E+03  0.7818608E-02  0.1049779E+00
         -2   -1    0    0    0  501 -0.00000000000E+00  0.00000000000E+00  0.38412166700E+02  0.38412166784E+02  0.25500000000E-02 0. -1.
          2   -1    0    0  501    0  0.00000000000E+00 -0.00000000000E+00 -0.95540968636E+03  0.95540968636E+03  0.25500000000E-02 0.  1.
    5000001    1    1    2    0    0 -0.68933159746E+02  0.59757998936E+02 -0.54652093319E+03  0.57812881728E+03  0.16500000000E+03 0.  0.
   -5000001    1    1    2    0    0  0.68933159746E+02 -0.59757998936E+02 -0.37047658647E+03  0.41569303587E+03  0.16500000000E+03 0.  0.
<mgrwt>
<rscale>  0 0.38314152E+03</rscale>
<asrwt>0</asrwt>
<pdfrwt beam="1">  1        2 0.13648708E+00 0.38314152E+03</pdfrwt>
<pdfrwt beam="2">  1       -2 0.54874530E-02 0.38314152E+03</pdfrwt>
<totfact> 0.52919545E+03</totfact>
</mgrwt>
</event>
<event>
 4    1  0.1837449E-005  0.3685800E+03  0.7818608E-02  0.1055237E+00
          2   -1    0    0  501    0  0.00000000000E+00  0.00000000000E+00  0.70983506568E+03  0.70983506568E+03  0.25500000000E-02 0.  1.
         -2   -1    0    0    0  501 -0.00000000000E+00 -0.00000000000E+00 -0.47846043525E+02  0.47846043593E+02  0.25500000000E-02 0. -1.
    5000001    1    1    2    0    0  0.23630755139E+02  0.74869941753E+02  0.38023981017E+03  0.42186636985E+03  0.16500000000E+03 0.  0.
   -5000001    1    1    2    0    0 -0.23630755139E+02 -0.74869941753E+02  0.28174921198E+03  0.33581473943E+03  0.16500000000E+03 0.  0.
<mgrwt>
<rscale>  0 0.36857997E+03</rscale>
<asrwt>0</asrwt>
<pdfrwt beam="1">  1        2 0.10140501E+00 0.36857997E+03</pdfrwt>
<pdfrwt beam="2">  1       -2 0.68351490E-02 0.36857997E+03</pdfrwt>
<totfact> 0.54895810E+03</totfact>
</mgrwt>
</event>
<event>
 4    1  0.1837449E-005  0.4235933E+03  0.7818608E-02  0.1035903E+00
          2   -1    0    0  501    0  0.00000000000E+00  0.00000000000E+00  0.23940585543E+04  0.23940585543E+04  0.25500000000E-02 0.  1.
         -2   -1    0    0    0  501 -0.00000000000E+00 -0.00000000000E+00 -0.18737145645E+02  0.18737145818E+02  0.25500000000E-02 0. -1.
    5000001    1    1    2    0    0  0.11091648856E+03  0.66221044680E+02  0.13627732206E+04  0.13787906095E+04  0.16500000000E+03 0.  0.
   -5000001    1    1    2    0    0 -0.11091648856E+03 -0.66221044680E+02  0.10125481880E+04  0.10340050905E+04  0.16500000000E+03 0.  0.
<mgrwt>
<rscale>  0 0.42359331E+03</rscale>
<asrwt>0</asrwt>
<pdfrwt beam="1">  1        2 0.34200837E+00 0.42359331E+03</pdfrwt>
<pdfrwt beam="2">  1       -2 0.26767350E-02 0.42359331E+03</pdfrwt>
<totfact> 0.28191101E+03</totfact>
</mgrwt>
</event>
<event>
 4    1  0.1837449E-005  0.1315488E+04  0.7818608E-02  0.9017372E-01
          2   -1    0    0  501    0  0.00000000000E+00  0.00000000000E+00  0.15087538279E+04  0.15087538279E+04  0.25500000000E-02 0.  1.
         -2   -1    0    0    0  501 -0.00000000000E+00 -0.00000000000E+00 -0.28674489306E+03  0.28674489307E+03  0.25500000000E-02 0. -1.
    5000001    1    1    2    0    0 -0.42251638800E+03  0.42716008315E+03  0.89865873450E+03  0.10935256540E+04  0.16500000000E+03 0.  0.
   -5000001    1    1    2    0    0  0.42251638800E+03 -0.42716008315E+03  0.32335020035E+03  0.70197306703E+03  0.16500000000E+03 0.  0.
<mgrwt>
<rscale>  0 0.13154884E+04</rscale>
<asrwt>0</asrwt>
<pdfrwt beam="1">  1        2 0.21553626E+00 0.13154884E+04</pdfrwt>
<pdfrwt beam="2">  1       -2 0.40963556E-01 0.13154884E+04</pdfrwt>
<totfact> 0.79924620E+01</totfact>
</mgrwt>
</event>
<event>
 4    1  0.1837449E-005  0.5689556E+03  0.7818608E-02  0.9971992E-01
         -2   -1    0    0    0  501 -0.00000000000E+00  0.00000000000E+00  0.92193024708E+02  0.92193024744E+02  0.25500000000E-02 0. -1.
          2   -1    0    0  501    0  0.00000000000E+00 -0.00000000000E+00 -0.87780633011E+03  0.87780633012E+03  0.25500000000E-02 0.  1.
    5000001    1    1    2    0    0  0.12603491225E+03 -0.19052954069E+03 -0.32641891309E+03  0.43123150604E+03  0.16500000000E+03 0.  0.
   -5000001    1    1    2    0    0 -0.12603491225E+03  0.19052954069E+03 -0.45919439232E+03  0.53876784882E+03  0.16500000000E+03 0.  0.
<mgrwt>
<rscale>  0 0.56895561E+03</rscale>
<asrwt>0</asrwt>
<pdfrwt beam="1">  1        2 0.12540090E+00 0.56895561E+03</pdfrwt>
<pdfrwt beam="2">  1       -2 0.13170433E-01 0.56895561E+03</pdfrwt>
<totfact> 0.14700233E+03</totfact>
</mgrwt>
</event>
<event>
 4    1  0.1837449E-005  0.6459503E+03  0.7818608E-02  0.9814408E-01
         -2   -1    0    0    0  501 -0.00000000000E+00  0.00000000000E+00  0.26931030686E+02  0.26931030807E+02  0.25500000000E-02 0. -1.
          2   -1    0    0  501    0  0.00000000000E+00 -0.00000000000E+00 -0.38733369176E+04  0.38733369176E+04  0.25500000000E-02 0.  1.
    5000001    1    1    2    0    0 -0.21378070966E+03 -0.13528589188E+03 -0.26138515616E+04  0.26312448480E+04  0.16500000000E+03 0.  0.
   -5000001    1    1    2    0    0  0.21378070966E+03  0.13528589188E+03 -0.12325543253E+04  0.12690231004E+04  0.16500000000E+03 0.  0.
<mgrwt>
<rscale>  0 0.64595033E+03</rscale>
<asrwt>0</asrwt>
<pdfrwt beam="1">  1        2 0.55333349E+00 0.64595033E+03</pdfrwt>
<pdfrwt beam="2">  1       -2 0.38472926E-02 0.64595033E+03</pdfrwt>
<totfact> 0.23564892E+02</totfact>
</mgrwt>
</event>
<event>
 4    1  0.1837449E-005  0.3796908E+03  0.7818608E-02  0.1051048E+00
          2   -1    0    0  501    0  0.00000000000E+00  0.00000000000E+00  0.22346342671E+04  0.22346342671E+04  0.25500000000E-02 0.  1.
         -2   -1    0    0    0  501 -0.00000000000E+00 -0.00000000000E+00 -0.16128493844E+02  0.16128494046E+02  0.25500000000E-02 0. -1.
    5000001    1    1    2    0    0 -0.69227144261E+02  0.62085294588E+02  0.11863846265E+04  0.12014077007E+04  0.16500000000E+03 0.  0.
   -5000001    1    1    2    0    0  0.69227144261E+02 -0.62085294588E+02  0.10321211467E+04  0.10493550604E+04  0.16500000000E+03 0.  0.
<mgrwt>
<rscale>  0 0.37969085E+03</rscale>
<asrwt>0</asrwt>
<pdfrwt beam="1">  1        2 0.31923328E+00 0.37969085E+03</pdfrwt>
<pdfrwt beam="2">  1       -2 0.23040719E-02 0.37969085E+03</pdfrwt>
<totfact> 0.42447668E+03</totfact>
</mgrwt>
</event>
<event>
 4    1  0.1837449E-005  0.6355239E+03  0.7818608E-02  0.9834328E-01
          2   -1    0    0  501    0  0.00000000000E+00  0.00000000000E+00  0.63667361477E+03  0.63667361478E+03  0.25500000000E-02 0.  1.
         -2   -1    0    0    0  501 -0.00000000000E+00 -0.00000000000E+00 -0.15859405133E+03  0.15859405135E+03  0.25500000000E-02 0. -1.
    5000001    1    1    2    0    0  0.12931614538E+03  0.19384050436E+03  0.41356197122E+03  0.50254881417E+03  0.16500000000E+03 0.  0.
   -5000001    1    1    2    0    0 -0.12931614538E+03 -0.19384050436E+03  0.64517592220E+02  0.29271885196E+03  0.16500000000E+03 0.  0.
<mgrwt>
<rscale>  0 0.63552387E+03</rscale>
<asrwt>0</asrwt>
<pdfrwt beam="1">  1        2 0.90953373E-01 0.63552387E+03</pdfrwt>
<pdfrwt beam="2">  1       -2 0.22656293E-01 0.63552387E+03</pdfrwt>
<totfact> 0.86718929E+02</totfact>
</mgrwt>
</event>
<event>
 4    1  0.1837449E-005  0.3881405E+03  0.7818608E-02  0.1047965E+00
         -2   -1    0    0    0  501 -0.00000000000E+00  0.00000000000E+00  0.37511445414E+02  0.37511445501E+02  0.25500000000E-02 0. -1.
          2   -1    0    0  501    0  0.00000000000E+00 -0.00000000000E+00 -0.10040471484E+04  0.10040471484E+04  0.25500000000E-02 0.  1.
    5000001    1    1    2    0    0  0.15810196667E+02  0.67389025425E+02 -0.68492067017E+03  0.70790717435E+03  0.16500000000E+03 0.  0.
   -5000001    1    1    2    0    0 -0.15810196667E+02 -0.67389025425E+02 -0.28161503283E+03  0.33365141958E+03  0.16500000000E+03 0.  0.
<mgrwt>
<rscale>  0 0.38814049E+03</rscale>
<asrwt>0</asrwt>
<pdfrwt beam="1">  1        2 0.14343529E+00 0.38814049E+03</pdfrwt>
<pdfrwt beam="2">  1       -2 0.53587786E-02 0.38814049E+03</pdfrwt>
<totfact> 0.51301602E+03</totfact>
</mgrwt>
</event>
<event>
 4    1  0.1837449E-005  0.8266630E+03  0.7818608E-02  0.9522206E-01
         -2   -1    0    0    0  501 -0.00000000000E+00  0.00000000000E+00  0.32840523584E+03  0.32840523585E+03  0.25500000000E-02 0. -1.
          2   -1    0    0  501    0  0.00000000000E+00 -0.00000000000E+00 -0.52021989925E+03  0.52021989926E+03  0.25500000000E-02 0.  1.
    5000001    1    1    2    0    0  0.36601445887E+03 -0.96706842834E+02 -0.11366252749E+03  0.42832577287E+03  0.16500000000E+03 0.  0.
   -5000001    1    1    2    0    0 -0.36601445887E+03  0.96706842834E+02 -0.78152135915E+02  0.42029936224E+03  0.16500000000E+03 0.  0.
<mgrwt>
<rscale>  0 0.82666302E+03</rscale>
<asrwt>0</asrwt>
<pdfrwt beam="1">  1        2 0.74317128E-01 0.82666302E+03</pdfrwt>
<pdfrwt beam="2">  1       -2 0.46915034E-01 0.82666302E+03</pdfrwt>
<totfact> 0.27765224E+02</totfact>
</mgrwt>
</event>
<event>
 4    1  0.1837449E-005  0.4615007E+03  0.7818608E-02  0.1024347E+00
         -2   -1    0    0    0  501 -0.00000000000E+00  0.00000000000E+00  0.43021766999E+02  0.43021767075E+02  0.25500000000E-02 0. -1.
          2   -1    0    0  501    0  0.00000000000E+00 -0.00000000000E+00 -0.12376459376E+04  0.12376459376E+04  0.25500000000E-02 0.  1.
    5000001    1    1    2    0    0  0.10482714398E+03 -0.77609041989E+02 -0.33392278700E+03  0.39464074953E+03  0.16500000000E+03 0.  0.
   -5000001    1    1    2    0    0 -0.10482714398E+03  0.77609041989E+02 -0.86070138361E+03  0.88602695516E+03  0.16500000000E+03 0.  0.
<mgrwt>
<rscale>  0 0.46150066E+03</rscale>
<asrwt>0</asrwt>
<pdfrwt beam="1">  1        2 0.17680654E+00 0.46150066E+03</pdfrwt>
<pdfrwt beam="2">  1       -2 0.61459675E-02 0.46150066E+03</pdfrwt>
<totfact> 0.30566492E+03</totfact>
</mgrwt>
</event>
<event>
 4    1  0.1837449E-005  0.3999092E+03  0.7818608E-02  0.1043811E+00
         -2   -1    0    0    0  501 -0.00000000000E+00  0.00000000000E+00  0.39673920672E+02  0.39673920754E+02  0.25500000000E-02 0. -1.
          2   -1    0    0  501    0  0.00000000000E+00 -0.00000000000E+00 -0.10077614091E+04  0.10077614091E+04  0.25500000000E-02 0.  1.
    5000001    1    1    2    0    0 -0.87268052506E+01  0.10417045081E+03 -0.37202333784E+03  0.42018329792E+03  0.16500000000E+03 0.  0.
   -5000001    1    1    2    0    0  0.87268052506E+01 -0.10417045081E+03 -0.59606415058E+03  0.62725203193E+03  0.16500000000E+03 0.  0.
<mgrwt>
<rscale>  0 0.39990922E+03</rscale>
<asrwt>0</asrwt>
<pdfrwt beam="1">  1        2 0.14396590E+00 0.39990922E+03</pdfrwt>
<pdfrwt beam="2">  1       -2 0.56677036E-02 0.39990922E+03</pdfrwt>
<totfact> 0.46832594E+03</totfact>
</mgrwt>
</event>
