<event>
 8    2  0.7237260E-052  0.1397275E+04  0.7818608E-02  0.8955794E-01
         -2   -1    0    0    0  501 -0.00000000000E+00  0.00000000000E+00  0.13027961540E+03  0.13027961543E+03  0.25500000000E-02 0. -1.
          2   -1    0    0  501    0  0.00000000000E+00 -0.00000000000E+00 -0.37465121751E+04  0.37465121751E+04  0.25500000000E-02 0.  1.
    -200001    2    1    2    0    0 -0.20375155369E+03 -0.22887737758E+03 -0.14306996663E+04  0.15863283925E+04  0.61289206561E+03 0.  0.
   -5000001    2    3    3    0    0 -0.37914048494E+03 -0.67318780755E+02 -0.61846583041E+03  0.73381020408E+03  0.87738854938E+02 0.  0.
     200001    1    1    2    0    0  0.20375155369E+03  0.22887737758E+03 -0.21855328934E+04  0.22904633980E+04  0.61300000000E+03 0.  1.
         11    1    4    4    0    0 -0.11994182454E+03 -0.50636956815E+02 -0.25184780391E+03  0.28350918680E+03  0.51100000000E-03 0.  1.
    -200002    1    4    4    0    0 -0.25919866040E+03 -0.16681823940E+02 -0.36661802651E+03  0.45030101728E+03  0.30000000000E+02 0.  1.
    -200000    1    3    3    0    0  0.17538893125E+03 -0.16155859683E+03 -0.81223383589E+03  0.85251818841E+03  0.10100000000E+03 0. -1.
<mgrwt>
<rscale>  0 0.13972747E+04</rscale>
<asrwt>0</asrwt>
<pdfrwt beam="1">  1        2 0.53521596E+00 0.13972747E+04</pdfrwt>
<pdfrwt beam="2">  1       -2 0.18611376E-01 0.13972747E+04</pdfrwt>
<totfact> 0.20216109E+01</totfact>
</mgrwt>
</event>
<event>
 8    2  0.7237260E-052  0.1833072E+04  0.7818608E-02  0.8688907E-01
          2   -1    0    0  501    0  0.00000000000E+00  0.00000000000E+00  0.16602533376E+04  0.16602533376E+04  0.25500000000E-02 0.  1.
         -2   -1    0    0    0  501 -0.00000000000E+00 -0.00000000000E+00 -0.50596967625E+03  0.50596967625E+03  0.25500000000E-02 0. -1.
    -200001    2    1    2    0    0  0.59764014380E+03 -0.27620882494E+03  0.78428367766E+03  0.11935287945E+04  0.61314357185E+03 0.  0.
   -5000001    2    3    3    0    0  0.24624731716E+03 -0.30611322859E+03  0.94802868523E+02  0.41253200949E+03  0.82776959634E+02 0.  0.
     200001    1    1    2    0    0 -0.59764014380E+03  0.27620882494E+03  0.36999998365E+03  0.97269421935E+03  0.61300000000E+03 0. -1.
         11    1    4    4    0    0  0.27992641437E+02 -0.37140293875E+02  0.38388196182E+02  0.60304585316E+02  0.51100000000E-03 0.  1.
    -200002    1    4    4    0    0  0.21825467572E+03 -0.26897293471E+03  0.56414672341E+02  0.35222742417E+03  0.30000000000E+02 0.  1.
    -200000    1    3    3    0    0  0.35139282664E+03  0.29904403647E+02  0.68948080914E+03  0.78099678497E+03  0.10100000000E+03 0.  1.
<mgrwt>
<rscale>  0 0.18330716E+04</rscale>
<asrwt>0</asrwt>
<pdfrwt beam="1">  1        2 0.23717905E+00 0.18330716E+04</pdfrwt>
<pdfrwt beam="2">  1       -2 0.72281382E-01 0.18330716E+04</pdfrwt>
<totfact> 0.19689779E+01</totfact>
</mgrwt>
</event>
<event>
 8    2  0.7237260E-052  0.1706137E+04  0.7818608E-02  0.8757872E-01
          2   -1    0    0  501    0  0.00000000000E+00  0.00000000000E+00  0.62925082456E+03  0.62925082456E+03  0.25500000000E-02 0.  1.
         -2   -1    0    0    0  501 -0.00000000000E+00 -0.00000000000E+00 -0.11564959769E+04  0.11564959769E+04  0.25500000000E-02 0. -1.
    -200001    2    1    2    0    0  0.39775319204E+03  0.35487145614E+03  0.13805274142E+02  0.80971098443E+03  0.60934386068E+03 0.  0.
   -5000001    2    3    3    0    0  0.40327016504E+03  0.49060573103E+02  0.17581305886E+03  0.44915827610E+03  0.76152212596E+02 0.  0.
     200001    1    1    2    0    0 -0.39775319204E+03 -0.35487145614E+03 -0.54105042652E+03  0.97603581707E+03  0.61300000000E+03 0.  1.
         11    1    4    4    0    0  0.23338233525E+03  0.15641169806E+02  0.12981482681E+03  0.26751420497E+03  0.51100000000E-03 0.  1.
    -200002    1    4    4    0    0  0.16988782979E+03  0.33419403296E+02  0.45998232048E+02  0.18164407114E+03  0.30000000000E+02 0.  1.
    -200000    1    3    3    0    0 -0.55169729985E+01  0.30581088304E+03 -0.16200778471E+03  0.36055270833E+03  0.10100000000E+03 0. -1.
<mgrwt>
<rscale>  0 0.17061372E+04</rscale>
<asrwt>0</asrwt>
<pdfrwt beam="1">  1        2 0.89892975E-01 0.17061372E+04</pdfrwt>
<pdfrwt beam="2">  1       -2 0.16521371E+00 0.17061372E+04</pdfrwt>
<totfact> 0.11268690E+01</totfact>
</mgrwt>
</event>
<event>
 8    2  0.7237260E-052  0.1261287E+04  0.7818608E-02  0.9060841E-01
          2   -1    0    0  501    0  0.00000000000E+00  0.00000000000E+00  0.16537475365E+04  0.16537475365E+04  0.25500000000E-02 0.  1.
         -2   -1    0    0    0  501 -0.00000000000E+00 -0.00000000000E+00 -0.24049106716E+03  0.24049106718E+03  0.25500000000E-02 0. -1.
    -200001    2    1    2    0    0 -0.11293934352E+03 -0.94021966784E+02  0.73739511330E+03  0.97003462286E+03  0.61287861023E+03 0.  0.
   -5000001    2    3    3    0    0  0.19212431547E+03  0.55541162671E+02  0.49817560385E+03  0.54241336587E+03  0.77696549846E+02 0.  0.
     200001    1    1    2    0    0  0.11293934352E+03  0.94021966784E+02  0.67586135599E+03  0.92420398077E+03  0.61300000000E+03 0.  1.
         11    1    4    4    0    0  0.24876313089E+02 -0.15251461395E+02  0.90974923879E+02  0.95539912092E+02  0.51100000000E-03 0.  1.
    -200002    1    4    4    0    0  0.16724800238E+03  0.70792624067E+02  0.40720067997E+03  0.44687345377E+03  0.30000000000E+02 0.  1.
    -200000    1    3    3    0    0 -0.30506365899E+03 -0.14956312946E+03  0.23921950945E+03  0.42762125700E+03  0.10100000000E+03 0. -1.
<mgrwt>
<rscale>  0 0.12612875E+04</rscale>
<asrwt>0</asrwt>
<pdfrwt beam="1">  1        2 0.23624966E+00 0.12612875E+04</pdfrwt>
<pdfrwt beam="2">  1       -2 0.34355865E-01 0.12612875E+04</pdfrwt>
<totfact> 0.94566067E+01</totfact>
</mgrwt>
</event>
<event>
 8    2  0.7237260E-052  0.1410409E+04  0.7818608E-02  0.8946318E-01
         -2   -1    0    0    0  501 -0.00000000000E+00  0.00000000000E+00  0.43235932473E+03  0.43235932474E+03  0.25500000000E-02 0. -1.
          2   -1    0    0  501    0  0.00000000000E+00 -0.00000000000E+00 -0.11502319262E+04  0.11502319262E+04  0.25500000000E-02 0.  1.
    -200001    2    1    2    0    0  0.72280321835E+02 -0.12106295185E+03 -0.62178072473E+00  0.62860046319E+03  0.61258262502E+03 0.  0.
   -5000001    2    3    3    0    0 -0.12278177688E+02 -0.26810816051E+03 -0.19307860620E+03  0.35289579710E+03  0.12338296503E+03 0.  0.
     200001    1    1    2    0    0 -0.72280321835E+02  0.12106295185E+03 -0.71725082070E+03  0.95399078771E+03  0.61300000000E+03 0.  1.
         11    1    4    4    0    0 -0.40232416382E+02 -0.24171885642E+03 -0.17398160505E+03  0.30052662406E+03  0.51100000000E-03 0.  1.
    -200002    1    4    4    0    0  0.27954238694E+02 -0.26389304096E+02 -0.19097001148E+02  0.52369173036E+02  0.30000000000E+02 0.  1.
    -200000    1    3    3    0    0  0.84558499523E+02  0.14704520866E+03  0.19245682547E+03  0.27570466609E+03  0.10100000000E+03 0. -1.
<mgrwt>
<rscale>  0 0.14104092E+04</rscale>
<asrwt>0</asrwt>
<pdfrwt beam="1">  1        2 0.16431885E+00 0.14104092E+04</pdfrwt>
<pdfrwt beam="2">  1       -2 0.61765618E-01 0.14104092E+04</pdfrwt>
<totfact> 0.54142130E+01</totfact>
</mgrwt>
</event>
<event>
 8    2  0.7237260E-052  0.1446015E+04  0.7818608E-02  0.8921168E-01
         -2   -1    0    0    0  501 -0.00000000000E+00  0.00000000000E+00  0.56787067740E+03  0.56787067740E+03  0.25500000000E-02 0. -1.
          2   -1    0    0  501    0  0.00000000000E+00 -0.00000000000E+00 -0.92052660813E+03  0.92052660813E+03  0.25500000000E-02 0.  1.
    -200001    2    1    2    0    0 -0.99146605817E+02 -0.12590669333E+03  0.18113942122E+03  0.65991130337E+03  0.61399421294E+03 0.  0.
   -5000001    2    3    3    0    0 -0.95169751928E+00 -0.27239398283E+03 -0.10857865483E+03  0.30602102435E+03  0.87522313994E+02 0.  0.
     200001    1    1    2    0    0  0.99146605817E+02  0.12590669333E+03 -0.53379535196E+03  0.82848598216E+03  0.61300000000E+03 0.  1.
         11    1    4    4    0    0  0.47853464211E+01 -0.19261425178E+03 -0.40737417784E+02  0.19693320374E+03  0.51100000000E-03 0.  1.
    -200002    1    4    4    0    0 -0.57370439404E+01 -0.79779731050E+02 -0.67841237046E+02  0.10908782060E+03  0.30000000000E+02 0.  1.
    -200000    1    3    3    0    0 -0.98194908298E+02  0.14648728950E+03  0.28971807605E+03  0.35389027903E+03  0.10100000000E+03 0. -1.
<mgrwt>
<rscale>  0 0.14460153E+04</rscale>
<asrwt>0</asrwt>
<pdfrwt beam="1">  1        2 0.13150380E+00 0.14460153E+04</pdfrwt>
<pdfrwt beam="2">  1       -2 0.81124383E-01 0.14460153E+04</pdfrwt>
<totfact> 0.41052144E+01</totfact>
</mgrwt>
</event>
<event>
 8    2  0.7237260E-052  0.1659803E+04  0.7818608E-02  0.8784628E-01
          2   -1    0    0  501    0  0.00000000000E+00  0.00000000000E+00  0.18781213255E+04  0.18781213255E+04  0.25500000000E-02 0.  1.
         -2   -1    0    0    0  501 -0.00000000000E+00 -0.00000000000E+00 -0.36671554987E+03  0.36671554988E+03  0.25500000000E-02 0. -1.
    -200001    2    1    2    0    0 -0.32123687323E+03  0.34708389110E+03  0.34131218324E+03  0.84178720729E+03  0.60700192730E+03 0.  0.
   -5000001    2    3    3    0    0  0.15603532158E+03  0.16738203418E+03  0.44771240475E+02  0.24327318401E+03  0.69380192703E+02 0.  0.
     200001    1    1    2    0    0  0.32123687323E+03 -0.34708389110E+03  0.11700935924E+04  0.14030496681E+04  0.61300000000E+03 0.  1.
         11    1    4    4    0    0  0.82239600583E+02  0.11668045412E+03  0.42018644501E+02  0.14880607099E+03  0.51100000000E-03 0.  1.
    -200002    1    4    4    0    0  0.73795720999E+02  0.50701580056E+02  0.27525959748E+01  0.94467113021E+02  0.30000000000E+02 0.  1.
    -200000    1    3    3    0    0 -0.47727219481E+03  0.17970185692E+03  0.29654094277E+03  0.59851402328E+03  0.10100000000E+03 0.  1.
<mgrwt>
<rscale>  0 0.16598028E+04</rscale>
<asrwt>0</asrwt>
<pdfrwt beam="1">  1        2 0.26830305E+00 0.16598028E+04</pdfrwt>
<pdfrwt beam="2">  1       -2 0.52387935E-01 0.16598028E+04</pdfrwt>
<totfact> 0.30501229E+01</totfact>
</mgrwt>
</event>
<event>
 8    2  0.7237260E-052  0.1612577E+04  0.7818608E-02  0.8812859E-01
         -2   -1    0    0    0  501 -0.00000000000E+00  0.00000000000E+00  0.18005779317E+04  0.18005779317E+04  0.25500000000E-02 0. -1.
          2   -1    0    0  501    0  0.00000000000E+00 -0.00000000000E+00 -0.36105123878E+03  0.36105123879E+03  0.25500000000E-02 0.  1.
    -200001    2    1    2    0    0 -0.38680857871E+03 -0.68833465663E+02  0.11841437758E+04  0.13900409663E+04  0.61290984947E+03 0.  0.
   -5000001    2    3    3    0    0 -0.96682607436E+02  0.24858577671E+02  0.84863571159E+03  0.92558651280E+03  0.35575602066E+03 0.  0.
     200001    1    1    2    0    0  0.38680857871E+03  0.68833465663E+02  0.25538291712E+03  0.77158820423E+03  0.61300000000E+03 0.  1.
         11    1    4    4    0    0 -0.33410421085E+02  0.44349020281E+02 -0.16091136980E+02  0.57810176669E+02  0.51100000000E-03 0.  1.
    -200002    1    4    4    0    0 -0.63272186351E+02 -0.19490442610E+02  0.86472684857E+03  0.86777633613E+03  0.30000000000E+02 0.  1.
    -200000    1    3    3    0    0 -0.29012597127E+03 -0.93692043334E+02  0.33550806421E+03  0.46445445346E+03  0.10100000000E+03 0.  1.
<mgrwt>
<rscale>  0 0.16125767E+04</rscale>
<asrwt>0</asrwt>
<pdfrwt beam="1">  1        2 0.51578748E-01 0.16125767E+04</pdfrwt>
<pdfrwt beam="2">  1       -2 0.25722542E+00 0.16125767E+04</pdfrwt>
<totfact> 0.54069723E+00</totfact>
</mgrwt>
</event>
<event>
 8    2  0.7237260E-052  0.1553075E+04  0.7818608E-02  0.8849906E-01
          2   -1    0    0  501    0  0.00000000000E+00  0.00000000000E+00  0.26050647876E+04  0.26050647876E+04  0.25500000000E-02 0.  1.
         -2   -1    0    0    0  501 -0.00000000000E+00 -0.00000000000E+00 -0.23147625839E+03  0.23147625840E+03  0.25500000000E-02 0. -1.
    -200001    2    1    2    0    0  0.15758637045E+03 -0.42878249617E+03  0.93728821612E+03  0.12094530083E+04  0.61284540134E+03 0.  0.
   -5000001    2    3    3    0    0  0.63795670290E+02  0.11641852061E+02 -0.35145966599E+02  0.13307038964E+03  0.11075680279E+03 0.  0.
     200001    1    1    2    0    0 -0.15758637045E+03  0.42878249617E+03  0.14363003131E+04  0.16270880377E+04  0.61300000000E+03 0.  1.
         11    1    4    4    0    0  0.55033327248E+02  0.17144282820E+01 -0.67429340267E+02  0.87053559959E+02  0.51100000000E-03 0.  1.
    -200002    1    4    4    0    0  0.87623430424E+01  0.99274237794E+01  0.32283373668E+02  0.46016829681E+02  0.30000000000E+02 0. -1.
    -200000    1    3    3    0    0  0.93790700162E+02 -0.44042434823E+03  0.97243418272E+03  0.10763826186E+04  0.10100000000E+03 0.  1.
<mgrwt>
<rscale>  0 0.15530752E+04</rscale>
<asrwt>0</asrwt>
<pdfrwt beam="1">  1        2 0.37215204E+00 0.15530752E+04</pdfrwt>
<pdfrwt beam="2">  1       -2 0.33068043E-01 0.15530752E+04</pdfrwt>
<totfact> 0.31958870E+01</totfact>
</mgrwt>
</event>
<event>
 8    2  0.7237260E-052  0.1581436E+04  0.7818608E-02  0.8832035E-01
          2   -1    0    0  501    0  0.00000000000E+00  0.00000000000E+00  0.12630944395E+04  0.12630944395E+04  0.25500000000E-02 0.  1.
         -2   -1    0    0    0  501 -0.00000000000E+00 -0.00000000000E+00 -0.49500230887E+03  0.49500230888E+03  0.25500000000E-02 0. -1.
    -200001    2    1    2    0    0  0.12275866304E+03 -0.29469635739E+03  0.81037193498E+03  0.10656574267E+04  0.61400932051E+03 0.  0.
   -5000001    2    3    3    0    0 -0.20365895601E+03 -0.60311271779E+02  0.11690299394E+03  0.25783009208E+03  0.87724720144E+02 0.  0.
     200001    1    1    2    0    0 -0.12275866304E+03  0.29469635739E+03 -0.42279804315E+02  0.69243932172E+03  0.61300000000E+03 0. -1.
         11    1    4    4    0    0 -0.11663041773E+03 -0.50990696308E+02  0.29746192807E+02  0.13071932312E+03  0.51100000000E-03 0.  1.
    -200002    1    4    4    0    0 -0.87028538272E+02 -0.93205754712E+01  0.87156801137E+02  0.12711076896E+03  0.30000000000E+02 0.  1.
    -200000    1    3    3    0    0  0.32641761904E+03 -0.23438508561E+03  0.69346894103E+03  0.80782733462E+03  0.10100000000E+03 0.  1.
<mgrwt>
<rscale>  0 0.15814356E+04</rscale>
<asrwt>0</asrwt>
<pdfrwt beam="1">  1        2 0.18044206E+00 0.15814356E+04</pdfrwt>
<pdfrwt beam="2">  1       -2 0.70714615E-01 0.15814356E+04</pdfrwt>
<totfact> 0.34440060E+01</totfact>
</mgrwt>
</event>
<event>
 8    2  0.7237260E-052  0.1490383E+04  0.7818608E-02  0.8890874E-01
         -2   -1    0    0    0  501 -0.00000000000E+00  0.00000000000E+00  0.10110022021E+04  0.10110022021E+04  0.25500000000E-02 0. -1.
          2   -1    0    0  501    0  0.00000000000E+00 -0.00000000000E+00 -0.54926686802E+03  0.54926686802E+03  0.25500000000E-02 0.  1.
    -200001    2    1    2    0    0  0.39571419589E+03  0.12880302201E+03  0.16476954863E+03  0.76206006174E+03  0.61677110035E+03 0.  0.
   -5000001    2    3    3    0    0  0.18232456907E+03 -0.92921499781E+02  0.33115308933E+03  0.39794280176E+03  0.82579969101E+02 0.  0.
     200001    1    1    2    0    0 -0.39571419589E+03 -0.12880302201E+03  0.29696578542E+03  0.79820900836E+03  0.61300000000E+03 0. -1.
         11    1    4    4    0    0  0.15225155153E+03 -0.82286392654E+02  0.23103374238E+03  0.28866620079E+03  0.51100000000E-03 0.  1.
    -200002    1    4    4    0    0  0.30073017536E+02 -0.10635107127E+02  0.10011934694E+03  0.10927660097E+03  0.30000000000E+02 0.  1.
    -200000    1    3    3    0    0  0.21338962683E+03  0.22172452179E+03 -0.16638354069E+03  0.36411725998E+03  0.10100000000E+03 0.  1.
<mgrwt>
<rscale>  0 0.14903825E+04</rscale>
<asrwt>0</asrwt>
<pdfrwt beam="1">  1        2 0.78466696E-01 0.14903825E+04</pdfrwt>
<pdfrwt beam="2">  1       -2 0.14442889E+00 0.14903825E+04</pdfrwt>
<totfact> 0.19302641E+01</totfact>
</mgrwt>
</event>
<event>
 8    2  0.7237260E-052  0.1348313E+04  0.7818608E-02  0.8992106E-01
         -2   -1    0    0    0  501 -0.00000000000E+00  0.00000000000E+00  0.20306122376E+03  0.20306122378E+03  0.25500000000E-02 0. -1.
          2   -1    0    0  501    0  0.00000000000E+00 -0.00000000000E+00 -0.22381772459E+04  0.22381772459E+04  0.25500000000E-02 0.  1.
    -200001    2    1    2    0    0  0.21246728963E+03  0.14919408797E+03 -0.82246061651E+03  0.10578717945E+04  0.61257656088E+03 0.  0.
   -5000001    2    3    3    0    0  0.29231445597E+03 -0.12937418907E+03 -0.36936444928E+03  0.51063053906E+03  0.14875492954E+03 0.  0.
     200001    1    1    2    0    0 -0.21246728963E+03 -0.14919408797E+03 -0.12126554056E+04  0.13833666751E+04  0.61300000000E+03 0. -1.
         11    1    4    4    0    0  0.26820050635E+03 -0.15039712039E+03 -0.30812613435E+03  0.43530738576E+03  0.51100000000E-03 0.  1.
    -200002    1    4    4    0    0  0.24113949620E+02  0.21022931320E+02 -0.61238314937E+02  0.75323153306E+02  0.30000000000E+02 0.  1.
    -200000    1    3    3    0    0 -0.79847166332E+02  0.27856827704E+03 -0.45309616722E+03  0.54724125548E+03  0.10100000000E+03 0.  1.
<mgrwt>
<rscale>  0 0.13483130E+04</rscale>
<asrwt>0</asrwt>
<pdfrwt beam="1">  1        2 0.31973959E+00 0.13483130E+04</pdfrwt>
<pdfrwt beam="2">  1       -2 0.29008748E-01 0.13483130E+04</pdfrwt>
<totfact> 0.64559760E+01</totfact>
</mgrwt>
</event>
<event>
 8    2  0.7237260E-052  0.1405799E+04  0.7818608E-02  0.8949631E-01
          2   -1    0    0  501    0  0.00000000000E+00  0.00000000000E+00  0.11184860632E+04  0.11184860632E+04  0.25500000000E-02 0.  1.
         -2   -1    0    0    0  501 -0.00000000000E+00 -0.00000000000E+00 -0.44172920818E+03  0.44172920819E+03  0.25500000000E-02 0. -1.
    -200001    2    1    2    0    0  0.27073474404E+01  0.16348301528E+03  0.33069542056E+01  0.63499216590E+03  0.61357158408E+03 0.  0.
   -5000001    2    3    3    0    0  0.75538193088E+02  0.26192377769E+03 -0.21848075659E+03  0.36225473825E+03  0.95836164605E+02 0.  0.
     200001    1    1    2    0    0 -0.27073474404E+01 -0.16348301528E+03  0.67344990077E+03  0.92522310545E+03  0.61300000000E+03 0.  1.
         11    1    4    4    0    0  0.15598321901E+02  0.72447676626E+02 -0.11337849314E+03  0.13544982910E+03  0.51100000000E-03 0.  1.
    -200002    1    4    4    0    0  0.59939871187E+02  0.18947610106E+03 -0.10510226345E+03  0.22680490915E+03  0.30000000000E+02 0.  1.
    -200000    1    3    3    0    0 -0.72830845648E+02 -0.98440762408E+02  0.22178771080E+03  0.27273742765E+03  0.10100000000E+03 0.  1.
<mgrwt>
<rscale>  0 0.14057994E+04</rscale>
<asrwt>0</asrwt>
<pdfrwt beam="1">  1        2 0.15978372E+00 0.14057994E+04</pdfrwt>
<pdfrwt beam="2">  1       -2 0.63104174E-01 0.14057994E+04</pdfrwt>
<totfact> 0.53997610E+01</totfact>
</mgrwt>
</event>
<event>
 8    2  0.7237260E-052  0.1790060E+04  0.7818608E-02  0.8711603E-01
          2   -1    0    0  501    0  0.00000000000E+00  0.00000000000E+00  0.11389109004E+04  0.11389109004E+04  0.25500000000E-02 0.  1.
         -2   -1    0    0    0  501 -0.00000000000E+00 -0.00000000000E+00 -0.70337288791E+03  0.70337288792E+03  0.25500000000E-02 0. -1.
    -200001    2    1    2    0    0 -0.64936633337E+03 -0.21795712045E+02  0.15525447083E+03  0.90607892202E+03  0.61214653004E+03 0.  0.
   -5000001    2    3    3    0    0 -0.95116547702E+02 -0.55052935568E+01 -0.17100902309E+03  0.25484388756E+03  0.16316818055E+03 0.  0.
     200001    1    1    2    0    0  0.64936633337E+03  0.21795712045E+02  0.28028354168E+03  0.93620486632E+03  0.61300000000E+03 0. -1.
         11    1    4    4    0    0 -0.99176671264E+02 -0.21557435482E+02 -0.24536108670E+02  0.10441626203E+03  0.51100000000E-03 0.  1.
    -200002    1    4    4    0    0  0.40601235622E+01  0.16052141925E+02 -0.14647291442E+03  0.15042762553E+03  0.30000000000E+02 0.  1.
    -200000    1    3    3    0    0 -0.55424978567E+03 -0.16290418488E+02  0.32626349392E+03  0.65123503446E+03  0.10100000000E+03 0.  1.
<mgrwt>
<rscale>  0 0.17900604E+04</rscale>
<asrwt>0</asrwt>
<pdfrwt beam="1">  1        2 0.16270156E+00 0.17900604E+04</pdfrwt>
<pdfrwt beam="2">  1       -2 0.10048184E+00 0.17900604E+04</pdfrwt>
<totfact> 0.17942298E+01</totfact>
</mgrwt>
</event>
<event>
 8    2  0.7237260E-052  0.1726689E+04  0.7818608E-02  0.8746288E-01
         -2   -1    0    0    0  501 -0.00000000000E+00  0.00000000000E+00  0.36976277987E+03  0.36976277988E+03  0.25500000000E-02 0. -1.
          2   -1    0    0  501    0  0.00000000000E+00 -0.00000000000E+00 -0.20157882488E+04  0.20157882488E+04  0.25500000000E-02 0.  1.
    -200001    2    1    2    0    0  0.52404589930E+03  0.74655251158E+02 -0.12361904590E+04  0.14778444425E+04  0.61291095147E+03 0.  0.
   -5000001    2    3    3    0    0  0.68876670310E+01  0.13932916762E+02 -0.76027475872E+03  0.76521789740E+03  0.85435096045E+02 0.  0.
     200001    1    1    2    0    0 -0.52404589930E+03 -0.74655251158E+02 -0.40983500995E+03  0.90770658612E+03  0.61300000000E+03 0. -1.
         11    1    4    4    0    0 -0.27622881820E+02 -0.38350652392E+01 -0.12602707344E+03  0.12907577064E+03  0.51100000000E-03 0.  1.
    -200002    1    4    4    0    0  0.34510548851E+02  0.17767982001E+02 -0.63424768528E+03  0.63614212677E+03  0.30000000000E+02 0.  1.
    -200000    1    3    3    0    0  0.51715823227E+03  0.60722334396E+02 -0.47591570023E+03  0.71262654514E+03  0.10100000000E+03 0. -1.
<mgrwt>
<rscale>  0 0.17266887E+04</rscale>
<asrwt>0</asrwt>
<pdfrwt beam="1">  1        2 0.28796974E+00 0.17266887E+04</pdfrwt>
<pdfrwt beam="2">  1       -2 0.52823255E-01 0.17266887E+04</pdfrwt>
<totfact> 0.25336849E+01</totfact>
</mgrwt>
</event>
<event>
 8    2  0.7237260E-052  0.2263319E+04  0.7818608E-02  0.8492526E-01
          2   -1    0    0  501    0  0.00000000000E+00  0.00000000000E+00  0.16270855537E+04  0.16270855537E+04  0.25500000000E-02 0.  1.
         -2   -1    0    0    0  501 -0.00000000000E+00 -0.00000000000E+00 -0.78708403999E+03  0.78708404000E+03  0.25500000000E-02 0. -1.
    -200001    2    1    2    0    0  0.79093867221E+03  0.52318566171E+03  0.33951894436E+03  0.11790343695E+04  0.61281458133E+03 0.  0.
   -5000001    2    3    3    0    0  0.24367124349E+03  0.34829350667E+03  0.38284800235E+03  0.59408367783E+03  0.16024600358E+03 0.  0.
     200001    1    1    2    0    0 -0.79093867221E+03 -0.52318566171E+03  0.50048256937E+03  0.12351352242E+04  0.61300000000E+03 0.  1.
         11    1    4    4    0    0  0.11906451279E+03  0.28051899678E+03  0.29731418773E+03  0.42574991719E+03  0.51100000000E-03 0.  1.
    -200002    1    4    4    0    0  0.12460673070E+03  0.67774509891E+02  0.85533814621E+02  0.16833376064E+03  0.30000000000E+02 0.  1.
    -200000    1    3    3    0    0  0.54726742872E+03  0.17489215504E+03 -0.43329057999E+02  0.58495069169E+03  0.10100000000E+03 0. -1.
<mgrwt>
<rscale>  0 0.22633189E+04</rscale>
<asrwt>0</asrwt>
<pdfrwt beam="1">  1        2 0.23244079E+00 0.22633189E+04</pdfrwt>
<pdfrwt beam="2">  1       -2 0.11244058E+00 0.22633189E+04</pdfrwt>
<totfact> 0.71310198E+00</totfact>
</mgrwt>
</event>
<event>
 8    2  0.7237260E-052  0.2146300E+04  0.7818608E-02  0.8541118E-01
          2   -1    0    0  501    0  0.00000000000E+00  0.00000000000E+00  0.12615550702E+04  0.12615550702E+04  0.25500000000E-02 0.  1.
         -2   -1    0    0    0  501 -0.00000000000E+00 -0.00000000000E+00 -0.91288173039E+03  0.91288173040E+03  0.25500000000E-02 0. -1.
    -200001    2    1    2    0    0  0.15218525572E+03  0.84061243192E+03  0.39439332909E+03  0.11219877851E+04  0.61116354538E+03 0.  0.
   -5000001    2    3    3    0    0  0.32977318161E+03  0.45417047739E+03  0.57840323269E+02  0.57031416661E+03  0.83015491318E+02 0.  0.
     200001    1    1    2    0    0 -0.15218525572E+03 -0.84061243192E+03 -0.45719989275E+02  0.10524490155E+04  0.61300000000E+03 0. -1.
         11    1    4    4    0    0  0.75485127062E+02  0.92686801339E+02 -0.18011227895E+02  0.12088528397E+03  0.51100000000E-03 0.  1.
    -200002    1    4    4    0    0  0.25428805455E+03  0.36148367605E+03  0.75851551164E+02  0.44942888264E+03  0.30000000000E+02 0.  1.
    -200000    1    3    3    0    0 -0.17758792590E+03  0.38644195453E+03  0.33655300582E+03  0.55167361853E+03  0.10100000000E+03 0.  1.
<mgrwt>
<rscale>  0 0.21462997E+04</rscale>
<asrwt>0</asrwt>
<pdfrwt beam="1">  1        2 0.18022215E+00 0.21462997E+04</pdfrwt>
<pdfrwt beam="2">  1       -2 0.13041168E+00 0.21462997E+04</pdfrwt>
<totfact> 0.78383187E+00</totfact>
</mgrwt>
</event>
<event>
 8    2  0.7237260E-052  0.1394603E+04  0.7818608E-02  0.8957735E-01
          2   -1    0    0  501    0  0.00000000000E+00  0.00000000000E+00  0.28556250463E+04  0.28556250463E+04  0.25500000000E-02 0.  1.
         -2   -1    0    0    0  501 -0.00000000000E+00 -0.00000000000E+00 -0.17027068635E+03  0.17027068637E+03  0.25500000000E-02 0. -1.
    -200001    2    1    2    0    0 -0.69718371415E+02 -0.11180419925E+03  0.20047124649E+04  0.21004751691E+04  0.61299513742E+03 0.  0.
   -5000001    2    3    3    0    0  0.17878282261E+03 -0.69427034225E+02  0.24565040618E+03  0.32057376896E+03  0.75099990313E+02 0.  0.
     200001    1    1    2    0    0  0.69718371415E+02  0.11180419925E+03  0.68064189496E+03  0.92542056356E+03  0.61300000000E+03 0. -1.
         11    1    4    4    0    0  0.41133552843E+02 -0.44258191064E+02  0.96613605762E+02  0.11395150488E+03  0.51100000000E-03 0.  1.
    -200002    1    4    4    0    0  0.13764926977E+03 -0.25168843161E+02  0.14903680042E+03  0.20662226408E+03  0.30000000000E+02 0.  1.
    -200000    1    3    3    0    0 -0.24850119402E+03 -0.42377165028E+02  0.17590620588E+04  0.17799014001E+04  0.10100000000E+03 0.  1.
<mgrwt>
<rscale>  0 0.13946028E+04</rscale>
<asrwt>0</asrwt>
<pdfrwt beam="1">  1        2 0.40794642E+00 0.13946028E+04</pdfrwt>
<pdfrwt beam="2">  1       -2 0.24324385E-01 0.13946028E+04</pdfrwt>
<totfact> 0.41900001E+01</totfact>
</mgrwt>
</event>
<event>
 8    2  0.7237260E-052  0.1386279E+04  0.7818608E-02  0.8963811E-01
         -2   -1    0    0    0  501 -0.00000000000E+00  0.00000000000E+00  0.27223088492E+03  0.27223088493E+03  0.25500000000E-02 0.  1.
          2   -1    0    0  501    0  0.00000000000E+00 -0.00000000000E+00 -0.17648351422E+04  0.17648351422E+04  0.25500000000E-02 0. -1.
    -200001    2    1    2    0    0 -0.45581335691E+02  0.24097175819E+03 -0.44770863560E+03  0.80105595168E+03  0.61733505402E+03 0.  0.
   -5000001    2    3    3    0    0  0.21503656468E+03  0.22547751264E+03 -0.40604828326E+03  0.51803943875E+03  0.80055099179E+02 0.  0.
     200001    1    1    2    0    0  0.45581335691E+02 -0.24097175819E+03 -0.10448956217E+04  0.12360100754E+04  0.61300000000E+03 0. -1.
         11    1    4    4    0    0  0.60133570587E+02  0.23085001928E+02 -0.95244067791E+02  0.11497998119E+03  0.51100000000E-03 0.  1.
    -200002    1    4    4    0    0  0.15490299409E+03  0.20239251071E+03 -0.31080421547E+03  0.40305945756E+03  0.30000000000E+02 0.  1.
    -200000    1    3    3    0    0 -0.26061790037E+03  0.15494245547E+02 -0.41660352340E+02  0.28301651293E+03  0.10100000000E+03 0.  1.
<mgrwt>
<rscale>  0 0.13862794E+04</rscale>
<asrwt>0</asrwt>
<pdfrwt beam="1">  1        2 0.25211930E+00 0.13862794E+04</pdfrwt>
<pdfrwt beam="2">  1       -2 0.38890127E-01 0.13862794E+04</pdfrwt>
<totfact> 0.64652174E+01</totfact>
</mgrwt>
</event>
<event>
 8    2  0.7237260E-052  0.1562475E+04  0.7818608E-02  0.8843938E-01
         -2   -1    0    0    0  501 -0.00000000000E+00  0.00000000000E+00  0.26581964571E+03  0.26581964572E+03  0.25500000000E-02 0. -1.
          2   -1    0    0  501    0  0.00000000000E+00 -0.00000000000E+00 -0.22960390287E+04  0.22960390287E+04  0.25500000000E-02 0.  1.
    -200001    2    1    2    0    0 -0.32561970825E+03 -0.33648989464E+03 -0.81186486141E+03  0.11198425913E+04  0.61291861826E+03 0.  0.
   -5000001    2    3    3    0    0 -0.36252282375E+03  0.12338997566E+02 -0.56932772007E+03  0.68158615853E+03  0.94077574700E+02 0.  0.
     200001    1    1    2    0    0  0.32561970825E+03  0.33648989464E+03 -0.12183545216E+04  0.14420160831E+04  0.61300000000E+03 0.  1.
         11    1    4    4    0    0 -0.11606766764E+03  0.13428828116E+02 -0.25921462822E+03  0.28433125114E+03  0.51100000000E-03 0.  1.
    -200002    1    4    4    0    0 -0.24645515611E+03 -0.10898305500E+01 -0.31011309186E+03  0.39725490739E+03  0.30000000000E+02 0.  1.
    -200000    1    3    3    0    0  0.36903115502E+02 -0.34882889221E+03 -0.24253714134E+03  0.43825643282E+03  0.10100000000E+03 0. -1.
<mgrwt>
<rscale>  0 0.15624753E+04</rscale>
<asrwt>0</asrwt>
<pdfrwt beam="1">  1        2 0.32800556E+00 0.15624753E+04</pdfrwt>
<pdfrwt beam="2">  1       -2 0.37974236E-01 0.15624753E+04</pdfrwt>
<totfact> 0.35572283E+01</totfact>
</mgrwt>
</event>
<event>
 8    2  0.7237260E-052  0.1515487E+04  0.7818608E-02  0.8874219E-01
         -2   -1    0    0    0  501 -0.00000000000E+00  0.00000000000E+00  0.14067805046E+04  0.14067805046E+04  0.25500000000E-02 0.  1.
          2   -1    0    0  501    0  0.00000000000E+00 -0.00000000000E+00 -0.40814823399E+03  0.40814823400E+03  0.25500000000E-02 0. -1.
    -200001    2    1    2    0    0  0.10181620025E+02  0.39890383842E+03  0.26215498139E+03  0.77695198778E+03  0.61294471151E+03 0.  0.
   -5000001    2    3    3    0    0  0.92839427098E+02  0.52162761870E+02  0.36767095942E+03  0.39172957299E+03  0.83246687644E+02 0.  0.
     200001    1    1    2    0    0 -0.10181620025E+02 -0.39890383842E+03  0.73647728921E+03  0.10379767508E+04  0.61300000000E+03 0.  1.
         11    1    4    4    0    0 -0.10641437167E+02  0.20491089338E+01  0.96716161480E+01  0.14525122773E+02  0.51100000000E-03 0.  1.
    -200002    1    4    4    0    0  0.10348086426E+03  0.50113652936E+02  0.35799934328E+03  0.37720445022E+03  0.30000000000E+02 0.  1.
    -200000    1    3    3    0    0 -0.82657807073E+02  0.34674107655E+03 -0.10551597804E+03  0.38522241479E+03  0.10100000000E+03 0. -1.
<mgrwt>
<rscale>  0 0.15154867E+04</rscale>
<asrwt>0</asrwt>
<pdfrwt beam="1">  1        2 0.58306889E-01 0.15154867E+04</pdfrwt>
<pdfrwt beam="2">  1       -2 0.20096865E+00 0.15154867E+04</pdfrwt>
<totfact> 0.10705165E+01</totfact>
</mgrwt>
</event>
<event>
 8    2  0.7237260E-052  0.1787364E+04  0.7818608E-02  0.8713048E-01
         -2   -1    0    0    0  501 -0.00000000000E+00  0.00000000000E+00  0.34242254776E+03  0.34242254777E+03  0.25500000000E-02 0. -1.
          2   -1    0    0  501    0  0.00000000000E+00 -0.00000000000E+00 -0.23324035232E+04  0.23324035232E+04  0.25500000000E-02 0.  1.
    -200001    2    1    2    0    0 -0.84496538425E+02  0.61611032415E+03 -0.12813555089E+04  0.15502591995E+04  0.61212747770E+03 0.  0.
   -5000001    2    3    3    0    0  0.49989589304E+02  0.62747461727E+03 -0.12111262871E+04  0.13676426359E+04  0.86000824780E+02 0.  0.
     200001    1    1    2    0    0  0.84496538425E+02 -0.61611032415E+03 -0.70862546651E+03  0.11245668714E+04  0.61300000000E+03 0. -1.
         11    1    4    4    0    0  0.57322060744E+02  0.41867758121E+03 -0.76008598827E+03  0.86965938460E+03  0.51100000000E-03 0.  1.
    -200002    1    4    4    0    0 -0.73324714401E+01  0.20879703605E+03 -0.45104029884E+03  0.49798325130E+03  0.30000000000E+02 0.  1.
    -200000    1    3    3    0    0 -0.13448612773E+03 -0.11364293119E+02 -0.70229221787E+02  0.18261656360E+03  0.10100000000E+03 0. -1.
<mgrwt>
<rscale>  0 0.17873640E+04</rscale>
<asrwt>0</asrwt>
<pdfrwt beam="1">  1        2 0.33320049E+00 0.17873640E+04</pdfrwt>
<pdfrwt beam="2">  1       -2 0.48917508E-01 0.17873640E+04</pdfrwt>
<totfact> 0.20243250E+01</totfact>
</mgrwt>
</event>
<event>
 8    2  0.7237260E-052  0.1320958E+04  0.7818608E-02  0.9013109E-01
          2   -1    0    0  501    0  0.00000000000E+00  0.00000000000E+00  0.16870951498E+04  0.16870951498E+04  0.25500000000E-02 0.  1.
         -2   -1    0    0    0  501 -0.00000000000E+00 -0.00000000000E+00 -0.25857012828E+03  0.25857012829E+03  0.25500000000E-02 0. -1.
    -200001    2    1    2    0    0  0.71639053977E+02 -0.17478948388E+03  0.94632149144E+03  0.11431861431E+04  0.61291653167E+03 0.  0.
   -5000001    2    3    3    0    0 -0.21861593546E+03 -0.10904133952E+03  0.18431941761E+03  0.31891741388E+03  0.89731422643E+02 0.  0.
     200001    1    1    2    0    0 -0.71639053977E+02  0.17478948388E+03  0.48220353006E+03  0.80247913501E+03  0.61300000000E+03 0.  1.
         11    1    4    4    0    0 -0.48474199595E+02  0.11181190069E+02  0.33277063083E+02  0.59850897783E+02  0.51100000000E-03 0.  1.
    -200002    1    4    4    0    0 -0.17014173586E+03 -0.12022252959E+03  0.15104235453E+03  0.25906651610E+03  0.30000000000E+02 0.  1.
    -200000    1    3    3    0    0  0.29025498943E+03 -0.65748144361E+02  0.76200207383E+03  0.82426872918E+03  0.10100000000E+03 0.  1.
<mgrwt>
<rscale>  0 0.13209578E+04</rscale>
<asrwt>0</asrwt>
<pdfrwt beam="1">  1        2 0.24101360E+00 0.13209578E+04</pdfrwt>
<pdfrwt beam="2">  1       -2 0.36938589E-01 0.13209578E+04</pdfrwt>
<totfact> 0.78749082E+01</totfact>
</mgrwt>
</event>
<event>
 8    2  0.7237260E-052  0.1541541E+04  0.7818608E-02  0.8857289E-01
          2   -1    0    0  501    0  0.00000000000E+00  0.00000000000E+00  0.87887137872E+03  0.87887137872E+03  0.25500000000E-02 0.  1.
         -2   -1    0    0    0  501 -0.00000000000E+00 -0.00000000000E+00 -0.67596641745E+03  0.67596641746E+03  0.25500000000E-02 0. -1.
    -200001    2    1    2    0    0  0.22031833347E+03  0.56787683158E+02  0.51327523863E+03  0.83105349261E+03  0.61272622595E+03 0.  0.
   -5000001    2    3    3    0    0 -0.61116078207E+02  0.10139492678E+03  0.84605562147E+02  0.30650242189E+03  0.26975827566E+03 0.  0.
     200001    1    1    2    0    0 -0.22031833347E+03 -0.56787683158E+02 -0.31037027737E+03  0.72378430357E+03  0.61300000000E+03 0. -1.
         11    1    4    4    0    0  0.94444721910E+02 -0.16033000950E+02  0.12860929191E+02  0.96655398794E+02  0.51100000000E-03 0.  1.
    -200002    1    4    4    0    0 -0.15556080012E+03  0.11742792773E+03  0.71744632956E+02  0.20984702309E+03  0.30000000000E+02 0.  1.
    -200000    1    3    3    0    0  0.28143441167E+03 -0.44607243617E+02  0.42866967649E+03  0.52455107072E+03  0.10100000000E+03 0.  1.
<mgrwt>
<rscale>  0 0.15415415E+04</rscale>
<asrwt>0</asrwt>
<pdfrwt beam="1">  1        2 0.12555305E+00 0.15415415E+04</pdfrwt>
<pdfrwt beam="2">  1       -2 0.96566632E-01 0.15415415E+04</pdfrwt>
<totfact> 0.29077280E+01</totfact>
</mgrwt>
</event>
<event>
 8    2  0.7237260E-052  0.1247914E+04  0.7818608E-02  0.9071921E-01
         -2   -1    0    0    0  501 -0.00000000000E+00  0.00000000000E+00  0.19593235596E+03  0.19593235597E+03  0.25500000000E-02 0. -1.
          2   -1    0    0  501    0  0.00000000000E+00 -0.00000000000E+00 -0.19870234212E+04  0.19870234212E+04  0.25500000000E-02 0.  1.
    -200001    2    1    2    0    0 -0.11477806664E+03  0.19964149724E+02 -0.90897531526E+03  0.11024606276E+04  0.61287089981E+03 0.  0.
   -5000001    2    3    3    0    0  0.77429982842E+02 -0.22026294926E+03 -0.62412509792E+03  0.67119082844E+03  0.80335678634E+02 0.  0.
     200001    1    1    2    0    0  0.11477806664E+03 -0.19964149724E+02 -0.88211575000E+03  0.10804951496E+04  0.61300000000E+03 0. -1.
         11    1    4    4    0    0  0.12493316176E+02 -0.15831364276E+02 -0.13176091021E+03  0.13329535815E+03  0.51100000000E-03 0.  1.
    -200002    1    4    4    0    0  0.64936666665E+02 -0.20443158498E+03 -0.49236418771E+03  0.53789547029E+03  0.30000000000E+02 0.  1.
    -200000    1    3    3    0    0 -0.19220804948E+03  0.24022709898E+03 -0.28485021733E+03  0.43126979918E+03  0.10100000000E+03 0. -1.
<mgrwt>
<rscale>  0 0.12479137E+04</rscale>
<asrwt>0</asrwt>
<pdfrwt beam="1">  1        2 0.28386048E+00 0.12479137E+04</pdfrwt>
<pdfrwt beam="2">  1       -2 0.27990338E-01 0.12479137E+04</pdfrwt>
<totfact> 0.93528208E+01</totfact>
</mgrwt>
</event>
<event>
 8    2  0.7237260E-052  0.1287227E+04  0.7818608E-02  0.9039756E-01
          2   -1    0    0  501    0  0.00000000000E+00  0.00000000000E+00  0.16679723257E+04  0.16679723257E+04  0.25500000000E-02 0.  1.
         -2   -1    0    0    0  501 -0.00000000000E+00 -0.00000000000E+00 -0.24834844110E+03  0.24834844111E+03  0.25500000000E-02 0. -1.
    -200001    2    1    2    0    0 -0.72891548069E+01 -0.92824145760E+02  0.44977655162E+03  0.76521594834E+03  0.61203516843E+03 0.  0.
   -5000001    2    3    3    0    0 -0.11012483220E+03 -0.28263127957E+03  0.81817512768E+02  0.32681341772E+03  0.90027694333E+02 0.  0.
     200001    1    1    2    0    0  0.72891548069E+01  0.92824145760E+02  0.96984733303E+03  0.11511048185E+04  0.61300000000E+03 0.  1.
         11    1    4    4    0    0  0.11051754156E+02 -0.54075038144E+01  0.18841575815E+01  0.12447185123E+02  0.51100000000E-03 0.  1.
    -200002    1    4    4    0    0 -0.12117658635E+03 -0.27722377575E+03  0.79933355187E+02  0.31436623259E+03  0.30000000000E+02 0.  1.
    -200000    1    3    3    0    0  0.10283567739E+03  0.18980713381E+03  0.36795903885E+03  0.43840253063E+03  0.10100000000E+03 0.  1.
<mgrwt>
<rscale>  0 0.12872270E+04</rscale>
<asrwt>0</asrwt>
<pdfrwt beam="1">  1        2 0.23828176E+00 0.12872270E+04</pdfrwt>
<pdfrwt beam="2">  1       -2 0.35478348E-01 0.12872270E+04</pdfrwt>
<totfact> 0.87273296E+01</totfact>
</mgrwt>
</event>
<event>
 8    2  0.7237260E-052  0.1404132E+04  0.7818608E-02  0.8950833E-01
          2   -1    0    0  501    0  0.00000000000E+00  0.00000000000E+00  0.78769027028E+03  0.78769027029E+03  0.25500000000E-02 0.  1.
         -2   -1    0    0    0  501 -0.00000000000E+00 -0.00000000000E+00 -0.62574894905E+03  0.62574894905E+03  0.25500000000E-02 0. -1.
    -200001    2    1    2    0    0 -0.12524568829E+02  0.63195480285E+02 -0.25718267531E+03  0.66806383872E+03  0.61320129695E+03 0.  0.
   -5000001    2    3    3    0    0 -0.17263738783E+03 -0.18008267397E+03  0.38682979762E+01  0.26412202881E+03  0.86672055646E+02 0.  0.
     200001    1    1    2    0    0  0.12524568829E+02 -0.63195480285E+02  0.41912399655E+03  0.74537538062E+03  0.61300000000E+03 0.  1.
         11    1    4    4    0    0 -0.16902670989E+02  0.91631908992E+00  0.15824192421E+02  0.23172073565E+02  0.51100000000E-03 0.  1.
    -200002    1    4    4    0    0 -0.15573471684E+03 -0.18099899306E+03 -0.11955894445E+02  0.24094995524E+03  0.30000000000E+02 0. -1.
    -200000    1    3    3    0    0  0.16011281900E+03  0.24327815426E+03 -0.26105097328E+03  0.40394180992E+03  0.10100000000E+03 0. -1.
<mgrwt>
<rscale>  0 0.14041316E+04</rscale>
<asrwt>0</asrwt>
<pdfrwt beam="1">  1        2 0.11252718E+00 0.14041316E+04</pdfrwt>
<pdfrwt beam="2">  1       -2 0.89392707E-01 0.14041316E+04</pdfrwt>
<totfact> 0.40581730E+01</totfact>
</mgrwt>
</event>
<event>
 8    2  0.7237260E-052  0.1782720E+04  0.7818608E-02  0.8715543E-01
         -2   -1    0    0    0  501 -0.00000000000E+00  0.00000000000E+00  0.19441000845E+04  0.19441000845E+04  0.25500000000E-02 0. -1.
          2   -1    0    0  501    0  0.00000000000E+00 -0.00000000000E+00 -0.40868415277E+03  0.40868415277E+03  0.25500000000E-02 0.  1.
    -200001    2    1    2    0    0  0.39402848023E+03  0.51007717897E+03  0.84581701048E+03  0.12272830849E+04  0.61268277569E+03 0.  0.
   -5000001    2    3    3    0    0  0.53350247047E+03  0.29568058815E+03  0.58577150727E+03  0.84880778080E+03  0.72763272343E+02 0.  0.
     200001    1    1    2    0    0 -0.39402848023E+03 -0.51007717897E+03  0.68959892127E+03  0.11255011524E+04  0.61300000000E+03 0. -1.
         11    1    4    4    0    0  0.10482650860E+03  0.58328925687E+02  0.81420205172E+02  0.14498313794E+03  0.51100000000E-03 0.  1.
    -200002    1    4    4    0    0  0.42867596187E+03  0.23735166247E+03  0.50435130210E+03  0.70382464286E+03  0.30000000000E+02 0.  1.
    -200000    1    3    3    0    0 -0.13947399024E+03  0.21439659082E+03  0.26004550321E+03  0.37847530414E+03  0.10100000000E+03 0. -1.
<mgrwt>
<rscale>  0 0.17827203E+04</rscale>
<asrwt>0</asrwt>
<pdfrwt beam="1">  1        2 0.58383452E-01 0.17827203E+04</pdfrwt>
<pdfrwt beam="2">  1       -2 0.27772858E+00 0.17827203E+04</pdfrwt>
<totfact> 0.34823978E+00</totfact>
</mgrwt>
</event>
<event>
 8    2  0.7237260E-052  0.1582546E+04  0.7818608E-02  0.8831343E-01
         -2   -1    0    0    0  501 -0.00000000000E+00  0.00000000000E+00  0.52515801144E+03  0.52515801144E+03  0.25500000000E-02 0. -1.
          2   -1    0    0  501    0  0.00000000000E+00 -0.00000000000E+00 -0.11922371259E+04  0.11922371259E+04  0.25500000000E-02 0.  1.
    -200001    2    1    2    0    0  0.81319632287E+02  0.28669834585E+03 -0.76970821138E+03  0.10281124989E+04  0.61298919706E+03 0.  0.
   -5000001    2    3    3    0    0  0.91253497660E+02 -0.17507874291E+03 -0.23060017981E+03  0.31105236821E+03  0.67803877366E+02 0.  0.
     200001    1    1    2    0    0 -0.81319632287E+02 -0.28669834585E+03  0.10262909689E+03  0.68928263843E+03  0.61300000000E+03 0. -1.
         11    1    4    4    0    0  0.35724693248E+02 -0.25837539132E+02 -0.71254737353E+02  0.83791823775E+02  0.51100000000E-03 0.  1.
    -200002    1    4    4    0    0  0.55528804412E+02 -0.14924120378E+03 -0.15934544246E+03  0.22726054443E+03  0.30000000000E+02 0.  1.
    -200000    1    3    3    0    0 -0.99338653728E+01  0.46177708876E+03 -0.53910803157E+03  0.71706013073E+03  0.10100000000E+03 0. -1.
<mgrwt>
<rscale>  0 0.15825459E+04</rscale>
<asrwt>0</asrwt>
<pdfrwt beam="1">  1        2 0.17031959E+00 0.15825459E+04</pdfrwt>
<pdfrwt beam="2">  1       -2 0.75022574E-01 0.15825459E+04</pdfrwt>
<totfact> 0.33156403E+01</totfact>
</mgrwt>
</event>
<event>
 8    2  0.7237260E-052  0.2350413E+04  0.7818608E-02  0.8458305E-01
          2   -1    0    0  501    0  0.00000000000E+00  0.00000000000E+00  0.27399253647E+04  0.27399253647E+04  0.25500000000E-02 0.  1.
         -2   -1    0    0    0  501 -0.00000000000E+00 -0.00000000000E+00 -0.50406872417E+03  0.50406872417E+03  0.25500000000E-02 0. -1.
    -200001    2    1    2    0    0 -0.53915151879E+03  0.83768150304E+03  0.12742237238E+04  0.17297611057E+04  0.61321507145E+03 0.  0.
   -5000001    2    3    3    0    0 -0.20441249442E+03  0.54950012307E+03  0.31716215892E+03  0.67086235648E+03  0.75694208289E+02 0.  0.
     200001    1    1    2    0    0  0.53915151879E+03 -0.83768150304E+03  0.96163291679E+03  0.15142329832E+04  0.61300000000E+03 0.  1.
         11    1    4    4    0    0 -0.50188850276E+02  0.96487814371E+02  0.33726395295E+02  0.11386961295E+03  0.51100000000E-03 0.  1.
    -200002    1    4    4    0    0 -0.15422364415E+03  0.45301230870E+03  0.28343576363E+03  0.55699274353E+03  0.30000000000E+02 0.  1.
    -200000    1    3    3    0    0 -0.33473902437E+03  0.28818137998E+03  0.95706156485E+03  0.10588987492E+04  0.10100000000E+03 0.  1.
<mgrwt>
<rscale>  0 0.23504133E+04</rscale>
<asrwt>0</asrwt>
<pdfrwt beam="1">  1        2 0.39141791E+00 0.23504133E+04</pdfrwt>
<pdfrwt beam="2">  1       -2 0.72009817E-01 0.23504133E+04</pdfrwt>
<totfact> 0.51994931E+00</totfact>
</mgrwt>
</event>
<event>
 8    2  0.7237260E-052  0.1444656E+04  0.7818608E-02  0.8922114E-01
         -2   -1    0    0    0  501 -0.00000000000E+00  0.00000000000E+00  0.39168217180E+03  0.39168217181E+03  0.25500000000E-02 0. -1.
          2   -1    0    0  501    0  0.00000000000E+00 -0.00000000000E+00 -0.13320951590E+04  0.13320951590E+04  0.25500000000E-02 0.  1.
    -200001    2    1    2    0    0 -0.19597396659E+03  0.16101758274E+03 -0.12933021461E+03  0.67594303022E+03  0.61305808710E+03 0.  0.
   -5000001    2    3    3    0    0  0.44883591989E+02 -0.14310278457E+03  0.72440153611E+02  0.22715149417E+03  0.15445802557E+03 0.  0.
     200001    1    1    2    0    0  0.19597396659E+03 -0.16101758274E+03 -0.81108277262E+03  0.10478343006E+04  0.61300000000E+03 0.  1.
         11    1    4    4    0    0  0.92624772866E+02 -0.99072210824E+02  0.76100583302E+02  0.15551832781E+03  0.51100000000E-03 0.  1.
    -200002    1    4    4    0    0 -0.47741180877E+02 -0.44030573751E+02 -0.36604296911E+01  0.71633166354E+02  0.30000000000E+02 0.  1.
    -200000    1    3    3    0    0 -0.24085755858E+03  0.30412036732E+03 -0.20177036823E+03  0.44879153605E+03  0.10100000000E+03 0.  1.
<mgrwt>
<rscale>  0 0.14446563E+04</rscale>
<asrwt>0</asrwt>
<pdfrwt beam="1">  1        2 0.19029931E+00 0.14446563E+04</pdfrwt>
<pdfrwt beam="2">  1       -2 0.55954597E-01 0.14446563E+04</pdfrwt>
<totfact> 0.52504181E+01</totfact>
</mgrwt>
</event>
<event>
 8    2  0.7237260E-052  0.1499551E+04  0.7818608E-02  0.8884751E-01
         -2   -1    0    0    0  501 -0.00000000000E+00  0.00000000000E+00  0.32568064348E+03  0.32568064349E+03  0.25500000000E-02 0. -1.
          2   -1    0    0  501    0  0.00000000000E+00 -0.00000000000E+00 -0.17261190037E+04  0.17261190037E+04  0.25500000000E-02 0.  1.
    -200001    2    1    2    0    0 -0.21743074948E+03  0.15125206446E+03 -0.11663943317E+04  0.13441988239E+04  0.61338521618E+03 0.  0.
   -5000001    2    3    3    0    0 -0.34958790649E+03 -0.84342187390E+02 -0.77507301388E+03  0.85808819925E+03  0.79068779573E+02 0.  0.
     200001    1    1    2    0    0  0.21743074948E+03 -0.15125206446E+03 -0.23404402854E+03  0.70760082329E+03  0.61300000000E+03 0. -1.
         11    1    4    4    0    0 -0.12226539043E+03 -0.54942275930E+02 -0.23346809864E+03  0.26921150136E+03  0.51100000000E-03 0.  1.
    -200002    1    4    4    0    0 -0.22732251606E+03 -0.29399911461E+02 -0.54160491524E+03  0.58887669789E+03  0.30000000000E+02 0.  1.
    -200000    1    3    3    0    0  0.13215715701E+03  0.23559425185E+03 -0.39132131783E+03  0.48611062469E+03  0.10100000000E+03 0.  1.
<mgrwt>
<rscale>  0 0.14995513E+04</rscale>
<asrwt>0</asrwt>
<pdfrwt beam="1">  1        2 0.24658842E+00 0.14995513E+04</pdfrwt>
<pdfrwt beam="2">  1       -2 0.46525807E-01 0.14995513E+04</pdfrwt>
<totfact> 0.47101184E+01</totfact>
</mgrwt>
</event>
<event>
 8    2  0.7237260E-052  0.1873946E+04  0.7818608E-02  0.8667935E-01
         -2   -1    0    0    0  501 -0.00000000000E+00  0.00000000000E+00  0.35624891451E+03  0.35624891452E+03  0.25500000000E-02 0. -1.
          2   -1    0    0  501    0  0.00000000000E+00 -0.00000000000E+00 -0.24643405498E+04  0.24643405498E+04  0.25500000000E-02 0.  1.
    -200001    2    1    2    0    0  0.42650545336E+03  0.27586501917E+03 -0.30997144076E+03  0.85411707841E+03  0.61271957615E+03 0.  0.
   -5000001    2    3    3    0    0  0.28514915234E+03  0.44662758896E+03 -0.28511754481E+03  0.60924940961E+03  0.95428436270E+02 0.  0.
     200001    1    1    2    0    0 -0.42650545336E+03 -0.27586501917E+03 -0.17981201945E+04  0.19664723859E+04  0.61300000000E+03 0.  1.
         11    1    4    4    0    0  0.16461335168E+03  0.17793773047E+03 -0.12763155518E+03  0.27395110030E+03  0.51100000000E-03 0.  1.
    -200002    1    4    4    0    0  0.12053580066E+03  0.26868985849E+03 -0.15748598962E+03  0.33529830931E+03  0.30000000000E+02 0.  1.
    -200000    1    3    3    0    0  0.14135630103E+03 -0.17076256979E+03 -0.24853895953E+02  0.24486766880E+03  0.10100000000E+03 0.  1.
<mgrwt>
<rscale>  0 0.18739463E+04</rscale>
<asrwt>0</asrwt>
<pdfrwt beam="1">  1        2 0.35204864E+00 0.18739463E+04</pdfrwt>
<pdfrwt beam="2">  1       -2 0.50892703E-01 0.18739463E+04</pdfrwt>
<totfact> 0.15819881E+01</totfact>
</mgrwt>
</event>
<event>
 8    2  0.7237260E-052  0.1962728E+04  0.7818608E-02  0.8624248E-01
          2   -1    0    0  501    0  0.00000000000E+00  0.00000000000E+00  0.38230215293E+04  0.38230215293E+04  0.25500000000E-02 0.  1.
         -2   -1    0    0    0  501 -0.00000000000E+00 -0.00000000000E+00 -0.25191460995E+03  0.25191460996E+03  0.25500000000E-02 0. -1.
    -200001    2    1    2    0    0 -0.50424065153E+03  0.55751597361E+03  0.14745876033E+04  0.17649047676E+04  0.61269694255E+03 0.  0.
   -5000001    2    3    3    0    0 -0.45376872036E+03  0.11498952983E+03  0.98194296890E+03  0.10931333741E+04  0.10770299871E+03 0.  0.
     200001    1    1    2    0    0  0.50424065153E+03 -0.55751597361E+03  0.20965193160E+04  0.23100313716E+04  0.61300000000E+03 0.  1.
         11    1    4    4    0    0 -0.27165547726E+03  0.19076162999E+02  0.56117130402E+03  0.62375783023E+03  0.51100000000E-03 0.  1.
    -200002    1    4    4    0    0 -0.18211324310E+03  0.95913366834E+02  0.42077166488E+03  0.46937554391E+03  0.30000000000E+02 0.  1.
    -200000    1    3    3    0    0 -0.50471931170E+02  0.44252644377E+03  0.49264463440E+03  0.67177139346E+03  0.10100000000E+03 0.  1.
<mgrwt>
<rscale>  0 0.19627277E+04</rscale>
<asrwt>0</asrwt>
<pdfrwt beam="1">  1        2 0.54614596E+00 0.19627277E+04</pdfrwt>
<pdfrwt beam="2">  1       -2 0.35987800E-01 0.19627277E+04</pdfrwt>
<totfact> 0.51190262E+00</totfact>
</mgrwt>
</event>
<event>
 8    2  0.7237260E-052  0.1646529E+04  0.7818608E-02  0.8792463E-01
          2   -1    0    0  501    0  0.00000000000E+00  0.00000000000E+00  0.16849689051E+04  0.16849689051E+04  0.25500000000E-02 0.  1.
         -2   -1    0    0    0  501 -0.00000000000E+00 -0.00000000000E+00 -0.40224148119E+03  0.40224148120E+03  0.25500000000E-02 0. -1.
    -200001    2    1    2    0    0 -0.23348702966E+03 -0.46848485209E+03  0.42634961008E+03  0.91113802048E+03  0.61188581671E+03 0.  0.
   -5000001    2    3    3    0    0  0.13305762867E+02 -0.37091750173E+03 -0.24264109866E+02  0.37852202851E+03  0.70237757811E+02 0.  0.
     200001    1    1    2    0    0  0.23348702966E+03  0.46848485209E+03  0.85637781385E+03  0.11760723658E+04  0.61300000000E+03 0.  1.
         11    1    4    4    0    0  0.24443073003E+02 -0.19075269056E+03  0.90688812801E+01  0.19252609533E+03  0.51100000000E-03 0.  1.
    -200002    1    4    4    0    0 -0.11137310136E+02 -0.18016481117E+03 -0.33332991146E+02  0.18599593319E+03  0.30000000000E+02 0.  1.
    -200000    1    3    3    0    0 -0.24679279253E+03 -0.97567350354E+02  0.45061371995E+03  0.53261599197E+03  0.10100000000E+03 0.  1.
<mgrwt>
<rscale>  0 0.16465289E+04</rscale>
<asrwt>0</asrwt>
<pdfrwt beam="1">  1        2 0.24070985E+00 0.16465289E+04</pdfrwt>
<pdfrwt beam="2">  1       -2 0.57463068E-01 0.16465289E+04</pdfrwt>
<totfact> 0.31724994E+01</totfact>
</mgrwt>
</event>
<event>
 8    2  0.7237260E-052  0.1307050E+04  0.7818608E-02  0.9023993E-01
         -2   -1    0    0    0  501 -0.00000000000E+00  0.00000000000E+00  0.19869639989E+03  0.19869639990E+03  0.25500000000E-02 0. -1.
          2   -1    0    0  501    0  0.00000000000E+00 -0.00000000000E+00 -0.21494840714E+04  0.21494840714E+04  0.25500000000E-02 0.  1.
    -200001    2    1    2    0    0 -0.16431524648E+03 -0.60844319884E+02 -0.70975634335E+03  0.95296389709E+03  0.61129746503E+03 0.  0.
   -5000001    2    3    3    0    0 -0.33536107883E+03  0.12008697184E+03 -0.44128001191E+03  0.57313057887E+03  0.82841279106E+02 0.  0.
     200001    1    1    2    0    0  0.16431524648E+03  0.60844319884E+02 -0.12410313282E+04  0.13952165743E+04  0.61300000000E+03 0.  1.
         11    1    4    4    0    0 -0.25303305277E+03  0.11182316432E+03 -0.31537714858E+03  0.41951506734E+03  0.51100000000E-03 0.  1.
    -200002    1    4    4    0    0 -0.82328026060E+02  0.82638075155E+01 -0.12590286332E+03  0.15361551153E+03  0.30000000000E+02 0.  1.
    -200000    1    3    3    0    0  0.17104583235E+03 -0.18093129172E+03 -0.26847633144E+03  0.37983331822E+03  0.10100000000E+03 0. -1.
<mgrwt>
<rscale>  0 0.13070497E+04</rscale>
<asrwt>0</asrwt>
<pdfrwt beam="1">  1        2 0.30706914E+00 0.13070497E+04</pdfrwt>
<pdfrwt beam="2">  1       -2 0.28385201E-01 0.13070497E+04</pdfrwt>
<totfact> 0.74895230E+01</totfact>
</mgrwt>
</event>
<event>
 8    2  0.7237260E-052  0.1363147E+04  0.7818608E-02  0.8980935E-01
         -2   -1    0    0    0  501 -0.00000000000E+00  0.00000000000E+00  0.31660042811E+03  0.31660042812E+03  0.25500000000E-02 0. -1.
          2   -1    0    0  501    0  0.00000000000E+00 -0.00000000000E+00 -0.14672839093E+04  0.14672839093E+04  0.25500000000E-02 0.  1.
    -200001    2    1    2    0    0  0.24199228203E+03  0.83877864351E+02 -0.37858746525E+03  0.76530836161E+03  0.61381809913E+03 0.  0.
   -5000001    2    3    3    0    0 -0.12864854341E+03 -0.11283879152E+03 -0.25250136791E+03  0.31567432361E+03  0.81303734205E+02 0.  0.
     200001    1    1    2    0    0 -0.24199228203E+03 -0.83877864351E+02 -0.77209601597E+03  0.10185759758E+04  0.61300000000E+03 0.  1.
         11    1    4    4    0    0 -0.80010620891E+02 -0.93744401453E+02 -0.12987469574E+03  0.17904510285E+03  0.51100000000E-03 0.  1.
    -200002    1    4    4    0    0 -0.48637922523E+02 -0.19094390071E+02 -0.12262667217E+03  0.13662922076E+03  0.30000000000E+02 0.  1.
    -200000    1    3    3    0    0  0.37064082545E+03  0.19671665587E+03 -0.12608609734E+03  0.44963403800E+03  0.10100000000E+03 0. -1.
<mgrwt>
<rscale>  0 0.13631474E+04</rscale>
<asrwt>0</asrwt>
<pdfrwt beam="1">  1        2 0.20961198E+00 0.13631474E+04</pdfrwt>
<pdfrwt beam="2">  1       -2 0.45228633E-01 0.13631474E+04</pdfrwt>
<totfact> 0.68881662E+01</totfact>
</mgrwt>
</event>
<event>
 8    2  0.7237260E-052  0.1866668E+04  0.7818608E-02  0.8671628E-01
         -2   -1    0    0    0  501 -0.00000000000E+00  0.00000000000E+00  0.49723056346E+03  0.49723056347E+03  0.25500000000E-02 0. -1.
          2   -1    0    0  501    0  0.00000000000E+00 -0.00000000000E+00 -0.17519285279E+04  0.17519285279E+04  0.25500000000E-02 0.  1.
    -200001    2    1    2    0    0 -0.28035377202E+03  0.30184483515E+03 -0.13152137189E+04  0.15081194848E+04  0.61231422653E+03 0.  0.
   -5000001    2    3    3    0    0 -0.42862414418E+03  0.31316620360E+03 -0.81498301845E+03  0.97657077552E+03  0.87757798466E+02 0.  0.
     200001    1    1    2    0    0  0.28035377202E+03 -0.30184483515E+03  0.60515754460E+02  0.74103960659E+03  0.61300000000E+03 0. -1.
         11    1    4    4    0    0 -0.15152713882E+02  0.36056190131E+02 -0.67956942458E+02  0.78407905299E+02  0.51100000000E-03 0.  1.
    -200002    1    4    4    0    0 -0.41347143030E+03  0.27711001347E+03 -0.74702607599E+03  0.89816287023E+03  0.30000000000E+02 0.  1.
    -200000    1    3    3    0    0  0.14827037216E+03 -0.11321368453E+02 -0.50023070048E+03  0.53154870929E+03  0.10100000000E+03 0.  1.
<mgrwt>
<rscale>  0 0.18666681E+04</rscale>
<asrwt>0</asrwt>
<pdfrwt beam="1">  1        2 0.25027550E+00 0.18666681E+04</pdfrwt>
<pdfrwt beam="2">  1       -2 0.71032939E-01 0.18666681E+04</pdfrwt>
<totfact> 0.18280034E+01</totfact>
</mgrwt>
</event>
<event>
 8    2  0.7237260E-052  0.2076545E+04  0.7818608E-02  0.8571646E-01
         -2   -1    0    0    0  501 -0.00000000000E+00  0.00000000000E+00  0.59074207549E+03  0.59074207550E+03  0.25500000000E-02 0. -1.
          2   -1    0    0  501    0  0.00000000000E+00 -0.00000000000E+00 -0.18248405136E+04  0.18248405136E+04  0.25500000000E-02 0.  1.
    -200001    2    1    2    0    0  0.44396983115E+03 -0.54886966208E+03 -0.91593858072E+02  0.93928558907E+03  0.61278125466E+03 0.  0.
   -5000001    2    3    3    0    0  0.16775377557E+03  0.60132468648E+02 -0.88420847549E+02  0.26297946564E+03  0.17199625014E+03 0.  0.
     200001    1    1    2    0    0 -0.44396983115E+03  0.54886966208E+03 -0.11425045800E+04  0.14762970000E+04  0.61300000000E+03 0.  1.
         11    1    4    4    0    0  0.13018872161E+03  0.68344264696E+01  0.21069737473E+02  0.13205963220E+03  0.51100000000E-03 0.  1.
    -200002    1    4    4    0    0  0.37565053965E+02  0.53298042178E+02 -0.10949058502E+03  0.13091983344E+03  0.30000000000E+02 0.  1.
    -200000    1    3    3    0    0  0.27621605558E+03 -0.60900213073E+03 -0.31730105237E+01  0.67630612343E+03  0.10100000000E+03 0. -1.
<mgrwt>
<rscale>  0 0.20765453E+04</rscale>
<asrwt>0</asrwt>
<pdfrwt beam="1">  1        2 0.26069150E+00 0.20765453E+04</pdfrwt>
<pdfrwt beam="2">  1       -2 0.84391726E-01 0.20765453E+04</pdfrwt>
<totfact> 0.11220335E+01</totfact>
</mgrwt>
</event>
<event>
 8    2  0.7237260E-052  0.2263199E+04  0.7818608E-02  0.8492574E-01
          2   -1    0    0  501    0  0.00000000000E+00  0.00000000000E+00  0.22670866265E+04  0.22670866265E+04  0.25500000000E-02 0.  1.
         -2   -1    0    0    0  501 -0.00000000000E+00 -0.00000000000E+00 -0.56482944946E+03  0.56482944947E+03  0.25500000000E-02 0. -1.
    -200001    2    1    2    0    0  0.95576756196E+02 -0.85647471181E+03  0.34364561349E+03  0.11102081365E+04  0.60974252789E+03 0.  0.
   -5000001    2    3    3    0    0  0.23431641388E+03 -0.77107845671E+03  0.12754526225E+03  0.82134558298E+03  0.94205119513E+02 0.  0.
     200001    1    1    2    0    0 -0.95576756196E+02  0.85647471181E+03  0.13586115635E+04  0.17217079394E+04  0.61300000000E+03 0.  1.
         11    1    4    4    0    0  0.94305042081E+02 -0.18936688650E+03  0.17762706072E+02  0.21229407056E+03  0.51100000000E-03 0.  1.
    -200002    1    4    4    0    0  0.14001137180E+03 -0.58171157021E+03  0.10978255618E+03  0.60905151243E+03  0.30000000000E+02 0.  1.
    -200000    1    3    3    0    0 -0.13873965769E+03 -0.85396255093E+02  0.21610035124E+03  0.28886255348E+03  0.10100000000E+03 0.  1.
<mgrwt>
<rscale>  0 0.22631989E+04</rscale>
<asrwt>0</asrwt>
<pdfrwt beam="1">  1        2 0.32386953E+00 0.22631989E+04</pdfrwt>
<pdfrwt beam="2">  1       -2 0.80689919E-01 0.22631989E+04</pdfrwt>
<totfact> 0.72305690E+00</totfact>
</mgrwt>
</event>
<event>
 8    2  0.7237260E-052  0.1876400E+04  0.7818608E-02  0.8666693E-01
         -2   -1    0    0    0  501 -0.00000000000E+00  0.00000000000E+00  0.58616255440E+03  0.58616255440E+03  0.25500000000E-02 0.  1.
          2   -1    0    0  501    0  0.00000000000E+00 -0.00000000000E+00 -0.15016645839E+04  0.15016645839E+04  0.25500000000E-02 0. -1.
    -200001    2    1    2    0    0  0.26928369454E+03  0.61293785852E+03 -0.72164913548E+03  0.11596275525E+04  0.61298618194E+03 0.  0.
   -5000001    2    3    3    0    0  0.13058926294E+03  0.95893702369E+02  0.66755404103E+02  0.20131991777E+03  0.99117443290E+02 0.  0.
     200001    1    1    2    0    0 -0.26928369454E+03 -0.61293785852E+03 -0.19385289402E+03  0.92819958580E+03  0.61300000000E+03 0.  1.
         11    1    4    4    0    0  0.12596103066E+03  0.62421088698E+02  0.67900538045E+02  0.15611872606E+03  0.51100000000E-03 0.  1.
    -200002    1    4    4    0    0  0.46282322755E+01  0.33472613671E+02 -0.11451339421E+01  0.45201191707E+02  0.30000000000E+02 0.  1.
    -200000    1    3    3    0    0  0.13869443160E+03  0.51704415615E+03 -0.78840453959E+03  0.95830763474E+03  0.10100000000E+03 0. -1.
<mgrwt>
<rscale>  0 0.18764003E+04</rscale>
<asrwt>0</asrwt>
<pdfrwt beam="1">  1        2 0.21452351E+00 0.18764003E+04</pdfrwt>
<pdfrwt beam="2">  1       -2 0.83737508E-01 0.18764003E+04</pdfrwt>
<totfact> 0.17124882E+01</totfact>
</mgrwt>
</event>
<event>
 8    2  0.7237260E-052  0.1463817E+04  0.7818608E-02  0.8908877E-01
          2   -1    0    0  501    0  0.00000000000E+00  0.00000000000E+00  0.10128759061E+04  0.10128759061E+04  0.25500000000E-02 0.  1.
         -2   -1    0    0    0  501 -0.00000000000E+00 -0.00000000000E+00 -0.52887995577E+03  0.52887995578E+03  0.25500000000E-02 0. -1.
    -200001    2    1    2    0    0 -0.17957447863E+03 -0.23577303133E+03  0.52441097446E+03  0.85967207682E+03  0.61334598218E+03 0.  0.
   -5000001    2    3    3    0    0  0.43966527386E+02  0.24596552788E+02 -0.78757691450E+02  0.15840440949E+03  0.12787156464E+03 0.  0.
     200001    1    1    2    0    0  0.17957447863E+03  0.23577303133E+03 -0.40415024130E+02  0.68208378507E+03  0.61300000000E+03 0. -1.
         11    1    4    4    0    0  0.53678055889E+02  0.65060704513E+02 -0.61099038960E+02  0.10415047536E+03  0.51100000000E-03 0.  1.
    -200002    1    4    4    0    0 -0.97115285032E+01 -0.40464151725E+02 -0.17658652490E+02  0.54253934129E+02  0.30000000000E+02 0.  1.
    -200000    1    3    3    0    0 -0.22354100602E+03 -0.26036958412E+03  0.60316866591E+03  0.70126766733E+03  0.10100000000E+03 0. -1.
<mgrwt>
<rscale>  0 0.14638166E+04</rscale>
<asrwt>0</asrwt>
<pdfrwt beam="1">  1        2 0.14469656E+00 0.14638166E+04</pdfrwt>
<pdfrwt beam="2">  1       -2 0.75554280E-01 0.14638166E+04</pdfrwt>
<totfact> 0.42046198E+01</totfact>
</mgrwt>
</event>
<event>
 8    2  0.7237260E-052  0.1739630E+04  0.7818608E-02  0.8739079E-01
         -2   -1    0    0    0  501 -0.00000000000E+00  0.00000000000E+00  0.89110955421E+03  0.89110955421E+03  0.25500000000E-02 0. -1.
          2   -1    0    0  501    0  0.00000000000E+00 -0.00000000000E+00 -0.84902904754E+03  0.84902904754E+03  0.25500000000E-02 0.  1.
    -200001    2    1    2    0    0 -0.21921636312E+03 -0.56706551508E+03  0.12678244409E+03  0.87263498190E+03  0.61302439695E+03 0.  0.
   -5000001    2    3    3    0    0 -0.49795092181E+02 -0.16514794543E+03  0.32684503161E+03  0.38226028969E+03  0.97682441085E+02 0.  0.
     200001    1    1    2    0    0  0.21921636312E+03  0.56706551508E+03 -0.84701937418E+02  0.86750361985E+03  0.61300000000E+03 0.  1.
         11    1    4    4    0    0 -0.48495756329E+02 -0.86030817833E+02  0.10180781389E+03  0.14183783335E+03  0.51100000000E-03 0.  1.
    -200002    1    4    4    0    0 -0.12993358519E+01 -0.79117127600E+02  0.22503721772E+03  0.24042245634E+03  0.30000000000E+02 0.  1.
    -200000    1    3    3    0    0 -0.16942127094E+03 -0.40191756965E+03 -0.20006258753E+03  0.49037469222E+03  0.10100000000E+03 0.  1.
<mgrwt>
<rscale>  0 0.17396297E+04</rscale>
<asrwt>0</asrwt>
<pdfrwt beam="1">  1        2 0.12128986E+00 0.17396297E+04</pdfrwt>
<pdfrwt beam="2">  1       -2 0.12730137E+00 0.17396297E+04</pdfrwt>
<totfact> 0.15318028E+01</totfact>
</mgrwt>
</event>
<event>
 8    2  0.7237260E-052  0.1758652E+04  0.7818608E-02  0.8728602E-01
          2   -1    0    0  501    0  0.00000000000E+00  0.00000000000E+00  0.15564558932E+04  0.15564558932E+04  0.25500000000E-02 0.  1.
         -2   -1    0    0    0  501 -0.00000000000E+00 -0.00000000000E+00 -0.49677878970E+03  0.49677878970E+03  0.25500000000E-02 0. -1.
    -200001    2    1    2    0    0 -0.20533838185E+03 -0.37846174270E+03 -0.18098044601E+02  0.74069309818E+03  0.60241313458E+03 0.  0.
   -5000001    2    3    3    0    0 -0.35906180249E+03 -0.36257938395E+03 -0.12057539676E+03  0.52953972483E+03  0.74058802309E+02 0.  0.
     200001    1    1    2    0    0  0.20533838185E+03  0.37846174270E+03  0.10777751481E+04  0.13125415847E+04  0.61300000000E+03 0.  1.
         11    1    4    4    0    0 -0.28970024809E+03 -0.28622770109E+03 -0.10836500114E+03  0.42142081591E+03  0.51100000000E-03 0.  1.
    -200002    1    4    4    0    0 -0.69361554395E+02 -0.76351682861E+02 -0.12210395623E+02  0.10811890892E+03  0.30000000000E+02 0. -1.
    -200000    1    3    3    0    0  0.15372342063E+03 -0.15882358753E+02  0.10247735216E+03  0.21115337335E+03  0.10100000000E+03 0.  1.
<mgrwt>
<rscale>  0 0.17586521E+04</rscale>
<asrwt>0</asrwt>
<pdfrwt beam="1">  1        2 0.22235085E+00 0.17586521E+04</pdfrwt>
<pdfrwt beam="2">  1       -2 0.70968397E-01 0.17586521E+04</pdfrwt>
<totfact> 0.23375326E+01</totfact>
</mgrwt>
</event>
<event>
 8    2  0.7237260E-052  0.2025877E+04  0.7818608E-02  0.8594617E-01
         -2   -1    0    0    0  501 -0.00000000000E+00  0.00000000000E+00  0.20611844757E+03  0.20611844759E+03  0.25500000000E-02 0. -1.
          2   -1    0    0  501    0  0.00000000000E+00 -0.00000000000E+00 -0.49779368081E+04  0.49779368081E+04  0.25500000000E-02 0.  1.
    -200001    2    1    2    0    0 -0.27909802112E+03  0.50070416217E+03 -0.38365241456E+04  0.39274150399E+04  0.61406108215E+03 0.  0.
   -5000001    2    3    3    0    0  0.10327746600E+02  0.16719668013E+03 -0.26688256214E+04  0.26749313638E+04  0.67573746763E+02 0.  0.
     200001    1    1    2    0    0  0.27909802112E+03 -0.50070416217E+03 -0.93529421493E+03  0.12566402158E+04  0.61300000000E+03 0. -1.
         11    1    4    4    0    0 -0.60825181024E+01  0.42443612696E+02 -0.10791691879E+04  0.10800206449E+04  0.51100000000E-03 0.  1.
    -200002    1    4    4    0    0  0.16410264703E+02  0.12475306743E+03 -0.15896564335E+04  0.15949107189E+04  0.30000000000E+02 0.  1.
    -200000    1    3    3    0    0 -0.28942576772E+03  0.33350748205E+03 -0.11676985242E+04  0.12524836762E+04  0.10100000000E+03 0. -1.
<mgrwt>
<rscale>  0 0.20258772E+04</rscale>
<asrwt>0</asrwt>
<pdfrwt beam="1">  1        2 0.71113376E+00 0.20258772E+04</pdfrwt>
<pdfrwt beam="2">  1       -2 0.29445496E-01 0.20258772E+04</pdfrwt>
<totfact> 0.93080054E-01</totfact>
</mgrwt>
</event>
<event>
 8    2  0.7237260E-052  0.1304100E+04  0.7818608E-02  0.9026320E-01
         -2   -1    0    0    0  501 -0.00000000000E+00  0.00000000000E+00  0.14707910422E+03  0.14707910424E+03  0.25500000000E-02 0. -1.
          2   -1    0    0  501    0  0.00000000000E+00 -0.00000000000E+00 -0.28907504208E+04  0.28907504208E+04  0.25500000000E-02 0.  1.
    -200001    2    1    2    0    0 -0.49454248861E+02 -0.14768704326E+03 -0.10188848904E+04  0.12007355151E+04  0.61594007162E+03 0.  0.
   -5000001    2    3    3    0    0 -0.99552948553E+02  0.21710752958E+03 -0.40322930307E+03  0.47629244466E+03  0.84936170244E+02 0.  0.
     200001    1    1    2    0    0  0.49454248861E+02  0.14768704326E+03 -0.17247864262E+04  0.18370940100E+04  0.61300000000E+03 0.  1.
         11    1    4    4    0    0 -0.88845379802E+02  0.11324191785E+03 -0.24967493321E+03  0.28819230688E+03  0.51100000000E-03 0.  1.
    -200002    1    4    4    0    0 -0.10707568750E+02  0.10386561173E+03 -0.15355436986E+03  0.18810013778E+03  0.30000000000E+02 0. -1.
    -200000    1    3    3    0    0  0.50098699691E+02 -0.36479457284E+03 -0.61565558734E+03  0.72444307044E+03  0.10100000000E+03 0. -1.
<mgrwt>
<rscale>  0 0.13040997E+04</rscale>
<asrwt>0</asrwt>
<pdfrwt beam="1">  1        2 0.41296431E+00 0.13040997E+04</pdfrwt>
<pdfrwt beam="2">  1       -2 0.21011302E-01 0.13040997E+04</pdfrwt>
<totfact> 0.52494176E+01</totfact>
</mgrwt>
</event>
<event>
 8    2  0.7237260E-052  0.1247861E+04  0.7818608E-02  0.9071966E-01
          2   -1    0    0  501    0  0.00000000000E+00  0.00000000000E+00  0.12364743101E+04  0.12364743101E+04  0.25500000000E-02 0.  1.
         -2   -1    0    0    0  501 -0.00000000000E+00 -0.00000000000E+00 -0.31483797200E+03  0.31483797201E+03  0.25500000000E-02 0. -1.
    -200001    2    1    2    0    0 -0.78354409537E+02 -0.86646335135E+02  0.46121833500E+03  0.77581196716E+03  0.61279266883E+03 0.  0.
   -5000001    2    3    3    0    0 -0.22411823578E+03 -0.20518899664E+03  0.57576185745E+02  0.31927342520E+03  0.79303183567E+02 0.  0.
     200001    1    1    2    0    0  0.78354409537E+02  0.86646335135E+02  0.46041800307E+03  0.77550031492E+03  0.61300000000E+03 0. -1.
         11    1    4    4    0    0 -0.37270057463E+02 -0.31177964888E+02  0.37552474481E+02  0.61411000788E+02  0.51100000000E-03 0.  1.
    -200002    1    4    4    0    0 -0.18684817832E+03 -0.17401103175E+03  0.20023711264E+02  0.25786242442E+03  0.30000000000E+02 0.  1.
    -200000    1    3    3    0    0  0.14576382624E+03  0.11854266151E+03  0.40364214925E+03  0.45653854196E+03  0.10100000000E+03 0.  1.
<mgrwt>
<rscale>  0 0.12478607E+04</rscale>
<asrwt>0</asrwt>
<pdfrwt beam="1">  1        2 0.17663919E+00 0.12478607E+04</pdfrwt>
<pdfrwt beam="2">  1       -2 0.44976853E-01 0.12478607E+04</pdfrwt>
<totfact> 0.93943155E+01</totfact>
</mgrwt>
</event>
<event>
 8    2  0.7237260E-052  0.1395027E+04  0.7818608E-02  0.8957426E-01
         -2   -1    0    0    0  501 -0.00000000000E+00  0.00000000000E+00  0.22565335912E+04  0.22565335912E+04  0.25500000000E-02 0. -1.
          2   -1    0    0  501    0  0.00000000000E+00 -0.00000000000E+00 -0.21560717323E+03  0.21560717324E+03  0.25500000000E-02 0.  1.
    -200001    2    1    2    0    0  0.10157519721E+03 -0.21505434367E+03  0.61191045456E+03  0.89911135750E+03  0.61432966506E+03 0.  0.
   -5000001    2    3    3    0    0  0.18720301490E+03 -0.21888194160E+03  0.25141772590E+02  0.29757560644E+03  0.70461760370E+02 0.  0.
     200001    1    1    2    0    0 -0.10157519721E+03  0.21505434367E+03  0.14290159634E+04  0.15730294070E+04  0.61300000000E+03 0. -1.
         11    1    4    4    0    0  0.16221244693E+02 -0.50396130204E+01 -0.10310526501E+02  0.19870416094E+02  0.51100000000E-03 0.  1.
    -200002    1    4    4    0    0  0.17098177021E+03 -0.21384232857E+03  0.35452299091E+02  0.27770519035E+03  0.30000000000E+02 0.  1.
    -200000    1    3    3    0    0 -0.85627817692E+02  0.38275979279E+01  0.58676868197E+03  0.60153575106E+03  0.10100000000E+03 0. -1.
<mgrwt>
<rscale>  0 0.13950266E+04</rscale>
<asrwt>0</asrwt>
<pdfrwt beam="1">  1        2 0.30801024E-01 0.13950266E+04</pdfrwt>
<pdfrwt beam="2">  1       -2 0.32236195E+00 0.13950266E+04</pdfrwt>
<totfact> 0.39296351E+00</totfact>
</mgrwt>
</event>
<event>
 8    2  0.7237260E-052  0.1707663E+04  0.7818608E-02  0.8757006E-01
         -2   -1    0    0    0  501 -0.00000000000E+00  0.00000000000E+00  0.30669807793E+03  0.30669807794E+03  0.25500000000E-02 0. -1.
          2   -1    0    0  501    0  0.00000000000E+00 -0.00000000000E+00 -0.23770232167E+04  0.23770232167E+04  0.25500000000E-02 0.  1.
    -200001    2    1    2    0    0 -0.25329380868E+03 -0.50178164456E+03 -0.73186624617E+03  0.11079091931E+04  0.61310032249E+03 0.  0.
   -5000001    2    3    3    0    0 -0.31426190630E+03 -0.11839240085E+02 -0.21062204190E+03  0.38288699401E+03  0.57793531562E+02 0.  0.
     200001    1    1    2    0    0  0.25329380868E+03  0.50178164456E+03 -0.13384588926E+04  0.15758121016E+04  0.61300000000E+03 0.  1.
         11    1    4    4    0    0 -0.14268147447E+03  0.14314404340E+02 -0.87512415550E+02  0.16799204804E+03  0.51100000000E-03 0.  1.
    -200002    1    4    4    0    0 -0.17158043182E+03 -0.26153644425E+02 -0.12310962635E+03  0.21489494597E+03  0.30000000000E+02 0.  1.
    -200000    1    3    3    0    0  0.60968097613E+02 -0.48994240448E+03 -0.52124420427E+03  0.72502219905E+03  0.10100000000E+03 0.  1.
<mgrwt>
<rscale>  0 0.17076633E+04</rscale>
<asrwt>0</asrwt>
<pdfrwt beam="1">  1        2 0.33957473E+00 0.17076633E+04</pdfrwt>
<pdfrwt beam="2">  1       -2 0.43814012E-01 0.17076633E+04</pdfrwt>
<totfact> 0.24099029E+01</totfact>
</mgrwt>
</event>
<event>
 8    2  0.7237260E-052  0.1432935E+04  0.7818608E-02  0.8930318E-01
          2   -1    0    0  501    0  0.00000000000E+00  0.00000000000E+00  0.64886828319E+03  0.64886828320E+03  0.25500000000E-02 0.  1.
         -2   -1    0    0    0  501 -0.00000000000E+00 -0.00000000000E+00 -0.79110906451E+03  0.79110906451E+03  0.25500000000E-02 0. -1.
    -200001    2    1    2    0    0  0.27135111442E+03  0.14211634825E+03  0.13914053776E+03  0.69918525106E+03  0.61292042087E+03 0.  0.
   -5000001    2    3    3    0    0  0.43601284794E+03  0.14077550391E+03  0.51527276010E+01  0.46409161520E+03  0.73685348793E+02 0.  0.
     200001    1    1    2    0    0 -0.27135111442E+03 -0.14211634825E+03 -0.28138131907E+03  0.74079209665E+03  0.61300000000E+03 0.  1.
         11    1    4    4    0    0  0.10038005170E+03  0.58344761435E+02  0.14844317114E+02  0.11704964638E+03  0.51100000000E-03 0.  1.
    -200002    1    4    4    0    0  0.33563279624E+03  0.82430742480E+02 -0.96915895126E+01  0.34704196883E+03  0.30000000000E+02 0.  1.
    -200000    1    3    3    0    0 -0.16466173352E+03  0.13408443326E+01  0.13398781016E+03  0.23509363586E+03  0.10100000000E+03 0.  1.
<mgrwt>
<rscale>  0 0.14329349E+04</rscale>
<asrwt>0</asrwt>
<pdfrwt beam="1">  1        2 0.92695469E-01 0.14329349E+04</pdfrwt>
<pdfrwt beam="2">  1       -2 0.11301558E+00 0.14329349E+04</pdfrwt>
<totfact> 0.29558690E+01</totfact>
</mgrwt>
</event>
<event>
 8    2  0.7237260E-052  0.1598837E+04  0.7818608E-02  0.8821263E-01
          2   -1    0    0  501    0  0.00000000000E+00  0.00000000000E+00  0.18919089221E+04  0.18919089221E+04  0.25500000000E-02 0.  1.
         -2   -1    0    0    0  501 -0.00000000000E+00 -0.00000000000E+00 -0.33779096913E+03  0.33779096913E+03  0.25500000000E-02 0. -1.
    -200001    2    1    2    0    0 -0.25579044031E+03 -0.36883132173E+03  0.11224492519E+04  0.13558737296E+04  0.61403253522E+03 0.  0.
   -5000001    2    3    3    0    0 -0.28697663524E+03 -0.26984999252E+03  0.25816404553E+03  0.47954057365E+03  0.90199111619E+02 0.  0.
     200001    1    1    2    0    0  0.25579044031E+03  0.36883132173E+03  0.43166870106E+03  0.87382616161E+03  0.61300000000E+03 0.  1.
         11    1    4    4    0    0 -0.22334677384E+03 -0.17657852765E+03  0.20694412480E+03  0.35197958549E+03  0.51100000000E-03 0.  1.
    -200002    1    4    4    0    0 -0.63629861391E+02 -0.93271464873E+02  0.51219920728E+02  0.12756098816E+03  0.30000000000E+02 0. -1.
    -200000    1    3    3    0    0  0.31186194921E+02 -0.98981329210E+02  0.86428520638E+03  0.87633315597E+03  0.10100000000E+03 0.  1.
<mgrwt>
<rscale>  0 0.15988368E+04</rscale>
<asrwt>0</asrwt>
<pdfrwt beam="1">  1        2 0.27027271E+00 0.15988368E+04</pdfrwt>
<pdfrwt beam="2">  1       -2 0.48255852E-01 0.15988368E+04</pdfrwt>
<totfact> 0.35652015E+01</totfact>
</mgrwt>
</event>
<event>
 8    2  0.7237260E-052  0.1747813E+04  0.7818608E-02  0.8734555E-01
          2   -1    0    0  501    0  0.00000000000E+00  0.00000000000E+00  0.15995583783E+04  0.15995583783E+04  0.25500000000E-02 0.  1.
         -2   -1    0    0    0  501 -0.00000000000E+00 -0.00000000000E+00 -0.47745237130E+03  0.47745237130E+03  0.25500000000E-02 0. -1.
    -200001    2    1    2    0    0  0.45953587131E+03  0.24388134891E+03  0.96741975836E+03  0.12582628245E+04  0.61373692845E+03 0.  0.
   -5000001    2    3    3    0    0  0.25131443114E+03 -0.57497951099E+02  0.68891944841E+03  0.78714811103E+03  0.28022702338E+03 0.  0.
     200001    1    1    2    0    0 -0.45953587131E+03 -0.24388134891E+03  0.15468624869E+03  0.81874792512E+03  0.61300000000E+03 0. -1.
         11    1    4    4    0    0  0.27616756055E+03 -0.97418687681E+02  0.41693833673E+03  0.50950613230E+03  0.51100000000E-03 0.  1.
    -200002    1    4    4    0    0 -0.24853129408E+02  0.39920736582E+02  0.27198111167E+03  0.27764197874E+03  0.30000000000E+02 0.  1.
    -200000    1    3    3    0    0  0.20822144016E+03  0.30137930001E+03  0.27850030995E+03  0.47111471348E+03  0.10100000000E+03 0. -1.
<mgrwt>
<rscale>  0 0.17478134E+04</rscale>
<asrwt>0</asrwt>
<pdfrwt beam="1">  1        2 0.22850834E+00 0.17478134E+04</pdfrwt>
<pdfrwt beam="2">  1       -2 0.68207481E-01 0.17478134E+04</pdfrwt>
<totfact> 0.24208987E+01</totfact>
</mgrwt>
</event>
<event>
 8    2  0.7237260E-052  0.1287599E+04  0.7818608E-02  0.9039458E-01
          2   -1    0    0  501    0  0.00000000000E+00  0.00000000000E+00  0.15323256179E+04  0.15323256179E+04  0.25500000000E-02 0. -1.
         -2   -1    0    0    0  501 -0.00000000000E+00 -0.00000000000E+00 -0.27048917627E+03  0.27048917628E+03  0.25500000000E-02 0.  1.
    -200001    2    1    2    0    0 -0.88565879551E+02 -0.10446372863E+03  0.42889778408E+03  0.75959267360E+03  0.61177703045E+03 0.  0.
   -5000001    2    3    3    0    0 -0.12853397557E+03 -0.22389636139E+03  0.50915093854E+03  0.57930631452E+03  0.98542195559E+02 0.  0.
     200001    1    1    2    0    0  0.88565879551E+02  0.10446372863E+03  0.83293865757E+03  0.10432221206E+04  0.61300000000E+03 0. -1.
         11    1    4    4    0    0 -0.62628288697E+01  0.92947050311E+01  0.17472413927E+02  0.20758126499E+02  0.51100000000E-03 0.  1.
    -200002    1    4    4    0    0 -0.12227114670E+03 -0.23319106642E+03  0.49167852462E+03  0.55854818802E+03  0.30000000000E+02 0.  1.
    -200000    1    3    3    0    0  0.39968096020E+02  0.11943263276E+03 -0.80253154468E+02  0.18028635908E+03  0.10100000000E+03 0.  1.
<mgrwt>
<rscale>  0 0.12875985E+04</rscale>
<asrwt>0</asrwt>
<pdfrwt beam="1">  1        2 0.21890367E+00 0.12875985E+04</pdfrwt>
<pdfrwt beam="2">  1       -2 0.38641310E-01 0.12875985E+04</pdfrwt>
<totfact> 0.87201379E+01</totfact>
</mgrwt>
</event>
<event>
 8    2  0.7237260E-052  0.1575959E+04  0.7818608E-02  0.8835455E-01
          2   -1    0    0  501    0  0.00000000000E+00  0.00000000000E+00  0.42469398045E+04  0.42469398045E+04  0.25500000000E-02 0.  1.
         -2   -1    0    0    0  501 -0.00000000000E+00 -0.00000000000E+00 -0.14620210396E+03  0.14620210398E+03  0.25500000000E-02 0. -1.
    -200001    2    1    2    0    0 -0.56899599742E+02  0.47282830530E+03  0.24334209654E+04  0.25539795269E+04  0.61193926004E+03 0.  0.
   -5000001    2    3    3    0    0 -0.23322997401E+03 -0.19404560970E+02  0.86633434962E+03  0.89888223156E+03  0.51781300827E+02 0.  0.
     200001    1    1    2    0    0  0.56899599742E+02 -0.47282830530E+03  0.16673167351E+04  0.18391623816E+04  0.61300000000E+03 0.  1.
         11    1    4    4    0    0 -0.82145443633E+02 -0.23957788372E+02  0.30292872751E+03  0.31478193005E+03  0.51100000000E-03 0.  1.
    -200002    1    4    4    0    0 -0.15108453038E+03  0.45532274025E+01  0.56340562211E+03  0.58410030151E+03  0.30000000000E+02 0.  1.
    -200000    1    3    3    0    0  0.17633037427E+03  0.49223286627E+03  0.15670866158E+04  0.16550972953E+04  0.10100000000E+03 0. -1.
<mgrwt>
<rscale>  0 0.15759588E+04</rscale>
<asrwt>0</asrwt>
<pdfrwt beam="1">  1        2 0.60670573E+00 0.15759588E+04</pdfrwt>
<pdfrwt beam="2">  1       -2 0.20886013E-01 0.15759588E+04</pdfrwt>
<totfact> 0.73804934E+00</totfact>
</mgrwt>
</event>
<event>
 8    2  0.7237260E-052  0.1310514E+04  0.7818608E-02  0.9021269E-01
         -2   -1    0    0    0  501 -0.00000000000E+00  0.00000000000E+00  0.28563780651E+03  0.28563780652E+03  0.25500000000E-02 0. -1.
          2   -1    0    0  501    0  0.00000000000E+00 -0.00000000000E+00 -0.15031691287E+04  0.15031691287E+04  0.25500000000E-02 0.  1.
    -200001    2    1    2    0    0 -0.18398449818E+03  0.13448841624E+03 -0.66248855864E+03  0.93103138241E+03  0.61318098064E+03 0.  0.
   -5000001    2    3    3    0    0  0.68700245089E+02  0.20696525627E+02 -0.62046642328E+03  0.63309676926E+03  0.10336763024E+03 0.  0.
     200001    1    1    2    0    0  0.18398449818E+03 -0.13448841624E+03 -0.55504276359E+03  0.85777555286E+03  0.61300000000E+03 0.  1.
         11    1    4    4    0    0  0.29708678366E+02  0.42135384637E+02 -0.47945138618E+03  0.48221533356E+03  0.51100000000E-03 0.  1.
    -200002    1    4    4    0    0  0.38991566723E+02 -0.21438859010E+02 -0.14101503710E+03  0.15088143570E+03  0.30000000000E+02 0.  1.
    -200000    1    3    3    0    0 -0.25268474327E+03  0.11379189061E+03 -0.42022135363E+02  0.29793461315E+03  0.10100000000E+03 0. -1.
<mgrwt>
<rscale>  0 0.13105143E+04</rscale>
<asrwt>0</asrwt>
<pdfrwt beam="1">  1        2 0.21473844E+00 0.13105143E+04</pdfrwt>
<pdfrwt beam="2">  1       -2 0.40805402E-01 0.13105143E+04</pdfrwt>
<totfact> 0.81114026E+01</totfact>
</mgrwt>
</event>
<event>
 8    2  0.7237260E-052  0.1247395E+04  0.7818608E-02  0.9072354E-01
          2   -1    0    0  501    0  0.00000000000E+00  0.00000000000E+00  0.18086692550E+04  0.18086692550E+04  0.25500000000E-02 0.  1.
         -2   -1    0    0    0  501 -0.00000000000E+00 -0.00000000000E+00 -0.21507441792E+03  0.21507441793E+03  0.25500000000E-02 0. -1.
    -200001    2    1    2    0    0 -0.39216334125E+02  0.30284186791E+02  0.61901463682E+03  0.87134156447E+03  0.61122986556E+03 0.  0.
   -5000001    2    3    3    0    0  0.12161877681E+03 -0.23594099094E+03  0.28855123508E+03  0.40642131534E+03  0.10703827454E+03 0.  0.
     200001    1    1    2    0    0  0.39216334125E+02 -0.30284186791E+02  0.97458020026E+03  0.11524021085E+04  0.61300000000E+03 0.  1.
         11    1    4    4    0    0  0.56466410041E+02 -0.97231032123E+02  0.19295831028E+03  0.22332764848E+03  0.51100000000E-03 0.  1.
    -200002    1    4    4    0    0  0.65152366765E+02 -0.13870995882E+03  0.95592924797E+02  0.18309366685E+03  0.30000000000E+02 0.  1.
    -200000    1    3    3    0    0 -0.16083511093E+03  0.26622517773E+03  0.33046340174E+03  0.46492024914E+03  0.10100000000E+03 0.  1.
<mgrwt>
<rscale>  0 0.12473949E+04</rscale>
<asrwt>0</asrwt>
<pdfrwt beam="1">  1        2 0.25838131E+00 0.12473949E+04</pdfrwt>
<pdfrwt beam="2">  1       -2 0.30724918E-01 0.12473949E+04</pdfrwt>
<totfact> 0.97146817E+01</totfact>
</mgrwt>
</event>
<event>
 8    2  0.7237260E-052  0.1296971E+04  0.7818608E-02  0.9031971E-01
          2   -1    0    0  501    0  0.00000000000E+00  0.00000000000E+00  0.80651749486E+03  0.80651749486E+03  0.25500000000E-02 0.  1.
         -2   -1    0    0    0  501 -0.00000000000E+00 -0.00000000000E+00 -0.52141852420E+03  0.52141852421E+03  0.25500000000E-02 0. -1.
    -200001    2    1    2    0    0  0.41699003645E+02  0.14261040977E+03 -0.11729074854E+02  0.63083313966E+03  0.61297336240E+03 0.  0.
   -5000001    2    3    3    0    0 -0.19170240010E+03  0.49904476997E+02 -0.19941798278E+03  0.30144168348E+03  0.10890036573E+03 0.  0.
     200001    1    1    2    0    0 -0.41699003645E+02 -0.14261040977E+03  0.29682804551E+03  0.69710287941E+03  0.61300000000E+03 0. -1.
         11    1    4    4    0    0 -0.17765861229E+03  0.16073384650E+02 -0.15088795990E+03  0.23364099096E+03  0.51100000000E-03 0.  1.
    -200002    1    4    4    0    0 -0.14043787811E+02  0.33831092348E+02 -0.48530022882E+02  0.67800692522E+02  0.30000000000E+02 0.  1.
    -200000    1    3    3    0    0  0.23340140375E+03  0.92705932769E+02  0.18768890793E+03  0.32939145617E+03  0.10100000000E+03 0. -1.
<mgrwt>
<rscale>  0 0.12969706E+04</rscale>
<asrwt>0</asrwt>
<pdfrwt beam="1">  1        2 0.11521678E+00 0.12969706E+04</pdfrwt>
<pdfrwt beam="2">  1       -2 0.74488362E-01 0.12969706E+04</pdfrwt>
<totfact> 0.59871193E+01</totfact>
</mgrwt>
</event>
<event>
 8    2  0.7237260E-052  0.3488870E+04  0.7818608E-02  0.8116433E-01
          2   -1    0    0  501    0  0.00000000000E+00  0.00000000000E+00  0.35988048189E+04  0.35988048189E+04  0.25500000000E-02 0.  1.
         -2   -1    0    0    0  501 -0.00000000000E+00 -0.00000000000E+00 -0.84557347625E+03  0.84557347625E+03  0.25500000000E-02 0. -1.
    -200001    2    1    2    0    0 -0.13832422253E+04 -0.25573114438E+03  0.24337708027E+04  0.28770297351E+04  0.61261921674E+03 0.  0.
   -5000001    2    3    3    0    0 -0.10916635837E+04 -0.41441882368E+03  0.20168305574E+04  0.23345907506E+04  0.13869439116E+03 0.  0.
     200001    1    1    2    0    0  0.13832422253E+04  0.25573114438E+03  0.31946053994E+03  0.15673485600E+04  0.61300000000E+03 0. -1.
         11    1    4    4    0    0 -0.10872307236E+03 -0.93931070911E+01  0.14176101427E+03  0.17889975431E+03  0.51100000000E-03 0.  1.
    -200002    1    4    4    0    0 -0.98294051135E+03 -0.40502571658E+03  0.18750695431E+04  0.21556909963E+04  0.30000000000E+02 0.  1.
    -200000    1    3    3    0    0 -0.29157864156E+03  0.15868767929E+03  0.41694024532E+03  0.54243898453E+03  0.10100000000E+03 0.  1.
<mgrwt>
<rscale>  0 0.34888702E+04</rscale>
<asrwt>0</asrwt>
<pdfrwt beam="1">  1        2 0.51411497E+00 0.34888702E+04</pdfrwt>
<pdfrwt beam="2">  1       -2 0.12079621E+00 0.34888702E+04</pdfrwt>
<totfact> 0.45175915E-01</totfact>
</mgrwt>
</event>
<event>
 8    2  0.7237260E-052  0.1300274E+04  0.7818608E-02  0.9029348E-01
          2   -1    0    0  501    0  0.00000000000E+00  0.00000000000E+00  0.48179345298E+03  0.48179345299E+03  0.25500000000E-02 0.  1.
         -2   -1    0    0    0  501 -0.00000000000E+00 -0.00000000000E+00 -0.87730177691E+03  0.87730177691E+03  0.25500000000E-02 0. -1.
    -200001    2    1    2    0    0 -0.15138708459E+03 -0.89385405905E+02 -0.33028737573E+03  0.71805656316E+03  0.61286840118E+03 0.  0.
   -5000001    2    3    3    0    0  0.58458978234E+01 -0.63744163456E+02  0.12870097900E+03  0.22181973074E+03  0.16894542922E+03 0.  0.
     200001    1    1    2    0    0  0.15138708459E+03  0.89385405905E+02 -0.65220948192E+02  0.64103866674E+03  0.61300000000E+03 0.  1.
         11    1    4    4    0    0  0.63392232746E+01 -0.71649112849E+02 -0.16119146648E+02  0.73713011149E+02  0.51100000000E-03 0.  1.
    -200002    1    4    4    0    0 -0.49332545116E+00  0.79049493930E+01  0.14482012565E+03  0.14810671959E+03  0.30000000000E+02 0.  1.
    -200000    1    3    3    0    0 -0.15723298241E+03 -0.25641242449E+02 -0.45898835473E+03  0.49623683242E+03  0.10100000000E+03 0. -1.
<mgrwt>
<rscale>  0 0.13002742E+04</rscale>
<asrwt>0</asrwt>
<pdfrwt beam="1">  1        2 0.68827636E-01 0.13002742E+04</pdfrwt>
<pdfrwt beam="2">  1       -2 0.12532883E+00 0.13002742E+04</pdfrwt>
<totfact> 0.32741580E+01</totfact>
</mgrwt>
</event>
<event>
 8    2  0.7237260E-052  0.2112872E+04  0.7818608E-02  0.8555594E-01
          2   -1    0    0  501    0  0.00000000000E+00  0.00000000000E+00  0.12421397825E+04  0.12421397825E+04  0.25500000000E-02 0. -1.
         -2   -1    0    0    0  501 -0.00000000000E+00 -0.00000000000E+00 -0.89849532756E+03  0.89849532756E+03  0.25500000000E-02 0.  1.
    -200001    2    1    2    0    0 -0.19797552976E+03  0.75190583110E+03 -0.20073792858E+03  0.10107334025E+04  0.61378302825E+03 0.  0.
   -5000001    2    3    3    0    0  0.20752526106E+03  0.20990656520E+03 -0.62639714602E+02  0.31254559663E+03  0.81446399788E+02 0.  0.
     200001    1    1    2    0    0  0.19797552976E+03 -0.75190583110E+03  0.54438238351E+03  0.11299017075E+04  0.61300000000E+03 0. -1.
         11    1    4    4    0    0  0.96327231305E+02  0.13819185871E+03 -0.52714034163E+02  0.17650692537E+03  0.51100000000E-03 0.  1.
    -200002    1    4    4    0    0  0.11119802975E+03  0.71714706494E+02 -0.99256804381E+01  0.13603867127E+03  0.30000000000E+02 0.  1.
    -200000    1    3    3    0    0 -0.40550079081E+03  0.54199926589E+03 -0.13809821398E+03  0.69818780588E+03  0.10100000000E+03 0.  1.
<mgrwt>
<rscale>  0 0.21128718E+04</rscale>
<asrwt>0</asrwt>
<pdfrwt beam="1">  1        2 0.17744854E+00 0.21128718E+04</pdfrwt>
<pdfrwt beam="2">  1       -2 0.12835648E+00 0.21128718E+04</pdfrwt>
<totfact> 0.83894444E+00</totfact>
</mgrwt>
</event>
<event>
 8    2  0.7237260E-052  0.1455161E+04  0.7818608E-02  0.8914830E-01
         -2   -1    0    0    0  501 -0.00000000000E+00  0.00000000000E+00  0.66635003737E+03  0.66635003737E+03  0.25500000000E-02 0. -1.
          2   -1    0    0  501    0  0.00000000000E+00 -0.00000000000E+00 -0.79443733136E+03  0.79443733136E+03  0.25500000000E-02 0.  1.
    -200001    2    1    2    0    0 -0.12937787783E+02 -0.11428368587E+02 -0.45573306647E+03  0.76550415581E+03  0.61482191789E+03 0.  0.
   -5000001    2    3    3    0    0 -0.12534213900E+03 -0.10017249769E+03  0.77557688275E+02  0.20415730428E+03  0.99598337211E+02 0.  0.
     200001    1    1    2    0    0  0.12937787783E+02  0.11428368587E+02  0.32764577248E+03  0.69528321293E+03  0.61300000000E+03 0. -1.
         11    1    4    4    0    0 -0.44321702631E+02 -0.18887594113E+02 -0.18409049176E+02  0.51575649558E+02  0.51100000000E-03 0.  1.
    -200002    1    4    4    0    0 -0.81020436374E+02 -0.81284903580E+02  0.95966737451E+02  0.15258165472E+03  0.30000000000E+02 0.  1.
    -200000    1    3    3    0    0  0.11240435122E+03  0.88744129107E+02 -0.53329075474E+03  0.56134685153E+03  0.10100000000E+03 0.  1.
<mgrwt>
<rscale>  0 0.14551609E+04</rscale>
<asrwt>0</asrwt>
<pdfrwt beam="1">  1        2 0.11349105E+00 0.14551609E+04</pdfrwt>
<pdfrwt beam="2">  1       -2 0.95192863E-01 0.14551609E+04</pdfrwt>
<totfact> 0.34560762E+01</totfact>
</mgrwt>
</event>
<event>
 8    2  0.7237260E-052  0.1461478E+04  0.7818608E-02  0.8910482E-01
          2   -1    0    0  501    0  0.00000000000E+00  0.00000000000E+00  0.19249538953E+04  0.19249538953E+04  0.25500000000E-02 0. -1.
         -2   -1    0    0    0  501 -0.00000000000E+00 -0.00000000000E+00 -0.27739841404E+03  0.27739841405E+03  0.25500000000E-02 0.  1.
    -200001    2    1    2    0    0 -0.15431520929E+03 -0.25304748149E+03  0.42042087433E+03  0.79897261903E+03  0.61135695193E+03 0.  0.
   -5000001    2    3    3    0    0  0.19786829852E+03 -0.13022806907E+03  0.29882512771E+03  0.39387465948E+03  0.98638617652E+02 0.  0.
     200001    1    1    2    0    0  0.15431520929E+03  0.25304748149E+03  0.12271346069E+04  0.14033796903E+04  0.61300000000E+03 0. -1.
         11    1    4    4    0    0  0.33777301484E+02  0.28968102636E+01  0.86146053772E+02  0.92576671932E+02  0.51100000000E-03 0.  1.
    -200002    1    4    4    0    0  0.16409099703E+03 -0.13312487934E+03  0.21267907394E+03  0.30129798754E+03  0.30000000000E+02 0.  1.
    -200000    1    3    3    0    0 -0.35218350780E+03 -0.12281941242E+03  0.12159574662E+03  0.40509795955E+03  0.10100000000E+03 0.  1.
<mgrwt>
<rscale>  0 0.14614776E+04</rscale>
<asrwt>0</asrwt>
<pdfrwt beam="1">  1        2 0.27499341E+00 0.14614776E+04</pdfrwt>
<pdfrwt beam="2">  1       -2 0.39628345E-01 0.14614776E+04</pdfrwt>
<totfact> 0.51249225E+01</totfact>
</mgrwt>
</event>
<event>
 8    2  0.7237260E-052  0.1240576E+04  0.7818608E-02  0.9078063E-01
         -2   -1    0    0    0  501 -0.00000000000E+00  0.00000000000E+00  0.22850540929E+03  0.22850540930E+03  0.25500000000E-02 0. -1.
          2   -1    0    0  501    0  0.00000000000E+00 -0.00000000000E+00 -0.16838001688E+04  0.16838001688E+04  0.25500000000E-02 0.  1.
    -200001    2    1    2    0    0  0.52244847833E+02 -0.36215497346E+02 -0.83640816582E+03  0.10389037793E+04  0.61294482324E+03 0.  0.
   -5000001    2    3    3    0    0  0.29569572479E+03  0.19945501469E+02 -0.37859180556E+03  0.50766070213E+03  0.16295351656E+03 0.  0.
     200001    1    1    2    0    0 -0.52244847833E+02  0.36215497346E+02 -0.61888659369E+03  0.87340179884E+03  0.61300000000E+03 0. -1.
         11    1    4    4    0    0  0.28900999757E+03 -0.13790811121E+02 -0.30010231860E+03  0.41686732517E+03  0.51100000000E-03 0.  1.
    -200002    1    4    4    0    0  0.66857272186E+01  0.33736312591E+02 -0.78489486956E+02  0.90793376952E+02  0.30000000000E+02 0.  1.
    -200000    1    3    3    0    0 -0.24345087696E+03 -0.56160998816E+02 -0.45781636026E+03  0.53124307714E+03  0.10100000000E+03 0.  1.
<mgrwt>
<rscale>  0 0.12405764E+04</rscale>
<asrwt>0</asrwt>
<pdfrwt beam="1">  1        2 0.24054287E+00 0.12405764E+04</pdfrwt>
<pdfrwt beam="2">  1       -2 0.32643631E-01 0.12405764E+04</pdfrwt>
<totfact> 0.10064950E+02</totfact>
</mgrwt>
</event>
<event>
 8    2  0.7237260E-052  0.1943596E+04  0.7818608E-02  0.8633455E-01
         -2   -1    0    0    0  501 -0.00000000000E+00  0.00000000000E+00  0.66202119615E+03  0.66202119615E+03  0.25500000000E-02 0. -1.
          2   -1    0    0  501    0  0.00000000000E+00 -0.00000000000E+00 -0.14265280589E+04  0.14265280589E+04  0.25500000000E-02 0.  1.
    -200001    2    1    2    0    0 -0.17718936132E+03 -0.34658409190E+03  0.31307331282E+03  0.78913991335E+03  0.61090940499E+03 0.  0.
   -5000001    2    3    3    0    0  0.14910614300E+03  0.39842871204E+02  0.72513656323E+02  0.22004896957E+03  0.13907991368E+03 0.  0.
     200001    1    1    2    0    0  0.17718936132E+03  0.34658409190E+03 -0.10775801756E+04  0.12994093417E+04  0.61300000000E+03 0.  1.
         11    1    4    4    0    0  0.11766057745E+03 -0.24390357875E+02  0.76406179792E+02  0.14239664797E+03  0.51100000000E-03 0.  1.
    -200002    1    4    4    0    0  0.31445565547E+02  0.64233229079E+02 -0.38925234694E+01  0.77652321597E+02  0.30000000000E+02 0.  1.
    -200000    1    3    3    0    0 -0.32629550432E+03 -0.38642696311E+03  0.24055965650E+03  0.56909094378E+03  0.10100000000E+03 0. -1.
<mgrwt>
<rscale>  0 0.19435965E+04</rscale>
<asrwt>0</asrwt>
<pdfrwt beam="1">  1        2 0.20378972E+00 0.19435965E+04</pdfrwt>
<pdfrwt beam="2">  1       -2 0.94574457E-01 0.19435965E+04</pdfrwt>
<totfact> 0.14125418E+01</totfact>
</mgrwt>
</event>
<event>
 8    2  0.7237260E-052  0.1514382E+04  0.7818608E-02  0.8874945E-01
         -2   -1    0    0    0  501 -0.00000000000E+00  0.00000000000E+00  0.44686266899E+03  0.44686266899E+03  0.25500000000E-02 0. -1.
          2   -1    0    0  501    0  0.00000000000E+00 -0.00000000000E+00 -0.12830298963E+04  0.12830298963E+04  0.25500000000E-02 0.  1.
    -200001    2    1    2    0    0  0.32295612486E+03 -0.27814909967E+03 -0.27613085097E+03  0.79657733290E+03  0.61369342526E+03 0.  0.
   -5000001    2    3    3    0    0  0.72134675149E+02 -0.19237528719E+03  0.16184026523E+03  0.27476487121E+03  0.84212828725E+02 0.  0.
     200001    1    1    2    0    0 -0.32295612486E+03  0.27814909967E+03 -0.56003637638E+03  0.93331523244E+03  0.61300000000E+03 0.  1.
         11    1    4    4    0    0  0.59148393728E+02 -0.13391968069E+03  0.14423154023E+03  0.20551338291E+03  0.51100000000E-03 0.  1.
    -200002    1    4    4    0    0  0.12986281421E+02 -0.58455606493E+02  0.17608725003E+02  0.69251488301E+02  0.30000000000E+02 0. -1.
    -200000    1    3    3    0    0  0.25082144971E+03 -0.85773812483E+02 -0.43797111621E+03  0.52181246169E+03  0.10100000000E+03 0.  1.
<mgrwt>
<rscale>  0 0.15143819E+04</rscale>
<asrwt>0</asrwt>
<pdfrwt beam="1">  1        2 0.18328998E+00 0.15143819E+04</pdfrwt>
<pdfrwt beam="2">  1       -2 0.63837525E-01 0.15143819E+04</pdfrwt>
<totfact> 0.42096786E+01</totfact>
</mgrwt>
</event>
<event>
 8    2  0.7237260E-052  0.1390798E+04  0.7818608E-02  0.8960507E-01
         -2   -1    0    0    0  501 -0.00000000000E+00  0.00000000000E+00  0.80376321551E+03  0.80376321551E+03  0.25500000000E-02 0. -1.
          2   -1    0    0  501    0  0.00000000000E+00 -0.00000000000E+00 -0.60164426663E+03  0.60164426664E+03  0.25500000000E-02 0.  1.
    -200001    2    1    2    0    0  0.10367942512E+02 -0.20704240812E+03  0.35834087954E+03  0.73971360009E+03  0.61302036770E+03 0.  0.
   -5000001    2    3    3    0    0  0.17980365352E+02  0.34167335032E+02  0.44908514551E+03  0.46280998694E+03  0.10499959889E+03 0.  0.
     200001    1    1    2    0    0 -0.10367942512E+02  0.20704240812E+03 -0.15622193066E+03  0.66569388206E+03  0.61300000000E+03 0.  1.
         11    1    4    4    0    0  0.55547535844E+02  0.19508900138E+02  0.19067083354E+03  0.19955323271E+03  0.51100000000E-03 0.  1.
    -200002    1    4    4    0    0 -0.37567170492E+02  0.14658434894E+02  0.25841431197E+03  0.26325675423E+03  0.30000000000E+02 0.  1.
    -200000    1    3    3    0    0 -0.76124228401E+01 -0.24120974315E+03 -0.90744265971E+02  0.27690361316E+03  0.10100000000E+03 0.  1.
<mgrwt>
<rscale>  0 0.13907977E+04</rscale>
<asrwt>0</asrwt>
<pdfrwt beam="1">  1        2 0.85949182E-01 0.13907977E+04</pdfrwt>
<pdfrwt beam="2">  1       -2 0.11482332E+00 0.13907977E+04</pdfrwt>
<totfact> 0.31226995E+01</totfact>
</mgrwt>
</event>
<event>
 8    2  0.7237260E-052  0.1351712E+04  0.7818608E-02  0.8989533E-01
         -2   -1    0    0    0  501 -0.00000000000E+00  0.00000000000E+00  0.36013740205E+03  0.36013740206E+03  0.25500000000E-02 0. -1.
          2   -1    0    0  501    0  0.00000000000E+00 -0.00000000000E+00 -0.12683538241E+04  0.12683538241E+04  0.25500000000E-02 0.  1.
    -200001    2    1    2    0    0  0.10899177144E+03 -0.21507824856E+03 -0.27285663935E+03  0.71329238835E+03  0.61334935102E+03 0.  0.
   -5000001    2    3    3    0    0 -0.20610277910E+03 -0.23456935679E+03 -0.10032630553E+03  0.33961847280E+03  0.88171428410E+02 0.  0.
     200001    1    1    2    0    0 -0.10899177144E+03  0.21507824856E+03 -0.63535978267E+03  0.91519883778E+03  0.61300000000E+03 0.  1.
         11    1    4    4    0    0 -0.78373130348E+02 -0.13811210194E+03 -0.71864615127E+02  0.17430382431E+03  0.51100000000E-03 0.  1.
    -200002    1    4    4    0    0 -0.12772964875E+03 -0.96457254852E+02 -0.28461690400E+02  0.16531464849E+03  0.30000000000E+02 0.  1.
    -200000    1    3    3    0    0  0.31509455054E+03  0.19491108226E+02 -0.17253033383E+03  0.37367391556E+03  0.10100000000E+03 0. -1.
<mgrwt>
<rscale>  0 0.13517125E+04</rscale>
<asrwt>0</asrwt>
<pdfrwt beam="1">  1        2 0.18119340E+00 0.13517125E+04</pdfrwt>
<pdfrwt beam="2">  1       -2 0.51448201E-01 0.13517125E+04</pdfrwt>
<totfact> 0.68199520E+01</totfact>
</mgrwt>
</event>
<event>
 8    2  0.7237260E-052  0.2019972E+04  0.7818608E-02  0.8597340E-01
          2   -1    0    0  501    0  0.00000000000E+00  0.00000000000E+00  0.25178669318E+04  0.25178669318E+04  0.25500000000E-02 0.  1.
         -2   -1    0    0    0  501 -0.00000000000E+00 -0.00000000000E+00 -0.40513312927E+03  0.40513312927E+03  0.25500000000E-02 0. -1.
    -200001    2    1    2    0    0  0.51792723419E+03  0.51713750715E+03  0.57924415316E+03  0.11166115851E+04  0.61287667756E+03 0.  0.
   -5000001    2    3    3    0    0  0.11569016241E+02  0.18246869153E+03  0.44754892025E+03  0.48736878988E+03  0.61641185912E+02 0.  0.
     200001    1    1    2    0    0 -0.51792723419E+03 -0.51713750715E+03  0.15334896493E+04  0.18063884759E+04  0.61300000000E+03 0.  1.
         11    1    4    4    0    0  0.81712373202E+01  0.65794648201E+02  0.10441508398E+03  0.12368595156E+03  0.51100000000E-03 0.  1.
    -200002    1    4    4    0    0  0.33977789208E+01  0.11667404333E+03  0.34313383627E+03  0.36368283831E+03  0.30000000000E+02 0. -1.
    -200000    1    3    3    0    0  0.50635821795E+03  0.33466881562E+03  0.13169523291E+03  0.62924279527E+03  0.10100000000E+03 0. -1.
<mgrwt>
<rscale>  0 0.20199716E+04</rscale>
<asrwt>0</asrwt>
<pdfrwt beam="1">  1        2 0.35969527E+00 0.20199716E+04</pdfrwt>
<pdfrwt beam="2">  1       -2 0.57876162E-01 0.20199716E+04</pdfrwt>
<totfact> 0.11222744E+01</totfact>
</mgrwt>
</event>
<event>
 8    2  0.7237260E-052  0.2052534E+04  0.7818608E-02  0.8582446E-01
          2   -1    0    0  501    0  0.00000000000E+00  0.00000000000E+00  0.38738113703E+03  0.38738113704E+03  0.25500000000E-02 0.  1.
         -2   -1    0    0    0  501 -0.00000000000E+00 -0.00000000000E+00 -0.27188304778E+04  0.27188304778E+04  0.25500000000E-02 0. -1.
    -200001    2    1    2    0    0 -0.27720382551E+03 -0.48473091135E+03 -0.25048246664E+03  0.86612274417E+03  0.61287937196E+03 0.  0.
   -5000001    2    3    3    0    0 -0.40385275004E+03 -0.30258424238E+03 -0.30865190442E+03  0.61551938706E+03  0.17012892254E+03 0.  0.
     200001    1    1    2    0    0  0.27720382551E+03  0.48473091135E+03 -0.20809668741E+04  0.22400888707E+04  0.61300000000E+03 0. -1.
         11    1    4    4    0    0 -0.26942155148E+02 -0.70862114028E+02 -0.99829621683E+02  0.12535259189E+03  0.51100000000E-03 0.  1.
    -200002    1    4    4    0    0 -0.37691059490E+03 -0.23172212835E+03 -0.20882228274E+03  0.49016679516E+03  0.30000000000E+02 0.  1.
    -200000    1    3    3    0    0  0.12664892453E+03 -0.18214666897E+03  0.58169437783E+02  0.25060335711E+03  0.10100000000E+03 0. -1.
<mgrwt>
<rscale>  0 0.20525337E+04</rscale>
<asrwt>0</asrwt>
<pdfrwt beam="1">  1        2 0.55340164E-01 0.20525337E+04</pdfrwt>
<pdfrwt beam="2">  1       -2 0.38840434E+00 0.20525337E+04</pdfrwt>
<totfact> 0.73687527E-01</totfact>
</mgrwt>
</event>
<event>
 8    2  0.7237260E-052  0.1440360E+04  0.7818608E-02  0.8925111E-01
          2   -1    0    0  501    0  0.00000000000E+00  0.00000000000E+00  0.23786255498E+04  0.23786255498E+04  0.25500000000E-02 0.  1.
         -2   -1    0    0    0  501 -0.00000000000E+00 -0.00000000000E+00 -0.21804983986E+03  0.21804983987E+03  0.25500000000E-02 0. -1.
    -200001    2    1    2    0    0 -0.10055058600E+03  0.65413366974E+02  0.17257915792E+04  0.18356263970E+04  0.61382274760E+03 0.  0.
   -5000001    2    3    3    0    0 -0.66983042184E+02  0.32193010649E+03  0.10795894753E+04  0.11322731595E+04  0.91669793286E+02 0.  0.
     200001    1    1    2    0    0  0.10055058600E+03 -0.65413366974E+02  0.43478413070E+03  0.76104899266E+03  0.61300000000E+03 0. -1.
         11    1    4    4    0    0 -0.80196123875E+02  0.21302626746E+03  0.72424354452E+03  0.75917081128E+03  0.51100000000E-03 0.  1.
    -200002    1    4    4    0    0  0.13213081691E+02  0.10890383903E+03  0.35534593080E+03  0.37310234819E+03  0.30000000000E+02 0.  1.
    -200000    1    3    3    0    0 -0.33567543820E+02 -0.25651673952E+03  0.64620210387E+03  0.70335323750E+03  0.10100000000E+03 0. -1.
<mgrwt>
<rscale>  0 0.14403596E+04</rscale>
<asrwt>0</asrwt>
<pdfrwt beam="1">  1        2 0.33980362E+00 0.14403596E+04</pdfrwt>
<pdfrwt beam="2">  1       -2 0.31149980E-01 0.14403596E+04</pdfrwt>
<totfact> 0.47469514E+01</totfact>
</mgrwt>
</event>
<event>
 8    2  0.7237260E-052  0.1415168E+04  0.7818608E-02  0.8942912E-01
          2   -1    0    0  501    0  0.00000000000E+00  0.00000000000E+00  0.61414801224E+03  0.61414801225E+03  0.25500000000E-02 0.  1.
         -2   -1    0    0    0  501 -0.00000000000E+00 -0.00000000000E+00 -0.81523475128E+03  0.81523475129E+03  0.25500000000E-02 0. -1.
    -200001    2    1    2    0    0 -0.28879643430E+03 -0.17538435565E+01 -0.30695502664E+03  0.74353762741E+03  0.61255233128E+03 0.  0.
   -5000001    2    3    3    0    0 -0.29987776369E+03 -0.25497752742E+03 -0.21502457747E+03  0.45561882389E+03  0.80079529982E+02 0.  0.
     200001    1    1    2    0    0  0.28879643430E+03  0.17538435565E+01  0.10586828761E+03  0.68584513613E+03  0.61300000000E+03 0.  1.
         11    1    4    4    0    0 -0.56851387329E+02 -0.47484835984E+02 -0.75101764061E+02  0.10548537745E+03  0.51100000000E-03 0.  1.
    -200002    1    4    4    0    0 -0.24302637636E+03 -0.20749269144E+03 -0.13992281341E+03  0.35013344645E+03  0.30000000000E+02 0.  1.
    -200000    1    3    3    0    0  0.11081329392E+02  0.25322368387E+03 -0.91930449174E+02  0.28791880351E+03  0.10100000000E+03 0. -1.
<mgrwt>
<rscale>  0 0.14151676E+04</rscale>
<asrwt>0</asrwt>
<pdfrwt beam="1">  1        2 0.87735431E-01 0.14151676E+04</pdfrwt>
<pdfrwt beam="2">  1       -2 0.11646211E+00 0.14151676E+04</pdfrwt>
<totfact> 0.29381538E+01</totfact>
</mgrwt>
</event>
<event>
 8    2  0.7237260E-052  0.1804753E+04  0.7818608E-02  0.8703776E-01
          2   -1    0    0  501    0  0.00000000000E+00  0.00000000000E+00  0.16580438448E+04  0.16580438448E+04  0.25500000000E-02 0.  1.
         -2   -1    0    0    0  501 -0.00000000000E+00 -0.00000000000E+00 -0.49111063330E+03  0.49111063330E+03  0.25500000000E-02 0. -1.
    -200001    2    1    2    0    0 -0.59978407175E+03  0.25577708441E+03  0.44574564036E+03  0.99978797328E+03  0.61296326643E+03 0.  0.
   -5000001    2    3    3    0    0 -0.46488239040E+03  0.21992847959E+03  0.58099154293E+03  0.78075363748E+03  0.86838335054E+02 0.  0.
     200001    1    1    2    0    0  0.59978407175E+03 -0.25577708441E+03  0.72118757113E+03  0.11493665048E+04  0.61300000000E+03 0.  1.
         11    1    4    4    0    0 -0.39153960765E+03  0.20035617751E+03  0.49586521641E+03  0.66281835752E+03  0.51100000000E-03 0.  1.
    -200002    1    4    4    0    0 -0.73342782752E+02  0.19572302078E+02  0.85126326526E+02  0.11793527996E+03  0.30000000000E+02 0. -1.
    -200000    1    3    3    0    0 -0.13490168135E+03  0.35848604823E+02 -0.13524590258E+03  0.21903433580E+03  0.10100000000E+03 0. -1.
<mgrwt>
<rscale>  0 0.18047526E+04</rscale>
<asrwt>0</asrwt>
<pdfrwt beam="1">  1        2 0.23686340E+00 0.18047526E+04</pdfrwt>
<pdfrwt beam="2">  1       -2 0.70158663E-01 0.18047526E+04</pdfrwt>
<totfact> 0.21121527E+01</totfact>
</mgrwt>
</event>
<event>
 8    2  0.7237260E-052  0.2011604E+04  0.7818608E-02  0.8601215E-01
         -2   -1    0    0    0  501 -0.00000000000E+00  0.00000000000E+00  0.14784897517E+04  0.14784897517E+04  0.25500000000E-02 0.  1.
          2   -1    0    0  501    0  0.00000000000E+00 -0.00000000000E+00 -0.68423725660E+03  0.68423725661E+03  0.25500000000E-02 0. -1.
    -200001    2    1    2    0    0  0.18893155963E+03 -0.22844371641E+02 -0.43551424837E+03  0.77553118836E+03  0.61282865798E+03 0.  0.
   -5000001    2    3    3    0    0  0.10189419712E+03  0.10346806541E+03  0.98722608177E+02  0.21060610207E+03  0.11627858314E+03 0.  0.
     200001    1    1    2    0    0 -0.18893155963E+03  0.22844371641E+02  0.12297667434E+04  0.13871958199E+04  0.61300000000E+03 0.  1.
         11    1    4    4    0    0  0.76972392948E+01  0.82694858309E+02  0.29454248632E+02  0.88120598308E+02  0.51100000000E-03 0.  1.
    -200002    1    4    4    0    0  0.94196957828E+02  0.20773207103E+02  0.69268359545E+02  0.12248550376E+03  0.30000000000E+02 0.  1.
    -200000    1    3    3    0    0  0.87037362508E+02 -0.12631243705E+03 -0.53423685655E+03  0.56492508629E+03  0.10100000000E+03 0. -1.
<mgrwt>
<rscale>  0 0.20116041E+04</rscale>
<asrwt>0</asrwt>
<pdfrwt beam="1">  1        2 0.97748181E-01 0.20116041E+04</pdfrwt>
<pdfrwt beam="2">  1       -2 0.21121282E+00 0.20116041E+04</pdfrwt>
<totfact> 0.48470926E+00</totfact>
</mgrwt>
</event>
<event>
 8    2  0.7237260E-052  0.1736911E+04  0.7818608E-02  0.8740588E-01
         -2   -1    0    0    0  501 -0.00000000000E+00  0.00000000000E+00  0.41915402803E+03  0.41915402804E+03  0.25500000000E-02 0. -1.
          2   -1    0    0  501    0  0.00000000000E+00 -0.00000000000E+00 -0.17993741198E+04  0.17993741198E+04  0.25500000000E-02 0.  1.
    -200001    2    1    2    0    0 -0.25699161838E+03 -0.31399342859E+03 -0.99094403079E+02  0.74147412198E+03  0.61263986789E+03 0.  0.
   -5000001    2    3    3    0    0 -0.20676729861E+02 -0.14180376257E+03  0.19793268751E+03  0.31261505402E+03  0.19497432903E+03 0.  0.
     200001    1    1    2    0    0  0.25699161838E+03  0.31399342859E+03 -0.12811256887E+04  0.14770540259E+04  0.61300000000E+03 0.  1.
         11    1    4    4    0    0 -0.41164630857E+02  0.31634720206E+02  0.93451883735E+02  0.10690433541E+03  0.51100000000E-03 0.  1.
    -200002    1    4    4    0    0  0.20487900996E+02 -0.17343848277E+03  0.10448080378E+03  0.20571071861E+03  0.30000000000E+02 0.  1.
    -200000    1    3    3    0    0 -0.23631488852E+03 -0.17218966603E+03 -0.29702709059E+03  0.42885906796E+03  0.10100000000E+03 0.  1.
<mgrwt>
<rscale>  0 0.17369109E+04</rscale>
<asrwt>0</asrwt>
<pdfrwt beam="1">  1        2 0.25705344E+00 0.17369109E+04</pdfrwt>
<pdfrwt beam="2">  1       -2 0.59879148E-01 0.17369109E+04</pdfrwt>
<totfact> 0.25197553E+01</totfact>
</mgrwt>
</event>
<event>
 8    2  0.7237260E-052  0.1407553E+04  0.7818608E-02  0.8948369E-01
         -2   -1    0    0    0  501 -0.00000000000E+00  0.00000000000E+00  0.39217808977E+03  0.39217808978E+03  0.25500000000E-02 0. -1.
          2   -1    0    0  501    0  0.00000000000E+00 -0.00000000000E+00 -0.12629508904E+04  0.12629508904E+04  0.25500000000E-02 0.  1.
    -200001    2    1    2    0    0  0.25266533590E+03 -0.86470411393E+02 -0.17507948081E+03  0.69020665209E+03  0.61189500241E+03 0.  0.
   -5000001    2    3    3    0    0 -0.14390665689E+03 -0.13002397495E+03 -0.17946239323E+03  0.27864077852E+03  0.88422694527E+02 0.  0.
     200001    1    1    2    0    0 -0.25266533590E+03  0.86470411393E+02 -0.69569331980E+03  0.96492232808E+03  0.61300000000E+03 0.  1.
         11    1    4    4    0    0 -0.11549387361E+02 -0.45233410496E+02 -0.72252010970E+02  0.86022106827E+02  0.51100000000E-03 0.  1.
    -200002    1    4    4    0    0 -0.13235726953E+03 -0.84790564454E+02 -0.10721038226E+03  0.19261867169E+03  0.30000000000E+02 0.  1.
    -200000    1    3    3    0    0  0.39657199279E+03  0.43553563557E+02  0.43829124251E+01  0.41156587357E+03  0.10100000000E+03 0. -1.
<mgrwt>
<rscale>  0 0.14075534E+04</rscale>
<asrwt>0</asrwt>
<pdfrwt beam="1">  1        2 0.18042155E+00 0.14075534E+04</pdfrwt>
<pdfrwt beam="2">  1       -2 0.56025442E-01 0.14075534E+04</pdfrwt>
<totfact> 0.57355252E+01</totfact>
</mgrwt>
</event>
<event>
 8    2  0.7237260E-052  0.2003190E+04  0.7818608E-02  0.8605130E-01
         -2   -1    0    0    0  501 -0.00000000000E+00  0.00000000000E+00  0.13158088875E+04  0.13158088875E+04  0.25500000000E-02 0. -1.
          2   -1    0    0  501    0  0.00000000000E+00 -0.00000000000E+00 -0.76241542127E+03  0.76241542127E+03  0.25500000000E-02 0.  1.
    -200001    2    1    2    0    0  0.32098973388E+02  0.46381060572E+03  0.94217804770E+03  0.12162074453E+04  0.61262586814E+03 0.  0.
   -5000001    2    3    3    0    0 -0.53029161009E+01  0.40060579350E+03  0.47626728567E+03  0.73385115808E+03  0.38883656221E+03 0.  0.
     200001    1    1    2    0    0 -0.32098973388E+02 -0.46381060572E+03 -0.38878458151E+03  0.86201686346E+03  0.61300000000E+03 0.  1.
         11    1    4    4    0    0  0.88797583394E+02  0.44013649222E+03  0.35392315959E+03  0.57172261237E+03  0.51100000000E-03 0.  1.
    -200002    1    4    4    0    0 -0.94100499495E+02 -0.39530698727E+02  0.12234412608E+03  0.16212854571E+03  0.30000000000E+02 0.  1.
    -200000    1    3    3    0    0  0.37401889489E+02  0.63204812224E+02  0.46591076203E+03  0.48235628720E+03  0.10100000000E+03 0.  1.
<mgrwt>
<rscale>  0 0.20031904E+04</rscale>
<asrwt>0</asrwt>
<pdfrwt beam="1">  1        2 0.10891649E+00 0.20031904E+04</pdfrwt>
<pdfrwt beam="2">  1       -2 0.18797270E+00 0.20031904E+04</pdfrwt>
<totfact> 0.60257048E+00</totfact>
</mgrwt>
</event>
<event>
 8    2  0.7237260E-052  0.2620077E+04  0.7818608E-02  0.8361413E-01
          2   -1    0    0  501    0  0.00000000000E+00  0.00000000000E+00  0.10203110258E+04  0.10203110258E+04  0.25500000000E-02 0.  1.
         -2   -1    0    0    0  501 -0.00000000000E+00 -0.00000000000E+00 -0.16820366109E+04  0.16820366109E+04  0.25500000000E-02 0. -1.
    -200001    2    1    2    0    0 -0.27941943240E+02 -0.21949911813E+03  0.84126019503E+03  0.10641486651E+04  0.61297067679E+03 0.  0.
   -5000001    2    3    3    0    0  0.20385554649E+01 -0.40929624677E+03  0.43112279370E+03  0.60010613653E+03  0.82054485059E+02 0.  0.
     200001    1    1    2    0    0  0.27941943240E+02  0.21949911813E+03 -0.15029857802E+04  0.16381989716E+04  0.61300000000E+03 0. -1.
         11    1    4    4    0    0 -0.20203063501E+02 -0.35691135578E+02  0.55461071636E+02  0.68977905165E+02  0.51100000000E-03 0.  1.
    -200002    1    4    4    0    0  0.22241618966E+02 -0.37360511119E+03  0.37566172207E+03  0.53112823136E+03  0.30000000000E+02 0.  1.
    -200000    1    3    3    0    0 -0.29980498705E+02  0.18979712864E+03  0.41013740133E+03  0.46404252856E+03  0.10100000000E+03 0. -1.
<mgrwt>
<rscale>  0 0.26200767E+04</rscale>
<asrwt>0</asrwt>
<pdfrwt beam="1">  1        2 0.14575872E+00 0.26200767E+04</pdfrwt>
<pdfrwt beam="2">  1       -2 0.24029094E+00 0.26200767E+04</pdfrwt>
<totfact> 0.17874747E+00</totfact>
</mgrwt>
</event>
<event>
 8    2  0.7237260E-052  0.1927564E+04  0.7818608E-02  0.8641256E-01
          2   -1    0    0  501    0  0.00000000000E+00  0.00000000000E+00  0.12926432400E+04  0.12926432400E+04  0.25500000000E-02 0.  1.
         -2   -1    0    0    0  501 -0.00000000000E+00 -0.00000000000E+00 -0.71858660971E+03  0.71858660972E+03  0.25500000000E-02 0. -1.
    -200001    2    1    2    0    0  0.13770659580E+02  0.74056495831E+03  0.35860979691E+03  0.10259317088E+04  0.61262451475E+03 0.  0.
   -5000001    2    3    3    0    0  0.11370919384E+03  0.53136664089E+03  0.49371213805E+03  0.73921706104E+03  0.86080777449E+02 0.  0.
     200001    1    1    2    0    0 -0.13770659580E+02 -0.74056495831E+03  0.21544683337E+03  0.98529814094E+03  0.61300000000E+03 0. -1.
         11    1    4    4    0    0  0.57465831485E+02  0.31453616728E+03  0.33467100912E+03  0.46286067738E+03  0.51100000000E-03 0.  1.
    -200002    1    4    4    0    0  0.56243362359E+02  0.21683047362E+03  0.15904112893E+03  0.27635638366E+03  0.30000000000E+02 0. -1.
    -200000    1    3    3    0    0 -0.99938534265E+02  0.20919831741E+03 -0.13510234115E+03  0.28671464773E+03  0.10100000000E+03 0. -1.
<mgrwt>
<rscale>  0 0.19275644E+04</rscale>
<asrwt>0</asrwt>
<pdfrwt beam="1">  1        2 0.18466332E+00 0.19275644E+04</pdfrwt>
<pdfrwt beam="2">  1       -2 0.10265523E+00 0.19275644E+04</pdfrwt>
<totfact> 0.13795319E+01</totfact>
</mgrwt>
</event>
<event>
 8    2  0.7237260E-052  0.1417198E+04  0.7818608E-02  0.8941463E-01
         -2   -1    0    0    0  501 -0.00000000000E+00  0.00000000000E+00  0.33298216472E+03  0.33298216473E+03  0.25500000000E-02 0. -1.
          2   -1    0    0  501    0  0.00000000000E+00 -0.00000000000E+00 -0.15079270245E+04  0.15079270245E+04  0.25500000000E-02 0.  1.
    -200001    2    1    2    0    0  0.35266721650E+03  0.51719508043E+02 -0.57029689757E+03  0.90902012325E+03  0.61157988848E+03 0.  0.
   -5000001    2    3    3    0    0  0.23532600438E+03  0.14097362774E+03  0.24143569039E+02  0.28829818367E+03  0.85329002821E+02 0.  0.
     200001    1    1    2    0    0 -0.35266721650E+03 -0.51719508043E+02 -0.60464796223E+03  0.93188906600E+03  0.61300000000E+03 0.  1.
         11    1    4    4    0    0  0.47899415781E+02  0.65345354073E+02  0.22032618710E+02  0.83963120587E+02  0.51100000000E-03 0.  1.
    -200002    1    4    4    0    0  0.18742658860E+03  0.75628273668E+02  0.21109503292E+01  0.20433506308E+03  0.30000000000E+02 0.  1.
    -200000    1    3    3    0    0  0.11734121212E+03 -0.89254119698E+02 -0.59444046661E+03  0.62072193959E+03  0.10100000000E+03 0.  1.
<mgrwt>
<rscale>  0 0.14171984E+04</rscale>
<asrwt>0</asrwt>
<pdfrwt beam="1">  1        2 0.21541814E+00 0.14171984E+04</pdfrwt>
<pdfrwt beam="2">  1       -2 0.47568881E-01 0.14171984E+04</pdfrwt>
<totfact> 0.58983390E+01</totfact>
</mgrwt>
</event>
<event>
 8    2  0.7237260E-052  0.1344615E+04  0.7818608E-02  0.8994915E-01
          2   -1    0    0  501    0  0.00000000000E+00  0.00000000000E+00  0.11967419434E+04  0.11967419434E+04  0.25500000000E-02 0.  1.
         -2   -1    0    0    0  501 -0.00000000000E+00 -0.00000000000E+00 -0.37768970034E+03  0.37768970034E+03  0.25500000000E-02 0. -1.
    -200001    2    1    2    0    0 -0.13851767680E+03 -0.13044962138E+03  0.17617998383E+03  0.66599452859E+03  0.61343709939E+03 0.  0.
   -5000001    2    3    3    0    0 -0.30294205643E+03 -0.22815853272E+03  0.41186726345E+00  0.38728708561E+03  0.78491473649E+02 0.  0.
     200001    1    1    2    0    0  0.13851767680E+03  0.13044962138E+03  0.64287225925E+03  0.90843711517E+03  0.61300000000E+03 0.  1.
         11    1    4    4    0    0 -0.75436653573E+02 -0.63786455591E+02 -0.30345661074E+02  0.10334534225E+03  0.51100000000E-03 0.  1.
    -200002    1    4    4    0    0 -0.22750540286E+03 -0.16437207713E+03  0.30757528337E+02  0.28394174335E+03  0.30000000000E+02 0. -1.
    -200000    1    3    3    0    0  0.16442437963E+03  0.97708911343E+02  0.17576811657E+03  0.27870744299E+03  0.10100000000E+03 0.  1.
<mgrwt>
<rscale>  0 0.13446146E+04</rscale>
<asrwt>0</asrwt>
<pdfrwt beam="1">  1        2 0.17096313E+00 0.13446146E+04</pdfrwt>
<pdfrwt beam="2">  1       -2 0.53955672E-01 0.13446146E+04</pdfrwt>
<totfact> 0.67903303E+01</totfact>
</mgrwt>
</event>
<event>
 8    2  0.7237260E-052  0.1803713E+04  0.7818608E-02  0.8704327E-01
         -2   -1    0    0    0  501 -0.00000000000E+00  0.00000000000E+00  0.33226774639E+03  0.33226774640E+03  0.25500000000E-02 0. -1.
          2   -1    0    0  501    0  0.00000000000E+00 -0.00000000000E+00 -0.24478603895E+04  0.24478603895E+04  0.25500000000E-02 0.  1.
    -200001    2    1    2    0    0 -0.14320632071E+03 -0.24416478283E+03 -0.13668235683E+03  0.68920025273E+03  0.61334364774E+03 0.  0.
   -5000001    2    3    3    0    0 -0.84704683262E+02 -0.23068524134E+03  0.20373382985E+03  0.32907760727E+03  0.79962705339E+02 0.  0.
     200001    1    1    2    0    0  0.14320632071E+03  0.24416478283E+03 -0.19789102863E+04  0.20909278831E+04  0.61300000000E+03 0.  1.
         11    1    4    4    0    0 -0.52168838469E+02 -0.11550932922E+03  0.61792235901E+02  0.14100451504E+03  0.51100000000E-03 0.  1.
    -200002    1    4    4    0    0 -0.32535844793E+02 -0.11517591211E+03  0.14194159394E+03  0.18807309223E+03  0.30000000000E+02 0. -1.
    -200000    1    3    3    0    0 -0.58501637448E+02 -0.13479541490E+02 -0.34041618667E+03  0.36012264546E+03  0.10100000000E+03 0.  1.
<mgrwt>
<rscale>  0 0.18037129E+04</rscale>
<asrwt>0</asrwt>
<pdfrwt beam="1">  1        2 0.34969433E+00 0.18037129E+04</pdfrwt>
<pdfrwt beam="2">  1       -2 0.47466822E-01 0.18037129E+04</pdfrwt>
<totfact> 0.18700927E+01</totfact>
</mgrwt>
</event>
<event>
 8    2  0.7237260E-052  0.1295115E+04  0.7818608E-02  0.9033448E-01
          2   -1    0    0  501    0  0.00000000000E+00  0.00000000000E+00  0.27540338193E+04  0.27540338193E+04  0.25500000000E-02 0.  1.
         -2   -1    0    0    0  501 -0.00000000000E+00 -0.00000000000E+00 -0.15226044541E+03  0.15226044543E+03  0.25500000000E-02 0. -1.
    -200001    2    1    2    0    0 -0.67438748720E+02 -0.73971628113E+02  0.17089521137E+04  0.18186736556E+04  0.61403318504E+03 0.  0.
   -5000001    2    3    3    0    0 -0.25218171557E+03  0.51536482676E+02  0.37656830399E+03  0.46393018695E+03  0.84710708184E+02 0.  0.
     200001    1    1    2    0    0  0.67438748720E+02  0.73971628113E+02  0.89282126025E+03  0.10876206091E+04  0.61300000000E+03 0. -1.
         11    1    4    4    0    0 -0.18033092970E+03  0.77813529756E+01  0.27157935605E+03  0.32609069335E+03  0.51100000000E-03 0.  1.
    -200002    1    4    4    0    0 -0.71850785871E+02  0.43755129701E+02  0.10498894794E+03  0.13783949360E+03  0.30000000000E+02 0.  1.
    -200000    1    3    3    0    0  0.18474296685E+03 -0.12550811079E+03  0.13323838097E+04  0.13547434687E+04  0.10100000000E+03 0.  1.
<mgrwt>
<rscale>  0 0.12951145E+04</rscale>
<asrwt>0</asrwt>
<pdfrwt beam="1">  1        2 0.39343339E+00 0.12951145E+04</pdfrwt>
<pdfrwt beam="2">  1       -2 0.21751493E-01 0.12951145E+04</pdfrwt>
<totfact> 0.58598351E+01</totfact>
</mgrwt>
</event>
<event>
 8    2  0.7237260E-052  0.1344445E+04  0.7818608E-02  0.8995044E-01
         -2   -1    0    0    0  501 -0.00000000000E+00  0.00000000000E+00  0.28301341249E+03  0.28301341250E+03  0.25500000000E-02 0. -1.
          2   -1    0    0  501    0  0.00000000000E+00 -0.00000000000E+00 -0.15966839747E+04  0.15966839747E+04  0.25500000000E-02 0.  1.
    -200001    2    1    2    0    0 -0.18593328949E+03 -0.17630454119E+03 -0.75460080366E+03  0.10113757450E+04  0.62273914708E+03 0.  0.
   -5000001    2    3    3    0    0 -0.21236062406E+03  0.11074047359E+03 -0.17564524060E+03  0.35678901391E+03  0.19770347179E+03 0.  0.
     200001    1    1    2    0    0  0.18593328949E+03  0.17630454119E+03 -0.55906975854E+03  0.86832164219E+03  0.61300000000E+03 0. -1.
         11    1    4    4    0    0 -0.82909006884E+02 -0.53536239801E+02 -0.45925069731E+02  0.10885377543E+03  0.51100000000E-03 0.  1.
    -200002    1    4    4    0    0 -0.12945161717E+03  0.16427671339E+03 -0.12972017087E+03  0.24793523848E+03  0.30000000000E+02 0.  1.
    -200000    1    3    3    0    0  0.26427334573E+02 -0.28704501477E+03 -0.57895556306E+03  0.65458673109E+03  0.10100000000E+03 0.  1.
<mgrwt>
<rscale>  0 0.13444448E+04</rscale>
<asrwt>0</asrwt>
<pdfrwt beam="1">  1        2 0.22809771E+00 0.13444448E+04</pdfrwt>
<pdfrwt beam="2">  1       -2 0.40430488E-01 0.13444448E+04</pdfrwt>
<totfact> 0.73540657E+01</totfact>
</mgrwt>
</event>
<event>
 8    2  0.7237260E-052  0.2080148E+04  0.7818608E-02  0.8570039E-01
         -2   -1    0    0    0  501 -0.00000000000E+00  0.00000000000E+00  0.49359363087E+03  0.49359363088E+03  0.25500000000E-02 0. -1.
          2   -1    0    0  501    0  0.00000000000E+00 -0.00000000000E+00 -0.21915881655E+04  0.21915881655E+04  0.25500000000E-02 0.  1.
    -200001    2    1    2    0    0 -0.22701148658E+02  0.68634316142E+03 -0.22294550414E+03  0.94646936480E+03  0.61197817224E+03 0.  0.
   -5000001    2    3    3    0    0 -0.96128279700E+02  0.76187036906E+03 -0.20743088954E+03  0.79971240267E+03  0.82615057045E+02 0.  0.
     200001    1    1    2    0    0  0.22701148658E+02 -0.68634316142E+03 -0.14750490305E+04  0.17387124316E+04  0.61300000000E+03 0.  1.
         11    1    4    4    0    0 -0.33735043716E+02  0.28125356707E+03 -0.11334203890E+03  0.30510332668E+03  0.51100000000E-03 0.  1.
    -200002    1    4    4    0    0 -0.62393235984E+02  0.48061680198E+03 -0.94088850637E+02  0.49460907600E+03  0.30000000000E+02 0.  1.
    -200000    1    3    3    0    0  0.73427131042E+02 -0.75527207632E+02 -0.15514614599E+02  0.14675696212E+03  0.10100000000E+03 0.  1.
<mgrwt>
<rscale>  0 0.20801480E+04</rscale>
<asrwt>0</asrwt>
<pdfrwt beam="1">  1        2 0.31308402E+00 0.20801480E+04</pdfrwt>
<pdfrwt beam="2">  1       -2 0.70513377E-01 0.20801480E+04</pdfrwt>
<totfact> 0.10830169E+01</totfact>
</mgrwt>
</event>
<event>
 8    2  0.7237260E-052  0.1230533E+04  0.7818608E-02  0.9086543E-01
         -2   -1    0    0    0  501 -0.00000000000E+00  0.00000000000E+00  0.44814702587E+03  0.44814702588E+03  0.25500000000E-02 0. -1.
          2   -1    0    0  501    0  0.00000000000E+00 -0.00000000000E+00 -0.84470679752E+03  0.84470679753E+03  0.25500000000E-02 0.  1.
    -200001    2    1    2    0    0  0.51971598909E+02  0.23737142389E+02 -0.20770554209E+03  0.64888222539E+03  0.61208010194E+03 0.  0.
   -5000001    2    3    3    0    0  0.20661038666E+03  0.54042371922E+02 -0.34859985310E+03  0.41460937488E+03  0.69069865493E+02 0.  0.
     200001    1    1    2    0    0 -0.51971598909E+02 -0.23737142389E+02 -0.18885422956E+03  0.64397159801E+03  0.61300000000E+03 0. -1.
         11    1    4    4    0    0  0.34293572823E+02 -0.13638268734E+02 -0.57516671180E+02  0.68339000394E+02  0.51100000000E-03 0.  1.
    -200002    1    4    4    0    0  0.17231681384E+03  0.67680640656E+02 -0.29108318192E+03  0.34627037448E+03  0.30000000000E+02 0.  1.
    -200000    1    3    3    0    0 -0.15463878775E+03 -0.30305229532E+02  0.14089431100E+03  0.23427285051E+03  0.10100000000E+03 0.  1.
<mgrwt>
<rscale>  0 0.12305330E+04</rscale>
<asrwt>0</asrwt>
<pdfrwt beam="1">  1        2 0.12067240E+00 0.12305330E+04</pdfrwt>
<pdfrwt beam="2">  1       -2 0.64021004E-01 0.12305330E+04</pdfrwt>
<totfact> 0.78710669E+01</totfact>
</mgrwt>
</event>
<event>
 8    2  0.7237260E-052  0.1732790E+04  0.7818608E-02  0.8742881E-01
         -2   -1    0    0    0  501 -0.00000000000E+00  0.00000000000E+00  0.80549996227E+03  0.80549996228E+03  0.25500000000E-02 0. -1.
          2   -1    0    0  501    0  0.00000000000E+00 -0.00000000000E+00 -0.93189351577E+03  0.93189351577E+03  0.25500000000E-02 0.  1.
    -200001    2    1    2    0    0  0.97427899106E+01 -0.60965213021E+03 -0.11096195093E+02  0.86513599159E+03  0.61365015813E+03 0.  0.
   -5000001    2    3    3    0    0 -0.25280811263E+03 -0.12529200841E+03 -0.69360669833E+02  0.30198995988E+03  0.82322561721E+02 0.  0.
     200001    1    1    2    0    0 -0.97427899106E+01  0.60965213021E+03 -0.11529735840E+03  0.87225748646E+03  0.61300000000E+03 0. -1.
         11    1    4    4    0    0 -0.65028855208E+02 -0.58327144654E+02  0.40118296621E+01  0.87446569919E+02  0.51100000000E-03 0.  1.
    -200002    1    4    4    0    0 -0.18777925742E+03 -0.66964863760E+02 -0.73372499495E+02  0.21454338997E+03  0.30000000000E+02 0.  1.
    -200000    1    3    3    0    0  0.26255090254E+03 -0.48436012180E+03  0.58264474740E+02  0.56314603171E+03  0.10100000000E+03 0.  1.
<mgrwt>
<rscale>  0 0.17327899E+04</rscale>
<asrwt>0</asrwt>
<pdfrwt beam="1">  1        2 0.13312765E+00 0.17327899E+04</pdfrwt>
<pdfrwt beam="2">  1       -2 0.11507142E+00 0.17327899E+04</pdfrwt>
<totfact> 0.17376250E+01</totfact>
</mgrwt>
</event>
<event>
 8    2  0.7237260E-052  0.1480391E+04  0.7818608E-02  0.8897598E-01
          2   -1    0    0  501    0  0.00000000000E+00  0.00000000000E+00  0.12471289495E+04  0.12471289495E+04  0.25500000000E-02 0.  1.
         -2   -1    0    0    0  501 -0.00000000000E+00 -0.00000000000E+00 -0.43932053081E+03  0.43932053081E+03  0.25500000000E-02 0. -1.
    -200001    2    1    2    0    0  0.27699793473E+03  0.25961675047E+03  0.21294669592E+03  0.75169914885E+03  0.61284304851E+03 0.  0.
   -5000001    2    3    3    0    0  0.34060369456E+03  0.32165994511E+03  0.32554968075E+03  0.57626972465E+03  0.81413781821E+02 0.  0.
     200001    1    1    2    0    0 -0.27699793473E+03 -0.25961675047E+03  0.59486172280E+03  0.93475033149E+03  0.61300000000E+03 0.  1.
         11    1    4    4    0    0  0.17853637797E+03  0.15801984517E+03  0.20579440679E+03  0.31495531047E+03  0.51100000000E-03 0.  1.
    -200002    1    4    4    0    0  0.16206731659E+03  0.16364009994E+03  0.11975527396E+03  0.26131441418E+03  0.30000000000E+02 0. -1.
    -200000    1    3    3    0    0 -0.63605759826E+02 -0.62043194648E+02 -0.11260298482E+03  0.17542942420E+03  0.10100000000E+03 0. -1.
<mgrwt>
<rscale>  0 0.14803910E+04</rscale>
<asrwt>0</asrwt>
<pdfrwt beam="1">  1        2 0.17816128E+00 0.14803910E+04</pdfrwt>
<pdfrwt beam="2">  1       -2 0.62760076E-01 0.14803910E+04</pdfrwt>
<totfact> 0.45838051E+01</totfact>
</mgrwt>
</event>
<event>
 8    2  0.7237260E-052  0.1514866E+04  0.7818608E-02  0.8874627E-01
          2   -1    0    0  501    0  0.00000000000E+00  0.00000000000E+00  0.39730230932E+04  0.39730230932E+04  0.25500000000E-02 0.  1.
         -2   -1    0    0    0  501 -0.00000000000E+00 -0.00000000000E+00 -0.14439998427E+03  0.14439998429E+03  0.25500000000E-02 0. -1.
    -200001    2    1    2    0    0 -0.30996517881E+03 -0.16496176801E+03  0.26564338886E+04  0.27488152574E+04  0.61323202609E+03 0.  0.
   -5000001    2    3    3    0    0 -0.24357273950E+03  0.13016429743E+03  0.19753164169E+04  0.19967319105E+04  0.93770739414E+02 0.  0.
     200001    1    1    2    0    0  0.30996517881E+03  0.16496176801E+03  0.11721892204E+04  0.13686078202E+04  0.61300000000E+03 0.  1.
         11    1    4    4    0    0 -0.23299451628E+02  0.40079094197E+02  0.20109453674E+03  0.20636911335E+03  0.51100000000E-03 0.  1.
    -200002    1    4    4    0    0 -0.22027328787E+03  0.90085203229E+02  0.17742218802E+04  0.17903627971E+04  0.30000000000E+02 0.  1.
    -200000    1    3    3    0    0 -0.66392439311E+02 -0.29512606544E+03  0.68111747164E+03  0.75208334689E+03  0.10100000000E+03 0. -1.
<mgrwt>
<rscale>  0 0.15148656E+04</rscale>
<asrwt>0</asrwt>
<pdfrwt beam="1">  1        2 0.56757466E+00 0.15148656E+04</pdfrwt>
<pdfrwt beam="2">  1       -2 0.20628571E-01 0.15148656E+04</pdfrwt>
<totfact> 0.11829146E+01</totfact>
</mgrwt>
</event>
<event>
 8    2  0.7237260E-052  0.1356754E+04  0.7818608E-02  0.8985731E-01
         -2   -1    0    0    0  501 -0.00000000000E+00  0.00000000000E+00  0.12460142151E+04  0.12460142151E+04  0.25500000000E-02 0. -1.
          2   -1    0    0  501    0  0.00000000000E+00 -0.00000000000E+00 -0.36933369782E+03  0.36933369782E+03  0.25500000000E-02 0.  1.
    -200001    2    1    2    0    0  0.28042849317E+03 -0.74864876489E+02  0.45996076770E+03  0.81931447190E+03  0.61275395269E+03 0.  0.
   -5000001    2    3    3    0    0  0.33298769655E+03 -0.27955845504E+03  0.32001477929E+03  0.54646321090E+03  0.84728071283E+02 0.  0.
     200001    1    1    2    0    0 -0.28042849317E+03  0.74864876489E+02  0.41671974955E+03  0.79603344099E+03  0.61300000000E+03 0. -1.
         11    1    4    4    0    0  0.18638054281E+03 -0.11233419072E+03  0.17532990657E+03  0.27945885794E+03  0.51100000000E-03 0.  1.
    -200002    1    4    4    0    0  0.14660715374E+03 -0.16722426432E+03  0.14468487272E+03  0.26700435296E+03  0.30000000000E+02 0. -1.
    -200000    1    3    3    0    0 -0.52559203381E+02  0.20469357855E+03  0.13994598841E+03  0.27285126100E+03  0.10100000000E+03 0. -1.
<mgrwt>
<rscale>  0 0.13567535E+04</rscale>
<asrwt>0</asrwt>
<pdfrwt beam="1">  1        2 0.52761956E-01 0.13567535E+04</pdfrwt>
<pdfrwt beam="2">  1       -2 0.17800203E+00 0.13567535E+04</pdfrwt>
<totfact> 0.17292171E+01</totfact>
</mgrwt>
</event>
<event>
 8    2  0.7237260E-052  0.1650723E+04  0.7818608E-02  0.8789979E-01
          2   -1    0    0  501    0  0.00000000000E+00  0.00000000000E+00  0.29135467518E+04  0.29135467518E+04  0.25500000000E-02 0.  1.
         -2   -1    0    0    0  501 -0.00000000000E+00 -0.00000000000E+00 -0.23381191183E+03  0.23381191184E+03  0.25500000000E-02 0. -1.
    -200001    2    1    2    0    0 -0.47604701931E+03 -0.25285503768E+03  0.15713990638E+04  0.17708654281E+04  0.61328045151E+03 0.  0.
   -5000001    2    3    3    0    0 -0.47273869857E+03  0.61208765851E+02  0.97497577233E+03  0.10892726169E+04  0.93320347419E+02 0.  0.
     200001    1    1    2    0    0  0.47604701931E+03  0.25285503768E+03  0.11083357763E+04  0.13764932356E+04  0.61300000000E+03 0.  1.
         11    1    4    4    0    0 -0.40353722150E+03  0.64650303982E+02  0.78919684344E+03  0.88873708635E+03  0.51100000000E-03 0.  1.
    -200002    1    4    4    0    0 -0.69201477068E+02 -0.34415381311E+01  0.18577892889E+03  0.20053553060E+03  0.30000000000E+02 0. -1.
    -200000    1    3    3    0    0 -0.33083207368E+01 -0.31406380353E+03  0.59642329142E+03  0.68159281116E+03  0.10100000000E+03 0.  1.
<mgrwt>
<rscale>  0 0.16507234E+04</rscale>
<asrwt>0</asrwt>
<pdfrwt beam="1">  1        2 0.41622096E+00 0.16507234E+04</pdfrwt>
<pdfrwt beam="2">  1       -2 0.33401702E-01 0.16507234E+04</pdfrwt>
<totfact> 0.21188495E+01</totfact>
</mgrwt>
</event>
<event>
 8    2  0.7237260E-052  0.2223101E+04  0.7818608E-02  0.8508874E-01
         -2   -1    0    0    0  501 -0.00000000000E+00  0.00000000000E+00  0.30067616052E+03  0.30067616053E+03  0.25500000000E-02 0. -1.
          2   -1    0    0  501    0  0.00000000000E+00 -0.00000000000E+00 -0.41092193368E+04  0.41092193368E+04  0.25500000000E-02 0.  1.
    -200001    2    1    2    0    0  0.55152424751E+03  0.66016878074E+03 -0.25939421725E+04  0.28002289440E+04  0.61052791064E+03 0.  0.
   -5000001    2    3    3    0    0  0.19380393504E+03  0.64372683345E+02 -0.13733961882E+04  0.13920846646E+04  0.99894024528E+02 0.  0.
     200001    1    1    2    0    0 -0.55152424751E+03 -0.66016878074E+03 -0.12146010038E+04  0.16096665534E+04  0.61300000000E+03 0.  1.
         11    1    4    4    0    0  0.99169128623E+02  0.36744941960E+02 -0.41897841056E+03  0.43211990852E+03  0.51100000000E-03 0.  1.
    -200002    1    4    4    0    0  0.94634806417E+02  0.27627741385E+02 -0.95441777765E+03  0.95996475611E+03  0.30000000000E+02 0.  1.
    -200000    1    3    3    0    0  0.35772031247E+03  0.59579609739E+03 -0.12205459843E+04  0.14081442793E+04  0.10100000000E+03 0. -1.
<mgrwt>
<rscale>  0 0.22231008E+04</rscale>
<asrwt>0</asrwt>
<pdfrwt beam="1">  1        2 0.58703130E+00 0.22231008E+04</pdfrwt>
<pdfrwt beam="2">  1       -2 0.42953740E-01 0.22231008E+04</pdfrwt>
<totfact> 0.22592500E+00</totfact>
</mgrwt>
</event>
<event>
 8    2  0.7237260E-052  0.1351857E+04  0.7818608E-02  0.8989424E-01
          2   -1    0    0  501    0  0.00000000000E+00  0.00000000000E+00  0.41064297936E+04  0.41064297936E+04  0.25500000000E-02 0.  1.
         -2   -1    0    0    0  501 -0.00000000000E+00 -0.00000000000E+00 -0.11125950017E+03  0.11125950020E+03  0.25500000000E-02 0. -1.
    -200001    2    1    2    0    0  0.21515275082E+03 -0.18697188517E+03  0.19359626082E+04  0.20503511838E+04  0.61215975419E+03 0.  0.
   -5000001    2    3    3    0    0  0.14713430147E+03 -0.24528823023E+03  0.18817377511E+04  0.19048567142E+04  0.75679054874E+02 0.  0.
     200001    1    1    2    0    0 -0.21515275082E+03  0.18697188517E+03  0.20592076853E+04  0.21673381100E+04  0.61300000000E+03 0.  1.
         11    1    4    4    0    0 -0.63413510408E+01 -0.23601119057E+02  0.13989051343E+03  0.14200908880E+03  0.51100000000E-03 0.  1.
    -200002    1    4    4    0    0  0.15347565251E+03 -0.22168711117E+03  0.17418472376E+04  0.17628476254E+04  0.30000000000E+02 0.  1.
    -200000    1    3    3    0    0  0.68018449346E+02  0.58316345063E+02  0.54224857112E+02  0.14549446959E+03  0.10100000000E+03 0. -1.
<mgrwt>
<rscale>  0 0.13518570E+04</rscale>
<asrwt>0</asrwt>
<pdfrwt beam="1">  1        2 0.58663285E+00 0.13518570E+04</pdfrwt>
<pdfrwt beam="2">  1       -2 0.15894214E-01 0.13518570E+04</pdfrwt>
<totfact> 0.15332969E+01</totfact>
</mgrwt>
</event>
<event>
 8    2  0.7237260E-052  0.1593140E+04  0.7818608E-02  0.8824773E-01
         -2   -1    0    0    0  501 -0.00000000000E+00  0.00000000000E+00  0.63493827717E+03  0.63493827718E+03  0.25500000000E-02 0. -1.
          2   -1    0    0  501    0  0.00000000000E+00 -0.00000000000E+00 -0.99934712523E+03  0.99934712523E+03  0.25500000000E-02 0.  1.
    -200001    2    1    2    0    0  0.20883875649E+03  0.44598601617E+03 -0.52561682011E+02  0.78839249678E+03  0.61341898057E+03 0.  0.
   -5000001    2    3    3    0    0  0.19574464545E+03  0.18251652417E+03 -0.29882796910E+03  0.41364496427E+03  0.10087494006E+03 0.  0.
     200001    1    1    2    0    0 -0.20883875649E+03 -0.44598601617E+03 -0.31184716604E+03  0.84589290563E+03  0.61300000000E+03 0. -1.
         11    1    4    4    0    0 -0.53412382847E+01 -0.64565149924E+01 -0.73595980880E+01  0.11152537673E+02  0.51100000000E-03 0.  1.
    -200002    1    4    4    0    0  0.20108588373E+03  0.18897303916E+03 -0.29146837102E+03  0.40249242660E+03  0.30000000000E+02 0.  1.
    -200000    1    3    3    0    0  0.13094111042E+02  0.26346949200E+03  0.24626628709E+03  0.37474753250E+03  0.10100000000E+03 0. -1.
<mgrwt>
<rscale>  0 0.15931400E+04</rscale>
<asrwt>0</asrwt>
<pdfrwt beam="1">  1        2 0.14276387E+00 0.15931400E+04</pdfrwt>
<pdfrwt beam="2">  1       -2 0.90705469E-01 0.15931400E+04</pdfrwt>
<totfact> 0.28063031E+01</totfact>
</mgrwt>
</event>
<event>
 8    2  0.7237260E-052  0.1353242E+04  0.7818608E-02  0.8988377E-01
         -2   -1    0    0    0  501 -0.00000000000E+00  0.00000000000E+00  0.14564307392E+03  0.14564307394E+03  0.25500000000E-02 0. -1.
          2   -1    0    0  501    0  0.00000000000E+00 -0.00000000000E+00 -0.31434120877E+04  0.31434120877E+04  0.25500000000E-02 0.  1.
    -200001    2    1    2    0    0 -0.19638310799E+03 -0.36500936441E+02 -0.20005758293E+04  0.21015948925E+04  0.61196307093E+03 0.  0.
   -5000001    2    3    3    0    0 -0.24775727702E+03  0.23344585090E+03 -0.11241174862E+04  0.11775327732E+04  0.84039726086E+02 0.  0.
     200001    1    1    2    0    0  0.19638310799E+03  0.36500936441E+02 -0.99719318448E+03  0.11874602691E+04  0.61300000000E+03 0. -1.
         11    1    4    4    0    0 -0.98078782044E+01  0.40246179414E+02 -0.16841145707E+03  0.17343116302E+03  0.51100000000E-03 0.  1.
    -200002    1    4    4    0    0 -0.23794939882E+03  0.19319967149E+03 -0.95570602916E+03  0.10041016102E+04  0.30000000000E+02 0.  1.
    -200000    1    3    3    0    0  0.51374169030E+02 -0.26994678735E+03 -0.87645834305E+03  0.92406211931E+03  0.10100000000E+03 0.  1.
<mgrwt>
<rscale>  0 0.13532423E+04</rscale>
<asrwt>0</asrwt>
<pdfrwt beam="1">  1        2 0.44905883E+00 0.13532423E+04</pdfrwt>
<pdfrwt beam="2">  1       -2 0.20806155E-01 0.13532423E+04</pdfrwt>
<totfact> 0.38459549E+01</totfact>
</mgrwt>
</event>
<event>
 8    2  0.7237260E-052  0.1436320E+04  0.7818608E-02  0.8927940E-01
          2   -1    0    0  501    0  0.00000000000E+00  0.00000000000E+00  0.14531103223E+04  0.14531103223E+04  0.25500000000E-02 0.  1.
         -2   -1    0    0    0  501 -0.00000000000E+00 -0.00000000000E+00 -0.35493110269E+03  0.35493110270E+03  0.25500000000E-02 0. -1.
    -200001    2    1    2    0    0 -0.29212652183E+03 -0.19873092761E+03  0.39469740336E+03  0.81030019996E+03  0.61316269251E+03 0.  0.
   -5000001    2    3    3    0    0 -0.77594957136E+02 -0.88196452790E+02 -0.14751464765E+03  0.20827314854E+03  0.88416861944E+02 0.  0.
     200001    1    1    2    0    0  0.29212652183E+03  0.19873092761E+03  0.70348181625E+03  0.99774122504E+03  0.61300000000E+03 0.  1.
         11    1    4    4    0    0 -0.35041316214E+02 -0.55869418251E+02 -0.23623006303E+02  0.70052353028E+02  0.51100000000E-03 0.  1.
    -200002    1    4    4    0    0 -0.42553640922E+02 -0.32327034539E+02 -0.12389164135E+03  0.13822079552E+03  0.30000000000E+02 0. -1.
    -200000    1    3    3    0    0 -0.21453156470E+03 -0.11053447482E+03  0.54221205101E+03  0.60202705141E+03  0.10100000000E+03 0.  1.
<mgrwt>
<rscale>  0 0.14363204E+04</rscale>
<asrwt>0</asrwt>
<pdfrwt beam="1">  1        2 0.20758719E+00 0.14363204E+04</pdfrwt>
<pdfrwt beam="2">  1       -2 0.50704444E-01 0.14363204E+04</pdfrwt>
<totfact> 0.55345256E+01</totfact>
</mgrwt>
</event>
<event>
 8    2  0.7237260E-052  0.1337606E+04  0.7818608E-02  0.9000264E-01
          2   -1    0    0  501    0  0.00000000000E+00  0.00000000000E+00  0.26020892235E+04  0.26020892235E+04  0.25500000000E-02 0.  1.
         -2   -1    0    0    0  501 -0.00000000000E+00 -0.00000000000E+00 -0.17189926374E+03  0.17189926376E+03  0.25500000000E-02 0. -1.
    -200001    2    1    2    0    0  0.15072659547E+03 -0.21922814975E+03  0.12834679100E+04  0.14467658429E+04  0.61242308905E+03 0.  0.
   -5000001    2    3    3    0    0 -0.89504406082E+02  0.82595908233E+02  0.76019024801E+03  0.78886827671E+03  0.17201983044E+03 0.  0.
     200001    1    1    2    0    0 -0.15072659547E+03  0.21922814975E+03  0.11467220497E+04  0.13272226443E+04  0.61300000000E+03 0. -1.
         11    1    4    4    0    0  0.49445182391E+02  0.75501842854E+01  0.18313849225E+03  0.18984609210E+03  0.51100000000E-03 0.  1.
    -200002    1    4    4    0    0 -0.13894958847E+03  0.75045723947E+02  0.57705175576E+03  0.59902218460E+03  0.30000000000E+02 0.  1.
    -200000    1    3    3    0    0  0.24023100156E+03 -0.30182405798E+03  0.52327766199E+03  0.65789756621E+03  0.10100000000E+03 0. -1.
<mgrwt>
<rscale>  0 0.13376057E+04</rscale>
<asrwt>0</asrwt>
<pdfrwt beam="1">  1        2 0.37172700E+00 0.13376057E+04</pdfrwt>
<pdfrwt beam="2">  1       -2 0.24557040E-01 0.13376057E+04</pdfrwt>
<totfact> 0.56614023E+01</totfact>
</mgrwt>
</event>
<event>
 8    2  0.7237260E-052  0.1307087E+04  0.7818608E-02  0.9023964E-01
          2   -1    0    0  501    0  0.00000000000E+00  0.00000000000E+00  0.19994222694E+04  0.19994222694E+04  0.25500000000E-02 0.  1.
         -2   -1    0    0    0  501 -0.00000000000E+00 -0.00000000000E+00 -0.21362120894E+03  0.21362120895E+03  0.25500000000E-02 0. -1.
    -200001    2    1    2    0    0  0.16103282238E+02  0.22246332399E+03  0.83478732113E+03  0.10598109005E+04  0.61366116633E+03 0.  0.
   -5000001    2    3    3    0    0  0.77963164909E+01  0.19392403851E+03  0.90043405353E+03  0.93573838150E+03  0.16479538399E+03 0.  0.
     200001    1    1    2    0    0 -0.16103282238E+02 -0.22246332399E+03  0.95101373931E+03  0.11532325778E+04  0.61300000000E+03 0.  1.
         11    1    4    4    0    0 -0.52931707873E+02  0.40254606384E+02  0.11765370842E+03  0.13514656540E+03  0.51100000000E-03 0.  1.
    -200002    1    4    4    0    0  0.60728024364E+02  0.15366943213E+03  0.78278034511E+03  0.80059181610E+03  0.30000000000E+02 0.  1.
    -200000    1    3    3    0    0  0.83069657472E+01  0.28539285483E+02 -0.65646732400E+02  0.12407251900E+03  0.10100000000E+03 0. -1.
<mgrwt>
<rscale>  0 0.13070868E+04</rscale>
<asrwt>0</asrwt>
<pdfrwt beam="1">  1        2 0.28563177E+00 0.13070868E+04</pdfrwt>
<pdfrwt beam="2">  1       -2 0.30517314E-01 0.13070868E+04</pdfrwt>
<totfact> 0.78171549E+01</totfact>
</mgrwt>
</event>
<event>
 8    2  0.7237260E-052  0.1556674E+04  0.7818608E-02  0.8847616E-01
         -2   -1    0    0    0  501 -0.00000000000E+00  0.00000000000E+00  0.82484041464E+03  0.82484041464E+03  0.25500000000E-02 0. -1.
          2   -1    0    0  501    0  0.00000000000E+00 -0.00000000000E+00 -0.73445502620E+03  0.73445502621E+03  0.25500000000E-02 0.  1.
    -200001    2    1    2    0    0 -0.79628619653E+02  0.23497830181E+03  0.45645641543E+03  0.80343003207E+03  0.61285547877E+03 0.  0.
   -5000001    2    3    3    0    0  0.16359971976E+03  0.98262335204E+02  0.46548081282E+03  0.50655679251E+03  0.59220284581E+02 0.  0.
     200001    1    1    2    0    0  0.79628619653E+02 -0.23497830181E+03 -0.36607102699E+03  0.75586540878E+03  0.61300000000E+03 0.  1.
         11    1    4    4    0    0  0.11381397847E+03  0.51151098231E+02  0.27941570724E+03  0.30601175468E+03  0.51100000000E-03 0.  1.
    -200002    1    4    4    0    0  0.49785741283E+02  0.47111236973E+02  0.18606510558E+03  0.20054503783E+03  0.30000000000E+02 0. -1.
    -200000    1    3    3    0    0 -0.24322833941E+03  0.13671596661E+03 -0.90243973968E+01  0.29687323956E+03  0.10100000000E+03 0.  1.
<mgrwt>
<rscale>  0 0.15566736E+04</rscale>
<asrwt>0</asrwt>
<pdfrwt beam="1">  1        2 0.10492215E+00 0.15566736E+04</pdfrwt>
<pdfrwt beam="2">  1       -2 0.11783435E+00 0.15566736E+04</pdfrwt>
<totfact> 0.22704021E+01</totfact>
</mgrwt>
</event>
<event>
 8    2  0.7237260E-052  0.1509425E+04  0.7818608E-02  0.8878209E-01
         -2   -1    0    0    0  501 -0.00000000000E+00  0.00000000000E+00  0.28397329067E+03  0.28397329068E+03  0.25500000000E-02 0. -1.
          2   -1    0    0  501    0  0.00000000000E+00 -0.00000000000E+00 -0.20057918542E+04  0.20057918542E+04  0.25500000000E-02 0.  1.
    -200001    2    1    2    0    0  0.41689181993E+03  0.13186860484E+03 -0.82821360434E+03  0.11212246271E+04  0.61645662592E+03 0.  0.
   -5000001    2    3    3    0    0  0.14259861906E+03 -0.22022924046E+03 -0.17746754175E+03  0.32568638754E+03  0.75773413158E+02 0.  0.
     200001    1    1    2    0    0 -0.41689181993E+03 -0.13186860484E+03 -0.89360495915E+03  0.11685405177E+04  0.61300000000E+03 0.  1.
         11    1    4    4    0    0  0.23318991215E+02 -0.96136355237E+01 -0.21482778426E+01  0.25314273389E+02  0.51100000000E-03 0.  1.
    -200002    1    4    4    0    0  0.11927962784E+03 -0.21061560493E+03 -0.17531926391E+03  0.30037211415E+03  0.30000000000E+02 0.  1.
    -200000    1    3    3    0    0  0.27429320087E+03  0.35209784530E+03 -0.65074606259E+03  0.79553823961E+03  0.10100000000E+03 0. -1.
<mgrwt>
<rscale>  0 0.15094255E+04</rscale>
<asrwt>0</asrwt>
<pdfrwt beam="1">  1        2 0.28654168E+00 0.15094255E+04</pdfrwt>
<pdfrwt beam="2">  1       -2 0.40567614E-01 0.15094255E+04</pdfrwt>
<totfact> 0.44322639E+01</totfact>
</mgrwt>
</event>
<event>
 8    2  0.7237260E-052  0.1373435E+04  0.7818608E-02  0.8973275E-01
         -2   -1    0    0    0  501 -0.00000000000E+00  0.00000000000E+00  0.18428406585E+03  0.18428406587E+03  0.25500000000E-02 0. -1.
          2   -1    0    0  501    0  0.00000000000E+00 -0.00000000000E+00 -0.25589887038E+04  0.25589887038E+04  0.25500000000E-02 0.  1.
    -200001    2    1    2    0    0 -0.28199048229E+03  0.10885647862E+03 -0.10699133012E+04  0.12703105171E+04  0.61449651970E+03 0.  0.
   -5000001    2    3    3    0    0 -0.45341267774E+03  0.60945586370E+02 -0.81505930006E+03  0.94345797452E+03  0.12842844794E+03 0.  0.
     200001    1    1    2    0    0  0.28199048229E+03 -0.10885647862E+03 -0.13047913368E+04  0.14729622526E+04  0.61300000000E+03 0. -1.
         11    1    4    4    0    0 -0.33495562991E+03  0.51586654190E+02 -0.48754413996E+03  0.59376404852E+03  0.51100000000E-03 0.  1.
    -200002    1    4    4    0    0 -0.11845704783E+03  0.93589321803E+01 -0.32751516009E+03  0.34969392600E+03  0.30000000000E+02 0. -1.
    -200000    1    3    3    0    0  0.17142219545E+03  0.47910892255E+02 -0.25485400109E+03  0.32685254254E+03  0.10100000000E+03 0. -1.
<mgrwt>
<rscale>  0 0.13734349E+04</rscale>
<asrwt>0</asrwt>
<pdfrwt beam="1">  1        2 0.36556979E+00 0.13734349E+04</pdfrwt>
<pdfrwt beam="2">  1       -2 0.26326297E-01 0.13734349E+04</pdfrwt>
<totfact> 0.52423144E+01</totfact>
</mgrwt>
</event>
<event>
 8    2  0.7237260E-052  0.1833223E+04  0.7818608E-02  0.8688828E-01
          2   -1    0    0  501    0  0.00000000000E+00  0.00000000000E+00  0.69923064334E+03  0.69923064334E+03  0.25500000000E-02 0.  1.
         -2   -1    0    0    0  501 -0.00000000000E+00 -0.00000000000E+00 -0.12015735559E+04  0.12015735559E+04  0.25500000000E-02 0. -1.
    -200001    2    1    2    0    0  0.46269089347E+03  0.29119027294E+03  0.17020410638E+03  0.83921900217E+03  0.61355069702E+03 0.  0.
   -5000001    2    3    3    0    0 -0.11627589988E+03  0.11569529041E+03  0.49794441451E+02  0.21415858581E+03  0.12837027833E+03 0.  0.
     200001    1    1    2    0    0 -0.46269089347E+03 -0.29119027294E+03 -0.67254701892E+03  0.10615851971E+04  0.61300000000E+03 0. -1.
         11    1    4    4    0    0 -0.11956130265E+03  0.82913425938E+02 -0.24179417345E+01  0.14551765438E+03  0.51100000000E-03 0.  1.
    -200002    1    4    4    0    0  0.32854027746E+01  0.32781864477E+02  0.52212383185E+02  0.68640931432E+02  0.30000000000E+02 0.  1.
    -200000    1    3    3    0    0  0.57896679334E+03  0.17549498253E+03  0.12040966493E+03  0.62506041636E+03  0.10100000000E+03 0. -1.
<mgrwt>
<rscale>  0 0.18332234E+04</rscale>
<asrwt>0</asrwt>
<pdfrwt beam="1">  1        2 0.99890092E-01 0.18332234E+04</pdfrwt>
<pdfrwt beam="2">  1       -2 0.17165337E+00 0.18332234E+04</pdfrwt>
<totfact> 0.88254104E+00</totfact>
</mgrwt>
</event>
<event>
 8    2  0.7237260E-052  0.3231644E+04  0.7818608E-02  0.8180510E-01
         -2   -1    0    0    0  501 -0.00000000000E+00  0.00000000000E+00  0.17144254654E+04  0.17144254654E+04  0.25500000000E-02 0. -1.
          2   -1    0    0  501    0  0.00000000000E+00 -0.00000000000E+00 -0.15228898668E+04  0.15228898668E+04  0.25500000000E-02 0.  1.
    -200001    2    1    2    0    0 -0.27956115332E+03 -0.15435197164E+03  0.15595048032E+04  0.17046419441E+04  0.60972941290E+03 0.  0.
   -5000001    2    3    3    0    0 -0.26356913196E+03 -0.35352074399E+03  0.11315593327E+04  0.12216696154E+04  0.13268203341E+03 0.  0.
     200001    1    1    2    0    0  0.27956115332E+03  0.15435197164E+03 -0.13679692046E+04  0.15326733880E+04  0.61300000000E+03 0.  1.
         11    1    4    4    0    0 -0.12555084775E+03 -0.16203280589E+03  0.36016079946E+03  0.41440734432E+03  0.51100000000E-03 0.  1.
    -200002    1    4    4    0    0 -0.13801828421E+03 -0.19148793811E+03  0.77139853323E+03  0.80726227106E+03  0.30000000000E+02 0.  1.
    -200000    1    3    3    0    0 -0.15992021360E+02  0.19916877235E+03  0.42794547050E+03  0.48297232876E+03  0.10100000000E+03 0. -1.
<mgrwt>
<rscale>  0 0.32316443E+04</rscale>
<asrwt>0</asrwt>
<pdfrwt beam="1">  1        2 0.21755569E+00 0.32316443E+04</pdfrwt>
<pdfrwt beam="2">  1       -2 0.24491793E+00 0.32316443E+04</pdfrwt>
<totfact> 0.83137395E-01</totfact>
</mgrwt>
</event>
<event>
 8    2  0.7237260E-052  0.1281998E+04  0.7818608E-02  0.9043964E-01
         -2   -1    0    0    0  501 -0.00000000000E+00  0.00000000000E+00  0.31063983316E+03  0.31063983317E+03  0.25500000000E-02 0. -1.
          2   -1    0    0  501    0  0.00000000000E+00 -0.00000000000E+00 -0.13226889713E+04  0.13226889713E+04  0.25500000000E-02 0.  1.
    -200001    2    1    2    0    0  0.15939660575E+03 -0.27840995379E+02 -0.62538465906E+03  0.89072472536E+03  0.61327168990E+03 0.  0.
   -5000001    2    3    3    0    0  0.13967999817E+03 -0.29828892312E+03 -0.38827606600E+03  0.51662271904E+03  0.87486838155E+02 0.  0.
     200001    1    1    2    0    0 -0.15939660575E+03  0.27840995379E+02 -0.38666447909E+03  0.74260407913E+03  0.61300000000E+03 0. -1.
         11    1    4    4    0    0  0.55522823050E+02 -0.48602967295E+02 -0.63661665736E+02  0.97456862220E+02  0.51100000000E-03 0.  1.
    -200002    1    4    4    0    0  0.84157175117E+02 -0.24968595583E+03 -0.32461440026E+03  0.41916585682E+03  0.30000000000E+02 0. -1.
    -200000    1    3    3    0    0  0.19716607587E+02  0.27044792774E+03 -0.23710859306E+03  0.37410200633E+03  0.10100000000E+03 0. -1.
<mgrwt>
<rscale>  0 0.12819983E+04</rscale>
<asrwt>0</asrwt>
<pdfrwt beam="1">  1        2 0.18895556E+00 0.12819983E+04</pdfrwt>
<pdfrwt beam="2">  1       -2 0.44377120E-01 0.12819983E+04</pdfrwt>
<totfact> 0.86189688E+01</totfact>
</mgrwt>
</event>
<event>
 8    2  0.7237260E-052  0.1658823E+04  0.7818608E-02  0.8785204E-01
          2   -1    0    0  501    0  0.00000000000E+00  0.00000000000E+00  0.18144520240E+04  0.18144520240E+04  0.25500000000E-02 0.  1.
         -2   -1    0    0    0  501 -0.00000000000E+00 -0.00000000000E+00 -0.37913586054E+03  0.37913586054E+03  0.25500000000E-02 0. -1.
    -200001    2    1    2    0    0  0.23008843505E+03  0.26141652629E+03  0.12952384575E+04  0.14747902413E+04  0.61325712884E+03 0.  0.
   -5000001    2    3    3    0    0  0.13289592771E+03 -0.10872727552E+03  0.88054096437E+03  0.90152954298E+03  0.88995386894E+02 0.  0.
     200001    1    1    2    0    0 -0.23008843505E+03 -0.26141652629E+03  0.14007770599E+03  0.71879764320E+03  0.61300000000E+03 0. -1.
         11    1    4    4    0    0  0.44367205790E+02 -0.50174433733E+02  0.52547793847E+03  0.52972916342E+03  0.51100000000E-03 0.  1.
    -200002    1    4    4    0    0  0.88528721917E+02 -0.58552841783E+02  0.35506302590E+03  0.37180037957E+03  0.30000000000E+02 0.  1.
    -200000    1    3    3    0    0  0.97192507341E+02  0.37014380180E+03  0.41469749308E+03  0.57326069834E+03  0.10100000000E+03 0.  1.
<mgrwt>
<rscale>  0 0.16588235E+04</rscale>
<asrwt>0</asrwt>
<pdfrwt beam="1">  1        2 0.25920743E+00 0.16588235E+04</pdfrwt>
<pdfrwt beam="2">  1       -2 0.54162266E-01 0.16588235E+04</pdfrwt>
<totfact> 0.30714921E+01</totfact>
</mgrwt>
</event>
<event>
 8    2  0.7237260E-052  0.1501419E+04  0.7818608E-02  0.8883510E-01
         -2   -1    0    0    0  501 -0.00000000000E+00  0.00000000000E+00  0.49055005849E+03  0.49055005850E+03  0.25500000000E-02 0. -1.
          2   -1    0    0  501    0  0.00000000000E+00 -0.00000000000E+00 -0.11488424451E+04  0.11488424451E+04  0.25500000000E-02 0.  1.
    -200001    2    1    2    0    0 -0.17654397083E+03 -0.39087701857E+03 -0.26384683867E+03  0.79363313619E+03  0.61342137500E+03 0.  0.
   -5000001    2    3    3    0    0 -0.12976288840E+03 -0.34206316097E+03 -0.42065528802E+03  0.59523668422E+03  0.20859104871E+03 0.  0.
     200001    1    1    2    0    0  0.17654397083E+03  0.39087701857E+03 -0.39444554794E+03  0.84575936741E+03  0.61300000000E+03 0.  1.
         11    1    4    4    0    0  0.48260195358E+02 -0.38950318581E+02 -0.30133384407E+02  0.68950668087E+02  0.51100000000E-03 0.  1.
    -200002    1    4    4    0    0 -0.17802308376E+03 -0.30311284239E+03 -0.39052190362E+03  0.52628601613E+03  0.30000000000E+02 0.  1.
    -200000    1    3    3    0    0 -0.46781082423E+02 -0.48813857601E+02  0.15680844936E+03  0.19839645197E+03  0.10100000000E+03 0. -1.
<mgrwt>
<rscale>  0 0.15014190E+04</rscale>
<asrwt>0</asrwt>
<pdfrwt beam="1">  1        2 0.16412035E+00 0.15014190E+04</pdfrwt>
<pdfrwt beam="2">  1       -2 0.70078580E-01 0.15014190E+04</pdfrwt>
<totfact> 0.41051182E+01</totfact>
</mgrwt>
</event>
<event>
 8    2  0.7237260E-052  0.1490801E+04  0.7818608E-02  0.8890593E-01
         -2   -1    0    0    0  501 -0.00000000000E+00  0.00000000000E+00  0.49300342609E+03  0.49300342610E+03  0.25500000000E-02 0. -1.
          2   -1    0    0  501    0  0.00000000000E+00 -0.00000000000E+00 -0.11270146294E+04  0.11270146294E+04  0.25500000000E-02 0.  1.
    -200001    2    1    2    0    0  0.15490076587E+02  0.19761617640E+03 -0.72374800230E+03  0.96954608169E+03  0.61393512528E+03 0.  0.
   -5000001    2    3    3    0    0 -0.52657074784E+02 -0.20510618833E+03 -0.25187218480E+03  0.33733003916E+03  0.74233697408E+02 0.  0.
     200001    1    1    2    0    0 -0.15490076587E+02 -0.19761617640E+03  0.89736798969E+02  0.65047197383E+03  0.61300000000E+03 0. -1.
         11    1    4    4    0    0 -0.22035898358E+02 -0.14022051848E+03 -0.19404854536E+03  0.24042090711E+03  0.51100000000E-03 0.  1.
    -200002    1    4    4    0    0 -0.30621176426E+02 -0.64885669844E+02 -0.57823639443E+02  0.96909132053E+02  0.30000000000E+02 0.  1.
    -200000    1    3    3    0    0  0.68147151371E+02  0.40272236473E+03 -0.47187581750E+03  0.63221604253E+03  0.10100000000E+03 0. -1.
<mgrwt>
<rscale>  0 0.14908012E+04</rscale>
<asrwt>0</asrwt>
<pdfrwt beam="1">  1        2 0.16100209E+00 0.14908012E+04</pdfrwt>
<pdfrwt beam="2">  1       -2 0.70429061E-01 0.14908012E+04</pdfrwt>
<totfact> 0.41846389E+01</totfact>
</mgrwt>
</event>
<event>
 8    2  0.7237260E-052  0.1436530E+04  0.7818608E-02  0.8927792E-01
         -2   -1    0    0    0  501 -0.00000000000E+00  0.00000000000E+00  0.11254525242E+03  0.11254525245E+03  0.25500000000E-02 0. -1.
          2   -1    0    0  501    0  0.00000000000E+00 -0.00000000000E+00 -0.45839759956E+04  0.45839759956E+04  0.25500000000E-02 0.  1.
    -200001    2    1    2    0    0  0.85277375330E+02  0.15733000790E+03 -0.33103014024E+04  0.33713739701E+04  0.61322272446E+03 0.  0.
   -5000001    2    3    3    0    0  0.14020816983E+03 -0.14263664029E+03 -0.67676328197E+03  0.71831509144E+03  0.13403167059E+03 0.  0.
     200001    1    1    2    0    0 -0.85277375330E+02 -0.15733000790E+03 -0.11611293409E+04  0.13251472780E+04  0.61300000000E+03 0. -1.
         11    1    4    4    0    0  0.11183996149E+03 -0.14937650091E+03 -0.62207403545E+03  0.64945948418E+03  0.51100000000E-03 0.  1.
    -200002    1    4    4    0    0  0.28368208339E+02  0.67398606188E+01 -0.54689246523E+02  0.68855607257E+02  0.30000000000E+02 0.  1.
    -200000    1    3    3    0    0 -0.54930794495E+02  0.29996664820E+03 -0.26335381204E+04  0.26530588787E+04  0.10100000000E+03 0.  1.
<mgrwt>
<rscale>  0 0.14365302E+04</rscale>
<asrwt>0</asrwt>
<pdfrwt beam="1">  1        2 0.65485360E+00 0.14365302E+04</pdfrwt>
<pdfrwt beam="2">  1       -2 0.16077896E-01 0.14365302E+04</pdfrwt>
<totfact> 0.65048545E+00</totfact>
</mgrwt>
</event>
<event>
 8    2  0.7237260E-052  0.2101452E+04  0.7818608E-02  0.8560604E-01
         -2   -1    0    0    0  501 -0.00000000000E+00  0.00000000000E+00  0.70020350372E+03  0.70020350372E+03  0.25500000000E-02 0. -1.
          2   -1    0    0  501    0  0.00000000000E+00 -0.00000000000E+00 -0.15767200754E+04  0.15767200754E+04  0.25500000000E-02 0.  1.
    -200001    2    1    2    0    0  0.17331434184E+03 -0.80064123512E+03 -0.69766132524E+03  0.12382597992E+04  0.61277382217E+03 0.  0.
   -5000001    2    3    3    0    0  0.10197777681E+03 -0.11679828166E+03  0.84183233154E+02  0.19221390920E+03  0.76276238656E+02 0.  0.
     200001    1    1    2    0    0 -0.17331434184E+03  0.80064123512E+03 -0.17885524639E+03  0.10386637799E+04  0.61300000000E+03 0.  1.
         11    1    4    4    0    0  0.94545701212E+02 -0.97784409561E+02  0.60383509376E+02  0.14881817287E+03  0.51100000000E-03 0.  1.
    -200002    1    4    4    0    0  0.74320755990E+01 -0.19013872101E+02  0.23799723778E+02  0.43395736333E+02  0.30000000000E+02 0.  1.
    -200000    1    3    3    0    0  0.71336565025E+02 -0.68384295346E+03 -0.78184455840E+03  0.10460458900E+04  0.10100000000E+03 0. -1.
<mgrwt>
<rscale>  0 0.21014518E+04</rscale>
<asrwt>0</asrwt>
<pdfrwt beam="1">  1        2 0.22524572E+00 0.21014518E+04</pdfrwt>
<pdfrwt beam="2">  1       -2 0.10002907E+00 0.21014518E+04</pdfrwt>
<totfact> 0.10170623E+01</totfact>
</mgrwt>
</event>
<event>
 8    2  0.7237260E-052  0.1394197E+04  0.7818608E-02  0.8958030E-01
          2   -1    0    0  501    0  0.00000000000E+00  0.00000000000E+00  0.23124145472E+04  0.23124145472E+04  0.25500000000E-02 0.  1.
         -2   -1    0    0    0  501 -0.00000000000E+00 -0.00000000000E+00 -0.21014658088E+03  0.21014658090E+03  0.25500000000E-02 0. -1.
    -200001    2    1    2    0    0 -0.24282272261E+03  0.23815118444E+02  0.14572331475E+04  0.15998645626E+04  0.61360258959E+03 0.  0.
   -5000001    2    3    3    0    0  0.10199615505E+03  0.17954697567E+03  0.24240171923E+03  0.32347556668E+03  0.56899179560E+02 0.  0.
     200001    1    1    2    0    0  0.24282272261E+03 -0.23815118444E+02  0.64503481872E+03  0.92269656543E+03  0.61300000000E+03 0. -1.
         11    1    4    4    0    0  0.57212690916E+02  0.11790919389E+03  0.16585717911E+03  0.21138702388E+03  0.51100000000E-03 0.  1.
    -200002    1    4    4    0    0  0.44783464131E+02  0.61637781786E+02  0.76544540119E+02  0.11208854279E+03  0.30000000000E+02 0.  1.
    -200000    1    3    3    0    0 -0.34481887765E+03 -0.15573185723E+03  0.12148314283E+04  0.12763889960E+04  0.10100000000E+03 0.  1.
<mgrwt>
<rscale>  0 0.13941966E+04</rscale>
<asrwt>0</asrwt>
<pdfrwt beam="1">  1        2 0.33034491E+00 0.13941966E+04</pdfrwt>
<pdfrwt beam="2">  1       -2 0.30020942E-01 0.13941966E+04</pdfrwt>
<totfact> 0.55252532E+01</totfact>
</mgrwt>
</event>
<event>
 8    2  0.7237260E-052  0.1521561E+04  0.7818608E-02  0.8870241E-01
         -2   -1    0    0    0  501 -0.00000000000E+00  0.00000000000E+00  0.28349898732E+03  0.28349898734E+03  0.25500000000E-02 0. -1.
          2   -1    0    0  501    0  0.00000000000E+00 -0.00000000000E+00 -0.20415828486E+04  0.20415828486E+04  0.25500000000E-02 0.  1.
    -200001    2    1    2    0    0  0.15902450712E+03  0.29479463913E+03 -0.13411314975E+04  0.15115641982E+04  0.61155536036E+03 0.  0.
   -5000001    2    3    3    0    0  0.41353532937E+02  0.45263414068E+03 -0.75149092042E+03  0.88177314042E+03  0.78724123970E+02 0.  0.
     200001    1    1    2    0    0 -0.15902450712E+03 -0.29479463913E+03 -0.41695236378E+03  0.81351763766E+03  0.61300000000E+03 0. -1.
         11    1    4    4    0    0  0.21588454096E+02  0.75255683779E+02 -0.89374287805E+02  0.11881600318E+03  0.51100000000E-03 0.  1.
    -200002    1    4    4    0    0  0.19765078840E+02  0.37737845690E+03 -0.66211663262E+03  0.76295713724E+03  0.30000000000E+02 0.  1.
    -200000    1    3    3    0    0  0.11767097419E+03 -0.15783950155E+03 -0.58964057703E+03  0.62979105781E+03  0.10100000000E+03 0.  1.
<mgrwt>
<rscale>  0 0.15215606E+04</rscale>
<asrwt>0</asrwt>
<pdfrwt beam="1">  1        2 0.29165469E+00 0.15215606E+04</pdfrwt>
<pdfrwt beam="2">  1       -2 0.40499856E-01 0.15215606E+04</pdfrwt>
<totfact> 0.42583349E+01</totfact>
</mgrwt>
</event>
<event>
 8    2  0.7237260E-052  0.2146246E+04  0.7818608E-02  0.8541141E-01
          2   -1    0    0  501    0  0.00000000000E+00  0.00000000000E+00  0.12950861908E+04  0.12950861908E+04  0.25500000000E-02 0.  1.
         -2   -1    0    0    0  501 -0.00000000000E+00 -0.00000000000E+00 -0.88920193513E+03  0.88920193513E+03  0.25500000000E-02 0. -1.
    -200001    2    1    2    0    0 -0.21416032330E+03 -0.85088206113E+03  0.12742322685E+03  0.10783159425E+04  0.61372931088E+03 0.  0.
   -5000001    2    3    3    0    0 -0.34979348193E+03 -0.59877083495E+03  0.26250036871E+03  0.74604608478E+03  0.82439821987E+02 0.  0.
     200001    1    1    2    0    0  0.21416032330E+03  0.85088206113E+03  0.27846102884E+03  0.11059721835E+04  0.61300000000E+03 0.  1.
         11    1    4    4    0    0 -0.25878231551E+03 -0.45812801892E+03  0.22216388845E+03  0.57114478189E+03  0.51100000000E-03 0.  1.
    -200002    1    4    4    0    0 -0.91011166418E+02 -0.14064281603E+03  0.40336480258E+02  0.17490130289E+03  0.30000000000E+02 0.  1.
    -200000    1    3    3    0    0  0.13563315863E+03 -0.25211122618E+03 -0.13507714186E+03  0.33226985771E+03  0.10100000000E+03 0.  1.
<mgrwt>
<rscale>  0 0.21462462E+04</rscale>
<asrwt>0</asrwt>
<pdfrwt beam="1">  1        2 0.18501232E+00 0.21462462E+04</pdfrwt>
<pdfrwt beam="2">  1       -2 0.12702885E+00 0.21462462E+04</pdfrwt>
<totfact> 0.80238487E+00</totfact>
</mgrwt>
</event>
<event>
 8    2  0.7237260E-052  0.1295256E+04  0.7818608E-02  0.9033336E-01
         -2   -1    0    0    0  501 -0.00000000000E+00  0.00000000000E+00  0.10669829826E+03  0.10669829829E+03  0.25500000000E-02 0. -1.
          2   -1    0    0  501    0  0.00000000000E+00 -0.00000000000E+00 -0.39309152268E+04  0.39309152268E+04  0.25500000000E-02 0.  1.
    -200001    2    1    2    0    0  0.17313294262E+03  0.10454471087E+03 -0.17374780642E+04  0.18533166816E+04  0.61241169688E+03 0.  0.
   -5000001    2    3    3    0    0  0.11797466786E+03 -0.89870978522E+02 -0.89923658306E+02  0.19034451833E+03  0.78421657080E+02 0.  0.
     200001    1    1    2    0    0 -0.17313294262E+03 -0.10454471087E+03 -0.20867388643E+04  0.21842968434E+04  0.61300000000E+03 0.  1.
         11    1    4    4    0    0  0.10949650695E+03 -0.62709038359E+02 -0.63330367393E+02  0.14118301584E+03  0.51100000000E-03 0.  1.
    -200002    1    4    4    0    0  0.84781609032E+01 -0.27161940163E+02 -0.26593290913E+02  0.49161502492E+02  0.30000000000E+02 0. -1.
    -200000    1    3    3    0    0  0.55158274763E+02  0.19441568939E+03 -0.16475544059E+04  0.16629721633E+04  0.10100000000E+03 0.  1.
<mgrwt>
<rscale>  0 0.12952559E+04</rscale>
<asrwt>0</asrwt>
<pdfrwt beam="1">  1        2 0.56155923E+00 0.12952559E+04</pdfrwt>
<pdfrwt beam="2">  1       -2 0.15242617E-01 0.12952559E+04</pdfrwt>
<totfact> 0.21841931E+01</totfact>
</mgrwt>
</event>
<event>
 8    2  0.7237260E-052  0.1450243E+04  0.7818608E-02  0.8918232E-01
         -2   -1    0    0    0  501 -0.00000000000E+00  0.00000000000E+00  0.22544436261E+03  0.22544436262E+03  0.25500000000E-02 0. -1.
          2   -1    0    0  501    0  0.00000000000E+00 -0.00000000000E+00 -0.23322891673E+04  0.23322891673E+04  0.25500000000E-02 0.  1.
    -200001    2    1    2    0    0 -0.12451770865E+03 -0.11343669569E+03 -0.43807905006E+03  0.77197859502E+03  0.61291529053E+03 0.  0.
   -5000001    2    3    3    0    0  0.40430900505E+02 -0.32466736109E+03 -0.31008654711E+03  0.45827568065E+03  0.82579535609E+02 0.  0.
     200001    1    1    2    0    0  0.12451770865E+03  0.11343669569E+03 -0.16687657546E+04  0.17857549349E+04  0.61300000000E+03 0.  1.
         11    1    4    4    0    0 -0.14798813103E+02 -0.86905435720E+02 -0.11174247871E+03  0.14233039442E+03  0.51100000000E-03 0.  1.
    -200002    1    4    4    0    0  0.55229713608E+02 -0.23776192537E+03 -0.19834406841E+03  0.31594528623E+03  0.30000000000E+02 0.  1.
    -200000    1    3    3    0    0 -0.16494860916E+03  0.21123066541E+03 -0.12799250295E+03  0.31370291437E+03  0.10100000000E+03 0. -1.
<mgrwt>
<rscale>  0 0.14502434E+04</rscale>
<asrwt>0</asrwt>
<pdfrwt beam="1">  1        2 0.33318415E+00 0.14502434E+04</pdfrwt>
<pdfrwt beam="2">  1       -2 0.32206339E-01 0.14502434E+04</pdfrwt>
<totfact> 0.47089188E+01</totfact>
</mgrwt>
</event>
<event>
 8    2  0.7237260E-052  0.1750964E+04  0.7818608E-02  0.8732820E-01
         -2   -1    0    0    0  501 -0.00000000000E+00  0.00000000000E+00  0.38488152860E+03  0.38488152861E+03  0.25500000000E-02 0. -1.
          2   -1    0    0  501    0  0.00000000000E+00 -0.00000000000E+00 -0.19914413763E+04  0.19914413763E+04  0.25500000000E-02 0.  1.
    -200001    2    1    2    0    0 -0.29710059381E+03 -0.50550580866E+03 -0.50712015087E+03  0.98767552981E+03  0.61198629015E+03 0.  0.
   -5000001    2    3    3    0    0  0.17331663105E+03 -0.87392688008E+02 -0.98384945602E+02  0.23045930235E+03  0.75866698895E+02 0.  0.
     200001    1    1    2    0    0  0.29710059381E+03  0.50550580866E+03 -0.10994396969E+04  0.13886473751E+04  0.61300000000E+03 0. -1.
         11    1    4    4    0    0  0.11478874108E+03 -0.24499627540E+02 -0.57316744747E+02  0.13062119298E+03  0.51100000000E-03 0.  1.
    -200002    1    4    4    0    0  0.58527889971E+02 -0.62893060468E+02 -0.41068200855E+02  0.99838109362E+02  0.30000000000E+02 0. -1.
    -200000    1    3    3    0    0 -0.47041722486E+03 -0.41811312065E+03 -0.40873520527E+03  0.75721622746E+03  0.10100000000E+03 0.  1.
<mgrwt>
<rscale>  0 0.17509643E+04</rscale>
<asrwt>0</asrwt>
<pdfrwt beam="1">  1        2 0.28449162E+00 0.17509643E+04</pdfrwt>
<pdfrwt beam="2">  1       -2 0.54983077E-01 0.17509643E+04</pdfrwt>
<totfact> 0.23957434E+01</totfact>
</mgrwt>
</event>
<event>
 8    2  0.7237260E-052  0.1614881E+04  0.7818608E-02  0.8811458E-01
          2   -1    0    0  501    0  0.00000000000E+00  0.00000000000E+00  0.23927676872E+04  0.23927676872E+04  0.25500000000E-02 0.  1.
         -2   -1    0    0    0  501 -0.00000000000E+00 -0.00000000000E+00 -0.27247120165E+03  0.27247120166E+03  0.25500000000E-02 0. -1.
    -200001    2    1    2    0    0 -0.24272354466E+03  0.18497067638E+03  0.35296476066E+03  0.76988686455E+03  0.61238287997E+03 0.  0.
   -5000001    2    3    3    0    0 -0.74700769213E+02  0.28549473129E+03  0.43648803297E+03  0.53427303706E+03  0.88534901002E+02 0.  0.
     200001    1    1    2    0    0  0.24272354466E+03 -0.18497067638E+03  0.17673317249E+04  0.18953520243E+04  0.61300000000E+03 0.  1.
         11    1    4    4    0    0 -0.79311682164E+02  0.17339496358E+03  0.29452755784E+03  0.35085985614E+03  0.51100000000E-03 0.  1.
    -200002    1    4    4    0    0  0.46109129504E+01  0.11209976771E+03  0.14196047513E+03  0.18341318093E+03  0.30000000000E+02 0. -1.
    -200000    1    3    3    0    0 -0.16802277545E+03 -0.10052405491E+03 -0.83523272304E+02  0.23561382749E+03  0.10100000000E+03 0. -1.
<mgrwt>
<rscale>  0 0.16148812E+04</rscale>
<asrwt>0</asrwt>
<pdfrwt beam="1">  1        2 0.34182398E+00 0.16148812E+04</pdfrwt>
<pdfrwt beam="2">  1       -2 0.38924455E-01 0.16148812E+04</pdfrwt>
<totfact> 0.30071137E+01</totfact>
</mgrwt>
</event>
<event>
 8    2  0.7237260E-052  0.1374752E+04  0.7818608E-02  0.8972300E-01
         -2   -1    0    0    0  501 -0.00000000000E+00  0.00000000000E+00  0.20602880807E+04  0.20602880807E+04  0.25500000000E-02 0.  1.
          2   -1    0    0  501    0  0.00000000000E+00 -0.00000000000E+00 -0.22932991791E+03  0.22932991792E+03  0.25500000000E-02 0. -1.
    -200001    2    1    2    0    0 -0.16284314839E+03 -0.21652212803E+03  0.65891382540E+03  0.93948591185E+03  0.61242683347E+03 0.  0.
   -5000001    2    3    3    0    0 -0.34161231521E+03 -0.20508013064E+03  0.23436347201E+03  0.46775151956E+03  0.71473163825E+02 0.  0.
     200001    1    1    2    0    0  0.16284314839E+03  0.21652212803E+03  0.11720443373E+04  0.13501320867E+04  0.61300000000E+03 0. -1.
         11    1    4    4    0    0 -0.16277932284E+03 -0.65211433617E+02  0.90870128789E+02  0.19750194765E+03  0.51100000000E-03 0.  1.
    -200002    1    4    4    0    0 -0.17883299237E+03 -0.13986869703E+03  0.14349334322E+03  0.27024957191E+03  0.30000000000E+02 0.  1.
    -200000    1    3    3    0    0  0.17876916682E+03 -0.11441997390E+02  0.42455035339E+03  0.47173439230E+03  0.10100000000E+03 0.  1.
<mgrwt>
<rscale>  0 0.13747519E+04</rscale>
<asrwt>0</asrwt>
<pdfrwt beam="1">  1        2 0.32761417E-01 0.13747519E+04</pdfrwt>
<pdfrwt beam="2">  1       -2 0.29432686E+00 0.13747519E+04</pdfrwt>
<totfact> 0.54455471E+00</totfact>
</mgrwt>
</event>
<event>
 8    2  0.7237260E-052  0.1439054E+04  0.7818608E-02  0.8926024E-01
          2   -1    0    0  501    0  0.00000000000E+00  0.00000000000E+00  0.21980773121E+04  0.21980773121E+04  0.25500000000E-02 0. -1.
         -2   -1    0    0    0  501 -0.00000000000E+00 -0.00000000000E+00 -0.23553279472E+03  0.23553279474E+03  0.25500000000E-02 0.  1.
    -200001    2    1    2    0    0 -0.20669025180E+03  0.29893781385E+03  0.11480110664E+04  0.13513354562E+04  0.61326456751E+03 0.  0.
   -5000001    2    3    3    0    0 -0.25988986567E+03  0.18243904441E+03  0.11227465828E+04  0.11862855961E+04  0.21421222884E+03 0.  0.
     200001    1    1    2    0    0  0.20669025180E+03 -0.29893781385E+03  0.81453345095E+03  0.10822746507E+04  0.61300000000E+03 0.  1.
         11    1    4    4    0    0 -0.24308042448E+03  0.17185591535E+03  0.11081793643E+04  0.11474685407E+04  0.51100000000E-03 0.  1.
    -200002    1    4    4    0    0 -0.16809441186E+02  0.10583129058E+02  0.14567218546E+02  0.38817055399E+02  0.30000000000E+02 0.  1.
    -200000    1    3    3    0    0  0.53199613871E+02  0.11649876945E+03  0.25264483623E+02  0.16504986014E+03  0.10100000000E+03 0.  1.
<mgrwt>
<rscale>  0 0.14390543E+04</rscale>
<asrwt>0</asrwt>
<pdfrwt beam="1">  1        2 0.31401106E+00 0.14390543E+04</pdfrwt>
<pdfrwt beam="2">  1       -2 0.33647541E-01 0.14390543E+04</pdfrwt>
<totfact> 0.50902500E+01</totfact>
</mgrwt>
</event>
<event>
 8    2  0.7237260E-052  0.1511061E+04  0.7818608E-02  0.8877131E-01
         -2   -1    0    0    0  501 -0.00000000000E+00  0.00000000000E+00  0.15463447704E+04  0.15463447704E+04  0.25500000000E-02 0. -1.
          2   -1    0    0  501    0  0.00000000000E+00 -0.00000000000E+00 -0.36914539553E+03  0.36914539554E+03  0.25500000000E-02 0.  1.
    -200001    2    1    2    0    0  0.21256756767E+03  0.13263321764E+03  0.10532429296E+04  0.12417611837E+04  0.60817236640E+03 0.  0.
   -5000001    2    3    3    0    0 -0.57124504136E+02 -0.54084422418E+02  0.78690597360E+03  0.80732630381E+03  0.16237738699E+03 0.  0.
     200001    1    1    2    0    0 -0.21256756767E+03 -0.13263321764E+03  0.12395644527E+03  0.67372898229E+03  0.61300000000E+03 0.  1.
         11    1    4    4    0    0 -0.18326000667E+02 -0.25785340586E+00  0.66552877372E+03  0.66578108822E+03  0.51100000000E-03 0.  1.
    -200002    1    4    4    0    0 -0.38798503469E+02 -0.53826569012E+02  0.12137719989E+03  0.14154521559E+03  0.30000000000E+02 0. -1.
    -200000    1    3    3    0    0  0.26969207181E+03  0.18671764006E+03  0.26633695599E+03  0.43443487985E+03  0.10100000000E+03 0.  1.
<mgrwt>
<rscale>  0 0.15110606E+04</rscale>
<asrwt>0</asrwt>
<pdfrwt beam="1">  1        2 0.52735057E-01 0.15110606E+04</pdfrwt>
<pdfrwt beam="2">  1       -2 0.22090639E+00 0.15110606E+04</pdfrwt>
<totfact> 0.89229988E+00</totfact>
</mgrwt>
</event>
<event>
 8    2  0.7237260E-052  0.1999504E+04  0.7818608E-02  0.8606853E-01
          2   -1    0    0  501    0  0.00000000000E+00  0.00000000000E+00  0.69594368331E+03  0.69594368332E+03  0.25500000000E-02 0.  1.
         -2   -1    0    0    0  501 -0.00000000000E+00 -0.00000000000E+00 -0.14361849571E+04  0.14361849571E+04  0.25500000000E-02 0. -1.
    -200001    2    1    2    0    0  0.99200020117E+02  0.78339343313E+03 -0.38459185449E+03  0.10710907408E+04  0.61300780208E+03 0.  0.
   -5000001    2    3    3    0    0  0.22124426833E+03  0.63713346527E+03 -0.62663371642E+02  0.68363013016E+03  0.92387108841E+02 0.  0.
     200001    1    1    2    0    0 -0.99200020117E+02 -0.78339343313E+03 -0.35564941935E+03  0.10610378997E+04  0.61300000000E+03 0. -1.
         11    1    4    4    0    0  0.12415514218E+03  0.43859018354E+03 -0.65936254388E+02  0.46056860301E+03  0.51100000000E-03 0.  1.
    -200002    1    4    4    0    0  0.97089126150E+02  0.19854328173E+03  0.32728827462E+01  0.22306152716E+03  0.30000000000E+02 0.  1.
    -200000    1    3    3    0    0 -0.12204424822E+03  0.14625996786E+03 -0.32192848285E+03  0.38746061063E+03  0.10100000000E+03 0. -1.
<mgrwt>
<rscale>  0 0.19995038E+04</rscale>
<asrwt>0</asrwt>
<pdfrwt beam="1">  1        2 0.99420527E-01 0.19995038E+04</pdfrwt>
<pdfrwt beam="2">  1       -2 0.20516928E+00 0.19995038E+04</pdfrwt>
<totfact> 0.51981324E+00</totfact>
</mgrwt>
</event>
<event>
 8    2  0.7237260E-052  0.1333307E+04  0.7818608E-02  0.9003561E-01
          2   -1    0    0  501    0  0.00000000000E+00  0.00000000000E+00  0.14568544951E+04  0.14568544951E+04  0.25500000000E-02 0.  1.
         -2   -1    0    0    0  501 -0.00000000000E+00 -0.00000000000E+00 -0.30505929017E+03  0.30505929018E+03  0.25500000000E-02 0. -1.
    -200001    2    1    2    0    0  0.13415580707E+03  0.19708279619E+03  0.43320953083E+03  0.78776093272E+03  0.61323517543E+03 0.  0.
   -5000001    2    3    3    0    0 -0.20464231474E+03  0.20029095739E+03  0.15099229522E+03  0.33538716280E+03  0.87697954135E+02 0.  0.
     200001    1    1    2    0    0 -0.13415580707E+03 -0.19708279619E+03  0.71858567408E+03  0.97415285255E+03  0.61300000000E+03 0.  1.
         11    1    4    4    0    0 -0.12295714067E+03  0.15322585888E+03  0.73653339351E+02  0.20981286106E+03  0.51100000000E-03 0.  1.
    -200002    1    4    4    0    0 -0.81685174068E+02  0.47065098516E+02  0.77338955874E+02  0.12557430174E+03  0.30000000000E+02 0.  1.
    -200000    1    3    3    0    0  0.33879812180E+03 -0.32081611987E+01  0.28221723561E+03  0.45237376992E+03  0.10100000000E+03 0.  1.
<mgrwt>
<rscale>  0 0.13333072E+04</rscale>
<asrwt>0</asrwt>
<pdfrwt beam="1">  1        2 0.20812207E+00 0.13333072E+04</pdfrwt>
<pdfrwt beam="2">  1       -2 0.43579898E-01 0.13333072E+04</pdfrwt>
<totfact> 0.75289678E+01</totfact>
</mgrwt>
</event>
<event>
 8    2  0.7237260E-052  0.1398632E+04  0.7818608E-02  0.8954809E-01
         -2   -1    0    0    0  501 -0.00000000000E+00  0.00000000000E+00  0.17366135711E+03  0.17366135713E+03  0.25500000000E-02 0. -1.
          2   -1    0    0  501    0  0.00000000000E+00 -0.00000000000E+00 -0.28160716630E+04  0.28160716630E+04  0.25500000000E-02 0.  1.
    -200001    2    1    2    0    0  0.25627764898E+03 -0.21373062522E+03 -0.12257535729E+04  0.14104786668E+04  0.61287782989E+03 0.  0.
   -5000001    2    3    3    0    0  0.33095802347E+03 -0.47208378375E+02 -0.29196231059E+03  0.45367464366E+03  0.93898068189E+02 0.  0.
     200001    1    1    2    0    0 -0.25627764898E+03  0.21373062522E+03 -0.14166567330E+04  0.15792543534E+04  0.61300000000E+03 0.  1.
         11    1    4    4    0    0  0.13035532838E+02  0.42978181821E+01 -0.44040307788E+02  0.46129654972E+02  0.51100000000E-03 0.  1.
    -200002    1    4    4    0    0  0.31792249063E+03 -0.51506196557E+02 -0.24792200280E+03  0.40754498869E+03  0.30000000000E+02 0.  1.
    -200000    1    3    3    0    0 -0.74680374492E+02 -0.16652224684E+03 -0.93379126232E+03  0.95680402310E+03  0.10100000000E+03 0.  1.
<mgrwt>
<rscale>  0 0.13986319E+04</rscale>
<asrwt>0</asrwt>
<pdfrwt beam="1">  1        2 0.40229592E+00 0.13986319E+04</pdfrwt>
<pdfrwt beam="2">  1       -2 0.24808767E-01 0.13986319E+04</pdfrwt>
<totfact> 0.42470383E+01</totfact>
</mgrwt>
</event>
<event>
 8    2  0.7237260E-052  0.1638965E+04  0.7818608E-02  0.8796962E-01
         -2   -1    0    0    0  501 -0.00000000000E+00  0.00000000000E+00  0.69766088696E+03  0.69766088696E+03  0.25500000000E-02 0. -1.
          2   -1    0    0  501    0  0.00000000000E+00 -0.00000000000E+00 -0.96257596899E+03  0.96257596899E+03  0.25500000000E-02 0.  1.
    -200001    2    1    2    0    0 -0.85653712775E+02 -0.16865858779E+03  0.38442646200E+03  0.74744130461E+03  0.61245613835E+03 0.  0.
   -5000001    2    3    3    0    0 -0.25086148570E+03  0.11283531174E+03  0.24014206773E+03  0.37656206532E+03  0.92018931539E+02 0.  0.
     200001    1    1    2    0    0  0.85653712775E+02  0.16865858779E+03 -0.64934154403E+03  0.91279555134E+03  0.61300000000E+03 0.  1.
         11    1    4    4    0    0 -0.15486334850E+03  0.43901871377E+02  0.94647566858E+02  0.18673026785E+03  0.51100000000E-03 0.  1.
    -200002    1    4    4    0    0 -0.95998137196E+02  0.68933440366E+02  0.14549450088E+03  0.18983179747E+03  0.30000000000E+02 0.  1.
    -200000    1    3    3    0    0  0.16520777292E+03 -0.28149389953E+03  0.14428439426E+03  0.37087923929E+03  0.10100000000E+03 0.  1.
<mgrwt>
<rscale>  0 0.16389650E+04</rscale>
<asrwt>0</asrwt>
<pdfrwt beam="1">  1        2 0.13751085E+00 0.16389650E+04</pdfrwt>
<pdfrwt beam="2">  1       -2 0.99665841E-01 0.16389650E+04</pdfrwt>
<totfact> 0.23657141E+01</totfact>
</mgrwt>
</event>
<event>
 8    2  0.7237260E-052  0.1613696E+04  0.7818608E-02  0.8812178E-01
         -2   -1    0    0    0  501 -0.00000000000E+00  0.00000000000E+00  0.12552776123E+03  0.12552776126E+03  0.25500000000E-02 0. -1.
          2   -1    0    0  501    0  0.00000000000E+00 -0.00000000000E+00 -0.51861325850E+04  0.51861325850E+04  0.25500000000E-02 0.  1.
    -200001    2    1    2    0    0  0.96339182386E+02  0.43126594386E+03 -0.16061631868E+04  0.17755314494E+04  0.61439416711E+03 0.  0.
   -5000001    2    3    3    0    0 -0.70874567663E+02 -0.11559493850E+03 -0.21818184273E+03  0.27096823221E+03  0.86226864844E+02 0.  0.
     200001    1    1    2    0    0 -0.96339182386E+02 -0.43126594386E+03 -0.34544416370E+04  0.35361288969E+04  0.61300000000E+03 0.  1.
         11    1    4    4    0    0 -0.48678722212E+02 -0.22045926672E+02 -0.41755070225E+02  0.67816861980E+02  0.51100000000E-03 0.  1.
    -200002    1    4    4    0    0 -0.22195845450E+02 -0.93549011828E+02 -0.17642677250E+03  0.20315137023E+03  0.30000000000E+02 0.  1.
    -200000    1    3    3    0    0  0.16721375005E+03  0.54686088236E+03 -0.13879813441E+04  0.15045632172E+04  0.10100000000E+03 0.  1.
<mgrwt>
<rscale>  0 0.16136959E+04</rscale>
<asrwt>0</asrwt>
<pdfrwt beam="1">  1        2 0.74087595E+00 0.16136959E+04</pdfrwt>
<pdfrwt beam="2">  1       -2 0.17932541E-01 0.16136959E+04</pdfrwt>
<totfact> 0.14736462E+00</totfact>
</mgrwt>
</event>
<event>
 8    2  0.7237260E-052  0.1449117E+04  0.7818608E-02  0.8919013E-01
          2   -1    0    0  501    0  0.00000000000E+00  0.00000000000E+00  0.95669483050E+03  0.95669483051E+03  0.25500000000E-02 0.  1.
         -2   -1    0    0    0  501 -0.00000000000E+00 -0.00000000000E+00 -0.54874890355E+03  0.54874890356E+03  0.25500000000E-02 0. -1.
    -200001    2    1    2    0    0 -0.38652937909E+02  0.33073093344E+03  0.47206972573E+01  0.69969154772E+03  0.61536085107E+03 0.  0.
   -5000001    2    3    3    0    0  0.11331846443E+03  0.35843443060E+03 -0.18889132044E+03  0.43220434376E+03  0.99016909715E+02 0.  0.
     200001    1    1    2    0    0  0.38652937909E+02 -0.33073093344E+03  0.40322522969E+03  0.80575218635E+03  0.61300000000E+03 0.  1.
         11    1    4    4    0    0  0.23263484621E+02  0.14697206375E+03 -0.31699170622E+02  0.15214077250E+03  0.51100000000E-03 0.  1.
    -200002    1    4    4    0    0  0.90054979809E+02  0.21146236685E+03 -0.15719214982E+03  0.28006357126E+03  0.30000000000E+02 0.  1.
    -200000    1    3    3    0    0 -0.15197140234E+03 -0.27703497164E+02  0.19361201770E+03  0.26748720396E+03  0.10100000000E+03 0.  1.
<mgrwt>
<rscale>  0 0.14491173E+04</rscale>
<asrwt>0</asrwt>
<pdfrwt beam="1">  1        2 0.13667069E+00 0.14491173E+04</pdfrwt>
<pdfrwt beam="2">  1       -2 0.78392701E-01 0.14491173E+04</pdfrwt>
<totfact> 0.42027237E+01</totfact>
</mgrwt>
</event>
<event>
 8    2  0.7237260E-052  0.1290761E+04  0.7818608E-02  0.9036924E-01
          2   -1    0    0  501    0  0.00000000000E+00  0.00000000000E+00  0.17426454584E+04  0.17426454584E+04  0.25500000000E-02 0.  1.
         -2   -1    0    0    0  501 -0.00000000000E+00 -0.00000000000E+00 -0.23901352421E+03  0.23901352423E+03  0.25500000000E-02 0. -1.
    -200001    2    1    2    0    0 -0.28507234696E+02 -0.82448066949E+02  0.10292319003E+04  0.12016367148E+04  0.61400500289E+03 0.  0.
   -5000001    2    3    3    0    0  0.10441908576E+03  0.13371763414E+03  0.85795391528E+03  0.87924849363E+03  0.90604865473E+02 0.  0.
     200001    1    1    2    0    0  0.28507234696E+02  0.82448066949E+02  0.47440003390E+03  0.78002226785E+03  0.61300000000E+03 0. -1.
         11    1    4    4    0    0  0.15351129075E+02  0.30981717793E+02  0.60105283373E+02  0.69340962576E+02  0.51100000000E-03 0.  1.
    -200002    1    4    4    0    0  0.89067956684E+02  0.10273591635E+03  0.79784863191E+03  0.80990753105E+03  0.30000000000E+02 0.  1.
    -200000    1    3    3    0    0 -0.13292632046E+03 -0.21616570109E+03  0.17127798503E+03  0.32238822118E+03  0.10100000000E+03 0. -1.
<mgrwt>
<rscale>  0 0.12907608E+04</rscale>
<asrwt>0</asrwt>
<pdfrwt beam="1">  1        2 0.24894936E+00 0.12907608E+04</pdfrwt>
<pdfrwt beam="2">  1       -2 0.34144787E-01 0.12907608E+04</pdfrwt>
<totfact> 0.85853466E+01</totfact>
</mgrwt>
</event>
<event>
 8    2  0.7237260E-052  0.1567027E+04  0.7818608E-02  0.8841065E-01
         -2   -1    0    0    0  501 -0.00000000000E+00  0.00000000000E+00  0.14247907173E+04  0.14247907173E+04  0.25500000000E-02 0. -1.
          2   -1    0    0  501    0  0.00000000000E+00 -0.00000000000E+00 -0.43086567159E+03  0.43086567160E+03  0.25500000000E-02 0.  1.
    -200001    2    1    2    0    0  0.82665833646E+02 -0.12620033129E+03 -0.51734388858E+02  0.63420937132E+03  0.61382808343E+03 0.  0.
   -5000001    2    3    3    0    0 -0.10158905033E+03  0.56640703574E+02 -0.24235167222E+03  0.29669395683E+03  0.12555662684E+03 0.  0.
     200001    1    1    2    0    0 -0.82665833646E+02  0.12620033129E+03  0.10456594346E+04  0.12214470176E+04  0.61300000000E+03 0. -1.
         11    1    4    4    0    0 -0.56828755362E+02 -0.10382131662E+02 -0.18377808763E+03  0.19264392434E+03  0.51100000000E-03 0.  1.
    -200002    1    4    4    0    0 -0.44760294969E+02  0.67022835236E+02 -0.58573584590E+02  0.10405003249E+03  0.30000000000E+02 0.  1.
    -200000    1    3    3    0    0  0.18425488398E+03 -0.18284103487E+03  0.19061728336E+03  0.33751541449E+03  0.10100000000E+03 0. -1.
<mgrwt>
<rscale>  0 0.15670270E+04</rscale>
<asrwt>0</asrwt>
<pdfrwt beam="1">  1        2 0.61552238E-01 0.15670270E+04</pdfrwt>
<pdfrwt beam="2">  1       -2 0.20354153E+00 0.15670270E+04</pdfrwt>
<totfact> 0.96531265E+00</totfact>
</mgrwt>
</event>
<event>
 8    2  0.7237260E-052  0.1580748E+04  0.7818608E-02  0.8832463E-01
         -2   -1    0    0    0  501 -0.00000000000E+00  0.00000000000E+00  0.54004623223E+03  0.54004623224E+03  0.25500000000E-02 0. -1.
          2   -1    0    0  501    0  0.00000000000E+00 -0.00000000000E+00 -0.11567369512E+04  0.11567369512E+04  0.25500000000E-02 0.  1.
    -200001    2    1    2    0    0  0.43006893752E+03  0.33245493140E+02 -0.40433114818E+02  0.75131695974E+03  0.61382227345E+03 0.  0.
   -5000001    2    3    3    0    0  0.77992104891E+02 -0.15306265744E+03  0.20040561593E+03  0.27500496401E+03  0.77164589057E+02 0.  0.
     200001    1    1    2    0    0 -0.43006893752E+03 -0.33245493140E+02 -0.57625760416E+03  0.94546622372E+03  0.61300000000E+03 0.  1.
         11    1    4    4    0    0  0.60548187831E+02 -0.12224316932E+03  0.17565475618E+03  0.22240519073E+03  0.51100000000E-03 0.  1.
    -200002    1    4    4    0    0  0.17443917060E+02 -0.30819488119E+02  0.24750859751E+02  0.52599773276E+02  0.30000000000E+02 0. -1.
    -200000    1    3    3    0    0  0.35207683263E+03  0.18630815058E+03 -0.24083873075E+03  0.47631199573E+03  0.10100000000E+03 0.  1.
<mgrwt>
<rscale>  0 0.15807485E+04</rscale>
<asrwt>0</asrwt>
<pdfrwt beam="1">  1        2 0.16524813E+00 0.15807485E+04</pdfrwt>
<pdfrwt beam="2">  1       -2 0.77149462E-01 0.15807485E+04</pdfrwt>
<totfact> 0.32663663E+01</totfact>
</mgrwt>
</event>
<event>
 8    2  0.7237260E-052  0.1287434E+04  0.7818608E-02  0.9039590E-01
         -2   -1    0    0    0  501 -0.00000000000E+00  0.00000000000E+00  0.52674649273E+03  0.52674649274E+03  0.25500000000E-02 0. -1.
          2   -1    0    0  501    0  0.00000000000E+00 -0.00000000000E+00 -0.78666231557E+03  0.78666231557E+03  0.25500000000E-02 0.  1.
    -200001    2    1    2    0    0 -0.16776802007E+03  0.11122530162E+03 -0.97786970164E+02  0.64814800145E+03  0.60828970398E+03 0.  0.
   -5000001    2    3    3    0    0 -0.10602536975E+02  0.13318900932E+03 -0.32431631452E+03  0.35369947049E+03  0.45502940203E+02 0.  0.
     200001    1    1    2    0    0  0.16776802007E+03 -0.11122530162E+03 -0.16212885268E+03  0.66526080686E+03  0.61300000000E+03 0. -1.
         11    1    4    4    0    0 -0.15117160496E+01  0.23229927977E+01 -0.29425674453E+02  0.29555911392E+02  0.51100000000E-03 0.  1.
    -200002    1    4    4    0    0 -0.90908209253E+01  0.13086601652E+03 -0.29489064007E+03  0.32414355910E+03  0.30000000000E+02 0.  1.
    -200000    1    3    3    0    0 -0.15716548309E+03 -0.21963707693E+02  0.22652934435E+03  0.29444853096E+03  0.10100000000E+03 0. -1.
<mgrwt>
<rscale>  0 0.12874341E+04</rscale>
<asrwt>0</asrwt>
<pdfrwt beam="1">  1        2 0.11238033E+00 0.12874341E+04</pdfrwt>
<pdfrwt beam="2">  1       -2 0.75249499E-01 0.12874341E+04</pdfrwt>
<totfact> 0.60491909E+01</totfact>
</mgrwt>
</event>
<event>
 8    2  0.7237260E-052  0.1433420E+04  0.7818608E-02  0.8929976E-01
         -2   -1    0    0    0  501 -0.00000000000E+00  0.00000000000E+00  0.61350282498E+03  0.61350282498E+03  0.25500000000E-02 0. -1.
          2   -1    0    0  501    0  0.00000000000E+00 -0.00000000000E+00 -0.83727944874E+03  0.83727944874E+03  0.25500000000E-02 0.  1.
    -200001    2    1    2    0    0 -0.91540448908E+02 -0.35624933941E+03 -0.16332149514E+03  0.73334442401E+03  0.61304721502E+03 0.  0.
   -5000001    2    3    3    0    0 -0.19085373254E+02  0.32371056312E+02  0.17828560897E+03  0.20120537872E+03  0.85356366499E+02 0.  0.
     200001    1    1    2    0    0  0.91540448908E+02  0.35624933941E+03 -0.60455128624E+02  0.71743784971E+03  0.61300000000E+03 0.  1.
         11    1    4    4    0    0 -0.13944810979E+02  0.49088233352E+02  0.64540526730E+02  0.82277530333E+02  0.51100000000E-03 0.  1.
    -200002    1    4    4    0    0 -0.51405622749E+01 -0.16717177041E+02  0.11374508224E+03  0.11892784839E+03  0.30000000000E+02 0. -1.
    -200000    1    3    3    0    0 -0.72455075655E+02 -0.38862039572E+03 -0.34160710410E+03  0.53213904530E+03  0.10100000000E+03 0.  1.
<mgrwt>
<rscale>  0 0.14334201E+04</rscale>
<asrwt>0</asrwt>
<pdfrwt beam="1">  1        2 0.11961135E+00 0.14334201E+04</pdfrwt>
<pdfrwt beam="2">  1       -2 0.87643261E-01 0.14334201E+04</pdfrwt>
<totfact> 0.39143881E+01</totfact>
</mgrwt>
</event>
<event>
 8    2  0.7237260E-052  0.1534358E+04  0.7818608E-02  0.8861921E-01
         -2   -1    0    0    0  501 -0.00000000000E+00  0.00000000000E+00  0.19179028028E+04  0.19179028028E+04  0.25500000000E-02 0. -1.
          2   -1    0    0  501    0  0.00000000000E+00 -0.00000000000E+00 -0.30687877562E+03  0.30687877563E+03  0.25500000000E-02 0.  1.
    -200001    2    1    2    0    0 -0.11909792407E+03 -0.57798336513E+01  0.14524085919E+04  0.15804636613E+04  0.61168369679E+03 0.  0.
   -5000001    2    3    3    0    0 -0.11524182129E+03  0.25184823627E+03  0.10502657679E+04  0.10922967403E+04  0.11552391102E+03 0.  0.
     200001    1    1    2    0    0  0.11909792407E+03  0.57798336513E+01  0.15861543526E+03  0.64431791710E+03  0.61300000000E+03 0.  1.
         11    1    4    4    0    0 -0.98767851010E+02  0.93715484441E+02  0.54549258153E+03  0.56222756685E+03  0.51100000000E-03 0.  1.
    -200002    1    4    4    0    0 -0.16473970277E+02  0.15813275183E+03  0.50477318640E+03  0.53006917342E+03  0.30000000000E+02 0.  1.
    -200000    1    3    3    0    0 -0.38561027843E+01 -0.25762806992E+03  0.40214282398E+03  0.48816692106E+03  0.10100000000E+03 0.  1.
<mgrwt>
<rscale>  0 0.15343581E+04</rscale>
<asrwt>0</asrwt>
<pdfrwt beam="1">  1        2 0.43839827E-01 0.15343581E+04</pdfrwt>
<pdfrwt beam="2">  1       -2 0.27398610E+00 0.15343581E+04</pdfrwt>
<totfact> 0.51554518E+00</totfact>
</mgrwt>
</event>
<event>
 8    2  0.7237260E-052  0.1461079E+04  0.7818608E-02  0.8910756E-01
          2   -1    0    0  501    0  0.00000000000E+00  0.00000000000E+00  0.32006576437E+04  0.32006576437E+04  0.25500000000E-02 0.  1.
         -2   -1    0    0    0  501 -0.00000000000E+00 -0.00000000000E+00 -0.16674320975E+03  0.16674320977E+03  0.25500000000E-02 0. -1.
    -200001    2    1    2    0    0 -0.28964932291E+03 -0.41865939863E+02  0.88861800890E+03  0.11171308167E+04  0.61048325829E+03 0.  0.
   -5000001    2    3    3    0    0 -0.11677272476E+03 -0.90317280825E+02 -0.30999490656E+02  0.17472368804E+03  0.88172094658E+02 0.  0.
     200001    1    1    2    0    0  0.28964932291E+03  0.41865939863E+02  0.21452964251E+04  0.22502700368E+04  0.61300000000E+03 0.  1.
         11    1    4    4    0    0 -0.10434447075E+03 -0.76881347730E+02 -0.44560937482E+02  0.13705541709E+03  0.51100000000E-03 0.  1.
    -200002    1    4    4    0    0 -0.12428254012E+02 -0.13435933094E+02  0.13561446826E+02  0.37668270944E+02  0.30000000000E+02 0. -1.
    -200000    1    3    3    0    0 -0.17287659815E+03  0.48451340962E+02  0.91961749955E+03  0.94240712864E+03  0.10100000000E+03 0. -1.
<mgrwt>
<rscale>  0 0.14610790E+04</rscale>
<asrwt>0</asrwt>
<pdfrwt beam="1">  1        2 0.45723678E+00 0.14610790E+04</pdfrwt>
<pdfrwt beam="2">  1       -2 0.23820460E-01 0.14610790E+04</pdfrwt>
<totfact> 0.27744578E+01</totfact>
</mgrwt>
</event>
<event>
 8    2  0.7237260E-052  0.1317459E+04  0.7818608E-02  0.9015833E-01
         -2   -1    0    0    0  501 -0.00000000000E+00  0.00000000000E+00  0.17160393167E+04  0.17160393167E+04  0.25500000000E-02 0. -1.
          2   -1    0    0  501    0  0.00000000000E+00 -0.00000000000E+00 -0.25286401382E+03  0.25286401383E+03  0.25500000000E-02 0.  1.
    -200001    2    1    2    0    0  0.46142135346E+01  0.23908698731E+03  0.77632943778E+03  0.10177408203E+04  0.61312731377E+03 0.  0.
   -5000001    2    3    3    0    0 -0.18820709234E+03 -0.11283930187E+03  0.27207035362E+03  0.36542924370E+03  0.10659098078E+03 0.  0.
     200001    1    1    2    0    0 -0.46142135346E+01 -0.23908698731E+03  0.68684586510E+03  0.95116251024E+03  0.61300000000E+03 0.  1.
         11    1    4    4    0    0 -0.48595420874E+02 -0.38339125014E+02  0.15325276152E+03  0.16528101026E+03  0.51100000000E-03 0.  1.
    -200002    1    4    4    0    0 -0.13961167146E+03 -0.74500176856E+02  0.11881759210E+03  0.20014823345E+03  0.30000000000E+02 0.  1.
    -200000    1    3    3    0    0  0.19282130587E+03  0.35192628918E+03  0.50425908416E+03  0.65231157660E+03  0.10100000000E+03 0.  1.
<mgrwt>
<rscale>  0 0.13174591E+04</rscale>
<asrwt>0</asrwt>
<pdfrwt beam="1">  1        2 0.36123431E-01 0.13174591E+04</pdfrwt>
<pdfrwt beam="2">  1       -2 0.24514847E+00 0.13174591E+04</pdfrwt>
<totfact> 0.97595838E+00</totfact>
</mgrwt>
</event>
<event>
 8    2  0.7237260E-052  0.1235365E+04  0.7818608E-02  0.9082452E-01
         -2   -1    0    0    0  501 -0.00000000000E+00  0.00000000000E+00  0.12173863920E+04  0.12173863920E+04  0.25500000000E-02 0. -1.
          2   -1    0    0  501    0  0.00000000000E+00 -0.00000000000E+00 -0.31340248490E+03  0.31340248491E+03  0.25500000000E-02 0.  1.
    -200001    2    1    2    0    0  0.57160693692E+02  0.31739471209E+02  0.49413872130E+03  0.79050729854E+03  0.61355845216E+03 0.  0.
   -5000001    2    3    3    0    0 -0.10524337474E+02 -0.18227983436E+03  0.38671606303E+03  0.52194416982E+03  0.29923185544E+03 0.  0.
     200001    1    1    2    0    0 -0.57160693692E+02 -0.31739471209E+02  0.40984518578E+03  0.74028157835E+03  0.61300000000E+03 0.  1.
         11    1    4    4    0    0 -0.10546820685E+03 -0.21892086797E+03  0.24683422332E+03  0.34637699533E+03  0.51100000000E-03 0.  1.
    -200002    1    4    4    0    0  0.94943869378E+02  0.36641033619E+02  0.13988183971E+03  0.17556717449E+03  0.30000000000E+02 0.  1.
    -200000    1    3    3    0    0  0.67685031166E+02  0.21401930556E+03  0.10742265826E+03  0.26856312872E+03  0.10100000000E+03 0.  1.
<mgrwt>
<rscale>  0 0.12353654E+04</rscale>
<asrwt>0</asrwt>
<pdfrwt beam="1">  1        2 0.44771784E-01 0.12353654E+04</pdfrwt>
<pdfrwt beam="2">  1       -2 0.17391234E+00 0.12353654E+04</pdfrwt>
<totfact> 0.22364449E+01</totfact>
</mgrwt>
</event>
<event>
 8    2  0.7237260E-052  0.1264231E+04  0.7818608E-02  0.9058421E-01
          2   -1    0    0  501    0  0.00000000000E+00  0.00000000000E+00  0.15582545224E+04  0.15582545224E+04  0.25500000000E-02 0.  1.
         -2   -1    0    0    0  501 -0.00000000000E+00 -0.00000000000E+00 -0.25642164572E+03  0.25642164573E+03  0.25500000000E-02 0. -1.
    -200001    2    1    2    0    0 -0.85836387064E+02 -0.63146881000E+02  0.49120936305E+03  0.79279804684E+03  0.61309598824E+03 0.  0.
   -5000001    2    3    3    0    0 -0.11244895161E+03 -0.11099587718E+03  0.60509853605E+03  0.63102815237E+03  0.84186930632E+02 0.  0.
     200001    1    1    2    0    0  0.85836387064E+02  0.63146881000E+02  0.81062351367E+03  0.10218781213E+04  0.61300000000E+03 0.  1.
         11    1    4    4    0    0 -0.36890964629E+02 -0.67979392007E+02  0.17700131695E+03  0.19316212675E+03  0.51100000000E-03 0.  1.
    -200002    1    4    4    0    0 -0.75557986978E+02 -0.43016485176E+02  0.42809721910E+03  0.43786602562E+03  0.30000000000E+02 0.  1.
    -200000    1    3    3    0    0  0.26612564543E+02  0.47848996183E+02 -0.11388917300E+03  0.16176989446E+03  0.10100000000E+03 0. -1.
<mgrwt>
<rscale>  0 0.12642313E+04</rscale>
<asrwt>0</asrwt>
<pdfrwt beam="1">  1        2 0.22260780E+00 0.12642313E+04</pdfrwt>
<pdfrwt beam="2">  1       -2 0.36631663E-01 0.12642313E+04</pdfrwt>
<totfact> 0.93837475E+01</totfact>
</mgrwt>
</event>
<event>
 8    2  0.7237260E-052  0.1727282E+04  0.7818608E-02  0.8745956E-01
         -2   -1    0    0    0  501 -0.00000000000E+00  0.00000000000E+00  0.58281171285E+03  0.58281171285E+03  0.25500000000E-02 0. -1.
          2   -1    0    0  501    0  0.00000000000E+00 -0.00000000000E+00 -0.12797884741E+04  0.12797884741E+04  0.25500000000E-02 0.  1.
    -200001    2    1    2    0    0 -0.37278655357E+03  0.39840909941E+03 -0.63884670666E+03  0.10398926276E+04  0.61282292492E+03 0.  0.
   -5000001    2    3    3    0    0 -0.32438242267E+03  0.50832774032E+03 -0.63521236237E+03  0.88292359892E+03  0.11152707521E+03 0.  0.
     200001    1    1    2    0    0  0.37278655357E+03 -0.39840909941E+03 -0.58130054623E+02  0.82270755939E+03  0.61300000000E+03 0.  1.
         11    1    4    4    0    0 -0.16270359575E+03  0.18631455613E+03 -0.20753536681E+03  0.32288775507E+03  0.51100000000E-03 0.  1.
    -200002    1    4    4    0    0 -0.16167882692E+03  0.32201318418E+03 -0.42767699556E+03  0.56003584385E+03  0.30000000000E+02 0.  1.
    -200000    1    3    3    0    0 -0.48404130905E+02 -0.10991864090E+03 -0.36343442912E+01  0.15696902868E+03  0.10100000000E+03 0. -1.
<mgrwt>
<rscale>  0 0.17272819E+04</rscale>
<asrwt>0</asrwt>
<pdfrwt beam="1">  1        2 0.18282692E+00 0.17272819E+04</pdfrwt>
<pdfrwt beam="2">  1       -2 0.83258816E-01 0.17272819E+04</pdfrwt>
<totfact> 0.23171190E+01</totfact>
</mgrwt>
</event>
<event>
 8    2  0.7237260E-052  0.1801020E+04  0.7818608E-02  0.8705757E-01
          2   -1    0    0  501    0  0.00000000000E+00  0.00000000000E+00  0.22482196669E+04  0.22482196669E+04  0.25500000000E-02 0. -1.
         -2   -1    0    0    0  501 -0.00000000000E+00 -0.00000000000E+00 -0.36069345382E+03  0.36069345383E+03  0.25500000000E-02 0.  1.
    -200001    2    1    2    0    0 -0.33570580169E+03  0.93288183391E+02  0.13296682582E+03  0.71797454060E+03  0.61351951373E+03 0.  0.
   -5000001    2    3    3    0    0 -0.11617593250E+03  0.33670039263E+03  0.65301045782E+02  0.36837115838E+03  0.67594985453E+02 0.  0.
     200001    1    1    2    0    0  0.33570580169E+03 -0.93288183391E+02  0.17545593873E+04  0.18909385801E+04  0.61300000000E+03 0. -1.
         11    1    4    4    0    0 -0.44950891720E+02  0.17602222326E+03  0.11073492182E+02  0.18200831843E+03  0.51100000000E-03 0.  1.
    -200002    1    4    4    0    0 -0.71225040776E+02  0.16067816936E+03  0.54227553600E+02  0.18636283995E+03  0.30000000000E+02 0.  1.
    -200000    1    3    3    0    0 -0.21952986919E+03 -0.24341220923E+03  0.67665780037E+02  0.34960338222E+03  0.10100000000E+03 0. -1.
<mgrwt>
<rscale>  0 0.18010198E+04</rscale>
<asrwt>0</asrwt>
<pdfrwt beam="1">  1        2 0.32117425E+00 0.18010198E+04</pdfrwt>
<pdfrwt beam="2">  1       -2 0.51527635E-01 0.18010198E+04</pdfrwt>
<totfact> 0.20110750E+01</totfact>
</mgrwt>
</event>
<event>
 8    2  0.7237260E-052  0.1389234E+04  0.7818608E-02  0.8961649E-01
          2   -1    0    0  501    0  0.00000000000E+00  0.00000000000E+00  0.22813267895E+03  0.22813267896E+03  0.25500000000E-02 0.  1.
         -2   -1    0    0    0  501 -0.00000000000E+00 -0.00000000000E+00 -0.21149647934E+04  0.21149647934E+04  0.25500000000E-02 0. -1.
    -200001    2    1    2    0    0  0.31406138944E+02 -0.21448591664E+03 -0.53089990754E+03  0.83933163163E+03  0.61288850702E+03 0.  0.
   -5000001    2    3    3    0    0  0.10005033424E+03 -0.34062829779E+03 -0.37362434479E+03  0.60361882224E+03  0.31420188559E+03 0.  0.
     200001    1    1    2    0    0 -0.31406138944E+02  0.21448591664E+03 -0.13559322069E+04  0.15037658407E+04  0.61300000000E+03 0. -1.
         11    1    4    4    0    0  0.86154795538E+02 -0.36505926434E+03 -0.40492053424E+03  0.55195249282E+03  0.51100000000E-03 0.  1.
    -200002    1    4    4    0    0  0.13895538706E+02  0.24430966551E+02  0.31296189451E+02  0.51666329429E+02  0.30000000000E+02 0.  1.
    -200000    1    3    3    0    0 -0.68644195299E+02  0.12614238115E+03 -0.15727556275E+03  0.23571280939E+03  0.10100000000E+03 0. -1.
<mgrwt>
<rscale>  0 0.13892337E+04</rscale>
<asrwt>0</asrwt>
<pdfrwt beam="1">  1        2 0.32590384E-01 0.13892337E+04</pdfrwt>
<pdfrwt beam="2">  1       -2 0.30213782E+00 0.13892337E+04</pdfrwt>
<totfact> 0.49043479E+00</totfact>
</mgrwt>
</event>
<event>
 8    2  0.7237260E-052  0.1908348E+04  0.7818608E-02  0.8650712E-01
          2   -1    0    0  501    0  0.00000000000E+00  0.00000000000E+00  0.19417180262E+04  0.19417180262E+04  0.25500000000E-02 0.  1.
         -2   -1    0    0    0  501 -0.00000000000E+00 -0.00000000000E+00 -0.46888805810E+03  0.46888805811E+03  0.25500000000E-02 0. -1.
    -200001    2    1    2    0    0  0.53803077641E+03  0.21340166985E+03  0.13013221578E+04  0.15502565518E+04  0.61224066278E+03 0.  0.
   -5000001    2    3    3    0    0  0.40905199680E+03  0.94071034093E+02  0.28759416341E+03  0.51646703131E+03  0.88627851486E+02 0.  0.
     200001    1    1    2    0    0 -0.53803077641E+03 -0.21340166985E+03  0.17150781035E+03  0.86034953250E+03  0.61300000000E+03 0. -1.
         11    1    4    4    0    0  0.16503492453E+03  0.85823558891E+01  0.80400463190E+02  0.18377817506E+03  0.51100000000E-03 0.  1.
    -200002    1    4    4    0    0  0.24401707227E+03  0.85488678204E+02  0.20719370022E+03  0.33268885625E+03  0.30000000000E+02 0. -1.
    -200000    1    3    3    0    0  0.12897877962E+03  0.11933063576E+03  0.10137279944E+04  0.10337895205E+04  0.10100000000E+03 0.  1.
<mgrwt>
<rscale>  0 0.19083484E+04</rscale>
<asrwt>0</asrwt>
<pdfrwt beam="1">  1        2 0.27738829E+00 0.19083484E+04</pdfrwt>
<pdfrwt beam="2">  1       -2 0.66984007E-01 0.19083484E+04</pdfrwt>
<totfact> 0.16518132E+01</totfact>
</mgrwt>
</event>
<event>
 8    2  0.7237260E-052  0.1344067E+04  0.7818608E-02  0.8995331E-01
          2   -1    0    0  501    0  0.00000000000E+00  0.00000000000E+00  0.10351928294E+04  0.10351928294E+04  0.25500000000E-02 0.  1.
         -2   -1    0    0    0  501 -0.00000000000E+00 -0.00000000000E+00 -0.43627532054E+03  0.43627532055E+03  0.25500000000E-02 0. -1.
    -200001    2    1    2    0    0 -0.17888843587E+03  0.17839090206E+03  0.18114101748E+03  0.68780330885E+03  0.61354456808E+03 0.  0.
   -5000001    2    3    3    0    0 -0.26245214463E+03  0.10591053018E+03 -0.14203644068E+03  0.33159976143E+03  0.98416882057E+02 0.  0.
     200001    1    1    2    0    0  0.17888843587E+03 -0.17839090206E+03  0.41777649135E+03  0.78366484108E+03  0.61300000000E+03 0.  1.
         11    1    4    4    0    0 -0.15526477600E+03  0.40776994859E+02 -0.35703687723E+02  0.16445262933E+03  0.51100000000E-03 0.  1.
    -200002    1    4    4    0    0 -0.10718736863E+03  0.65133535317E+02 -0.10633275296E+03  0.16714713210E+03  0.30000000000E+02 0.  1.
    -200000    1    3    3    0    0  0.83563708762E+02  0.72480371887E+02  0.32317745817E+03  0.35620354742E+03  0.10100000000E+03 0.  1.
<mgrwt>
<rscale>  0 0.13440671E+04</rscale>
<asrwt>0</asrwt>
<pdfrwt beam="1">  1        2 0.14788469E+00 0.13440671E+04</pdfrwt>
<pdfrwt beam="2">  1       -2 0.62325046E-01 0.13440671E+04</pdfrwt>
<totfact> 0.62451017E+01</totfact>
</mgrwt>
</event>
<event>
 8    2  0.7237260E-052  0.2100863E+04  0.7818608E-02  0.8560863E-01
         -2   -1    0    0    0  501 -0.00000000000E+00  0.00000000000E+00  0.66489076708E+03  0.66489076708E+03  0.25500000000E-02 0. -1.
          2   -1    0    0  501    0  0.00000000000E+00 -0.00000000000E+00 -0.16595302042E+04  0.16595302042E+04  0.25500000000E-02 0.  1.
    -200001    2    1    2    0    0 -0.35104067598E+03 -0.16292370928E+03 -0.13383639070E+04  0.15221185330E+04  0.61306866648E+03 0.  0.
   -5000001    2    3    3    0    0 -0.16601178328E+03 -0.19164829064E+03 -0.18874155194E+03  0.35297638943E+03  0.15709862691E+03 0.  0.
     200001    1    1    2    0    0  0.35104067598E+03  0.16292370928E+03  0.34372446987E+03  0.80230243825E+03  0.61300000000E+03 0. -1.
         11    1    4    4    0    0 -0.85036357129E+02 -0.19114862978E+03 -0.15451991284E+03  0.26008726260E+03  0.51100000000E-03 0.  1.
    -200002    1    4    4    0    0 -0.80975426148E+02 -0.49966085046E+00 -0.34221639095E+02  0.92889126829E+02  0.30000000000E+02 0.  1.
    -200000    1    3    3    0    0 -0.18502889270E+03  0.28724581355E+02 -0.11496223550E+04  0.11691421436E+04  0.10100000000E+03 0.  1.
<mgrwt>
<rscale>  0 0.21008630E+04</rscale>
<asrwt>0</asrwt>
<pdfrwt beam="1">  1        2 0.23707574E+00 0.21008630E+04</pdfrwt>
<pdfrwt beam="2">  1       -2 0.94984396E-01 0.21008630E+04</pdfrwt>
<totfact> 0.10392961E+01</totfact>
</mgrwt>
</event>
<event>
 8    2  0.7237260E-052  0.1689819E+04  0.7818608E-02  0.8767192E-01
         -2   -1    0    0    0  501 -0.00000000000E+00  0.00000000000E+00  0.21434576182E+03  0.21434576184E+03  0.25500000000E-02 0. -1.
          2   -1    0    0  501    0  0.00000000000E+00 -0.00000000000E+00 -0.33304711167E+04  0.33304711167E+04  0.25500000000E-02 0.  1.
    -200001    2    1    2    0    0  0.14697839891E+03 -0.10579785277E+02 -0.27386495129E+04  0.28099892845E+04  0.61165680167E+03 0.  0.
   -5000001    2    3    3    0    0 -0.88155990158E+02  0.10921805098E+02 -0.83730941233E+02  0.14267900608E+03  0.73862465629E+02 0.  0.
     200001    1    1    2    0    0 -0.14697839891E+03  0.10579785277E+02 -0.37747584191E+03  0.73482759395E+03  0.61300000000E+03 0. -1.
         11    1    4    4    0    0 -0.30933311924E+02 -0.25827577657E+02 -0.38115443741E+02  0.55468194544E+02  0.51100000000E-03 0.  1.
    -200002    1    4    4    0    0 -0.57222678233E+02  0.36749382755E+02 -0.45615497492E+02  0.87210811535E+02  0.30000000000E+02 0.  1.
    -200000    1    3    3    0    0  0.23513438906E+03 -0.21501590375E+02 -0.26549185717E+04  0.26673102785E+04  0.10100000000E+03 0.  1.
<mgrwt>
<rscale>  0 0.16898194E+04</rscale>
<asrwt>0</asrwt>
<pdfrwt beam="1">  1        2 0.47578156E+00 0.16898194E+04</pdfrwt>
<pdfrwt beam="2">  1       -2 0.30620825E-01 0.16898194E+04</pdfrwt>
<totfact> 0.14405593E+01</totfact>
</mgrwt>
</event>
<event>
 8    2  0.7237260E-052  0.1875393E+04  0.7818608E-02  0.8667203E-01
          2   -1    0    0  501    0  0.00000000000E+00  0.00000000000E+00  0.91542196105E+03  0.91542196105E+03  0.25500000000E-02 0.  1.
         -2   -1    0    0    0  501 -0.00000000000E+00 -0.00000000000E+00 -0.96051264867E+03  0.96051264867E+03  0.25500000000E-02 0. -1.
    -200001    2    1    2    0    0  0.47663800280E+03  0.65483042061E+02 -0.54432547655E+03  0.95047462194E+03  0.61289474464E+03 0.  0.
   -5000001    2    3    3    0    0  0.53862003857E+03 -0.73860374972E+02 -0.53487090153E+03  0.76731144437E+03  0.84339020761E+02 0.  0.
     200001    1    1    2    0    0 -0.47663800280E+03 -0.65483042061E+02  0.49923478893E+03  0.92545998779E+03  0.61300000000E+03 0.  1.
         11    1    4    4    0    0  0.14367254857E+03 -0.17727509508E+01 -0.10229366725E+03  0.17637726106E+03  0.51100000000E-03 0.  1.
    -200002    1    4    4    0    0  0.39494749000E+03 -0.72087624021E+02 -0.43257723427E+03  0.59093418331E+03  0.30000000000E+02 0. -1.
    -200000    1    3    3    0    0 -0.61982035765E+02  0.13934341703E+03 -0.94545750233E+01  0.18316317757E+03  0.10100000000E+03 0. -1.
<mgrwt>
<rscale>  0 0.18753926E+04</rscale>
<asrwt>0</asrwt>
<pdfrwt beam="1">  1        2 0.13077457E+00 0.18753926E+04</pdfrwt>
<pdfrwt beam="2">  1       -2 0.13721609E+00 0.18753926E+04</pdfrwt>
<totfact> 0.11318695E+01</totfact>
</mgrwt>
</event>
<event>
 8    2  0.7237260E-052  0.1332539E+04  0.7818608E-02  0.9004152E-01
         -2   -1    0    0    0  501 -0.00000000000E+00  0.00000000000E+00  0.47337622079E+03  0.47337622079E+03  0.25500000000E-02 0. -1.
          2   -1    0    0  501    0  0.00000000000E+00 -0.00000000000E+00 -0.93776441779E+03  0.93776441780E+03  0.25500000000E-02 0.  1.
    -200001    2    1    2    0    0  0.98004146137E+02 -0.25100459908E+03 -0.23213951165E+03  0.70239768570E+03  0.60569434089E+03 0.  0.
   -5000001    2    3    3    0    0  0.11997216057E+03  0.14283160922E+03 -0.63516455664E+02  0.26168883891E+03  0.17219907191E+03 0.  0.
     200001    1    1    2    0    0 -0.98004146137E+02  0.25100459908E+03 -0.23224868535E+03  0.70874295289E+03  0.61300000000E+03 0.  1.
         11    1    4    4    0    0  0.93960947919E+02  0.17759786091E+03 -0.54119067920E+02  0.20808299654E+03  0.51100000000E-03 0.  1.
    -200002    1    4    4    0    0  0.26011212651E+02 -0.34766251695E+02 -0.93973877438E+01  0.53605842377E+02  0.30000000000E+02 0.  1.
    -200000    1    3    3    0    0 -0.21968014433E+02 -0.39383620830E+03 -0.16862305599E+03  0.44070884679E+03  0.10100000000E+03 0. -1.
<mgrwt>
<rscale>  0 0.13325395E+04</rscale>
<asrwt>0</asrwt>
<pdfrwt beam="1">  1        2 0.13396635E+00 0.13325395E+04</pdfrwt>
<pdfrwt beam="2">  1       -2 0.67625174E-01 0.13325395E+04</pdfrwt>
<totfact> 0.60323868E+01</totfact>
</mgrwt>
</event>
<event>
 8    2  0.7237260E-052  0.1353163E+04  0.7818608E-02  0.8988437E-01
         -2   -1    0    0    0  501 -0.00000000000E+00  0.00000000000E+00  0.34534347649E+03  0.34534347650E+03  0.25500000000E-02 0. -1.
          2   -1    0    0  501    0  0.00000000000E+00 -0.00000000000E+00 -0.13255289470E+04  0.13255289470E+04  0.25500000000E-02 0.  1.
    -200001    2    1    2    0    0  0.42572266407E+02 -0.24763061232E+03 -0.65413484019E+03  0.93248815256E+03  0.61523040195E+03 0.  0.
   -5000001    2    3    3    0    0 -0.91132652731E+02  0.59136065590E+02 -0.47745674300E+03  0.54082637231E+03  0.22962140342E+03 0.  0.
     200001    1    1    2    0    0 -0.42572266407E+02  0.24763061232E+03 -0.32605063031E+03  0.73838427093E+03  0.61300000000E+03 0. -1.
         11    1    4    4    0    0  0.69842332601E+02  0.17055350626E+01 -0.74701341264E+02  0.10227976662E+03  0.51100000000E-03 0.  1.
    -200002    1    4    4    0    0 -0.16097498533E+03  0.57430530527E+02 -0.40275540173E+03  0.43854660569E+03  0.30000000000E+02 0.  1.
    -200000    1    3    3    0    0  0.13370491914E+03 -0.30676667791E+03 -0.17667809719E+03  0.39166178025E+03  0.10100000000E+03 0. -1.
<mgrwt>
<rscale>  0 0.13531634E+04</rscale>
<asrwt>0</asrwt>
<pdfrwt beam="1">  1        2 0.18936128E+00 0.13531634E+04</pdfrwt>
<pdfrwt beam="2">  1       -2 0.49334783E-01 0.13531634E+04</pdfrwt>
<totfact> 0.69056164E+01</totfact>
</mgrwt>
</event>
<event>
 8    2  0.7237260E-052  0.2025807E+04  0.7818608E-02  0.8594649E-01
         -2   -1    0    0    0  501 -0.00000000000E+00  0.00000000000E+00  0.38762954710E+03  0.38762954711E+03  0.25500000000E-02 0. -1.
          2   -1    0    0  501    0  0.00000000000E+00 -0.00000000000E+00 -0.26467892056E+04  0.26467892056E+04  0.25500000000E-02 0.  1.
    -200001    2    1    2    0    0  0.46052771970E+02  0.39980422075E+03 -0.80985137300E+02  0.73611992150E+03  0.61102346406E+03 0.  0.
   -5000001    2    3    3    0    0 -0.19993866682E+03  0.40484784317E+03 -0.52881299818E+02  0.46867263367E+03  0.11393137877E+03 0.  0.
     200001    1    1    2    0    0 -0.46052771970E+02 -0.39980422075E+03 -0.21781745212E+04  0.22982988312E+04  0.61300000000E+03 0.  1.
         11    1    4    4    0    0 -0.36618624081E+02  0.10330838436E+03 -0.58803675574E+02  0.12438415563E+03  0.51100000000E-03 0.  1.
    -200002    1    4    4    0    0 -0.16332004274E+03  0.30153945881E+03  0.59223757559E+01  0.34428847805E+03  0.30000000000E+02 0.  1.
    -200000    1    3    3    0    0  0.24599143879E+03 -0.50436224251E+01 -0.28103837483E+02  0.26744728783E+03  0.10100000000E+03 0.  1.
<mgrwt>
<rscale>  0 0.20258072E+04</rscale>
<asrwt>0</asrwt>
<pdfrwt beam="1">  1        2 0.37811273E+00 0.20258072E+04</pdfrwt>
<pdfrwt beam="2">  1       -2 0.55375651E-01 0.20258072E+04</pdfrwt>
<totfact> 0.10506458E+01</totfact>
</mgrwt>
</event>
<event>
 8    2  0.7237260E-052  0.2538130E+04  0.7818608E-02  0.8389526E-01
          2   -1    0    0  501    0  0.00000000000E+00  0.00000000000E+00  0.13203235657E+04  0.13203235657E+04  0.25500000000E-02 0.  1.
         -2   -1    0    0    0  501 -0.00000000000E+00 -0.00000000000E+00 -0.12197961602E+04  0.12197961602E+04  0.25500000000E-02 0. -1.
    -200001    2    1    2    0    0 -0.21363165473E+03 -0.86460666900E+03 -0.61522186741E+03  0.12434897873E+04  0.61203409128E+03 0.  0.
   -5000001    2    3    3    0    0  0.18066505763E+03 -0.22674155103E+03 -0.30242356943E+03  0.42471901267E+03  0.69818553162E+02 0.  0.
     200001    1    1    2    0    0  0.21363165473E+03  0.86460666900E+03  0.71574927296E+03  0.12966299386E+04  0.61300000000E+03 0.  1.
         11    1    4    4    0    0  0.23264407933E+02 -0.32845354291E+02 -0.77304541724E+02  0.87155276067E+02  0.51100000000E-03 0.  1.
    -200002    1    4    4    0    0  0.15740064969E+03 -0.19389619674E+03 -0.22511902771E+03  0.33756373660E+03  0.30000000000E+02 0.  1.
    -200000    1    3    3    0    0 -0.39429671236E+03 -0.63786511797E+03 -0.31279829798E+03  0.81877077459E+03  0.10100000000E+03 0.  1.
<mgrwt>
<rscale>  0 0.25381297E+04</rscale>
<asrwt>0</asrwt>
<pdfrwt beam="1">  1        2 0.18861765E+00 0.25381297E+04</pdfrwt>
<pdfrwt beam="2">  1       -2 0.17425659E+00 0.25381297E+04</pdfrwt>
<totfact> 0.32538202E+00</totfact>
</mgrwt>
</event>
<event>
 8    2  0.7237260E-052  0.1412546E+04  0.7818608E-02  0.8944787E-01
          2   -1    0    0  501    0  0.00000000000E+00  0.00000000000E+00  0.26132155827E+04  0.26132155827E+04  0.25500000000E-02 0.  1.
         -2   -1    0    0    0  501 -0.00000000000E+00 -0.00000000000E+00 -0.19088429950E+03  0.19088429952E+03  0.25500000000E-02 0. -1.
    -200001    2    1    2    0    0  0.39747909859E+02  0.24288726223E+03  0.17062151246E+04  0.18298486461E+04  0.61367898586E+03 0.  0.
   -5000001    2    3    3    0    0 -0.72391310126E+01  0.32427020822E+03  0.43019314772E+03  0.54639079661E+03  0.90957052036E+02 0.  0.
     200001    1    1    2    0    0 -0.39747909859E+02 -0.24288726223E+03  0.71611615857E+03  0.97425123611E+03  0.61300000000E+03 0. -1.
         11    1    4    4    0    0  0.13699955398E+02  0.54801519035E+01  0.30052215946E+02  0.33479195425E+02  0.51100000000E-03 0.  1.
    -200002    1    4    4    0    0 -0.20939086411E+02  0.31879005632E+03  0.40014093177E+03  0.51291160119E+03  0.30000000000E+02 0.  1.
    -200000    1    3    3    0    0  0.46987040872E+02 -0.81382945994E+02  0.12760219769E+04  0.12834578495E+04  0.10100000000E+03 0.  1.
<mgrwt>
<rscale>  0 0.14125464E+04</rscale>
<asrwt>0</asrwt>
<pdfrwt beam="1">  1        2 0.37331649E+00 0.14125464E+04</pdfrwt>
<pdfrwt beam="2">  1       -2 0.27269187E-01 0.14125464E+04</pdfrwt>
<totfact> 0.45863104E+01</totfact>
</mgrwt>
</event>
<event>
 8    2  0.7237260E-052  0.1917834E+04  0.7818608E-02  0.8646030E-01
         -2   -1    0    0    0  501 -0.00000000000E+00  0.00000000000E+00  0.55941773988E+03  0.55941773989E+03  0.25500000000E-02 0. -1.
          2   -1    0    0  501    0  0.00000000000E+00 -0.00000000000E+00 -0.16437116207E+04  0.16437116207E+04  0.25500000000E-02 0.  1.
    -200001    2    1    2    0    0  0.19413539371E+03 -0.16783952453E+03  0.25307991544E+03  0.70974517426E+03  0.61141647974E+03 0.  0.
   -5000001    2    3    3    0    0  0.36394867915E+03 -0.18493627052E+03  0.62552924839E+02  0.43473538392E+03  0.13572737535E+03 0.  0.
     200001    1    1    2    0    0 -0.19413539371E+03  0.16783952453E+03 -0.13373737963E+04  0.14933841863E+04  0.61300000000E+03 0.  1.
         11    1    4    4    0    0  0.90853292201E+02 -0.91596816762E+02 -0.25499110188E+02  0.13150856309E+03  0.51100000000E-03 0.  1.
    -200002    1    4    4    0    0  0.27309538695E+03 -0.93339453757E+02  0.88052035027E+02  0.30322682083E+03  0.30000000000E+02 0.  1.
    -200000    1    3    3    0    0 -0.16981328544E+03  0.17096745990E+02  0.19052699060E+03  0.27500979034E+03  0.10100000000E+03 0. -1.
<mgrwt>
<rscale>  0 0.19178336E+04</rscale>
<asrwt>0</asrwt>
<pdfrwt beam="1">  1        2 0.23481594E+00 0.19178336E+04</pdfrwt>
<pdfrwt beam="2">  1       -2 0.79916821E-01 0.19178336E+04</pdfrwt>
<totfact> 0.15961808E+01</totfact>
</mgrwt>
</event>
<event>
 8    2  0.7237260E-052  0.1272822E+04  0.7818608E-02  0.9051399E-01
          2   -1    0    0  501    0  0.00000000000E+00  0.00000000000E+00  0.25684242418E+04  0.25684242418E+04  0.25500000000E-02 0.  1.
         -2   -1    0    0    0  501 -0.00000000000E+00 -0.00000000000E+00 -0.15769164133E+03  0.15769164135E+03  0.25500000000E-02 0. -1.
    -200001    2    1    2    0    0  0.15337338120E+03 -0.74240693292E+02  0.12028124110E+04  0.13608777139E+04  0.61334768410E+03 0.  0.
   -5000001    2    3    3    0    0  0.63202311912E+02  0.23095567536E+03  0.27394330091E+03  0.37382428636E+03  0.85817298665E+02 0.  0.
     200001    1    1    2    0    0 -0.15337338120E+03  0.74240693292E+02  0.12079201895E+04  0.13652381692E+04  0.61300000000E+03 0. -1.
         11    1    4    4    0    0  0.11225661021E+02  0.15641987419E+03  0.14783083243E+03  0.21551600294E+03  0.51100000000E-03 0.  1.
    -200002    1    4    4    0    0  0.51976650891E+02  0.74535801171E+02  0.12611246848E+03  0.15830828342E+03  0.30000000000E+02 0.  1.
    -200000    1    3    3    0    0  0.90171069287E+02 -0.30519636865E+03  0.92886911010E+03  0.98705342757E+03  0.10100000000E+03 0.  1.
<mgrwt>
<rscale>  0 0.12728221E+04</rscale>
<asrwt>0</asrwt>
<pdfrwt beam="1">  1        2 0.36691773E+00 0.12728221E+04</pdfrwt>
<pdfrwt beam="2">  1       -2 0.22527379E-01 0.12728221E+04</pdfrwt>
<totfact> 0.69234562E+01</totfact>
</mgrwt>
</event>
<event>
 8    2  0.7237260E-052  0.1431770E+04  0.7818608E-02  0.8931137E-01
          2   -1    0    0  501    0  0.00000000000E+00  0.00000000000E+00  0.72517765701E+03  0.72517765702E+03  0.25500000000E-02 0. -1.
         -2   -1    0    0    0  501 -0.00000000000E+00 -0.00000000000E+00 -0.70671174266E+03  0.70671174267E+03  0.25500000000E-02 0.  1.
    -200001    2    1    2    0    0 -0.94696513588E+02 -0.33544686487E+03 -0.11417583321E+03  0.71435552450E+03  0.61300543689E+03 0.  0.
   -5000001    2    3    3    0    0  0.29690530172E+02 -0.46398932582E+03 -0.14778983592E+03  0.50620605393E+03  0.13503744434E+03 0.  0.
     200001    1    1    2    0    0  0.94696513588E+02  0.33544686487E+03  0.13264174756E+03  0.71753387518E+03  0.61300000000E+03 0. -1.
         11    1    4    4    0    0 -0.31017554231E+02 -0.67908926790E+02  0.83205292734E+01  0.75119519540E+02  0.51100000000E-03 0.  1.
    -200002    1    4    4    0    0  0.60708084404E+02 -0.39608039903E+03 -0.15611036519E+03  0.43108653439E+03  0.30000000000E+02 0.  1.
    -200000    1    3    3    0    0 -0.12438704376E+03  0.12854246095E+03  0.33614002708E+02  0.20814947057E+03  0.10100000000E+03 0. -1.
<mgrwt>
<rscale>  0 0.14317703E+04</rscale>
<asrwt>0</asrwt>
<pdfrwt beam="1">  1        2 0.10359681E+00 0.14317703E+04</pdfrwt>
<pdfrwt beam="2">  1       -2 0.10095882E+00 0.14317703E+04</pdfrwt>
<totfact> 0.33838075E+01</totfact>
</mgrwt>
</event>
<event>
 8    2  0.7237260E-052  0.1438839E+04  0.7818608E-02  0.8926175E-01
          2   -1    0    0  501    0  0.00000000000E+00  0.00000000000E+00  0.27494235370E+03  0.27494235371E+03  0.25500000000E-02 0.  1.
         -2   -1    0    0    0  501 -0.00000000000E+00 -0.00000000000E+00 -0.18824465332E+04  0.18824465332E+04  0.25500000000E-02 0. -1.
    -200001    2    1    2    0    0  0.28150701793E+03  0.25102262434E+03 -0.76416541295E+03  0.10486743907E+04  0.61115516867E+03 0.  0.
   -5000001    2    3    3    0    0  0.28062188715E+03  0.46101881866E+02 -0.76418115318E+03  0.82021368418E+03  0.88902338481E+02 0.  0.
     200001    1    1    2    0    0 -0.28150701793E+03 -0.25102262434E+03 -0.84333876658E+03  0.11087144963E+04  0.61300000000E+03 0.  1.
         11    1    4    4    0    0  0.97237087575E+02 -0.22024656152E+02 -0.27473019505E+03  0.29226155538E+03  0.51100000000E-03 0.  1.
    -200002    1    4    4    0    0  0.18338479957E+03  0.68126538019E+02 -0.48945095813E+03  0.52795212881E+03  0.30000000000E+02 0.  1.
    -200000    1    3    3    0    0  0.88513077782E+00  0.20492074248E+03  0.15740229879E-01  0.22846070647E+03  0.10100000000E+03 0.  1.
<mgrwt>
<rscale>  0 0.14388388E+04</rscale>
<asrwt>0</asrwt>
<pdfrwt beam="1">  1        2 0.39277480E-01 0.14388388E+04</pdfrwt>
<pdfrwt beam="2">  1       -2 0.26892093E+00 0.14388388E+04</pdfrwt>
<totfact> 0.63035806E+00</totfact>
</mgrwt>
</event>
<event>
 8    2  0.7237260E-052  0.1352279E+04  0.7818608E-02  0.8989105E-01
         -2   -1    0    0    0  501 -0.00000000000E+00  0.00000000000E+00  0.21443511120E+03  0.21443511122E+03  0.25500000000E-02 0. -1.
          2   -1    0    0  501    0  0.00000000000E+00 -0.00000000000E+00 -0.21319482868E+04  0.21319482868E+04  0.25500000000E-02 0.  1.
    -200001    2    1    2    0    0 -0.25308681411E+03 -0.13157036907E+03 -0.98236444368E+03  0.11924181263E+04  0.61274577948E+03 0.  0.
   -5000001    2    3    3    0    0 -0.21622665838E+03 -0.33909675568E+03 -0.76396484475E+03  0.87253493352E+03  0.12623133007E+03 0.  0.
     200001    1    1    2    0    0  0.25308681411E+03  0.13157036907E+03 -0.93514873190E+03  0.11539652717E+04  0.61300000000E+03 0.  1.
         11    1    4    4    0    0 -0.58405418042E+01 -0.10521750655E+03 -0.20041592647E+03  0.22643184227E+03  0.51100000000E-03 0.  1.
    -200002    1    4    4    0    0 -0.21038611658E+03 -0.23387924913E+03 -0.56354891829E+03  0.64610309125E+03  0.30000000000E+02 0.  1.
    -200000    1    3    3    0    0 -0.36860155731E+02  0.20752638661E+03 -0.21839959893E+03  0.31988319279E+03  0.10100000000E+03 0.  1.
<mgrwt>
<rscale>  0 0.13522789E+04</rscale>
<asrwt>0</asrwt>
<pdfrwt beam="1">  1        2 0.30456403E+00 0.13522789E+04</pdfrwt>
<pdfrwt beam="2">  1       -2 0.30633589E-01 0.13522789E+04</pdfrwt>
<totfact> 0.66138971E+01</totfact>
</mgrwt>
</event>
<event>
 8    2  0.7237260E-052  0.1229856E+04  0.7818608E-02  0.9087118E-01
          2   -1    0    0  501    0  0.00000000000E+00  0.00000000000E+00  0.16393396516E+04  0.16393396516E+04  0.25500000000E-02 0.  1.
         -2   -1    0    0    0  501 -0.00000000000E+00 -0.00000000000E+00 -0.23066393443E+03  0.23066393444E+03  0.25500000000E-02 0. -1.
    -200001    2    1    2    0    0 -0.59631838049E+01 -0.60531303156E+00  0.78292618431E+03  0.99400849254E+03  0.61240799081E+03 0.  0.
   -5000001    2    3    3    0    0 -0.92189677299E+02 -0.15960226129E+03  0.42795479326E+03  0.58300882564E+03  0.35040286427E+03 0.  0.
     200001    1    1    2    0    0  0.59631838049E+01  0.60531303156E+00  0.62574953290E+03  0.87599509353E+03  0.61300000000E+03 0. -1.
         11    1    4    4    0    0 -0.14098497282E+03 -0.78772069629E+02  0.45291307803E+03  0.48084514947E+03  0.51100000000E-03 0.  1.
    -200002    1    4    4    0    0  0.48795295516E+02 -0.80830191664E+02 -0.24958284776E+02  0.10216367617E+03  0.30000000000E+02 0.  1.
    -200000    1    3    3    0    0  0.86226493494E+02  0.15899694826E+03  0.35497139105E+03  0.41099966691E+03  0.10100000000E+03 0.  1.
<mgrwt>
<rscale>  0 0.12298561E+04</rscale>
<asrwt>0</asrwt>
<pdfrwt beam="1">  1        2 0.23419138E+00 0.12298561E+04</pdfrwt>
<pdfrwt beam="2">  1       -2 0.32951990E-01 0.12298561E+04</pdfrwt>
<totfact> 0.10437019E+02</totfact>
</mgrwt>
</event>
<event>
 8    2  0.7237260E-052  0.1508427E+04  0.7818608E-02  0.8878868E-01
          2   -1    0    0  501    0  0.00000000000E+00  0.00000000000E+00  0.86805372959E+03  0.86805372959E+03  0.25500000000E-02 0.  1.
         -2   -1    0    0    0  501 -0.00000000000E+00 -0.00000000000E+00 -0.65530313432E+03  0.65530313432E+03  0.25500000000E-02 0. -1.
    -200001    2    1    2    0    0 -0.32989585363E+02 -0.95726619414E+02  0.53668507774E+03  0.82267544748E+03  0.61523338727E+03 0.  0.
   -5000001    2    3    3    0    0 -0.10166365689E+03 -0.30968317378E+03  0.15744546291E+03  0.37043964537E+03  0.78722867138E+02 0.  0.
     200001    1    1    2    0    0  0.32989585363E+02  0.95726619414E+02 -0.32393448246E+03  0.70068141643E+03  0.61300000000E+03 0. -1.
         11    1    4    4    0    0  0.38282057051E+01 -0.73291508806E+01 -0.54570301222E+01  0.99071080325E+01  0.51100000000E-03 0.  1.
    -200002    1    4    4    0    0 -0.10549186260E+03 -0.30235402290E+03  0.16290249303E+03  0.36053253733E+03  0.30000000000E+02 0.  1.
    -200000    1    3    3    0    0  0.68674071528E+02  0.21395655437E+03  0.37923961483E+03  0.45223580211E+03  0.10100000000E+03 0.  1.
<mgrwt>
<rscale>  0 0.15084274E+04</rscale>
<asrwt>0</asrwt>
<pdfrwt beam="1">  1        2 0.12400768E+00 0.15084274E+04</pdfrwt>
<pdfrwt beam="2">  1       -2 0.93614733E-01 0.15084274E+04</pdfrwt>
<totfact> 0.31867033E+01</totfact>
</mgrwt>
</event>
<event>
 8    2  0.7237260E-052  0.1879044E+04  0.7818608E-02  0.8665358E-01
          2   -1    0    0  501    0  0.00000000000E+00  0.00000000000E+00  0.19121309838E+04  0.19121309839E+04  0.25500000000E-02 0.  1.
         -2   -1    0    0    0  501 -0.00000000000E+00 -0.00000000000E+00 -0.46163262928E+03  0.46163262929E+03  0.25500000000E-02 0. -1.
    -200001    2    1    2    0    0  0.33374018100E+03 -0.20940759728E+03  0.14746680392E+04  0.16446633293E+04  0.61240312765E+03 0.  0.
   -5000001    2    3    3    0    0 -0.88633712036E+02  0.11729834967E+03  0.20630649112E+03  0.26477982049E+03  0.77013942341E+02 0.  0.
     200001    1    1    2    0    0 -0.33374018100E+03  0.20940759728E+03 -0.24169684627E+02  0.72910028382E+03  0.61300000000E+03 0. -1.
         11    1    4    4    0    0  0.91702099391E+01  0.27871038428E+02  0.46883392511E+02  0.55307685063E+02  0.51100000000E-03 0.  1.
    -200002    1    4    4    0    0 -0.97803921975E+02  0.89427311244E+02  0.15942309861E+03  0.20947213543E+03  0.30000000000E+02 0.  1.
    -200000    1    3    3    0    0  0.42237389304E+03 -0.32670594695E+03  0.12683615481E+04  0.13798835088E+04  0.10100000000E+03 0.  1.
<mgrwt>
<rscale>  0 0.18790445E+04</rscale>
<asrwt>0</asrwt>
<pdfrwt beam="1">  1        2 0.27316157E+00 0.18790445E+04</pdfrwt>
<pdfrwt beam="2">  1       -2 0.65947519E-01 0.18790445E+04</pdfrwt>
<totfact> 0.17735194E+01</totfact>
</mgrwt>
</event>
<event>
 8    2  0.7237260E-052  0.1420888E+04  0.7818608E-02  0.8938836E-01
          2   -1    0    0  501    0  0.00000000000E+00  0.00000000000E+00  0.31390322053E+03  0.31390322054E+03  0.25500000000E-02 0.  1.
         -2   -1    0    0    0  501 -0.00000000000E+00 -0.00000000000E+00 -0.16079172185E+04  0.16079172185E+04  0.25500000000E-02 0. -1.
    -200001    2    1    2    0    0  0.16198725024E+02 -0.32012232047E+03 -0.86613408775E+03  0.11084380466E+04  0.61294856756E+03 0.  0.
   -5000001    2    3    3    0    0  0.16764416114E+03 -0.13975641423E+02 -0.67935447026E+03  0.70625757131E+03  0.94749023474E+02 0.  0.
     200001    1    1    2    0    0 -0.16198725024E+02  0.32012232047E+03 -0.42787991026E+03  0.81338239246E+03  0.61300000000E+03 0. -1.
         11    1    4    4    0    0  0.54900019701E+02 -0.46500858504E+02 -0.24966502873E+03  0.25982488060E+03  0.51100000000E-03 0.  1.
    -200002    1    4    4    0    0  0.11274414144E+03  0.32525217082E+02 -0.42968944153E+03  0.44643269071E+03  0.30000000000E+02 0.  1.
    -200000    1    3    3    0    0 -0.15144543611E+03 -0.30614667905E+03 -0.18677961748E+03  0.40218047531E+03  0.10100000000E+03 0. -1.
<mgrwt>
<rscale>  0 0.14208876E+04</rscale>
<asrwt>0</asrwt>
<pdfrwt beam="1">  1        2 0.44843318E-01 0.14208876E+04</pdfrwt>
<pdfrwt beam="2">  1       -2 0.22970246E+00 0.14208876E+04</pdfrwt>
<totfact> 0.94789922E+00</totfact>
</mgrwt>
</event>
<event>
 8    2  0.7237260E-052  0.1616411E+04  0.7818608E-02  0.8810529E-01
          2   -1    0    0  501    0  0.00000000000E+00  0.00000000000E+00  0.11627334404E+04  0.11627334404E+04  0.25500000000E-02 0. -1.
         -2   -1    0    0    0  501 -0.00000000000E+00 -0.00000000000E+00 -0.56177660584E+03  0.56177660585E+03  0.25500000000E-02 0.  1.
    -200001    2    1    2    0    0  0.39374562848E+03 -0.17812920361E+03 -0.20710702412E+02  0.75034108778E+03  0.61303929865E+03 0.  0.
   -5000001    2    3    3    0    0  0.24297832510E+03  0.16458158410E+03  0.12833384018E+03  0.33489345034E+03  0.97767500994E+02 0.  0.
     200001    1    1    2    0    0 -0.39374562848E+03  0.17812920361E+03  0.62166753697E+03  0.97416895847E+03  0.61300000000E+03 0. -1.
         11    1    4    4    0    0  0.14335637427E+03  0.76671090010E+02  0.26252098781E+02  0.16467749930E+03  0.51100000000E-03 0.  1.
    -200002    1    4    4    0    0  0.99621950828E+02  0.87910494090E+02  0.10208174140E+03  0.17021595103E+03  0.30000000000E+02 0.  1.
    -200000    1    3    3    0    0  0.15076730339E+03 -0.34271078771E+03 -0.14904454259E+03  0.41544763745E+03  0.10100000000E+03 0.  1.
<mgrwt>
<rscale>  0 0.16164114E+04</rscale>
<asrwt>0</asrwt>
<pdfrwt beam="1">  1        2 0.16610478E+00 0.16164114E+04</pdfrwt>
<pdfrwt beam="2">  1       -2 0.80253801E-01 0.16164114E+04</pdfrwt>
<totfact> 0.29584064E+01</totfact>
</mgrwt>
</event>
<event>
 8    2  0.7237260E-052  0.1683832E+04  0.7818608E-02  0.8770640E-01
         -2   -1    0    0    0  501 -0.00000000000E+00  0.00000000000E+00  0.10419853700E+04  0.10419853700E+04  0.25500000000E-02 0.  1.
          2   -1    0    0  501    0  0.00000000000E+00 -0.00000000000E+00 -0.68026144798E+03  0.68026144798E+03  0.25500000000E-02 0. -1.
    -200001    2    1    2    0    0 -0.20500293361E+03  0.32521424907E+02 -0.36985649361E+03  0.74548546004E+03  0.61308310970E+03 0.  0.
   -5000001    2    3    3    0    0  0.18750403413E+03 -0.66486952594E+02 -0.20879128538E+03  0.29826361370E+03  0.76086166449E+02 0.  0.
     200001    1    1    2    0    0  0.20500293361E+03 -0.32521424907E+02  0.73158041566E+03  0.97676135798E+03  0.61300000000E+03 0.  1.
         11    1    4    4    0    0  0.28433017658E+02  0.13556257470E+02 -0.41489872135E+02  0.52092399635E+02  0.51100000000E-03 0.  1.
    -200002    1    4    4    0    0  0.15907101647E+03 -0.80043210065E+02 -0.16730141324E+03  0.24617121406E+03  0.30000000000E+02 0.  1.
    -200000    1    3    3    0    0 -0.39250696775E+03  0.99008377502E+02 -0.16106520823E+03  0.44722184634E+03  0.10100000000E+03 0.  1.
<mgrwt>
<rscale>  0 0.16838319E+04</rscale>
<asrwt>0</asrwt>
<pdfrwt beam="1">  1        2 0.97180207E-01 0.16838319E+04</pdfrwt>
<pdfrwt beam="2">  1       -2 0.14885505E+00 0.16838319E+04</pdfrwt>
<totfact> 0.13611745E+01</totfact>
</mgrwt>
</event>
<event>
 8    2  0.7237260E-052  0.1367902E+04  0.7818608E-02  0.8977386E-01
         -2   -1    0    0    0  501 -0.00000000000E+00  0.00000000000E+00  0.13356056850E+04  0.13356056850E+04  0.25500000000E-02 0. -1.
          2   -1    0    0  501    0  0.00000000000E+00 -0.00000000000E+00 -0.35024486966E+03  0.35024486967E+03  0.25500000000E-02 0.  1.
    -200001    2    1    2    0    0  0.17021130044E+03 -0.16919697748E+03  0.72489237356E+03  0.97788705765E+03  0.61089658723E+03 0.  0.
   -5000001    2    3    3    0    0  0.22829009815E+02  0.57351808778E+01  0.26413035403E+02  0.23599947489E+03  0.23333248321E+03 0.  0.
     200001    1    1    2    0    0 -0.17021130044E+03  0.16919697748E+03  0.26046844181E+03  0.70796349706E+03  0.61300000000E+03 0.  1.
         11    1    4    4    0    0  0.77216468966E+02  0.95643981359E+02 -0.25464909527E+01  0.12294974122E+03  0.51100000000E-03 0.  1.
    -200002    1    4    4    0    0 -0.54387459151E+02 -0.89908800481E+02  0.28959526356E+02  0.11304973367E+03  0.30000000000E+02 0.  1.
    -200000    1    3    3    0    0  0.14738229063E+03 -0.17493215836E+03  0.69847933816E+03  0.74188758276E+03  0.10100000000E+03 0. -1.
<mgrwt>
<rscale>  0 0.13679021E+04</rscale>
<asrwt>0</asrwt>
<pdfrwt beam="1">  1        2 0.50034981E-01 0.13679021E+04</pdfrwt>
<pdfrwt beam="2">  1       -2 0.19080081E+00 0.13679021E+04</pdfrwt>
<totfact> 0.14995423E+01</totfact>
</mgrwt>
</event>
<event>
 8    2  0.7237260E-052  0.1319070E+04  0.7818608E-02  0.9014578E-01
          2   -1    0    0  501    0  0.00000000000E+00  0.00000000000E+00  0.16200671300E+04  0.16200671300E+04  0.25500000000E-02 0.  1.
         -2   -1    0    0    0  501 -0.00000000000E+00 -0.00000000000E+00 -0.26849881120E+03  0.26849881121E+03  0.25500000000E-02 0. -1.
    -200001    2    1    2    0    0  0.15028851014E+03 -0.15247267581E+03  0.84794678887E+03  0.10668371547E+04  0.61097725391E+03 0.  0.
   -5000001    2    3    3    0    0 -0.17893416880E+03  0.58047036369E+02  0.14324761074E+03  0.25473614302E+03  0.94782537356E+02 0.  0.
     200001    1    1    2    0    0 -0.15028851014E+03  0.15247267581E+03  0.50362152996E+03  0.82172878651E+03  0.61300000000E+03 0. -1.
         11    1    4    4    0    0 -0.13235074908E+03  0.75244428658E+02  0.96735470455E+02  0.18037792568E+03  0.51100000000E-03 0.  1.
    -200002    1    4    4    0    0 -0.46583419712E+02 -0.17197392289E+02  0.46512140281E+02  0.74358217348E+02  0.30000000000E+02 0.  1.
    -200000    1    3    3    0    0  0.32922267893E+03 -0.21051971217E+03  0.70469917813E+03  0.81210101170E+03  0.10100000000E+03 0. -1.
<mgrwt>
<rscale>  0 0.13190695E+04</rscale>
<asrwt>0</asrwt>
<pdfrwt beam="1">  1        2 0.23143816E+00 0.13190695E+04</pdfrwt>
<pdfrwt beam="2">  1       -2 0.38356974E-01 0.13190695E+04</pdfrwt>
<totfact> 0.79364209E+01</totfact>
</mgrwt>
</event>
<event>
 8    2  0.7237260E-052  0.2274987E+04  0.7818608E-02  0.8487849E-01
          2   -1    0    0  501    0  0.00000000000E+00  0.00000000000E+00  0.23108068616E+04  0.23108068616E+04  0.25500000000E-02 0.  1.
         -2   -1    0    0    0  501 -0.00000000000E+00 -0.00000000000E+00 -0.55993063368E+03  0.55993063368E+03  0.25500000000E-02 0. -1.
    -200001    2    1    2    0    0 -0.58035454204E+03 -0.76246839579E+03  0.87097783025E+03  0.14326277501E+04  0.61290328798E+03 0.  0.
   -5000001    2    3    3    0    0 -0.50548818205E+03 -0.46172376256E+03  0.86530436987E+03  0.11066131884E+04  0.84462779326E+02 0.  0.
     200001    1    1    2    0    0  0.58035454204E+03  0.76246839579E+03  0.87989839764E+03  0.14381097452E+04  0.61300000000E+03 0.  1.
         11    1    4    4    0    0 -0.28786914796E+03 -0.24442337218E+03  0.52830158018E+03  0.64939509609E+03  0.51100000000E-03 0.  1.
    -200002    1    4    4    0    0 -0.21761903409E+03 -0.21730039038E+03  0.33700278969E+03  0.45721809229E+03  0.30000000000E+02 0.  1.
    -200000    1    3    3    0    0 -0.74866359991E+02 -0.30074463322E+03  0.56734603796E+01  0.32601456167E+03  0.10100000000E+03 0. -1.
<mgrwt>
<rscale>  0 0.22749871E+04</rscale>
<asrwt>0</asrwt>
<pdfrwt beam="1">  1        2 0.33011526E+00 0.22749871E+04</pdfrwt>
<pdfrwt beam="2">  1       -2 0.79990092E-01 0.22749871E+04</pdfrwt>
<totfact> 0.69909819E+00</totfact>
</mgrwt>
</event>
<event>
 8    2  0.7237260E-052  0.1342605E+04  0.7818608E-02  0.8996445E-01
         -2   -1    0    0    0  501 -0.00000000000E+00  0.00000000000E+00  0.24944624779E+03  0.24944624781E+03  0.25500000000E-02 0. -1.
          2   -1    0    0  501    0  0.00000000000E+00 -0.00000000000E+00 -0.18065899605E+04  0.18065899605E+04  0.25500000000E-02 0.  1.
    -200001    2    1    2    0    0  0.23427966597E+02  0.66068289701E+02 -0.11809026758E+04  0.13333743189E+04  0.61517644305E+03 0.  0.
   -5000001    2    3    3    0    0 -0.23965326968E+03  0.52036059389E+02 -0.87581228697E+03  0.91781471340E+03  0.12326899445E+03 0.  0.
     200001    1    1    2    0    0 -0.23427966597E+02 -0.66068289701E+02 -0.37624103688E+03  0.72266188937E+03  0.61300000000E+03 0. -1.
         11    1    4    4    0    0 -0.11780354042E+02  0.33037774794E+02 -0.21668482337E+03  0.21950531653E+03  0.51100000000E-03 0.  1.
    -200002    1    4    4    0    0 -0.22787291563E+03  0.18998284595E+02 -0.65912746360E+03  0.69830939688E+03  0.30000000000E+02 0.  1.
    -200000    1    3    3    0    0  0.26308123627E+03  0.14032230312E+02 -0.30509038882E+03  0.41555960550E+03  0.10100000000E+03 0.  1.
<mgrwt>
<rscale>  0 0.13426051E+04</rscale>
<asrwt>0</asrwt>
<pdfrwt beam="1">  1        2 0.25808427E+00 0.13426051E+04</pdfrwt>
<pdfrwt beam="2">  1       -2 0.35635179E-01 0.13426051E+04</pdfrwt>
<totfact> 0.73060145E+01</totfact>
</mgrwt>
</event>
<event>
 8    2  0.7237260E-052  0.1308065E+04  0.7818608E-02  0.9023194E-01
         -2   -1    0    0    0  501 -0.00000000000E+00  0.00000000000E+00  0.41312086353E+03  0.41312086354E+03  0.25500000000E-02 0. -1.
          2   -1    0    0  501    0  0.00000000000E+00 -0.00000000000E+00 -0.10354313274E+04  0.10354313275E+04  0.25500000000E-02 0.  1.
    -200001    2    1    2    0    0  0.10480393538E+03  0.19784493011E+03 -0.34905236890E+03  0.74104567672E+03  0.61415361068E+03 0.  0.
   -5000001    2    3    3    0    0  0.17347480751E+03 -0.12385897361E+03  0.30403513987E+02  0.22879880518E+03  0.77394866773E+02 0.  0.
     200001    1    1    2    0    0 -0.10480393538E+03 -0.19784493011E+03 -0.27325809501E+03  0.70750651427E+03  0.61300000000E+03 0.  1.
         11    1    4    4    0    0  0.15114779612E+03 -0.97218194910E+02  0.33378121071E+02  0.18278712389E+03  0.51100000000E-03 0.  1.
    -200002    1    4    4    0    0  0.22327011387E+02 -0.26640778704E+02 -0.29746070843E+01  0.46011681285E+02  0.30000000000E+02 0. -1.
    -200000    1    3    3    0    0 -0.68670872125E+02  0.32170390373E+03 -0.37945588289E+03  0.51224687155E+03  0.10100000000E+03 0.  1.
<mgrwt>
<rscale>  0 0.13080647E+04</rscale>
<asrwt>0</asrwt>
<pdfrwt beam="1">  1        2 0.14791876E+00 0.13080647E+04</pdfrwt>
<pdfrwt beam="2">  1       -2 0.59017267E-01 0.13080647E+04</pdfrwt>
<totfact> 0.70247007E+01</totfact>
</mgrwt>
</event>
<event>
 8    2  0.7237260E-052  0.1565503E+04  0.7818608E-02  0.8842026E-01
         -2   -1    0    0    0  501 -0.00000000000E+00  0.00000000000E+00  0.10050437912E+04  0.10050437912E+04  0.25500000000E-02 0.  1.
          2   -1    0    0  501    0  0.00000000000E+00 -0.00000000000E+00 -0.60962525338E+03  0.60962525338E+03  0.25500000000E-02 0. -1.
    -200001    2    1    2    0    0 -0.43872553020E+03  0.19799885197E+03  0.12190525696E+03  0.78867742775E+03  0.61275407557E+03 0.  0.
   -5000001    2    3    3    0    0  0.14131520240E+03  0.39256227160E+02  0.33005547474E+02  0.17243832581E+03  0.84466397125E+02 0.  0.
     200001    1    1    2    0    0  0.43872553020E+03 -0.19799885197E+03  0.27351328082E+03  0.82599161680E+03  0.61300000000E+03 0. -1.
         11    1    4    4    0    0  0.18071258360E+02  0.37001558027E+02  0.17078076398E+02  0.44579663175E+02  0.51100000000E-03 0.  1.
    -200002    1    4    4    0    0  0.12324394404E+03  0.22546691332E+01  0.15927471076E+02  0.12785866263E+03  0.30000000000E+02 0.  1.
    -200000    1    3    3    0    0 -0.58004073260E+03  0.15874262481E+03  0.88899709488E+02  0.61623910194E+03  0.10100000000E+03 0.  1.
<mgrwt>
<rscale>  0 0.15655032E+04</rscale>
<asrwt>0</asrwt>
<pdfrwt beam="1">  1        2 0.87089323E-01 0.15655032E+04</pdfrwt>
<pdfrwt beam="2">  1       -2 0.14357768E+00 0.15655032E+04</pdfrwt>
<totfact> 0.17242332E+01</totfact>
</mgrwt>
</event>
<event>
 8    2  0.7237260E-052  0.1458755E+04  0.7818608E-02  0.8912353E-01
         -2   -1    0    0    0  501 -0.00000000000E+00  0.00000000000E+00  0.21641321750E+03  0.21641321752E+03  0.25500000000E-02 0. -1.
          2   -1    0    0  501    0  0.00000000000E+00 -0.00000000000E+00 -0.24582214645E+04  0.24582214645E+04  0.25500000000E-02 0.  1.
    -200001    2    1    2    0    0  0.21099091281E+03  0.30587636203E+03 -0.87900446475E+03  0.11348033071E+04  0.61404574968E+03 0.  0.
   -5000001    2    3    3    0    0 -0.61379794275E+02 -0.25360708775E+02  0.33498994894E+02  0.12150800812E+03  0.96080011878E+02 0.  0.
     200001    1    1    2    0    0 -0.21099091281E+03 -0.30587636203E+03 -0.13628037822E+04  0.15398313748E+04  0.61300000000E+03 0.  1.
         11    1    4    4    0    0  0.15037894319E+00 -0.44552684031E+02  0.46899388402E+01  0.44799104844E+02  0.51100000000E-03 0.  1.
    -200002    1    4    4    0    0 -0.61530173218E+02  0.19191975256E+02  0.28809056054E+02  0.76708903272E+02  0.30000000000E+02 0.  1.
    -200000    1    3    3    0    0  0.27237070709E+03  0.33123707081E+03 -0.91250345965E+03  0.10132952990E+04  0.10100000000E+03 0. -1.
<mgrwt>
<rscale>  0 0.14587551E+04</rscale>
<asrwt>0</asrwt>
<pdfrwt beam="1">  1        2 0.35117448E+00 0.14587551E+04</pdfrwt>
<pdfrwt beam="2">  1       -2 0.30916175E-01 0.14587551E+04</pdfrwt>
<totfact> 0.43688261E+01</totfact>
</mgrwt>
</event>
<event>
 8    2  0.7237260E-052  0.2430013E+04  0.7818608E-02  0.8428352E-01
         -2   -1    0    0    0  501 -0.00000000000E+00  0.00000000000E+00  0.47716658427E+03  0.47716658427E+03  0.25500000000E-02 0. -1.
          2   -1    0    0  501    0  0.00000000000E+00 -0.00000000000E+00 -0.30937636928E+04  0.30937636928E+04  0.25500000000E-02 0.  1.
    -200001    2    1    2    0    0 -0.62418808907E+03 -0.75935038326E+03 -0.18484946152E+04  0.21809755241E+04  0.61114492486E+03 0.  0.
   -5000001    2    3    3    0    0 -0.33090796043E+03 -0.27422242540E+03 -0.13516391985E+04  0.14204305389E+04  0.77436271598E+02 0.  0.
     200001    1    1    2    0    0  0.62418808907E+03  0.75935038326E+03 -0.76810249334E+03  0.13899547530E+04  0.61300000000E+03 0. -1.
         11    1    4    4    0    0 -0.60342714711E+02 -0.84819652670E+02 -0.36464297660E+03  0.37920985889E+03  0.51100000000E-03 0.  1.
    -200002    1    4    4    0    0 -0.27056524572E+03 -0.18940277273E+03 -0.98699622189E+03  0.10412206800E+04  0.30000000000E+02 0.  1.
    -200000    1    3    3    0    0 -0.29328012863E+03 -0.48512795786E+03 -0.49685541673E+03  0.76054498518E+03  0.10100000000E+03 0.  1.
<mgrwt>
<rscale>  0 0.24300129E+04</rscale>
<asrwt>0</asrwt>
<pdfrwt beam="1">  1        2 0.44196623E+00 0.24300129E+04</pdfrwt>
<pdfrwt beam="2">  1       -2 0.68166656E-01 0.24300129E+04</pdfrwt>
<totfact> 0.37071602E+00</totfact>
</mgrwt>
</event>
<event>
 8    2  0.7237260E-052  0.1928349E+04  0.7818608E-02  0.8640872E-01
         -2   -1    0    0    0  501 -0.00000000000E+00  0.00000000000E+00  0.91304865053E+03  0.91304865053E+03  0.25500000000E-02 0. -1.
          2   -1    0    0  501    0  0.00000000000E+00 -0.00000000000E+00 -0.10181636159E+04  0.10181636159E+04  0.25500000000E-02 0.  1.
    -200001    2    1    2    0    0 -0.41349579728E+03 -0.33647037032E+03  0.46752304060E+03  0.93729357239E+03  0.61298479824E+03 0.  0.
   -5000001    2    3    3    0    0 -0.18441240148E+03  0.15424675987E+03  0.10103087224E+03  0.27562899455E+03  0.89241855329E+02 0.  0.
     200001    1    1    2    0    0  0.41349579728E+03  0.33647037032E+03 -0.57263800595E+03  0.99391869402E+03  0.61300000000E+03 0.  1.
         11    1    4    4    0    0 -0.13610045582E+03  0.13628642631E+03  0.97521813902E+02  0.21588846254E+03  0.51100000000E-03 0.  1.
    -200002    1    4    4    0    0 -0.48311945659E+02  0.17960333565E+02  0.35090583397E+01  0.59740532016E+02  0.30000000000E+02 0.  1.
    -200000    1    3    3    0    0 -0.22908339580E+03 -0.49071713019E+03  0.36649216836E+03  0.66166457784E+03  0.10100000000E+03 0. -1.
<mgrwt>
<rscale>  0 0.19283495E+04</rscale>
<asrwt>0</asrwt>
<pdfrwt beam="1">  1        2 0.14545194E+00 0.19283495E+04</pdfrwt>
<pdfrwt beam="2">  1       -2 0.13043552E+00 0.19283495E+04</pdfrwt>
<totfact> 0.11054045E+01</totfact>
</mgrwt>
</event>
<event>
 8    2  0.7237260E-052  0.1357092E+04  0.7818608E-02  0.8985477E-01
         -2   -1    0    0    0  501 -0.00000000000E+00  0.00000000000E+00  0.54469165104E+03  0.54469165105E+03  0.25500000000E-02 0. -1.
          2   -1    0    0  501    0  0.00000000000E+00 -0.00000000000E+00 -0.84529472322E+03  0.84529472322E+03  0.25500000000E-02 0.  1.
    -200001    2    1    2    0    0  0.14415613632E+03  0.13456642115E+03 -0.36950714929E+03  0.74237083618E+03  0.61293540580E+03 0.  0.
   -5000001    2    3    3    0    0 -0.17939114097E+03  0.10348230727E+03 -0.16252902112E+03  0.34401169129E+03  0.22144658872E+03 0.  0.
     200001    1    1    2    0    0 -0.14415613632E+03 -0.13456642115E+03  0.68904077120E+02  0.64761553810E+03  0.61300000000E+03 0. -1.
         11    1    4    4    0    0 -0.11584988375E+03 -0.55591207034E+02 -0.56799331572E+02  0.14049107421E+03  0.51100000000E-03 0.  1.
    -200002    1    4    4    0    0 -0.63541257221E+02  0.15907351431E+03 -0.10572968955E+03  0.20352061708E+03  0.30000000000E+02 0.  1.
    -200000    1    3    3    0    0  0.32354727729E+03  0.31084113878E+02 -0.20697812817E+03  0.39835914489E+03  0.10100000000E+03 0.  1.
<mgrwt>
<rscale>  0 0.13570924E+04</rscale>
<asrwt>0</asrwt>
<pdfrwt beam="1">  1        2 0.12075639E+00 0.13570924E+04</pdfrwt>
<pdfrwt beam="2">  1       -2 0.77813093E-01 0.13570924E+04</pdfrwt>
<totfact> 0.50878177E+01</totfact>
</mgrwt>
</event>
<event>
 8    2  0.7237260E-052  0.1230193E+04  0.7818608E-02  0.9086832E-01
         -2   -1    0    0    0  501 -0.00000000000E+00  0.00000000000E+00  0.23901579375E+03  0.23901579377E+03  0.25500000000E-02 0. -1.
          2   -1    0    0  501    0  0.00000000000E+00 -0.00000000000E+00 -0.15829227162E+04  0.15829227162E+04  0.25500000000E-02 0.  1.
    -200001    2    1    2    0    0  0.42327529230E+02  0.14904922834E+02 -0.64151500505E+03  0.88859121014E+03  0.61322023824E+03 0.  0.
   -5000001    2    3    3    0    0  0.16728189474E+03 -0.21725544107E+03 -0.23951464858E+03  0.39735062282E+03  0.15917629092E+03 0.  0.
     200001    1    1    2    0    0 -0.42327529230E+02 -0.14904922834E+02 -0.70239191736E+03  0.93334729979E+03  0.61300000000E+03 0.  1.
         11    1    4    4    0    0 -0.86872621025E+01 -0.28119343441E+02  0.15370115442E+02  0.33202506643E+02  0.51100000000E-03 0.  1.
    -200002    1    4    4    0    0  0.17596915684E+03 -0.18913609763E+03 -0.25488476402E+03  0.36414811618E+03  0.30000000000E+02 0.  1.
    -200000    1    3    3    0    0 -0.12495436551E+03  0.23216036390E+03 -0.40200035647E+03  0.49124058732E+03  0.10100000000E+03 0. -1.
<mgrwt>
<rscale>  0 0.12301927E+04</rscale>
<asrwt>0</asrwt>
<pdfrwt beam="1">  1        2 0.22613181E+00 0.12301927E+04</pdfrwt>
<pdfrwt beam="2">  1       -2 0.34145114E-01 0.12301927E+04</pdfrwt>
<totfact> 0.10442755E+02</totfact>
</mgrwt>
</event>
<event>
 8    2  0.7237260E-052  0.1398341E+04  0.7818608E-02  0.8955020E-01
         -2   -1    0    0    0  501 -0.00000000000E+00  0.00000000000E+00  0.16031463206E+04  0.16031463206E+04  0.25500000000E-02 0. -1.
          2   -1    0    0  501    0  0.00000000000E+00 -0.00000000000E+00 -0.30492498695E+03  0.30492498696E+03  0.25500000000E-02 0.  1.
    -200001    2    1    2    0    0  0.26335488345E+03 -0.20888255343E+03  0.64453186253E+03  0.95095760459E+03  0.61311608048E+03 0.  0.
   -5000001    2    3    3    0    0  0.34424929861E+03 -0.31379032246E+03  0.62202885361E+03  0.78285962180E+03  0.94748861045E+02 0.  0.
     200001    1    1    2    0    0 -0.26335488345E+03  0.20888255343E+03  0.65368947112E+03  0.95711370297E+03  0.61300000000E+03 0.  1.
         11    1    4    4    0    0 -0.44433203414E+01 -0.72626750112E+01  0.43164606135E+01  0.95457517496E+01  0.51100000000E-03 0.  1.
    -200002    1    4    4    0    0  0.34869261895E+03 -0.30652764745E+03  0.61771239299E+03  0.77331387005E+03  0.30000000000E+02 0.  1.
    -200000    1    3    3    0    0 -0.80894415156E+02  0.10490776903E+03  0.22503008925E+02  0.16809798279E+03  0.10100000000E+03 0.  1.
<mgrwt>
<rscale>  0 0.13983410E+04</rscale>
<asrwt>0</asrwt>
<pdfrwt beam="1">  1        2 0.43560713E-01 0.13983410E+04</pdfrwt>
<pdfrwt beam="2">  1       -2 0.22902090E+00 0.13983410E+04</pdfrwt>
<totfact> 0.99034766E+00</totfact>
</mgrwt>
</event>
<event>
 8    2  0.7237260E-052  0.1507258E+04  0.7818608E-02  0.8879641E-01
          2   -1    0    0  501    0  0.00000000000E+00  0.00000000000E+00  0.28104587980E+04  0.28104587980E+04  0.25500000000E-02 0.  1.
         -2   -1    0    0    0  501 -0.00000000000E+00 -0.00000000000E+00 -0.20208686141E+03  0.20208686142E+03  0.25500000000E-02 0. -1.
    -200001    2    1    2    0    0  0.18074265336E+02  0.23927409368E+02  0.21785754156E+04  0.22632838564E+04  0.61266938340E+03 0.  0.
   -5000001    2    3    3    0    0 -0.21015845956E+03 -0.17804432981E+03  0.82050112008E+03  0.86777335762E+03  0.62786548341E+02 0.  0.
     200001    1    1    2    0    0 -0.18074265336E+02 -0.23927409368E+02  0.42979652104E+03  0.74926180303E+03  0.61300000000E+03 0. -1.
         11    1    4    4    0    0 -0.13217544078E+03 -0.99228610842E+02  0.53797118081E+03  0.56278739835E+03  0.51100000000E-03 0.  1.
    -200002    1    4    4    0    0 -0.77983018778E+02 -0.78815718964E+02  0.28252993926E+03  0.30498595927E+03  0.30000000000E+02 0. -1.
    -200000    1    3    3    0    0  0.22823272489E+03  0.20197173917E+03  0.13580742955E+04  0.13955104988E+04  0.10100000000E+03 0. -1.
<mgrwt>
<rscale>  0 0.15072582E+04</rscale>
<asrwt>0</asrwt>
<pdfrwt beam="1">  1        2 0.40149413E+00 0.15072582E+04</pdfrwt>
<pdfrwt beam="2">  1       -2 0.28869551E-01 0.15072582E+04</pdfrwt>
<totfact> 0.32099790E+01</totfact>
</mgrwt>
</event>
<event>
 8    2  0.7237260E-052  0.1448830E+04  0.7818608E-02  0.8919212E-01
         -2   -1    0    0    0  501 -0.00000000000E+00  0.00000000000E+00  0.16869529942E+04  0.16869529942E+04  0.25500000000E-02 0. -1.
          2   -1    0    0  501    0  0.00000000000E+00 -0.00000000000E+00 -0.31107968224E+03  0.31107968225E+03  0.25500000000E-02 0.  1.
    -200001    2    1    2    0    0 -0.10543487105E+03 -0.35574365718E+03  0.53992107871E+03  0.89700806367E+03  0.61273047369E+03 0.  0.
   -5000001    2    3    3    0    0  0.10256076548E+03 -0.26914506201E+03  0.57527523145E+03  0.64758389159E+03  0.73929220954E+02 0.  0.
     200001    1    1    2    0    0  0.10543487105E+03  0.35574365718E+03  0.83595223321E+03  0.11010246127E+04  0.61300000000E+03 0. -1.
         11    1    4    4    0    0  0.82316522781E+02 -0.20406865675E+03  0.46611726440E+03  0.51544672931E+03  0.51100000000E-03 0.  1.
    -200002    1    4    4    0    0  0.20244242696E+02 -0.65076405266E+02  0.10915796705E+03  0.13213716228E+03  0.30000000000E+02 0. -1.
    -200000    1    3    3    0    0 -0.20799563653E+03 -0.86598595166E+02 -0.35354152740E+02  0.24942417207E+03  0.10100000000E+03 0.  1.
<mgrwt>
<rscale>  0 0.14488296E+04</rscale>
<asrwt>0</asrwt>
<pdfrwt beam="1">  1        2 0.44439954E-01 0.14488296E+04</pdfrwt>
<pdfrwt beam="2">  1       -2 0.24099329E+00 0.14488296E+04</pdfrwt>
<totfact> 0.81315047E+00</totfact>
</mgrwt>
</event>
<event>
 8    2  0.7237260E-052  0.1345718E+04  0.7818608E-02  0.8994076E-01
         -2   -1    0    0    0  501 -0.00000000000E+00  0.00000000000E+00  0.64651759713E+03  0.64651759713E+03  0.25500000000E-02 0. -1.
          2   -1    0    0  501    0  0.00000000000E+00 -0.00000000000E+00 -0.70027364066E+03  0.70027364067E+03  0.25500000000E-02 0.  1.
    -200001    2    1    2    0    0  0.27756553224E+03  0.12933476194E+02 -0.24985088371E+02  0.67313949739E+03  0.61260315769E+03 0.  0.
   -5000001    2    3    3    0    0 -0.17271143000E+03 -0.22472898898E+02 -0.75942060540E+02  0.20752101931E+03  0.83447634224E+02 0.  0.
     200001    1    1    2    0    0 -0.27756553224E+03 -0.12933476194E+02 -0.28770955169E+02  0.67365174041E+03  0.61300000000E+03 0.  1.
         11    1    4    4    0    0 -0.21031699028E+01  0.14265851765E+02 -0.13506364700E+02  0.19757523577E+02  0.51100000000E-03 0.  1.
    -200002    1    4    4    0    0 -0.17060826010E+03 -0.36738750663E+02 -0.62435695840E+02  0.18776349573E+03  0.30000000000E+02 0.  1.
    -200000    1    3    3    0    0  0.45027696224E+03  0.35406375091E+02  0.50956972169E+02  0.46561847808E+03  0.10100000000E+03 0.  1.
<mgrwt>
<rscale>  0 0.13457180E+04</rscale>
<asrwt>0</asrwt>
<pdfrwt beam="1">  1        2 0.10003909E+00 0.13457180E+04</pdfrwt>
<pdfrwt beam="2">  1       -2 0.92359657E-01 0.13457180E+04</pdfrwt>
<totfact> 0.43825587E+01</totfact>
</mgrwt>
</event>
<event>
 8    2  0.7237260E-052  0.1754764E+04  0.7818608E-02  0.8730732E-01
          2   -1    0    0  501    0  0.00000000000E+00  0.00000000000E+00  0.28106347074E+04  0.28106347074E+04  0.25500000000E-02 0.  1.
         -2   -1    0    0    0  501 -0.00000000000E+00 -0.00000000000E+00 -0.27388816076E+03  0.27388816077E+03  0.25500000000E-02 0. -1.
    -200001    2    1    2    0    0 -0.11394909734E+03 -0.34967983500E+03  0.37505272329E+03  0.80769402750E+03  0.61355090500E+03 0.  0.
   -5000001    2    3    3    0    0 -0.19032670164E+03  0.11252031511E+03  0.10201434431E+03  0.25613852386E+03  0.79466611153E+02 0.  0.
     200001    1    1    2    0    0  0.11394909734E+03  0.34967983500E+03  0.21616938234E+04  0.22768288407E+04  0.61300000000E+03 0.  1.
         11    1    4    4    0    0 -0.48200302860E+02  0.14394483534E+02  0.55234522383E+02  0.74708251320E+02  0.51100000000E-03 0.  1.
    -200002    1    4    4    0    0 -0.14212639878E+03  0.98125831580E+02  0.46779821924E+02  0.18143027254E+03  0.30000000000E+02 0.  1.
    -200000    1    3    3    0    0  0.76377604300E+02 -0.46220015011E+03  0.27303837898E+03  0.55155550364E+03  0.10100000000E+03 0. -1.
<mgrwt>
<rscale>  0 0.17547645E+04</rscale>
<asrwt>0</asrwt>
<pdfrwt beam="1">  1        2 0.40151926E+00 0.17547645E+04</pdfrwt>
<pdfrwt beam="2">  1       -2 0.39126878E-01 0.17547645E+04</pdfrwt>
<totfact> 0.17640487E+01</totfact>
</mgrwt>
</event>
<event>
 8    2  0.7237260E-052  0.1614732E+04  0.7818608E-02  0.8811548E-01
          2   -1    0    0  501    0  0.00000000000E+00  0.00000000000E+00  0.95732146815E+03  0.95732146815E+03  0.25500000000E-02 0. -1.
         -2   -1    0    0    0  501 -0.00000000000E+00 -0.00000000000E+00 -0.68089993225E+03  0.68089993226E+03  0.25500000000E-02 0.  1.
    -200001    2    1    2    0    0  0.49369956410E+03  0.25463892766E+02  0.31796822687E+03  0.84962594204E+03  0.61349228084E+03 0.  0.
   -5000001    2    3    3    0    0  0.25294404219E+03  0.23508496134E+03  0.15601314274E+01  0.38895328539E+03  0.17898769978E+03 0.  0.
     200001    1    1    2    0    0 -0.49369956410E+03 -0.25463892766E+02 -0.41546690978E+02  0.78859545837E+03  0.61300000000E+03 0.  1.
         11    1    4    4    0    0 -0.25145330254E+02  0.42303641835E+02  0.19122580590E+01  0.49249796723E+02  0.51100000000E-03 0.  1.
    -200002    1    4    4    0    0  0.27808937244E+03  0.19278131951E+03 -0.35212663165E+00  0.33970348867E+03  0.30000000000E+02 0.  1.
    -200000    1    3    3    0    0  0.24075552191E+03 -0.20962106858E+03  0.31640809544E+03  0.46067265665E+03  0.10100000000E+03 0. -1.
<mgrwt>
<rscale>  0 0.16147323E+04</rscale>
<asrwt>0</asrwt>
<pdfrwt beam="1">  1        2 0.13676021E+00 0.16147323E+04</pdfrwt>
<pdfrwt beam="2">  1       -2 0.97271420E-01 0.16147323E+04</pdfrwt>
<totfact> 0.25291513E+01</totfact>
</mgrwt>
</event>
<event>
 8    2  0.7237260E-052  0.1703958E+04  0.7818608E-02  0.8759110E-01
         -2   -1    0    0    0  501 -0.00000000000E+00  0.00000000000E+00  0.69783787817E+03  0.69783787817E+03  0.25500000000E-02 0. -1.
          2   -1    0    0  501    0  0.00000000000E+00 -0.00000000000E+00 -0.10401674434E+04  0.10401674434E+04  0.25500000000E-02 0.  1.
    -200001    2    1    2    0    0 -0.21784541584E+03 -0.25701229117E+03  0.32569654481E+03  0.77077224381E+03  0.61196378121E+03 0.  0.
   -5000001    2    3    3    0    0 -0.24065327502E+03 -0.23170820299E+02 -0.58436110634E+02  0.30929534415E+03  0.18384217469E+03 0.  0.
     200001    1    1    2    0    0  0.21784541584E+03  0.25701229117E+03 -0.66802611003E+03  0.96723307775E+03  0.61300000000E+03 0.  1.
         11    1    4    4    0    0 -0.71331411546E+02 -0.49082645433E+02  0.54155927574E+02  0.10212806102E+03  0.51100000000E-03 0.  1.
    -200002    1    4    4    0    0 -0.16932186347E+03  0.25911825134E+02 -0.11259203821E+03  0.20716728313E+03  0.30000000000E+02 0.  1.
    -200000    1    3    3    0    0  0.22807859178E+02 -0.23384147087E+03  0.38413265545E+03  0.46147689966E+03  0.10100000000E+03 0. -1.
<mgrwt>
<rscale>  0 0.17039580E+04</rscale>
<asrwt>0</asrwt>
<pdfrwt beam="1">  1        2 0.14859535E+00 0.17039580E+04</pdfrwt>
<pdfrwt beam="2">  1       -2 0.99691126E-01 0.17039580E+04</pdfrwt>
<totfact> 0.21065521E+01</totfact>
</mgrwt>
</event>
<event>
 8    2  0.7237260E-052  0.1237536E+04  0.7818608E-02  0.9080621E-01
         -2   -1    0    0    0  501 -0.00000000000E+00  0.00000000000E+00  0.42656706024E+03  0.42656706024E+03  0.25500000000E-02 0. -1.
          2   -1    0    0  501    0  0.00000000000E+00 -0.00000000000E+00 -0.89757012273E+03  0.89757012273E+03  0.25500000000E-02 0.  1.
    -200001    2    1    2    0    0  0.75332992823E+02  0.16179938403E+02 -0.20033230889E+03  0.64962364933E+03  0.61314027887E+03 0.  0.
   -5000001    2    3    3    0    0  0.20816036516E+03 -0.22912763192E+03 -0.78295722306E+02  0.32882333236E+03  0.78513402944E+02 0.  0.
     200001    1    1    2    0    0 -0.75332992823E+02 -0.16179938403E+02 -0.27067075360E+03  0.67451353365E+03  0.61300000000E+03 0. -1.
         11    1    4    4    0    0  0.75319169548E+02 -0.13228845560E+03 -0.39641506083E+02  0.15730436037E+03  0.51100000000E-03 0.  1.
    -200002    1    4    4    0    0  0.13284119561E+03 -0.96839176323E+02 -0.38654216222E+02  0.17151897200E+03  0.30000000000E+02 0. -1.
    -200000    1    3    3    0    0 -0.13282737234E+03  0.24530757032E+03 -0.12203658658E+03  0.32080031697E+03  0.10100000000E+03 0.  1.
<mgrwt>
<rscale>  0 0.12375360E+04</rscale>
<asrwt>0</asrwt>
<pdfrwt beam="1">  1        2 0.12822430E+00 0.12375360E+04</pdfrwt>
<pdfrwt beam="2">  1       -2 0.60938152E-01 0.12375360E+04</pdfrwt>
<totfact> 0.80580238E+01</totfact>
</mgrwt>
</event>
<event>
 8    2  0.7237260E-052  0.1552079E+04  0.7818608E-02  0.8850541E-01
         -2   -1    0    0    0  501 -0.00000000000E+00  0.00000000000E+00  0.39710092082E+03  0.39710092083E+03  0.25500000000E-02 0. -1.
          2   -1    0    0  501    0  0.00000000000E+00 -0.00000000000E+00 -0.15165842255E+04  0.15165842255E+04  0.25500000000E-02 0.  1.
    -200001    2    1    2    0    0  0.12827872710E+03  0.26107477786E+03 -0.95314056353E+02  0.68514653454E+03  0.61296454464E+03 0.  0.
   -5000001    2    3    3    0    0  0.32936871654E+03  0.14578229813E+02 -0.24528099736E+02  0.34395834056E+03  0.94918049608E+02 0.  0.
     200001    1    1    2    0    0 -0.12827872710E+03 -0.26107477786E+03 -0.10241692483E+04  0.12285386118E+04  0.61300000000E+03 0.  1.
         11    1    4    4    0    0  0.37291497094E+02 -0.25528702032E+02  0.77963043396E+01  0.45860143312E+02  0.51100000000E-03 0.  1.
    -200002    1    4    4    0    0  0.29207721945E+03  0.40106931844E+02 -0.32324404076E+02  0.29809819725E+03  0.30000000000E+02 0.  1.
    -200000    1    3    3    0    0 -0.20108998945E+03  0.24649654804E+03 -0.70785956617E+02  0.34118819398E+03  0.10100000000E+03 0.  1.
<mgrwt>
<rscale>  0 0.15520786E+04</rscale>
<asrwt>0</asrwt>
<pdfrwt beam="1">  1        2 0.21665489E+00 0.15520786E+04</pdfrwt>
<pdfrwt beam="2">  1       -2 0.56728704E-01 0.15520786E+04</pdfrwt>
<totfact> 0.40244668E+01</totfact>
</mgrwt>
</event>
<event>
 8    2  0.7237260E-052  0.1451818E+04  0.7818608E-02  0.8917141E-01
          2   -1    0    0  501    0  0.00000000000E+00  0.00000000000E+00  0.15852366229E+04  0.15852366229E+04  0.25500000000E-02 0.  1.
         -2   -1    0    0    0  501 -0.00000000000E+00 -0.00000000000E+00 -0.33240689597E+03  0.33240689598E+03  0.25500000000E-02 0. -1.
    -200001    2    1    2    0    0  0.47279994500E+02  0.19134273201E+03  0.10693090606E+04  0.12480942123E+04  0.61275595203E+03 0.  0.
   -5000001    2    3    3    0    0 -0.21320830999E+03  0.15291256888E+03  0.22914144601E+03  0.36185854681E+03  0.97957993260E+02 0.  0.
     200001    1    1    2    0    0 -0.47279994500E+02 -0.19134273201E+03  0.18352066636E+03  0.66954930659E+03  0.61300000000E+03 0. -1.
         11    1    4    4    0    0 -0.11193493524E+03  0.29997945253E+02  0.11771984289E+03  0.16518858271E+03  0.51100000000E-03 0.  1.
    -200002    1    4    4    0    0 -0.10127337475E+03  0.12291462363E+03  0.11142160312E+03  0.19666996410E+03  0.30000000000E+02 0.  1.
    -200000    1    3    3    0    0  0.26048830449E+03  0.38430163130E+02  0.84016761457E+03  0.88623566549E+03  0.10100000000E+03 0.  1.
<mgrwt>
<rscale>  0 0.14518176E+04</rscale>
<asrwt>0</asrwt>
<pdfrwt beam="1">  1        2 0.22646237E+00 0.14518176E+04</pdfrwt>
<pdfrwt beam="2">  1       -2 0.47486700E-01 0.14518176E+04</pdfrwt>
<totfact> 0.53736885E+01</totfact>
</mgrwt>
</event>
<event>
 8    2  0.7237260E-052  0.1462057E+04  0.7818608E-02  0.8910084E-01
         -2   -1    0    0    0  501 -0.00000000000E+00  0.00000000000E+00  0.11975189795E+04  0.11975189795E+04  0.25500000000E-02 0. -1.
          2   -1    0    0  501    0  0.00000000000E+00 -0.00000000000E+00 -0.44625802923E+03  0.44625802924E+03  0.25500000000E-02 0.  1.
    -200001    2    1    2    0    0  0.23123600367E+03 -0.18083783883E+03  0.73017241764E+02  0.68359164046E+03  0.61302006489E+03 0.  0.
   -5000001    2    3    3    0    0  0.13829901489E+03  0.19936626488E+03  0.66444883968E+02  0.27931866307E+03  0.12136913874E+03 0.  0.
     200001    1    1    2    0    0 -0.23123600367E+03  0.18083783883E+03  0.67824370853E+03  0.96018536831E+03  0.61300000000E+03 0. -1.
         11    1    4    4    0    0  0.13919260417E+03  0.17254093064E+03  0.27634676367E+02  0.22340239286E+03  0.51100000000E-03 0.  1.
    -200002    1    4    4    0    0 -0.89358927768E+00  0.26825334247E+02  0.38810207602E+02  0.55916270203E+02  0.30000000000E+02 0.  1.
    -200000    1    3    3    0    0  0.92936988787E+02 -0.38020410371E+03  0.65723577961E+01  0.40427297739E+03  0.10100000000E+03 0. -1.
<mgrwt>
<rscale>  0 0.14620567E+04</rscale>
<asrwt>0</asrwt>
<pdfrwt beam="1">  1        2 0.63751148E-01 0.14620567E+04</pdfrwt>
<pdfrwt beam="2">  1       -2 0.17107414E+00 0.14620567E+04</pdfrwt>
<totfact> 0.15523803E+01</totfact>
</mgrwt>
</event>
<event>
 8    2  0.7237260E-052  0.1705747E+04  0.7818608E-02  0.8758093E-01
         -2   -1    0    0    0  501 -0.00000000000E+00  0.00000000000E+00  0.27561865969E+03  0.27561865970E+03  0.25500000000E-02 0. -1.
          2   -1    0    0  501    0  0.00000000000E+00 -0.00000000000E+00 -0.26391305294E+04  0.26391305294E+04  0.25500000000E-02 0.  1.
    -200001    2    1    2    0    0 -0.15293120906E+03 -0.40862166372E+03 -0.49524959654E+03  0.90066564066E+03  0.61283506314E+03 0.  0.
   -5000001    2    3    3    0    0 -0.63724643708E+02 -0.21605405333E+03  0.10039274322E+03  0.26032909415E+03  0.83380754326E+02 0.  0.
     200001    1    1    2    0    0  0.15293120906E+03  0.40862166372E+03 -0.18682622732E+04  0.20140835484E+04  0.61300000000E+03 0.  1.
         11    1    4    4    0    0 -0.65533332135E+02 -0.16882503370E+03  0.58171855360E+02  0.19021165680E+03  0.51100000000E-03 0.  1.
    -200002    1    4    4    0    0  0.18086884272E+01 -0.47229019633E+02  0.42220887862E+02  0.70117437354E+02  0.30000000000E+02 0.  1.
    -200000    1    3    3    0    0 -0.89206565355E+02 -0.19256761039E+03 -0.59564233976E+03  0.64033654651E+03  0.10100000000E+03 0.  1.
<mgrwt>
<rscale>  0 0.17057475E+04</rscale>
<asrwt>0</asrwt>
<pdfrwt beam="1">  1        2 0.37701863E+00 0.17057475E+04</pdfrwt>
<pdfrwt beam="2">  1       -2 0.39374096E-01 0.17057475E+04</pdfrwt>
<totfact> 0.21643691E+01</totfact>
</mgrwt>
</event>
<event>
 8    2  0.7237260E-052  0.1631451E+04  0.7818608E-02  0.8801456E-01
         -2   -1    0    0    0  501 -0.00000000000E+00  0.00000000000E+00  0.25366675164E+03  0.25366675166E+03  0.25500000000E-02 0. -1.
          2   -1    0    0  501    0  0.00000000000E+00 -0.00000000000E+00 -0.26231596937E+04  0.26231596937E+04  0.25500000000E-02 0.  1.
    -200001    2    1    2    0    0 -0.44208551703E+03 -0.19997595646E+03 -0.77328484367E+03  0.10994465533E+04  0.61268530786E+03 0.  0.
   -5000001    2    3    3    0    0 -0.30470126602E+02 -0.24993741677E+03 -0.51228249975E+03  0.59920001334E+03  0.18223653728E+03 0.  0.
     200001    1    1    2    0    0  0.44208551703E+03  0.19997595646E+03 -0.15962080984E+04  0.17773798921E+04  0.61300000000E+03 0. -1.
         11    1    4    4    0    0  0.84078934703E+01 -0.65890757272E+02 -0.32624858629E+03  0.33294207397E+03  0.51100000000E-03 0.  1.
    -200002    1    4    4    0    0 -0.38878020072E+02 -0.18404665950E+03 -0.18603391346E+03  0.26625793937E+03  0.30000000000E+02 0.  1.
    -200000    1    3    3    0    0 -0.41161539043E+03  0.49961460312E+02 -0.26100234393E+03  0.50024653991E+03  0.10100000000E+03 0. -1.
<mgrwt>
<rscale>  0 0.16314514E+04</rscale>
<asrwt>0</asrwt>
<pdfrwt beam="1">  1        2 0.37473708E+00 0.16314514E+04</pdfrwt>
<pdfrwt beam="2">  1       -2 0.36238109E-01 0.16314514E+04</pdfrwt>
<totfact> 0.26080623E+01</totfact>
</mgrwt>
</event>
<event>
 8    2  0.7237260E-052  0.1268676E+04  0.7818608E-02  0.9054781E-01
         -2   -1    0    0    0  501 -0.00000000000E+00  0.00000000000E+00  0.11401619739E+04  0.11401619739E+04  0.25500000000E-02 0. -1.
          2   -1    0    0  501    0  0.00000000000E+00 -0.00000000000E+00 -0.35291896372E+03  0.35291896373E+03  0.25500000000E-02 0.  1.
    -200001    2    1    2    0    0 -0.12444697576E+03 -0.67821522650E+02  0.30067015393E+03  0.69771375631E+03  0.61344529957E+03 0.  0.
   -5000001    2    3    3    0    0 -0.17972908010E+03 -0.30349768318E+03  0.22119850786E+03  0.42364057952E+03  0.78289046510E+02 0.  0.
     200001    1    1    2    0    0  0.12444697576E+03  0.67821522650E+02  0.48657285626E+03  0.79536718135E+03  0.61300000000E+03 0. -1.
         11    1    4    4    0    0 -0.23436905610E+02 -0.10067251320E+03  0.58135110596E+02  0.11859146066E+03  0.51100000000E-03 0.  1.
    -200002    1    4    4    0    0 -0.15629217449E+03 -0.20282516999E+03  0.16306339726E+03  0.30504911886E+03  0.30000000000E+02 0.  1.
    -200000    1    3    3    0    0  0.55282104341E+02  0.23567616053E+03  0.79471646075E+02  0.27407317679E+03  0.10100000000E+03 0.  1.
<mgrwt>
<rscale>  0 0.12686761E+04</rscale>
<asrwt>0</asrwt>
<pdfrwt beam="1">  1        2 0.50416995E-01 0.12686761E+04</pdfrwt>
<pdfrwt beam="2">  1       -2 0.16288028E+00 0.12686761E+04</pdfrwt>
<totfact> 0.23450506E+01</totfact>
</mgrwt>
</event>
<event>
 8    2  0.7237260E-052  0.1243255E+04  0.7818608E-02  0.9075816E-01
          2   -1    0    0  501    0  0.00000000000E+00  0.00000000000E+00  0.24320167034E+04  0.24320167034E+04  0.25500000000E-02 0.  1.
         -2   -1    0    0    0  501 -0.00000000000E+00 -0.00000000000E+00 -0.15888894645E+03  0.15888894647E+03  0.25500000000E-02 0. -1.
    -200001    2    1    2    0    0 -0.36188694994E+02 -0.88624799182E+02  0.11329938567E+04  0.12928924422E+04  0.61541190370E+03 0.  0.
   -5000001    2    3    3    0    0  0.67897079128E+02  0.20329235873E+03  0.19811990529E+03  0.30282184856E+03  0.80695592320E+02 0.  0.
     200001    1    1    2    0    0  0.36188694994E+02  0.88624799182E+02  0.11401339003E+04  0.12980132077E+04  0.61300000000E+03 0.  1.
         11    1    4    4    0    0  0.52971175187E+02  0.18112100476E+03  0.16717421990E+03  0.25210708750E+03  0.51100000000E-03 0.  1.
    -200002    1    4    4    0    0  0.14925903940E+02  0.22171353967E+02  0.30945685392E+02  0.50714761062E+02  0.30000000000E+02 0. -1.
    -200000    1    3    3    0    0 -0.10408577412E+03 -0.29191715791E+03  0.93487395140E+03  0.99007059368E+03  0.10100000000E+03 0.  1.
<mgrwt>
<rscale>  0 0.12432547E+04</rscale>
<asrwt>0</asrwt>
<pdfrwt beam="1">  1        2 0.34743093E+00 0.12432547E+04</pdfrwt>
<pdfrwt beam="2">  1       -2 0.22698423E-01 0.12432547E+04</pdfrwt>
<totfact> 0.80714357E+01</totfact>
</mgrwt>
</event>
<event>
 8    2  0.7237260E-052  0.1562892E+04  0.7818608E-02  0.8843675E-01
         -2   -1    0    0    0  501 -0.00000000000E+00  0.00000000000E+00  0.50191868249E+03  0.50191868250E+03  0.25500000000E-02 0. -1.
          2   -1    0    0  501    0  0.00000000000E+00 -0.00000000000E+00 -0.12166475549E+04  0.12166475549E+04  0.25500000000E-02 0.  1.
    -200001    2    1    2    0    0 -0.10671494970E+03 -0.42582471547E+03 -0.14842341148E+03  0.77559983088E+03  0.62194117068E+03 0.  0.
   -5000001    2    3    3    0    0 -0.27881603547E+03 -0.13459541939E+03  0.10960287997E+03  0.33832205453E+03  0.81207836608E+02 0.  0.
     200001    1    1    2    0    0  0.10671494970E+03  0.42582471547E+03 -0.56630546097E+03  0.94296640657E+03  0.61300000000E+03 0.  1.
         11    1    4    4    0    0 -0.80076348334E+02 -0.71106942392E+02  0.18414538962E+02  0.10866238569E+03  0.51100000000E-03 0.  1.
    -200002    1    4    4    0    0 -0.19873968713E+03 -0.63488477001E+02  0.91188341006E+02  0.22965966883E+03  0.30000000000E+02 0.  1.
    -200000    1    3    3    0    0  0.17210108577E+03 -0.29122929607E+03 -0.25802629144E+03  0.43727777635E+03  0.10100000000E+03 0. -1.
<mgrwt>
<rscale>  0 0.15628924E+04</rscale>
<asrwt>0</asrwt>
<pdfrwt beam="1">  1        2 0.17380679E+00 0.15628924E+04</pdfrwt>
<pdfrwt beam="2">  1       -2 0.71702669E-01 0.15628924E+04</pdfrwt>
<totfact> 0.35534054E+01</totfact>
</mgrwt>
</event>
<event>
 8    2  0.7237260E-052  0.1492830E+04  0.7818608E-02  0.8889235E-01
          2   -1    0    0  501    0  0.00000000000E+00  0.00000000000E+00  0.17320147739E+04  0.17320147739E+04  0.25500000000E-02 0.  1.
         -2   -1    0    0    0  501 -0.00000000000E+00 -0.00000000000E+00 -0.32166874458E+03  0.32166874459E+03  0.25500000000E-02 0. -1.
    -200001    2    1    2    0    0 -0.58919017924E+02  0.16365746434E+03  0.17043558111E+03  0.65962393013E+03  0.61302546896E+03 0.  0.
   -5000001    2    3    3    0    0 -0.12395954904E+03  0.33521846655E+03  0.24007854627E+03  0.43891010917E+03  0.85246615402E+02 0.  0.
     200001    1    1    2    0    0  0.58919017924E+02 -0.16365746434E+03  0.12399104482E+04  0.13940595884E+04  0.61300000000E+03 0.  1.
         11    1    4    4    0    0  0.10414005090E+02  0.43427937438E+02  0.33043376354E+02  0.55554495527E+02  0.51100000000E-03 0.  1.
    -200002    1    4    4    0    0 -0.13437355413E+03  0.29179052911E+03  0.20703516992E+03  0.38335561364E+03  0.30000000000E+02 0.  1.
    -200000    1    3    3    0    0  0.65040531115E+02 -0.17156100221E+03 -0.69642965169E+02  0.22071382096E+03  0.10100000000E+03 0. -1.
<mgrwt>
<rscale>  0 0.14928296E+04</rscale>
<asrwt>0</asrwt>
<pdfrwt beam="1">  1        2 0.24743068E+00 0.14928296E+04</pdfrwt>
<pdfrwt beam="2">  1       -2 0.45952678E-01 0.14928296E+04</pdfrwt>
<totfact> 0.47973604E+01</totfact>
</mgrwt>
</event>
<event>
 8    2  0.7237260E-052  0.1358055E+04  0.7818608E-02  0.8984753E-01
         -2   -1    0    0    0  501 -0.00000000000E+00  0.00000000000E+00  0.41834895914E+03  0.41834895915E+03  0.25500000000E-02 0. -1.
          2   -1    0    0  501    0  0.00000000000E+00 -0.00000000000E+00 -0.11021377180E+04  0.11021377180E+04  0.25500000000E-02 0.  1.
    -200001    2    1    2    0    0  0.19595350110E+03  0.17110612023E+03 -0.48965863474E+03  0.82685090524E+03  0.61338549213E+03 0.  0.
   -5000001    2    3    3    0    0 -0.17117869774E+03  0.19866346399E+03 -0.23794406875E+03  0.36956906507E+03  0.10580451558E+03 0.  0.
     200001    1    1    2    0    0 -0.19595350110E+03 -0.17110612023E+03 -0.19413012411E+03  0.69363577190E+03  0.61300000000E+03 0.  1.
         11    1    4    4    0    0 -0.52578104649E+02  0.83016533342E+02 -0.31509480954E+02  0.10319423088E+03  0.51100000000E-03 0.  1.
    -200002    1    4    4    0    0 -0.11860059309E+03  0.11564693065E+03 -0.20643458779E+03  0.26637483419E+03  0.30000000000E+02 0.  1.
    -200000    1    3    3    0    0  0.36713219884E+03 -0.27557343765E+02 -0.25171456599E+03  0.45728184017E+03  0.10100000000E+03 0. -1.
<mgrwt>
<rscale>  0 0.13580547E+04</rscale>
<asrwt>0</asrwt>
<pdfrwt beam="1">  1        2 0.15744824E+00 0.13580547E+04</pdfrwt>
<pdfrwt beam="2">  1       -2 0.59764137E-01 0.13580547E+04</pdfrwt>
<totfact> 0.62175401E+01</totfact>
</mgrwt>
</event>
<event>
 8    2  0.7237260E-052  0.1245387E+04  0.7818608E-02  0.9074031E-01
         -2   -1    0    0    0  501 -0.00000000000E+00  0.00000000000E+00  0.25760376809E+03  0.25760376810E+03  0.25500000000E-02 0. -1.
          2   -1    0    0  501    0  0.00000000000E+00 -0.00000000000E+00 -0.15052079031E+04  0.15052079031E+04  0.25500000000E-02 0.  1.
    -200001    2    1    2    0    0  0.97894489126E+02  0.83554228521E+01 -0.55378267316E+03  0.83178515976E+03  0.61281168300E+03 0.  0.
   -5000001    2    3    3    0    0  0.13153755902E+03 -0.20385499461E+03 -0.53438006393E+03  0.59357815173E+03  0.88960559950E+02 0.  0.
     200001    1    1    2    0    0 -0.97894489126E+02 -0.83554228521E+01 -0.69382146190E+03  0.93102651148E+03  0.61300000000E+03 0.  1.
         11    1    4    4    0    0 -0.46348840805E+01 -0.36609773257E+02 -0.46903534472E+02  0.59679973145E+02  0.51100000000E-03 0.  1.
    -200002    1    4    4    0    0  0.13617244310E+03 -0.16724522135E+03 -0.48747652946E+03  0.53389817859E+03  0.30000000000E+02 0.  1.
    -200000    1    3    3    0    0 -0.33643069894E+02  0.21221041746E+03 -0.19402609225E+02  0.23820700803E+03  0.10100000000E+03 0. -1.
<mgrwt>
<rscale>  0 0.12453871E+04</rscale>
<asrwt>0</asrwt>
<pdfrwt beam="1">  1        2 0.21502970E+00 0.12453871E+04</pdfrwt>
<pdfrwt beam="2">  1       -2 0.36800539E-01 0.12453871E+04</pdfrwt>
<totfact> 0.99348576E+01</totfact>
</mgrwt>
</event>
<event>
 8    2  0.7237260E-052  0.1814167E+04  0.7818608E-02  0.8698802E-01
         -2   -1    0    0    0  501 -0.00000000000E+00  0.00000000000E+00  0.21638370095E+03  0.21638370097E+03  0.25500000000E-02 0. -1.
          2   -1    0    0  501    0  0.00000000000E+00 -0.00000000000E+00 -0.38025071264E+04  0.38025071264E+04  0.25500000000E-02 0.  1.
    -200001    2    1    2    0    0 -0.50096474716E+03  0.31895105072E+03 -0.24804694918E+04  0.26221320537E+04  0.60840131248E+03 0.  0.
   -5000001    2    3    3    0    0 -0.18089836681E+03  0.34435648582E+03 -0.68702156246E+03  0.79737333021E+03  0.11180336314E+03 0.  0.
     200001    1    1    2    0    0  0.50096474716E+03 -0.31895105072E+03 -0.11056539337E+04  0.13967587736E+04  0.61300000000E+03 0.  1.
         11    1    4    4    0    0 -0.18109638321E+03  0.30674818846E+03 -0.59320808407E+03  0.69194377094E+03  0.51100000000E-03 0.  1.
    -200002    1    4    4    0    0  0.19801640388E+00  0.37608297354E+02 -0.93813478397E+02  0.10542955928E+03  0.30000000000E+02 0.  1.
    -200000    1    3    3    0    0 -0.32006638035E+03 -0.25405435101E+02 -0.17934479293E+04  0.18247587235E+04  0.10100000000E+03 0.  1.
<mgrwt>
<rscale>  0 0.18141671E+04</rscale>
<asrwt>0</asrwt>
<pdfrwt beam="1">  1        2 0.54321526E+00 0.18141671E+04</pdfrwt>
<pdfrwt beam="2">  1       -2 0.30911960E-01 0.18141671E+04</pdfrwt>
<totfact> 0.71436144E+00</totfact>
</mgrwt>
</event>
<event>
 8    2  0.7237260E-052  0.1496929E+04  0.7818608E-02  0.8886497E-01
          2   -1    0    0  501    0  0.00000000000E+00  0.00000000000E+00  0.43739045242E+04  0.43739045242E+04  0.25500000000E-02 0.  1.
         -2   -1    0    0    0  501 -0.00000000000E+00 -0.00000000000E+00 -0.12807764074E+03  0.12807764076E+03  0.25500000000E-02 0. -1.
    -200001    2    1    2    0    0  0.36286288610E+03 -0.62067208514E+02  0.14582667365E+04  0.16241735567E+04  0.61308731453E+03 0.  0.
   -5000001    2    3    3    0    0  0.20505797521E+03  0.14219204614E+03  0.12449274909E+04  0.12744038229E+04  0.10951390356E+03 0.  0.
     200001    1    1    2    0    0 -0.36286288610E+03  0.62067208514E+02  0.27875601470E+04  0.28778086082E+04  0.61300000000E+03 0.  1.
         11    1    4    4    0    0  0.17363108049E+03  0.68084309299E+02  0.86827196304E+03  0.88807625072E+03  0.51100000000E-03 0.  1.
    -200002    1    4    4    0    0  0.31426894722E+02  0.74107736845E+02  0.37665552782E+03  0.38632757215E+03  0.30000000000E+02 0.  1.
    -200000    1    3    3    0    0  0.15780491089E+03 -0.20425925466E+03  0.21333924562E+03  0.34976973388E+03  0.10100000000E+03 0. -1.
<mgrwt>
<rscale>  0 0.14969294E+04</rscale>
<asrwt>0</asrwt>
<pdfrwt beam="1">  1        2 0.62484338E+00 0.14969294E+04</pdfrwt>
<pdfrwt beam="2">  1       -2 0.18296809E-01 0.14969294E+04</pdfrwt>
<totfact> 0.75540972E+00</totfact>
</mgrwt>
</event>
<event>
 8    2  0.7237260E-052  0.1289423E+04  0.7818608E-02  0.9037995E-01
          2   -1    0    0  501    0  0.00000000000E+00  0.00000000000E+00  0.12842406438E+04  0.12842406438E+04  0.25500000000E-02 0.  1.
         -2   -1    0    0    0  501 -0.00000000000E+00 -0.00000000000E+00 -0.32365664866E+03  0.32365664867E+03  0.25500000000E-02 0. -1.
    -200001    2    1    2    0    0 -0.16096973856E+03  0.60716047358E+02  0.60159653308E+03  0.87698095453E+03  0.61447498798E+03 0.  0.
   -5000001    2    3    3    0    0  0.16715255543E+03  0.12305622689E+03  0.37922928355E+03  0.46321927015E+03  0.16635633735E+03 0.  0.
     200001    1    1    2    0    0  0.16096973856E+03 -0.60716047358E+02  0.35898746204E+03  0.73091633792E+03  0.61300000000E+03 0.  1.
         11    1    4    4    0    0  0.17394491987E+03  0.41502228418E+02  0.25710164983E+03  0.31317810980E+03  0.51100000000E-03 0.  1.
    -200002    1    4    4    0    0 -0.67923644451E+01  0.81553998476E+02  0.12212763372E+03  0.15004116035E+03  0.30000000000E+02 0.  1.
    -200000    1    3    3    0    0 -0.32812229399E+03 -0.62340179536E+02  0.22236724954E+03  0.41376168438E+03  0.10100000000E+03 0.  1.
<mgrwt>
<rscale>  0 0.12894232E+04</rscale>
<asrwt>0</asrwt>
<pdfrwt beam="1">  1        2 0.18346295E+00 0.12894232E+04</pdfrwt>
<pdfrwt beam="2">  1       -2 0.46236663E-01 0.12894232E+04</pdfrwt>
<totfact> 0.83343567E+01</totfact>
</mgrwt>
</event>
<event>
 8    2  0.7237260E-052  0.1321374E+04  0.7818608E-02  0.9012785E-01
         -2   -1    0    0    0  501 -0.00000000000E+00  0.00000000000E+00  0.76088803661E+03  0.76088803662E+03  0.25500000000E-02 0. -1.
          2   -1    0    0  501    0  0.00000000000E+00 -0.00000000000E+00 -0.57368150371E+03  0.57368150372E+03  0.25500000000E-02 0.  1.
    -200001    2    1    2    0    0  0.97218563755E+02  0.22417022763E+03  0.90190817713E+02  0.66757269695E+03  0.61466672435E+03 0.  0.
   -5000001    2    3    3    0    0  0.20571771955E+03  0.95230367169E+02 -0.99429181168E+02  0.39452636682E+03  0.30720724126E+03 0.  0.
     200001    1    1    2    0    0 -0.97218563755E+02 -0.22417022763E+03  0.97015715188E+02  0.66699684339E+03  0.61300000000E+03 0. -1.
         11    1    4    4    0    0  0.19423916128E+03  0.19031956966E+03 -0.32462870135E+02  0.27386899844E+03  0.51100000000E-03 0.  1.
    -200002    1    4    4    0    0  0.11478558272E+02 -0.95089202492E+02 -0.66966311033E+02  0.12065736838E+03  0.30000000000E+02 0.  1.
    -200000    1    3    3    0    0 -0.10849915579E+03  0.12893986046E+03  0.18961999888E+03  0.27304633013E+03  0.10100000000E+03 0. -1.
<mgrwt>
<rscale>  0 0.13213741E+04</rscale>
<asrwt>0</asrwt>
<pdfrwt beam="1">  1        2 0.81954500E-01 0.13213741E+04</pdfrwt>
<pdfrwt beam="2">  1       -2 0.10869829E+00 0.13213741E+04</pdfrwt>
<totfact> 0.37927424E+01</totfact>
</mgrwt>
</event>
<event>
 8    2  0.7237260E-052  0.1384490E+04  0.7818608E-02  0.8965122E-01
         -2   -1    0    0    0  501 -0.00000000000E+00  0.00000000000E+00  0.34028579397E+03  0.34028579398E+03  0.25500000000E-02 0. -1.
          2   -1    0    0  501    0  0.00000000000E+00 -0.00000000000E+00 -0.14082379346E+04  0.14082379346E+04  0.25500000000E-02 0.  1.
    -200001    2    1    2    0    0 -0.23045303673E+03 -0.21427927157E+03 -0.61550485484E+03  0.92420476436E+03  0.61341993101E+03 0.  0.
   -5000001    2    3    3    0    0  0.89338357053E+02 -0.24393525029E+03 -0.65337286452E+02  0.27919982956E+03  0.78726332608E+02 0.  0.
     200001    1    1    2    0    0  0.23045303673E+03  0.21427927157E+03 -0.45244728578E+03  0.82431896422E+03  0.61300000000E+03 0. -1.
         11    1    4    4    0    0 -0.22443492011E+01 -0.78225467104E+02 -0.58030089424E+01  0.78472515698E+02  0.51100000000E-03 0.  1.
    -200002    1    4    4    0    0  0.91582706254E+02 -0.16570978319E+03 -0.59534277510E+02  0.20072731386E+03  0.30000000000E+02 0.  1.
    -200000    1    3    3    0    0 -0.31979139378E+03  0.29655978722E+02 -0.55016756839E+03  0.64500493481E+03  0.10100000000E+03 0.  1.
<mgrwt>
<rscale>  0 0.13844903E+04</rscale>
<asrwt>0</asrwt>
<pdfrwt beam="1">  1        2 0.20117684E+00 0.13844903E+04</pdfrwt>
<pdfrwt beam="2">  1       -2 0.48612257E-01 0.13844903E+04</pdfrwt>
<totfact> 0.63991304E+01</totfact>
</mgrwt>
</event>
<event>
 8    2  0.7237260E-052  0.1695963E+04  0.7818608E-02  0.8763670E-01
         -2   -1    0    0    0  501 -0.00000000000E+00  0.00000000000E+00  0.17191458785E+04  0.17191458785E+04  0.25500000000E-02 0.  1.
          2   -1    0    0  501    0  0.00000000000E+00 -0.00000000000E+00 -0.41827297487E+03  0.41827297487E+03  0.25500000000E-02 0. -1.
    -200001    2    1    2    0    0 -0.52730999570E+03 -0.47396929293E+02  0.33430376552E+03  0.87633709582E+03  0.61311124390E+03 0.  0.
   -5000001    2    3    3    0    0  0.41404793896E+02 -0.10215299887E+02  0.28126108302E+03  0.29510262365E+03  0.78479630196E+02 0.  0.
     200001    1    1    2    0    0  0.52730999570E+03  0.47396929293E+02  0.96656913807E+03  0.12610817575E+04  0.61300000000E+03 0.  1.
         11    1    4    4    0    0  0.15462113528E+02  0.25937886602E+02  0.15492642147E+03  0.15784184168E+03  0.51100000000E-03 0.  1.
    -200002    1    4    4    0    0  0.25942680368E+02 -0.36153186489E+02  0.12633466155E+03  0.13726078197E+03  0.30000000000E+02 0. -1.
    -200000    1    3    3    0    0 -0.56871478959E+03 -0.37181629406E+02  0.53042682503E+02  0.58123447217E+03  0.10100000000E+03 0. -1.
<mgrwt>
<rscale>  0 0.16959626E+04</rscale>
<asrwt>0</asrwt>
<pdfrwt beam="1">  1        2 0.59753282E-01 0.16959626E+04</pdfrwt>
<pdfrwt beam="2">  1       -2 0.24559227E+00 0.16959626E+04</pdfrwt>
<totfact> 0.53685827E+00</totfact>
</mgrwt>
</event>
<event>
 8    2  0.7237260E-052  0.1405543E+04  0.7818608E-02  0.8949816E-01
         -2   -1    0    0    0  501 -0.00000000000E+00  0.00000000000E+00  0.11604398991E+04  0.11604398991E+04  0.25500000000E-02 0. -1.
          2   -1    0    0  501    0  0.00000000000E+00 -0.00000000000E+00 -0.42560381800E+03  0.42560381801E+03  0.25500000000E-02 0.  1.
    -200001    2    1    2    0    0 -0.31351208117E+03 -0.12642604183E+03  0.29924832526E+03  0.76155656614E+03  0.61330699831E+03 0.  0.
   -5000001    2    3    3    0    0 -0.27342546137E+03  0.64040235452E+02 -0.62476396618E+02  0.33855524902E+03  0.17847610995E+03 0.  0.
     200001    1    1    2    0    0  0.31351208117E+03  0.12642604183E+03  0.43558775586E+03  0.82448715099E+03  0.61300000000E+03 0.  1.
         11    1    4    4    0    0  0.98142323680E+01 -0.23143758043E+02  0.16900554465E+02  0.30291606673E+02  0.51100000000E-03 0.  1.
    -200002    1    4    4    0    0 -0.28323969374E+03  0.87183993495E+02 -0.79376951082E+02  0.30826364235E+03  0.30000000000E+02 0.  1.
    -200000    1    3    3    0    0 -0.40086619792E+02 -0.19046627728E+03  0.36172472188E+03  0.42300131712E+03  0.10100000000E+03 0. -1.
<mgrwt>
<rscale>  0 0.14055428E+04</rscale>
<asrwt>0</asrwt>
<pdfrwt beam="1">  1        2 0.60800545E-01 0.14055428E+04</pdfrwt>
<pdfrwt beam="2">  1       -2 0.16577713E+00 0.14055428E+04</pdfrwt>
<totfact> 0.17943742E+01</totfact>
</mgrwt>
</event>
<event>
 8    2  0.7237260E-052  0.1544371E+04  0.7818608E-02  0.8855471E-01
          2   -1    0    0  501    0  0.00000000000E+00  0.00000000000E+00  0.24559900448E+03  0.24559900450E+03  0.25500000000E-02 0.  1.
         -2   -1    0    0    0  501 -0.00000000000E+00 -0.00000000000E+00 -0.24278205925E+04  0.24278205925E+04  0.25500000000E-02 0. -1.
    -200001    2    1    2    0    0  0.31116229217E+03  0.10372760761E+03 -0.51148141613E+03  0.86379999317E+03  0.61396726337E+03 0.  0.
   -5000001    2    3    3    0    0  0.46826179818E+02 -0.22542720466E+03 -0.29292374335E+03  0.37781138521E+03  0.62665841230E+02 0.  0.
     200001    1    1    2    0    0 -0.31116229217E+03 -0.10372760761E+03 -0.16707401719E+04  0.18096196038E+04  0.61300000000E+03 0. -1.
         11    1    4    4    0    0 -0.69668765943E+01 -0.86916648464E+01 -0.50132048875E+01  0.12215344072E+02  0.51100000000E-03 0.  1.
    -200002    1    4    4    0    0  0.53793056412E+02 -0.21673553981E+03 -0.28791053847E+03  0.36559604114E+03  0.30000000000E+02 0.  1.
    -200000    1    3    3    0    0  0.26433611235E+03  0.32915481227E+03 -0.21855767278E+03  0.48598860796E+03  0.10100000000E+03 0.  1.
<mgrwt>
<rscale>  0 0.15443708E+04</rscale>
<asrwt>0</asrwt>
<pdfrwt beam="1">  1        2 0.35085573E-01 0.15443708E+04</pdfrwt>
<pdfrwt beam="2">  1       -2 0.34683150E+00 0.15443708E+04</pdfrwt>
<totfact> 0.23603200E+00</totfact>
</mgrwt>
</event>
<event>
 8    2  0.7237260E-052  0.1501901E+04  0.7818608E-02  0.8883189E-01
         -2   -1    0    0    0  501 -0.00000000000E+00  0.00000000000E+00  0.22092027964E+03  0.22092027965E+03  0.25500000000E-02 0. -1.
          2   -1    0    0  501    0  0.00000000000E+00 -0.00000000000E+00 -0.25526268047E+04  0.25526268047E+04  0.25500000000E-02 0.  1.
    -200001    2    1    2    0    0  0.15701864874E+03 -0.83313111120E+02 -0.18907852557E+04  0.19978045392E+04  0.62012753786E+03 0.  0.
   -5000001    2    3    3    0    0  0.32750857355E+03 -0.75696289012E+02 -0.60559815595E+03  0.69740778753E+03  0.81465954248E+02 0.  0.
     200001    1    1    2    0    0 -0.15701864874E+03  0.83313111120E+02 -0.44092126934E+03  0.77574254511E+03  0.61300000000E+03 0.  1.
         11    1    4    4    0    0  0.24491938572E+03 -0.32436355151E+02 -0.45537888240E+03  0.51808063965E+03  0.51100000000E-03 0.  1.
    -200002    1    4    4    0    0  0.82589187824E+02 -0.43259933861E+02 -0.15021927355E+03  0.17932714788E+03  0.30000000000E+02 0.  1.
    -200000    1    3    3    0    0 -0.17048992480E+03 -0.76168221080E+01 -0.12851870998E+04  0.13003967517E+04  0.10100000000E+03 0.  1.
<mgrwt>
<rscale>  0 0.15019015E+04</rscale>
<asrwt>0</asrwt>
<pdfrwt beam="1">  1        2 0.36466096E+00 0.15019015E+04</pdfrwt>
<pdfrwt beam="2">  1       -2 0.31560041E-01 0.15019015E+04</pdfrwt>
<totfact> 0.37360679E+01</totfact>
</mgrwt>
</event>
<event>
 8    2  0.7237260E-052  0.1431824E+04  0.7818608E-02  0.8931099E-01
          2   -1    0    0  501    0  0.00000000000E+00  0.00000000000E+00  0.16777693155E+04  0.16777693155E+04  0.25500000000E-02 0.  1.
         -2   -1    0    0    0  501 -0.00000000000E+00 -0.00000000000E+00 -0.30548304373E+03  0.30548304374E+03  0.25500000000E-02 0. -1.
    -200001    2    1    2    0    0 -0.13455110686E+03 -0.16461071066E+03  0.26663902895E+03  0.70129077168E+03  0.61279008500E+03 0.  0.
   -5000001    2    3    3    0    0  0.21061613346E+03  0.37806022505E+02  0.15152952852E+03  0.27284689585E+03  0.75470388544E+02 0.  0.
     200001    1    1    2    0    0  0.13455110686E+03  0.16461071066E+03  0.11056472428E+04  0.12819615876E+04  0.61300000000E+03 0.  1.
         11    1    4    4    0    0  0.36247883402E+02  0.29086218376E+02  0.51663225281E+02  0.69491049764E+02  0.51100000000E-03 0.  1.
    -200002    1    4    4    0    0  0.17436825006E+03  0.87198041281E+01  0.99866303238E+02  0.20335584608E+03  0.30000000000E+02 0.  1.
    -200000    1    3    3    0    0 -0.34516724032E+03 -0.20241673316E+03  0.11510950043E+03  0.42844387584E+03  0.10100000000E+03 0. -1.
<mgrwt>
<rscale>  0 0.14318241E+04</rscale>
<asrwt>0</asrwt>
<pdfrwt beam="1">  1        2 0.23968133E+00 0.14318241E+04</pdfrwt>
<pdfrwt beam="2">  1       -2 0.43640434E-01 0.14318241E+04</pdfrwt>
<totfact> 0.57007686E+01</totfact>
</mgrwt>
</event>
<event>
 8    2  0.7237260E-052  0.1359906E+04  0.7818608E-02  0.8983363E-01
         -2   -1    0    0    0  501 -0.00000000000E+00  0.00000000000E+00  0.15591853228E+03  0.15591853231E+03  0.25500000000E-02 0. -1.
          2   -1    0    0  501    0  0.00000000000E+00 -0.00000000000E+00 -0.29652411114E+04  0.29652411114E+04  0.25500000000E-02 0.  1.
    -200001    2    1    2    0    0  0.18737894544E+03 -0.15925008574E+03 -0.10595206141E+04  0.12508528839E+04  0.61771963418E+03 0.  0.
   -5000001    2    3    3    0    0 -0.56417566719E+02 -0.84840416664E+02 -0.35274868681E+02  0.19054449235E+03  0.15710521656E+03 0.  0.
     200001    1    1    2    0    0 -0.18737894544E+03  0.15925008574E+03 -0.17498019651E+04  0.18703067599E+04  0.61300000000E+03 0. -1.
         11    1    4    4    0    0 -0.69550096883E+02 -0.69124719749E+02  0.40826990552E+02  0.10621810587E+03  0.51100000000E-03 0.  1.
    -200002    1    4    4    0    0  0.13132530164E+02 -0.15715696915E+02 -0.76101859232E+02  0.84326386479E+02  0.30000000000E+02 0.  1.
    -200000    1    3    3    0    0  0.24379651216E+03 -0.74409669074E+02 -0.10242457454E+04  0.10603083915E+04  0.10100000000E+03 0.  1.
<mgrwt>
<rscale>  0 0.13599059E+04</rscale>
<asrwt>0</asrwt>
<pdfrwt beam="1">  1        2 0.42360584E+00 0.13599059E+04</pdfrwt>
<pdfrwt beam="2">  1       -2 0.22274078E-01 0.13599059E+04</pdfrwt>
<totfact> 0.42853858E+01</totfact>
</mgrwt>
</event>
<event>
 8    2  0.7237260E-052  0.1269305E+04  0.7818608E-02  0.9054267E-01
         -2   -1    0    0    0  501 -0.00000000000E+00  0.00000000000E+00  0.22503290307E+03  0.22503290309E+03  0.25500000000E-02 0. -1.
          2   -1    0    0  501    0  0.00000000000E+00 -0.00000000000E+00 -0.17898897365E+04  0.17898897365E+04  0.25500000000E-02 0.  1.
    -200001    2    1    2    0    0 -0.92409413029E+02  0.13148669653E+03 -0.68883883899E+03  0.93371739655E+03  0.60950880186E+03 0.  0.
   -5000001    2    3    3    0    0 -0.20812094134E+03 -0.85491311368E+02 -0.57011361934E+03  0.64257260186E+03  0.19299460916E+03 0.  0.
     200001    1    1    2    0    0  0.92409413029E+02 -0.13148669653E+03 -0.87601799443E+03  0.10812052430E+04  0.61300000000E+03 0.  1.
         11    1    4    4    0    0 -0.21907386417E+03 -0.18655638860E+02 -0.46024682513E+03  0.51006718270E+03  0.51100000000E-03 0.  1.
    -200002    1    4    4    0    0  0.10952922831E+02 -0.66835672509E+02 -0.10986679421E+03  0.13250541917E+03  0.30000000000E+02 0.  1.
    -200000    1    3    3    0    0  0.11571152831E+03  0.21697800790E+03 -0.11872521965E+03  0.29114479469E+03  0.10100000000E+03 0. -1.
<mgrwt>
<rscale>  0 0.12693055E+04</rscale>
<asrwt>0</asrwt>
<pdfrwt beam="1">  1        2 0.25569853E+00 0.12693055E+04</pdfrwt>
<pdfrwt beam="2">  1       -2 0.32147559E-01 0.12693055E+04</pdfrwt>
<totfact> 0.91106020E+01</totfact>
</mgrwt>
</event>
<event>
 8    2  0.7237260E-052  0.1616810E+04  0.7818608E-02  0.8810287E-01
          2   -1    0    0  501    0  0.00000000000E+00  0.00000000000E+00  0.48215915113E+04  0.48215915113E+04  0.25500000000E-02 0.  1.
         -2   -1    0    0    0  501 -0.00000000000E+00 -0.00000000000E+00 -0.13553995228E+03  0.13553995230E+03  0.25500000000E-02 0. -1.
    -200001    2    1    2    0    0  0.31078380435E+02 -0.29426956343E+03  0.36801821928E+04  0.37425934348E+04  0.61294714598E+03 0.  0.
   -5000001    2    3    3    0    0  0.88706234449E+02 -0.24541831268E+03  0.35137018636E+04  0.35337295693E+04  0.27026827169E+03 0.  0.
     200001    1    1    2    0    0 -0.31078380435E+02  0.29426956343E+03  0.10058693662E+04  0.12145380289E+04  0.61300000000E+03 0. -1.
         11    1    4    4    0    0  0.15391868260E+01  0.13141731595E+02  0.16374755353E+04  0.16375289930E+04  0.51100000000E-03 0.  1.
    -200002    1    4    4    0    0  0.87167047623E+02 -0.25856004427E+03  0.18762263283E+04  0.18962005764E+04  0.30000000000E+02 0.  1.
    -200000    1    3    3    0    0 -0.57627854014E+02 -0.48851250751E+02  0.16648032922E+03  0.20886386541E+03  0.10100000000E+03 0. -1.
<mgrwt>
<rscale>  0 0.16168096E+04</rscale>
<asrwt>0</asrwt>
<pdfrwt beam="1">  1        2 0.68879869E+00 0.16168096E+04</pdfrwt>
<pdfrwt beam="2">  1       -2 0.19362853E-01 0.16168096E+04</pdfrwt>
<totfact> 0.28959115E+00</totfact>
</mgrwt>
</event>
<event>
 8    2  0.7237260E-052  0.1726637E+04  0.7818608E-02  0.8746317E-01
          2   -1    0    0  501    0  0.00000000000E+00  0.00000000000E+00  0.12565835017E+04  0.12565835017E+04  0.25500000000E-02 0.  1.
         -2   -1    0    0    0  501 -0.00000000000E+00 -0.00000000000E+00 -0.59313107683E+03  0.59313107684E+03  0.25500000000E-02 0. -1.
    -200001    2    1    2    0    0 -0.54928122841E+03 -0.82781779210E+02  0.59619133737E+03  0.10197412388E+04  0.61307861850E+03 0.  0.
   -5000001    2    3    3    0    0 -0.60230387404E+03 -0.16018083766E+03  0.31943980574E+03  0.71055775692E+03  0.12009445863E+03 0.  0.
     200001    1    1    2    0    0  0.54928122841E+03  0.82781779210E+02  0.67261087527E+02  0.82997333978E+03  0.61300000000E+03 0. -1.
         11    1    4    4    0    0 -0.36174611005E+03 -0.87845591291E+02  0.12925726916E+03  0.39406159122E+03  0.51100000000E-03 0.  1.
    -200002    1    4    4    0    0 -0.24055776399E+03 -0.72335246366E+02  0.19018253658E+03  0.31649616570E+03  0.30000000000E+02 0.  1.
    -200000    1    3    3    0    0  0.53022645626E+02  0.77399058448E+02  0.27675153162E+03  0.30918348186E+03  0.10100000000E+03 0.  1.
<mgrwt>
<rscale>  0 0.17266369E+04</rscale>
<asrwt>0</asrwt>
<pdfrwt beam="1">  1        2 0.17951193E+00 0.17266369E+04</pdfrwt>
<pdfrwt beam="2">  1       -2 0.84733012E-01 0.17266369E+04</pdfrwt>
<totfact> 0.22942434E+01</totfact>
</mgrwt>
</event>
<event>
 8    2  0.7237260E-052  0.1990484E+04  0.7818608E-02  0.8611083E-01
          2   -1    0    0  501    0  0.00000000000E+00  0.00000000000E+00  0.30087386968E+04  0.30087386968E+04  0.25500000000E-02 0.  1.
         -2   -1    0    0    0  501 -0.00000000000E+00 -0.00000000000E+00 -0.32921000969E+03  0.32921000970E+03  0.25500000000E-02 0. -1.
    -200001    2    1    2    0    0 -0.64059850828E+03 -0.20450172192E+03  0.66345228964E+03  0.11260444492E+04  0.61287825694E+03 0.  0.
   -5000001    2    3    3    0    0 -0.51463616354E+03  0.96207491794E+02  0.30039713921E+03  0.62774475446E+03  0.17239133740E+03 0.  0.
     200001    1    1    2    0    0  0.64059850828E+03  0.20450172192E+03  0.20160763975E+04  0.22119042573E+04  0.61300000000E+03 0.  1.
         11    1    4    4    0    0 -0.31658113102E+03 -0.24113497990E+02  0.17640266343E+03  0.36321202205E+03  0.51100000000E-03 0.  1.
    -200002    1    4    4    0    0 -0.19805503252E+03  0.12032098978E+03  0.12399447579E+03  0.26453273241E+03  0.30000000000E+02 0.  1.
    -200000    1    3    3    0    0 -0.12596234474E+03 -0.30070921371E+03  0.36305515042E+03  0.49829969471E+03  0.10100000000E+03 0. -1.
<mgrwt>
<rscale>  0 0.19904843E+04</rscale>
<asrwt>0</asrwt>
<pdfrwt beam="1">  1        2 0.42981979E+00 0.19904843E+04</pdfrwt>
<pdfrwt beam="2">  1       -2 0.47030004E-01 0.19904843E+04</pdfrwt>
<totfact> 0.93361388E+00</totfact>
</mgrwt>
</event>
<event>
 8    2  0.7237260E-052  0.1371169E+04  0.7818608E-02  0.8974957E-01
         -2   -1    0    0    0  501 -0.00000000000E+00  0.00000000000E+00  0.11838099569E+04  0.11838099569E+04  0.25500000000E-02 0. -1.
          2   -1    0    0  501    0  0.00000000000E+00 -0.00000000000E+00 -0.39704498927E+03  0.39704498928E+03  0.25500000000E-02 0.  1.
    -200001    2    1    2    0    0  0.59771084795E+02  0.38120454450E+02  0.73710328061E+03  0.96177414794E+03  0.61372837130E+03 0.  0.
   -5000001    2    3    3    0    0 -0.35440647356E+02  0.11107943243E+03 -0.55020202242E+02  0.15427869997E+03  0.84734968078E+02 0.  0.
     200001    1    1    2    0    0 -0.59771084795E+02 -0.38120454450E+02  0.49661687055E+02  0.61908079827E+03  0.61300000000E+03 0.  1.
         11    1    4    4    0    0 -0.84205497010E+01  0.90853006780E+02 -0.59455103275E+02  0.10890401188E+03  0.51100000000E-03 0.  1.
    -200002    1    4    4    0    0 -0.27020097655E+02  0.20226425653E+02  0.44349010327E+01  0.45374688088E+02  0.30000000000E+02 0.  1.
    -200000    1    3    3    0    0  0.95211732151E+02 -0.72958977982E+02  0.79212348285E+03  0.80749544797E+03  0.10100000000E+03 0. -1.
<mgrwt>
<rscale>  0 0.13711686E+04</rscale>
<asrwt>0</asrwt>
<pdfrwt beam="1">  1        2 0.56720712E-01 0.13711686E+04</pdfrwt>
<pdfrwt beam="2">  1       -2 0.16911571E+00 0.13711686E+04</pdfrwt>
<totfact> 0.18401283E+01</totfact>
</mgrwt>
</event>
<event>
 8    2  0.7237260E-052  0.1354209E+04  0.7818608E-02  0.8987648E-01
          2   -1    0    0  501    0  0.00000000000E+00  0.00000000000E+00  0.11633352039E+04  0.11633352039E+04  0.25500000000E-02 0.  1.
         -2   -1    0    0    0  501 -0.00000000000E+00 -0.00000000000E+00 -0.39410033391E+03  0.39410033392E+03  0.25500000000E-02 0. -1.
    -200001    2    1    2    0    0  0.25375462258E+03 -0.10067449906E+02  0.54294521172E+03  0.85638720035E+03  0.61165085790E+03 0.  0.
   -5000001    2    3    3    0    0  0.31499906345E+03  0.22814171637E+03  0.31901275819E+03  0.50876494534E+03  0.76154953877E+02 0.  0.
     200001    1    1    2    0    0 -0.25375462258E+03  0.10067449906E+02  0.22628965827E+03  0.70104833747E+03  0.61300000000E+03 0. -1.
         11    1    4    4    0    0  0.14942808988E+03  0.88467799755E+02  0.10580480634E+03  0.20334690233E+03  0.51100000000E-03 0.  1.
    -200002    1    4    4    0    0  0.16557097357E+03  0.13967391661E+03  0.21320795185E+03  0.30541804302E+03  0.30000000000E+02 0.  1.
    -200000    1    3    3    0    0 -0.61244440874E+02 -0.23820916627E+03  0.22393245353E+03  0.34762225501E+03  0.10100000000E+03 0. -1.
<mgrwt>
<rscale>  0 0.13542094E+04</rscale>
<asrwt>0</asrwt>
<pdfrwt beam="1">  1        2 0.16619074E+00 0.13542094E+04</pdfrwt>
<pdfrwt beam="2">  1       -2 0.56300048E-01 0.13542094E+04</pdfrwt>
<totfact> 0.64924153E+01</totfact>
</mgrwt>
</event>
<event>
 8    2  0.7237260E-052  0.1709763E+04  0.7818608E-02  0.8755816E-01
          2   -1    0    0  501    0  0.00000000000E+00  0.00000000000E+00  0.30300726955E+04  0.30300726955E+04  0.25500000000E-02 0.  1.
         -2   -1    0    0    0  501 -0.00000000000E+00 -0.00000000000E+00 -0.24118977056E+03  0.24118977058E+03  0.25500000000E-02 0. -1.
    -200001    2    1    2    0    0 -0.76148434156E+02  0.28624677902E+03  0.40398090206E+03  0.79108858886E+03  0.61227835473E+03 0.  0.
   -5000001    2    3    3    0    0  0.90937280788E+02  0.41763329880E+03  0.20072395072E+03  0.48013128956E+03  0.86883770160E+02 0.  0.
     200001    1    1    2    0    0  0.76148434156E+02 -0.28624677902E+03  0.23849020229E+04  0.24801738772E+04  0.61300000000E+03 0.  1.
         11    1    4    4    0    0  0.32621962599E+02  0.18020488135E+03  0.12754509655E+03  0.22317200398E+03  0.51100000000E-03 0.  1.
    -200002    1    4    4    0    0  0.58315318188E+02  0.23742841746E+03  0.73178854178E+02  0.25695928559E+03  0.30000000000E+02 0.  1.
    -200000    1    3    3    0    0 -0.16708571494E+03 -0.13138651978E+03  0.20325695134E+03  0.31095729930E+03  0.10100000000E+03 0.  1.
<mgrwt>
<rscale>  0 0.17097632E+04</rscale>
<asrwt>0</asrwt>
<pdfrwt beam="1">  1        2 0.43286749E+00 0.17097632E+04</pdfrwt>
<pdfrwt beam="2">  1       -2 0.34455684E-01 0.17097632E+04</pdfrwt>
<totfact> 0.17118939E+01</totfact>
</mgrwt>
</event>
<event>
 8    2  0.7237260E-052  0.1544801E+04  0.7818608E-02  0.8855195E-01
          2   -1    0    0  501    0  0.00000000000E+00  0.00000000000E+00  0.80933469033E+03  0.80933469033E+03  0.25500000000E-02 0.  1.
         -2   -1    0    0    0  501 -0.00000000000E+00 -0.00000000000E+00 -0.73715198749E+03  0.73715198750E+03  0.25500000000E-02 0. -1.
    -200001    2    1    2    0    0 -0.43776076386E+03 -0.24542761102E+02  0.21751981275E+03  0.77893947471E+03  0.60596617301E+03 0.  0.
   -5000001    2    3    3    0    0 -0.23105585289E+03 -0.23390441683E+02 -0.19180006212E+03  0.30939500608E+03  0.70739564883E+02 0.  0.
     200001    1    1    2    0    0  0.43776076386E+03  0.24542761102E+02 -0.14533710991E+03  0.76754720312E+03  0.61300000000E+03 0.  1.
         11    1    4    4    0    0 -0.27091360034E+02 -0.18757574784E+02 -0.47091877913E+02  0.57475502311E+02  0.51100000000E-03 0.  1.
    -200002    1    4    4    0    0 -0.20396449286E+03 -0.46328668991E+01 -0.14470818421E+03  0.25191950377E+03  0.30000000000E+02 0.  1.
    -200000    1    3    3    0    0 -0.20670491096E+03 -0.11523194189E+01  0.40931987487E+03  0.46954446863E+03  0.10100000000E+03 0.  1.
<mgrwt>
<rscale>  0 0.15448012E+04</rscale>
<asrwt>0</asrwt>
<pdfrwt beam="1">  1        2 0.11561924E+00 0.15448012E+04</pdfrwt>
<pdfrwt beam="2">  1       -2 0.10530743E+00 0.15448012E+04</pdfrwt>
<totfact> 0.26379085E+01</totfact>
</mgrwt>
</event>
<event>
 8    2  0.7237260E-052  0.1268596E+04  0.7818608E-02  0.9054846E-01
          2   -1    0    0  501    0  0.00000000000E+00  0.00000000000E+00  0.12641830779E+04  0.12641830779E+04  0.25500000000E-02 0.  1.
         -2   -1    0    0    0  501 -0.00000000000E+00 -0.00000000000E+00 -0.31825623973E+03  0.31825623974E+03  0.25500000000E-02 0. -1.
    -200001    2    1    2    0    0 -0.50769661714E+02 -0.15502740562E+03  0.49368919792E+03  0.80340213089E+03  0.61246624783E+03 0.  0.
   -5000001    2    3    3    0    0  0.95222686415E+02  0.19278985067E+03  0.10180203922E+03  0.25016876726E+03  0.77365821841E+02 0.  0.
     200001    1    1    2    0    0  0.50769661714E+02  0.15502740562E+03  0.45223764021E+03  0.77903718671E+03  0.61300000000E+03 0. -1.
         11    1    4    4    0    0 -0.11016743446E+02  0.12815763351E+02  0.34385970324E+01  0.17246343851E+02  0.51100000000E-03 0.  1.
    -200002    1    4    4    0    0  0.10623942986E+03  0.17997408732E+03  0.98363442192E+02  0.23292242340E+03  0.30000000000E+02 0.  1.
    -200000    1    3    3    0    0 -0.14599234813E+03 -0.34781725630E+03  0.39188715870E+03  0.55323336364E+03  0.10100000000E+03 0.  1.
<mgrwt>
<rscale>  0 0.12685963E+04</rscale>
<asrwt>0</asrwt>
<pdfrwt beam="1">  1        2 0.18059758E+00 0.12685963E+04</pdfrwt>
<pdfrwt beam="2">  1       -2 0.45465178E-01 0.12685963E+04</pdfrwt>
<totfact> 0.88577194E+01</totfact>
</mgrwt>
</event>
<event>
 8    2  0.7237260E-052  0.1317832E+04  0.7818608E-02  0.9015542E-01
         -2   -1    0    0    0  501 -0.00000000000E+00  0.00000000000E+00  0.30367352525E+03  0.30367352526E+03  0.25500000000E-02 0. -1.
          2   -1    0    0  501    0  0.00000000000E+00 -0.00000000000E+00 -0.14297275558E+04  0.14297275558E+04  0.25500000000E-02 0.  1.
    -200001    2    1    2    0    0 -0.13510259280E+03 -0.13363315651E+03 -0.36539851179E+03  0.73817429821E+03  0.61259667891E+03 0.  0.
   -5000001    2    3    3    0    0  0.20141944584E+03  0.67045216964E+02 -0.15851683990E+03  0.28372967206E+03  0.10153858378E+03 0.  0.
     200001    1    1    2    0    0  0.13510259280E+03  0.13363315651E+03 -0.76065551880E+03  0.99522678289E+03  0.61300000000E+03 0. -1.
         11    1    4    4    0    0  0.17018647996E+03  0.68660735925E+02 -0.94482835542E+02  0.20640915879E+03  0.51100000000E-03 0.  1.
    -200002    1    4    4    0    0  0.31232965883E+02 -0.16155189611E+01 -0.64034004354E+02  0.77320513274E+02  0.30000000000E+02 0. -1.
    -200000    1    3    3    0    0 -0.33652203864E+03 -0.20067837347E+03 -0.20688167189E+03  0.45444462615E+03  0.10100000000E+03 0. -1.
<mgrwt>
<rscale>  0 0.13178322E+04</rscale>
<asrwt>0</asrwt>
<pdfrwt beam="1">  1        2 0.20424679E+00 0.13178322E+04</pdfrwt>
<pdfrwt beam="2">  1       -2 0.43381933E-01 0.13178322E+04</pdfrwt>
<totfact> 0.78650049E+01</totfact>
</mgrwt>
</event>
<event>
 8    2  0.7237260E-052  0.1578765E+04  0.7818608E-02  0.8833701E-01
         -2   -1    0    0    0  501 -0.00000000000E+00  0.00000000000E+00  0.44382057131E+03  0.44382057132E+03  0.25500000000E-02 0. -1.
          2   -1    0    0  501    0  0.00000000000E+00 -0.00000000000E+00 -0.14040019343E+04  0.14040019343E+04  0.25500000000E-02 0.  1.
    -200001    2    1    2    0    0 -0.41367606455E+03 -0.16679883494E+03 -0.22264802124E+03  0.79014856347E+03  0.61303578466E+03 0.  0.
   -5000001    2    3    3    0    0 -0.14839067083E+03  0.20572627314E+03 -0.12729486823E+02  0.27690584569E+03  0.11032550426E+03 0.  0.
     200001    1    1    2    0    0  0.41367606455E+03  0.16679883494E+03 -0.73753334179E+03  0.10576739422E+04  0.61300000000E+03 0.  1.
         11    1    4    4    0    0  0.11617064181E+02  0.49831581492E+02 -0.42801494955E+01  0.51346493300E+02  0.51100000000E-03 0.  1.
    -200002    1    4    4    0    0 -0.16000773501E+03  0.15589469165E+03 -0.84493373274E+01  0.22555935239E+03  0.30000000000E+02 0.  1.
    -200000    1    3    3    0    0 -0.26528539372E+03 -0.37252510808E+03 -0.20991853442E+03  0.51324271778E+03  0.10100000000E+03 0.  1.
<mgrwt>
<rscale>  0 0.15787653E+04</rscale>
<asrwt>0</asrwt>
<pdfrwt beam="1">  1        2 0.20057170E+00 0.15787653E+04</pdfrwt>
<pdfrwt beam="2">  1       -2 0.63402939E-01 0.15787653E+04</pdfrwt>
<totfact> 0.36485366E+01</totfact>
</mgrwt>
</event>
<event>
 8    2  0.7237260E-052  0.1429965E+04  0.7818608E-02  0.8932409E-01
          2   -1    0    0  501    0  0.00000000000E+00  0.00000000000E+00  0.20052173693E+04  0.20052173693E+04  0.25500000000E-02 0.  1.
         -2   -1    0    0    0  501 -0.00000000000E+00 -0.00000000000E+00 -0.25493503778E+03  0.25493503779E+03  0.25500000000E-02 0. -1.
    -200001    2    1    2    0    0  0.29364394838E+03 -0.11043802817E+03  0.11729473151E+04  0.13615378915E+04  0.61608173112E+03 0.  0.
   -5000001    2    3    3    0    0 -0.16097573842E+03 -0.23385019014E+02  0.24547040395E+03  0.32006215639E+03  0.12539544355E+03 0.  0.
     200001    1    1    2    0    0 -0.29364394838E+03  0.11043802817E+03  0.57733501639E+03  0.89861451559E+03  0.61300000000E+03 0. -1.
         11    1    4    4    0    0 -0.34110697446E+02 -0.54993881881E+02  0.44883181743E+02  0.78755106046E+02  0.51100000000E-03 0.  1.
    -200002    1    4    4    0    0 -0.12686504098E+03  0.31608862867E+02  0.20058722221E+03  0.24130705035E+03  0.30000000000E+02 0.  1.
    -200000    1    3    3    0    0  0.45461968680E+03 -0.87053009159E+02  0.92747691118E+03  0.10414757351E+04  0.10100000000E+03 0. -1.
<mgrwt>
<rscale>  0 0.14299653E+04</rscale>
<asrwt>0</asrwt>
<pdfrwt beam="1">  1        2 0.28645963E+00 0.14299653E+04</pdfrwt>
<pdfrwt beam="2">  1       -2 0.36419291E-01 0.14299653E+04</pdfrwt>
<totfact> 0.55022465E+01</totfact>
</mgrwt>
</event>
<event>
 8    2  0.7237260E-052  0.1518733E+04  0.7818608E-02  0.8872091E-01
         -2   -1    0    0    0  501 -0.00000000000E+00  0.00000000000E+00  0.20150233963E+03  0.20150233965E+03  0.25500000000E-02 0. -1.
          2   -1    0    0  501    0  0.00000000000E+00 -0.00000000000E+00 -0.28616904221E+04  0.28616904221E+04  0.25500000000E-02 0.  1.
    -200001    2    1    2    0    0  0.25168608097E+03 -0.38775725118E+02 -0.20700690860E+04  0.21750154877E+04  0.61697399504E+03 0.  0.
   -5000001    2    3    3    0    0  0.16874852729E+03  0.26479798207E+03 -0.10878979433E+04  0.11387255731E+04  0.12074750095E+03 0.  0.
     200001    1    1    2    0    0 -0.25168608097E+03  0.38775725118E+02 -0.59011899647E+03  0.88817727409E+03  0.61300000000E+03 0. -1.
         11    1    4    4    0    0  0.87574854349E+02  0.68319213683E+02 -0.24649543131E+03  0.27036432407E+03  0.51100000000E-03 0.  1.
    -200002    1    4    4    0    0  0.81173672945E+02  0.19647876839E+03 -0.84140251197E+03  0.86836124900E+03  0.30000000000E+02 0.  1.
    -200000    1    3    3    0    0  0.82937553672E+02 -0.30357370719E+03 -0.98217114272E+03  0.10362899146E+04  0.10100000000E+03 0. -1.
<mgrwt>
<rscale>  0 0.15187328E+04</rscale>
<asrwt>0</asrwt>
<pdfrwt beam="1">  1        2 0.40881289E+00 0.15187328E+04</pdfrwt>
<pdfrwt beam="2">  1       -2 0.28786050E-01 0.15187328E+04</pdfrwt>
<totfact> 0.30234407E+01</totfact>
</mgrwt>
</event>
<event>
 8    2  0.7237260E-052  0.1836934E+04  0.7818608E-02  0.8686901E-01
          2   -1    0    0  501    0  0.00000000000E+00  0.00000000000E+00  0.64779797781E+03  0.64779797781E+03  0.25500000000E-02 0.  1.
         -2   -1    0    0    0  501 -0.00000000000E+00 -0.00000000000E+00 -0.13022296554E+04  0.13022296554E+04  0.25500000000E-02 0. -1.
    -200001    2    1    2    0    0  0.49883593575E+03  0.17552943900E+03  0.13407377582E+03  0.81991360145E+03  0.61207406556E+03 0.  0.
   -5000001    2    3    3    0    0 -0.95549799352E+02  0.24272138281E+02  0.87233793129E+01  0.18581038034E+03  0.15725933754E+03 0.  0.
     200001    1    1    2    0    0 -0.49883593575E+03 -0.17552943900E+03 -0.78850545342E+03  0.11301140318E+04  0.61300000000E+03 0.  1.
         11    1    4    4    0    0 -0.11279055388E+03  0.73857899566E+01 -0.43340731974E+02  0.12105650741E+03  0.51100000000E-03 0.  1.
    -200002    1    4    4    0    0  0.17240754523E+02  0.16886348325E+02  0.52064111287E+02  0.64753872937E+02  0.30000000000E+02 0.  1.
    -200000    1    3    3    0    0  0.59438573510E+03  0.15125730072E+03  0.12535039651E+03  0.63410322110E+03  0.10100000000E+03 0. -1.
<mgrwt>
<rscale>  0 0.18369341E+04</rscale>
<asrwt>0</asrwt>
<pdfrwt beam="1">  1        2 0.92542569E-01 0.18369341E+04</pdfrwt>
<pdfrwt beam="2">  1       -2 0.18603281E+00 0.18369341E+04</pdfrwt>
<totfact> 0.76982991E+00</totfact>
</mgrwt>
</event>
<event>
 8    2  0.7237260E-052  0.1586324E+04  0.7818608E-02  0.8828994E-01
          2   -1    0    0  501    0  0.00000000000E+00  0.00000000000E+00  0.82639638477E+03  0.82639638477E+03  0.25500000000E-02 0.  1.
         -2   -1    0    0    0  501 -0.00000000000E+00 -0.00000000000E+00 -0.76126426265E+03  0.76126426265E+03  0.25500000000E-02 0. -1.
    -200001    2    1    2    0    0 -0.48403254333E+03  0.76214956502E+02  0.14829670028E+03  0.79849553818E+03  0.61278625195E+03 0.  0.
   -5000001    2    3    3    0    0 -0.53999190041E+03  0.20785770476E+03  0.28610042485E+02  0.58639377282E+03  0.90791212841E+02 0.  0.
     200001    1    1    2    0    0  0.48403254333E+03 -0.76214956502E+02 -0.83164578159E+02  0.78916510925E+03  0.61300000000E+03 0.  1.
         11    1    4    4    0    0 -0.47645936817E+03  0.16995136212E+03  0.24744892877E+02  0.50646747648E+03  0.51100000000E-03 0.  1.
    -200002    1    4    4    0    0 -0.63532532240E+02  0.37906342639E+02  0.38651496086E+01  0.79926296340E+02  0.30000000000E+02 0. -1.
    -200000    1    3    3    0    0  0.55959357084E+02 -0.13164274826E+03  0.11968665780E+03  0.21210176536E+03  0.10100000000E+03 0.  1.
<mgrwt>
<rscale>  0 0.15863241E+04</rscale>
<asrwt>0</asrwt>
<pdfrwt beam="1">  1        2 0.11805663E+00 0.15863241E+04</pdfrwt>
<pdfrwt beam="2">  1       -2 0.10875204E+00 0.15863241E+04</pdfrwt>
<totfact> 0.23681592E+01</totfact>
</mgrwt>
</event>
<event>
 8    2  0.7237260E-052  0.1421810E+04  0.7818608E-02  0.8938181E-01
          2   -1    0    0  501    0  0.00000000000E+00  0.00000000000E+00  0.28100706910E+04  0.28100706910E+04  0.25500000000E-02 0.  1.
         -2   -1    0    0    0  501 -0.00000000000E+00 -0.00000000000E+00 -0.17984812119E+03  0.17984812121E+03  0.25500000000E-02 0. -1.
    -200001    2    1    2    0    0  0.68616640636E+01  0.12189246722E+03  0.20211309301E+04  0.21171837542E+04  0.61854018159E+03 0.  0.
   -5000001    2    3    3    0    0 -0.91155277866E+02 -0.12395143543E+03  0.16000493776E+03  0.23462233291E+03  0.75979049521E+02 0.  0.
     200001    1    1    2    0    0 -0.68616640636E+01 -0.12189246722E+03  0.60909163972E+03  0.87273505807E+03  0.61300000000E+03 0. -1.
         11    1    4    4    0    0  0.31053822502E+01 -0.36239694899E+02  0.17932801151E+02  0.40552980688E+02  0.51100000000E-03 0.  1.
    -200002    1    4    4    0    0 -0.94260660116E+02 -0.87711740530E+02  0.14207213661E+03  0.19406935223E+03  0.30000000000E+02 0.  1.
    -200000    1    3    3    0    0  0.98016941930E+02  0.24584390265E+03  0.18611259924E+04  0.18825614213E+04  0.10100000000E+03 0.  1.
<mgrwt>
<rscale>  0 0.14218100E+04</rscale>
<asrwt>0</asrwt>
<pdfrwt beam="1">  1        2 0.40143867E+00 0.14218100E+04</pdfrwt>
<pdfrwt beam="2">  1       -2 0.25692589E-01 0.14218100E+04</pdfrwt>
<totfact> 0.40075500E+01</totfact>
</mgrwt>
</event>
<event>
 8    2  0.7237260E-052  0.1448016E+04  0.7818608E-02  0.8919777E-01
         -2   -1    0    0    0  501 -0.00000000000E+00  0.00000000000E+00  0.63834161169E+03  0.63834161170E+03  0.25500000000E-02 0. -1.
          2   -1    0    0  501    0  0.00000000000E+00 -0.00000000000E+00 -0.82117080528E+03  0.82117080528E+03  0.25500000000E-02 0.  1.
    -200001    2    1    2    0    0 -0.31385781860E+03  0.22229948799E+03 -0.64060075940E+02  0.72616468502E+03  0.61260726717E+03 0.  0.
   -5000001    2    3    3    0    0 -0.81544332835E+01  0.31745363066E+03 -0.17417260152E+03  0.37284522767E+03  0.88510825757E+02 0.  0.
     200001    1    1    2    0    0  0.31385781860E+03 -0.22229948799E+03 -0.11876911765E+03  0.73334773195E+03  0.61300000000E+03 0. -1.
         11    1    4    4    0    0 -0.37291481172E+02  0.22535769717E+03 -0.12480074770E+03  0.26029209144E+03  0.51100000000E-03 0.  1.
    -200002    1    4    4    0    0  0.29137047888E+02  0.92095933487E+02 -0.49371853819E+02  0.11255313622E+03  0.30000000000E+02 0.  1.
    -200000    1    3    3    0    0 -0.30570338531E+03 -0.95154142663E+02  0.11011252558E+03  0.35331945736E+03  0.10100000000E+03 0. -1.
<mgrwt>
<rscale>  0 0.14480159E+04</rscale>
<asrwt>0</asrwt>
<pdfrwt beam="1">  1        2 0.11731011E+00 0.14480159E+04</pdfrwt>
<pdfrwt beam="2">  1       -2 0.91191660E-01 0.14480159E+04</pdfrwt>
<totfact> 0.36605833E+01</totfact>
</mgrwt>
</event>
<event>
 8    2  0.7237260E-052  0.1321196E+04  0.7818608E-02  0.9012923E-01
         -2   -1    0    0    0  501 -0.00000000000E+00  0.00000000000E+00  0.46965696883E+03  0.46965696883E+03  0.25500000000E-02 0. -1.
          2   -1    0    0  501    0  0.00000000000E+00 -0.00000000000E+00 -0.92916689277E+03  0.92916689278E+03  0.25500000000E-02 0.  1.
    -200001    2    1    2    0    0  0.16945894554E+03  0.17043144011E+03 -0.28548327696E+03  0.71778239161E+03  0.61314570069E+03 0.  0.
   -5000001    2    3    3    0    0 -0.12252436410E+03  0.12319524520E+03 -0.15315621624E+02  0.30465157310E+03  0.24977734983E+03 0.  0.
     200001    1    1    2    0    0 -0.16945894554E+03 -0.17043144011E+03 -0.17402664698E+03  0.68104147000E+03  0.61300000000E+03 0. -1.
         11    1    4    4    0    0  0.53211697259E+02  0.10965076803E+03  0.16689307307E+02  0.12301751352E+03  0.51100000000E-03 0.  1.
    -200002    1    4    4    0    0 -0.17573606135E+03  0.13544477178E+02 -0.32004928931E+02  0.18163405958E+03  0.30000000000E+02 0.  1.
    -200000    1    3    3    0    0  0.29198330964E+03  0.47236194904E+02 -0.27016765534E+03  0.41313081851E+03  0.10100000000E+03 0.  1.
<mgrwt>
<rscale>  0 0.13211960E+04</rscale>
<asrwt>0</asrwt>
<pdfrwt beam="1">  1        2 0.13273813E+00 0.13211960E+04</pdfrwt>
<pdfrwt beam="2">  1       -2 0.67093853E-01 0.13211960E+04</pdfrwt>
<totfact> 0.62196020E+01</totfact>
</mgrwt>
</event>
<event>
 8    2  0.7237260E-052  0.1804474E+04  0.7818608E-02  0.8703924E-01
          2   -1    0    0  501    0  0.00000000000E+00  0.00000000000E+00  0.60920155769E+03  0.60920155770E+03  0.25500000000E-02 0.  1.
         -2   -1    0    0    0  501 -0.00000000000E+00 -0.00000000000E+00 -0.13362268975E+04  0.13362268975E+04  0.25500000000E-02 0. -1.
    -200001    2    1    2    0    0 -0.36943419126E+03 -0.42751690241E+03 -0.73287921712E+03  0.11117285143E+04  0.61609741046E+03 0.  0.
   -5000001    2    3    3    0    0  0.88905963140E+02 -0.24737830186E+03 -0.77056257946E+02  0.28539300963E+03  0.80070022767E+02 0.  0.
     200001    1    1    2    0    0  0.36943419126E+03  0.42751690241E+03  0.58538773163E+01  0.83369994086E+03  0.61300000000E+03 0.  1.
         11    1    4    4    0    0  0.56890582565E+02 -0.76588323145E+02 -0.70392582393E+01  0.95665358326E+02  0.51100000000E-03 0.  1.
    -200002    1    4    4    0    0  0.32015380575E+02 -0.17078997871E+03 -0.70016999706E+02  0.18972765131E+03  0.30000000000E+02 0.  1.
    -200000    1    3    3    0    0 -0.45834015440E+03 -0.18013860055E+03 -0.65582295918E+03  0.82633550470E+03  0.10100000000E+03 0.  1.
<mgrwt>
<rscale>  0 0.18044739E+04</rscale>
<asrwt>0</asrwt>
<pdfrwt beam="1">  1        2 0.87028794E-01 0.18044739E+04</pdfrwt>
<pdfrwt beam="2">  1       -2 0.19088956E+00 0.18044739E+04</pdfrwt>
<totfact> 0.77049203E+00</totfact>
</mgrwt>
</event>
<event>
 8    2  0.7237260E-052  0.1357104E+04  0.7818608E-02  0.8985468E-01
         -2   -1    0    0    0  501 -0.00000000000E+00  0.00000000000E+00  0.40587016838E+03  0.40587016839E+03  0.25500000000E-02 0. -1.
          2   -1    0    0  501    0  0.00000000000E+00 -0.00000000000E+00 -0.11344333647E+04  0.11344333647E+04  0.25500000000E-02 0.  1.
    -200001    2    1    2    0    0 -0.26424086354E+03  0.69278724479E+02 -0.25031164025E+03  0.71621838791E+03  0.61293562982E+03 0.  0.
   -5000001    2    3    3    0    0  0.54523124431E+02 -0.65100784706E+02 -0.29812065412E+03  0.35268704906E+03  0.16823004160E+03 0.  0.
     200001    1    1    2    0    0  0.26424086354E+03 -0.69278724479E+02 -0.47825155605E+03  0.82408514518E+03  0.61300000000E+03 0. -1.
         11    1    4    4    0    0  0.35811032746E+02 -0.11767885311E+03 -0.17094084059E+03  0.21059799030E+03  0.51100000000E-03 0.  1.
    -200002    1    4    4    0    0  0.18712091685E+02  0.52578068400E+02 -0.12717981353E+03  0.14208905877E+03  0.30000000000E+02 0.  1.
    -200000    1    3    3    0    0 -0.31876398798E+03  0.13437950919E+03  0.47809013865E+02  0.36353133885E+03  0.10100000000E+03 0.  1.
<mgrwt>
<rscale>  0 0.13571038E+04</rscale>
<asrwt>0</asrwt>
<pdfrwt beam="1">  1        2 0.16206191E+00 0.13571038E+04</pdfrwt>
<pdfrwt beam="2">  1       -2 0.57981453E-01 0.13571038E+04</pdfrwt>
<totfact> 0.63439177E+01</totfact>
</mgrwt>
</event>
<event>
 8    2  0.7237260E-052  0.1677976E+04  0.7818608E-02  0.8774026E-01
          2   -1    0    0  501    0  0.00000000000E+00  0.00000000000E+00  0.57001360765E+03  0.57001360766E+03  0.25500000000E-02 0.  1.
         -2   -1    0    0    0  501 -0.00000000000E+00 -0.00000000000E+00 -0.12348841490E+04  0.12348841490E+04  0.25500000000E-02 0. -1.
    -200001    2    1    2    0    0  0.45056997915E+03  0.30475538592E+03 -0.52145389355E+03  0.97289626255E+03  0.61540541371E+03 0.  0.
   -5000001    2    3    3    0    0  0.14755189970E+02 -0.11991489486E+01 -0.28360180105E+03  0.38102015577E+03  0.25402209344E+03 0.  0.
     200001    1    1    2    0    0 -0.45056997915E+03 -0.30475538592E+03 -0.14341664781E+03  0.83200149412E+03  0.61300000000E+03 0. -1.
         11    1    4    4    0    0 -0.71544845437E+02 -0.20369055169E+02  0.80210596764E+01  0.74819119987E+02  0.51100000000E-03 0.  1.
    -200002    1    4    4    0    0  0.86300035406E+02  0.19169906221E+02 -0.29162286072E+03  0.30620103578E+03  0.30000000000E+02 0.  1.
    -200000    1    3    3    0    0  0.43581478918E+03  0.30595453486E+03 -0.23785209250E+03  0.59187610678E+03  0.10100000000E+03 0.  1.
<mgrwt>
<rscale>  0 0.16779759E+04</rscale>
<asrwt>0</asrwt>
<pdfrwt beam="1">  1        2 0.81430516E-01 0.16779759E+04</pdfrwt>
<pdfrwt beam="2">  1       -2 0.17641202E+00 0.16779759E+04</pdfrwt>
<totfact> 0.10572146E+01</totfact>
</mgrwt>
</event>
<event>
 8    2  0.7237260E-052  0.1413655E+04  0.7818608E-02  0.8943993E-01
         -2   -1    0    0    0  501 -0.00000000000E+00  0.00000000000E+00  0.39200429366E+03  0.39200429367E+03  0.25500000000E-02 0. -1.
          2   -1    0    0  501    0  0.00000000000E+00 -0.00000000000E+00 -0.12744895192E+04  0.12744895192E+04  0.25500000000E-02 0.  1.
    -200001    2    1    2    0    0 -0.19259631922E+03 -0.80908122490E+01 -0.97129585069E+02  0.65174690577E+03  0.61496428308E+03 0.  0.
   -5000001    2    3    3    0    0  0.18332888685E+03  0.11703391200E+03 -0.18152909787E+02  0.23531651253E+03  0.87965422897E+02 0.  0.
     200001    1    1    2    0    0  0.19259631922E+03  0.80908122490E+01 -0.78535564042E+03  0.10147469070E+04  0.61300000000E+03 0.  1.
         11    1    4    4    0    0  0.96219679563E+01  0.20002257692E+02  0.20734178148E+02  0.30373981034E+02  0.51100000000E-03 0.  1.
    -200002    1    4    4    0    0  0.17370691889E+03  0.97031654310E+02 -0.38887087935E+02  0.20494253150E+03  0.30000000000E+02 0.  1.
    -200000    1    3    3    0    0 -0.37592520607E+03 -0.12512472425E+03 -0.78976675282E+02  0.41643039324E+03  0.10100000000E+03 0.  1.
<mgrwt>
<rscale>  0 0.14136554E+04</rscale>
<asrwt>0</asrwt>
<pdfrwt beam="1">  1        2 0.18206993E+00 0.14136554E+04</pdfrwt>
<pdfrwt beam="2">  1       -2 0.56000614E-01 0.14136554E+04</pdfrwt>
<totfact> 0.56537209E+01</totfact>
</mgrwt>
</event>
<event>
 8    2  0.7237260E-052  0.1567734E+04  0.7818608E-02  0.8840619E-01
          2   -1    0    0  501    0  0.00000000000E+00  0.00000000000E+00  0.20437152233E+04  0.20437152233E+04  0.25500000000E-02 0.  1.
         -2   -1    0    0    0  501 -0.00000000000E+00 -0.00000000000E+00 -0.30065221860E+03  0.30065221861E+03  0.25500000000E-02 0. -1.
    -200001    2    1    2    0    0  0.15353615472E+03  0.27583958075E+03  0.14291166819E+04  0.15867447662E+04  0.61296299856E+03 0.  0.
   -5000001    2    3    3    0    0 -0.18614348361E+03  0.24626830589E+03  0.81706430338E+03  0.87888472991E+03  0.97707817658E+02 0.  0.
     200001    1    1    2    0    0 -0.15353615472E+03 -0.27583958075E+03  0.31394632283E+03  0.75762267570E+03  0.61300000000E+03 0. -1.
         11    1    4    4    0    0 -0.23082131730E+02  0.25396431551E+02  0.33032355822E+02  0.47632972531E+02  0.51100000000E-03 0.  1.
    -200002    1    4    4    0    0 -0.16306135188E+03  0.22087187433E+03  0.78403194756E+03  0.83125175737E+03  0.30000000000E+02 0.  1.
    -200000    1    3    3    0    0  0.33967963833E+03  0.29571274861E+02  0.61205237851E+03  0.70786003633E+03  0.10100000000E+03 0. -1.
<mgrwt>
<rscale>  0 0.15677341E+04</rscale>
<asrwt>0</asrwt>
<pdfrwt beam="1">  1        2 0.29195932E+00 0.15677341E+04</pdfrwt>
<pdfrwt beam="2">  1       -2 0.42950316E-01 0.15677341E+04</pdfrwt>
<totfact> 0.37698301E+01</totfact>
</mgrwt>
</event>
<event>
 8    2  0.7237260E-052  0.1460441E+04  0.7818608E-02  0.8911194E-01
          2   -1    0    0  501    0  0.00000000000E+00  0.00000000000E+00  0.10740271983E+04  0.10740271983E+04  0.25500000000E-02 0.  1.
         -2   -1    0    0    0  501 -0.00000000000E+00 -0.00000000000E+00 -0.49646979743E+03  0.49646979744E+03  0.25500000000E-02 0. -1.
    -200001    2    1    2    0    0 -0.33448138850E+03 -0.12403606609E+03  0.47404061109E+03  0.85373520081E+03  0.61391086259E+03 0.  0.
   -5000001    2    3    3    0    0 -0.32450886993E+03 -0.31391061868E+03  0.44045403947E+03  0.63583418053E+03  0.80246252585E+02 0.  0.
     200001    1    1    2    0    0  0.33448138850E+03  0.12403606609E+03  0.10351678982E+03  0.71676179496E+03  0.61300000000E+03 0. -1.
         11    1    4    4    0    0 -0.49332112143E+02 -0.82050722362E+02  0.11588754267E+03  0.15031932968E+03  0.51100000000E-03 0.  1.
    -200002    1    4    4    0    0 -0.27517675779E+03 -0.23185989632E+03  0.32456649680E+03  0.48551485085E+03  0.30000000000E+02 0.  1.
    -200000    1    3    3    0    0 -0.99725185708E+01  0.18987455259E+03  0.33586571613E+02  0.21790102029E+03  0.10100000000E+03 0. -1.
<mgrwt>
<rscale>  0 0.14604411E+04</rscale>
<asrwt>0</asrwt>
<pdfrwt beam="1">  1        2 0.15343246E+00 0.14604411E+04</pdfrwt>
<pdfrwt beam="2">  1       -2 0.70924256E-01 0.14604411E+04</pdfrwt>
<totfact> 0.44392638E+01</totfact>
</mgrwt>
</event>
<event>
 8    2  0.7237260E-052  0.1259122E+04  0.7818608E-02  0.9062625E-01
         -2   -1    0    0    0  501 -0.00000000000E+00  0.00000000000E+00  0.25574308735E+03  0.25574308736E+03  0.25500000000E-02 0. -1.
          2   -1    0    0  501    0  0.00000000000E+00 -0.00000000000E+00 -0.15497864971E+04  0.15497864971E+04  0.25500000000E-02 0.  1.
    -200001    2    1    2    0    0 -0.65728667372E+02  0.13649773029E+02 -0.45920089542E+03  0.76762901227E+03  0.61145912709E+03 0.  0.
   -5000001    2    3    3    0    0  0.14366526758E+03  0.16226534121E+03 -0.41209005879E+03  0.48771324274E+03  0.14517658392E+03 0.  0.
     200001    1    1    2    0    0  0.65728667372E+02 -0.13649773029E+02 -0.83484251430E+03  0.10379005722E+04  0.61300000000E+03 0.  1.
         11    1    4    4    0    0  0.12491858781E+03  0.52843837599E+02 -0.15432253995E+03  0.20545698111E+03  0.51100000000E-03 0.  1.
    -200002    1    4    4    0    0  0.18746679775E+02  0.10942150362E+03 -0.25776751885E+03  0.28225626163E+03  0.30000000000E+02 0.  1.
    -200000    1    3    3    0    0 -0.20939393495E+03 -0.14861556819E+03 -0.47110836629E+02  0.27991576953E+03  0.10100000000E+03 0. -1.
<mgrwt>
<rscale>  0 0.12591222E+04</rscale>
<asrwt>0</asrwt>
<pdfrwt beam="1">  1        2 0.22139807E+00 0.12591222E+04</pdfrwt>
<pdfrwt beam="2">  1       -2 0.36534728E-01 0.12591222E+04</pdfrwt>
<totfact> 0.95325898E+01</totfact>
</mgrwt>
</event>
<event>
 8    2  0.7237260E-052  0.1760542E+04  0.7818608E-02  0.8727569E-01
         -2   -1    0    0    0  501 -0.00000000000E+00  0.00000000000E+00  0.25880752759E+03  0.25880752760E+03  0.25500000000E-02 0. -1.
          2   -1    0    0  501    0  0.00000000000E+00 -0.00000000000E+00 -0.29940280456E+04  0.29940280456E+04  0.25500000000E-02 0.  1.
    -200001    2    1    2    0    0 -0.59265838301E+03  0.15469307017E+03 -0.16557060307E+04  0.18685327041E+04  0.61227289793E+03 0.  0.
   -5000001    2    3    3    0    0 -0.30942096059E+03 -0.35630527662E+02 -0.13827679203E+04  0.14200433270E+04  0.86400599926E+02 0.  0.
     200001    1    1    2    0    0  0.59265838301E+03 -0.15469307017E+03 -0.10795144873E+04  0.13843028690E+04  0.61300000000E+03 0. -1.
         11    1    4    4    0    0 -0.46509679689E+02 -0.34792602773E+02 -0.28144890785E+03  0.28737982400E+03  0.51100000000E-03 0.  1.
    -200002    1    4    4    0    0 -0.26291128090E+03 -0.83792488884E+00 -0.11013190125E+04  0.11326635030E+04  0.30000000000E+02 0.  1.
    -200000    1    3    3    0    0 -0.28323742242E+03  0.19032359783E+03 -0.27293811036E+03  0.44848937717E+03  0.10100000000E+03 0. -1.
<mgrwt>
<rscale>  0 0.17605420E+04</rscale>
<asrwt>0</asrwt>
<pdfrwt beam="1">  1        2 0.42771827E+00 0.17605420E+04</pdfrwt>
<pdfrwt beam="2">  1       -2 0.36972506E-01 0.17605420E+04</pdfrwt>
<totfact> 0.15594991E+01</totfact>
</mgrwt>
</event>
<event>
 8    2  0.7237260E-052  0.1529236E+04  0.7818608E-02  0.8865240E-01
          2   -1    0    0  501    0  0.00000000000E+00  0.00000000000E+00  0.26447584375E+04  0.26447584375E+04  0.25500000000E-02 0.  1.
         -2   -1    0    0    0  501 -0.00000000000E+00 -0.00000000000E+00 -0.22105649970E+03  0.22105649971E+03  0.25500000000E-02 0. -1.
    -200001    2    1    2    0    0  0.17151162948E+03  0.37765885404E+03  0.85478811313E+03  0.11310809408E+04  0.61370915522E+03 0.  0.
   -5000001    2    3    3    0    0 -0.17429897194E+03  0.26314457308E+01  0.37671906711E+03  0.42469468541E+03  0.89784543051E+02 0.  0.
     200001    1    1    2    0    0 -0.17151162948E+03 -0.37765885404E+03  0.15689138247E+04  0.17347339964E+04  0.61300000000E+03 0. -1.
         11    1    4    4    0    0 -0.14003168552E+03 -0.18862206071E+02  0.23399932324E+03  0.27335021318E+03  0.51100000000E-03 0.  1.
    -200002    1    4    4    0    0 -0.34267286413E+02  0.21493651801E+02  0.14271974387E+03  0.15134447223E+03  0.30000000000E+02 0.  1.
    -200000    1    3    3    0    0  0.34581060142E+03  0.37502740830E+03  0.47806904603E+03  0.70638625539E+03  0.10100000000E+03 0.  1.
<mgrwt>
<rscale>  0 0.15292365E+04</rscale>
<asrwt>0</asrwt>
<pdfrwt beam="1">  1        2 0.37782264E+00 0.15292365E+04</pdfrwt>
<pdfrwt beam="2">  1       -2 0.31579500E-01 0.15292365E+04</pdfrwt>
<totfact> 0.33270978E+01</totfact>
</mgrwt>
</event>
<event>
 8    2  0.7237260E-052  0.3119578E+04  0.7818608E-02  0.8210385E-01
          2   -1    0    0  501    0  0.00000000000E+00  0.00000000000E+00  0.12046836289E+04  0.12046836289E+04  0.25500000000E-02 0. -1.
         -2   -1    0    0    0  501 -0.00000000000E+00 -0.00000000000E+00 -0.20195694880E+04  0.20195694880E+04  0.25500000000E-02 0.  1.
    -200001    2    1    2    0    0 -0.12197038505E+03 -0.38158977275E+03 -0.18309686256E+04  0.19717832698E+04  0.61236886382E+03 0.  0.
   -5000001    2    3    3    0    0 -0.29003341899E+03 -0.18690793729E+03 -0.13265073423E+04  0.13966064388E+04  0.26801838506E+03 0.  0.
     200001    1    1    2    0    0  0.12197038505E+03  0.38158977275E+03  0.10160827665E+04  0.12524698471E+04  0.61300000000E+03 0. -1.
         11    1    4    4    0    0 -0.33145918129E+03 -0.12832486265E+03 -0.10111258352E+04  0.10717779219E+04  0.51100000000E-03 0.  1.
    -200002    1    4    4    0    0  0.41425762299E+02 -0.58583074642E+02 -0.31538150710E+03  0.32482851697E+03  0.30000000000E+02 0.  1.
    -200000    1    3    3    0    0  0.16806303394E+03 -0.19468183546E+03 -0.50446128334E+03  0.57517683092E+03  0.10100000000E+03 0. -1.
<mgrwt>
<rscale>  0 0.31195784E+04</rscale>
<asrwt>0</asrwt>
<pdfrwt beam="1">  1        2 0.17209766E+00 0.31195784E+04</pdfrwt>
<pdfrwt beam="2">  1       -2 0.28850993E+00 0.31195784E+04</pdfrwt>
<totfact> 0.67754401E-01</totfact>
</mgrwt>
</event>
<event>
 8    2  0.7237260E-052  0.1334881E+04  0.7818608E-02  0.9002353E-01
          2   -1    0    0  501    0  0.00000000000E+00  0.00000000000E+00  0.12627033107E+04  0.12627033107E+04  0.25500000000E-02 0.  1.
         -2   -1    0    0    0  501 -0.00000000000E+00 -0.00000000000E+00 -0.35279610541E+03  0.35279610542E+03  0.25500000000E-02 0. -1.
    -200001    2    1    2    0    0  0.32970118140E+02  0.11748341963E+03  0.73847580153E+03  0.96738900212E+03  0.61286669790E+03 0.  0.
   -5000001    2    3    3    0    0 -0.71409032678E+02 -0.21976538968E+03  0.19655311199E+03  0.31277998297E+03  0.76171618500E+02 0.  0.
     200001    1    1    2    0    0 -0.32970118140E+02 -0.11748341963E+03  0.17143140379E+03  0.64811041404E+03  0.61300000000E+03 0. -1.
         11    1    4    4    0    0 -0.54974541243E+02 -0.13956425149E+03  0.15666793639E+03  0.21689910735E+03  0.51100000000E-03 0.  1.
    -200002    1    4    4    0    0 -0.16434491435E+02 -0.80201138195E+02  0.39885175596E+02  0.95880875616E+02  0.30000000000E+02 0. -1.
    -200000    1    3    3    0    0  0.10437915082E+03  0.33724880931E+03  0.54192268954E+03  0.65460901915E+03  0.10100000000E+03 0.  1.
<mgrwt>
<rscale>  0 0.13348810E+04</rscale>
<asrwt>0</asrwt>
<pdfrwt beam="1">  1        2 0.18038619E+00 0.13348810E+04</pdfrwt>
<pdfrwt beam="2">  1       -2 0.50399443E-01 0.13348810E+04</pdfrwt>
<totfact> 0.71737665E+01</totfact>
</mgrwt>
</event>
<event>
 8    2  0.7237260E-052  0.1328234E+04  0.7818608E-02  0.9007470E-01
         -2   -1    0    0    0  501 -0.00000000000E+00  0.00000000000E+00  0.16799664906E+03  0.16799664908E+03  0.25500000000E-02 0. -1.
          2   -1    0    0  501    0  0.00000000000E+00 -0.00000000000E+00 -0.26253575168E+04  0.26253575168E+04  0.25500000000E-02 0.  1.
    -200001    2    1    2    0    0  0.10852059103E+03  0.11409037195E+03 -0.80379624412E+03  0.10228067093E+04  0.61257802017E+03 0.  0.
   -5000001    2    3    3    0    0  0.22648430518E+03  0.27717318813E+03 -0.65896389242E+03  0.75505896811E+03  0.88093797164E+02 0.  0.
     200001    1    1    2    0    0 -0.10852059103E+03 -0.11409037195E+03 -0.16535646236E+04  0.17705474566E+04  0.61300000000E+03 0.  1.
         11    1    4    4    0    0  0.14754498928E+03  0.22563749995E+03 -0.48951504796E+03  0.55884415307E+03  0.51100000000E-03 0.  1.
    -200002    1    4    4    0    0  0.78939315904E+02  0.51535688188E+02 -0.16944884446E+03  0.19621481504E+03  0.30000000000E+02 0.  1.
    -200000    1    3    3    0    0 -0.11796371415E+03 -0.16308281619E+03 -0.14483235171E+03  0.26774774115E+03  0.10100000000E+03 0. -1.
<mgrwt>
<rscale>  0 0.13282338E+04</rscale>
<asrwt>0</asrwt>
<pdfrwt beam="1">  1        2 0.37505105E+00 0.13282338E+04</pdfrwt>
<pdfrwt beam="2">  1       -2 0.23999523E-01 0.13282338E+04</pdfrwt>
<totfact> 0.57402613E+01</totfact>
</mgrwt>
</event>
<event>
 8    2  0.7237260E-052  0.1395029E+04  0.7818608E-02  0.8957425E-01
         -2   -1    0    0    0  501 -0.00000000000E+00  0.00000000000E+00  0.16959924538E+03  0.16959924540E+03  0.25500000000E-02 0.  1.
          2   -1    0    0  501    0  0.00000000000E+00 -0.00000000000E+00 -0.28686831832E+04  0.28686831832E+04  0.25500000000E-02 0. -1.
    -200001    2    1    2    0    0  0.25476566765E+03 -0.95440452910E+02 -0.17668874342E+04  0.18899036815E+04  0.61304999367E+03 0.  0.
   -5000001    2    3    3    0    0  0.12953893872E+03  0.19394101487E+03 -0.31502592470E+03  0.40076761979E+03  0.83545783501E+02 0.  0.
     200001    1    1    2    0    0 -0.25476566765E+03  0.95440452910E+02 -0.93219650366E+03  0.11483787471E+04  0.61300000000E+03 0.  1.
         11    1    4    4    0    0  0.12140865202E+02  0.72137158342E+02 -0.68052147139E+02  0.99911285408E+02  0.51100000000E-03 0.  1.
    -200002    1    4    4    0    0  0.11739807352E+03  0.12180385653E+03 -0.24697377757E+03  0.30085633438E+03  0.30000000000E+02 0.  1.
    -200000    1    3    3    0    0  0.12522672892E+03 -0.28938146778E+03 -0.14518615095E+04  0.14891360617E+04  0.10100000000E+03 0. -1.
<mgrwt>
<rscale>  0 0.13950290E+04</rscale>
<asrwt>0</asrwt>
<pdfrwt beam="1">  1        2 0.40981185E+00 0.13950290E+04</pdfrwt>
<pdfrwt beam="2">  1       -2 0.24228465E-01 0.13950290E+04</pdfrwt>
<totfact> 0.41511796E+01</totfact>
</mgrwt>
</event>
<event>
 8    2  0.7237260E-052  0.1785596E+04  0.7818608E-02  0.8713997E-01
         -2   -1    0    0    0  501 -0.00000000000E+00  0.00000000000E+00  0.82215142127E+03  0.82215142127E+03  0.25500000000E-02 0. -1.
          2   -1    0    0  501    0  0.00000000000E+00 -0.00000000000E+00 -0.96951533516E+03  0.96951533517E+03  0.25500000000E-02 0.  1.
    -200001    2    1    2    0    0  0.13650876259E+03  0.44855171086E+03 -0.52440362687E+03  0.93273647712E+03  0.61250705489E+03 0.  0.
   -5000001    2    3    3    0    0 -0.84991027125E+01 -0.88390727557E+02 -0.30461061335E+03  0.32623467830E+03  0.75870179241E+02 0.  0.
     200001    1    1    2    0    0 -0.13650876259E+03 -0.44855171086E+03  0.37703971297E+03  0.85893027932E+03  0.61300000000E+03 0. -1.
         11    1    4    4    0    0 -0.11509869401E+02  0.69937822607E+01 -0.16785430834E+02  0.21520705669E+02  0.51100000000E-03 0.  1.
    -200002    1    4    4    0    0  0.30107666885E+01 -0.95384509818E+02 -0.28782518251E+03  0.30471397263E+03  0.30000000000E+02 0.  1.
    -200000    1    3    3    0    0  0.14500786530E+03  0.53694243842E+03 -0.21979301352E+03  0.60650179882E+03  0.10100000000E+03 0.  1.
<mgrwt>
<rscale>  0 0.17855962E+04</rscale>
<asrwt>0</asrwt>
<pdfrwt beam="1">  1        2 0.13850219E+00 0.17855962E+04</pdfrwt>
<pdfrwt beam="2">  1       -2 0.11745020E+00 0.17855962E+04</pdfrwt>
<totfact> 0.15579277E+01</totfact>
</mgrwt>
</event>
<event>
 8    2  0.7237260E-052  0.1958837E+04  0.7818608E-02  0.8626111E-01
         -2   -1    0    0    0  501 -0.00000000000E+00  0.00000000000E+00  0.52401653235E+03  0.52401653235E+03  0.25500000000E-02 0. -1.
          2   -1    0    0  501    0  0.00000000000E+00 -0.00000000000E+00 -0.18305918537E+04  0.18305918537E+04  0.25500000000E-02 0.  1.
    -200001    2    1    2    0    0  0.69217382901E+03 -0.30820107123E+03 -0.53778055159E+03  0.11132756717E+04  0.61325548473E+03 0.  0.
   -5000001    2    3    3    0    0  0.16313634829E+03 -0.26160638302E+03  0.39564256474E+02  0.32233967654E+03  0.85359058748E+02 0.  0.
     200001    1    1    2    0    0 -0.69217382901E+03  0.30820107123E+03 -0.76879476981E+03  0.12413327144E+04  0.61300000000E+03 0.  1.
         11    1    4    4    0    0 -0.26000539933E+01 -0.10887456191E+01  0.10370267606E+02  0.10746538898E+02  0.51100000000E-03 0.  1.
    -200002    1    4    4    0    0  0.16573640229E+03 -0.26051763740E+03  0.29193988868E+02  0.31159313764E+03  0.30000000000E+02 0.  1.
    -200000    1    3    3    0    0  0.52903748072E+03 -0.46594688210E+02 -0.57734480806E+03  0.79093599512E+03  0.10100000000E+03 0.  1.
<mgrwt>
<rscale>  0 0.19588368E+04</rscale>
<asrwt>0</asrwt>
<pdfrwt beam="1">  1        2 0.26151312E+00 0.19588368E+04</pdfrwt>
<pdfrwt beam="2">  1       -2 0.74859506E-01 0.19588368E+04</pdfrwt>
<totfact> 0.14720073E+01</totfact>
</mgrwt>
</event>
<event>
 8    2  0.7237260E-052  0.1700096E+04  0.7818608E-02  0.8761310E-01
         -2   -1    0    0    0  501 -0.00000000000E+00  0.00000000000E+00  0.20744126531E+03  0.20744126532E+03  0.25500000000E-02 0. -1.
          2   -1    0    0  501    0  0.00000000000E+00 -0.00000000000E+00 -0.34833070980E+04  0.34833070980E+04  0.25500000000E-02 0.  1.
    -200001    2    1    2    0    0  0.26281517301E+03  0.14092977825E+03 -0.53492057275E+03  0.86630453567E+03  0.61270752551E+03 0.  0.
   -5000001    2    3    3    0    0  0.49619628796E+02  0.42549882534E+02 -0.59512907798E+03  0.60370787147E+03  0.77536923791E+02 0.  0.
     200001    1    1    2    0    0 -0.26281517301E+03 -0.14092977825E+03 -0.27409452599E+04  0.28244438276E+04  0.61300000000E+03 0.  1.
         11    1    4    4    0    0  0.14325337486E+02 -0.18120060750E+02 -0.19497478301E+03  0.19633827418E+03  0.51100000000E-03 0.  1.
    -200002    1    4    4    0    0  0.35294291309E+02  0.60669943284E+02 -0.40015429496E+03  0.40736959729E+03  0.30000000000E+02 0.  1.
    -200000    1    3    3    0    0  0.21319554421E+03  0.98379895714E+02  0.60208505222E+02  0.26259666421E+03  0.10100000000E+03 0. -1.
<mgrwt>
<rscale>  0 0.17000960E+04</rscale>
<asrwt>0</asrwt>
<pdfrwt beam="1">  1        2 0.49761526E+00 0.17000960E+04</pdfrwt>
<pdfrwt beam="2">  1       -2 0.29634469E-01 0.17000960E+04</pdfrwt>
<totfact> 0.12396706E+01</totfact>
</mgrwt>
</event>
<event>
 8    2  0.7237260E-052  0.1388560E+04  0.7818608E-02  0.8962141E-01
         -2   -1    0    0    0  501 -0.00000000000E+00  0.00000000000E+00  0.10885899695E+04  0.10885899695E+04  0.25500000000E-02 0. -1.
          2   -1    0    0  501    0  0.00000000000E+00 -0.00000000000E+00 -0.44279728486E+03  0.44279728486E+03  0.25500000000E-02 0.  1.
    -200001    2    1    2    0    0  0.20492709394E+03 -0.25156845281E+03  0.21322741543E+03  0.71397456029E+03  0.59917605241E+03 0.  0.
   -5000001    2    3    3    0    0 -0.11622803160E+03 -0.17003242206E+03  0.27159091623E+03  0.36269683940E+03  0.12396528405E+03 0.  0.
     200001    1    1    2    0    0 -0.20492709394E+03  0.25156845281E+03  0.43256526919E+03  0.81741269405E+03  0.61300000000E+03 0.  1.
         11    1    4    4    0    0 -0.35504701330E+02 -0.57296110067E+02  0.14327474734E+02  0.68910845140E+02  0.51100000000E-03 0.  1.
    -200002    1    4    4    0    0 -0.80723330268E+02 -0.11273631199E+03  0.25726344150E+03  0.29378599426E+03  0.30000000000E+02 0.  1.
    -200000    1    3    3    0    0  0.32115512554E+03 -0.81536030749E+02 -0.58363500807E+02  0.35127772089E+03  0.10100000000E+03 0.  1.
<mgrwt>
<rscale>  0 0.13885599E+04</rscale>
<asrwt>0</asrwt>
<pdfrwt beam="1">  1        2 0.63256755E-01 0.13885599E+04</pdfrwt>
<pdfrwt beam="2">  1       -2 0.15551285E+00 0.13885599E+04</pdfrwt>
<totfact> 0.20454695E+01</totfact>
</mgrwt>
</event>
<event>
 8    2  0.7237260E-052  0.1771184E+04  0.7818608E-02  0.8721775E-01
         -2   -1    0    0    0  501 -0.00000000000E+00  0.00000000000E+00  0.79319842225E+03  0.79319842226E+03  0.25500000000E-02 0. -1.
          2   -1    0    0  501    0  0.00000000000E+00 -0.00000000000E+00 -0.98874832960E+03  0.98874832960E+03  0.25500000000E-02 0.  1.
    -200001    2    1    2    0    0  0.26307155122E+03 -0.54071838792E+03 -0.31642578334E+03  0.91478875386E+03  0.61247871124E+03 0.  0.
   -5000001    2    3    3    0    0  0.28969783779E+03 -0.44956190013E+03 -0.43300187635E+03  0.73365496390E+03  0.25441745588E+03 0.  0.
     200001    1    1    2    0    0 -0.26307155122E+03  0.54071838792E+03  0.12087587599E+03  0.86715799800E+03  0.61300000000E+03 0.  1.
         11    1    4    4    0    0  0.22204367630E+03 -0.24252099827E+03 -0.38912577181E+03  0.50944940384E+03  0.51100000000E-03 0.  1.
    -200002    1    4    4    0    0  0.67654161485E+02 -0.20704090187E+03 -0.43876104548E+02  0.22420556006E+03  0.30000000000E+02 0.  1.
    -200000    1    3    3    0    0 -0.26626286569E+02 -0.91156487790E+02  0.11657609302E+03  0.18113378996E+03  0.10100000000E+03 0. -1.
<mgrwt>
<rscale>  0 0.17711845E+04</rscale>
<asrwt>0</asrwt>
<pdfrwt beam="1">  1        2 0.14124976E+00 0.17711845E+04</pdfrwt>
<pdfrwt beam="2">  1       -2 0.11331406E+00 0.17711845E+04</pdfrwt>
<totfact> 0.16560372E+01</totfact>
</mgrwt>
</event>
<event>
 8    2  0.7237260E-052  0.1661082E+04  0.7818608E-02  0.8783877E-01
         -2   -1    0    0    0  501 -0.00000000000E+00  0.00000000000E+00  0.26851019912E+03  0.26851019913E+03  0.25500000000E-02 0. -1.
          2   -1    0    0  501    0  0.00000000000E+00 -0.00000000000E+00 -0.25689830846E+04  0.25689830846E+04  0.25500000000E-02 0.  1.
    -200001    2    1    2    0    0 -0.14382933817E+03 -0.29282444321E+03 -0.37198515270E+03  0.78779404517E+03  0.61303627194E+03 0.  0.
   -5000001    2    3    3    0    0 -0.13407698343E+01  0.89613068130E+02  0.87830861226E+02  0.16474251532E+03  0.10674051024E+03 0.  0.
     200001    1    1    2    0    0  0.14382933817E+03  0.29282444321E+03 -0.19284877328E+04  0.20496992386E+04  0.61300000000E+03 0.  1.
         11    1    4    4    0    0  0.23852225375E+02  0.96663548699E+02  0.63599388638E+02  0.11814250944E+03  0.51100000000E-03 0.  1.
    -200002    1    4    4    0    0 -0.25192995209E+02 -0.70504805690E+01  0.24231472588E+02  0.46600005876E+02  0.30000000000E+02 0. -1.
    -200000    1    3    3    0    0 -0.14248856833E+03 -0.38243751134E+03 -0.45981601393E+03  0.62305152985E+03  0.10100000000E+03 0. -1.
<mgrwt>
<rscale>  0 0.16610818E+04</rscale>
<asrwt>0</asrwt>
<pdfrwt beam="1">  1        2 0.36699757E+00 0.16610818E+04</pdfrwt>
<pdfrwt beam="2">  1       -2 0.38358601E-01 0.16610818E+04</pdfrwt>
<totfact> 0.24905608E+01</totfact>
</mgrwt>
</event>
<event>
 8    2  0.7237260E-052  0.1481163E+04  0.7818608E-02  0.8897077E-01
         -2   -1    0    0    0  501 -0.00000000000E+00  0.00000000000E+00  0.42257314331E+03  0.42257314332E+03  0.25500000000E-02 0. -1.
          2   -1    0    0  501    0  0.00000000000E+00 -0.00000000000E+00 -0.12979081110E+04  0.12979081110E+04  0.25500000000E-02 0.  1.
    -200001    2    1    2    0    0 -0.11598190358E+03  0.29937287317E+03 -0.74452828389E+03  0.10162403100E+04  0.61265494610E+03 0.  0.
   -5000001    2    3    3    0    0 -0.28138785651E+03  0.13236139422E+03 -0.12713071792E+03  0.34793445348E+03  0.90540046428E+02 0.  0.
     200001    1    1    2    0    0  0.11598190358E+03 -0.29937287317E+03 -0.13080668380E+03  0.70424094433E+03  0.61300000000E+03 0. -1.
         11    1    4    4    0    0 -0.12173277812E+03  0.85687730622E+02 -0.26446836016E+02  0.15119752505E+03  0.51100000000E-03 0.  1.
    -200002    1    4    4    0    0 -0.15965507840E+03  0.46673663597E+02 -0.10068388190E+03  0.19673692843E+03  0.30000000000E+02 0.  1.
    -200000    1    3    3    0    0  0.16540595293E+03  0.16701147895E+03 -0.61739756597E+03  0.66830585650E+03  0.10100000000E+03 0.  1.
<mgrwt>
<rscale>  0 0.14811632E+04</rscale>
<asrwt>0</asrwt>
<pdfrwt beam="1">  1        2 0.18541544E+00 0.14811632E+04</pdfrwt>
<pdfrwt beam="2">  1       -2 0.60367592E-01 0.14811632E+04</pdfrwt>
<totfact> 0.46633303E+01</totfact>
</mgrwt>
</event>
<event>
 8    2  0.7237260E-052  0.1632965E+04  0.7818608E-02  0.8800549E-01
         -2   -1    0    0    0  501 -0.00000000000E+00  0.00000000000E+00  0.15376433085E+03  0.15376433087E+03  0.25500000000E-02 0. -1.
          2   -1    0    0  501    0  0.00000000000E+00 -0.00000000000E+00 -0.43354872237E+04  0.43354872237E+04  0.25500000000E-02 0.  1.
    -200001    2    1    2    0    0 -0.38470614513E+03  0.27926746875E+03 -0.27785547675E+04  0.28859303374E+04  0.61825413828E+03 0.  0.
   -5000001    2    3    3    0    0 -0.21262710980E+03  0.42685173927E+03 -0.13208918339E+04  0.14072909158E+04  0.91103181549E+02 0.  0.
     200001    1    1    2    0    0  0.38470614513E+03 -0.27926746875E+03 -0.14031681253E+04  0.16033212171E+04  0.61300000000E+03 0. -1.
         11    1    4    4    0    0 -0.15529292962E+03  0.29070358324E+03 -0.80585814651E+03  0.87065022805E+03  0.51100000000E-03 0.  1.
    -200002    1    4    4    0    0 -0.57334180181E+02  0.13614815603E+03 -0.51503368737E+03  0.53664068774E+03  0.30000000000E+02 0. -1.
    -200000    1    3    3    0    0 -0.17207903533E+03 -0.14758427053E+03 -0.14576629336E+04  0.14786394217E+04  0.10100000000E+03 0.  1.
<mgrwt>
<rscale>  0 0.16329645E+04</rscale>
<asrwt>0</asrwt>
<pdfrwt beam="1">  1        2 0.61935525E+00 0.16329645E+04</pdfrwt>
<pdfrwt beam="2">  1       -2 0.21966336E-01 0.16329645E+04</pdfrwt>
<totfact> 0.57667128E+00</totfact>
</mgrwt>
</event>
<event>
 8    2  0.7237260E-052  0.2526694E+04  0.7818608E-02  0.8393537E-01
         -2   -1    0    0    0  501 -0.00000000000E+00  0.00000000000E+00  0.80924986210E+03  0.80924986211E+03  0.25500000000E-02 0. -1.
          2   -1    0    0  501    0  0.00000000000E+00 -0.00000000000E+00 -0.19722530489E+04  0.19722530489E+04  0.25500000000E-02 0.  1.
    -200001    2    1    2    0    0 -0.19754882276E+03 -0.53771302460E+02 -0.17765138825E+04  0.18903905365E+04  0.61290938582E+03 0.  0.
   -5000001    2    3    3    0    0  0.19375596019E+02 -0.27810010374E+03 -0.60921083655E+03  0.67788197332E+03  0.10330075011E+03 0.  0.
     200001    1    1    2    0    0  0.19754882276E+03  0.53771302460E+02  0.61351069571E+03  0.89111237456E+03  0.61300000000E+03 0. -1.
         11    1    4    4    0    0  0.34832764502E+02 -0.62125279203E+02 -0.91800875898E+02  0.11619067353E+03  0.51100000000E-03 0.  1.
    -200002    1    4    4    0    0 -0.15457168483E+02 -0.21597482453E+03 -0.51740996065E+03  0.56169129980E+03  0.30000000000E+02 0.  1.
    -200000    1    3    3    0    0 -0.21692441878E+03  0.22432880128E+03 -0.11673030460E+04  0.12125085632E+04  0.10100000000E+03 0.  1.
<mgrwt>
<rscale>  0 0.25266939E+04</rscale>
<asrwt>0</asrwt>
<pdfrwt beam="1">  1        2 0.28175043E+00 0.25266939E+04</pdfrwt>
<pdfrwt beam="2">  1       -2 0.11560712E+00 0.25266939E+04</pdfrwt>
<totfact> 0.43220417E+00</totfact>
</mgrwt>
</event>
<event>
 8    2  0.7237260E-052  0.1733423E+04  0.7818608E-02  0.8742528E-01
          2   -1    0    0  501    0  0.00000000000E+00  0.00000000000E+00  0.85056100701E+03  0.85056100702E+03  0.25500000000E-02 0.  1.
         -2   -1    0    0    0  501 -0.00000000000E+00 -0.00000000000E+00 -0.88316858051E+03  0.88316858051E+03  0.25500000000E-02 0. -1.
    -200001    2    1    2    0    0 -0.15771008279E+03 -0.37951371031E+03  0.43856780850E+03  0.85812787035E+03  0.61248558571E+03 0.  0.
   -5000001    2    3    3    0    0 -0.27538678496E+03 -0.39134824611E+03  0.23365993889E+03  0.60088071779E+03  0.27833314375E+03 0.  0.
     200001    1    1    2    0    0  0.15771008279E+03  0.37951371031E+03 -0.47117538199E+03  0.87560171718E+03  0.61300000000E+03 0. -1.
         11    1    4    4    0    0 -0.22210231751E+03 -0.23004619172E+03  0.11981237692E+02  0.31999099961E+03  0.51100000000E-03 0.  1.
    -200002    1    4    4    0    0 -0.53284467450E+02 -0.16130205439E+03  0.22167870119E+03  0.28088971819E+03  0.30000000000E+02 0.  1.
    -200000    1    3    3    0    0  0.11767670217E+03  0.11834535802E+02  0.20490786961E+03  0.25724715256E+03  0.10100000000E+03 0. -1.
<mgrwt>
<rscale>  0 0.17334229E+04</rscale>
<asrwt>0</asrwt>
<pdfrwt beam="1">  1        2 0.12150872E+00 0.17334229E+04</pdfrwt>
<pdfrwt beam="2">  1       -2 0.12616694E+00 0.17334229E+04</pdfrwt>
<totfact> 0.15637564E+01</totfact>
</mgrwt>
</event>
<event>
 8    2  0.7237260E-052  0.1770772E+04  0.7818608E-02  0.8721999E-01
          2   -1    0    0  501    0  0.00000000000E+00  0.00000000000E+00  0.48537931094E+04  0.48537931094E+04  0.25500000000E-02 0.  1.
         -2   -1    0    0    0  501 -0.00000000000E+00 -0.00000000000E+00 -0.16150426360E+03  0.16150426362E+03  0.25500000000E-02 0. -1.
    -200001    2    1    2    0    0  0.49581075633E+03  0.33341906490E+03  0.17032143883E+04  0.19060640766E+04  0.61249035317E+03 0.  0.
   -5000001    2    3    3    0    0  0.28649251507E+03  0.47088661539E+03  0.13574754093E+04  0.14673752403E+04  0.81476641097E+02 0.  0.
     200001    1    1    2    0    0 -0.49581075633E+03 -0.33341906490E+03  0.29890744575E+04  0.31092332964E+04  0.61300000000E+03 0.  1.
         11    1    4    4    0    0  0.24725904049E+03  0.40956080414E+03  0.11708008182E+04  0.12647733557E+04  0.51100000000E-03 0.  1.
    -200002    1    4    4    0    0  0.39233474575E+02  0.61325811249E+02  0.18667459117E+03  0.20260188459E+03  0.30000000000E+02 0. -1.
    -200000    1    3    3    0    0  0.20931824127E+03 -0.13746755049E+03  0.34573897893E+03  0.43868883632E+03  0.10100000000E+03 0. -1.
<mgrwt>
<rscale>  0 0.17707719E+04</rscale>
<asrwt>0</asrwt>
<pdfrwt beam="1">  1        2 0.69339912E+00 0.17707719E+04</pdfrwt>
<pdfrwt beam="2">  1       -2 0.23072034E-01 0.17707719E+04</pdfrwt>
<totfact> 0.19501520E+00</totfact>
</mgrwt>
</event>
<event>
 8    2  0.7237260E-052  0.2756588E+04  0.7818608E-02  0.8316874E-01
          2   -1    0    0  501    0  0.00000000000E+00  0.00000000000E+00  0.22027041567E+04  0.22027041567E+04  0.25500000000E-02 0.  1.
         -2   -1    0    0    0  501 -0.00000000000E+00 -0.00000000000E+00 -0.86243721965E+03  0.86243721965E+03  0.25500000000E-02 0. -1.
    -200001    2    1    2    0    0  0.88765574271E+03 -0.66708315432E+03  0.70263465434E+02  0.12702568479E+04  0.61292972911E+03 0.  0.
   -5000001    2    3    3    0    0  0.81040783375E+02 -0.21745955194E+03 -0.15667644375E+03  0.31396620237E+03  0.14202465597E+03 0.  0.
     200001    1    1    2    0    0 -0.88765574271E+03  0.66708315432E+03  0.12700034716E+04  0.17948845284E+04  0.61300000000E+03 0.  1.
         11    1    4    4    0    0  0.10397182098E+03 -0.20513858946E+03 -0.11783843224E+03  0.25841415704E+03  0.51100000000E-03 0.  1.
    -200002    1    4    4    0    0 -0.22931037608E+02 -0.12320962476E+02 -0.38838011506E+02  0.55552045326E+02  0.30000000000E+02 0.  1.
    -200000    1    3    3    0    0  0.80661495934E+03 -0.44962360238E+03  0.22693990918E+03  0.95629064558E+03  0.10100000000E+03 0. -1.
<mgrwt>
<rscale>  0 0.27565878E+04</rscale>
<asrwt>0</asrwt>
<pdfrwt beam="1">  1        2 0.31467202E+00 0.27565878E+04</pdfrwt>
<pdfrwt beam="2">  1       -2 0.12320532E+00 0.27565878E+04</pdfrwt>
<totfact> 0.27561627E+00</totfact>
</mgrwt>
</event>
<event>
 8    2  0.7237260E-052  0.1320911E+04  0.7818608E-02  0.9013145E-01
         -2   -1    0    0    0  501 -0.00000000000E+00  0.00000000000E+00  0.10376901269E+03  0.10376901273E+03  0.25500000000E-02 0. -1.
          2   -1    0    0  501    0  0.00000000000E+00 -0.00000000000E+00 -0.42035815047E+04  0.42035815047E+04  0.25500000000E-02 0.  1.
    -200001    2    1    2    0    0 -0.16485022002E+02  0.12745640359E+03 -0.13465309240E+04  0.14837277941E+04  0.60974236119E+03 0.  0.
   -5000001    2    3    3    0    0  0.79813435650E+02  0.31649997190E+03 -0.10687610078E+04  0.11199036745E+04  0.73428412037E+02 0.  0.
     200001    1    1    2    0    0  0.16485022002E+02 -0.12745640359E+03 -0.27532815680E+04  0.28236227233E+04  0.61300000000E+03 0.  1.
         11    1    4    4    0    0  0.30966260237E+02  0.74060775520E+02 -0.18421776035E+03  0.20094798076E+03  0.51100000000E-03 0.  1.
    -200002    1    4    4    0    0  0.48847175412E+02  0.24243919638E+03 -0.88454324744E+03  0.91895569376E+03  0.30000000000E+02 0.  1.
    -200000    1    3    3    0    0 -0.96298457651E+02 -0.18904356831E+03 -0.27776991620E+03  0.36382411961E+03  0.10100000000E+03 0. -1.
<mgrwt>
<rscale>  0 0.13209111E+04</rscale>
<asrwt>0</asrwt>
<pdfrwt beam="1">  1        2 0.60051154E+00 0.13209111E+04</pdfrwt>
<pdfrwt beam="2">  1       -2 0.14824147E-01 0.13209111E+04</pdfrwt>
<totfact> 0.14785408E+01</totfact>
</mgrwt>
</event>
<event>
 8    2  0.7237260E-052  0.1612257E+04  0.7818608E-02  0.8813053E-01
          2   -1    0    0  501    0  0.00000000000E+00  0.00000000000E+00  0.11008285772E+04  0.11008285772E+04  0.25500000000E-02 0.  1.
         -2   -1    0    0    0  501 -0.00000000000E+00 -0.00000000000E+00 -0.59032175339E+03  0.59032175340E+03  0.25500000000E-02 0. -1.
    -200001    2    1    2    0    0  0.20785268915E+03  0.15066115124E+03 -0.22261733934E+03  0.70163450885E+03  0.61386560529E+03 0.  0.
   -5000001    2    3    3    0    0  0.26103554866E+02 -0.13513501036E+03  0.72485239863E+02  0.24120131494E+03  0.18433962604E+03 0.  0.
     200001    1    1    2    0    0 -0.20785268915E+03 -0.15066115124E+03  0.73312416311E+03  0.98951582171E+03  0.61300000000E+03 0.  1.
         11    1    4    4    0    0  0.49879056114E+02 -0.15214664565E+03  0.30904843589E+01  0.16014391376E+03  0.51100000000E-03 0.  1.
    -200002    1    4    4    0    0 -0.23775501248E+02  0.17011635285E+02  0.69394755504E+02  0.81057401180E+02  0.30000000000E+02 0.  1.
    -200000    1    3    3    0    0  0.18174913429E+03  0.28579616161E+03 -0.29510257920E+03  0.46043319391E+03  0.10100000000E+03 0. -1.
<mgrwt>
<rscale>  0 0.16122569E+04</rscale>
<asrwt>0</asrwt>
<pdfrwt beam="1">  1        2 0.15726123E+00 0.16122569E+04</pdfrwt>
<pdfrwt beam="2">  1       -2 0.84331679E-01 0.16122569E+04</pdfrwt>
<totfact> 0.28753485E+01</totfact>
</mgrwt>
</event>
<event>
 8    2  0.7237260E-052  0.1509836E+04  0.7818608E-02  0.8877938E-01
         -2   -1    0    0    0  501 -0.00000000000E+00  0.00000000000E+00  0.42751029558E+03  0.42751029559E+03  0.25500000000E-02 0. -1.
          2   -1    0    0  501    0  0.00000000000E+00 -0.00000000000E+00 -0.13330707816E+04  0.13330707816E+04  0.25500000000E-02 0.  1.
    -200001    2    1    2    0    0 -0.39667780145E+03  0.19382256834E+03 -0.45362528088E+03  0.88027721156E+03  0.61171202995E+03 0.  0.
   -5000001    2    3    3    0    0 -0.62704783237E+02 -0.18836108549E+03 -0.24265642759E+03  0.32142912916E+03  0.70871396561E+02 0.  0.
     200001    1    1    2    0    0  0.39667780145E+03 -0.19382256834E+03 -0.45193520510E+03  0.88030386559E+03  0.61300000000E+03 0. -1.
         11    1    4    4    0    0  0.57312825075E+01 -0.19772787560E+02 -0.53200851755E+02  0.57045081776E+02  0.51100000000E-03 0.  1.
    -200002    1    4    4    0    0 -0.68436065745E+02 -0.16858829793E+03 -0.18945557584E+03  0.26438404738E+03  0.30000000000E+02 0.  1.
    -200000    1    3    3    0    0 -0.33397301821E+03  0.38218365384E+03 -0.21096885328E+03  0.55884808241E+03  0.10100000000E+03 0. -1.
<mgrwt>
<rscale>  0 0.15098364E+04</rscale>
<asrwt>0</asrwt>
<pdfrwt beam="1">  1        2 0.19043868E+00 0.15098364E+04</pdfrwt>
<pdfrwt beam="2">  1       -2 0.61072900E-01 0.15098364E+04</pdfrwt>
<totfact> 0.43418004E+01</totfact>
</mgrwt>
</event>
<event>
 8    2  0.7237260E-052  0.2151318E+04  0.7818608E-02  0.8538968E-01
          2   -1    0    0  501    0  0.00000000000E+00  0.00000000000E+00  0.15001391944E+04  0.15001391944E+04  0.25500000000E-02 0.  1.
         -2   -1    0    0    0  501 -0.00000000000E+00 -0.00000000000E+00 -0.77129030696E+03  0.77129030696E+03  0.25500000000E-02 0. -1.
    -200001    2    1    2    0    0 -0.22376413903E+02 -0.71184445794E+02 -0.56557587357E+03  0.83724945997E+03  0.61281535575E+03 0.  0.
   -5000001    2    3    3    0    0  0.13683856341E+03 -0.72058005828E+02  0.49142276700E+02  0.19426456406E+03  0.10680172681E+03 0.  0.
     200001    1    1    2    0    0  0.22376413903E+02  0.71184445794E+02  0.12944247610E+04  0.14341800414E+04  0.61300000000E+03 0.  1.
         11    1    4    4    0    0  0.12300074740E+03 -0.80136335895E+02  0.17556043278E+02  0.14784867550E+03  0.51100000000E-03 0.  1.
    -200002    1    4    4    0    0  0.13837816011E+02  0.80783300670E+01  0.31586233422E+02  0.46415888556E+02  0.30000000000E+02 0.  1.
    -200000    1    3    3    0    0 -0.15921497731E+03  0.87356003415E+00 -0.61471815027E+03  0.64298489592E+03  0.10100000000E+03 0. -1.
<mgrwt>
<rscale>  0 0.21513185E+04</rscale>
<asrwt>0</asrwt>
<pdfrwt beam="1">  1        2 0.21430560E+00 0.21513185E+04</pdfrwt>
<pdfrwt beam="2">  1       -2 0.11018433E+00 0.21513185E+04</pdfrwt>
<totfact> 0.88192821E+00</totfact>
</mgrwt>
</event>
<event>
 8    2  0.7237260E-052  0.1371127E+04  0.7818608E-02  0.8974988E-01
         -2   -1    0    0    0  501 -0.00000000000E+00  0.00000000000E+00  0.27558470107E+03  0.27558470108E+03  0.25500000000E-02 0. -1.
          2   -1    0    0  501    0  0.00000000000E+00 -0.00000000000E+00 -0.17054549097E+04  0.17054549097E+04  0.25500000000E-02 0.  1.
    -200001    2    1    2    0    0  0.24978567678E+03  0.89517441158E+02 -0.93666085516E+03  0.11507199597E+04  0.61352800384E+03 0.  0.
   -5000001    2    3    3    0    0  0.25485304380E+02 -0.13302468435E+02  0.68184357463E+02  0.11110585236E+03  0.82879113298E+02 0.  0.
     200001    1    1    2    0    0 -0.24978567678E+03 -0.89517441158E+02 -0.49320935347E+03  0.83031965107E+03  0.61300000000E+03 0. -1.
         11    1    4    4    0    0  0.10063539127E+01  0.24985259042E+02  0.45899510617E+02  0.52268929516E+02  0.51100000000E-03 0.  1.
    -200002    1    4    4    0    0  0.24478950467E+02 -0.38287727476E+02  0.22284846845E+02  0.58836922848E+02  0.30000000000E+02 0.  1.
    -200000    1    3    3    0    0  0.22430037240E+03  0.10281990959E+03 -0.10048452126E+04  0.10396141073E+04  0.10100000000E+03 0.  1.
<mgrwt>
<rscale>  0 0.13711270E+04</rscale>
<asrwt>0</asrwt>
<pdfrwt beam="1">  1        2 0.24363641E+00 0.13711270E+04</pdfrwt>
<pdfrwt beam="2">  1       -2 0.39369244E-01 0.13711270E+04</pdfrwt>
<totfact> 0.67840178E+01</totfact>
</mgrwt>
</event>
<event>
 8    2  0.7237260E-052  0.2611652E+04  0.7818608E-02  0.8364254E-01
         -2   -1    0    0    0  501 -0.00000000000E+00  0.00000000000E+00  0.80451944928E+03  0.80451944929E+03  0.25500000000E-02 0. -1.
          2   -1    0    0  501    0  0.00000000000E+00 -0.00000000000E+00 -0.21195038803E+04  0.21195038803E+04  0.25500000000E-02 0.  1.
    -200001    2    1    2    0    0  0.73047678449E+02  0.10287264323E+04 -0.12344934117E+04  0.17215833768E+04  0.61340142145E+03 0.  0.
   -5000001    2    3    3    0    0  0.15792908972E+03  0.16532411845E+03 -0.58704381435E+03  0.63435736963E+03  0.74264196674E+02 0.  0.
     200001    1    1    2    0    0 -0.73047678449E+02 -0.10287264323E+04 -0.80491019291E+02  0.12024399528E+04  0.61300000000E+03 0. -1.
         11    1    4    4    0    0  0.52410556724E+02  0.15809944367E+02 -0.14514984864E+03  0.15512994346E+03  0.51100000000E-03 0.  1.
    -200002    1    4    4    0    0  0.10551853300E+03  0.14951417409E+03 -0.44189396572E+03  0.47922742617E+03  0.30000000000E+02 0.  1.
    -200000    1    3    3    0    0 -0.84881411273E+02  0.86340231386E+03 -0.64744959739E+03  0.10872260072E+04  0.10100000000E+03 0. -1.
<mgrwt>
<rscale>  0 0.26116524E+04</rscale>
<asrwt>0</asrwt>
<pdfrwt beam="1">  1        2 0.30278627E+00 0.26116524E+04</pdfrwt>
<pdfrwt beam="2">  1       -2 0.11493135E+00 0.26116524E+04</pdfrwt>
<totfact> 0.36558308E+00</totfact>
</mgrwt>
</event>
<event>
 8    2  0.7237260E-052  0.1302458E+04  0.7818608E-02  0.9027618E-01
         -2   -1    0    0    0  501 -0.00000000000E+00  0.00000000000E+00  0.69682657005E+03  0.69682657006E+03  0.25500000000E-02 0. -1.
          2   -1    0    0  501    0  0.00000000000E+00 -0.00000000000E+00 -0.60861544233E+03  0.60861544233E+03  0.25500000000E-02 0.  1.
    -200001    2    1    2    0    0 -0.55738332012E+02  0.15899671947E+02  0.25717504892E+03  0.66694583551E+03  0.61263217390E+03 0.  0.
   -5000001    2    3    3    0    0  0.19464022652E+03  0.19388378100E+03  0.16897391125E+03  0.33176199590E+03  0.77705218124E+02 0.  0.
     200001    1    1    2    0    0  0.55738332012E+02 -0.15899671947E+02 -0.16896392119E+03  0.63849617688E+03  0.61300000000E+03 0.  1.
         11    1    4    4    0    0  0.86841242865E+01  0.17154162439E+02  0.37029033614E+02  0.41723238540E+02  0.51100000000E-03 0.  1.
    -200002    1    4    4    0    0  0.18595610224E+03  0.17672961856E+03  0.13194487764E+03  0.29003875736E+03  0.30000000000E+02 0.  1.
    -200000    1    3    3    0    0 -0.25037855854E+03 -0.17798410906E+03  0.88201137665E+02  0.33518383961E+03  0.10100000000E+03 0. -1.
<mgrwt>
<rscale>  0 0.13024583E+04</rscale>
<asrwt>0</asrwt>
<pdfrwt beam="1">  1        2 0.86945063E-01 0.13024583E+04</pdfrwt>
<pdfrwt beam="2">  1       -2 0.99546653E-01 0.13024583E+04</pdfrwt>
<totfact> 0.43720309E+01</totfact>
</mgrwt>
</event>
<event>
 8    2  0.7237260E-052  0.1884295E+04  0.7818608E-02  0.8662713E-01
         -2   -1    0    0    0  501 -0.00000000000E+00  0.00000000000E+00  0.32623271441E+03  0.32623271442E+03  0.25500000000E-02 0. -1.
          2   -1    0    0  501    0  0.00000000000E+00 -0.00000000000E+00 -0.27208862267E+04  0.27208862267E+04  0.25500000000E-02 0.  1.
    -200001    2    1    2    0    0  0.12709715630E+02  0.33318337159E+03 -0.17305351635E+03  0.71850385100E+03  0.61247658601E+03 0.  0.
   -5000001    2    3    3    0    0 -0.24588670431E+03  0.18792094896E+03  0.64547498300E+02  0.32527551785E+03  0.76571721707E+02 0.  0.
     200001    1    1    2    0    0 -0.12709715630E+02 -0.33318337159E+03 -0.22215999959E+04  0.23286150901E+04  0.61300000000E+03 0.  1.
         11    1    4    4    0    0 -0.19141962501E+03  0.12134623813E+03  0.33914339930E+02  0.22916492926E+03  0.51100000000E-03 0.  1.
    -200002    1    4    4    0    0 -0.54467079296E+02  0.66574710823E+02  0.30633158370E+02  0.96110588595E+02  0.30000000000E+02 0.  1.
    -200000    1    3    3    0    0  0.25859641994E+03  0.14526242263E+03 -0.23760101465E+03  0.39322833315E+03  0.10100000000E+03 0. -1.
<mgrwt>
<rscale>  0 0.18842952E+04</rscale>
<asrwt>0</asrwt>
<pdfrwt beam="1">  1        2 0.38869802E+00 0.18842952E+04</pdfrwt>
<pdfrwt beam="2">  1       -2 0.46604675E-01 0.18842952E+04</pdfrwt>
<totfact> 0.13803292E+01</totfact>
</mgrwt>
</event>
<event>
 8    2  0.7237260E-052  0.2440425E+04  0.7818608E-02  0.8424522E-01
          2   -1    0    0  501    0  0.00000000000E+00  0.00000000000E+00  0.18349743694E+04  0.18349743694E+04  0.25500000000E-02 0.  1.
         -2   -1    0    0    0  501 -0.00000000000E+00 -0.00000000000E+00 -0.81141103777E+03  0.81141103777E+03  0.25500000000E-02 0. -1.
    -200001    2    1    2    0    0  0.13992930184E+02 -0.67982974265E+03 -0.36383412316E+03  0.98415648833E+03  0.61141184422E+03 0.  0.
   -5000001    2    3    3    0    0 -0.85967942634E+02 -0.14162902335E+03 -0.37333644895E+03  0.42743080674E+03  0.12596715054E+03 0.  0.
     200001    1    1    2    0    0 -0.13992930184E+02  0.67982974265E+03  0.13873974548E+04  0.16622289188E+04  0.61300000000E+03 0.  1.
         11    1    4    4    0    0 -0.21573628668E+02 -0.62627222458E+02 -0.27430433140E+03  0.28218868983E+03  0.51100000000E-03 0.  1.
    -200002    1    4    4    0    0 -0.64394313966E+02 -0.79001800895E+02 -0.99032117559E+02  0.14524211691E+03  0.30000000000E+02 0.  1.
    -200000    1    3    3    0    0  0.99960872818E+02 -0.53820071929E+03  0.95023257952E+01  0.55672568158E+03  0.10100000000E+03 0.  1.
<mgrwt>
<rscale>  0 0.24404249E+04</rscale>
<asrwt>0</asrwt>
<pdfrwt beam="1">  1        2 0.26213919E+00 0.24404249E+04</pdfrwt>
<pdfrwt beam="2">  1       -2 0.11591586E+00 0.24404249E+04</pdfrwt>
<totfact> 0.50897668E+00</totfact>
</mgrwt>
</event>
<event>
 8    2  0.7237260E-052  0.1452134E+04  0.7818608E-02  0.8916922E-01
         -2   -1    0    0    0  501 -0.00000000000E+00  0.00000000000E+00  0.10569678945E+04  0.10569678945E+04  0.25500000000E-02 0. -1.
          2   -1    0    0  501    0  0.00000000000E+00 -0.00000000000E+00 -0.49876015879E+03  0.49876015879E+03  0.25500000000E-02 0.  1.
    -200001    2    1    2    0    0  0.37477809879E+03 -0.83510447113E+02  0.20876259978E+03  0.75241396707E+03  0.61246415133E+03 0.  0.
   -5000001    2    3    3    0    0  0.11528649777E+03  0.31651393620E+02 -0.19924606864E+03  0.24519585415E+03  0.78289359035E+02 0.  0.
     200001    1    1    2    0    0 -0.37477809879E+03  0.83510447113E+02  0.34944513595E+03  0.80331408624E+03  0.61300000000E+03 0.  1.
         11    1    4    4    0    0  0.84487093336E+02  0.80937908715E+01 -0.16450182514E+03  0.18510653382E+03  0.51100000000E-03 0.  1.
    -200002    1    4    4    0    0  0.30799404432E+02  0.23557602748E+02 -0.34744243506E+02  0.60089320328E+02  0.30000000000E+02 0. -1.
    -200000    1    3    3    0    0  0.25949160103E+03 -0.11516184073E+03  0.40800866842E+03  0.50721811291E+03  0.10100000000E+03 0. -1.
<mgrwt>
<rscale>  0 0.14521343E+04</rscale>
<asrwt>0</asrwt>
<pdfrwt beam="1">  1        2 0.71251452E-01 0.14521343E+04</pdfrwt>
<pdfrwt beam="2">  1       -2 0.15099541E+00 0.14521343E+04</pdfrwt>
<totfact> 0.19241137E+01</totfact>
</mgrwt>
</event>
<event>
 8    2  0.7237260E-052  0.1321867E+04  0.7818608E-02  0.9012402E-01
         -2   -1    0    0    0  501 -0.00000000000E+00  0.00000000000E+00  0.27444895130E+03  0.27444895131E+03  0.25500000000E-02 0.  1.
          2   -1    0    0  501    0  0.00000000000E+00 -0.00000000000E+00 -0.15916724850E+04  0.15916724850E+04  0.25500000000E-02 0. -1.
    -200001    2    1    2    0    0 -0.20878892022E+03  0.16433815765E+02 -0.46991233090E+03  0.79955303349E+03  0.61204948421E+03 0.  0.
   -5000001    2    3    3    0    0  0.77389489027E+02  0.48401610934E+02 -0.38486489604E+03  0.48276589988E+03  0.27678525417E+03 0.  0.
     200001    1    1    2    0    0  0.20878892022E+03 -0.16433815765E+02 -0.84731120279E+03  0.10665684028E+04  0.61300000000E+03 0. -1.
         11    1    4    4    0    0 -0.55307920076E+02  0.57098631912E+02 -0.32375525861E+03  0.33337169536E+03  0.51100000000E-03 0.  1.
    -200002    1    4    4    0    0  0.13269740910E+03 -0.86970209784E+01 -0.61109637435E+02  0.14939420452E+03  0.30000000000E+02 0.  1.
    -200000    1    3    3    0    0 -0.28617840925E+03 -0.31967795169E+02 -0.85047434860E+02  0.31678713362E+03  0.10100000000E+03 0.  1.
<mgrwt>
<rscale>  0 0.13218666E+04</rscale>
<asrwt>0</asrwt>
<pdfrwt beam="1">  1        2 0.22738178E+00 0.13218666E+04</pdfrwt>
<pdfrwt beam="2">  1       -2 0.39206994E-01 0.13218666E+04</pdfrwt>
<totfact> 0.78690400E+01</totfact>
</mgrwt>
</event>
<event>
 8    2  0.7237260E-052  0.1517532E+04  0.7818608E-02  0.8872878E-01
          2   -1    0    0  501    0  0.00000000000E+00  0.00000000000E+00  0.55260597745E+03  0.55260597746E+03  0.25500000000E-02 0.  1.
         -2   -1    0    0    0  501 -0.00000000000E+00 -0.00000000000E+00 -0.10418373057E+04  0.10418373057E+04  0.25500000000E-02 0. -1.
    -200001    2    1    2    0    0 -0.29613541092E+03  0.32299045517E+03 -0.33818264281E+03  0.82593581987E+03  0.61301179671E+03 0.  0.
   -5000001    2    3    3    0    0 -0.40965666332E+02  0.27953373768E+03  0.96694281049E+02  0.30987475395E+03  0.82796635384E+02 0.  0.
     200001    1    1    2    0    0  0.29613541092E+03 -0.32299045517E+03 -0.15104868541E+03  0.76850746327E+03  0.61300000000E+03 0.  1.
         11    1    4    4    0    0 -0.35618380594E+02  0.44412483520E+02  0.25051398147E+02  0.62198957209E+02  0.51100000000E-03 0.  1.
    -200002    1    4    4    0    0 -0.53472857379E+01  0.23512125416E+03  0.71642882902E+02  0.24767579674E+03  0.30000000000E+02 0.  1.
    -200000    1    3    3    0    0 -0.25516974459E+03  0.43456717494E+02 -0.43487692386E+03  0.51606106592E+03  0.10100000000E+03 0. -1.
<mgrwt>
<rscale>  0 0.15175316E+04</rscale>
<asrwt>0</asrwt>
<pdfrwt beam="1">  1        2 0.78943712E-01 0.15175316E+04</pdfrwt>
<pdfrwt beam="2">  1       -2 0.14883390E+00 0.15175316E+04</pdfrwt>
<totfact> 0.17671698E+01</totfact>
</mgrwt>
</event>
<event>
 8    2  0.7237260E-052  0.1446117E+04  0.7818608E-02  0.8921097E-01
          2   -1    0    0  501    0  0.00000000000E+00  0.00000000000E+00  0.28685587157E+04  0.28685587158E+04  0.25500000000E-02 0.  1.
         -2   -1    0    0    0  501 -0.00000000000E+00 -0.00000000000E+00 -0.18225659758E+03  0.18225659760E+03  0.25500000000E-02 0. -1.
    -200001    2    1    2    0    0  0.60478757678E+01  0.13673666388E+03  0.20987929553E+04  0.21907749023E+04  0.61304919187E+03 0.  0.
   -5000001    2    3    3    0    0 -0.17443638921E+03 -0.92577558008E+02  0.15175992723E+04  0.15326361029E+04  0.82868657532E+02 0.  0.
     200001    1    1    2    0    0 -0.60478757678E+01 -0.13673666388E+03  0.58750916292E+03  0.86004041101E+03  0.61300000000E+03 0. -1.
         11    1    4    4    0    0 -0.16121372458E+02 -0.12591395227E+02  0.49555879483E+02  0.53611818429E+02  0.51100000000E-03 0.  1.
    -200002    1    4    4    0    0 -0.15831501675E+03 -0.79986162782E+02  0.14680433928E+04  0.14790242844E+04  0.30000000000E+02 0.  1.
    -200000    1    3    3    0    0  0.18048426497E+03  0.22931422189E+03  0.58119368295E+03  0.65813879947E+03  0.10100000000E+03 0. -1.
<mgrwt>
<rscale>  0 0.14461172E+04</rscale>
<asrwt>0</asrwt>
<pdfrwt beam="1">  1        2 0.40979416E+00 0.14461172E+04</pdfrwt>
<pdfrwt beam="2">  1       -2 0.26036653E-01 0.14461172E+04</pdfrwt>
<totfact> 0.36275188E+01</totfact>
</mgrwt>
</event>
<event>
 8    2  0.7237260E-052  0.1527354E+04  0.7818608E-02  0.8866464E-01
         -2   -1    0    0    0  501 -0.00000000000E+00  0.00000000000E+00  0.19534652572E+03  0.19534652574E+03  0.25500000000E-02 0. -1.
          2   -1    0    0  501    0  0.00000000000E+00 -0.00000000000E+00 -0.29854765859E+04  0.29854765859E+04  0.25500000000E-02 0.  1.
    -200001    2    1    2    0    0 -0.16738865377E+03  0.25665293928E+01 -0.22779872581E+04  0.23646829287E+04  0.61194269073E+03 0.  0.
   -5000001    2    3    3    0    0  0.50074344418E+01 -0.21153272622E+03 -0.91785671109E+03  0.97338317401E+03  0.24544386873E+03 0.  0.
     200001    1    1    2    0    0  0.16738865377E+03 -0.25665293928E+01 -0.51214280208E+03  0.81614018294E+03  0.61300000000E+03 0. -1.
         11    1    4    4    0    0 -0.16834533935E+02 -0.56973703148E+02 -0.70616148054E+03  0.70865608089E+03  0.51100000000E-03 0.  1.
    -200002    1    4    4    0    0  0.21841968377E+02 -0.15455902307E+03 -0.21169523055E+03  0.26472709312E+03  0.30000000000E+02 0.  1.
    -200000    1    3    3    0    0 -0.17239608821E+03  0.21409925561E+03 -0.13601305470E+04  0.13912997547E+04  0.10100000000E+03 0. -1.
<mgrwt>
<rscale>  0 0.15273539E+04</rscale>
<asrwt>0</asrwt>
<pdfrwt beam="1">  1        2 0.42649663E+00 0.15273539E+04</pdfrwt>
<pdfrwt beam="2">  1       -2 0.27906648E-01 0.15273539E+04</pdfrwt>
<totfact> 0.27344244E+01</totfact>
</mgrwt>
</event>
<event>
 8    2  0.7237260E-052  0.1857070E+04  0.7818608E-02  0.8676525E-01
          2   -1    0    0  501    0  0.00000000000E+00  0.00000000000E+00  0.44343786065E+03  0.44343786066E+03  0.25500000000E-02 0.  1.
         -2   -1    0    0    0  501 -0.00000000000E+00 -0.00000000000E+00 -0.19443023732E+04  0.19443023732E+04  0.25500000000E-02 0. -1.
    -200001    2    1    2    0    0 -0.92701954793E+02 -0.14666174917E+03  0.11888119825E+03  0.64720913998E+03  0.61208137571E+03 0.  0.
   -5000001    2    3    3    0    0 -0.27349575821E+03  0.29169922669E+02  0.21308372968E+03  0.35967080670E+03  0.91146032226E+02 0.  0.
     200001    1    1    2    0    0  0.92701954793E+02  0.14666174917E+03 -0.16197457108E+04  0.17405310939E+04  0.61300000000E+03 0. -1.
         11    1    4    4    0    0 -0.16986891676E+02  0.26464479948E+02  0.21356550929E+02  0.38013490442E+02  0.51100000000E-03 0.  1.
    -200002    1    4    4    0    0 -0.25650886653E+03  0.27054427216E+01  0.19172717875E+03  0.32165731626E+03  0.30000000000E+02 0.  1.
    -200000    1    3    3    0    0  0.18079380342E+03 -0.17583167184E+03 -0.94202531436E+02  0.28753833328E+03  0.10100000000E+03 0.  1.
<mgrwt>
<rscale>  0 0.18570700E+04</rscale>
<asrwt>0</asrwt>
<pdfrwt beam="1">  1        2 0.63348267E-01 0.18570700E+04</pdfrwt>
<pdfrwt beam="2">  1       -2 0.27775748E+00 0.18570700E+04</pdfrwt>
<totfact> 0.31560654E+00</totfact>
</mgrwt>
</event>
<event>
 8    2  0.7237260E-052  0.1546001E+04  0.7818608E-02  0.8854426E-01
          2   -1    0    0  501    0  0.00000000000E+00  0.00000000000E+00  0.44644618380E+03  0.44644618380E+03  0.25500000000E-02 0.  1.
         -2   -1    0    0    0  501 -0.00000000000E+00 -0.00000000000E+00 -0.13384142157E+04  0.13384142157E+04  0.25500000000E-02 0. -1.
    -200001    2    1    2    0    0  0.42502682823E+03  0.14036335465E+03 -0.61534812349E+03  0.97700072743E+03  0.61280293103E+03 0.  0.
   -5000001    2    3    3    0    0  0.33943598312E+03 -0.18224285342E+03 -0.43277442748E+03  0.58338325739E+03  0.67919626523E+02 0.  0.
     200001    1    1    2    0    0 -0.42502682823E+03 -0.14036335465E+03 -0.27661990843E+03  0.80785967209E+03  0.61300000000E+03 0.  1.
         11    1    4    4    0    0  0.24909982861E+03 -0.11334541445E+03 -0.29966859671E+03  0.40583146187E+03  0.51100000000E-03 0.  1.
    -200002    1    4    4    0    0  0.90336154507E+02 -0.68897438962E+02 -0.13310583076E+03  0.17755179551E+03  0.30000000000E+02 0.  1.
    -200000    1    3    3    0    0  0.85590845116E+02  0.32260620806E+03 -0.18257369601E+03  0.39361747004E+03  0.10100000000E+03 0. -1.
<mgrwt>
<rscale>  0 0.15460012E+04</rscale>
<asrwt>0</asrwt>
<pdfrwt beam="1">  1        2 0.63778027E-01 0.15460012E+04</pdfrwt>
<pdfrwt beam="2">  1       -2 0.19120203E+00 0.15460012E+04</pdfrwt>
<totfact> 0.11205790E+01</totfact>
</mgrwt>
</event>
<event>
 8    2  0.7237260E-052  0.1354072E+04  0.7818608E-02  0.8987751E-01
         -2   -1    0    0    0  501 -0.00000000000E+00  0.00000000000E+00  0.12275790017E+03  0.12275790020E+03  0.25500000000E-02 0. -1.
          2   -1    0    0  501    0  0.00000000000E+00 -0.00000000000E+00 -0.37339999421E+04  0.37339999421E+04  0.25500000000E-02 0.  1.
    -200001    2    1    2    0    0 -0.10463522789E+03  0.19361905683E+03 -0.12786987370E+04  0.14349890384E+04  0.61293246795E+03 0.  0.
   -5000001    2    3    3    0    0  0.99427144775E+02 -0.10279261422E+03 -0.78659389739E+03  0.81703313073E+03  0.16840753735E+03 0.  0.
     200001    1    1    2    0    0  0.10463522789E+03 -0.19361905683E+03 -0.23325433050E+04  0.24217688039E+04  0.61300000000E+03 0.  1.
         11    1    4    4    0    0  0.11702001057E+03 -0.11638308109E+02 -0.33560767897E+03  0.35561446437E+03  0.51100000000E-03 0.  1.
    -200002    1    4    4    0    0 -0.17592865799E+02 -0.91154306115E+02 -0.45098621842E+03  0.46141866635E+03  0.30000000000E+02 0.  1.
    -200000    1    3    3    0    0 -0.20406237266E+03  0.29641167105E+03 -0.49210483958E+03  0.61795590766E+03  0.10100000000E+03 0. -1.
<mgrwt>
<rscale>  0 0.13540724E+04</rscale>
<asrwt>0</asrwt>
<pdfrwt beam="1">  1        2 0.53342849E+00 0.13540724E+04</pdfrwt>
<pdfrwt beam="2">  1       -2 0.17536845E-01 0.13540724E+04</pdfrwt>
<totfact> 0.22933135E+01</totfact>
</mgrwt>
</event>
<event>
 8    2  0.7237260E-052  0.1997593E+04  0.7818608E-02  0.8607747E-01
         -2   -1    0    0    0  501 -0.00000000000E+00  0.00000000000E+00  0.97201309188E+03  0.97201309188E+03  0.25500000000E-02 0. -1.
          2   -1    0    0  501    0  0.00000000000E+00 -0.00000000000E+00 -0.10263175171E+04  0.10263175171E+04  0.25500000000E-02 0.  1.
    -200001    2    1    2    0    0 -0.51291706538E+03 -0.58211082836E+03  0.11366202027E+03  0.99537564529E+03  0.61312045140E+03 0.  0.
   -5000001    2    3    3    0    0 -0.48293503006E+03 -0.67846709981E+03  0.13960185011E+03  0.85026421135E+03  0.99582647845E+02 0.  0.
     200001    1    1    2    0    0  0.51291706538E+03  0.58211082836E+03 -0.16796644552E+03  0.10029549637E+04  0.61300000000E+03 0. -1.
         11    1    4    4    0    0 -0.25326619374E+03 -0.41038969117E+03  0.11082561420E+03  0.49481893685E+03  0.51100000000E-03 0.  1.
    -200002    1    4    4    0    0 -0.22966883633E+03 -0.26807740864E+03  0.28776235909E+02  0.35544527449E+03  0.30000000000E+02 0.  1.
    -200000    1    3    3    0    0 -0.29982035320E+02  0.96356271448E+02 -0.25939829840E+02  0.14511143394E+03  0.10100000000E+03 0. -1.
<mgrwt>
<rscale>  0 0.19975926E+04</rscale>
<asrwt>0</asrwt>
<pdfrwt beam="1">  1        2 0.14661679E+00 0.19975926E+04</pdfrwt>
<pdfrwt beam="2">  1       -2 0.13885901E+00 0.19975926E+04</pdfrwt>
<totfact> 0.92599359E+00</totfact>
</mgrwt>
</event>
<event>
 8    2  0.7237260E-052  0.2506833E+04  0.7818608E-02  0.8400555E-01
         -2   -1    0    0    0  501 -0.00000000000E+00  0.00000000000E+00  0.80376513369E+03  0.80376513369E+03  0.25500000000E-02 0. -1.
          2   -1    0    0  501    0  0.00000000000E+00 -0.00000000000E+00 -0.19546170869E+04  0.19546170869E+04  0.25500000000E-02 0.  1.
    -200001    2    1    2    0    0 -0.96438274457E+03 -0.15661163893E+03 -0.11140394826E+04  0.16043954609E+04  0.61517440025E+03 0.  0.
   -5000001    2    3    3    0    0 -0.52916487628E+02 -0.21232966504E+03 -0.30269685587E+03  0.37869031940E+03  0.62425396555E+02 0.  0.
     200001    1    1    2    0    0  0.96438274457E+03  0.15661163893E+03 -0.36812470583E+02  0.11539867597E+04  0.61300000000E+03 0. -1.
         11    1    4    4    0    0  0.15050603035E+01 -0.62483253000E+02 -0.11261701331E+03  0.12879834548E+03  0.51100000000E-03 0.  1.
    -200002    1    4    4    0    0 -0.54421547932E+02 -0.14984641204E+03 -0.19007984256E+03  0.24989197391E+03  0.30000000000E+02 0.  1.
    -200000    1    3    3    0    0 -0.91146625694E+03  0.55718026108E+02 -0.81134262676E+03  0.12257051415E+04  0.10100000000E+03 0. -1.
<mgrwt>
<rscale>  0 0.25068331E+04</rscale>
<asrwt>0</asrwt>
<pdfrwt beam="1">  1        2 0.27923101E+00 0.25068331E+04</pdfrwt>
<pdfrwt beam="2">  1       -2 0.11482359E+00 0.25068331E+04</pdfrwt>
<totfact> 0.44945327E+00</totfact>
</mgrwt>
</event>
<event>
 8    2  0.7237260E-052  0.1447955E+04  0.7818608E-02  0.8919820E-01
          2   -1    0    0  501    0  0.00000000000E+00  0.00000000000E+00  0.26614125819E+04  0.26614125819E+04  0.25500000000E-02 0. -1.
         -2   -1    0    0    0  501 -0.00000000000E+00 -0.00000000000E+00 -0.19694177131E+03  0.19694177132E+03  0.25500000000E-02 0.  1.
    -200001    2    1    2    0    0  0.36938609723E+02 -0.38288304143E+03  0.12121745980E+04  0.14119869420E+04  0.61349489314E+03 0.  0.
   -5000001    2    3    3    0    0  0.95736732036E+02 -0.22899807319E+03  0.22198598409E+03  0.40312010547E+03  0.22720564015E+03 0.  0.
     200001    1    1    2    0    0 -0.36938609723E+02  0.38288304143E+03  0.12522962125E+04  0.14463674112E+04  0.61300000000E+03 0.  1.
         11    1    4    4    0    0  0.26935161985E+02 -0.48851584202E+02  0.19893201965E+03  0.20660573243E+03  0.51100000000E-03 0.  1.
    -200002    1    4    4    0    0  0.68801570052E+02 -0.18014648898E+03  0.23053964440E+02  0.19651437304E+03  0.30000000000E+02 0.  1.
    -200000    1    3    3    0    0 -0.58798122313E+02 -0.15388496824E+03  0.99018861395E+03  0.10088668365E+04  0.10100000000E+03 0. -1.
<mgrwt>
<rscale>  0 0.14479548E+04</rscale>
<asrwt>0</asrwt>
<pdfrwt beam="1">  1        2 0.38020180E+00 0.14479548E+04</pdfrwt>
<pdfrwt beam="2">  1       -2 0.28134539E-01 0.14479548E+04</pdfrwt>
<totfact> 0.40697866E+01</totfact>
</mgrwt>
</event>
<event>
 8    2  0.7237260E-052  0.1892733E+04  0.7818608E-02  0.8658482E-01
         -2   -1    0    0    0  501 -0.00000000000E+00  0.00000000000E+00  0.81509310891E+03  0.81509310891E+03  0.25500000000E-02 0. -1.
          2   -1    0    0  501    0  0.00000000000E+00 -0.00000000000E+00 -0.10987822898E+04  0.10987822898E+04  0.25500000000E-02 0.  1.
    -200001    2    1    2    0    0  0.65979863040E+03 -0.22817737596E+03  0.40042613135E+02  0.93002052019E+03  0.61313588178E+03 0.  0.
   -5000001    2    3    3    0    0  0.15384258478E+02  0.11817731435E+02  0.20492796037E+03  0.21569866553E+03  0.64452394716E+02 0.  0.
     200001    1    1    2    0    0 -0.65979863040E+03  0.22817737596E+03 -0.32373179406E+03  0.98385487856E+03  0.61300000000E+03 0.  1.
         11    1    4    4    0    0 -0.19069670293E+01  0.52348219869E+01  0.15203937136E+03  0.15214141556E+03  0.51100000000E-03 0.  1.
    -200002    1    4    4    0    0  0.17291225507E+02  0.65829094478E+01  0.52888589008E+02  0.63557249968E+02  0.30000000000E+02 0. -1.
    -200000    1    3    3    0    0  0.64441437192E+03 -0.23999510740E+03 -0.16488534723E+03  0.71432185466E+03  0.10100000000E+03 0. -1.
<mgrwt>
<rscale>  0 0.18927333E+04</rscale>
<asrwt>0</asrwt>
<pdfrwt beam="1">  1        2 0.15696890E+00 0.18927333E+04</pdfrwt>
<pdfrwt beam="2">  1       -2 0.11644187E+00 0.18927333E+04</pdfrwt>
<totfact> 0.13164513E+01</totfact>
</mgrwt>
</event>
<event>
 8    2  0.7237260E-052  0.1385552E+04  0.7818608E-02  0.8964344E-01
         -2   -1    0    0    0  501 -0.00000000000E+00  0.00000000000E+00  0.48433166713E+03  0.48433166714E+03  0.25500000000E-02 0. -1.
          2   -1    0    0  501    0  0.00000000000E+00 -0.00000000000E+00 -0.99092895461E+03  0.99092895462E+03  0.25500000000E-02 0.  1.
    -200001    2    1    2    0    0  0.61413615089E+02  0.23737988712E+03 -0.27494021679E+02  0.65952182642E+03  0.61163083258E+03 0.  0.
   -5000001    2    3    3    0    0  0.24695893225E+02  0.33700550989E+03  0.18979131887E+03  0.39743906272E+03  0.88059428876E+02 0.  0.
     200001    1    1    2    0    0 -0.61413615089E+02 -0.23737988712E+03 -0.47910326580E+03  0.81573879534E+03  0.61300000000E+03 0.  1.
         11    1    4    4    0    0  0.76315928431E+01  0.26107221744E+03  0.11489294401E+03  0.28533722594E+03  0.51100000000E-03 0.  1.
    -200002    1    4    4    0    0  0.17064300382E+02  0.75933292458E+02  0.74898374860E+02  0.11210183677E+03  0.30000000000E+02 0. -1.
    -200000    1    3    3    0    0  0.36717721865E+02 -0.99625622778E+02 -0.21728534055E+03  0.26208276370E+03  0.10100000000E+03 0. -1.
<mgrwt>
<rscale>  0 0.13855515E+04</rscale>
<asrwt>0</asrwt>
<pdfrwt beam="1">  1        2 0.14156128E+00 0.13855515E+04</pdfrwt>
<pdfrwt beam="2">  1       -2 0.69190238E-01 0.13855515E+04</pdfrwt>
<totfact> 0.52937502E+01</totfact>
</mgrwt>
</event>
<event>
 8    2  0.7237260E-052  0.1664441E+04  0.7818608E-02  0.8781909E-01
          2   -1    0    0  501    0  0.00000000000E+00  0.00000000000E+00  0.21594626294E+04  0.21594626294E+04  0.25500000000E-02 0.  1.
         -2   -1    0    0    0  501 -0.00000000000E+00 -0.00000000000E+00 -0.32072372180E+03  0.32072372181E+03  0.25500000000E-02 0. -1.
    -200001    2    1    2    0    0 -0.50099452411E+03  0.99477656064E+02  0.56713151880E+03  0.97897162023E+03  0.61307092278E+03 0.  0.
   -5000001    2    3    3    0    0 -0.37133101583E+02  0.17328919366E+03  0.37647140369E+03  0.46208880771E+03  0.20096600842E+03 0.  0.
     200001    1    1    2    0    0  0.50099452411E+03 -0.99477656064E+02  0.12716073888E+04  0.15012147309E+04  0.61300000000E+03 0.  1.
         11    1    4    4    0    0 -0.48846627570E+02  0.47234634002E+02  0.30733426463E+03  0.31475618166E+03  0.51100000000E-03 0.  1.
    -200002    1    4    4    0    0  0.11713525987E+02  0.12605455966E+03  0.69137139060E+02  0.14733262605E+03  0.30000000000E+02 0.  1.
    -200000    1    3    3    0    0 -0.46386142252E+03 -0.73811537597E+02  0.19066011511E+03  0.51688281252E+03  0.10100000000E+03 0. -1.
<mgrwt>
<rscale>  0 0.16644409E+04</rscale>
<asrwt>0</asrwt>
<pdfrwt beam="1">  1        2 0.30849467E+00 0.16644409E+04</pdfrwt>
<pdfrwt beam="2">  1       -2 0.45817674E-01 0.16644409E+04</pdfrwt>
<totfact> 0.28674024E+01</totfact>
</mgrwt>
</event>
<event>
 8    2  0.7237260E-052  0.1495521E+04  0.7818608E-02  0.8887437E-01
         -2   -1    0    0    0  501 -0.00000000000E+00  0.00000000000E+00  0.33012539462E+03  0.33012539463E+03  0.25500000000E-02 0. -1.
          2   -1    0    0  501    0  0.00000000000E+00 -0.00000000000E+00 -0.16937366421E+04  0.16937366421E+04  0.25500000000E-02 0.  1.
    -200001    2    1    2    0    0  0.20268964930E+02 -0.36236876327E+03 -0.98999232935E+03  0.12194479347E+04  0.61257367046E+03 0.  0.
   -5000001    2    3    3    0    0 -0.28232679482E+02 -0.39424598699E+03 -0.10092934581E+04  0.11013712627E+04  0.19523931770E+03 0.  0.
     200001    1    1    2    0    0 -0.20268964930E+02  0.36236876327E+03 -0.37361891812E+03  0.80441410201E+03  0.61300000000E+03 0.  1.
         11    1    4    4    0    0  0.24900693913E+02 -0.37446864327E+03 -0.89084428732E+03  0.96666972312E+03  0.51100000000E-03 0.  1.
    -200002    1    4    4    0    0 -0.53133373395E+02 -0.19777343721E+02 -0.11844917082E+03  0.13470153956E+03  0.30000000000E+02 0.  1.
    -200000    1    3    3    0    0  0.48501644412E+02  0.31877223719E+02  0.19301128787E+02  0.11807667202E+03  0.10100000000E+03 0. -1.
<mgrwt>
<rscale>  0 0.14955206E+04</rscale>
<asrwt>0</asrwt>
<pdfrwt beam="1">  1        2 0.24196237E+00 0.14955206E+04</pdfrwt>
<pdfrwt beam="2">  1       -2 0.47160772E-01 0.14955206E+04</pdfrwt>
<totfact> 0.47658796E+01</totfact>
</mgrwt>
</event>
<event>
 8    2  0.7237260E-052  0.1678793E+04  0.7818608E-02  0.8773553E-01
         -2   -1    0    0    0  501 -0.00000000000E+00  0.00000000000E+00  0.32350018903E+03  0.32350018904E+03  0.25500000000E-02 0. -1.
          2   -1    0    0  501    0  0.00000000000E+00 -0.00000000000E+00 -0.21780085052E+04  0.21780085052E+04  0.25500000000E-02 0.  1.
    -200001    2    1    2    0    0  0.21037344288E+03 -0.38620643147E+03 -0.14754485458E+04  0.16571937633E+04  0.61313160452E+03 0.  0.
   -5000001    2    3    3    0    0  0.17325653475E+03 -0.53056928089E+03 -0.12074774735E+04  0.13343504688E+04  0.10472695931E+03 0.  0.
     200001    1    1    2    0    0 -0.21037344288E+03  0.38620643147E+03 -0.37905977036E+03  0.84431493099E+03  0.61300000000E+03 0. -1.
         11    1    4    4    0    0  0.17549558173E+02 -0.13912553552E+03 -0.38562334054E+03  0.41032823739E+03  0.51100000000E-03 0.  1.
    -200002    1    4    4    0    0  0.15570697658E+03 -0.39144374537E+03 -0.82185413291E+03  0.92402223140E+03  0.30000000000E+02 0.  1.
    -200000    1    3    3    0    0  0.37116908130E+02  0.14436284942E+03 -0.26797107236E+03  0.32284329446E+03  0.10100000000E+03 0. -1.
<mgrwt>
<rscale>  0 0.16787926E+04</rscale>
<asrwt>0</asrwt>
<pdfrwt beam="1">  1        2 0.31114407E+00 0.16787926E+04</pdfrwt>
<pdfrwt beam="2">  1       -2 0.46214314E-01 0.16787926E+04</pdfrwt>
<totfact> 0.27536740E+01</totfact>
</mgrwt>
</event>
<event>
 8    2  0.7237260E-052  0.1351276E+04  0.7818608E-02  0.8989863E-01
         -2   -1    0    0    0  501 -0.00000000000E+00  0.00000000000E+00  0.19891481397E+03  0.19891481399E+03  0.25500000000E-02 0. -1.
          2   -1    0    0  501    0  0.00000000000E+00 -0.00000000000E+00 -0.22948853228E+04  0.22948853228E+04  0.25500000000E-02 0.  1.
    -200001    2    1    2    0    0  0.42163608074E+02  0.15798664133E+03 -0.62845855433E+03  0.89502001267E+03  0.61592460569E+03 0.  0.
   -5000001    2    3    3    0    0 -0.23755890789E+03  0.17864276824E+03 -0.18872956906E+03  0.36376306731E+03  0.91417971616E+02 0.  0.
     200001    1    1    2    0    0 -0.42163608074E+02 -0.15798664133E+03 -0.14675119545E+04  0.15987801241E+04  0.61300000000E+03 0.  1.
         11    1    4    4    0    0 -0.16290394696E+03  0.76120534994E+02 -0.12252566411E+03  0.21758807446E+03  0.51100000000E-03 0.  1.
    -200002    1    4    4    0    0 -0.74654960933E+02  0.10252223325E+03 -0.66203904948E+02  0.14617499284E+03  0.30000000000E+02 0. -1.
    -200000    1    3    3    0    0  0.27972251597E+03 -0.20656126911E+02 -0.43972898527E+03  0.53125694537E+03  0.10100000000E+03 0. -1.
<mgrwt>
<rscale>  0 0.13512760E+04</rscale>
<asrwt>0</asrwt>
<pdfrwt beam="1">  1        2 0.32784074E+00 0.13512760E+04</pdfrwt>
<pdfrwt beam="2">  1       -2 0.28416403E-01 0.13512760E+04</pdfrwt>
<totfact> 0.62684030E+01</totfact>
</mgrwt>
</event>
<event>
 8    2  0.7237260E-052  0.1401770E+04  0.7818608E-02  0.8952538E-01
         -2   -1    0    0    0  501 -0.00000000000E+00  0.00000000000E+00  0.24625308482E+03  0.24625308483E+03  0.25500000000E-02 0.  1.
          2   -1    0    0  501    0  0.00000000000E+00 -0.00000000000E+00 -0.19948571325E+04  0.19948571325E+04  0.25500000000E-02 0. -1.
    -200001    2    1    2    0    0  0.19605388279E+03 -0.25690703699E+03 -0.10474544751E+04  0.12553018821E+04  0.61170547427E+03 0.  0.
   -5000001    2    3    3    0    0  0.26026410017E+03 -0.13959417340E+03 -0.10441772693E+04  0.10876802843E+04  0.74285234983E+02 0.  0.
     200001    1    1    2    0    0 -0.19605388279E+03  0.25690703699E+03 -0.70114957253E+03  0.98580833516E+03  0.61300000000E+03 0.  1.
         11    1    4    4    0    0  0.14160912311E+03 -0.48503621430E+02 -0.58366870344E+03  0.60255696860E+03  0.51100000000E-03 0.  1.
    -200002    1    4    4    0    0  0.11865497706E+03 -0.91090551966E+02 -0.46050856583E+03  0.48512331571E+03  0.30000000000E+02 0.  1.
    -200000    1    3    3    0    0 -0.64210217379E+02 -0.11731286359E+03 -0.32772058453E+01  0.16762159783E+03  0.10100000000E+03 0.  1.
<mgrwt>
<rscale>  0 0.14017699E+04</rscale>
<asrwt>0</asrwt>
<pdfrwt beam="1">  1        2 0.28497958E+00 0.14017699E+04</pdfrwt>
<pdfrwt beam="2">  1       -2 0.35179013E-01 0.14017699E+04</pdfrwt>
<totfact> 0.59655317E+01</totfact>
</mgrwt>
</event>
<event>
 8    2  0.7237260E-052  0.2379828E+04  0.7818608E-02  0.8447095E-01
         -2   -1    0    0    0  501 -0.00000000000E+00  0.00000000000E+00  0.95593631281E+03  0.95593631281E+03  0.25500000000E-02 0. -1.
          2   -1    0    0  501    0  0.00000000000E+00 -0.00000000000E+00 -0.14811601804E+04  0.14811601804E+04  0.25500000000E-02 0.  1.
    -200001    2    1    2    0    0  0.25158599255E+03 -0.91674579533E+03 -0.64056643106E+03  0.13000866991E+04  0.61333653714E+03 0.  0.
   -5000001    2    3    3    0    0  0.21297435421E+03 -0.42155644121E+02 -0.41615439688E+02  0.23456237691E+03  0.78437809495E+02 0.  0.
     200001    1    1    2    0    0 -0.25158599255E+03  0.91674579533E+03  0.11534256345E+03  0.11370097941E+04  0.61300000000E+03 0. -1.
         11    1    4    4    0    0  0.19246039994E+02 -0.24349851773E+02 -0.19077864607E+02  0.36431994936E+02  0.51100000000E-03 0.  1.
    -200002    1    4    4    0    0  0.19372831422E+03 -0.17805792349E+02 -0.22537575081E+02  0.19813038198E+03  0.30000000000E+02 0.  1.
    -200000    1    3    3    0    0  0.38611638336E+02 -0.87459015121E+03 -0.59895099137E+03  0.10655243222E+04  0.10100000000E+03 0. -1.
<mgrwt>
<rscale>  0 0.23798276E+04</rscale>
<asrwt>0</asrwt>
<pdfrwt beam="1">  1        2 0.21159431E+00 0.23798276E+04</pdfrwt>
<pdfrwt beam="2">  1       -2 0.13656233E+00 0.23798276E+04</pdfrwt>
<totfact> 0.51916142E+00</totfact>
</mgrwt>
</event>
<event>
 8    2  0.7237260E-052  0.1260386E+04  0.7818608E-02  0.9061583E-01
          2   -1    0    0  501    0  0.00000000000E+00  0.00000000000E+00  0.81196344493E+03  0.81196344493E+03  0.25500000000E-02 0.  1.
         -2   -1    0    0    0  501 -0.00000000000E+00 -0.00000000000E+00 -0.48911486283E+03  0.48911486283E+03  0.25500000000E-02 0. -1.
    -200001    2    1    2    0    0 -0.76805586080E+02  0.11887473501E+03  0.11580732366E+03  0.63876011885E+03  0.61202357188E+03 0.  0.
   -5000001    2    3    3    0    0 -0.72342119213E+02  0.19665978330E+03  0.32480084674E+03  0.39391378140E+03  0.75921173307E+02 0.  0.
     200001    1    1    2    0    0  0.76805586080E+02 -0.11887473501E+03  0.20704125844E+03  0.66231818892E+03  0.61300000000E+03 0.  1.
         11    1    4    4    0    0 -0.73201407311E+02  0.13251766378E+03  0.20675765445E+03  0.25625788753E+03  0.51100000000E-03 0.  1.
    -200002    1    4    4    0    0  0.85928809834E+00  0.64142119515E+02  0.11804319229E+03  0.13765589388E+03  0.30000000000E+02 0.  1.
    -200000    1    3    3    0    0 -0.44634668669E+01 -0.77785048284E+02 -0.20899352308E+03  0.24484633745E+03  0.10100000000E+03 0. -1.
<mgrwt>
<rscale>  0 0.12603863E+04</rscale>
<asrwt>0</asrwt>
<pdfrwt beam="1">  1        2 0.11599478E+00 0.12603863E+04</pdfrwt>
<pdfrwt beam="2">  1       -2 0.69873552E-01 0.12603863E+04</pdfrwt>
<totfact> 0.68476850E+01</totfact>
</mgrwt>
</event>
<event>
 8    2  0.7237260E-052  0.3407604E+04  0.7818608E-02  0.8136042E-01
          2   -1    0    0  501    0  0.00000000000E+00  0.00000000000E+00  0.88978055872E+03  0.88978055872E+03  0.25500000000E-02 0.  1.
         -2   -1    0    0    0  501 -0.00000000000E+00 -0.00000000000E+00 -0.32625370402E+04  0.32625370402E+04  0.25500000000E-02 0. -1.
    -200001    2    1    2    0    0  0.15584704454E+04 -0.19496103620E+03 -0.88524916072E+03  0.19039210672E+04  0.61189003811E+03 0.  0.
   -5000001    2    3    3    0    0  0.95846817230E+03  0.29762416286E+02 -0.25825098345E+03  0.10017952045E+04  0.13173087181E+03 0.  0.
     200001    1    1    2    0    0 -0.15584704454E+04  0.19496103620E+03 -0.14875073208E+04  0.22483965318E+04  0.61300000000E+03 0. -1.
         11    1    4    4    0    0  0.46436484049E+03 -0.24693396599E+02 -0.17513563823E+03  0.49690739650E+03  0.51100000000E-03 0.  1.
    -200002    1    4    4    0    0  0.49410333181E+03  0.54455812885E+02 -0.83115345214E+02  0.50488780801E+03  0.30000000000E+02 0.  1.
    -200000    1    3    3    0    0  0.60000227307E+03 -0.22472345248E+03 -0.62699817727E+03  0.90212586266E+03  0.10100000000E+03 0.  1.
<mgrwt>
<rscale>  0 0.34076045E+04</rscale>
<asrwt>0</asrwt>
<pdfrwt beam="1">  1        2 0.12711151E+00 0.34076045E+04</pdfrwt>
<pdfrwt beam="2">  1       -2 0.46607671E+00 0.34076045E+04</pdfrwt>
<totfact> 0.74786530E-02</totfact>
</mgrwt>
</event>
<event>
 8    2  0.7237260E-052  0.2338930E+04  0.7818608E-02  0.8462728E-01
          2   -1    0    0  501    0  0.00000000000E+00  0.00000000000E+00  0.55822737224E+03  0.55822737224E+03  0.25500000000E-02 0.  1.
         -2   -1    0    0    0  501 -0.00000000000E+00 -0.00000000000E+00 -0.24499836111E+04  0.24499836111E+04  0.25500000000E-02 0. -1.
    -200001    2    1    2    0    0 -0.67609215228E+03  0.72058164679E+03 -0.78570396232E+03  0.14033872714E+04  0.61304698760E+03 0.  0.
   -5000001    2    3    3    0    0 -0.63169199048E+03  0.29255933027E+03 -0.35391143429E+03  0.78547120501E+03  0.84178251495E+02 0.  0.
     200001    1    1    2    0    0  0.67609215228E+03 -0.72058164679E+03 -0.11060522766E+04  0.16048237120E+04  0.61300000000E+03 0.  1.
         11    1    4    4    0    0 -0.25963581698E+03  0.11701831895E+03 -0.18586006243E+03  0.34007059155E+03  0.51100000000E-03 0.  1.
    -200002    1    4    4    0    0 -0.37205617349E+03  0.17554101132E+03 -0.16805137185E+03  0.44540061346E+03  0.30000000000E+02 0.  1.
    -200000    1    3    3    0    0 -0.44400161801E+02  0.42802231653E+03 -0.43179252803E+03  0.61791606637E+03  0.10100000000E+03 0. -1.
<mgrwt>
<rscale>  0 0.23389296E+04</rscale>
<asrwt>0</asrwt>
<pdfrwt beam="1">  1        2 0.79746769E-01 0.23389296E+04</pdfrwt>
<pdfrwt beam="2">  1       -2 0.34999765E+00 0.23389296E+04</pdfrwt>
<totfact> 0.83503271E-01</totfact>
</mgrwt>
</event>
<event>
 8    2  0.7237260E-052  0.1453639E+04  0.7818608E-02  0.8915882E-01
          2   -1    0    0  501    0  0.00000000000E+00  0.00000000000E+00  0.99930980869E+03  0.99930980869E+03  0.25500000000E-02 0.  1.
         -2   -1    0    0    0  501 -0.00000000000E+00 -0.00000000000E+00 -0.52863123021E+03  0.52863123022E+03  0.25500000000E-02 0. -1.
    -200001    2    1    2    0    0  0.27271862361E+02  0.85931898147E+02  0.63492228529E+03  0.88694724735E+03  0.61271613788E+03 0.  0.
   -5000001    2    3    3    0    0  0.23943880211E+03 -0.82393576527E+02  0.42151741491E+03  0.52765500634E+03  0.19137197608E+03 0.  0.
     200001    1    1    2    0    0 -0.27271862361E+02 -0.85931898147E+02 -0.16424370681E+03  0.64099379156E+03  0.61300000000E+03 0. -1.
         11    1    4    4    0    0  0.25770103451E+03 -0.68720010797E+02  0.30484711680E+03  0.40504817947E+03  0.51100000000E-03 0.  1.
    -200002    1    4    4    0    0 -0.18262232401E+02 -0.13673565730E+02  0.11667029811E+03  0.12260682686E+03  0.30000000000E+02 0.  1.
    -200000    1    3    3    0    0 -0.21216693975E+03  0.16832547467E+03  0.21340487038E+03  0.35929224101E+03  0.10100000000E+03 0.  1.
<mgrwt>
<rscale>  0 0.14536387E+04</rscale>
<asrwt>0</asrwt>
<pdfrwt beam="1">  1        2 0.14275855E+00 0.14536387E+04</pdfrwt>
<pdfrwt beam="2">  1       -2 0.75518746E-01 0.14536387E+04</pdfrwt>
<totfact> 0.42940940E+01</totfact>
</mgrwt>
</event>
<event>
 8    2  0.7237260E-052  0.1442316E+04  0.7818608E-02  0.8923745E-01
         -2   -1    0    0    0  501 -0.00000000000E+00  0.00000000000E+00  0.67700307635E+03  0.67700307635E+03  0.25500000000E-02 0. -1.
          2   -1    0    0  501    0  0.00000000000E+00 -0.00000000000E+00 -0.76819278488E+03  0.76819278489E+03  0.25500000000E-02 0.  1.
    -200001    2    1    2    0    0  0.33294478165E+03  0.14565532531E+03 -0.15540177201E+03  0.72968213634E+03  0.61336661788E+03 0.  0.
   -5000001    2    3    3    0    0 -0.10892547467E+03 -0.66478315976E+02 -0.65019682420E+02  0.22113525816E+03  0.16849070530E+03 0.  0.
     200001    1    1    2    0    0 -0.33294478165E+03 -0.14565532531E+03  0.64212063477E+02  0.71551372490E+03  0.61300000000E+03 0.  1.
         11    1    4    4    0    0  0.12858831303E+02 -0.78342833352E+02 -0.51027908137E+02  0.94375825767E+02  0.51100000000E-03 0.  1.
    -200002    1    4    4    0    0 -0.12178430597E+03  0.11864517377E+02 -0.13991774283E+02  0.12675943239E+03  0.30000000000E+02 0.  1.
    -200000    1    3    3    0    0  0.44187025632E+03  0.21213364129E+03 -0.90382089592E+02  0.50854687818E+03  0.10100000000E+03 0. -1.
<mgrwt>
<rscale>  0 0.14423160E+04</rscale>
<asrwt>0</asrwt>
<pdfrwt beam="1">  1        2 0.10974183E+00 0.14423160E+04</pdfrwt>
<pdfrwt beam="2">  1       -2 0.96714725E-01 0.14423160E+04</pdfrwt>
<totfact> 0.34797612E+01</totfact>
</mgrwt>
</event>
<event>
 8    2  0.7237260E-052  0.2159692E+04  0.7818608E-02  0.8535395E-01
         -2   -1    0    0    0  501 -0.00000000000E+00  0.00000000000E+00  0.11325692040E+04  0.11325692040E+04  0.25500000000E-02 0. -1.
          2   -1    0    0  501    0  0.00000000000E+00 -0.00000000000E+00 -0.10295774590E+04  0.10295774590E+04  0.25500000000E-02 0.  1.
    -200001    2    1    2    0    0  0.46493994666E+03 -0.19858752854E+03 -0.68050216606E+03  0.10462443962E+04  0.61313781329E+03 0.  0.
   -5000001    2    3    3    0    0  0.54289051851E+02  0.91894130121E+02 -0.47266223168E+03  0.49269928535E+03  0.89169323373E+02 0.  0.
     200001    1    1    2    0    0 -0.46493994666E+03  0.19858752854E+03  0.78349391106E+03  0.11159022669E+04  0.61300000000E+03 0. -1.
         11    1    4    4    0    0  0.25246624845E+02  0.62781867673E+02 -0.38844081003E+03  0.39429077832E+03  0.51100000000E-03 0.  1.
    -200002    1    4    4    0    0  0.29042427006E+02  0.29112262448E+02 -0.84221421649E+02  0.98408507030E+02  0.30000000000E+02 0. -1.
    -200000    1    3    3    0    0  0.41065089481E+03 -0.29048165866E+03 -0.20783993439E+03  0.55354511086E+03  0.10100000000E+03 0. -1.
<mgrwt>
<rscale>  0 0.21596923E+04</rscale>
<asrwt>0</asrwt>
<pdfrwt beam="1">  1        2 0.14708249E+00 0.21596923E+04</pdfrwt>
<pdfrwt beam="2">  1       -2 0.16179560E+00 0.21596923E+04</pdfrwt>
<totfact> 0.60609118E+00</totfact>
</mgrwt>
</event>
<event>
 8    2  0.7237260E-052  0.1840181E+04  0.7818608E-02  0.8685219E-01
          2   -1    0    0  501    0  0.00000000000E+00  0.00000000000E+00  0.33594082698E+04  0.33594082698E+04  0.25500000000E-02 0. -1.
         -2   -1    0    0    0  501 -0.00000000000E+00 -0.00000000000E+00 -0.25199868091E+03  0.25199868092E+03  0.25500000000E-02 0.  1.
    -200001    2    1    2    0    0  0.60876586945E+03  0.30388290826E+03  0.17310493928E+04  0.19582048774E+04  0.61244888434E+03 0.  0.
   -5000001    2    3    3    0    0  0.64404456420E+03  0.36133264889E+03  0.16579358436E+04  0.18164598596E+04  0.73623882982E+02 0.  0.
     200001    1    1    2    0    0 -0.60876586945E+03 -0.30388290826E+03  0.13763601961E+04  0.16532020733E+04  0.61300000000E+03 0. -1.
         11    1    4    4    0    0  0.37391003798E+03  0.17669321451E+03  0.92756220994E+03  0.10155790771E+04  0.51100000000E-03 0.  1.
    -200002    1    4    4    0    0  0.27013452622E+03  0.18463943438E+03  0.73037363369E+03  0.80088078249E+03  0.30000000000E+02 0.  1.
    -200000    1    3    3    0    0 -0.35278694753E+02 -0.57449740625E+02  0.73113549144E+02  0.14174501780E+03  0.10100000000E+03 0. -1.
<mgrwt>
<rscale>  0 0.18401809E+04</rscale>
<asrwt>0</asrwt>
<pdfrwt beam="1">  1        2 0.47991542E+00 0.18401809E+04</pdfrwt>
<pdfrwt beam="2">  1       -2 0.35999815E-01 0.18401809E+04</pdfrwt>
<totfact> 0.10052542E+01</totfact>
</mgrwt>
</event>
<event>
 8    2  0.7237260E-052  0.1463135E+04  0.7818608E-02  0.8909344E-01
          2   -1    0    0  501    0  0.00000000000E+00  0.00000000000E+00  0.53999605501E+03  0.53999605502E+03  0.25500000000E-02 0.  1.
         -2   -1    0    0    0  501 -0.00000000000E+00 -0.00000000000E+00 -0.99110223956E+03  0.99110223956E+03  0.25500000000E-02 0. -1.
    -200001    2    1    2    0    0  0.15910763706E+03  0.26068169787E+03  0.45873126004E+02  0.68491414033E+03  0.61133693506E+03 0.  0.
   -5000001    2    3    3    0    0  0.11747815894E+03  0.36215242366E+03 -0.16873708218E+03  0.42359467474E+03  0.77490320511E+02 0.  0.
     200001    1    1    2    0    0 -0.15910763706E+03 -0.26068169787E+03 -0.49697931055E+03  0.84618415424E+03  0.61300000000E+03 0. -1.
         11    1    4    4    0    0  0.96561880641E+02  0.21079576824E+03 -0.11548168635E+03  0.25902716572E+03  0.51100000000E-03 0.  1.
    -200002    1    4    4    0    0  0.20916278300E+02  0.15135665543E+03 -0.53255395831E+02  0.16456750902E+03  0.30000000000E+02 0.  1.
    -200000    1    3    3    0    0  0.41629478117E+02 -0.10147072579E+03  0.21461020818E+03  0.26131946559E+03  0.10100000000E+03 0.  1.
<mgrwt>
<rscale>  0 0.14631354E+04</rscale>
<asrwt>0</asrwt>
<pdfrwt beam="1">  1        2 0.77142294E-01 0.14631354E+04</pdfrwt>
<pdfrwt beam="2">  1       -2 0.14158603E+00 0.14631354E+04</pdfrwt>
<totfact> 0.20781845E+01</totfact>
</mgrwt>
</event>
<event>
 8    2  0.7237260E-052  0.1814231E+04  0.7818608E-02  0.8698768E-01
          2   -1    0    0  501    0  0.00000000000E+00  0.00000000000E+00  0.35866384405E+04  0.35866384405E+04  0.25500000000E-02 0.  1.
         -2   -1    0    0    0  501 -0.00000000000E+00 -0.00000000000E+00 -0.22942335503E+03  0.22942335505E+03  0.25500000000E-02 0. -1.
    -200001    2    1    2    0    0 -0.45157417007E+02  0.49447778108E+03  0.73605376409E+03  0.10787632841E+04  0.61270515840E+03 0.  0.
   -5000001    2    3    3    0    0  0.10239592696E+03 -0.10544975344E+03  0.18122716429E+03  0.24227144798E+03  0.65173561168E+02 0.  0.
     200001    1    1    2    0    0  0.45157417007E+02 -0.49447778108E+03  0.26211613214E+04  0.27372985115E+04  0.61300000000E+03 0. -1.
         11    1    4    4    0    0  0.30412066699E+02 -0.51442077010E+02  0.39166433718E+02  0.71450616641E+02  0.51100000000E-03 0.  1.
    -200002    1    4    4    0    0  0.71983860257E+02 -0.54007676427E+02  0.14206073057E+03  0.17082083134E+03  0.30000000000E+02 0.  1.
    -200000    1    3    3    0    0 -0.14755334396E+03  0.59992753451E+03  0.55482659981E+03  0.83649183609E+03  0.10100000000E+03 0.  1.
<mgrwt>
<rscale>  0 0.18142311E+04</rscale>
<asrwt>0</asrwt>
<pdfrwt beam="1">  1        2 0.51237690E+00 0.18142311E+04</pdfrwt>
<pdfrwt beam="2">  1       -2 0.32774767E-01 0.18142311E+04</pdfrwt>
<totfact> 0.87746374E+00</totfact>
</mgrwt>
</event>
<event>
 8    2  0.7237260E-052  0.1351952E+04  0.7818608E-02  0.8989352E-01
          2   -1    0    0  501    0  0.00000000000E+00  0.00000000000E+00  0.18924839941E+04  0.18924839941E+04  0.25500000000E-02 0.  1.
         -2   -1    0    0    0  501 -0.00000000000E+00 -0.00000000000E+00 -0.24145161427E+03  0.24145161429E+03  0.25500000000E-02 0. -1.
    -200001    2    1    2    0    0  0.10405388060E+03 -0.15634489328E+03  0.48986897923E+03  0.80753431971E+03  0.61389667288E+03 0.  0.
   -5000001    2    3    3    0    0 -0.23433602781E+03  0.23104130213E+02  0.22305104252E+03  0.32993355181E+03  0.60474840040E+02 0.  0.
     200001    1    1    2    0    0 -0.10405388060E+03  0.15634489328E+03  0.11611634006E+04  0.13264012887E+04  0.61300000000E+03 0.  1.
         11    1    4    4    0    0 -0.13696445343E+03 -0.10961827262E+01  0.10857106302E+03  0.17478025874E+03  0.51100000000E-03 0.  1.
    -200002    1    4    4    0    0 -0.97371574379E+02  0.24200312939E+02  0.11447997951E+03  0.15515329307E+03  0.30000000000E+02 0. -1.
    -200000    1    3    3    0    0  0.33838990841E+03 -0.17944902349E+03  0.26681793671E+03  0.47760076790E+03  0.10100000000E+03 0. -1.
<mgrwt>
<rscale>  0 0.13519516E+04</rscale>
<asrwt>0</asrwt>
<pdfrwt beam="1">  1        2 0.27035484E+00 0.13519516E+04</pdfrwt>
<pdfrwt beam="2">  1       -2 0.34493090E-01 0.13519516E+04</pdfrwt>
<totfact> 0.70175311E+01</totfact>
</mgrwt>
</event>
<event>
 8    2  0.7237260E-052  0.1519823E+04  0.7818608E-02  0.8871377E-01
          2   -1    0    0  501    0  0.00000000000E+00  0.00000000000E+00  0.15006803801E+04  0.15006803801E+04  0.25500000000E-02 0.  1.
         -2   -1    0    0    0  501 -0.00000000000E+00 -0.00000000000E+00 -0.38480252689E+03  0.38480252690E+03  0.25500000000E-02 0. -1.
    -200001    2    1    2    0    0  0.27154708456E+03  0.34072630826E+03  0.69248427532E+03  0.10224282401E+04  0.61318251634E+03 0.  0.
   -5000001    2    3    3    0    0  0.19379175296E+03  0.34049075348E+03  0.96130349761E+02  0.41260453477E+03  0.86673301807E+02 0.  0.
     200001    1    1    2    0    0 -0.27154708456E+03 -0.34072630826E+03  0.42339357794E+03  0.86305466693E+03  0.61300000000E+03 0. -1.
         11    1    4    4    0    0  0.10644795934E+03  0.16034590673E+03  0.83432394862E+02  0.20976878311E+03  0.51100000000E-03 0.  1.
    -200002    1    4    4    0    0  0.87343793618E+02  0.18014484674E+03  0.12697954898E+02  0.20283575166E+03  0.30000000000E+02 0.  1.
    -200000    1    3    3    0    0  0.77755331596E+02  0.23555478110E+00  0.59635392556E+03  0.60982370535E+03  0.10100000000E+03 0.  1.
<mgrwt>
<rscale>  0 0.15198232E+04</rscale>
<asrwt>0</asrwt>
<pdfrwt beam="1">  1        2 0.21438291E+00 0.15198232E+04</pdfrwt>
<pdfrwt beam="2">  1       -2 0.54971791E-01 0.15198232E+04</pdfrwt>
<totfact> 0.43921609E+01</totfact>
</mgrwt>
</event>
<event>
 8    2  0.7237260E-052  0.1500193E+04  0.7818608E-02  0.8884324E-01
          2   -1    0    0  501    0  0.00000000000E+00  0.00000000000E+00  0.17024152234E+04  0.17024152234E+04  0.25500000000E-02 0.  1.
         -2   -1    0    0    0  501 -0.00000000000E+00 -0.00000000000E+00 -0.33049810159E+03  0.33049810160E+03  0.25500000000E-02 0. -1.
    -200001    2    1    2    0    0 -0.13564291850E+03 -0.35819020227E+03  0.96042560393E+03  0.12011720842E+04  0.61130827967E+03 0.  0.
   -5000001    2    3    3    0    0 -0.34563173743E+03 -0.91161278522E+02  0.53873053852E+03  0.65032956732E+03  0.70187437481E+02 0.  0.
     200001    1    1    2    0    0  0.13564291850E+03  0.35819020227E+03  0.41149151783E+03  0.83174124076E+03  0.61300000000E+03 0. -1.
         11    1    4    4    0    0 -0.13641512760E+03 -0.62502300993E+02  0.24564643715E+03  0.28785030268E+03  0.51100000000E-03 0.  1.
    -200002    1    4    4    0    0 -0.20921660982E+03 -0.28658977529E+02  0.29308410137E+03  0.36247926464E+03  0.30000000000E+02 0.  1.
    -200000    1    3    3    0    0  0.20998881893E+03 -0.26702892375E+03  0.42169506541E+03  0.55084251686E+03  0.10100000000E+03 0. -1.
<mgrwt>
<rscale>  0 0.15001933E+04</rscale>
<asrwt>0</asrwt>
<pdfrwt beam="1">  1        2 0.24320217E+00 0.15001933E+04</pdfrwt>
<pdfrwt beam="2">  1       -2 0.47214015E-01 0.15001933E+04</pdfrwt>
<totfact> 0.47042205E+01</totfact>
</mgrwt>
</event>
<event>
 8    2  0.7237260E-052  0.1483916E+04  0.7818608E-02  0.8895219E-01
          2   -1    0    0  501    0  0.00000000000E+00  0.00000000000E+00  0.84306224906E+03  0.84306224906E+03  0.25500000000E-02 0.  1.
         -2   -1    0    0    0  501 -0.00000000000E+00 -0.00000000000E+00 -0.65297888718E+03  0.65297888718E+03  0.25500000000E-02 0. -1.
    -200001    2    1    2    0    0 -0.27434212118E+02 -0.30248889958E+03  0.38526945333E+03  0.78462088023E+03  0.61232769304E+03 0.  0.
   -5000001    2    3    3    0    0 -0.29102316409E+03 -0.66476423839E+02  0.12608297465E+03  0.33455460174E+03  0.83164103370E+02 0.  0.
     200001    1    1    2    0    0  0.27434212118E+02  0.30248889958E+03 -0.19518609145E+03  0.71142025601E+03  0.61300000000E+03 0. -1.
         11    1    4    4    0    0 -0.24907711682E+03 -0.44261637588E+02  0.93963981760E+02  0.26986613822E+03  0.51100000000E-03 0.  1.
    -200002    1    4    4    0    0 -0.41946047262E+02 -0.22214786251E+02  0.32118992889E+02  0.64688463525E+02  0.30000000000E+02 0. -1.
    -200000    1    3    3    0    0  0.26358895197E+03 -0.23601247574E+03  0.25918647868E+03  0.45006627849E+03  0.10100000000E+03 0.  1.
<mgrwt>
<rscale>  0 0.14839162E+04</rscale>
<asrwt>0</asrwt>
<pdfrwt beam="1">  1        2 0.12043746E+00 0.14839162E+04</pdfrwt>
<pdfrwt beam="2">  1       -2 0.93282698E-01 0.14839162E+04</pdfrwt>
<totfact> 0.33462598E+01</totfact>
</mgrwt>
</event>
<event>
 8    2  0.7237260E-052  0.1658647E+04  0.7818608E-02  0.8785308E-01
          2   -1    0    0  501    0  0.00000000000E+00  0.00000000000E+00  0.28011423221E+04  0.28011423221E+04  0.25500000000E-02 0.  1.
         -2   -1    0    0    0  501 -0.00000000000E+00 -0.00000000000E+00 -0.24553453575E+03  0.24553453576E+03  0.25500000000E-02 0. -1.
    -200001    2    1    2    0    0 -0.55305367039E+03 -0.80751170317E+01  0.14326234553E+04  0.16528345505E+04  0.61116161281E+03 0.  0.
   -5000001    2    3    3    0    0 -0.38056786271E+03  0.24914279189E+03  0.61977321122E+03  0.77714115339E+03  0.11369041331E+03 0.  0.
     200001    1    1    2    0    0  0.55305367039E+03  0.80751170317E+01  0.11229843310E+04  0.13938423073E+04  0.61300000000E+03 0. -1.
         11    1    4    4    0    0 -0.69205564007E+02  0.99062031151E+02  0.18380936488E+03  0.21997404102E+03  0.51100000000E-03 0.  1.
    -200002    1    4    4    0    0 -0.31136229870E+03  0.15008076074E+03  0.43596384634E+03  0.55716711237E+03  0.30000000000E+02 0.  1.
    -200000    1    3    3    0    0 -0.17248580768E+03 -0.25721790892E+03  0.81285024405E+03  0.87569339713E+03  0.10100000000E+03 0. -1.
<mgrwt>
<rscale>  0 0.16586467E+04</rscale>
<asrwt>0</asrwt>
<pdfrwt beam="1">  1        2 0.40016319E+00 0.16586467E+04</pdfrwt>
<pdfrwt beam="2">  1       -2 0.35076362E-01 0.16586467E+04</pdfrwt>
<totfact> 0.22223810E+01</totfact>
</mgrwt>
</event>
<event>
 8    2  0.7237260E-052  0.2017678E+04  0.7818608E-02  0.8598400E-01
          2   -1    0    0  501    0  0.00000000000E+00  0.00000000000E+00  0.30089760131E+04  0.30089760131E+04  0.25500000000E-02 0.  1.
         -2   -1    0    0    0  501 -0.00000000000E+00 -0.00000000000E+00 -0.33823992257E+03  0.33823992258E+03  0.25500000000E-02 0. -1.
    -200001    2    1    2    0    0 -0.23383721318E+02  0.52572036294E+03  0.23380490486E+04  0.24735006695E+04  0.61221198137E+03 0.  0.
   -5000001    2    3    3    0    0  0.11723556275E+03  0.56796455933E+03  0.20737213634E+04  0.21547084483E+04  0.78232258006E+02 0.  0.
     200001    1    1    2    0    0  0.23383721318E+02 -0.52572036294E+03  0.33268704193E+03  0.87371526615E+03  0.61300000000E+03 0. -1.
         11    1    4    4    0    0  0.88314079293E+02  0.45996968967E+03  0.16086733482E+04  0.16754705110E+04  0.51100000000E-03 0.  1.
    -200002    1    4    4    0    0  0.28921483457E+02  0.10799486966E+03  0.46504801514E+03  0.47923793722E+03  0.30000000000E+02 0.  1.
    -200000    1    3    3    0    0 -0.14061928407E+03 -0.42244196391E+02  0.26432768520E+03  0.31879222127E+03  0.10100000000E+03 0. -1.
<mgrwt>
<rscale>  0 0.20176777E+04</rscale>
<asrwt>0</asrwt>
<pdfrwt beam="1">  1        2 0.42985371E+00 0.20176777E+04</pdfrwt>
<pdfrwt beam="2">  1       -2 0.48319989E-01 0.20176777E+04</pdfrwt>
<totfact> 0.88161657E+00</totfact>
</mgrwt>
</event>
<event>
 8    2  0.7237260E-052  0.1338508E+04  0.7818608E-02  0.8999574E-01
          2   -1    0    0  501    0  0.00000000000E+00  0.00000000000E+00  0.60389125236E+03  0.60389125237E+03  0.25500000000E-02 0.  1.
         -2   -1    0    0    0  501 -0.00000000000E+00 -0.00000000000E+00 -0.74169090907E+03  0.74169090908E+03  0.25500000000E-02 0. -1.
    -200001    2    1    2    0    0  0.47227519697E+02  0.72266686341E+02  0.18475666571E+03  0.64753882919E+03  0.61458815252E+03 0.  0.
   -5000001    2    3    3    0    0  0.21833757922E+03 -0.17962611620E+03  0.42943943247E+02  0.29676755801E+03  0.79309275027E+02 0.  0.
     200001    1    1    2    0    0 -0.47227519697E+02 -0.72266686341E+02 -0.32255632242E+03  0.69804333225E+03  0.61300000000E+03 0. -1.
         11    1    4    4    0    0  0.19287029516E+03 -0.14854231283E+03  0.33444413152E+02  0.24572809816E+03  0.51100000000E-03 0.  1.
    -200002    1    4    4    0    0  0.25467284056E+02 -0.31083803370E+02  0.94995300947E+01  0.51039459844E+02  0.30000000000E+02 0. -1.
    -200000    1    3    3    0    0 -0.17111005952E+03  0.25189280254E+03  0.14181272246E+03  0.35077127119E+03  0.10100000000E+03 0. -1.
<mgrwt>
<rscale>  0 0.13385076E+04</rscale>
<asrwt>0</asrwt>
<pdfrwt beam="1">  1        2 0.86270179E-01 0.13385076E+04</pdfrwt>
<pdfrwt beam="2">  1       -2 0.10595584E+00 0.13385076E+04</pdfrwt>
<totfact> 0.37918840E+01</totfact>
</mgrwt>
</event>
<event>
 8    2  0.7237260E-052  0.1677085E+04  0.7818608E-02  0.8774542E-01
         -2   -1    0    0    0  501 -0.00000000000E+00  0.00000000000E+00  0.27838236074E+03  0.27838236076E+03  0.25500000000E-02 0. -1.
          2   -1    0    0  501    0  0.00000000000E+00 -0.00000000000E+00 -0.25258558743E+04  0.25258558743E+04  0.25500000000E-02 0.  1.
    -200001    2    1    2    0    0  0.27254965390E+03  0.44974143612E+03 -0.14998643063E+04  0.17036751065E+04  0.61348615145E+03 0.  0.
   -5000001    2    3    3    0    0  0.65158953373E+02 -0.72153044202E+02 -0.75509773818E+03  0.76545178967E+03  0.79322740225E+02 0.  0.
     200001    1    1    2    0    0 -0.27254965390E+03 -0.44974143612E+03 -0.74760920735E+03  0.11005631286E+04  0.61300000000E+03 0. -1.
         11    1    4    4    0    0  0.48560280752E+02 -0.51948336725E+01 -0.35500236746E+03  0.35834587771E+03  0.51100000000E-03 0.  1.
    -200002    1    4    4    0    0  0.16598672621E+02 -0.66958210529E+02 -0.40009537072E+03  0.40710591197E+03  0.30000000000E+02 0.  1.
    -200000    1    3    3    0    0  0.20739070052E+03  0.52189448032E+03 -0.74476656807E+03  0.93822331679E+03  0.10100000000E+03 0. -1.
<mgrwt>
<rscale>  0 0.16770852E+04</rscale>
<asrwt>0</asrwt>
<pdfrwt beam="1">  1        2 0.36083654E+00 0.16770852E+04</pdfrwt>
<pdfrwt beam="2">  1       -2 0.39768910E-01 0.16770852E+04</pdfrwt>
<totfact> 0.24432813E+01</totfact>
</mgrwt>
</event>
<event>
 8    2  0.7237260E-052  0.1871150E+04  0.7818608E-02  0.8669352E-01
          2   -1    0    0  501    0  0.00000000000E+00  0.00000000000E+00  0.10611423941E+04  0.10611423941E+04  0.25500000000E-02 0.  1.
         -2   -1    0    0    0  501 -0.00000000000E+00 -0.00000000000E+00 -0.82486591819E+03  0.82486591820E+03  0.25500000000E-02 0. -1.
    -200001    2    1    2    0    0  0.65838738402E+03  0.41945360837E+02  0.37289138611E+03  0.97514828224E+03  0.61370418426E+03 0.  0.
   -5000001    2    3    3    0    0  0.22561924143E+03 -0.26833579724E+03  0.17891182887E+03  0.39948194578E+03  0.68324522019E+02 0.  0.
     200001    1    1    2    0    0 -0.65838738402E+03 -0.41945360837E+02 -0.13661491017E+03  0.91086003009E+03  0.61300000000E+03 0. -1.
         11    1    4    4    0    0  0.43898704128E+01  0.15077612957E+01 -0.22692843325E+01  0.51666195920E+01  0.51100000000E-03 0.  1.
    -200002    1    4    4    0    0  0.22122937102E+03 -0.26984355854E+03  0.18118111321E+03  0.39431532619E+03  0.30000000000E+02 0.  1.
    -200000    1    3    3    0    0  0.43276814259E+03  0.31028115808E+03  0.19397955724E+03  0.57566633646E+03  0.10100000000E+03 0. -1.
<mgrwt>
<rscale>  0 0.18711496E+04</rscale>
<asrwt>0</asrwt>
<pdfrwt beam="1">  1        2 0.15159177E+00 0.18711496E+04</pdfrwt>
<pdfrwt beam="2">  1       -2 0.11783799E+00 0.18711496E+04</pdfrwt>
<totfact> 0.13486017E+01</totfact>
</mgrwt>
</event>
<event>
 8    2  0.7237260E-052  0.1309405E+04  0.7818608E-02  0.9022140E-01
          2   -1    0    0  501    0  0.00000000000E+00  0.00000000000E+00  0.12884606866E+04  0.12884606866E+04  0.25500000000E-02 0. -1.
         -2   -1    0    0    0  501 -0.00000000000E+00 -0.00000000000E+00 -0.33267266910E+03  0.33267266911E+03  0.25500000000E-02 0.  1.
    -200001    2    1    2    0    0 -0.18628574530E+03 -0.20336072748E+02  0.62827022578E+03  0.90130501600E+03  0.61847499587E+03 0.  0.
   -5000001    2    3    3    0    0 -0.23145790974E+02  0.93766178829E+02  0.56444765201E+02  0.28744890430E+03  0.26478866504E+03 0.  0.
     200001    1    1    2    0    0  0.18628574530E+03  0.20336072748E+02  0.32751779175E+03  0.71982833972E+03  0.61300000000E+03 0.  1.
         11    1    4    4    0    0 -0.90741396212E+02  0.12320630088E+02  0.12713627040E+03  0.15668257773E+03  0.51100000000E-03 0.  1.
    -200002    1    4    4    0    0  0.67595605237E+02  0.81445548741E+02 -0.70691505201E+02  0.13076632657E+03  0.30000000000E+02 0.  1.
    -200000    1    3    3    0    0 -0.16313995433E+03 -0.11410225158E+03  0.57182546058E+03  0.61385611170E+03  0.10100000000E+03 0. -1.
<mgrwt>
<rscale>  0 0.13094054E+04</rscale>
<asrwt>0</asrwt>
<pdfrwt beam="1">  1        2 0.18406581E+00 0.13094054E+04</pdfrwt>
<pdfrwt beam="2">  1       -2 0.47524666E-01 0.13094054E+04</pdfrwt>
<totfact> 0.78327302E+01</totfact>
</mgrwt>
</event>
<event>
 8    2  0.7237260E-052  0.1849229E+04  0.7818608E-02  0.8680549E-01
         -2   -1    0    0    0  501 -0.00000000000E+00  0.00000000000E+00  0.23188725266E+03  0.23188725267E+03  0.25500000000E-02 0. -1.
          2   -1    0    0  501    0  0.00000000000E+00 -0.00000000000E+00 -0.36867588216E+04  0.36867588216E+04  0.25500000000E-02 0.  1.
    -200001    2    1    2    0    0  0.25148351947E+03  0.58883224682E+03 -0.11711171018E+04  0.14688969357E+04  0.61333153048E+03 0.  0.
   -5000001    2    3    3    0    0  0.21967015583E+03  0.48007140430E+03 -0.11769991864E+04  0.13169870615E+04  0.26533809517E+03 0.  0.
     200001    1    1    2    0    0 -0.25148351947E+03 -0.58883224682E+03 -0.22837544672E+04  0.24497491386E+04  0.61300000000E+03 0.  1.
         11    1    4    4    0    0  0.12128596652E+02  0.34216969227E+02 -0.36781265439E+03  0.36959985467E+03  0.51100000000E-03 0.  1.
    -200002    1    4    4    0    0  0.20754155917E+03  0.44585443507E+03 -0.80918653200E+03  0.94738720681E+03  0.30000000000E+02 0.  1.
    -200000    1    3    3    0    0  0.31813363639E+02  0.10876084252E+03  0.58820846370E+01  0.15190987424E+03  0.10100000000E+03 0. -1.
<mgrwt>
<rscale>  0 0.18492294E+04</rscale>
<asrwt>0</asrwt>
<pdfrwt beam="1">  1        2 0.52667980E+00 0.18492294E+04</pdfrwt>
<pdfrwt beam="2">  1       -2 0.33126753E-01 0.18492294E+04</pdfrwt>
<totfact> 0.74169095E+00</totfact>
</mgrwt>
</event>
<event>
 8    2  0.7237260E-052  0.1420116E+04  0.7818608E-02  0.8939385E-01
          2   -1    0    0  501    0  0.00000000000E+00  0.00000000000E+00  0.12633087521E+04  0.12633087521E+04  0.25500000000E-02 0.  1.
         -2   -1    0    0    0  501 -0.00000000000E+00 -0.00000000000E+00 -0.39909643352E+03  0.39909643353E+03  0.25500000000E-02 0. -1.
    -200001    2    1    2    0    0 -0.22090591345E+03  0.27131079930E+03  0.34530879757E+03  0.78636932076E+03  0.61378299956E+03 0.  0.
   -5000001    2    3    3    0    0 -0.24361236552E+03  0.35567339679E+03  0.29575877956E+03  0.64393043876E+03  0.37592898859E+03 0.  0.
     200001    1    1    2    0    0  0.22090591345E+03 -0.27131079930E+03  0.51890352099E+03  0.87603586485E+03  0.61300000000E+03 0.  1.
         11    1    4    4    0    0 -0.17706681009E+03  0.17829045945E+03  0.36229279427E+03  0.44090385794E+03  0.51100000000E-03 0.  1.
    -200002    1    4    4    0    0 -0.66545555427E+02  0.17738293734E+03 -0.66534014712E+02  0.20302658082E+03  0.30000000000E+02 0.  1.
    -200000    1    3    3    0    0  0.22706452070E+02 -0.84362597491E+02  0.49550018009E+02  0.14243888200E+03  0.10100000000E+03 0. -1.
<mgrwt>
<rscale>  0 0.14201155E+04</rscale>
<asrwt>0</asrwt>
<pdfrwt beam="1">  1        2 0.18047268E+00 0.14201155E+04</pdfrwt>
<pdfrwt beam="2">  1       -2 0.57013776E-01 0.14201155E+04</pdfrwt>
<totfact> 0.55222977E+01</totfact>
</mgrwt>
</event>
<event>
 8    2  0.7237260E-052  0.1564170E+04  0.7818608E-02  0.8842867E-01
         -2   -1    0    0    0  501 -0.00000000000E+00  0.00000000000E+00  0.82725026598E+03  0.82725026598E+03  0.25500000000E-02 0. -1.
          2   -1    0    0  501    0  0.00000000000E+00 -0.00000000000E+00 -0.73938522471E+03  0.73938522471E+03  0.25500000000E-02 0.  1.
    -200001    2    1    2    0    0 -0.42868353019E+02 -0.13002775682E+03  0.51082859749E+03  0.80939571155E+03  0.61272395793E+03 0.  0.
   -5000001    2    3    3    0    0  0.23287485988E+03  0.26715868395E+02  0.22421995870E+03  0.37013679549E+03  0.17827568400E+03 0.  0.
     200001    1    1    2    0    0  0.42868353019E+02  0.13002775682E+03 -0.42296355622E+03  0.75723977915E+03  0.61300000000E+03 0.  1.
         11    1    4    4    0    0  0.51806361501E+02  0.64499413065E+02  0.66502800711E+01  0.82995780634E+02  0.51100000000E-03 0.  1.
    -200002    1    4    4    0    0  0.18106849838E+03 -0.37783544671E+02  0.21756967863E+03  0.28714101486E+03  0.30000000000E+02 0.  1.
    -200000    1    3    3    0    0 -0.27574321290E+03 -0.15674362522E+03  0.28660863879E+03  0.43925891606E+03  0.10100000000E+03 0. -1.
<mgrwt>
<rscale>  0 0.15641696E+04</rscale>
<asrwt>0</asrwt>
<pdfrwt beam="1">  1        2 0.10562646E+00 0.15641696E+04</pdfrwt>
<pdfrwt beam="2">  1       -2 0.11817861E+00 0.15641696E+04</pdfrwt>
<totfact> 0.22340719E+01</totfact>
</mgrwt>
</event>
<event>
 8    2  0.7237260E-052  0.1727365E+04  0.7818608E-02  0.8745909E-01
          2   -1    0    0  501    0  0.00000000000E+00  0.00000000000E+00  0.83221950574E+03  0.83221950574E+03  0.25500000000E-02 0.  1.
         -2   -1    0    0    0  501 -0.00000000000E+00 -0.00000000000E+00 -0.89633504900E+03  0.89633504900E+03  0.25500000000E-02 0. -1.
    -200001    2    1    2    0    0  0.49296359632E+03 -0.35023940429E+03 -0.12904649811E+01  0.86519093605E+03  0.61876727685E+03 0.  0.
   -5000001    2    3    3    0    0  0.23564119339E+03 -0.25569593366E+02 -0.26475959177E+03  0.36395018955E+03  0.78622661574E+02 0.  0.
     200001    1    1    2    0    0 -0.49296359632E+03  0.35023940429E+03 -0.62825078276E+02  0.86336361869E+03  0.61300000000E+03 0. -1.
         11    1    4    4    0    0  0.15971451659E+03 -0.39706449777E+02 -0.15204793943E+03  0.22406227895E+03  0.51100000000E-03 0.  1.
    -200002    1    4    4    0    0  0.75926676806E+02  0.14136856411E+02 -0.11271165234E+03  0.13988791060E+03  0.30000000000E+02 0. -1.
    -200000    1    3    3    0    0  0.25732240293E+03 -0.32466981093E+03  0.26346912679E+03  0.50124074650E+03  0.10100000000E+03 0.  1.
<mgrwt>
<rscale>  0 0.17273651E+04</rscale>
<asrwt>0</asrwt>
<pdfrwt beam="1">  1        2 0.11888850E+00 0.17273651E+04</pdfrwt>
<pdfrwt beam="2">  1       -2 0.12804786E+00 0.17273651E+04</pdfrwt>
<totfact> 0.15511160E+01</totfact>
</mgrwt>
</event>
<event>
 8    2  0.7237260E-052  0.1337264E+04  0.7818608E-02  0.9000526E-01
          2   -1    0    0  501    0  0.00000000000E+00  0.00000000000E+00  0.30901685178E+04  0.30901685178E+04  0.25500000000E-02 0.  1.
         -2   -1    0    0    0  501 -0.00000000000E+00 -0.00000000000E+00 -0.14467446057E+03  0.14467446059E+03  0.25500000000E-02 0. -1.
    -200001    2    1    2    0    0  0.24783755834E+03 -0.90754034773E+02  0.13721512563E+04  0.15257975374E+04  0.61286157066E+03 0.  0.
   -5000001    2    3    3    0    0  0.41016400364E+02 -0.10214502268E+02 -0.43506527203E+02  0.89291509672E+02  0.65524610909E+02 0.  0.
     200001    1    1    2    0    0 -0.24783755834E+03  0.90754034773E+02  0.15733428009E+04  0.17090454410E+04  0.61300000000E+03 0.  1.
         11    1    4    4    0    0 -0.11643466213E+02  0.40393728037E+01 -0.18431638183E+02  0.22172327899E+02  0.51100000000E-03 0.  1.
    -200002    1    4    4    0    0  0.52659866577E+02 -0.14253875072E+02 -0.25074889020E+02  0.67119181772E+02  0.30000000000E+02 0.  1.
    -200000    1    3    3    0    0  0.20682115797E+03 -0.80539532505E+02  0.14156577835E+04  0.14365060277E+04  0.10100000000E+03 0.  1.
<mgrwt>
<rscale>  0 0.13372636E+04</rscale>
<asrwt>0</asrwt>
<pdfrwt beam="1">  1        2 0.44145264E+00 0.13372636E+04</pdfrwt>
<pdfrwt beam="2">  1       -2 0.20667780E-01 0.13372636E+04</pdfrwt>
<totfact> 0.41770412E+01</totfact>
</mgrwt>
</event>
<event>
 8    2  0.7237260E-052  0.1403045E+04  0.7818608E-02  0.8951617E-01
          2   -1    0    0  501    0  0.00000000000E+00  0.00000000000E+00  0.19532711926E+04  0.19532711926E+04  0.25500000000E-02 0.  1.
         -2   -1    0    0    0  501 -0.00000000000E+00 -0.00000000000E+00 -0.25195382177E+03  0.25195382178E+03  0.25500000000E-02 0. -1.
    -200001    2    1    2    0    0  0.67606627516E+02  0.28076999102E+03  0.59252287374E+03  0.90576486465E+03  0.62122796958E+03 0.  0.
   -5000001    2    3    3    0    0  0.15769379975E+03  0.40601620498E+03  0.56353449851E+03  0.71910035647E+03  0.99084299869E+02 0.  0.
     200001    1    1    2    0    0 -0.67606627516E+02 -0.28076999102E+03  0.11087944971E+04  0.12994601497E+04  0.61300000000E+03 0.  1.
         11    1    4    4    0    0  0.39744284138E+02  0.93765239946E+02  0.74194544316E+02  0.12600142360E+03  0.51100000000E-03 0.  1.
    -200002    1    4    4    0    0  0.11794951561E+03  0.31225096503E+03  0.48933995420E+03  0.59309893287E+03  0.30000000000E+02 0.  1.
    -200000    1    3    3    0    0 -0.90087172236E+02 -0.12524621396E+03  0.28988375225E+02  0.18666450817E+03  0.10100000000E+03 0. -1.
<mgrwt>
<rscale>  0 0.14030455E+04</rscale>
<asrwt>0</asrwt>
<pdfrwt beam="1">  1        2 0.27903875E+00 0.14030455E+04</pdfrwt>
<pdfrwt beam="2">  1       -2 0.35993402E-01 0.14030455E+04</pdfrwt>
<totfact> 0.59968989E+01</totfact>
</mgrwt>
</event>
<event>
 8    2  0.7237260E-052  0.1361304E+04  0.7818608E-02  0.8982315E-01
         -2   -1    0    0    0  501 -0.00000000000E+00  0.00000000000E+00  0.46239435147E+03  0.46239435148E+03  0.25500000000E-02 0. -1.
          2   -1    0    0  501    0  0.00000000000E+00 -0.00000000000E+00 -0.10019315067E+04  0.10019315067E+04  0.25500000000E-02 0.  1.
    -200001    2    1    2    0    0  0.34884065214E+02 -0.29589583211E+03 -0.20714787906E+03  0.70602323232E+03  0.60562968826E+03 0.  0.
   -5000001    2    3    3    0    0  0.10493362594E+03 -0.38249957553E+03 -0.31313561634E+03  0.52206250339E+03  0.13106621264E+03 0.  0.
     200001    1    1    2    0    0 -0.34884065214E+02  0.29589583211E+03 -0.33238927615E+03  0.75830262584E+03  0.61300000000E+03 0.  1.
         11    1    4    4    0    0  0.54943117607E+02 -0.29416766761E+03 -0.17039818901E+03  0.34436739924E+03  0.51100000000E-03 0.  1.
    -200002    1    4    4    0    0  0.49990508330E+02 -0.88331907915E+02 -0.14273742733E+03  0.17769510415E+03  0.30000000000E+02 0.  1.
    -200000    1    3    3    0    0 -0.70049560723E+02  0.86603743419E+02  0.10598773728E+03  0.18396072892E+03  0.10100000000E+03 0.  1.
<mgrwt>
<rscale>  0 0.13613045E+04</rscale>
<asrwt>0</asrwt>
<pdfrwt beam="1">  1        2 0.14313307E+00 0.13613045E+04</pdfrwt>
<pdfrwt beam="2">  1       -2 0.66056336E-01 0.13613045E+04</pdfrwt>
<totfact> 0.57717100E+01</totfact>
</mgrwt>
</event>
<event>
 8    2  0.7237260E-052  0.1993693E+04  0.7818608E-02  0.8609575E-01
          2   -1    0    0  501    0  0.00000000000E+00  0.00000000000E+00  0.10081283673E+04  0.10081283673E+04  0.25500000000E-02 0.  1.
         -2   -1    0    0    0  501 -0.00000000000E+00 -0.00000000000E+00 -0.98569134648E+03  0.98569134649E+03  0.25500000000E-02 0. -1.
    -200001    2    1    2    0    0  0.16180864235E+03 -0.62353399883E+03  0.46177571126E+03  0.10019708496E+04  0.61296989450E+03 0.  0.
   -5000001    2    3    3    0    0  0.14127844037E+03  0.72829518184E+02  0.51760548922E+02  0.18731934723E+03  0.84531928811E+02 0.  0.
     200001    1    1    2    0    0 -0.16180864235E+03  0.62353399883E+03 -0.43933869043E+03  0.99184886417E+03  0.61300000000E+03 0. -1.
         11    1    4    4    0    0  0.18848640918E+02  0.47489463206E+02  0.20101899655E+02  0.54905434613E+02  0.51100000000E-03 0.  1.
    -200002    1    4    4    0    0  0.12242979946E+03  0.25340054978E+02  0.31658649267E+02  0.13241391262E+03  0.30000000000E+02 0.  1.
    -200000    1    3    3    0    0  0.20530201978E+02 -0.69636351701E+03  0.41001516234E+03  0.81465150240E+03  0.10100000000E+03 0.  1.
<mgrwt>
<rscale>  0 0.19936935E+04</rscale>
<asrwt>0</asrwt>
<pdfrwt beam="1">  1        2 0.14401834E+00 0.19936935E+04</pdfrwt>
<pdfrwt beam="2">  1       -2 0.14081305E+00 0.19936935E+04</pdfrwt>
<totfact> 0.91646291E+00</totfact>
</mgrwt>
</event>
<event>
 8    2  0.7237260E-052  0.1435146E+04  0.7818608E-02  0.8928764E-01
          2   -1    0    0  501    0  0.00000000000E+00  0.00000000000E+00  0.35329376550E+04  0.35329376550E+04  0.25500000000E-02 0.  1.
         -2   -1    0    0    0  501 -0.00000000000E+00 -0.00000000000E+00 -0.14574592494E+03  0.14574592496E+03  0.25500000000E-02 0. -1.
    -200001    2    1    2    0    0 -0.28014136407E+03 -0.18871112650E+03  0.21006212265E+04  0.22140594869E+04  0.61266532586E+03 0.  0.
   -5000001    2    3    3    0    0 -0.36513567182E+03  0.47235153834E+01  0.77430744803E+03  0.86722979025E+03  0.13852477969E+03 0.  0.
     200001    1    1    2    0    0  0.28014136407E+03  0.18871112650E+03  0.12865705036E+04  0.14646240930E+04  0.61300000000E+03 0. -1.
         11    1    4    4    0    0 -0.23728023650E+03 -0.46491009725E+01  0.34930193167E+03  0.42229771991E+03  0.51100000000E-03 0.  1.
    -200002    1    4    4    0    0 -0.12785543531E+03  0.93726163560E+01  0.42500551636E+03  0.44493207034E+03  0.30000000000E+02 0.  1.
    -200000    1    3    3    0    0  0.84994307741E+02 -0.19343464188E+03  0.13263137784E+04  0.13468296967E+04  0.10100000000E+03 0.  1.
<mgrwt>
<rscale>  0 0.14351464E+04</rscale>
<asrwt>0</asrwt>
<pdfrwt beam="1">  1        2 0.50470540E+00 0.14351464E+04</pdfrwt>
<pdfrwt beam="2">  1       -2 0.20820845E-01 0.14351464E+04</pdfrwt>
<totfact> 0.22486699E+01</totfact>
</mgrwt>
</event>
<event>
 8    2  0.7237260E-052  0.1851128E+04  0.7818608E-02  0.8679573E-01
          2   -1    0    0  501    0  0.00000000000E+00  0.00000000000E+00  0.28428649300E+04  0.28428649300E+04  0.25500000000E-02 0.  1.
         -2   -1    0    0    0  501 -0.00000000000E+00 -0.00000000000E+00 -0.30134001965E+03  0.30134001967E+03  0.25500000000E-02 0. -1.
    -200001    2    1    2    0    0 -0.16588210947E+03 -0.64756275644E+03  0.15814516072E+04  0.18234611649E+04  0.61413926429E+03 0.  0.
   -5000001    2    3    3    0    0 -0.20205408300E+03 -0.65268712442E+03  0.10230786504E+04  0.12548523101E+04  0.24726111773E+03 0.  0.
     200001    1    1    2    0    0  0.16588210947E+03  0.64756275644E+03  0.96007330313E+03  0.13207437848E+04  0.61300000000E+03 0.  1.
         11    1    4    4    0    0 -0.17577797794E+03 -0.18889105555E+03  0.31080661754E+03  0.40395356404E+03  0.51100000000E-03 0.  1.
    -200002    1    4    4    0    0 -0.26276105059E+02 -0.46379606887E+03  0.71227203285E+03  0.85089874602E+03  0.30000000000E+02 0.  1.
    -200000    1    3    3    0    0  0.36171973526E+02  0.51243679814E+01  0.55837295684E+03  0.56860885479E+03  0.10100000000E+03 0.  1.
<mgrwt>
<rscale>  0 0.18511283E+04</rscale>
<asrwt>0</asrwt>
<pdfrwt beam="1">  1        2 0.40612359E+00 0.18511283E+04</pdfrwt>
<pdfrwt beam="2">  1       -2 0.43048571E-01 0.18511283E+04</pdfrwt>
<totfact> 0.13926175E+01</totfact>
</mgrwt>
</event>
<event>
 8    2  0.7237260E-052  0.1375983E+04  0.7818608E-02  0.8971389E-01
          2   -1    0    0  501    0  0.00000000000E+00  0.00000000000E+00  0.17191978774E+04  0.17191978774E+04  0.25500000000E-02 0.  1.
         -2   -1    0    0    0  501 -0.00000000000E+00 -0.00000000000E+00 -0.27532173582E+03  0.27532173583E+03  0.25500000000E-02 0. -1.
    -200001    2    1    2    0    0 -0.29080767266E+03  0.59655812694E+02  0.86745473020E+03  0.11022424355E+04  0.61182739325E+03 0.  0.
   -5000001    2    3    3    0    0 -0.12020591676E+03  0.15887783178E+03  0.82147975005E+03  0.87582541538E+03  0.22923688756E+03 0.  0.
     200001    1    1    2    0    0  0.29080767266E+03 -0.59655812694E+02  0.57642141138E+03  0.89227717777E+03  0.61300000000E+03 0.  1.
         11    1    4    4    0    0 -0.15952127830E+03  0.18759657981E+03  0.65165844075E+03  0.69663350364E+03  0.51100000000E-03 0.  1.
    -200002    1    4    4    0    0  0.39315361536E+02 -0.28718748024E+02  0.16982130930E+03  0.17919191174E+03  0.30000000000E+02 0.  1.
    -200000    1    3    3    0    0 -0.17060175590E+03 -0.99222019088E+02  0.45974980146E+02  0.22641702009E+03  0.10100000000E+03 0. -1.
<mgrwt>
<rscale>  0 0.13759833E+04</rscale>
<asrwt>0</asrwt>
<pdfrwt beam="1">  1        2 0.24559969E+00 0.13759833E+04</pdfrwt>
<pdfrwt beam="2">  1       -2 0.39331677E-01 0.13759833E+04</pdfrwt>
<totfact> 0.66835384E+01</totfact>
</mgrwt>
</event>
<event>
 8    2  0.7237260E-052  0.1639807E+04  0.7818608E-02  0.8796459E-01
          2   -1    0    0  501    0  0.00000000000E+00  0.00000000000E+00  0.75224439981E+03  0.75224439981E+03  0.25500000000E-02 0.  1.
         -2   -1    0    0    0  501 -0.00000000000E+00 -0.00000000000E+00 -0.89364811649E+03  0.89364811649E+03  0.25500000000E-02 0. -1.
    -200001    2    1    2    0    0 -0.35477673313E+03 -0.41387023455E+03 -0.10372546011E+03  0.82470815672E+03  0.61010611476E+03 0.  0.
   -5000001    2    3    3    0    0  0.65419849319E+02 -0.25817041613E+03 -0.21973064281E+03  0.35092993458E+03  0.62757813444E+02 0.  0.
     200001    1    1    2    0    0  0.35477673313E+03  0.41387023455E+03 -0.37678256565E+02  0.82118435959E+03  0.61300000000E+03 0. -1.
         11    1    4    4    0    0  0.44065968717E+02 -0.99500072104E+02 -0.67990535622E+02  0.12831518570E+03  0.51100000000E-03 0.  1.
    -200002    1    4    4    0    0  0.21353880601E+02 -0.15867034403E+03 -0.15174010718E+03  0.22261474888E+03  0.30000000000E+02 0. -1.
    -200000    1    3    3    0    0 -0.42019658245E+03 -0.15569981842E+03  0.11600518269E+03  0.47377822213E+03  0.10100000000E+03 0. -1.
<mgrwt>
<rscale>  0 0.16398071E+04</rscale>
<asrwt>0</asrwt>
<pdfrwt beam="1">  1        2 0.10746349E+00 0.16398071E+04</pdfrwt>
<pdfrwt beam="2">  1       -2 0.12766402E+00 0.16398071E+04</pdfrwt>
<totfact> 0.17919511E+01</totfact>
</mgrwt>
</event>
<event>
 8    2  0.7237260E-052  0.1500811E+04  0.7818608E-02  0.8883914E-01
          2   -1    0    0  501    0  0.00000000000E+00  0.00000000000E+00  0.39369524613E+04  0.39369524613E+04  0.25500000000E-02 0.  1.
         -2   -1    0    0    0  501 -0.00000000000E+00 -0.00000000000E+00 -0.14303153810E+03  0.14303153812E+03  0.25500000000E-02 0. -1.
    -200001    2    1    2    0    0  0.38791620506E+03  0.92802461333E+01  0.24172621630E+04  0.25238595034E+04  0.61330687515E+03 0.  0.
   -5000001    2    3    3    0    0  0.12056817068E+03  0.19015184796E+03  0.18393097718E+04  0.18542182006E+04  0.66108168732E+02 0.  0.
     200001    1    1    2    0    0 -0.38791620506E+03 -0.92802461333E+01  0.13766587602E+04  0.15561244961E+04  0.61300000000E+03 0.  1.
         11    1    4    4    0    0  0.44077463731E+02  0.66950819282E+02  0.86680400155E+03  0.87050239065E+03  0.51100000000E-03 0.  1.
    -200002    1    4    4    0    0  0.76490706948E+02  0.12320102868E+03  0.97250577022E+03  0.98371580999E+03  0.30000000000E+02 0. -1.
    -200000    1    3    3    0    0  0.26734803438E+03 -0.18087160183E+03  0.57795239120E+03  0.66964130273E+03  0.10100000000E+03 0. -1.
<mgrwt>
<rscale>  0 0.15008109E+04</rscale>
<asrwt>0</asrwt>
<pdfrwt beam="1">  1        2 0.56242172E+00 0.15008109E+04</pdfrwt>
<pdfrwt beam="2">  1       -2 0.20433079E-01 0.15008109E+04</pdfrwt>
<totfact> 0.12740977E+01</totfact>
</mgrwt>
</event>
<event>
 8    2  0.7237260E-052  0.1560191E+04  0.7818608E-02  0.8845385E-01
          2   -1    0    0  501    0  0.00000000000E+00  0.00000000000E+00  0.13997578062E+04  0.13997578062E+04  0.25500000000E-02 0.  1.
         -2   -1    0    0    0  501 -0.00000000000E+00 -0.00000000000E+00 -0.43475285316E+03  0.43475285317E+03  0.25500000000E-02 0. -1.
    -200001    2    1    2    0    0  0.82785732886E+02 -0.45992028716E+03  0.62326777505E+03  0.99134196516E+03  0.61311991027E+03 0.  0.
   -5000001    2    3    3    0    0  0.34498643260E+01  0.12420051651E+03  0.41609915333E+02  0.15706493738E+03  0.86604501227E+02 0.  0.
     200001    1    1    2    0    0 -0.82785732886E+02  0.45992028716E+03  0.34173717802E+03  0.84316869424E+03  0.61300000000E+03 0.  1.
         11    1    4    4    0    0 -0.21748281102E+02  0.37135726280E+02 -0.15584794013E+02  0.45770467574E+02  0.51100000000E-03 0.  1.
    -200002    1    4    4    0    0  0.25198145428E+02  0.87064790234E+02  0.57194709346E+02  0.11129446980E+03  0.30000000000E+02 0.  1.
    -200000    1    3    3    0    0  0.79335868560E+02 -0.58412080367E+03  0.58165785972E+03  0.83427702778E+03  0.10100000000E+03 0. -1.
<mgrwt>
<rscale>  0 0.15601906E+04</rscale>
<asrwt>0</asrwt>
<pdfrwt beam="1">  1        2 0.19996541E+00 0.15601906E+04</pdfrwt>
<pdfrwt beam="2">  1       -2 0.62107549E-01 0.15601906E+04</pdfrwt>
<totfact> 0.38383305E+01</totfact>
</mgrwt>
</event>
<event>
 8    2  0.7237260E-052  0.1352068E+04  0.7818608E-02  0.8989264E-01
          2   -1    0    0  501    0  0.00000000000E+00  0.00000000000E+00  0.25286196768E+04  0.25286196768E+04  0.25500000000E-02 0.  1.
         -2   -1    0    0    0  501 -0.00000000000E+00 -0.00000000000E+00 -0.18073975370E+03  0.18073975372E+03  0.25500000000E-02 0. -1.
    -200001    2    1    2    0    0  0.18670245776E+03  0.11726622501E+02  0.15966512807E+04  0.17218834589E+04  0.61692139887E+03 0.  0.
   -5000001    2    3    3    0    0  0.16238276878E+03  0.52895126646E+02  0.15977934034E+04  0.16101310654E+04  0.10204033368E+03 0.  0.
     200001    1    1    2    0    0 -0.18670245776E+03 -0.11726622501E+02  0.75122864239E+03  0.98747597163E+03  0.61300000000E+03 0. -1.
         11    1    4    4    0    0  0.10747345668E+03 -0.18481419658E+01  0.11211975776E+04  0.11263383007E+04  0.51100000000E-03 0.  1.
    -200002    1    4    4    0    0  0.54909312093E+02  0.54743268611E+02  0.47659582580E+03  0.48379276471E+03  0.30000000000E+02 0.  1.
    -200000    1    3    3    0    0  0.24319688979E+02 -0.41168504145E+02 -0.11421227224E+01  0.11175239349E+03  0.10100000000E+03 0. -1.
<mgrwt>
<rscale>  0 0.13520682E+04</rscale>
<asrwt>0</asrwt>
<pdfrwt beam="1">  1        2 0.36123140E+00 0.13520682E+04</pdfrwt>
<pdfrwt beam="2">  1       -2 0.25819964E-01 0.13520682E+04</pdfrwt>
<totfact> 0.56448166E+01</totfact>
</mgrwt>
</event>
<event>
 8    2  0.7237260E-052  0.1624242E+04  0.7818608E-02  0.8805792E-01
          2   -1    0    0  501    0  0.00000000000E+00  0.00000000000E+00  0.30989397820E+04  0.30989397820E+04  0.25500000000E-02 0.  1.
         -2   -1    0    0    0  501 -0.00000000000E+00 -0.00000000000E+00 -0.21282786881E+03  0.21282786883E+03  0.25500000000E-02 0. -1.
    -200001    2    1    2    0    0  0.41417110946E+03  0.88751832070E+02  0.78165884180E+03  0.10793012288E+04  0.61195261419E+03 0.  0.
   -5000001    2    3    3    0    0  0.30677608082E+02  0.58929447856E+02 -0.70092664472E+02  0.13928087340E+03  0.10036127053E+03 0.  0.
     200001    1    1    2    0    0 -0.41417110946E+03 -0.88751832070E+02  0.21044530714E+04  0.22324664220E+04  0.61300000000E+03 0. -1.
         11    1    4    4    0    0  0.49663879114E+02  0.33640383657E+02 -0.74297048905E+02  0.95489411860E+02  0.51100000000E-03 0.  1.
    -200002    1    4    4    0    0 -0.18986271032E+02  0.25289064198E+02  0.42043844329E+01  0.43791461544E+02  0.30000000000E+02 0.  1.
    -200000    1    3    3    0    0  0.38349350138E+03  0.29822384215E+02  0.85175150627E+03  0.94002035544E+03  0.10100000000E+03 0.  1.
<mgrwt>
<rscale>  0 0.16242423E+04</rscale>
<asrwt>0</asrwt>
<pdfrwt beam="1">  1        2 0.44270571E+00 0.16242423E+04</pdfrwt>
<pdfrwt beam="2">  1       -2 0.30403979E-01 0.16242423E+04</pdfrwt>
<totfact> 0.19974744E+01</totfact>
</mgrwt>
</event>
<event>
 8    2  0.7237260E-052  0.1389663E+04  0.7818608E-02  0.8961335E-01
          2   -1    0    0  501    0  0.00000000000E+00  0.00000000000E+00  0.12516217321E+04  0.12516217321E+04  0.25500000000E-02 0.  1.
         -2   -1    0    0    0  501 -0.00000000000E+00 -0.00000000000E+00 -0.38573233161E+03  0.38573233162E+03  0.25500000000E-02 0. -1.
    -200001    2    1    2    0    0  0.52866376168E+02 -0.28107881023E+03  0.24731905449E+03  0.72073068182E+03  0.61358442753E+03 0.  0.
   -5000001    2    3    3    0    0 -0.14517311559E+02  0.16808682568E+03  0.69379117602E+02  0.22258015136E+03  0.12753246065E+03 0.  0.
     200001    1    1    2    0    0 -0.52866376168E+02  0.28107881023E+03  0.61857034598E+03  0.91662338188E+03  0.61300000000E+03 0.  1.
         11    1    4    4    0    0  0.21015203713E+02 -0.12849197968E+02  0.95236467582E+01  0.26409099253E+02  0.51100000000E-03 0.  1.
    -200002    1    4    4    0    0 -0.35532515272E+02  0.18093602365E+03  0.59855470844E+02  0.19617105211E+03  0.30000000000E+02 0.  1.
    -200000    1    3    3    0    0  0.67383687726E+02 -0.44916563591E+03  0.17793993689E+03  0.49815053046E+03  0.10100000000E+03 0.  1.
<mgrwt>
<rscale>  0 0.13896632E+04</rscale>
<asrwt>0</asrwt>
<pdfrwt beam="1">  1        2 0.17880311E+00 0.13896632E+04</pdfrwt>
<pdfrwt beam="2">  1       -2 0.55104618E-01 0.13896632E+04</pdfrwt>
<totfact> 0.60319920E+01</totfact>
</mgrwt>
</event>
<event>
 8    2  0.7237260E-052  0.1757526E+04  0.7818608E-02  0.8729218E-01
          2   -1    0    0  501    0  0.00000000000E+00  0.00000000000E+00  0.24016997333E+04  0.24016997333E+04  0.25500000000E-02 0.  1.
         -2   -1    0    0    0  501 -0.00000000000E+00 -0.00000000000E+00 -0.32153259381E+03  0.32153259382E+03  0.25500000000E-02 0. -1.
    -200001    2    1    2    0    0  0.46405367480E+03 -0.26483041949E+03  0.53118488609E+03  0.97377641583E+03  0.61692962373E+03 0.  0.
   -5000001    2    3    3    0    0  0.31571139343E+03 -0.40883558902E+03  0.17820636686E+03  0.55242412104E+03  0.81207619875E+02 0.  0.
     200001    1    1    2    0    0 -0.46405367480E+03  0.26483041949E+03  0.15489822534E+04  0.17494559112E+04  0.61300000000E+03 0.  1.
         11    1    4    4    0    0  0.26601936214E+03 -0.33869036275E+03  0.16090315764E+03  0.45974698366E+03  0.51100000000E-03 0.  1.
    -200002    1    4    4    0    0  0.49692031290E+02 -0.70145226271E+02  0.17303209226E+02  0.92677137374E+02  0.30000000000E+02 0. -1.
    -200000    1    3    3    0    0  0.14834228137E+03  0.14400516952E+03  0.35297851923E+03  0.42135229480E+03  0.10100000000E+03 0.  1.
<mgrwt>
<rscale>  0 0.17575264E+04</rscale>
<asrwt>0</asrwt>
<pdfrwt beam="1">  1        2 0.34309996E+00 0.17575264E+04</pdfrwt>
<pdfrwt beam="2">  1       -2 0.45933228E-01 0.17575264E+04</pdfrwt>
<totfact> 0.21202126E+01</totfact>
</mgrwt>
</event>
<event>
 8    2  0.7237260E-052  0.1348919E+04  0.7818608E-02  0.8991647E-01
          2   -1    0    0  501    0  0.00000000000E+00  0.00000000000E+00  0.90657903137E+03  0.90657903138E+03  0.25500000000E-02 0.  1.
         -2   -1    0    0    0  501 -0.00000000000E+00 -0.00000000000E+00 -0.50177136735E+03  0.50177136735E+03  0.25500000000E-02 0. -1.
    -200001    2    1    2    0    0 -0.27306240522E+03 -0.33157833237E+02  0.25937512078E+03  0.72090429635E+03  0.61381188662E+03 0.  0.
   -5000001    2    3    3    0    0 -0.37504248549E+03 -0.20714782529E+02  0.26851104184E+03  0.57654629921E+03  0.34528464693E+03 0.  0.
     200001    1    1    2    0    0  0.27306240522E+03  0.33157833237E+02  0.14543254324E+03  0.68744610238E+03  0.61300000000E+03 0. -1.
         11    1    4    4    0    0  0.20628750621E+02  0.61934022728E+02 -0.31295328881E+02  0.72393135956E+02  0.51100000000E-03 0.  1.
    -200002    1    4    4    0    0 -0.39567123611E+03 -0.82648805257E+02  0.29980637072E+03  0.50415316325E+03  0.30000000000E+02 0.  1.
    -200000    1    3    3    0    0  0.10198008027E+03 -0.12443050708E+02 -0.91359210575E+01  0.14435799714E+03  0.10100000000E+03 0. -1.
<mgrwt>
<rscale>  0 0.13489187E+04</rscale>
<asrwt>0</asrwt>
<pdfrwt beam="1">  1        2 0.12951129E+00 0.13489187E+04</pdfrwt>
<pdfrwt beam="2">  1       -2 0.71681624E-01 0.13489187E+04</pdfrwt>
<totfact> 0.55585681E+01</totfact>
</mgrwt>
</event>
<event>
 8    2  0.7237260E-052  0.1779301E+04  0.7818608E-02  0.8717385E-01
         -2   -1    0    0    0  501 -0.00000000000E+00  0.00000000000E+00  0.47293965472E+03  0.47293965473E+03  0.25500000000E-02 0. -1.
          2   -1    0    0  501    0  0.00000000000E+00 -0.00000000000E+00 -0.16735276193E+04  0.16735276193E+04  0.25500000000E-02 0.  1.
    -200001    2    1    2    0    0  0.48771888927E+03  0.32729333477E+03 -0.27950844398E+03  0.89381124575E+03  0.61301136274E+03 0.  0.
   -5000001    2    3    3    0    0  0.27159310419E+03  0.51221227164E+02  0.14547824497E+03  0.33368550151E+03  0.11745495224E+03 0.  0.
     200001    1    1    2    0    0 -0.48771888927E+03 -0.32729333477E+03 -0.92107952060E+03  0.12526560283E+04  0.61300000000E+03 0. -1.
         11    1    4    4    0    0  0.20502469230E+03 -0.94116151039E+01  0.94483193559E+02  0.22594418960E+03  0.51100000000E-03 0.  1.
    -200002    1    4    4    0    0  0.66568411890E+02  0.60632842268E+02  0.50995051414E+02  0.10774131191E+03  0.30000000000E+02 0.  1.
    -200000    1    3    3    0    0  0.21612578508E+03  0.27607210760E+03 -0.42498668895E+03  0.56012574424E+03  0.10100000000E+03 0.  1.
<mgrwt>
<rscale>  0 0.17793005E+04</rscale>
<asrwt>0</asrwt>
<pdfrwt beam="1">  1        2 0.23907537E+00 0.17793005E+04</pdfrwt>
<pdfrwt beam="2">  1       -2 0.67562809E-01 0.17793005E+04</pdfrwt>
<totfact> 0.22548682E+01</totfact>
</mgrwt>
</event>
<event>
 8    2  0.7237260E-052  0.1532606E+04  0.7818608E-02  0.8863055E-01
         -2   -1    0    0    0  501 -0.00000000000E+00  0.00000000000E+00  0.12480503207E+03  0.12480503210E+03  0.25500000000E-02 0. -1.
          2   -1    0    0  501    0  0.00000000000E+00 -0.00000000000E+00 -0.47051003057E+04  0.47051003057E+04  0.25500000000E-02 0.  1.
    -200001    2    1    2    0    0  0.22493977040E+03  0.40098493877E+03 -0.21962287618E+04  0.23257230453E+04  0.61170261379E+03 0.  0.
   -5000001    2    3    3    0    0  0.10084329294E+03  0.39507609580E+03 -0.83160355066E+03  0.95173694016E+03  0.21905306799E+03 0.  0.
     200001    1    1    2    0    0 -0.22493977040E+03 -0.40098493877E+03 -0.23840665119E+04  0.25041822926E+04  0.61300000000E+03 0.  1.
         11    1    4    4    0    0  0.16150272147E+03  0.23447620658E+03 -0.57381510898E+03  0.64056693623E+03  0.51100000000E-03 0.  1.
    -200002    1    4    4    0    0 -0.60659428522E+02  0.16059988922E+03 -0.25778844168E+03  0.31117000393E+03  0.30000000000E+02 0.  1.
    -200000    1    3    3    0    0  0.12409647745E+03  0.59088429646E+01 -0.13646252111E+04  0.13739861051E+04  0.10100000000E+03 0.  1.
<mgrwt>
<rscale>  0 0.15326059E+04</rscale>
<asrwt>0</asrwt>
<pdfrwt beam="1">  1        2 0.67215708E+00 0.15326059E+04</pdfrwt>
<pdfrwt beam="2">  1       -2 0.17829293E-01 0.15326059E+04</pdfrwt>
<totfact> 0.42658911E+00</totfact>
</mgrwt>
</event>
<event>
 8    2  0.7237260E-052  0.1359954E+04  0.7818608E-02  0.8983327E-01
          2   -1    0    0  501    0  0.00000000000E+00  0.00000000000E+00  0.61334731487E+03  0.61334731488E+03  0.25500000000E-02 0.  1.
         -2   -1    0    0    0  501 -0.00000000000E+00 -0.00000000000E+00 -0.75384459358E+03  0.75384459359E+03  0.25500000000E-02 0. -1.
    -200001    2    1    2    0    0 -0.22469476546E+02 -0.29403601818E+03 -0.95415160602E+02  0.68545628908E+03  0.61137894468E+03 0.  0.
   -5000001    2    3    3    0    0  0.27403149404E+03 -0.17081368671E+03 -0.70740097981E+02  0.34795602650E+03  0.10862163515E+03 0.  0.
     200001    1    1    2    0    0  0.22469476546E+02  0.29403601818E+03 -0.45082118112E+02  0.68173561938E+03  0.61300000000E+03 0. -1.
         11    1    4    4    0    0  0.16222881512E+01  0.82494407329E+01 -0.13078565888E+02  0.15547796538E+02  0.51100000000E-03 0.  1.
    -200002    1    4    4    0    0  0.27240920588E+03 -0.17906312744E+03 -0.57661532093E+02  0.33240822996E+03  0.30000000000E+02 0.  1.
    -200000    1    3    3    0    0 -0.29650097058E+03 -0.12322233147E+03 -0.24675062621E+02  0.33750026258E+03  0.10100000000E+03 0.  1.
<mgrwt>
<rscale>  0 0.13599538E+04</rscale>
<asrwt>0</asrwt>
<pdfrwt beam="1">  1        2 0.87621045E-01 0.13599538E+04</pdfrwt>
<pdfrwt beam="2">  1       -2 0.10769208E+00 0.13599538E+04</pdfrwt>
<totfact> 0.35739452E+01</totfact>
</mgrwt>
</event>
<event>
 8    2  0.7237260E-052  0.1575320E+04  0.7818608E-02  0.8835855E-01
          2   -1    0    0  501    0  0.00000000000E+00  0.00000000000E+00  0.97461702177E+03  0.97461702177E+03  0.25500000000E-02 0.  1.
         -2   -1    0    0    0  501 -0.00000000000E+00 -0.00000000000E+00 -0.63656631988E+03  0.63656631989E+03  0.25500000000E-02 0. -1.
    -200001    2    1    2    0    0 -0.42589028377E+03 -0.11003181150E+03  0.40016570600E+03  0.85413855627E+03  0.61313175394E+03 0.  0.
   -5000001    2    3    3    0    0  0.33865029084E+02  0.85924612414E+02 -0.64990507979E+02  0.16396091886E+03  0.11886773142E+03 0.  0.
     200001    1    1    2    0    0  0.42589028377E+03  0.11003181150E+03 -0.62115004120E+02  0.75704478539E+03  0.61300000000E+03 0. -1.
         11    1    4    4    0    0 -0.25530382652E+02  0.78824673639E+02 -0.44071818769E+02  0.93848041123E+02  0.51100000000E-03 0.  1.
    -200002    1    4    4    0    0  0.59395411736E+02  0.70999387743E+01 -0.20918689210E+02  0.70112877734E+02  0.30000000000E+02 0.  1.
    -200000    1    3    3    0    0 -0.45975531286E+03 -0.19595642391E+03  0.46515621398E+03  0.69017763741E+03  0.10100000000E+03 0.  1.
<mgrwt>
<rscale>  0 0.15753201E+04</rscale>
<asrwt>0</asrwt>
<pdfrwt beam="1">  1        2 0.13923100E+00 0.15753201E+04</pdfrwt>
<pdfrwt beam="2">  1       -2 0.90938046E-01 0.15753201E+04</pdfrwt>
<totfact> 0.28943066E+01</totfact>
</mgrwt>
</event>
<event>
 8    2  0.7237260E-052  0.1814543E+04  0.7818608E-02  0.8698603E-01
          2   -1    0    0  501    0  0.00000000000E+00  0.00000000000E+00  0.26591537631E+04  0.26591537631E+04  0.25500000000E-02 0.  1.
         -2   -1    0    0    0  501 -0.00000000000E+00 -0.00000000000E+00 -0.30955033410E+03  0.30955033411E+03  0.25500000000E-02 0. -1.
    -200001    2    1    2    0    0  0.53666710136E+03  0.21660039967E+03  0.17233433868E+04  0.19185146137E+04  0.61307306529E+03 0.  0.
   -5000001    2    3    3    0    0  0.44978947307E+03  0.19696882342E+03  0.17130921559E+04  0.17834619987E+04  0.70318408719E+02 0.  0.
     200001    1    1    2    0    0 -0.53666710136E+03 -0.21660039967E+03  0.62626004225E+03  0.10501894835E+04  0.61300000000E+03 0.  1.
         11    1    4    4    0    0  0.79266761981E+02  0.20115260691E+02  0.22184337773E+03  0.23643673046E+03  0.51100000000E-03 0.  1.
    -200002    1    4    4    0    0  0.37052271109E+03  0.17685356273E+03  0.14912487782E+04  0.15470252682E+04  0.30000000000E+02 0.  1.
    -200000    1    3    3    0    0  0.86877628289E+02  0.19631576250E+02  0.10251230846E+02  0.13505261500E+03  0.10100000000E+03 0. -1.
<mgrwt>
<rscale>  0 0.18145434E+04</rscale>
<asrwt>0</asrwt>
<pdfrwt beam="1">  1        2 0.37987914E+00 0.18145434E+04</pdfrwt>
<pdfrwt beam="2">  1       -2 0.44221473E-01 0.18145434E+04</pdfrwt>
<totfact> 0.16645103E+01</totfact>
</mgrwt>
</event>
<event>
 8    2  0.7237260E-052  0.1531322E+04  0.7818608E-02  0.8863887E-01
         -2   -1    0    0    0  501 -0.00000000000E+00  0.00000000000E+00  0.56635588241E+03  0.56635588241E+03  0.25500000000E-02 0. -1.
          2   -1    0    0  501    0  0.00000000000E+00 -0.00000000000E+00 -0.10351034381E+04  0.10351034381E+04  0.25500000000E-02 0.  1.
    -200001    2    1    2    0    0 -0.24739280504E+03 -0.26668061660E+03 -0.52641404881E+03  0.88632564369E+03  0.61330224573E+03 0.  0.
   -5000001    2    3    3    0    0 -0.26078747284E+03 -0.42125334360E+03 -0.44402223264E+03  0.68368913062E+03  0.15751380500E+03 0.  0.
     200001    1    1    2    0    0  0.24739280504E+03  0.26668061660E+03  0.57666493150E+02  0.71513367680E+03  0.61300000000E+03 0.  1.
         11    1    4    4    0    0 -0.11525914879E+03 -0.20083211422E+03 -0.30726524845E+03  0.38474685494E+03  0.51100000000E-03 0.  1.
    -200002    1    4    4    0    0 -0.14552832405E+03 -0.22042122938E+03 -0.13675698418E+03  0.29894227567E+03  0.30000000000E+02 0.  1.
    -200000    1    3    3    0    0  0.13394667796E+02  0.15457272700E+03 -0.82391816175E+02  0.20263651307E+03  0.10100000000E+03 0.  1.
<mgrwt>
<rscale>  0 0.15313222E+04</rscale>
<asrwt>0</asrwt>
<pdfrwt beam="1">  1        2 0.14787192E+00 0.15313222E+04</pdfrwt>
<pdfrwt beam="2">  1       -2 0.80907983E-01 0.15313222E+04</pdfrwt>
<totfact> 0.34790887E+01</totfact>
</mgrwt>
</event>
<event>
 8    2  0.7237260E-052  0.1336254E+04  0.7818608E-02  0.9001299E-01
          2   -1    0    0  501    0  0.00000000000E+00  0.00000000000E+00  0.42829332039E+03  0.42829332040E+03  0.25500000000E-02 0.  1.
         -2   -1    0    0    0  501 -0.00000000000E+00 -0.00000000000E+00 -0.10422619781E+04  0.10422619781E+04  0.25500000000E-02 0. -1.
    -200001    2    1    2    0    0 -0.54093177323E+02  0.14772022663E+03 -0.54310214157E+03  0.83373632867E+03  0.61270628556E+03 0.  0.
   -5000001    2    3    3    0    0 -0.16987535279E+03 -0.11333291182E+02 -0.57700268308E+03  0.61000930661E+03  0.10096127423E+03 0.  0.
     200001    1    1    2    0    0  0.54093177323E+02 -0.14772022663E+03 -0.70866516096E+02  0.63681896980E+03  0.61300000000E+03 0.  1.
         11    1    4    4    0    0 -0.57673762786E+02 -0.47383551279E+02 -0.25921813871E+03  0.26975082444E+03  0.51100000000E-03 0.  1.
    -200002    1    4    4    0    0 -0.11220159000E+03  0.36050260097E+02 -0.31778454437E+03  0.34025848217E+03  0.30000000000E+02 0.  1.
    -200000    1    3    3    0    0  0.11578217547E+03  0.15905351781E+03  0.33900541505E+02  0.22372702206E+03  0.10100000000E+03 0.  1.
<mgrwt>
<rscale>  0 0.13362542E+04</rscale>
<asrwt>0</asrwt>
<pdfrwt beam="1">  1        2 0.61184761E-01 0.13362542E+04</pdfrwt>
<pdfrwt beam="2">  1       -2 0.14889457E+00 0.13362542E+04</pdfrwt>
<totfact> 0.23937192E+01</totfact>
</mgrwt>
</event>
<event>
 8    2  0.7237260E-052  0.1378901E+04  0.7818608E-02  0.8969234E-01
          2   -1    0    0  501    0  0.00000000000E+00  0.00000000000E+00  0.35361581248E+03  0.35361581249E+03  0.25500000000E-02 0. -1.
         -2   -1    0    0    0  501 -0.00000000000E+00 -0.00000000000E+00 -0.13442331227E+04  0.13442331227E+04  0.25500000000E-02 0.  1.
    -200001    2    1    2    0    0  0.91313957923E+02 -0.29875532635E+03 -0.54666648158E+03  0.87903618360E+03  0.61340637921E+03 0.  0.
   -5000001    2    3    3    0    0 -0.16467797423E+03 -0.11494506442E+03  0.11459108288E+02  0.23017313504E+03  0.11188010503E+03 0.  0.
     200001    1    1    2    0    0 -0.91313957923E+02  0.29875532635E+03 -0.44395082864E+03  0.81881275160E+03  0.61300000000E+03 0. -1.
         11    1    4    4    0    0 -0.54272504803E+02  0.13776737190E+02  0.14825845906E+02  0.57923302499E+02  0.51100000000E-03 0.  1.
    -200002    1    4    4    0    0 -0.11040546942E+03 -0.12872180161E+03 -0.33667376176E+01  0.17224983254E+03  0.30000000000E+02 0.  1.
    -200000    1    3    3    0    0  0.25599193215E+03 -0.18381026193E+03 -0.55812558987E+03  0.64886304856E+03  0.10100000000E+03 0.  1.
<mgrwt>
<rscale>  0 0.13789011E+04</rscale>
<asrwt>0</asrwt>
<pdfrwt beam="1">  1        2 0.50516545E-01 0.13789011E+04</pdfrwt>
<pdfrwt beam="2">  1       -2 0.19203330E+00 0.13789011E+04</pdfrwt>
<totfact> 0.14545892E+01</totfact>
</mgrwt>
</event>
<event>
 8    2  0.7237260E-052  0.1311185E+04  0.7818608E-02  0.9020742E-01
         -2   -1    0    0    0  501 -0.00000000000E+00  0.00000000000E+00  0.95166334249E+03  0.95166334249E+03  0.25500000000E-02 0. -1.
          2   -1    0    0  501    0  0.00000000000E+00 -0.00000000000E+00 -0.45163170517E+03  0.45163170518E+03  0.25500000000E-02 0.  1.
    -200001    2    1    2    0    0  0.67537253369E+02 -0.54110015446E+02  0.19896736611E+02  0.61984900790E+03  0.61345557142E+03 0.  0.
   -5000001    2    3    3    0    0  0.16665201322E+03 -0.19751978364E+03  0.18478653811E+03  0.35950357607E+03  0.16825515773E+03 0.  0.
     200001    1    1    2    0    0 -0.67537253369E+02  0.54110015446E+02  0.48013490070E+03  0.78344603977E+03  0.61300000000E+03 0. -1.
         11    1    4    4    0    0  0.12829774531E+03 -0.91813688105E+02  0.21851313676E+02  0.15927192058E+03  0.51100000000E-03 0.  1.
    -200002    1    4    4    0    0  0.38354267911E+02 -0.10570609554E+03  0.16293522444E+03  0.20023165550E+03  0.30000000000E+02 0.  1.
    -200000    1    3    3    0    0 -0.99114759851E+02  0.14340976820E+03 -0.16488980150E+03  0.26034543183E+03  0.10100000000E+03 0.  1.
<mgrwt>
<rscale>  0 0.13111847E+04</rscale>
<asrwt>0</asrwt>
<pdfrwt beam="1">  1        2 0.64518814E-01 0.13111847E+04</pdfrwt>
<pdfrwt beam="2">  1       -2 0.13595191E+00 0.13111847E+04</pdfrwt>
<totfact> 0.28641566E+01</totfact>
</mgrwt>
</event>
<event>
 8    2  0.7237260E-052  0.1944376E+04  0.7818608E-02  0.8633077E-01
          2   -1    0    0  501    0  0.00000000000E+00  0.00000000000E+00  0.12002716758E+04  0.12002716758E+04  0.25500000000E-02 0. -1.
         -2   -1    0    0    0  501 -0.00000000000E+00 -0.00000000000E+00 -0.78744643322E+03  0.78744643322E+03  0.25500000000E-02 0.  1.
    -200001    2    1    2    0    0  0.49658814019E+03 -0.20853549020E+03  0.74626786401E+03  0.11062194911E+04  0.61377439332E+03 0.  0.
   -5000001    2    3    3    0    0  0.57858022695E+03 -0.28743863567E+03  0.56789702640E+03  0.87177213158E+03  0.14178705340E+03 0.  0.
     200001    1    1    2    0    0 -0.49658814019E+03  0.20853549020E+03 -0.33344262145E+03  0.88149861795E+03  0.61300000000E+03 0.  1.
         11    1    4    4    0    0  0.39125345823E+03 -0.14037304639E+03  0.41379046919E+03  0.58652059907E+03  0.51100000000E-03 0.  1.
    -200002    1    4    4    0    0  0.18732676871E+03 -0.14706558928E+03  0.15410655720E+03  0.28525153251E+03  0.30000000000E+02 0.  1.
    -200000    1    3    3    0    0 -0.81992086764E+02  0.78903145465E+02  0.17837083761E+03  0.23444735948E+03  0.10100000000E+03 0. -1.
<mgrwt>
<rscale>  0 0.19443761E+04</rscale>
<asrwt>0</asrwt>
<pdfrwt beam="1">  1        2 0.17146738E+00 0.19443761E+04</pdfrwt>
<pdfrwt beam="2">  1       -2 0.11249235E+00 0.19443761E+04</pdfrwt>
<totfact> 0.12453932E+01</totfact>
</mgrwt>
</event>
<event>
 8    2  0.7237260E-052  0.1967017E+04  0.7818608E-02  0.8622198E-01
         -2   -1    0    0    0  501 -0.00000000000E+00  0.00000000000E+00  0.92369344271E+03  0.92369344271E+03  0.25500000000E-02 0. -1.
          2   -1    0    0  501    0  0.00000000000E+00 -0.00000000000E+00 -0.10471974072E+04  0.10471974072E+04  0.25500000000E-02 0.  1.
    -200001    2    1    2    0    0  0.19301970268E+03 -0.67388401261E+00  0.68609599801E+03  0.93721867798E+03  0.60860009212E+03 0.  0.
   -5000001    2    3    3    0    0 -0.16297945533E+03  0.20979662727E+02  0.33294443385E+03  0.42524084266E+03  0.20730491823E+03 0.  0.
     200001    1    1    2    0    0 -0.19301970268E+03  0.67388401261E+00 -0.80959996251E+03  0.10336721719E+04  0.61300000000E+03 0.  1.
         11    1    4    4    0    0 -0.14662171759E+03 -0.63013554240E+01  0.34904804404E+03  0.37864517981E+03  0.51100000000E-03 0.  1.
    -200002    1    4    4    0    0 -0.16357737738E+02  0.27281018151E+02 -0.16103610181E+02  0.46595662847E+02  0.30000000000E+02 0.  1.
    -200000    1    3    3    0    0  0.35599915802E+03 -0.21653546740E+02  0.35315156416E+03  0.51197783532E+03  0.10100000000E+03 0. -1.
<mgrwt>
<rscale>  0 0.19670174E+04</rscale>
<asrwt>0</asrwt>
<pdfrwt beam="1">  1        2 0.14959963E+00 0.19670174E+04</pdfrwt>
<pdfrwt beam="2">  1       -2 0.13195621E+00 0.19670174E+04</pdfrwt>
<totfact> 0.10274322E+01</totfact>
</mgrwt>
</event>
<event>
 8    2  0.7237260E-052  0.1691564E+04  0.7818608E-02  0.8766191E-01
          2   -1    0    0  501    0  0.00000000000E+00  0.00000000000E+00  0.95978040001E+03  0.95978040002E+03  0.25500000000E-02 0.  1.
         -2   -1    0    0    0  501 -0.00000000000E+00 -0.00000000000E+00 -0.74532339266E+03  0.74532339267E+03  0.25500000000E-02 0. -1.
    -200001    2    1    2    0    0 -0.39131892894E+03 -0.37266495698E+03  0.32770916997E+03  0.88011607965E+03  0.61253680647E+03 0.  0.
   -5000001    2    3    3    0    0  0.11466393074E+02 -0.37907028103E+03  0.83146720357E+02  0.39815255866E+03  0.88240165047E+02 0.  0.
     200001    1    1    2    0    0  0.39131892894E+03  0.37266495698E+03 -0.11325216262E+03  0.82498771303E+03  0.61300000000E+03 0. -1.
         11    1    4    4    0    0 -0.26897758734E+02 -0.13857486120E+03  0.53634984980E+02  0.15100726207E+03  0.51100000000E-03 0.  1.
    -200002    1    4    4    0    0  0.38364151808E+02 -0.24049541983E+03  0.29511735377E+02  0.24714529659E+03  0.30000000000E+02 0.  1.
    -200000    1    3    3    0    0 -0.40278532202E+03  0.64053240565E+01  0.24456244962E+03  0.48196352099E+03  0.10100000000E+03 0. -1.
<mgrwt>
<rscale>  0 0.16915635E+04</rscale>
<asrwt>0</asrwt>
<pdfrwt beam="1">  1        2 0.13711149E+00 0.16915635E+04</pdfrwt>
<pdfrwt beam="2">  1       -2 0.10647477E+00 0.16915635E+04</pdfrwt>
<totfact> 0.20200742E+01</totfact>
</mgrwt>
</event>
<event>
 8    2  0.7237260E-052  0.1655664E+04  0.7818608E-02  0.8787063E-01
         -2   -1    0    0    0  501 -0.00000000000E+00  0.00000000000E+00  0.45019168897E+03  0.45019168898E+03  0.25500000000E-02 0. -1.
          2   -1    0    0  501    0  0.00000000000E+00 -0.00000000000E+00 -0.15222537656E+04  0.15222537656E+04  0.25500000000E-02 0.  1.
    -200001    2    1    2    0    0 -0.18520094788E+03 -0.50180516438E+03 -0.36308204135E+03  0.89331177216E+03  0.61649780165E+03 0.  0.
   -5000001    2    3    3    0    0 -0.30145367209E+03 -0.52847341945E+03 -0.15636769003E+03  0.63416371649E+03  0.86915437914E+02 0.  0.
     200001    1    1    2    0    0  0.18520094788E+03  0.50180516438E+03 -0.70898003525E+03  0.10791336824E+04  0.61300000000E+03 0.  1.
         11    1    4    4    0    0 -0.17754705263E+02 -0.55977445366E+02  0.54873549283E+01  0.58981480255E+02  0.51100000000E-03 0.  1.
    -200002    1    4    4    0    0 -0.28369896682E+03 -0.47249597409E+03 -0.16185504495E+03  0.57518223624E+03  0.30000000000E+02 0.  1.
    -200000    1    3    3    0    0  0.11625272421E+03  0.26668255075E+02 -0.20671435132E+03  0.25914805567E+03  0.10100000000E+03 0.  1.
<mgrwt>
<rscale>  0 0.16556642E+04</rscale>
<asrwt>0</asrwt>
<pdfrwt beam="1">  1        2 0.21746482E+00 0.16556642E+04</pdfrwt>
<pdfrwt beam="2">  1       -2 0.64313099E-01 0.16556642E+04</pdfrwt>
<totfact> 0.30406702E+01</totfact>
</mgrwt>
</event>
<event>
 8    2  0.7237260E-052  0.1573038E+04  0.7818608E-02  0.8837285E-01
          2   -1    0    0  501    0  0.00000000000E+00  0.00000000000E+00  0.95375711897E+03  0.95375711898E+03  0.25500000000E-02 0.  1.
         -2   -1    0    0    0  501 -0.00000000000E+00 -0.00000000000E+00 -0.64860534727E+03  0.64860534727E+03  0.25500000000E-02 0. -1.
    -200001    2    1    2    0    0  0.44713915908E+03  0.11847336795E+03  0.32840477682E+03  0.83406625466E+03  0.61143066101E+03 0.  0.
   -5000001    2    3    3    0    0  0.21216929306E+03  0.34983680716E+03  0.13152170879E+03  0.43694685017E+03  0.78885926692E+02 0.  0.
     200001    1    1    2    0    0 -0.44713915908E+03 -0.11847336795E+03 -0.23253005111E+02  0.76829621159E+03  0.61300000000E+03 0. -1.
         11    1    4    4    0    0  0.15399427023E+02  0.65706213527E+02  0.49603751756E+01  0.67668708949E+02  0.51100000000E-03 0.  1.
    -200002    1    4    4    0    0  0.19676986603E+03  0.28413059364E+03  0.12656133361E+03  0.36927814122E+03  0.30000000000E+02 0.  1.
    -200000    1    3    3    0    0  0.23496986602E+03 -0.23136343921E+03  0.19688306803E+03  0.39711940449E+03  0.10100000000E+03 0. -1.
<mgrwt>
<rscale>  0 0.15730378E+04</rscale>
<asrwt>0</asrwt>
<pdfrwt beam="1">  1        2 0.13625102E+00 0.15730378E+04</pdfrwt>
<pdfrwt beam="2">  1       -2 0.92657908E-01 0.15730378E+04</pdfrwt>
<totfact> 0.28569660E+01</totfact>
</mgrwt>
</event>
<event>
 8    2  0.7237260E-052  0.1641732E+04  0.7818608E-02  0.8795313E-01
          2   -1    0    0  501    0  0.00000000000E+00  0.00000000000E+00  0.40817156118E+03  0.40817156119E+03  0.25500000000E-02 0.  1.
         -2   -1    0    0    0  501 -0.00000000000E+00 -0.00000000000E+00 -0.16508282113E+04  0.16508282113E+04  0.25500000000E-02 0. -1.
    -200001    2    1    2    0    0  0.10199644280E+03 -0.35445070225E+02  0.49126450484E+02  0.62507780587E+03  0.61371754734E+03 0.  0.
   -5000001    2    3    3    0    0 -0.50605152609E+02  0.14758665783E+03 -0.20096881767E+03  0.26516600620E+03  0.74711726851E+02 0.  0.
     200001    1    1    2    0    0 -0.10199644280E+03  0.35445070225E+02 -0.12917831006E+04  0.14339219666E+04  0.61300000000E+03 0. -1.
         11    1    4    4    0    0  0.25954682264E+01 -0.41619508277E+01  0.12572280915E+01  0.50634881990E+01  0.51100000000E-03 0.  1.
    -200002    1    4    4    0    0 -0.53200620835E+02  0.15174860866E+03 -0.20222604576E+03  0.26010251800E+03  0.30000000000E+02 0.  1.
    -200000    1    3    3    0    0  0.15260159540E+03 -0.18303172805E+03  0.25009526815E+03  0.35991179968E+03  0.10100000000E+03 0.  1.
<mgrwt>
<rscale>  0 0.16417322E+04</rscale>
<asrwt>0</asrwt>
<pdfrwt beam="1">  1        2 0.58310224E-01 0.16417322E+04</pdfrwt>
<pdfrwt beam="2">  1       -2 0.23583260E+00 0.16417322E+04</pdfrwt>
<totfact> 0.63666014E+00</totfact>
</mgrwt>
</event>
<event>
 8    2  0.7237260E-052  0.1422363E+04  0.7818608E-02  0.8937788E-01
         -2   -1    0    0    0  501 -0.00000000000E+00  0.00000000000E+00  0.56080901397E+03  0.56080901398E+03  0.25500000000E-02 0. -1.
          2   -1    0    0  501    0  0.00000000000E+00 -0.00000000000E+00 -0.90187401508E+03  0.90187401508E+03  0.25500000000E-02 0.  1.
    -200001    2    1    2    0    0  0.79948488366E+02  0.17512889946E+03  0.14229342737E+03  0.65865177183E+03  0.61360642504E+03 0.  0.
   -5000001    2    3    3    0    0 -0.40816183129E+02  0.11470164444E+03 -0.21426055798E+03  0.26423156001E+03  0.95332589173E+02 0.  0.
     200001    1    1    2    0    0 -0.79948488366E+02 -0.17512889946E+03 -0.48335842848E+03  0.80403125723E+03  0.61300000000E+03 0.  1.
         11    1    4    4    0    0 -0.16588146699E+01  0.93340570709E+02 -0.93887926721E+02  0.13240149769E+03  0.51100000000E-03 0.  1.
    -200002    1    4    4    0    0 -0.39157368459E+02  0.21361073727E+02 -0.12037263125E+03  0.13183006232E+03  0.30000000000E+02 0.  1.
    -200000    1    3    3    0    0  0.12076467150E+03  0.60427255027E+02  0.35655398534E+03  0.39442021182E+03  0.10100000000E+03 0. -1.
<mgrwt>
<rscale>  0 0.14223629E+04</rscale>
<asrwt>0</asrwt>
<pdfrwt beam="1">  1        2 0.12883914E+00 0.14223629E+04</pdfrwt>
<pdfrwt beam="2">  1       -2 0.80115574E-01 0.14223629E+04</pdfrwt>
<totfact> 0.43495273E+01</totfact>
</mgrwt>
</event>
<event>
 8    2  0.7237260E-052  0.2179577E+04  0.7818608E-02  0.8526977E-01
         -2   -1    0    0    0  501 -0.00000000000E+00  0.00000000000E+00  0.41683254187E+03  0.41683254188E+03  0.25500000000E-02 0. -1.
          2   -1    0    0  501    0  0.00000000000E+00 -0.00000000000E+00 -0.28491993898E+04  0.28491993898E+04  0.25500000000E-02 0.  1.
    -200001    2    1    2    0    0  0.74104969808E+03 -0.17495151303E+03 -0.49407399017E+03  0.10952000889E+04  0.61285515429E+03 0.  0.
   -5000001    2    3    3    0    0  0.11474433606E+03  0.96203738930E+02  0.50836814196E+02  0.21604574421E+03  0.14720720047E+03 0.  0.
     200001    1    1    2    0    0 -0.74104969808E+03  0.17495151303E+03 -0.19382928577E+04  0.21708318427E+04  0.61300000000E+03 0.  1.
         11    1    4    4    0    0 -0.22310782240E+02 -0.91687516761E+01 -0.15263040070E+02  0.28544656311E+02  0.51100000000E-03 0.  1.
    -200002    1    4    4    0    0  0.13705511830E+03  0.10537249061E+03  0.66099854266E+02  0.18750108789E+03  0.30000000000E+02 0.  1.
    -200000    1    3    3    0    0  0.62630536202E+03 -0.27115525196E+03 -0.54491080437E+03  0.87915434474E+03  0.10100000000E+03 0.  1.
<mgrwt>
<rscale>  0 0.21795770E+04</rscale>
<asrwt>0</asrwt>
<pdfrwt beam="1">  1        2 0.40702847E+00 0.21795770E+04</pdfrwt>
<pdfrwt beam="2">  1       -2 0.59547508E-01 0.21795770E+04</pdfrwt>
<totfact> 0.69218451E+00</totfact>
</mgrwt>
</event>
<event>
 8    2  0.7237260E-052  0.1426054E+04  0.7818608E-02  0.8935173E-01
          2   -1    0    0  501    0  0.00000000000E+00  0.00000000000E+00  0.22045978543E+04  0.22045978543E+04  0.25500000000E-02 0.  1.
         -2   -1    0    0    0  501 -0.00000000000E+00 -0.00000000000E+00 -0.23061225664E+03  0.23061225666E+03  0.25500000000E-02 0. -1.
    -200001    2    1    2    0    0  0.14029808066E+03  0.25854723537E+03  0.62124294763E+03  0.92120485946E+03  0.61330691236E+03 0.  0.
   -5000001    2    3    3    0    0  0.12583663850E+03  0.44479512666E+03  0.39469284686E+03  0.61068375152E+03  0.58946049228E+02 0.  0.
     200001    1    1    2    0    0 -0.14029808066E+03 -0.25854723537E+03  0.13527426500E+04  0.15140052515E+04  0.61300000000E+03 0.  1.
         11    1    4    4    0    0  0.69232076661E+02  0.29584469128E+03  0.25496605750E+03  0.39664196988E+03  0.51100000000E-03 0.  1.
    -200002    1    4    4    0    0  0.56604561837E+02  0.14895043538E+03  0.13972678936E+03  0.21404178163E+03  0.30000000000E+02 0.  1.
    -200000    1    3    3    0    0  0.14461442163E+02 -0.18624789128E+03  0.22655010077E+03  0.31052110794E+03  0.10100000000E+03 0. -1.
<mgrwt>
<rscale>  0 0.14260537E+04</rscale>
<asrwt>0</asrwt>
<pdfrwt beam="1">  1        2 0.31494257E+00 0.14260537E+04</pdfrwt>
<pdfrwt beam="2">  1       -2 0.32944606E-01 0.14260537E+04</pdfrwt>
<totfact> 0.52625176E+01</totfact>
</mgrwt>
</event>
<event>
 8    2  0.7237260E-052  0.1333496E+04  0.7818608E-02  0.9003416E-01
         -2   -1    0    0    0  501 -0.00000000000E+00  0.00000000000E+00  0.10678471271E+04  0.10678471271E+04  0.25500000000E-02 0. -1.
          2   -1    0    0  501    0  0.00000000000E+00 -0.00000000000E+00 -0.41630792550E+03  0.41630792551E+03  0.25500000000E-02 0.  1.
    -200001    2    1    2    0    0 -0.19300870059E+03 -0.13317506494E+03  0.19555793480E+03  0.68498306106E+03  0.61316468558E+03 0.  0.
   -5000001    2    3    3    0    0 -0.19904604492E+03  0.17276952460E+03 -0.44411586011E+02  0.28320586868E+03  0.93619113721E+02 0.  0.
     200001    1    1    2    0    0  0.19300870059E+03  0.13317506494E+03  0.45598126682E+03  0.79917199157E+03  0.61300000000E+03 0. -1.
         11    1    4    4    0    0 -0.12018618818E+02 -0.10627101368E+02 -0.29221500192E+01  0.16307097927E+02  0.51100000000E-03 0.  1.
    -200002    1    4    4    0    0 -0.18702742610E+03  0.18339662597E+03 -0.41489435992E+02  0.26689877075E+03  0.30000000000E+02 0.  1.
    -200000    1    3    3    0    0  0.60373443343E+01 -0.30594458954E+03  0.23996952081E+03  0.40177719237E+03  0.10100000000E+03 0.  1.
<mgrwt>
<rscale>  0 0.13334965E+04</rscale>
<asrwt>0</asrwt>
<pdfrwt beam="1">  1        2 0.59472561E-01 0.13334965E+04</pdfrwt>
<pdfrwt beam="2">  1       -2 0.15254959E+00 0.13334965E+04</pdfrwt>
<totfact> 0.23175235E+01</totfact>
</mgrwt>
</event>
<event>
 8    2  0.7237260E-052  0.1839183E+04  0.7818608E-02  0.8685735E-01
          2   -1    0    0  501    0  0.00000000000E+00  0.00000000000E+00  0.16688514820E+04  0.16688514820E+04  0.25500000000E-02 0.  1.
         -2   -1    0    0    0  501 -0.00000000000E+00 -0.00000000000E+00 -0.50672512105E+03  0.50672512106E+03  0.25500000000E-02 0. -1.
    -200001    2    1    2    0    0  0.83012555046E+02 -0.38268470805E+03  0.12466440434E+04  0.14432850568E+04  0.61287169485E+03 0.  0.
   -5000001    2    3    3    0    0  0.24593757521E+03 -0.31602581145E+03  0.11348244387E+04  0.12115684310E+04  0.14040638146E+03 0.  0.
     200001    1    1    2    0    0 -0.83012555046E+02  0.38268470805E+03 -0.84517682393E+02  0.73229154625E+03  0.61300000000E+03 0. -1.
         11    1    4    4    0    0  0.19936258749E+03 -0.21117589968E+03  0.64124328433E+03  0.70394151149E+03  0.51100000000E-03 0.  1.
    -200002    1    4    4    0    0  0.46574987725E+02 -0.10484991178E+03  0.49358115438E+03  0.50762691954E+03  0.30000000000E+02 0.  1.
    -200000    1    3    3    0    0 -0.16292502017E+03 -0.66658896591E+02  0.11181960465E+03  0.23171662581E+03  0.10100000000E+03 0.  1.
<mgrwt>
<rscale>  0 0.18391835E+04</rscale>
<asrwt>0</asrwt>
<pdfrwt beam="1">  1        2 0.23840735E+00 0.18391835E+04</pdfrwt>
<pdfrwt beam="2">  1       -2 0.72389304E-01 0.18391835E+04</pdfrwt>
<totfact> 0.19414070E+01</totfact>
</mgrwt>
</event>
<event>
 8    2  0.7237260E-052  0.1547295E+04  0.7818608E-02  0.8853597E-01
          2   -1    0    0  501    0  0.00000000000E+00  0.00000000000E+00  0.20255391890E+04  0.20255391890E+04  0.25500000000E-02 0.  1.
         -2   -1    0    0    0  501 -0.00000000000E+00 -0.00000000000E+00 -0.29549198630E+03  0.29549198631E+03  0.25500000000E-02 0. -1.
    -200001    2    1    2    0    0  0.32420894026E+03  0.17894647401E+03  0.13002192747E+04  0.14857741340E+04  0.61629646864E+03 0.  0.
   -5000001    2    3    3    0    0  0.30274492809E+03  0.61207517722E+02  0.12645182868E+04  0.13251543152E+04  0.24824707398E+03 0.  0.
     200001    1    1    2    0    0 -0.32420894026E+03 -0.17894647401E+03  0.42982792801E+03  0.83525704140E+03  0.61300000000E+03 0. -1.
         11    1    4    4    0    0  0.19450165882E+02  0.93694917608E+02  0.49023949748E+03  0.49949155291E+03  0.51100000000E-03 0.  1.
    -200002    1    4    4    0    0  0.28329476221E+03 -0.32487399886E+02  0.77427878929E+03  0.82566276226E+03  0.30000000000E+02 0.  1.
    -200000    1    3    3    0    0  0.21464012165E+02  0.11773895629E+03  0.35700987964E+02  0.16061981879E+03  0.10100000000E+03 0. -1.
<mgrwt>
<rscale>  0 0.15472952E+04</rscale>
<asrwt>0</asrwt>
<pdfrwt beam="1">  1        2 0.28936272E+00 0.15472952E+04</pdfrwt>
<pdfrwt beam="2">  1       -2 0.42213144E-01 0.15472952E+04</pdfrwt>
<totfact> 0.39923242E+01</totfact>
</mgrwt>
</event>
<event>
 8    2  0.7237260E-052  0.1333720E+04  0.7818608E-02  0.9003244E-01
         -2   -1    0    0    0  501 -0.00000000000E+00  0.00000000000E+00  0.53130339103E+03  0.53130339103E+03  0.25500000000E-02 0. -1.
          2   -1    0    0  501    0  0.00000000000E+00 -0.00000000000E+00 -0.83700256812E+03  0.83700256812E+03  0.25500000000E-02 0.  1.
    -200001    2    1    2    0    0 -0.25768570751E+03  0.14651167144E+02 -0.18844016272E+03  0.69292809676E+03  0.61483580882E+03 0.  0.
   -5000001    2    3    3    0    0  0.11043887420E+02  0.13074731327E+03  0.14257114224E+03  0.23964739527E+03  0.14102310478E+03 0.  0.
     200001    1    1    2    0    0  0.25768570751E+03 -0.14651167144E+02 -0.11725901436E+03  0.67537786239E+03  0.61300000000E+03 0.  1.
         11    1    4    4    0    0  0.20656508054E+02  0.14653049162E+03  0.80975318883E+02  0.16868573908E+03  0.51100000000E-03 0.  1.
    -200002    1    4    4    0    0 -0.96126206332E+01 -0.15783178350E+02  0.61595823356E+02  0.70961656189E+02  0.30000000000E+02 0.  1.
    -200000    1    3    3    0    0 -0.26872959493E+03 -0.11609614613E+03 -0.33101130496E+03  0.45328070150E+03  0.10100000000E+03 0.  1.
<mgrwt>
<rscale>  0 0.13337201E+04</rscale>
<asrwt>0</asrwt>
<pdfrwt beam="1">  1        2 0.11957180E+00 0.13337201E+04</pdfrwt>
<pdfrwt beam="2">  1       -2 0.75900485E-01 0.13337201E+04</pdfrwt>
<totfact> 0.54572592E+01</totfact>
</mgrwt>
</event>
<event>
 8    2  0.7237260E-052  0.1476114E+04  0.7818608E-02  0.8900494E-01
          2   -1    0    0  501    0  0.00000000000E+00  0.00000000000E+00  0.10340652825E+04  0.10340652825E+04  0.25500000000E-02 0.  1.
         -2   -1    0    0    0  501 -0.00000000000E+00 -0.00000000000E+00 -0.52678316425E+03  0.52678316425E+03  0.25500000000E-02 0. -1.
    -200001    2    1    2    0    0  0.25333071711E+03 -0.29020396522E+03  0.38879131251E+03  0.82722465711E+03  0.62027990052E+03 0.  0.
   -5000001    2    3    3    0    0  0.23479089034E+03  0.98437910436E+02  0.41895343237E+01  0.27089223807E+03  0.92456844277E+02 0.  0.
     200001    1    1    2    0    0 -0.25333071711E+03  0.29020396522E+03  0.11849080572E+03  0.73362378962E+03  0.61300000000E+03 0.  1.
         11    1    4    4    0    0  0.52500862151E+01 -0.12941704191E+02  0.23788930085E+00  0.13968095941E+02  0.51100000000E-03 0.  1.
    -200002    1    4    4    0    0  0.22954080412E+03  0.11137961463E+03  0.39516450229E+01  0.25692414213E+03  0.30000000000E+02 0.  1.
    -200000    1    3    3    0    0  0.18539826773E+02 -0.38864187565E+03  0.38460177819E+03  0.55633241904E+03  0.10100000000E+03 0. -1.
<mgrwt>
<rscale>  0 0.14761141E+04</rscale>
<asrwt>0</asrwt>
<pdfrwt beam="1">  1        2 0.14772361E+00 0.14761141E+04</pdfrwt>
<pdfrwt beam="2">  1       -2 0.75254738E-01 0.14761141E+04</pdfrwt>
<totfact> 0.41134086E+01</totfact>
</mgrwt>
</event>
<event>
 8    2  0.7237260E-052  0.1351543E+04  0.7818608E-02  0.8989661E-01
         -2   -1    0    0    0  501 -0.00000000000E+00  0.00000000000E+00  0.44614328993E+03  0.44614328994E+03  0.25500000000E-02 0. -1.
          2   -1    0    0  501    0  0.00000000000E+00 -0.00000000000E+00 -0.10235886317E+04  0.10235886317E+04  0.25500000000E-02 0.  1.
    -200001    2    1    2    0    0  0.29038681116E+02  0.28269716160E+03 -0.30240386887E+03  0.74022678664E+03  0.61296546851E+03 0.  0.
   -5000001    2    3    3    0    0  0.15082382394E+02  0.31955956471E+03  0.69714972933E+02  0.35263544585E+03  0.13094192058E+03 0.  0.
     200001    1    1    2    0    0 -0.29038681116E+02 -0.28269716160E+03 -0.27504147290E+03  0.72950513500E+03  0.61300000000E+03 0.  1.
         11    1    4    4    0    0 -0.50342811227E+02  0.19672114104E+03  0.34463888336E+02  0.20596447648E+03  0.51100000000E-03 0.  1.
    -200002    1    4    4    0    0  0.65425193621E+02  0.12283842367E+03  0.35251084597E+02  0.14667096937E+03  0.30000000000E+02 0.  1.
    -200000    1    3    3    0    0  0.13956298721E+02 -0.36862403109E+02 -0.37211884180E+03  0.38759134080E+03  0.10100000000E+03 0.  1.
<mgrwt>
<rscale>  0 0.13515431E+04</rscale>
<asrwt>0</asrwt>
<pdfrwt beam="1">  1        2 0.14622695E+00 0.13515431E+04</pdfrwt>
<pdfrwt beam="2">  1       -2 0.63734756E-01 0.13515431E+04</pdfrwt>
<totfact> 0.60486254E+01</totfact>
</mgrwt>
</event>
<event>
 8    2  0.7237260E-052  0.1541095E+04  0.7818608E-02  0.8857576E-01
         -2   -1    0    0    0  501 -0.00000000000E+00  0.00000000000E+00  0.27663390979E+03  0.27663390980E+03  0.25500000000E-02 0. -1.
          2   -1    0    0  501    0  0.00000000000E+00 -0.00000000000E+00 -0.21463159033E+04  0.21463159033E+04  0.25500000000E-02 0.  1.
    -200001    2    1    2    0    0 -0.23597336324E+03 -0.39434836729E+03 -0.10665302606E+04  0.13129877557E+04  0.61258141232E+03 0.  0.
   -5000001    2    3    3    0    0  0.85264356704E+02 -0.35125342327E+01 -0.12385960037E+03  0.23838304004E+03  0.18494032754E+03 0.  0.
     200001    1    1    2    0    0  0.23597336324E+03  0.39434836729E+03 -0.80315173286E+03  0.11099620574E+04  0.61300000000E+03 0. -1.
         11    1    4    4    0    0  0.75429083504E+02  0.72063460123E+02 -0.11614323470E+03  0.15611514946E+03  0.51100000000E-03 0.  1.
    -200002    1    4    4    0    0  0.98352731999E+01 -0.75575994355E+02 -0.77163656754E+01  0.82267890583E+02  0.30000000000E+02 0.  1.
    -200000    1    3    3    0    0 -0.32123771995E+03 -0.39083583306E+03 -0.94267066027E+03  0.10746047156E+04  0.10100000000E+03 0.  1.
<mgrwt>
<rscale>  0 0.15410954E+04</rscale>
<asrwt>0</asrwt>
<pdfrwt beam="1">  1        2 0.30661655E+00 0.15410954E+04</pdfrwt>
<pdfrwt beam="2">  1       -2 0.39519131E-01 0.15410954E+04</pdfrwt>
<totfact> 0.39401390E+01</totfact>
</mgrwt>
</event>
<event>
 8    2  0.7237260E-052  0.1705341E+04  0.7818608E-02  0.8758324E-01
          2   -1    0    0  501    0  0.00000000000E+00  0.00000000000E+00  0.20657107843E+04  0.20657107843E+04  0.25500000000E-02 0.  1.
         -2   -1    0    0    0  501 -0.00000000000E+00 -0.00000000000E+00 -0.35195979694E+03  0.35195979695E+03  0.25500000000E-02 0. -1.
    -200001    2    1    2    0    0 -0.33985753052E+03  0.16151293868E+03  0.15062287041E+04  0.16690558149E+04  0.61272574106E+03 0.  0.
   -5000001    2    3    3    0    0 -0.12567634934E+03 -0.26643749397E+02  0.62879843899E+03  0.74096024451E+03  0.37031091383E+03 0.  0.
     200001    1    1    2    0    0  0.33985753052E+03 -0.16151293868E+03  0.20752228331E+03  0.74861476640E+03  0.61300000000E+03 0. -1.
         11    1    4    4    0    0 -0.91837164301E+02  0.15770480368E+03  0.19300666873E+03  0.26562462993E+03  0.51100000000E-03 0.  1.
    -200002    1    4    4    0    0 -0.33839185042E+02 -0.18434855307E+03  0.43579177025E+03  0.47533561458E+03  0.30000000000E+02 0.  1.
    -200000    1    3    3    0    0 -0.21418118117E+03  0.18815668807E+03  0.87743026507E+03  0.92809557034E+03  0.10100000000E+03 0.  1.
<mgrwt>
<rscale>  0 0.17053412E+04</rscale>
<asrwt>0</asrwt>
<pdfrwt beam="1">  1        2 0.29510154E+00 0.17053412E+04</pdfrwt>
<pdfrwt beam="2">  1       -2 0.50279971E-01 0.17053412E+04</pdfrwt>
<totfact> 0.26469073E+01</totfact>
</mgrwt>
</event>
<event>
 8    2  0.7237260E-052  0.1414112E+04  0.7818608E-02  0.8943666E-01
          2   -1    0    0  501    0  0.00000000000E+00  0.00000000000E+00  0.30020498332E+03  0.30020498333E+03  0.25500000000E-02 0.  1.
         -2   -1    0    0    0  501 -0.00000000000E+00 -0.00000000000E+00 -0.16652893235E+04  0.16652893235E+04  0.25500000000E-02 0. -1.
    -200001    2    1    2    0    0  0.19914183981E+03 -0.29529955668E+03 -0.69519266016E+03  0.99010558251E+03  0.60840523439E+03 0.  0.
   -5000001    2    3    3    0    0  0.73711985433E+02 -0.98942457958E+02 -0.64235319607E+03  0.73071828993E+03  0.32574303362E+03 0.  0.
     200001    1    1    2    0    0 -0.19914183981E+03  0.29529955668E+03 -0.66989167998E+03  0.97538872428E+03  0.61300000000E+03 0. -1.
         11    1    4    4    0    0 -0.28958188672E+02 -0.13845414782E+02  0.30406780306E+02  0.44213623358E+02  0.51100000000E-03 0.  1.
    -200002    1    4    4    0    0  0.10267017410E+03 -0.85097043176E+02 -0.67275997638E+03  0.68650466657E+03  0.30000000000E+02 0.  1.
    -200000    1    3    3    0    0  0.12542985438E+03 -0.19635709872E+03 -0.52839464087E+02  0.25938729258E+03  0.10100000000E+03 0.  1.
<mgrwt>
<rscale>  0 0.14141120E+04</rscale>
<asrwt>0</asrwt>
<pdfrwt beam="1">  1        2 0.42886427E-01 0.14141120E+04</pdfrwt>
<pdfrwt beam="2">  1       -2 0.23789847E+00 0.14141120E+04</pdfrwt>
<totfact> 0.88642658E+00</totfact>
</mgrwt>
</event>
<event>
 8    2  0.7237260E-052  0.1289634E+04  0.7818608E-02  0.9037827E-01
          2   -1    0    0  501    0  0.00000000000E+00  0.00000000000E+00  0.16370059714E+03  0.16370059716E+03  0.25500000000E-02 0.  1.
         -2   -1    0    0    0  501 -0.00000000000E+00 -0.00000000000E+00 -0.25399336002E+04  0.25399336002E+04  0.25500000000E-02 0. -1.
    -200001    2    1    2    0    0  0.17183846224E+02 -0.68913773972E+02 -0.15798427516E+04  0.16961368894E+04  0.61313361934E+03 0.  0.
   -5000001    2    3    3    0    0 -0.16849114411E+03 -0.24228504060E+03 -0.11190025410E+04  0.11603127599E+04  0.84069658098E+02 0.  0.
     200001    1    1    2    0    0 -0.17183846224E+02  0.68913773972E+02 -0.79639025146E+03  0.10074973079E+04  0.61300000000E+03 0.  1.
         11    1    4    4    0    0 -0.89258702565E+02 -0.98627744528E+02 -0.62229052086E+03  0.63634899256E+03  0.51100000000E-03 0.  1.
    -200002    1    4    4    0    0 -0.79232441545E+02 -0.14365729608E+03 -0.49671202018E+03  0.52396376736E+03  0.30000000000E+02 0. -1.
    -200000    1    3    3    0    0  0.18567499034E+03  0.17337126663E+03 -0.46084021053E+03  0.53582412952E+03  0.10100000000E+03 0.  1.
<mgrwt>
<rscale>  0 0.12896335E+04</rscale>
<asrwt>0</asrwt>
<pdfrwt beam="1">  1        2 0.23385801E-01 0.12896335E+04</pdfrwt>
<pdfrwt beam="2">  1       -2 0.36284763E+00 0.12896335E+04</pdfrwt>
<totfact> 0.30420859E+00</totfact>
</mgrwt>
</event>
<event>
 8    2  0.7237260E-052  0.1402308E+04  0.7818608E-02  0.8952150E-01
         -2   -1    0    0    0  501 -0.00000000000E+00  0.00000000000E+00  0.56202604641E+03  0.56202604642E+03  0.25500000000E-02 0. -1.
          2   -1    0    0  501    0  0.00000000000E+00 -0.00000000000E+00 -0.87472255384E+03  0.87472255384E+03  0.25500000000E-02 0.  1.
    -200001    2    1    2    0    0 -0.18246296373E+03 -0.21280395008E+03  0.42383814835E+02  0.67488949940E+03  0.61245505495E+03 0.  0.
   -5000001    2    3    3    0    0 -0.18821937554E+03 -0.26706230105E+03  0.16868503186E+03  0.50421406957E+03  0.34500490142E+03 0.  0.
     200001    1    1    2    0    0  0.18246296373E+03  0.21280395008E+03 -0.35508032226E+03  0.76185910086E+03  0.61300000000E+03 0.  1.
         11    1    4    4    0    0  0.17081614704E+02 -0.21641645128E+03 -0.21609615616E+02  0.21816241068E+03  0.51100000000E-03 0.  1.
    -200002    1    4    4    0    0 -0.20530099025E+03 -0.50645849769E+02  0.19029464747E+03  0.28605165889E+03  0.30000000000E+02 0.  1.
    -200000    1    3    3    0    0  0.57564118105E+01  0.54258350970E+02 -0.12630121702E+03  0.17067542983E+03  0.10100000000E+03 0.  1.
<mgrwt>
<rscale>  0 0.14023079E+04</rscale>
<asrwt>0</asrwt>
<pdfrwt beam="1">  1        2 0.12496037E+00 0.14023079E+04</pdfrwt>
<pdfrwt beam="2">  1       -2 0.80289435E-01 0.14023079E+04</pdfrwt>
<totfact> 0.45170318E+01</totfact>
</mgrwt>
</event>
<event>
 8    2  0.7237260E-052  0.1602231E+04  0.7818608E-02  0.8819179E-01
          2   -1    0    0  501    0  0.00000000000E+00  0.00000000000E+00  0.22147664444E+04  0.22147664444E+04  0.25500000000E-02 0.  1.
         -2   -1    0    0    0  501 -0.00000000000E+00 -0.00000000000E+00 -0.28977586021E+03  0.28977586022E+03  0.25500000000E-02 0. -1.
    -200001    2    1    2    0    0 -0.33837395494E+03 -0.23510696706E+03  0.14474413799E+04  0.16250001158E+04  0.61299804960E+03 0.  0.
   -5000001    2    3    3    0    0  0.38968608512E+02  0.14155428917E+03  0.56386966467E+03  0.58810036749E+03  0.79730008584E+02 0.  0.
     200001    1    1    2    0    0  0.33837395494E+03  0.23510696706E+03  0.47754920424E+03  0.87954218876E+03  0.61300000000E+03 0. -1.
         11    1    4    4    0    0  0.33299195971E+02  0.87357072008E+02  0.22635689232E+03  0.24490311796E+03  0.51100000000E-03 0.  1.
    -200002    1    4    4    0    0  0.56694125404E+01  0.54197217160E+02  0.33751277235E+03  0.34319724953E+03  0.30000000000E+02 0.  1.
    -200000    1    3    3    0    0 -0.37734256345E+03 -0.37666125623E+03  0.88357171525E+03  0.10368997483E+04  0.10100000000E+03 0.  1.
<mgrwt>
<rscale>  0 0.16022308E+04</rscale>
<asrwt>0</asrwt>
<pdfrwt beam="1">  1        2 0.31639520E+00 0.16022308E+04</pdfrwt>
<pdfrwt beam="2">  1       -2 0.41396553E-01 0.16022308E+04</pdfrwt>
<totfact> 0.33007923E+01</totfact>
</mgrwt>
</event>
<event>
 8    2  0.7237260E-052  0.2440747E+04  0.7818608E-02  0.8424404E-01
          2   -1    0    0  501    0  0.00000000000E+00  0.00000000000E+00  0.44709163635E+04  0.44709163635E+04  0.25500000000E-02 0.  1.
         -2   -1    0    0    0  501 -0.00000000000E+00 -0.00000000000E+00 -0.33311090469E+03  0.33311090470E+03  0.25500000000E-02 0. -1.
    -200001    2    1    2    0    0  0.64669987448E+03  0.69891729333E+03  0.29643630085E+04  0.31732476096E+04  0.61265507048E+03 0.  0.
   -5000001    2    3    3    0    0 -0.67338082791E+02  0.79693968276E+02  0.77886545778E+03  0.78999599159E+03  0.81096975563E+02 0.  0.
     200001    1    1    2    0    0 -0.64669987448E+03 -0.69891729333E+03  0.11734424503E+04  0.16307796586E+04  0.61300000000E+03 0. -1.
         11    1    4    4    0    0 -0.23073166363E+02  0.32643210971E+02  0.51927510805E+03  0.52081147075E+03  0.51100000000E-03 0.  1.
    -200002    1    4    4    0    0 -0.44264916427E+02  0.47050757304E+02  0.25959034973E+03  0.26918452084E+03  0.30000000000E+02 0. -1.
    -200000    1    3    3    0    0  0.71403795727E+03  0.61922332505E+03  0.21854975507E+04  0.23832516180E+04  0.10100000000E+03 0. -1.
<mgrwt>
<rscale>  0 0.24407466E+04</rscale>
<asrwt>0</asrwt>
<pdfrwt beam="1">  1        2 0.63870235E+00 0.24407466E+04</pdfrwt>
<pdfrwt beam="2">  1       -2 0.47587271E-01 0.24407466E+04</pdfrwt>
<totfact> 0.96848672E-01</totfact>
</mgrwt>
</event>
<event>
 8    2  0.7237260E-052  0.1560416E+04  0.7818608E-02  0.8845242E-01
          2   -1    0    0  501    0  0.00000000000E+00  0.00000000000E+00  0.14263663371E+04  0.14263663371E+04  0.25500000000E-02 0.  1.
         -2   -1    0    0    0  501 -0.00000000000E+00 -0.00000000000E+00 -0.42676564555E+03  0.42676564556E+03  0.25500000000E-02 0. -1.
    -200001    2    1    2    0    0  0.15230549024E+03 -0.25702201679E+03  0.94842832995E+03  0.11692863202E+04  0.61518852558E+03 0.  0.
   -5000001    2    3    3    0    0  0.24210461118E+03 -0.40739789358E+03  0.62683631417E+03  0.78941896035E+03  0.75305004769E+02 0.  0.
     200001    1    1    2    0    0 -0.15230549024E+03  0.25702201679E+03  0.51172361558E+02  0.68384566245E+03  0.61300000000E+03 0. -1.
         11    1    4    4    0    0  0.10114405393E+03 -0.20496909292E+03  0.25796595319E+03  0.34465762969E+03  0.51100000000E-03 0.  1.
    -200002    1    4    4    0    0  0.14096055726E+03 -0.20242880065E+03  0.36887036098E+03  0.44476133066E+03  0.30000000000E+02 0.  1.
    -200000    1    3    3    0    0 -0.89799120944E+02  0.15037587679E+03  0.32159201578E+03  0.37986735982E+03  0.10100000000E+03 0.  1.
<mgrwt>
<rscale>  0 0.15604155E+04</rscale>
<asrwt>0</asrwt>
<pdfrwt beam="1">  1        2 0.20376662E+00 0.15604155E+04</pdfrwt>
<pdfrwt beam="2">  1       -2 0.60966521E-01 0.15604155E+04</pdfrwt>
<totfact> 0.38623856E+01</totfact>
</mgrwt>
</event>
<event>
 8    2  0.7237260E-052  0.1351125E+04  0.7818608E-02  0.8989977E-01
          2   -1    0    0  501    0  0.00000000000E+00  0.00000000000E+00  0.16093693425E+04  0.16093693425E+04  0.25500000000E-02 0.  1.
         -2   -1    0    0    0  501 -0.00000000000E+00 -0.00000000000E+00 -0.28357970137E+03  0.28357970138E+03  0.25500000000E-02 0. -1.
    -200001    2    1    2    0    0  0.20914697578E+03 -0.18241744773E+03  0.57728055023E+03  0.88644348410E+03  0.61278922487E+03 0.  0.
   -5000001    2    3    3    0    0 -0.11740647653E+03 -0.28133924823E+03  0.22829054201E+03  0.38802829005E+03  0.74251794462E+02 0.  0.
     200001    1    1    2    0    0 -0.20914697578E+03  0.18241744773E+03  0.74850909093E+03  0.10065055598E+04  0.61300000000E+03 0.  1.
         11    1    4    4    0    0 -0.92209118853E+02 -0.14555667624E+03  0.11966503181E+03  0.20978319150E+03  0.51100000000E-03 0.  1.
    -200002    1    4    4    0    0 -0.25197357675E+02 -0.13578257199E+03  0.10862551020E+03  0.17824509855E+03  0.30000000000E+02 0.  1.
    -200000    1    3    3    0    0  0.32655345230E+03  0.98921800498E+02  0.34899000822E+03  0.49841519405E+03  0.10100000000E+03 0.  1.
<mgrwt>
<rscale>  0 0.13511247E+04</rscale>
<asrwt>0</asrwt>
<pdfrwt beam="1">  1        2 0.22990990E+00 0.13511247E+04</pdfrwt>
<pdfrwt beam="2">  1       -2 0.40511387E-01 0.13511247E+04</pdfrwt>
<totfact> 0.72104968E+01</totfact>
</mgrwt>
</event>
<event>
 8    2  0.7237260E-052  0.1595041E+04  0.7818608E-02  0.8823600E-01
         -2   -1    0    0    0  501 -0.00000000000E+00  0.00000000000E+00  0.35861022541E+03  0.35861022542E+03  0.25500000000E-02 0. -1.
          2   -1    0    0  501    0  0.00000000000E+00 -0.00000000000E+00 -0.17736227432E+04  0.17736227432E+04  0.25500000000E-02 0.  1.
    -200001    2    1    2    0    0 -0.28151107586E+03 -0.41260227273E+03 -0.84541275541E+03  0.11577064115E+04  0.61324732930E+03 0.  0.
   -5000001    2    3    3    0    0 -0.23954790098E+03  0.96189404229E+02 -0.30450538102E+03  0.40709888004E+03  0.79814614640E+02 0.  0.
     200001    1    1    2    0    0  0.28151107586E+03  0.41260227273E+03 -0.56959976240E+03  0.97452655716E+03  0.61300000000E+03 0. -1.
         11    1    4    4    0    0 -0.36951505805E+02  0.45130938320E+02 -0.53575870294E+02  0.79199679626E+02  0.51100000000E-03 0.  1.
    -200002    1    4    4    0    0 -0.20259639518E+03  0.51058465909E+02 -0.25092951073E+03  0.32789920042E+03  0.30000000000E+02 0.  1.
    -200000    1    3    3    0    0 -0.41963174872E+02 -0.50879167695E+03 -0.54090737439E+03  0.75060753144E+03  0.10100000000E+03 0. -1.
<mgrwt>
<rscale>  0 0.15950414E+04</rscale>
<asrwt>0</asrwt>
<pdfrwt beam="1">  1        2 0.25337467E+00 0.15950414E+04</pdfrwt>
<pdfrwt beam="2">  1       -2 0.51230033E-01 0.15950414E+04</pdfrwt>
<totfact> 0.36339735E+01</totfact>
</mgrwt>
</event>
<event>
 8    2  0.7237260E-052  0.1463232E+04  0.7818608E-02  0.8909279E-01
         -2   -1    0    0    0  501 -0.00000000000E+00  0.00000000000E+00  0.20238902338E+03  0.20238902340E+03  0.25500000000E-02 0. -1.
          2   -1    0    0  501    0  0.00000000000E+00 -0.00000000000E+00 -0.26447166094E+04  0.26447166094E+04  0.25500000000E-02 0.  1.
    -200001    2    1    2    0    0  0.38522470016E+03 -0.88357643455E+01 -0.14243670555E+04  0.15979103790E+04  0.61320463978E+03 0.  0.
   -5000001    2    3    3    0    0  0.26130333577E+03 -0.82886897520E+02 -0.13852513019E+04  0.14174356798E+04  0.12269093638E+03 0.  0.
     200001    1    1    2    0    0 -0.38522470016E+03  0.88357643455E+01 -0.10179605305E+04  0.12491952537E+04  0.61300000000E+03 0. -1.
         11    1    4    4    0    0  0.18010924921E+03 -0.74524732359E+02 -0.69802259149E+03  0.72472671789E+03  0.51100000000E-03 0.  1.
    -200002    1    4    4    0    0  0.81194086569E+02 -0.83621651610E+01 -0.68722871044E+03  0.69270896194E+03  0.30000000000E+02 0.  1.
    -200000    1    3    3    0    0  0.12392136439E+03  0.74051133174E+02 -0.39115753577E+02  0.18047469921E+03  0.10100000000E+03 0. -1.
<mgrwt>
<rscale>  0 0.14632315E+04</rscale>
<asrwt>0</asrwt>
<pdfrwt beam="1">  1        2 0.37781664E+00 0.14632315E+04</pdfrwt>
<pdfrwt beam="2">  1       -2 0.28912719E-01 0.14632315E+04</pdfrwt>
<totfact> 0.39445488E+01</totfact>
</mgrwt>
</event>
<event>
 8    2  0.7237260E-052  0.1593175E+04  0.7818608E-02  0.8824752E-01
          2   -1    0    0  501    0  0.00000000000E+00  0.00000000000E+00  0.73030843566E+03  0.73030843566E+03  0.25500000000E-02 0.  1.
         -2   -1    0    0    0  501 -0.00000000000E+00 -0.00000000000E+00 -0.86888120705E+03  0.86888120705E+03  0.25500000000E-02 0. -1.
    -200001    2    1    2    0    0  0.36445793603E+03 -0.20226512774E+03 -0.36126726073E+03  0.82517245646E+03  0.61372207080E+03 0.  0.
   -5000001    2    3    3    0    0 -0.14354622951E+03  0.48005069266E+02 -0.95520935325E+02  0.19151204805E+03  0.68136691889E+02 0.  0.
     200001    1    1    2    0    0 -0.36445793603E+03  0.20226512774E+03  0.22269448934E+03  0.77401718626E+03  0.61300000000E+03 0.  1.
         11    1    4    4    0    0 -0.17782439132E+02 -0.12504715266E+02 -0.44661598569E+01  0.22193008573E+02  0.51100000000E-03 0.  1.
    -200002    1    4    4    0    0 -0.12576379038E+03  0.60509784532E+02 -0.91054775468E+02  0.16931903948E+03  0.30000000000E+02 0.  1.
    -200000    1    3    3    0    0  0.50800416554E+03 -0.25027019701E+03 -0.26574632540E+03  0.63366040841E+03  0.10100000000E+03 0.  1.
<mgrwt>
<rscale>  0 0.15931745E+04</rscale>
<asrwt>0</asrwt>
<pdfrwt beam="1">  1        2 0.10432978E+00 0.15931745E+04</pdfrwt>
<pdfrwt beam="2">  1       -2 0.12412589E+00 0.15931745E+04</pdfrwt>
<totfact> 0.20032675E+01</totfact>
</mgrwt>
</event>
<event>
 8    2  0.7237260E-052  0.2848865E+04  0.7818608E-02  0.8288256E-01
          2   -1    0    0  501    0  0.00000000000E+00  0.00000000000E+00  0.18774101745E+04  0.18774101745E+04  0.25500000000E-02 0.  1.
         -2   -1    0    0    0  501 -0.00000000000E+00 -0.00000000000E+00 -0.10807480163E+04  0.10807480163E+04  0.25500000000E-02 0. -1.
    -200001    2    1    2    0    0  0.12746938351E+04 -0.51720556474E+02  0.56451601885E+03  0.15238708349E+04  0.61317582863E+03 0.  0.
   -5000001    2    3    3    0    0  0.95080366238E+03  0.93778246598E+02  0.18864989098E+03  0.99703965536E+03  0.21372255164E+03 0.  0.
     200001    1    1    2    0    0 -0.12746938351E+04  0.51720556474E+02  0.23214613931E+03  0.14342873559E+04  0.61300000000E+03 0.  1.
         11    1    4    4    0    0  0.30491469494E+03  0.12788004841E+03  0.43600101154E+02  0.33350749136E+03  0.51100000000E-03 0.  1.
    -200002    1    4    4    0    0  0.64588896744E+03 -0.34101801810E+02  0.14504978982E+03  0.66353216401E+03  0.30000000000E+02 0.  1.
    -200000    1    3    3    0    0  0.32389017271E+03 -0.14549880307E+03  0.37586612787E+03  0.52683117956E+03  0.10100000000E+03 0.  1.
<mgrwt>
<rscale>  0 0.28488646E+04</rscale>
<asrwt>0</asrwt>
<pdfrwt beam="1">  1        2 0.26820145E+00 0.28488646E+04</pdfrwt>
<pdfrwt beam="2">  1       -2 0.15439257E+00 0.28488646E+04</pdfrwt>
<totfact> 0.22484643E+00</totfact>
</mgrwt>
</event>
<event>
 8    2  0.7237260E-052  0.1356713E+04  0.7818608E-02  0.8985762E-01
          2   -1    0    0  501    0  0.00000000000E+00  0.00000000000E+00  0.12109373530E+04  0.12109373530E+04  0.25500000000E-02 0.  1.
         -2   -1    0    0    0  501 -0.00000000000E+00 -0.00000000000E+00 -0.38000957771E+03  0.38000957772E+03  0.25500000000E-02 0. -1.
    -200001    2    1    2    0    0 -0.22444035663E+03  0.55089424276E+02  0.62296880489E+03  0.90361567747E+03  0.61239108611E+03 0.  0.
   -5000001    2    3    3    0    0 -0.30075571279E+03  0.16310847396E+03  0.11604686063E+03  0.37007748178E+03  0.80200346673E+02 0.  0.
     200001    1    1    2    0    0  0.22444035663E+03 -0.55089424276E+02  0.20795897041E+03  0.68733125327E+03  0.61300000000E+03 0.  1.
         11    1    4    4    0    0 -0.22444501072E+03  0.13302777960E+03  0.10797458830E+03  0.28236583487E+03  0.51100000000E-03 0.  1.
    -200002    1    4    4    0    0 -0.76310702067E+02  0.30080694361E+02  0.80722723282E+01  0.87711646910E+02  0.30000000000E+02 0.  1.
    -200000    1    3    3    0    0  0.76315356159E+02 -0.10801904969E+03  0.50692194427E+03  0.53353819569E+03  0.10100000000E+03 0.  1.
<mgrwt>
<rscale>  0 0.13567134E+04</rscale>
<asrwt>0</asrwt>
<pdfrwt beam="1">  1        2 0.17299105E+00 0.13567134E+04</pdfrwt>
<pdfrwt beam="2">  1       -2 0.54287084E-01 0.13567134E+04</pdfrwt>
<totfact> 0.65754906E+01</totfact>
</mgrwt>
</event>
<event>
 8    2  0.7237260E-052  0.1372137E+04  0.7818608E-02  0.8974238E-01
         -2   -1    0    0    0  501 -0.00000000000E+00  0.00000000000E+00  0.32637182288E+03  0.32637182289E+03  0.25500000000E-02 0. -1.
          2   -1    0    0  501    0  0.00000000000E+00 -0.00000000000E+00 -0.14421889634E+04  0.14421889634E+04  0.25500000000E-02 0.  1.
    -200001    2    1    2    0    0 -0.10923070263E+03  0.10413148101E+03 -0.89834860051E+03  0.11008510607E+04  0.61811660563E+03 0.  0.
   -5000001    2    3    3    0    0  0.54912919138E+02  0.28058756731E+03 -0.71423628981E+03  0.78119777684E+03  0.13561591811E+03 0.  0.
     200001    1    1    2    0    0  0.10923070263E+03 -0.10413148101E+03 -0.21746854005E+03  0.66770972559E+03  0.61300000000E+03 0. -1.
         11    1    4    4    0    0 -0.31786078148E+01  0.71967407127E+02 -0.34202205344E+03  0.34952610242E+03  0.51100000000E-03 0.  1.
    -200002    1    4    4    0    0  0.58091526953E+02  0.20862016018E+03 -0.37221423637E+03  0.43167167442E+03  0.30000000000E+02 0.  1.
    -200000    1    3    3    0    0 -0.16414362177E+03 -0.17645608630E+03 -0.18411231071E+03  0.31965328390E+03  0.10100000000E+03 0. -1.
<mgrwt>
<rscale>  0 0.13721368E+04</rscale>
<asrwt>0</asrwt>
<pdfrwt beam="1">  1        2 0.20602699E+00 0.13721368E+04</pdfrwt>
<pdfrwt beam="2">  1       -2 0.46624547E-01 0.13721368E+04</pdfrwt>
<totfact> 0.66804995E+01</totfact>
</mgrwt>
</event>
<event>
 8    2  0.7237260E-052  0.1832490E+04  0.7818608E-02  0.8689210E-01
          2   -1    0    0  501    0  0.00000000000E+00  0.00000000000E+00  0.11829370575E+04  0.11829370575E+04  0.25500000000E-02 0.  1.
         -2   -1    0    0    0  501 -0.00000000000E+00 -0.00000000000E+00 -0.70967841744E+03  0.70967841744E+03  0.25500000000E-02 0. -1.
    -200001    2    1    2    0    0 -0.11074265312E+03 -0.26920036842E+03  0.87285125688E+03  0.11051029144E+04  0.61208689024E+03 0.  0.
   -5000001    2    3    3    0    0 -0.86133011301E+02  0.11005269647E+02 -0.48710989288E+02  0.13628982219E+03  0.93070637473E+02 0.  0.
     200001    1    1    2    0    0  0.11074265312E+03  0.26920036842E+03 -0.39959261683E+03  0.78751256054E+03  0.61300000000E+03 0. -1.
         11    1    4    4    0    0  0.95797290563E+01  0.24209880049E+02 -0.11959859475E+02  0.28651836586E+02  0.51100000000E-03 0.  1.
    -200002    1    4    4    0    0 -0.95712740357E+02 -0.13204610403E+02 -0.36751129813E+02  0.10763798560E+03  0.30000000000E+02 0.  1.
    -200000    1    3    3    0    0 -0.24609641820E+02 -0.28020563807E+03  0.92156224617E+03  0.96881309221E+03  0.10100000000E+03 0.  1.
<mgrwt>
<rscale>  0 0.18324900E+04</rscale>
<asrwt>0</asrwt>
<pdfrwt beam="1">  1        2 0.16899101E+00 0.18324900E+04</pdfrwt>
<pdfrwt beam="2">  1       -2 0.10138263E+00 0.18324900E+04</pdfrwt>
<totfact> 0.16510719E+01</totfact>
</mgrwt>
</event>
<event>
 8    2  0.7237260E-052  0.1411651E+04  0.7818608E-02  0.8945428E-01
         -2   -1    0    0    0  501 -0.00000000000E+00  0.00000000000E+00  0.26841821517E+03  0.26841821518E+03  0.25500000000E-02 0. -1.
          2   -1    0    0  501    0  0.00000000000E+00 -0.00000000000E+00 -0.18560198609E+04  0.18560198609E+04  0.25500000000E-02 0.  1.
    -200001    2    1    2    0    0 -0.16114418280E+03  0.29185618077E+03 -0.63809257718E+03  0.94609858801E+03  0.61383460579E+03 0.  0.
   -5000001    2    3    3    0    0 -0.15131426943E+03  0.45635768235E+03 -0.51714118178E+03  0.71809066870E+03  0.13061724314E+03 0.  0.
     200001    1    1    2    0    0  0.16114418280E+03 -0.29185618077E+03 -0.94950906855E+03  0.11783394881E+04  0.61300000000E+03 0.  1.
         11    1    4    4    0    0 -0.45301609560E+02  0.28407399146E+03 -0.35621928726E+03  0.45786728325E+03  0.51100000000E-03 0.  1.
    -200002    1    4    4    0    0 -0.10601265987E+03  0.17228369089E+03 -0.16092189452E+03  0.26022338545E+03  0.30000000000E+02 0.  1.
    -200000    1    3    3    0    0 -0.98299133728E+01 -0.16450150158E+03 -0.12095139540E+03  0.22800791931E+03  0.10100000000E+03 0.  1.
<mgrwt>
<rscale>  0 0.14116509E+04</rscale>
<asrwt>0</asrwt>
<pdfrwt beam="1">  1        2 0.26514569E+00 0.14116509E+04</pdfrwt>
<pdfrwt beam="2">  1       -2 0.38345460E-01 0.14116509E+04</pdfrwt>
<totfact> 0.59512511E+01</totfact>
</mgrwt>
</event>
<event>
 8    2  0.7237260E-052  0.1730356E+04  0.7818608E-02  0.8744238E-01
         -2   -1    0    0    0  501 -0.00000000000E+00  0.00000000000E+00  0.73038404298E+03  0.73038404298E+03  0.25500000000E-02 0. -1.
          2   -1    0    0  501    0  0.00000000000E+00 -0.00000000000E+00 -0.10248488400E+04  0.10248488400E+04  0.25500000000E-02 0.  1.
    -200001    2    1    2    0    0  0.57817096893E+03 -0.11330782801E+03  0.15852435676E+02  0.85014387181E+03  0.61267688863E+03 0.  0.
   -5000001    2    3    3    0    0  0.35199359702E+03 -0.25120679245E+03 -0.12561438125E+03  0.53330607696E+03  0.28571323741E+03 0.  0.
     200001    1    1    2    0    0 -0.57817096893E+03  0.11330782801E+03 -0.31031723266E+03  0.90508901114E+03  0.61300000000E+03 0.  1.
         11    1    4    4    0    0  0.74156341709E+02  0.41715100702E+02  0.42304933451E+02  0.95021155733E+02  0.51100000000E-03 0.  1.
    -200002    1    4    4    0    0  0.27783725531E+03 -0.29292189315E+03 -0.16791931470E+03  0.43828492122E+03  0.30000000000E+02 0.  1.
    -200000    1    3    3    0    0  0.22617737191E+03  0.13789896443E+03  0.14146681692E+03  0.31683779485E+03  0.10100000000E+03 0. -1.
<mgrwt>
<rscale>  0 0.17303563E+04</rscale>
<asrwt>0</asrwt>
<pdfrwt beam="1">  1        2 0.14640698E+00 0.17303563E+04</pdfrwt>
<pdfrwt beam="2">  1       -2 0.10434058E+00 0.17303563E+04</pdfrwt>
<totfact> 0.19266049E+01</totfact>
</mgrwt>
</event>
<event>
 8    2  0.7237260E-052  0.1265002E+04  0.7818608E-02  0.9057789E-01
         -2   -1    0    0    0  501 -0.00000000000E+00  0.00000000000E+00  0.18407669485E+03  0.18407669487E+03  0.25500000000E-02 0.  1.
          2   -1    0    0  501    0  0.00000000000E+00 -0.00000000000E+00 -0.21733201166E+04  0.21733201166E+04  0.25500000000E-02 0. -1.
    -200001    2    1    2    0    0  0.44830566067E+02  0.12599987933E+03 -0.83581931707E+03  0.10443690454E+04  0.61174097699E+03 0.  0.
   -5000001    2    3    3    0    0  0.29237568459E+03 -0.12973300647E+02 -0.57071662216E+03  0.64303057314E+03  0.46032680920E+02 0.  0.
     200001    1    1    2    0    0 -0.44830566067E+02 -0.12599987933E+03 -0.11534241046E+04  0.13130277661E+04  0.61300000000E+03 0. -1.
         11    1    4    4    0    0  0.11221107052E+03 -0.16173983831E+02 -0.23062954861E+03  0.25698815302E+03  0.51100000000E-03 0.  1.
    -200002    1    4    4    0    0  0.18016461407E+03  0.32006831838E+01 -0.34008707356E+03  0.38604242013E+03  0.30000000000E+02 0. -1.
    -200000    1    3    3    0    0 -0.24754511852E+03  0.13897317998E+03 -0.26510269491E+03  0.40133847224E+03  0.10100000000E+03 0. -1.
<mgrwt>
<rscale>  0 0.12650021E+04</rscale>
<asrwt>0</asrwt>
<pdfrwt beam="1">  1        2 0.31047429E+00 0.12650021E+04</pdfrwt>
<pdfrwt beam="2">  1       -2 0.26296672E-01 0.12650021E+04</pdfrwt>
<totfact> 0.84047159E+01</totfact>
</mgrwt>
</event>
<event>
 8    2  0.7237260E-052  0.1732419E+04  0.7818608E-02  0.8743088E-01
          2   -1    0    0  501    0  0.00000000000E+00  0.00000000000E+00  0.16776337417E+04  0.16776337417E+04  0.25500000000E-02 0.  1.
         -2   -1    0    0    0  501 -0.00000000000E+00 -0.00000000000E+00 -0.44724833600E+03  0.44724833600E+03  0.25500000000E-02 0. -1.
    -200001    2    1    2    0    0 -0.57067348154E+03  0.21903915302E+03  0.57767929574E+03  0.10407046757E+04  0.61294900292E+03 0.  0.
   -5000001    2    3    3    0    0 -0.49607166257E+03  0.37115047372E+03  0.53245630361E+03  0.83834508412E+03  0.18834276274E+03 0.  0.
     200001    1    1    2    0    0  0.57067348154E+03 -0.21903915302E+03  0.65270610998E+03  0.10841774020E+04  0.61300000000E+03 0.  1.
         11    1    4    4    0    0 -0.34668582184E+03  0.21409965066E+03  0.23933926231E+03  0.47256005117E+03  0.51100000000E-03 0.  1.
    -200002    1    4    4    0    0 -0.14938584073E+03  0.15705082306E+03  0.29311704130E+03  0.36578503295E+03  0.30000000000E+02 0.  1.
    -200000    1    3    3    0    0 -0.74601818969E+02 -0.15211132070E+03  0.45222992130E+02  0.20235959156E+03  0.10100000000E+03 0.  1.
<mgrwt>
<rscale>  0 0.17324190E+04</rscale>
<asrwt>0</asrwt>
<pdfrwt beam="1">  1        2 0.23966197E+00 0.17324190E+04</pdfrwt>
<pdfrwt beam="2">  1       -2 0.63892619E-01 0.17324190E+04</pdfrwt>
<totfact> 0.25398416E+01</totfact>
</mgrwt>
</event>
<event>
 8    2  0.7237260E-052  0.1971934E+04  0.7818608E-02  0.8619856E-01
         -2   -1    0    0    0  501 -0.00000000000E+00  0.00000000000E+00  0.29584854114E+03  0.29584854115E+03  0.25500000000E-02 0. -1.
          2   -1    0    0  501    0  0.00000000000E+00 -0.00000000000E+00 -0.32859082475E+04  0.32859082475E+04  0.25500000000E-02 0.  1.
    -200001    2    1    2    0    0  0.27985021375E+03 -0.72062261333E+03 -0.15231884774E+04  0.18139634480E+04  0.61053022852E+03 0.  0.
   -5000001    2    3    3    0    0 -0.42229457458E+02 -0.13383612921E+03 -0.16547955781E+02  0.16223091698E+03  0.79684371282E+02 0.  0.
     200001    1    1    2    0    0 -0.27985021375E+03  0.72062261333E+03 -0.14668712289E+04  0.17677933406E+04  0.61300000000E+03 0. -1.
         11    1    4    4    0    0 -0.49253649106E+01 -0.42060768875E+02 -0.37565627867E+02  0.56608690986E+02  0.51100000000E-03 0.  1.
    -200002    1    4    4    0    0 -0.37304092547E+02 -0.91775360331E+02  0.21017672086E+02  0.10562222600E+03  0.30000000000E+02 0.  1.
    -200000    1    3    3    0    0  0.32207967121E+03 -0.58678648413E+03 -0.15066405216E+04  0.16517325310E+04  0.10100000000E+03 0.  1.
<mgrwt>
<rscale>  0 0.19719342E+04</rscale>
<asrwt>0</asrwt>
<pdfrwt beam="1">  1        2 0.46941544E+00 0.19719342E+04</pdfrwt>
<pdfrwt beam="2">  1       -2 0.42264079E-01 0.19719342E+04</pdfrwt>
<totfact> 0.80321143E+00</totfact>
</mgrwt>
</event>
<event>
 8    2  0.7237260E-052  0.1559878E+04  0.7818608E-02  0.8845583E-01
          2   -1    0    0  501    0  0.00000000000E+00  0.00000000000E+00  0.58572275451E+03  0.58572275451E+03  0.25500000000E-02 0.  1.
         -2   -1    0    0    0  501 -0.00000000000E+00 -0.00000000000E+00 -0.10385543199E+04  0.10385543199E+04  0.25500000000E-02 0. -1.
    -200001    2    1    2    0    0  0.38923433550E+03  0.14543912031E+03 -0.48178410192E+03  0.88315417294E+03  0.61252711505E+03 0.  0.
   -5000001    2    3    3    0    0  0.37060132817E+03  0.13334603231E+03 -0.60244469700E+03  0.72424095466E+03  0.80366900418E+02 0.  0.
     200001    1    1    2    0    0 -0.38923433550E+03 -0.14543912031E+03  0.28952536565E+02  0.74112290143E+03  0.61300000000E+03 0.  1.
         11    1    4    4    0    0  0.59546519641E+02  0.51263013978E+02 -0.10692426659E+03  0.13268942456E+03  0.51100000000E-03 0.  1.
    -200002    1    4    4    0    0  0.31105480853E+03  0.82083018337E+02 -0.49552043041E+03  0.59155153010E+03  0.30000000000E+02 0.  1.
    -200000    1    3    3    0    0  0.18633007336E+02  0.12093087997E+02  0.12066059508E+03  0.15891321829E+03  0.10100000000E+03 0.  1.
<mgrwt>
<rscale>  0 0.15598781E+04</rscale>
<asrwt>0</asrwt>
<pdfrwt beam="1">  1        2 0.83674679E-01 0.15598781E+04</pdfrwt>
<pdfrwt beam="2">  1       -2 0.14836490E+00 0.15598781E+04</pdfrwt>
<totfact> 0.16591142E+01</totfact>
</mgrwt>
</event>
<event>
 8    2  0.7237260E-052  0.1296768E+04  0.7818608E-02  0.9032132E-01
         -2   -1    0    0    0  501 -0.00000000000E+00  0.00000000000E+00  0.47025995667E+03  0.47025995667E+03  0.25500000000E-02 0. -1.
          2   -1    0    0  501    0  0.00000000000E+00 -0.00000000000E+00 -0.89397790361E+03  0.89397790361E+03  0.25500000000E-02 0.  1.
    -200001    2    1    2    0    0 -0.10157799503E+02 -0.78964944650E+02 -0.49259441053E+01  0.61758239421E+03  0.61240926295E+03 0.  0.
   -5000001    2    3    3    0    0 -0.27837018308E+03 -0.51587965037E+02 -0.10035663650E+03  0.31427496145E+03  0.92444685844E+02 0.  0.
     200001    1    1    2    0    0  0.10157799503E+02  0.78964944650E+02 -0.41879200284E+03  0.74665546607E+03  0.61300000000E+03 0.  1.
         11    1    4    4    0    0 -0.44920469535E+02 -0.12974619972E+02  0.15301165144E+02  0.49196697061E+02  0.51100000000E-03 0.  1.
    -200002    1    4    4    0    0 -0.23344971355E+03 -0.38613345065E+02 -0.11565780164E+03  0.26507826439E+03  0.30000000000E+02 0.  1.
    -200000    1    3    3    0    0  0.26821238358E+03 -0.27376979613E+02  0.95430692393E+02  0.30330743276E+03  0.10100000000E+03 0. -1.
<mgrwt>
<rscale>  0 0.12967683E+04</rscale>
<asrwt>0</asrwt>
<pdfrwt beam="1">  1        2 0.12771113E+00 0.12967683E+04</pdfrwt>
<pdfrwt beam="2">  1       -2 0.67179994E-01 0.12967683E+04</pdfrwt>
<totfact> 0.65487525E+01</totfact>
</mgrwt>
</event>
<event>
 8    2  0.7237260E-052  0.1755181E+04  0.7818608E-02  0.8730504E-01
         -2   -1    0    0    0  501 -0.00000000000E+00  0.00000000000E+00  0.44839112133E+03  0.44839112134E+03  0.25500000000E-02 0. -1.
          2   -1    0    0  501    0  0.00000000000E+00 -0.00000000000E+00 -0.17176183154E+04  0.17176183154E+04  0.25500000000E-02 0.  1.
    -200001    2    1    2    0    0  0.50668864786E+03 -0.17625961214E+03 -0.23273592562E+03  0.84772115782E+03  0.61372983763E+03 0.  0.
   -5000001    2    3    3    0    0  0.35559616852E+03 -0.27622267511E+03 -0.37330917916E+03  0.59715501709E+03  0.12036099819E+03 0.  0.
     200001    1    1    2    0    0 -0.50668864786E+03  0.17625961214E+03 -0.10364912684E+04  0.13182882789E+04  0.61300000000E+03 0.  1.
         11    1    4    4    0    0  0.11797187209E+03 -0.44703537635E+02 -0.59418388755E+02  0.13945004053E+03  0.51100000000E-03 0.  1.
    -200002    1    4    4    0    0  0.23762429643E+03 -0.23151913747E+03 -0.31389079040E+03  0.45770497656E+03  0.30000000000E+02 0.  1.
    -200000    1    3    3    0    0  0.15109247934E+03  0.99963062964E+02  0.14057325353E+03  0.25056614073E+03  0.10100000000E+03 0. -1.
<mgrwt>
<rscale>  0 0.17551807E+04</rscale>
<asrwt>0</asrwt>
<pdfrwt beam="1">  1        2 0.24537404E+00 0.17551807E+04</pdfrwt>
<pdfrwt beam="2">  1       -2 0.64055875E-01 0.17551807E+04</pdfrwt>
<totfact> 0.24034850E+01</totfact>
</mgrwt>
</event>
<event>
 8    2  0.7237260E-052  0.1528636E+04  0.7818608E-02  0.8865631E-01
         -2   -1    0    0    0  501 -0.00000000000E+00  0.00000000000E+00  0.13532412010E+04  0.13532412010E+04  0.25500000000E-02 0. -1.
          2   -1    0    0  501    0  0.00000000000E+00 -0.00000000000E+00 -0.43169089772E+03  0.43169089772E+03  0.25500000000E-02 0.  1.
    -200001    2    1    2    0    0 -0.24227561693E+03  0.16934027070E+03  0.86701209049E+03  0.11022044675E+04  0.61300173025E+03 0.  0.
   -5000001    2    3    3    0    0  0.52742467628E+02  0.32059277100E+03  0.43123252571E+03  0.54541203029E+03  0.77144661779E+02 0.  0.
     200001    1    1    2    0    0  0.24227561693E+03 -0.16934027070E+03  0.54538212842E+02  0.68272763127E+03  0.61300000000E+03 0.  1.
         11    1    4    4    0    0  0.16076287886E+01 -0.31666955996E+01  0.11387140522E+02  0.11928092927E+02  0.51100000000E-03 0.  1.
    -200002    1    4    4    0    0  0.51134838839E+02  0.32375946660E+03  0.41984538519E+03  0.53348393736E+03  0.30000000000E+02 0.  1.
    -200000    1    3    3    0    0 -0.29501808456E+03 -0.15125250030E+03  0.43577956477E+03  0.55679243721E+03  0.10100000000E+03 0.  1.
<mgrwt>
<rscale>  0 0.15286359E+04</rscale>
<asrwt>0</asrwt>
<pdfrwt beam="1">  1        2 0.61670129E-01 0.15286359E+04</pdfrwt>
<pdfrwt beam="2">  1       -2 0.19332017E+00 0.15286359E+04</pdfrwt>
<totfact> 0.11280428E+01</totfact>
</mgrwt>
</event>
<event>
 8    2  0.7237260E-052  0.1362411E+04  0.7818608E-02  0.8981486E-01
         -2   -1    0    0    0  501 -0.00000000000E+00  0.00000000000E+00  0.24252417399E+03  0.24252417400E+03  0.25500000000E-02 0. -1.
          2   -1    0    0  501    0  0.00000000000E+00 -0.00000000000E+00 -0.19133791830E+04  0.19133791830E+04  0.25500000000E-02 0.  1.
    -200001    2    1    2    0    0 -0.21709575496E+03 -0.12983848860E+03 -0.58992524006E+03  0.88776820436E+03  0.61329600999E+03 0.  0.
   -5000001    2    3    3    0    0  0.12473457980E+02 -0.31507383260E+03 -0.42398908596E+03  0.53456859588E+03  0.81053880535E+02 0.  0.
     200001    1    1    2    0    0  0.21709575496E+03  0.12983848860E+03 -0.10809297690E+04  0.12681351526E+04  0.61300000000E+03 0.  1.
         11    1    4    4    0    0 -0.17324114618E+02 -0.13628518925E+03 -0.13855036028E+03  0.19511529948E+03  0.51100000000E-03 0.  1.
    -200002    1    4    4    0    0  0.29797572597E+02 -0.17878864335E+03 -0.28543872568E+03  0.33945329640E+03  0.30000000000E+02 0.  1.
    -200000    1    3    3    0    0 -0.22956921294E+03  0.18523534399E+03 -0.16593615410E+03  0.35319960848E+03  0.10100000000E+03 0.  1.
<mgrwt>
<rscale>  0 0.13624107E+04</rscale>
<asrwt>0</asrwt>
<pdfrwt beam="1">  1        2 0.27333988E+00 0.13624107E+04</pdfrwt>
<pdfrwt beam="2">  1       -2 0.34646311E-01 0.13624107E+04</pdfrwt>
<totfact> 0.67832546E+01</totfact>
</mgrwt>
</event>
<event>
 8    2  0.7237260E-052  0.1369736E+04  0.7818608E-02  0.8976021E-01
          2   -1    0    0  501    0  0.00000000000E+00  0.00000000000E+00  0.11502239155E+04  0.11502239155E+04  0.25500000000E-02 0.  1.
         -2   -1    0    0    0  501 -0.00000000000E+00 -0.00000000000E+00 -0.40778502752E+03  0.40778502753E+03  0.25500000000E-02 0. -1.
    -200001    2    1    2    0    0 -0.13562508767E+03 -0.24005707554E+03  0.51758339485E+03  0.84924201612E+03  0.61424577117E+03 0.  0.
   -5000001    2    3    3    0    0 -0.30991822722E+03 -0.11390394548E+03  0.34163561471E+03  0.55352030224E+03  0.28398312520E+03 0.  0.
     200001    1    1    2    0    0  0.13562508767E+03  0.24005707554E+03  0.22485549316E+03  0.70876692694E+03  0.61300000000E+03 0. -1.
         11    1    4    4    0    0 -0.21842227036E+03 -0.15339167563E+03  0.35968488804E+03  0.44789564971E+03  0.51100000000E-03 0.  1.
    -200002    1    4    4    0    0 -0.91495956864E+02  0.39487730155E+02 -0.18049273334E+02  0.10562465254E+03  0.30000000000E+02 0.  1.
    -200000    1    3    3    0    0  0.17429313955E+03 -0.12615313007E+03  0.17594778014E+03  0.29572171387E+03  0.10100000000E+03 0. -1.
<mgrwt>
<rscale>  0 0.13697359E+04</rscale>
<asrwt>0</asrwt>
<pdfrwt beam="1">  1        2 0.16431770E+00 0.13697359E+04</pdfrwt>
<pdfrwt beam="2">  1       -2 0.58255005E-01 0.13697359E+04</pdfrwt>
<totfact> 0.61445514E+01</totfact>
</mgrwt>
</event>
<event>
 8    2  0.7237260E-052  0.1983554E+04  0.7818608E-02  0.8614349E-01
         -2   -1    0    0    0  501 -0.00000000000E+00  0.00000000000E+00  0.51313905878E+03  0.51313905879E+03  0.25500000000E-02 0. -1.
          2   -1    0    0  501    0  0.00000000000E+00 -0.00000000000E+00 -0.19168705637E+04  0.19168705637E+04  0.25500000000E-02 0.  1.
    -200001    2    1    2    0    0  0.60710393855E+03 -0.28338456719E+03 -0.11899323730E+04  0.14970781813E+04  0.61353241440E+03 0.  0.
   -5000001    2    3    3    0    0  0.62657373001E+03 -0.14394733930E+03 -0.60418008888E+03  0.88623568799E+03  0.84051408293E+02 0.  0.
     200001    1    1    2    0    0 -0.60710393855E+03  0.28338456719E+03 -0.21379913193E+03  0.93293144118E+03  0.61300000000E+03 0. -1.
         11    1    4    4    0    0  0.23051264344E+03 -0.87647472587E+02 -0.21182174810E+03  0.32509477265E+03  0.51100000000E-03 0.  1.
    -200002    1    4    4    0    0  0.39606108657E+03 -0.56299866716E+02 -0.39235834078E+03  0.56114091534E+03  0.30000000000E+02 0.  1.
    -200000    1    3    3    0    0 -0.19469791460E+02 -0.13943722789E+03 -0.58575228409E+03  0.61084249330E+03  0.10100000000E+03 0.  1.
<mgrwt>
<rscale>  0 0.19835535E+04</rscale>
<asrwt>0</asrwt>
<pdfrwt beam="1">  1        2 0.27383865E+00 0.19835535E+04</pdfrwt>
<pdfrwt beam="2">  1       -2 0.73305580E-01 0.19835535E+04</pdfrwt>
<totfact> 0.13888647E+01</totfact>
</mgrwt>
</event>
<event>
 8    2  0.7237260E-052  0.2088399E+04  0.7818608E-02  0.8566371E-01
          2   -1    0    0  501    0  0.00000000000E+00  0.00000000000E+00  0.15859653483E+04  0.15859653483E+04  0.25500000000E-02 0.  1.
         -2   -1    0    0    0  501 -0.00000000000E+00 -0.00000000000E+00 -0.68750057256E+03  0.68750057257E+03  0.25500000000E-02 0. -1.
    -200001    2    1    2    0    0 -0.81067725829E+03 -0.14806476765E+03  0.24498680724E+03  0.10561232214E+04  0.61339785669E+03 0.  0.
   -5000001    2    3    3    0    0 -0.85601115492E+03 -0.21157005392E+03  0.15146330652E+03  0.89789639451E+03  0.75893458137E+02 0.  0.
     200001    1    1    2    0    0  0.81067725829E+03  0.14806476765E+03  0.65347796846E+03  0.12173426994E+04  0.61300000000E+03 0.  1.
         11    1    4    4    0    0 -0.55474691546E+03 -0.14757967906E+03  0.73033572275E+02  0.57866899395E+03  0.51100000000E-03 0.  1.
    -200002    1    4    4    0    0 -0.30126423946E+03 -0.63990374864E+02  0.78429734242E+02  0.31922740056E+03  0.30000000000E+02 0.  1.
    -200000    1    3    3    0    0  0.45333896633E+02  0.63505286276E+02  0.93523500725E+02  0.15822682692E+03  0.10100000000E+03 0.  1.
<mgrwt>
<rscale>  0 0.20883985E+04</rscale>
<asrwt>0</asrwt>
<pdfrwt beam="1">  1        2 0.22656648E+00 0.20883985E+04</pdfrwt>
<pdfrwt beam="2">  1       -2 0.98214367E-01 0.20883985E+04</pdfrwt>
<totfact> 0.10512215E+01</totfact>
</mgrwt>
</event>
<event>
 8    2  0.7237260E-052  0.1981052E+04  0.7818608E-02  0.8615531E-01
         -2   -1    0    0    0  501 -0.00000000000E+00  0.00000000000E+00  0.47134270199E+03  0.47134270199E+03  0.25500000000E-02 0.  1.
          2   -1    0    0  501    0  0.00000000000E+00 -0.00000000000E+00 -0.20815890239E+04  0.20815890239E+04  0.25500000000E-02 0. -1.
    -200001    2    1    2    0    0  0.11483500584E+03  0.23859247402E+02 -0.17958720773E+04  0.19017925217E+04  0.61473728964E+03 0.  0.
   -5000001    2    3    3    0    0  0.29713540461E+03 -0.10780284723E+03 -0.61531292757E+03  0.69577044538E+03  0.74670015915E+02 0.  0.
     200001    1    1    2    0    0 -0.11483500584E+03 -0.23859247402E+02  0.18562575535E+03  0.65113920424E+03  0.61300000000E+03 0.  1.
         11    1    4    4    0    0  0.21278728696E+03 -0.95063171370E+02 -0.41424372901E+03  0.47530338003E+03  0.51100000000E-03 0.  1.
    -200002    1    4    4    0    0  0.84348117651E+02 -0.12739675862E+02 -0.20106919856E+03  0.22046706535E+03  0.30000000000E+02 0.  1.
    -200000    1    3    3    0    0 -0.18230039877E+03  0.13166209463E+03 -0.11805591497E+04  0.12060220763E+04  0.10100000000E+03 0. -1.
<mgrwt>
<rscale>  0 0.19810520E+04</rscale>
<asrwt>0</asrwt>
<pdfrwt beam="1">  1        2 0.29736986E+00 0.19810520E+04</pdfrwt>
<pdfrwt beam="2">  1       -2 0.67334673E-01 0.19810520E+04</pdfrwt>
<totfact> 0.13755441E+01</totfact>
</mgrwt>
</event>
<event>
 8    2  0.7237260E-052  0.1861911E+04  0.7818608E-02  0.8674051E-01
         -2   -1    0    0    0  501 -0.00000000000E+00  0.00000000000E+00  0.12500043485E+04  0.12500043485E+04  0.25500000000E-02 0. -1.
          2   -1    0    0  501    0  0.00000000000E+00 -0.00000000000E+00 -0.69334035009E+03  0.69334035009E+03  0.25500000000E-02 0.  1.
    -200001    2    1    2    0    0  0.48335865645E+03 -0.45465928368E+03  0.51240745276E+03  0.10388678903E+04  0.61346103449E+03 0.  0.
   -5000001    2    3    3    0    0  0.17295313213E+03  0.95984642757E+02  0.30265244290E+03  0.36525191111E+03  0.51813316951E+02 0.  0.
     200001    1    1    2    0    0 -0.48335865645E+03  0.45465928368E+03  0.44256545688E+02  0.90447680835E+03  0.61300000000E+03 0.  1.
         11    1    4    4    0    0  0.72683376097E+02  0.21156173966E+02  0.10619962698E+03  0.13041785779E+03  0.51100000000E-03 0.  1.
    -200002    1    4    4    0    0  0.10026975603E+03  0.74828468791E+02  0.19645281592E+03  0.23483405332E+03  0.30000000000E+02 0. -1.
    -200000    1    3    3    0    0  0.31040552432E+03 -0.55064392644E+03  0.20975500986E+03  0.67361597918E+03  0.10100000000E+03 0. -1.
<mgrwt>
<rscale>  0 0.18619113E+04</rscale>
<asrwt>0</asrwt>
<pdfrwt beam="1">  1        2 0.99048622E-01 0.18619113E+04</pdfrwt>
<pdfrwt beam="2">  1       -2 0.17857205E+00 0.18619113E+04</pdfrwt>
<totfact> 0.79571171E+00</totfact>
</mgrwt>
</event>
<event>
 8    2  0.7237260E-052  0.1471849E+04  0.7818608E-02  0.8903392E-01
         -2   -1    0    0    0  501 -0.00000000000E+00  0.00000000000E+00  0.24476609374E+03  0.24476609375E+03  0.25500000000E-02 0. -1.
          2   -1    0    0  501    0  0.00000000000E+00 -0.00000000000E+00 -0.22126635913E+04  0.22126635913E+04  0.25500000000E-02 0.  1.
    -200001    2    1    2    0    0  0.13423041924E+03 -0.74590684749E+02 -0.36349034588E+03  0.73305359961E+03  0.61778699618E+03 0.  0.
   -5000001    2    3    3    0    0  0.27374322662E+03  0.16532806060E+03 -0.11608769131E+03  0.34778239477E+03  0.72163150537E+02 0.  0.
     200001    1    1    2    0    0 -0.13423041924E+03  0.74590684749E+02 -0.16044071517E+04  0.17243760855E+04  0.61300000000E+03 0.  1.
         11    1    4    4    0    0  0.42820913965E+02  0.47929986411E+02 -0.54547102305E+01  0.64503241269E+02  0.51100000000E-03 0.  1.
    -200002    1    4    4    0    0  0.23092231266E+03  0.11739807419E+03 -0.11063298108E+03  0.28327915350E+03  0.30000000000E+02 0.  1.
    -200000    1    3    3    0    0 -0.13951280738E+03 -0.23991874535E+03 -0.24740265458E+03  0.38527120484E+03  0.10100000000E+03 0.  1.
<mgrwt>
<rscale>  0 0.14718492E+04</rscale>
<asrwt>0</asrwt>
<pdfrwt beam="1">  1        2 0.31609479E+00 0.14718492E+04</pdfrwt>
<pdfrwt beam="2">  1       -2 0.34966586E-01 0.14718492E+04</pdfrwt>
<totfact> 0.46376247E+01</totfact>
</mgrwt>
</event>
<event>
 8    2  0.7237260E-052  0.1396891E+04  0.7818608E-02  0.8956072E-01
          2   -1    0    0  501    0  0.00000000000E+00  0.00000000000E+00  0.46696868643E+03  0.46696868644E+03  0.25500000000E-02 0.  1.
         -2   -1    0    0    0  501 -0.00000000000E+00 -0.00000000000E+00 -0.10446648580E+04  0.10446648580E+04  0.25500000000E-02 0. -1.
    -200001    2    1    2    0    0 -0.29502777897E+03  0.14307401797E+03 -0.36172009484E+03  0.78367322222E+03  0.61301772180E+03 0.  0.
   -5000001    2    3    3    0    0 -0.18035132791E+03 -0.20420314045E+03 -0.26949047371E+03  0.39321270412E+03  0.88122591962E+02 0.  0.
     200001    1    1    2    0    0  0.29502777897E+03 -0.14307401797E+03 -0.21597607670E+03  0.72796032220E+03  0.61300000000E+03 0.  1.
         11    1    4    4    0    0 -0.67044727937E+02 -0.93452713498E+02 -0.16474852999E+03  0.20092407356E+03  0.51100000000E-03 0.  1.
    -200002    1    4    4    0    0 -0.11330659997E+03 -0.11075042695E+03 -0.10474194373E+03  0.19228863056E+03  0.30000000000E+02 0.  1.
    -200000    1    3    3    0    0 -0.11467645107E+03  0.34727715841E+03 -0.92229621125E+02  0.39046051810E+03  0.10100000000E+03 0.  1.
<mgrwt>
<rscale>  0 0.13968905E+04</rscale>
<asrwt>0</asrwt>
<pdfrwt beam="1">  1        2 0.66709813E-01 0.13968905E+04</pdfrwt>
<pdfrwt beam="2">  1       -2 0.14923784E+00 0.13968905E+04</pdfrwt>
<totfact> 0.21483553E+01</totfact>
</mgrwt>
</event>
<event>
 8    2  0.7237260E-052  0.1500366E+04  0.7818608E-02  0.8884209E-01
         -2   -1    0    0    0  501 -0.00000000000E+00  0.00000000000E+00  0.18355870496E+03  0.18355870498E+03  0.25500000000E-02 0. -1.
          2   -1    0    0  501    0  0.00000000000E+00 -0.00000000000E+00 -0.30659108984E+04  0.30659108984E+04  0.25500000000E-02 0.  1.
    -200001    2    1    2    0    0 -0.33837243929E+03  0.91693669022E+02 -0.89238782771E+03  0.11379225844E+04  0.61286877582E+03 0.  0.
   -5000001    2    3    3    0    0 -0.24958507885E+03 -0.16762384824E+03 -0.55103675092E+03  0.68864502233E+03  0.28319604488E+03 0.  0.
     200001    1    1    2    0    0  0.33837243929E+03 -0.91693669022E+02 -0.19899643657E+04  0.21115470190E+04  0.61300000000E+03 0.  1.
         11    1    4    4    0    0 -0.10314470908E+02 -0.64930203861E+02  0.12697821834E+02  0.66959348586E+02  0.51100000000E-03 0.  1.
    -200002    1    4    4    0    0 -0.23927060794E+03 -0.10269364438E+03 -0.56373457276E+03  0.62168567375E+03  0.30000000000E+02 0.  1.
    -200000    1    3    3    0    0 -0.88787360439E+02  0.25931751726E+03 -0.34135107679E+03  0.44927756204E+03  0.10100000000E+03 0.  1.
<mgrwt>
<rscale>  0 0.15003661E+04</rscale>
<asrwt>0</asrwt>
<pdfrwt beam="1">  1        2 0.43798724E+00 0.15003661E+04</pdfrwt>
<pdfrwt beam="2">  1       -2 0.26222674E-01 0.15003661E+04</pdfrwt>
<totfact> 0.27703487E+01</totfact>
</mgrwt>
</event>
<event>
 8    2  0.7237260E-052  0.1482048E+04  0.7818608E-02  0.8896479E-01
         -2   -1    0    0    0  501 -0.00000000000E+00  0.00000000000E+00  0.28339714100E+03  0.28339714101E+03  0.25500000000E-02 0. -1.
          2   -1    0    0  501    0  0.00000000000E+00 -0.00000000000E+00 -0.19376232042E+04  0.19376232042E+04  0.25500000000E-02 0.  1.
    -200001    2    1    2    0    0 -0.18803412628E+03 -0.35210315309E+03 -0.10044896460E+04  0.12426237616E+04  0.61300970697E+03 0.  0.
   -5000001    2    3    3    0    0  0.41182392995E+02 -0.15597623296E+03 -0.17818187979E+02  0.20593309045E+03  0.12675320580E+03 0.  0.
     200001    1    1    2    0    0  0.18803412628E+03  0.35210315309E+03 -0.64973641722E+03  0.97839658366E+03  0.61300000000E+03 0.  1.
         11    1    4    4    0    0  0.78372786640E+02 -0.12707400883E+03 -0.14211091102E+02  0.14997350604E+03  0.51100000000E-03 0.  1.
    -200002    1    4    4    0    0 -0.37190393645E+02 -0.28902224136E+02 -0.36070968771E+01  0.55959584410E+02  0.30000000000E+02 0.  1.
    -200000    1    3    3    0    0 -0.22921651928E+03 -0.19612692012E+03 -0.98667145800E+03  0.10366906711E+04  0.10100000000E+03 0.  1.
<mgrwt>
<rscale>  0 0.14820484E+04</rscale>
<asrwt>0</asrwt>
<pdfrwt beam="1">  1        2 0.27680331E+00 0.14820484E+04</pdfrwt>
<pdfrwt beam="2">  1       -2 0.40485307E-01 0.14820484E+04</pdfrwt>
<totfact> 0.48341063E+01</totfact>
</mgrwt>
</event>
<event>
 8    2  0.7237260E-052  0.1389921E+04  0.7818608E-02  0.8961147E-01
          2   -1    0    0  501    0  0.00000000000E+00  0.00000000000E+00  0.18949691781E+04  0.18949691781E+04  0.25500000000E-02 0.  1.
         -2   -1    0    0    0  501 -0.00000000000E+00 -0.00000000000E+00 -0.25486951610E+03  0.25486951611E+03  0.25500000000E-02 0. -1.
    -200001    2    1    2    0    0  0.84526157015E+01  0.24727877779E+03  0.48078760858E+03  0.81530069256E+03  0.61019689778E+03 0.  0.
   -5000001    2    3    3    0    0 -0.24262483926E+03  0.55570230392E+02  0.37833360386E+02  0.26194590444E+03  0.72314801819E+02 0.  0.
     200001    1    1    2    0    0 -0.84526157015E+01 -0.24727877779E+03  0.11593120535E+04  0.13345380017E+04  0.61300000000E+03 0.  1.
         11    1    4    4    0    0 -0.10529921795E+03  0.50666163265E+02  0.32081917183E+02  0.12117852455E+03  0.51100000000E-03 0.  1.
    -200002    1    4    4    0    0 -0.13732562131E+03  0.49040671264E+01  0.57514432027E+01  0.14076737989E+03  0.30000000000E+02 0.  1.
    -200000    1    3    3    0    0  0.25107745497E+03  0.19170854740E+03  0.44295424820E+03  0.55335478812E+03  0.10100000000E+03 0. -1.
<mgrwt>
<rscale>  0 0.13899207E+04</rscale>
<asrwt>0</asrwt>
<pdfrwt beam="1">  1        2 0.27070987E+00 0.13899207E+04</pdfrwt>
<pdfrwt beam="2">  1       -2 0.36409932E-01 0.13899207E+04</pdfrwt>
<totfact> 0.62910113E+01</totfact>
</mgrwt>
</event>
<event>
 8    2  0.7237260E-052  0.1261980E+04  0.7818608E-02  0.9060271E-01
          2   -1    0    0  501    0  0.00000000000E+00  0.00000000000E+00  0.90004295736E+03  0.90004295736E+03  0.25500000000E-02 0.  1.
         -2   -1    0    0    0  501 -0.00000000000E+00 -0.00000000000E+00 -0.44236620918E+03  0.44236620918E+03  0.25500000000E-02 0. -1.
    -200001    2    1    2    0    0  0.27897690060E+02  0.11065861686E+03  0.33040566479E+03  0.70602049658E+03  0.61341130383E+03 0.  0.
   -5000001    2    3    3    0    0 -0.80906816957E+02 -0.84964244418E+02  0.41695690828E+03  0.44563838822E+03  0.10476485020E+03 0.  0.
     200001    1    1    2    0    0 -0.27897690060E+02 -0.11065861686E+03  0.12727108340E+03  0.63638866997E+03  0.61300000000E+03 0.  1.
         11    1    4    4    0    0 -0.29499586977E+01 -0.33064499250E+02  0.24747935422E+03  0.24969580320E+03  0.51100000000E-03 0.  1.
    -200002    1    4    4    0    0 -0.77956858259E+02 -0.51899745168E+02  0.16947755405E+03  0.19594258503E+03  0.30000000000E+02 0.  1.
    -200000    1    3    3    0    0  0.10880450702E+03  0.19562286128E+03 -0.86551243491E+02  0.26038210836E+03  0.10100000000E+03 0. -1.
<mgrwt>
<rscale>  0 0.12619803E+04</rscale>
<asrwt>0</asrwt>
<pdfrwt beam="1">  1        2 0.12857756E+00 0.12619803E+04</pdfrwt>
<pdfrwt beam="2">  1       -2 0.63195174E-01 0.12619803E+04</pdfrwt>
<totfact> 0.74181186E+01</totfact>
</mgrwt>
</event>
<event>
 8    2  0.7237260E-052  0.1967345E+04  0.7818608E-02  0.8622042E-01
          2   -1    0    0  501    0  0.00000000000E+00  0.00000000000E+00  0.17240969991E+04  0.17240969991E+04  0.25500000000E-02 0.  1.
         -2   -1    0    0    0  501 -0.00000000000E+00 -0.00000000000E+00 -0.56122826532E+03  0.56122826532E+03  0.25500000000E-02 0. -1.
    -200001    2    1    2    0    0  0.32321310368E+01  0.16900443949E+03  0.14532413602E+04  0.15862843433E+04  0.61303720887E+03 0.  0.
   -5000001    2    3    3    0    0  0.94435613896E+01 -0.13396669541E+03  0.57840846546E+03  0.65496072381E+03  0.27637101961E+03 0.  0.
     200001    1    1    2    0    0 -0.32321310368E+01 -0.16900443949E+03 -0.29037262644E+03  0.69904092114E+03  0.61300000000E+03 0. -1.
         11    1    4    4    0    0  0.78958782522E+01 -0.75412996756E+01 -0.30471635190E+02  0.32368760335E+02  0.51100000000E-03 0.  1.
    -200002    1    4    4    0    0  0.15476831374E+01 -0.12642539574E+03  0.60888010065E+03  0.62259196347E+03  0.30000000000E+02 0.  1.
    -200000    1    3    3    0    0 -0.62114303529E+01  0.30297113490E+03  0.87483289473E+03  0.93132361945E+03  0.10100000000E+03 0.  1.
<mgrwt>
<rscale>  0 0.19673454E+04</rscale>
<asrwt>0</asrwt>
<pdfrwt beam="1">  1        2 0.24629957E+00 0.19673454E+04</pdfrwt>
<pdfrwt beam="2">  1       -2 0.80175467E-01 0.19673454E+04</pdfrwt>
<totfact> 0.14332143E+01</totfact>
</mgrwt>
</event>
<event>
 8    2  0.7237260E-052  0.1348103E+04  0.7818608E-02  0.8992266E-01
          2   -1    0    0  501    0  0.00000000000E+00  0.00000000000E+00  0.96384803634E+03  0.96384803634E+03  0.25500000000E-02 0.  1.
         -2   -1    0    0    0  501 -0.00000000000E+00 -0.00000000000E+00 -0.47138675231E+03  0.47138675232E+03  0.25500000000E-02 0. -1.
    -200001    2    1    2    0    0  0.26007194618E+03 -0.33546136151E+01  0.13861288952E+03  0.68116161124E+03  0.61410010329E+03 0.  0.
   -5000001    2    3    3    0    0  0.38481606034E+03  0.38829299079E+02 -0.85283039609E+02  0.40246650258E+03  0.71519047092E+02 0.  0.
     200001    1    1    2    0    0 -0.26007194618E+03  0.33546136151E+01  0.35384839450E+03  0.75407317742E+03  0.61300000000E+03 0.  1.
         11    1    4    4    0    0  0.23507056359E+02  0.60592921157E+00  0.10163631115E+02  0.25617342691E+02  0.51100000000E-03 0.  1.
    -200002    1    4    4    0    0  0.36130900398E+03  0.38223369868E+02 -0.95446670723E+02  0.37684915989E+03  0.30000000000E+02 0.  1.
    -200000    1    3    3    0    0 -0.12474411416E+03 -0.42183912694E+02  0.22389592913E+03  0.27869510866E+03  0.10100000000E+03 0.  1.
<mgrwt>
<rscale>  0 0.13481027E+04</rscale>
<asrwt>0</asrwt>
<pdfrwt beam="1">  1        2 0.13769257E+00 0.13481027E+04</pdfrwt>
<pdfrwt beam="2">  1       -2 0.67340966E-01 0.13481027E+04</pdfrwt>
<totfact> 0.58534447E+01</totfact>
</mgrwt>
</event>
<event>
 8    2  0.7237260E-052  0.1445464E+04  0.7818608E-02  0.8921551E-01
         -2   -1    0    0    0  501 -0.00000000000E+00  0.00000000000E+00  0.16154977699E+03  0.16154977701E+03  0.25500000000E-02 0. -1.
          2   -1    0    0  501    0  0.00000000000E+00 -0.00000000000E+00 -0.32333183959E+04  0.32333183959E+04  0.25500000000E-02 0.  1.
    -200001    2    1    2    0    0 -0.27322306558E+03 -0.20689404016E+03 -0.11367470383E+04  0.13363411498E+04  0.61331708941E+03 0.  0.
   -5000001    2    3    3    0    0  0.16647161143E+02 -0.19642427929E+03 -0.58457945956E+03  0.70449908153E+03  0.34018551684E+03 0.  0.
     200001    1    1    2    0    0  0.27322306558E+03  0.20689404016E+03 -0.19350215807E+04  0.20585270231E+04  0.61300000000E+03 0.  1.
         11    1    4    4    0    0 -0.31445916821E+02 -0.13741970611E+03 -0.60414349320E+03  0.62037277639E+03  0.51100000000E-03 0.  1.
    -200002    1    4    4    0    0  0.48093077964E+02 -0.59004573178E+02  0.19564033640E+02  0.84126305139E+02  0.30000000000E+02 0.  1.
    -200000    1    3    3    0    0 -0.28987022672E+03 -0.10469760876E+02 -0.55216757870E+03  0.63184206824E+03  0.10100000000E+03 0.  1.
<mgrwt>
<rscale>  0 0.14454644E+04</rscale>
<asrwt>0</asrwt>
<pdfrwt beam="1">  1        2 0.46190259E+00 0.14454644E+04</pdfrwt>
<pdfrwt beam="2">  1       -2 0.23078542E-01 0.14454644E+04</pdfrwt>
<totfact> 0.28163658E+01</totfact>
</mgrwt>
</event>
<event>
 8    2  0.7237260E-052  0.1523166E+04  0.7818608E-02  0.8869193E-01
         -2   -1    0    0    0  501 -0.00000000000E+00  0.00000000000E+00  0.73011405562E+03  0.73011405563E+03  0.25500000000E-02 0. -1.
          2   -1    0    0  501    0  0.00000000000E+00 -0.00000000000E+00 -0.79440778924E+03  0.79440778924E+03  0.25500000000E-02 0.  1.
    -200001    2    1    2    0    0 -0.42794956218E+03 -0.86870035767E+02 -0.15681361892E+03  0.76622364491E+03  0.60977121287E+03 0.  0.
   -5000001    2    3    3    0    0 -0.50561086173E+02  0.31801477644E+02 -0.29286981440E+03  0.33585487484E+03  0.15316008406E+03 0.  0.
     200001    1    1    2    0    0  0.42794956218E+03  0.86870035767E+02  0.92519885308E+02  0.75829819996E+03  0.61300000000E+03 0. -1.
         11    1    4    4    0    0 -0.70907821602E+01  0.13646294489E+02 -0.27750316055E+03  0.27792895614E+03  0.51100000000E-03 0.  1.
    -200002    1    4    4    0    0 -0.43470304013E+02  0.18155183155E+02 -0.15366653853E+02  0.57925918698E+02  0.30000000000E+02 0.  1.
    -200000    1    3    3    0    0 -0.37738847601E+03 -0.11867151341E+03  0.13605619549E+03  0.43036877007E+03  0.10100000000E+03 0.  1.
<mgrwt>
<rscale>  0 0.15231655E+04</rscale>
<asrwt>0</asrwt>
<pdfrwt beam="1">  1        2 0.11348683E+00 0.15231655E+04</pdfrwt>
<pdfrwt beam="2">  1       -2 0.10430201E+00 0.15231655E+04</pdfrwt>
<totfact> 0.27696054E+01</totfact>
</mgrwt>
</event>
<event>
 8    2  0.7237260E-052  0.1989376E+04  0.7818608E-02  0.8611604E-01
         -2   -1    0    0    0  501 -0.00000000000E+00  0.00000000000E+00  0.35662154810E+03  0.35662154811E+03  0.25500000000E-02 0. -1.
          2   -1    0    0  501    0  0.00000000000E+00 -0.00000000000E+00 -0.27743820344E+04  0.27743820344E+04  0.25500000000E-02 0.  1.
    -200001    2    1    2    0    0 -0.75938876784E+03  0.15977324539E+03 -0.10390117513E+04  0.14342667541E+04  0.61268010567E+03 0.  0.
   -5000001    2    3    3    0    0 -0.55211931751E+03  0.10856935270E+03 -0.10539549524E+04  0.11976092739E+04  0.82606816153E+02 0.  0.
     200001    1    1    2    0    0  0.75938876784E+03 -0.15977324539E+03 -0.13787487350E+04  0.16967368285E+04  0.61300000000E+03 0.  1.
         11    1    4    4    0    0 -0.33213350208E+03  0.61313929496E+02 -0.55948797985E+03  0.65352801069E+03  0.51100000000E-03 0.  1.
    -200002    1    4    4    0    0 -0.21998581543E+03  0.47255423207E+02 -0.49446697257E+03  0.54408126321E+03  0.30000000000E+02 0.  1.
    -200000    1    3    3    0    0 -0.20726945033E+03  0.51203892685E+02  0.14943201133E+02  0.23665748018E+03  0.10100000000E+03 0. -1.
<mgrwt>
<rscale>  0 0.19893762E+04</rscale>
<asrwt>0</asrwt>
<pdfrwt beam="1">  1        2 0.39634028E+00 0.19893762E+04</pdfrwt>
<pdfrwt beam="2">  1       -2 0.50945937E-01 0.19893762E+04</pdfrwt>
<totfact> 0.10684862E+01</totfact>
</mgrwt>
</event>
<event>
 8    2  0.7237260E-052  0.1316900E+04  0.7818608E-02  0.9016270E-01
          2   -1    0    0  501    0  0.00000000000E+00  0.00000000000E+00  0.13952457101E+04  0.13952457101E+04  0.25500000000E-02 0.  1.
         -2   -1    0    0    0  501 -0.00000000000E+00 -0.00000000000E+00 -0.31073820014E+03  0.31073820015E+03  0.25500000000E-02 0. -1.
    -200001    2    1    2    0    0  0.10080096362E+03  0.84871142533E+02  0.27734411194E+03  0.68390480559E+03  0.61109907673E+03 0.  0.
   -5000001    2    3    3    0    0  0.10508686507E+03  0.32624603563E+03  0.11320272272E+03  0.37499769394E+03  0.10163015822E+03 0.  0.
     200001    1    1    2    0    0 -0.10080096362E+03 -0.84871142533E+02  0.80716339804E+03  0.10220791047E+04  0.61300000000E+03 0.  1.
         11    1    4    4    0    0  0.89378868901E+02  0.18048925633E+03  0.99749751562E+02  0.22475534875E+03  0.51100000000E-03 0.  1.
    -200002    1    4    4    0    0  0.15707996169E+02  0.14575677930E+03  0.13452971153E+02  0.15024234519E+03  0.30000000000E+02 0.  1.
    -200000    1    3    3    0    0 -0.42859014510E+01 -0.24137489309E+03  0.16414138923E+03  0.30890711165E+03  0.10100000000E+03 0. -1.
<mgrwt>
<rscale>  0 0.13168996E+04</rscale>
<asrwt>0</asrwt>
<pdfrwt beam="1">  1        2 0.19932082E+00 0.13168996E+04</pdfrwt>
<pdfrwt beam="2">  1       -2 0.44391170E-01 0.13168996E+04</pdfrwt>
<totfact> 0.78432907E+01</totfact>
</mgrwt>
</event>
<event>
 8    2  0.7237260E-052  0.1637794E+04  0.7818608E-02  0.8797660E-01
          2   -1    0    0  501    0  0.00000000000E+00  0.00000000000E+00  0.60903590565E+03  0.60903590566E+03  0.25500000000E-02 0.  1.
         -2   -1    0    0    0  501 -0.00000000000E+00 -0.00000000000E+00 -0.11010722986E+04  0.11010722986E+04  0.25500000000E-02 0. -1.
    -200001    2    1    2    0    0 -0.15560997769E+03  0.20115579860E+03 -0.74694479689E+03  0.99917542620E+03  0.61298195916E+03 0.  0.
   -5000001    2    3    3    0    0 -0.25758273693E+03 -0.10610202743E+03 -0.50805265491E+03  0.58435465673E+03  0.75804736592E+02 0.  0.
     200001    1    1    2    0    0  0.15560997769E+03 -0.20115579860E+03  0.25490840397E+03  0.71093277803E+03  0.61300000000E+03 0.  1.
         11    1    4    4    0    0 -0.15149779331E+03 -0.29543629290E+02 -0.26276343544E+03  0.30474420489E+03  0.51100000000E-03 0.  1.
    -200002    1    4    4    0    0 -0.10608494361E+03 -0.76558398145E+02 -0.24528921946E+03  0.27961045183E+03  0.30000000000E+02 0. -1.
    -200000    1    3    3    0    0  0.10197275924E+03  0.30725782604E+03 -0.23889214198E+03  0.41482076947E+03  0.10100000000E+03 0. -1.
<mgrwt>
<rscale>  0 0.16377943E+04</rscale>
<asrwt>0</asrwt>
<pdfrwt beam="1">  1        2 0.87005129E-01 0.16377943E+04</pdfrwt>
<pdfrwt beam="2">  1       -2 0.15729604E+00 0.16377943E+04</pdfrwt>
<totfact> 0.13470407E+01</totfact>
</mgrwt>
</event>
<event>
 8    2  0.7237260E-052  0.2139503E+04  0.7818608E-02  0.8544039E-01
          2   -1    0    0  501    0  0.00000000000E+00  0.00000000000E+00  0.73175959261E+03  0.73175959262E+03  0.25500000000E-02 0.  1.
         -2   -1    0    0    0  501 -0.00000000000E+00 -0.00000000000E+00 -0.15638576991E+04  0.15638576991E+04  0.25500000000E-02 0. -1.
    -200001    2    1    2    0    0  0.69670676589E+03  0.46189148438E+03 -0.69479520729E+03  0.12499762696E+04  0.61721652078E+03 0.  0.
   -5000001    2    3    3    0    0  0.59436731243E+03  0.48960720707E+02 -0.41506493606E+03  0.73090478709E+03  0.79203865984E+02 0.  0.
     200001    1    1    2    0    0 -0.69670676589E+03 -0.46189148438E+03 -0.13730289920E+03  0.10456410221E+04  0.61300000000E+03 0.  1.
         11    1    4    4    0    0  0.43527910432E+03  0.44145232948E+02 -0.32963135126E+03  0.54778967495E+03  0.51100000000E-03 0.  1.
    -200002    1    4    4    0    0  0.15908820811E+03  0.48154877587E+01 -0.85433584809E+02  0.18311511214E+03  0.30000000000E+02 0. -1.
    -200000    1    3    3    0    0  0.10233945347E+03  0.41293076367E+03 -0.27973027122E+03  0.51907148252E+03  0.10100000000E+03 0. -1.
<mgrwt>
<rscale>  0 0.21395026E+04</rscale>
<asrwt>0</asrwt>
<pdfrwt beam="1">  1        2 0.10453708E+00 0.21395026E+04</pdfrwt>
<pdfrwt beam="2">  1       -2 0.22340824E+00 0.21395026E+04</pdfrwt>
<totfact> 0.36921489E+00</totfact>
</mgrwt>
</event>
<event>
 8    2  0.7237260E-052  0.2189074E+04  0.7818608E-02  0.8522989E-01
          2   -1    0    0  501    0  0.00000000000E+00  0.00000000000E+00  0.10611499264E+04  0.10611499264E+04  0.25500000000E-02 0.  1.
         -2   -1    0    0    0  501 -0.00000000000E+00 -0.00000000000E+00 -0.11289750212E+04  0.11289750212E+04  0.25500000000E-02 0. -1.
    -200001    2    1    2    0    0 -0.58345236688E+02  0.88749350576E+03 -0.20811814088E+03  0.11008591269E+04  0.61443369644E+03 0.  0.
   -5000001    2    3    3    0    0 -0.15701550437E+03  0.73587427811E+03  0.51194973860E+02  0.76894271665E+03  0.14995717506E+03 0.  0.
     200001    1    1    2    0    0  0.58345236688E+02 -0.88749350576E+03  0.14029304607E+03  0.10892658207E+04  0.61300000000E+03 0.  1.
         11    1    4    4    0    0 -0.10906481227E+03  0.67647811664E+03  0.44997267547E+02  0.68668954386E+03  0.51100000000E-03 0.  1.
    -200002    1    4    4    0    0 -0.47950692101E+02  0.59396161467E+02  0.61977063123E+01  0.82253172787E+02  0.30000000000E+02 0.  1.
    -200000    1    3    3    0    0  0.98670267681E+02  0.15161922766E+03 -0.25931311474E+03  0.33191641026E+03  0.10100000000E+03 0. -1.
<mgrwt>
<rscale>  0 0.21890745E+04</rscale>
<asrwt>0</asrwt>
<pdfrwt beam="1">  1        2 0.15159285E+00 0.21890745E+04</pdfrwt>
<pdfrwt beam="2">  1       -2 0.16128214E+00 0.21890745E+04</pdfrwt>
<totfact> 0.58371224E+00</totfact>
</mgrwt>
</event>
<event>
 8    2  0.7237260E-052  0.1296315E+04  0.7818608E-02  0.9032492E-01
         -2   -1    0    0    0  501 -0.00000000000E+00  0.00000000000E+00  0.13506898576E+03  0.13506898579E+03  0.25500000000E-02 0. -1.
          2   -1    0    0  501    0  0.00000000000E+00 -0.00000000000E+00 -0.31103241323E+04  0.31103241323E+04  0.25500000000E-02 0.  1.
    -200001    2    1    2    0    0  0.12453225762E+03 -0.16929702225E+03 -0.15450014550E+04  0.16751815441E+04  0.61240015090E+03 0.  0.
   -5000001    2    3    3    0    0  0.60817484538E+02  0.18502301760E+03 -0.34782863133E+03  0.42097819827E+03  0.13529820096E+03 0.  0.
     200001    1    1    2    0    0 -0.12453225762E+03  0.16929702225E+03 -0.14302536916E+04  0.15702115740E+04  0.61300000000E+03 0.  1.
         11    1    4    4    0    0  0.93777691475E+02  0.13384505362E+03 -0.28480297310E+03  0.32836182374E+03  0.51100000000E-03 0.  1.
    -200002    1    4    4    0    0 -0.32960206936E+02  0.51177963978E+02 -0.63025658222E+02  0.92616374538E+02  0.30000000000E+02 0.  1.
    -200000    1    3    3    0    0  0.63714773079E+02 -0.35432003985E+03 -0.11971728236E+04  0.12542033458E+04  0.10100000000E+03 0.  1.
<mgrwt>
<rscale>  0 0.12963153E+04</rscale>
<asrwt>0</asrwt>
<pdfrwt beam="1">  1        2 0.44433197E+00 0.12963153E+04</pdfrwt>
<pdfrwt beam="2">  1       -2 0.19295571E-01 0.12963153E+04</pdfrwt>
<totfact> 0.46088004E+01</totfact>
</mgrwt>
</event>
<event>
 8    2  0.7237260E-052  0.1532234E+04  0.7818608E-02  0.8863296E-01
          2   -1    0    0  501    0  0.00000000000E+00  0.00000000000E+00  0.13253859461E+04  0.13253859461E+04  0.25500000000E-02 0.  1.
         -2   -1    0    0    0  501 -0.00000000000E+00 -0.00000000000E+00 -0.44284085450E+03  0.44284085451E+03  0.25500000000E-02 0. -1.
    -200001    2    1    2    0    0  0.43506111346E+03 -0.48236383382E+02  0.28040348091E+03  0.80388845725E+03  0.61319297001E+03 0.  0.
   -5000001    2    3    3    0    0  0.13492630625E+03  0.11363406582E+03  0.38733038059E+03  0.43251626295E+03  0.76991460261E+02 0.  0.
     200001    1    1    2    0    0 -0.43506111346E+03  0.48236383382E+02  0.60214161065E+03  0.96433834332E+03  0.61300000000E+03 0.  1.
         11    1    4    4    0    0  0.66829104471E+02  0.94316478366E+02  0.23268368343E+03  0.25981421022E+03  0.51100000000E-03 0.  1.
    -200002    1    4    4    0    0  0.68097201778E+02  0.19317587459E+02  0.15464669716E+03  0.17270205273E+03  0.30000000000E+02 0.  1.
    -200000    1    3    3    0    0  0.30013480721E+03 -0.16187044921E+03 -0.10692689968E+03  0.37137219430E+03  0.10100000000E+03 0. -1.
<mgrwt>
<rscale>  0 0.15322337E+04</rscale>
<asrwt>0</asrwt>
<pdfrwt beam="1">  1        2 0.18934085E+00 0.15322337E+04</pdfrwt>
<pdfrwt beam="2">  1       -2 0.63262978E-01 0.15322337E+04</pdfrwt>
<totfact> 0.40607705E+01</totfact>
</mgrwt>
</event>
<event>
 8    2  0.7237260E-052  0.1764944E+04  0.7818608E-02  0.8725167E-01
         -2   -1    0    0    0  501 -0.00000000000E+00  0.00000000000E+00  0.39382040782E+03  0.39382040783E+03  0.25500000000E-02 0. -1.
          2   -1    0    0  501    0  0.00000000000E+00 -0.00000000000E+00 -0.19774424569E+04  0.19774424569E+04  0.25500000000E-02 0.  1.
    -200001    2    1    2    0    0  0.40184856717E+03  0.63221113051E+02 -0.13671983220E+03  0.74806410755E+03  0.61272213639E+03 0.  0.
   -5000001    2    3    3    0    0  0.41267500598E+03  0.27303888366E+03 -0.11755281651E+03  0.51416437876E+03  0.75468212911E+02 0.  0.
     200001    1    1    2    0    0 -0.40184856717E+03 -0.63221113051E+02 -0.14469022169E+04  0.16231987572E+04  0.61300000000E+03 0.  1.
         11    1    4    4    0    0  0.14273930679E+03  0.80177665876E+02 -0.95862087731E+01  0.16399653413E+03  0.51100000000E-03 0.  1.
    -200002    1    4    4    0    0  0.26993569920E+03  0.19286121778E+03 -0.10796660773E+03  0.35016784463E+03  0.30000000000E+02 0.  1.
    -200000    1    3    3    0    0 -0.10826438818E+02 -0.20981777061E+03 -0.19167015688E+02  0.23389972880E+03  0.10100000000E+03 0.  1.
<mgrwt>
<rscale>  0 0.17649444E+04</rscale>
<asrwt>0</asrwt>
<pdfrwt beam="1">  1        2 0.28249178E+00 0.17649444E+04</pdfrwt>
<pdfrwt beam="2">  1       -2 0.56260059E-01 0.17649444E+04</pdfrwt>
<totfact> 0.23195555E+01</totfact>
</mgrwt>
</event>
<event>
 8    2  0.7237260E-052  0.1446604E+04  0.7818608E-02  0.8920758E-01
          2   -1    0    0  501    0  0.00000000000E+00  0.00000000000E+00  0.17286228275E+04  0.17286228275E+04  0.25500000000E-02 0.  1.
         -2   -1    0    0    0  501 -0.00000000000E+00 -0.00000000000E+00 -0.30264880433E+03  0.30264880434E+03  0.25500000000E-02 0. -1.
    -200001    2    1    2    0    0  0.11019568870E+03 -0.81735345675E+02  0.12161105675E+04  0.13689760585E+04  0.61347109111E+03 0.  0.
   -5000001    2    3    3    0    0  0.40738561505E+02  0.25103614866E+03  0.58568098761E+03  0.64564790664E+03  0.95709047522E+02 0.  0.
     200001    1    1    2    0    0 -0.11019568870E+03  0.81735345675E+02  0.20986345567E+03  0.66229557342E+03  0.61300000000E+03 0. -1.
         11    1    4    4    0    0  0.42888898204E+02  0.84321782414E+02  0.14104319375E+03  0.16983169045E+03  0.51100000000E-03 0.  1.
    -200002    1    4    4    0    0 -0.21503366995E+01  0.16671436625E+03  0.44463779386E+03  0.47581621620E+03  0.30000000000E+02 0.  1.
    -200000    1    3    3    0    0  0.69457127191E+02 -0.33277149434E+03  0.63042957994E+03  0.72332815183E+03  0.10100000000E+03 0.  1.
<mgrwt>
<rscale>  0 0.14466038E+04</rscale>
<asrwt>0</asrwt>
<pdfrwt beam="1">  1        2 0.24694611E+00 0.14466038E+04</pdfrwt>
<pdfrwt beam="2">  1       -2 0.43235544E-01 0.14466038E+04</pdfrwt>
<totfact> 0.54582908E+01</totfact>
</mgrwt>
</event>
<event>
 8    2  0.7237260E-052  0.1399834E+04  0.7818608E-02  0.8953938E-01
         -2   -1    0    0    0  501 -0.00000000000E+00  0.00000000000E+00  0.80453195533E+03  0.80453195533E+03  0.25500000000E-02 0. -1.
          2   -1    0    0  501    0  0.00000000000E+00 -0.00000000000E+00 -0.60890561040E+03  0.60890561040E+03  0.25500000000E-02 0.  1.
    -200001    2    1    2    0    0 -0.17221467765E+03 -0.20987788033E+03  0.29898713612E+03  0.73508730739E+03  0.61420959132E+03 0.  0.
   -5000001    2    3    3    0    0 -0.26199711372E+03  0.10235072055E+03  0.24425114297E+03  0.39049390354E+03  0.11708420161E+03 0.  0.
     200001    1    1    2    0    0  0.17221467765E+03  0.20987788033E+03 -0.10336079118E+03  0.67835025835E+03  0.61300000000E+03 0.  1.
         11    1    4    4    0    0 -0.46698983555E+02  0.71093421570E+02  0.68796558730E+02  0.10939851987E+03  0.51100000000E-03 0.  1.
    -200002    1    4    4    0    0 -0.21529813016E+03  0.31257298977E+02  0.17545458424E+03  0.28109538368E+03  0.30000000000E+02 0.  1.
    -200000    1    3    3    0    0  0.89782436070E+02 -0.31222860087E+03  0.54735993142E+02  0.34459340385E+03  0.10100000000E+03 0. -1.
<mgrwt>
<rscale>  0 0.13998343E+04</rscale>
<asrwt>0</asrwt>
<pdfrwt beam="1">  1        2 0.86986515E-01 0.13998343E+04</pdfrwt>
<pdfrwt beam="2">  1       -2 0.11493314E+00 0.13998343E+04</pdfrwt>
<totfact> 0.30692827E+01</totfact>
</mgrwt>
</event>
<event>
 8    2  0.7237260E-052  0.2414004E+04  0.7818608E-02  0.8434279E-01
          2   -1    0    0  501    0  0.00000000000E+00  0.00000000000E+00  0.22688618843E+04  0.22688618843E+04  0.25500000000E-02 0.  1.
         -2   -1    0    0    0  501 -0.00000000000E+00 -0.00000000000E+00 -0.64210759556E+03  0.64210759557E+03  0.25500000000E-02 0. -1.
    -200001    2    1    2    0    0  0.17926022924E+03  0.15404110488E+03  0.20348834555E+04  0.21375347324E+04  0.61027957771E+03 0.  0.
   -5000001    2    3    3    0    0  0.30585356553E+03 -0.11810928461E+03  0.97565398145E+03  0.10319761469E+04  0.74685136269E+02 0.  0.
     200001    1    1    2    0    0 -0.17926022924E+03 -0.15404110488E+03 -0.40812916678E+03  0.77343474745E+03  0.61300000000E+03 0. -1.
         11    1    4    4    0    0  0.15647110844E+02 -0.17221981009E+01  0.16979740308E+02  0.23154041229E+02  0.51100000000E-03 0.  1.
    -200002    1    4    4    0    0  0.29020645468E+03 -0.11638708651E+03  0.95867424114E+03  0.10088221057E+04  0.30000000000E+02 0.  1.
    -200000    1    3    3    0    0 -0.12659333629E+03  0.27215038950E+03  0.10592294741E+04  0.11055585855E+04  0.10100000000E+03 0.  1.
<mgrwt>
<rscale>  0 0.24140037E+04</rscale>
<asrwt>0</asrwt>
<pdfrwt beam="1">  1        2 0.32412312E+00 0.24140037E+04</pdfrwt>
<pdfrwt beam="2">  1       -2 0.91729659E-01 0.24140037E+04</pdfrwt>
<totfact> 0.53192219E+00</totfact>
</mgrwt>
</event>
<event>
 8    2  0.7237260E-052  0.1928292E+04  0.7818608E-02  0.8640900E-01
         -2   -1    0    0    0  501 -0.00000000000E+00  0.00000000000E+00  0.97828785809E+03  0.97828785809E+03  0.25500000000E-02 0. -1.
          2   -1    0    0  501    0  0.00000000000E+00 -0.00000000000E+00 -0.95020854758E+03  0.95020854759E+03  0.25500000000E-02 0.  1.
    -200001    2    1    2    0    0  0.26652322034E+03 -0.46327430980E+03 -0.50374045219E+03  0.95676651878E+03  0.61318024691E+03 0.  0.
   -5000001    2    3    3    0    0  0.28633203863E+03  0.16295275670E+02 -0.84119118375E+02  0.31127256809E+03  0.86965586387E+02 0.  0.
     200001    1    1    2    0    0 -0.26652322034E+03  0.46327430980E+03  0.53181976269E+03  0.97172988689E+03  0.61300000000E+03 0. -1.
         11    1    4    4    0    0  0.61175255364E+02  0.52383581131E-02  0.14873332028E+02  0.62957349866E+02  0.51100000000E-03 0.  1.
    -200002    1    4    4    0    0  0.22515678327E+03  0.16290037312E+02 -0.98992450402E+02  0.24831521823E+03  0.30000000000E+02 0. -1.
    -200000    1    3    3    0    0 -0.19808818295E+02 -0.47956958547E+03 -0.41962133381E+03  0.64549395069E+03  0.10100000000E+03 0.  1.
<mgrwt>
<rscale>  0 0.19282920E+04</rscale>
<asrwt>0</asrwt>
<pdfrwt beam="1">  1        2 0.13574408E+00 0.19282920E+04</pdfrwt>
<pdfrwt beam="2">  1       -2 0.13975541E+00 0.19282920E+04</pdfrwt>
<totfact> 0.10210800E+01</totfact>
</mgrwt>
</event>
<event>
 8    2  0.7237260E-052  0.1358363E+04  0.7818608E-02  0.8984521E-01
          2   -1    0    0  501    0  0.00000000000E+00  0.00000000000E+00  0.14865288350E+04  0.14865288350E+04  0.25500000000E-02 0.  1.
         -2   -1    0    0    0  501 -0.00000000000E+00 -0.00000000000E+00 -0.31031192722E+03  0.31031192723E+03  0.25500000000E-02 0. -1.
    -200001    2    1    2    0    0  0.14437043456E+03 -0.24886514381E+03  0.65489734361E+03  0.94225327684E+03  0.61333027388E+03 0.  0.
   -5000001    2    3    3    0    0  0.15275240354E+03 -0.40182168089E+03  0.61558773120E+03  0.75460412212E+03  0.75400041719E+02 0.  0.
     200001    1    1    2    0    0 -0.14437043456E+03  0.24886514381E+03  0.52131956413E+03  0.85458748535E+03  0.61300000000E+03 0. -1.
         11    1    4    4    0    0 -0.41543186090E+01 -0.47299957602E+02  0.72280099353E+02  0.86480963888E+02  0.51100000000E-03 0.  1.
    -200002    1    4    4    0    0  0.15690672214E+03 -0.35452172329E+03  0.54330763185E+03  0.66812315823E+03  0.30000000000E+02 0.  1.
    -200000    1    3    3    0    0 -0.83819689784E+01  0.15295653708E+03  0.39309612415E+02  0.18764915472E+03  0.10100000000E+03 0. -1.
<mgrwt>
<rscale>  0 0.13583632E+04</rscale>
<asrwt>0</asrwt>
<pdfrwt beam="1">  1        2 0.21236127E+00 0.13583632E+04</pdfrwt>
<pdfrwt beam="2">  1       -2 0.44330274E-01 0.13583632E+04</pdfrwt>
<totfact> 0.70042647E+01</totfact>
</mgrwt>
</event>
<event>
 8    2  0.7237260E-052  0.1631592E+04  0.7818608E-02  0.8801371E-01
         -2   -1    0    0    0  501 -0.00000000000E+00  0.00000000000E+00  0.24065775889E+03  0.24065775891E+03  0.25500000000E-02 0.  1.
          2   -1    0    0  501    0  0.00000000000E+00 -0.00000000000E+00 -0.27654350995E+04  0.27654350995E+04  0.25500000000E-02 0. -1.
    -200001    2    1    2    0    0 -0.21722730176E+03  0.44100043382E+03 -0.85969663902E+03  0.11649161080E+04  0.61341840892E+03 0.  0.
   -5000001    2    3    3    0    0 -0.39551852418E+03  0.32965473550E+03 -0.43249618998E+03  0.67820587785E+03  0.88335218339E+02 0.  0.
     200001    1    1    2    0    0  0.21722730176E+03 -0.44100043382E+03 -0.16650807016E+04  0.18411767504E+04  0.61300000000E+03 0. -1.
         11    1    4    4    0    0 -0.32328338281E+03  0.26058477652E+03 -0.31591606168E+03  0.52174661415E+03  0.51100000000E-03 0.  1.
    -200002    1    4    4    0    0 -0.72235141369E+02  0.69069958980E+02 -0.11658012830E+03  0.15645926369E+03  0.30000000000E+02 0. -1.
    -200000    1    3    3    0    0  0.17829122241E+03  0.11134569832E+03 -0.42720044904E+03  0.48671023020E+03  0.10100000000E+03 0.  1.
<mgrwt>
<rscale>  0 0.16315924E+04</rscale>
<asrwt>0</asrwt>
<pdfrwt beam="1">  1        2 0.39506214E+00 0.16315924E+04</pdfrwt>
<pdfrwt beam="2">  1       -2 0.34379682E-01 0.16315924E+04</pdfrwt>
<totfact> 0.24198415E+01</totfact>
</mgrwt>
</event>
<event>
 8    2  0.7237260E-052  0.2230587E+04  0.7818608E-02  0.8505804E-01
          2   -1    0    0  501    0  0.00000000000E+00  0.00000000000E+00  0.28289284041E+04  0.28289284041E+04  0.25500000000E-02 0.  1.
         -2   -1    0    0    0  501 -0.00000000000E+00 -0.00000000000E+00 -0.43969990273E+03  0.43969990273E+03  0.25500000000E-02 0. -1.
    -200001    2    1    2    0    0 -0.24349663296E+03  0.23169529579E+02 -0.12205266164E+03  0.67206721241E+03  0.61396257901E+03 0.  0.
   -5000001    2    3    3    0    0 -0.80285887925E+02 -0.15397157505E+03 -0.29618195223E+03  0.35815842297E+03  0.10198351532E+03 0.  0.
     200001    1    1    2    0    0  0.24349663296E+03 -0.23169529579E+02  0.25112811630E+04  0.25965610944E+04  0.61300000000E+03 0.  1.
         11    1    4    4    0    0 -0.94755401591E+01  0.11214216498E+02 -0.67758592107E+01  0.16169625267E+02  0.51100000000E-03 0.  1.
    -200002    1    4    4    0    0 -0.70810347766E+02 -0.16518579155E+03 -0.28940609302E+03  0.34198879771E+03  0.30000000000E+02 0.  1.
    -200000    1    3    3    0    0 -0.16321074504E+03  0.17714110463E+03  0.17412929059E+03  0.31390878944E+03  0.10100000000E+03 0.  1.
<mgrwt>
<rscale>  0 0.22305870E+04</rscale>
<asrwt>0</asrwt>
<pdfrwt beam="1">  1        2 0.40413261E+00 0.22305870E+04</pdfrwt>
<pdfrwt beam="2">  1       -2 0.62814275E-01 0.22305870E+04</pdfrwt>
<totfact> 0.63131980E+00</totfact>
</mgrwt>
</event>
<event>
 8    2  0.7237260E-052  0.1309172E+04  0.7818608E-02  0.9022323E-01
         -2   -1    0    0    0  501 -0.00000000000E+00  0.00000000000E+00  0.27546503732E+03  0.27546503733E+03  0.25500000000E-02 0. -1.
          2   -1    0    0  501    0  0.00000000000E+00 -0.00000000000E+00 -0.15554894699E+04  0.15554894699E+04  0.25500000000E-02 0.  1.
    -200001    2    1    2    0    0 -0.87257983882E+02 -0.20254056003E+03 -0.59675282420E+03  0.88688579944E+03  0.61791249692E+03 0.  0.
   -5000001    2    3    3    0    0 -0.13299169254E+03 -0.88616469999E+02 -0.68167863640E+03  0.70665354934E+03  0.95570949726E+02 0.  0.
     200001    1    1    2    0    0  0.87257983882E+02  0.20254056003E+03 -0.68327160835E+03  0.94406870776E+03  0.61300000000E+03 0.  1.
         11    1    4    4    0    0 -0.12612033320E+03 -0.90720075988E+02 -0.56826651433E+03  0.58912078723E+03  0.51100000000E-03 0.  1.
    -200002    1    4    4    0    0 -0.68713593323E+01  0.21036059897E+01 -0.11341212207E+03  0.11753276211E+03  0.30000000000E+02 0.  1.
    -200000    1    3    3    0    0  0.45733708654E+02 -0.11392409003E+03  0.84925812205E+02  0.18023225010E+03  0.10100000000E+03 0. -1.
<mgrwt>
<rscale>  0 0.13091722E+04</rscale>
<asrwt>0</asrwt>
<pdfrwt beam="1">  1        2 0.22221278E+00 0.13091722E+04</pdfrwt>
<pdfrwt beam="2">  1       -2 0.39352149E-01 0.13091722E+04</pdfrwt>
<totfact> 0.81701190E+01</totfact>
</mgrwt>
</event>
<event>
 8    2  0.7237260E-052  0.2125173E+04  0.7818608E-02  0.8550235E-01
          2   -1    0    0  501    0  0.00000000000E+00  0.00000000000E+00  0.35240354258E+04  0.35240354258E+04  0.25500000000E-02 0.  1.
         -2   -1    0    0    0  501 -0.00000000000E+00 -0.00000000000E+00 -0.32039699874E+03  0.32039699875E+03  0.25500000000E-02 0. -1.
    -200001    2    1    2    0    0 -0.38665434468E+03 -0.21861347711E+03  0.25328458378E+03  0.79850888068E+03  0.61332692547E+03 0.  0.
   -5000001    2    3    3    0    0 -0.21684702417E+03  0.12734771277E+03 -0.47653636696E+02  0.29922090410E+03  0.15499099498E+03 0.  0.
     200001    1    1    2    0    0  0.38665434468E+03  0.21861347711E+03  0.29503538433E+04  0.30459235439E+04  0.61300000000E+03 0.  1.
         11    1    4    4    0    0 -0.30667747849E+02  0.46593115363E+02  0.47330353141E+02  0.73154572558E+02  0.51100000000E-03 0.  1.
    -200002    1    4    4    0    0 -0.18617927632E+03  0.80754597411E+02 -0.94983989837E+02  0.22606633155E+03  0.30000000000E+02 0.  1.
    -200000    1    3    3    0    0 -0.16980732051E+03 -0.34596118988E+03  0.30093822048E+03  0.49928797657E+03  0.10100000000E+03 0. -1.
<mgrwt>
<rscale>  0 0.21251733E+04</rscale>
<asrwt>0</asrwt>
<pdfrwt beam="1">  1        2 0.50343361E+00 0.21251733E+04</pdfrwt>
<pdfrwt beam="2">  1       -2 0.45771002E-01 0.21251733E+04</pdfrwt>
<totfact> 0.48674031E+00</totfact>
</mgrwt>
</event>
<event>
 8    2  0.7237260E-052  0.1890738E+04  0.7818608E-02  0.8659480E-01
         -2   -1    0    0    0  501 -0.00000000000E+00  0.00000000000E+00  0.88990284413E+03  0.88990284414E+03  0.25500000000E-02 0. -1.
          2   -1    0    0  501    0  0.00000000000E+00 -0.00000000000E+00 -0.10042925051E+04  0.10042925051E+04  0.25500000000E-02 0.  1.
    -200001    2    1    2    0    0  0.80210783923E+01  0.71347794075E+03  0.30930766419E+02  0.94235390431E+03  0.61478374980E+03 0.  0.
   -5000001    2    3    3    0    0 -0.28918748813E+02  0.78821600061E+03 -0.44445924272E+02  0.79124806748E+03  0.44466914101E+02 0.  0.
     200001    1    1    2    0    0 -0.80210783923E+01 -0.71347794075E+03 -0.14532042736E+03  0.95184144491E+03  0.61300000000E+03 0. -1.
         11    1    4    4    0    0 -0.14639731338E+02  0.39825256852E+03 -0.16099108800E+02  0.39884660130E+03  0.51100000000E-03 0.  1.
    -200002    1    4    4    0    0 -0.14279017475E+02  0.38996343209E+03 -0.28346815472E+02  0.39240146617E+03  0.30000000000E+02 0. -1.
    -200000    1    3    3    0    0  0.36939827205E+02 -0.74738059857E+02  0.75376690691E+02  0.15110583683E+03  0.10100000000E+03 0. -1.
<mgrwt>
<rscale>  0 0.18907382E+04</rscale>
<asrwt>0</asrwt>
<pdfrwt beam="1">  1        2 0.14347036E+00 0.18907382E+04</pdfrwt>
<pdfrwt beam="2">  1       -2 0.12712898E+00 0.18907382E+04</pdfrwt>
<totfact> 0.12064779E+01</totfact>
</mgrwt>
</event>
<event>
 8    2  0.7237260E-052  0.1520214E+04  0.7818608E-02  0.8871121E-01
         -2   -1    0    0    0  501 -0.00000000000E+00  0.00000000000E+00  0.44818213300E+03  0.44818213301E+03  0.25500000000E-02 0. -1.
          2   -1    0    0  501    0  0.00000000000E+00 -0.00000000000E+00 -0.12891246250E+04  0.12891246250E+04  0.25500000000E-02 0.  1.
    -200001    2    1    2    0    0 -0.17915058689E+03  0.31551002035E+03 -0.11777398131E+03  0.72222882969E+03  0.61327177176E+03 0.  0.
   -5000001    2    3    3    0    0 -0.31340008841E+03  0.37423363722E+03 -0.18831106614E+03  0.53079248996E+03  0.89494017254E+02 0.  0.
     200001    1    1    2    0    0  0.17915058689E+03 -0.31551002035E+03 -0.72316851069E+03  0.10150779283E+04  0.61300000000E+03 0.  1.
         11    1    4    4    0    0 -0.28086761004E+03  0.32586727551E+03 -0.15515523765E+03  0.45732837589E+03  0.51100000000E-03 0.  1.
    -200002    1    4    4    0    0 -0.32532478363E+02  0.48366361708E+02 -0.33155828486E+02  0.73464114069E+02  0.30000000000E+02 0. -1.
    -200000    1    3    3    0    0  0.13424950151E+03 -0.58723616870E+02  0.70537084825E+02  0.19143633973E+03  0.10100000000E+03 0. -1.
<mgrwt>
<rscale>  0 0.15202140E+04</rscale>
<asrwt>0</asrwt>
<pdfrwt beam="1">  1        2 0.18416066E+00 0.15202140E+04</pdfrwt>
<pdfrwt beam="2">  1       -2 0.64026019E-01 0.15202140E+04</pdfrwt>
<totfact> 0.41488486E+01</totfact>
</mgrwt>
</event>
<event>
 8    2  0.7237260E-052  0.1512181E+04  0.7818608E-02  0.8876393E-01
         -2   -1    0    0    0  501 -0.00000000000E+00  0.00000000000E+00  0.38301611731E+03  0.38301611732E+03  0.25500000000E-02 0. -1.
          2   -1    0    0  501    0  0.00000000000E+00 -0.00000000000E+00 -0.14925564725E+04  0.14925564725E+04  0.25500000000E-02 0.  1.
    -200001    2    1    2    0    0  0.30877601733E+03 -0.23371084509E+03 -0.28589404896E+03  0.77824600864E+03  0.61152927546E+03 0.  0.
   -5000001    2    3    3    0    0 -0.14573631276E+03 -0.18487905853E+03 -0.44259360350E+02  0.25141176116E+03  0.76352102331E+02 0.  0.
     200001    1    1    2    0    0 -0.30877601733E+03  0.23371084509E+03 -0.82364630624E+03  0.10973265812E+04  0.61300000000E+03 0.  1.
         11    1    4    4    0    0 -0.88492262905E+01 -0.71602570509E+01  0.13673699527E+02  0.17791799965E+02  0.51100000000E-03 0.  1.
    -200002    1    4    4    0    0 -0.13688708647E+03 -0.17771880148E+03 -0.57933059877E+02  0.23361996119E+03  0.30000000000E+02 0.  1.
    -200000    1    3    3    0    0  0.45451233009E+03 -0.48831786552E+02 -0.24163468861E+03  0.52683424748E+03  0.10100000000E+03 0. -1.
<mgrwt>
<rscale>  0 0.15121815E+04</rscale>
<asrwt>0</asrwt>
<pdfrwt beam="1">  1        2 0.21322235E+00 0.15121815E+04</pdfrwt>
<pdfrwt beam="2">  1       -2 0.54716589E-01 0.15121815E+04</pdfrwt>
<totfact> 0.44817652E+01</totfact>
</mgrwt>
</event>
<event>
 8    2  0.7237260E-052  0.1775019E+04  0.7818608E-02  0.8719698E-01
          2   -1    0    0  501    0  0.00000000000E+00  0.00000000000E+00  0.21513120961E+04  0.21513120961E+04  0.25500000000E-02 0.  1.
         -2   -1    0    0    0  501 -0.00000000000E+00 -0.00000000000E+00 -0.36613616811E+03  0.36613616812E+03  0.25500000000E-02 0. -1.
    -200001    2    1    2    0    0  0.60447350623E+03  0.20343954802E+03  0.78963060666E+03  0.11856617362E+04  0.61278168074E+03 0.  0.
   -5000001    2    3    3    0    0  0.20168580640E+03 -0.18649174410E+03  0.40443973844E+03  0.49801549816E+03  0.94824043688E+02 0.  0.
     200001    1    1    2    0    0 -0.60447350623E+03 -0.20343954802E+03  0.99554532135E+03  0.13317865281E+04  0.61300000000E+03 0.  1.
         11    1    4    4    0    0  0.15319304615E+03 -0.16039826400E+03  0.26817404035E+03  0.34801297160E+03  0.51100000000E-03 0.  1.
    -200002    1    4    4    0    0  0.48492760244E+02 -0.26093480104E+02  0.13626569809E+03  0.15000252656E+03  0.30000000000E+02 0.  1.
    -200000    1    3    3    0    0  0.40278769983E+03  0.38993129212E+03  0.38519086822E+03  0.68764623803E+03  0.10100000000E+03 0.  1.
<mgrwt>
<rscale>  0 0.17750191E+04</rscale>
<asrwt>0</asrwt>
<pdfrwt beam="1">  1        2 0.30733029E+00 0.17750191E+04</pdfrwt>
<pdfrwt beam="2">  1       -2 0.52305169E-01 0.17750191E+04</pdfrwt>
<totfact> 0.21931706E+01</totfact>
</mgrwt>
</event>
<event>
 8    2  0.7237260E-052  0.1341008E+04  0.7818608E-02  0.8997663E-01
          2   -1    0    0  501    0  0.00000000000E+00  0.00000000000E+00  0.10744543794E+04  0.10744543794E+04  0.25500000000E-02 0.  1.
         -2   -1    0    0    0  501 -0.00000000000E+00 -0.00000000000E+00 -0.41842246518E+03  0.41842246519E+03  0.25500000000E-02 0. -1.
    -200001    2    1    2    0    0  0.20357524956E+03 -0.13288729397E+03  0.19247170184E+03  0.68680055437E+03  0.61281949246E+03 0.  0.
   -5000001    2    3    3    0    0  0.14037344242E+03 -0.21795957668E+03 -0.15250236376E+03  0.31204747881E+03  0.83099805508E+02 0.  0.
     200001    1    1    2    0    0 -0.20357524956E+03  0.13288729397E+03  0.46356021233E+03  0.80607629018E+03  0.61300000000E+03 0. -1.
         11    1    4    4    0    0  0.11654124788E+03 -0.14851857389E+03 -0.13129225347E+03  0.22995061441E+03  0.51100000000E-03 0.  1.
    -200002    1    4    4    0    0  0.23832194547E+02 -0.69441002789E+02 -0.21210110285E+02  0.82096864395E+02  0.30000000000E+02 0. -1.
    -200000    1    3    3    0    0  0.63201807132E+02  0.85072282704E+02  0.34497406560E+03  0.37475307556E+03  0.10100000000E+03 0.  1.
<mgrwt>
<rscale>  0 0.13410084E+04</rscale>
<asrwt>0</asrwt>
<pdfrwt beam="1">  1        2 0.15349348E+00 0.13410084E+04</pdfrwt>
<pdfrwt beam="2">  1       -2 0.59774637E-01 0.13410084E+04</pdfrwt>
<totfact> 0.64629516E+01</totfact>
</mgrwt>
</event>
<event>
 8    2  0.7237260E-052  0.1535617E+04  0.7818608E-02  0.8861108E-01
         -2   -1    0    0    0  501 -0.00000000000E+00  0.00000000000E+00  0.26045998049E+03  0.26045998050E+03  0.25500000000E-02 0. -1.
          2   -1    0    0  501    0  0.00000000000E+00 -0.00000000000E+00 -0.22634170217E+04  0.22634170217E+04  0.25500000000E-02 0.  1.
    -200001    2    1    2    0    0  0.25417869375E+03  0.76109903226E+02 -0.16191892209E+04  0.17535223660E+04  0.61860118736E+03 0.  0.
   -5000001    2    3    3    0    0  0.94282032999E+02 -0.56003828420E+02 -0.14755140785E+04  0.14817420746E+04  0.79951543181E+02 0.  0.
     200001    1    1    2    0    0 -0.25417869375E+03 -0.76109903226E+02 -0.38376782031E+03  0.77035463628E+03  0.61300000000E+03 0. -1.
         11    1    4    4    0    0  0.48749206956E+01  0.24668326614E+01 -0.48523071444E+03  0.48526147215E+03  0.51100000000E-03 0.  1.
    -200002    1    4    4    0    0  0.89407112303E+02 -0.58470661081E+02 -0.99028336408E+03  0.99648060248E+03  0.30000000000E+02 0.  1.
    -200000    1    3    3    0    0  0.15989666075E+03  0.13211373165E+03 -0.14367514241E+03  0.27178029133E+03  0.10100000000E+03 0. -1.
<mgrwt>
<rscale>  0 0.15356166E+04</rscale>
<asrwt>0</asrwt>
<pdfrwt beam="1">  1        2 0.32334528E+00 0.15356166E+04</pdfrwt>
<pdfrwt beam="2">  1       -2 0.37208570E-01 0.15356166E+04</pdfrwt>
<totfact> 0.38551313E+01</totfact>
</mgrwt>
</event>
<event>
 8    2  0.7237260E-052  0.1554745E+04  0.7818608E-02  0.8848843E-01
          2   -1    0    0  501    0  0.00000000000E+00  0.00000000000E+00  0.43611062774E+03  0.43611062775E+03  0.25500000000E-02 0.  1.
         -2   -1    0    0    0  501 -0.00000000000E+00 -0.00000000000E+00 -0.13856761683E+04  0.13856761683E+04  0.25500000000E-02 0. -1.
    -200001    2    1    2    0    0  0.47274456588E+03  0.71160372589E+02 -0.46696832285E+03  0.90678936560E+03  0.61290808105E+03 0.  0.
   -5000001    2    3    3    0    0  0.41032454615E+03  0.13920314249E+03 -0.57807044481E+03  0.73052036974E+03  0.10840121483E+03 0.  0.
     200001    1    1    2    0    0 -0.47274456588E+03 -0.71160372589E+02 -0.48259721772E+03  0.91499743046E+03  0.61300000000E+03 0. -1.
         11    1    4    4    0    0  0.23094951234E+03  0.10558051741E+03 -0.39988616921E+03  0.47370230233E+03  0.51100000000E-03 0.  1.
    -200002    1    4    4    0    0  0.17937503382E+03  0.33622625079E+02 -0.17818427560E+03  0.25681806741E+03  0.30000000000E+02 0. -1.
    -200000    1    3    3    0    0  0.62420019730E+02 -0.68042769903E+02  0.11110212196E+03  0.17626899587E+03  0.10100000000E+03 0.  1.
<mgrwt>
<rscale>  0 0.15547451E+04</rscale>
<asrwt>0</asrwt>
<pdfrwt beam="1">  1        2 0.62301519E-01 0.15547451E+04</pdfrwt>
<pdfrwt beam="2">  1       -2 0.19795374E+00 0.15547451E+04</pdfrwt>
<totfact> 0.10369491E+01</totfact>
</mgrwt>
</event>
<event>
 8    2  0.7237260E-052  0.1450592E+04  0.7818608E-02  0.8917990E-01
         -2   -1    0    0    0  501 -0.00000000000E+00  0.00000000000E+00  0.20296227855E+03  0.20296227856E+03  0.25500000000E-02 0. -1.
          2   -1    0    0  501    0  0.00000000000E+00 -0.00000000000E+00 -0.25918831975E+04  0.25918831975E+04  0.25500000000E-02 0.  1.
    -200001    2    1    2    0    0  0.32449001921E+03 -0.19972545909E+03 -0.10609811466E+04  0.12834298910E+04  0.61345518195E+03 0.  0.
   -5000001    2    3    3    0    0 -0.44927497172E+02 -0.11552685974E+03 -0.21422375869E+02  0.17237537245E+03  0.11785336446E+03 0.  0.
     200001    1    1    2    0    0 -0.32449001921E+03  0.19972545909E+03 -0.13279397724E+04  0.15114155850E+04  0.61300000000E+03 0.  1.
         11    1    4    4    0    0 -0.33830030009E+02 -0.12774979237E+03 -0.33030822760E+02  0.13621863174E+03  0.51100000000E-03 0.  1.
    -200002    1    4    4    0    0 -0.11097467163E+02  0.12222932626E+02  0.11608446892E+02  0.36156740708E+02  0.30000000000E+02 0.  1.
    -200000    1    3    3    0    0  0.36941751638E+03 -0.84198599350E+02 -0.10395587707E+04  0.11110545186E+04  0.10100000000E+03 0.  1.
<mgrwt>
<rscale>  0 0.14505923E+04</rscale>
<asrwt>0</asrwt>
<pdfrwt beam="1">  1        2 0.37026901E+00 0.14505923E+04</pdfrwt>
<pdfrwt beam="2">  1       -2 0.28994613E-01 0.14505923E+04</pdfrwt>
<totfact> 0.41901462E+01</totfact>
</mgrwt>
</event>
<event>
 8    2  0.7237260E-052  0.1298396E+04  0.7818608E-02  0.9030838E-01
         -2   -1    0    0    0  501 -0.00000000000E+00  0.00000000000E+00  0.15723036895E+03  0.15723036897E+03  0.25500000000E-02 0. -1.
          2   -1    0    0  501    0  0.00000000000E+00 -0.00000000000E+00 -0.26805135238E+04  0.26805135238E+04  0.25500000000E-02 0.  1.
    -200001    2    1    2    0    0 -0.10707003581E+03  0.32124191617E+01 -0.16681468751E+04  0.17801516419E+04  0.61216955085E+03 0.  0.
   -5000001    2    3    3    0    0  0.38776644614E+02  0.14619599341E+03 -0.10828175949E+03  0.20373299964E+03  0.83098129036E+02 0.  0.
     200001    1    1    2    0    0  0.10707003581E+03 -0.32124191617E+01 -0.85513627977E+03  0.10575922509E+04  0.61300000000E+03 0. -1.
         11    1    4    4    0    0  0.22059837883E+02  0.19757983517E+01 -0.26081132539E+02  0.34216453664E+02  0.51100000000E-03 0.  1.
    -200002    1    4    4    0    0  0.16716806731E+02  0.14422019506E+03 -0.82200626946E+02  0.16951654598E+03  0.30000000000E+02 0.  1.
    -200000    1    3    3    0    0 -0.14584668042E+03 -0.14298357425E+03 -0.15598651156E+04  0.15764186422E+04  0.10100000000E+03 0.  1.
<mgrwt>
<rscale>  0 0.12983961E+04</rscale>
<asrwt>0</asrwt>
<pdfrwt beam="1">  1        2 0.38293048E+00 0.12983961E+04</pdfrwt>
<pdfrwt beam="2">  1       -2 0.22461483E-01 0.12983961E+04</pdfrwt>
<totfact> 0.60571805E+01</totfact>
</mgrwt>
</event>
<event>
 8    2  0.7237260E-052  0.1348319E+04  0.7818608E-02  0.8992101E-01
          2   -1    0    0  501    0  0.00000000000E+00  0.00000000000E+00  0.13500041698E+04  0.13500041698E+04  0.25500000000E-02 0.  1.
         -2   -1    0    0    0  501 -0.00000000000E+00 -0.00000000000E+00 -0.33665905273E+03  0.33665905274E+03  0.25500000000E-02 0. -1.
    -200001    2    1    2    0    0 -0.14578544956E+03  0.93934893353E+02  0.78140380938E+03  0.10086935096E+04  0.61383509301E+03 0.  0.
   -5000001    2    3    3    0    0 -0.17167827614E+02 -0.41804376083E+02 -0.62796975625E+02  0.13815137540E+03  0.11445524108E+03 0.  0.
     200001    1    1    2    0    0  0.14578544956E+03 -0.93934893353E+02  0.23194130766E+03  0.67796971296E+03  0.61300000000E+03 0.  1.
         11    1    4    4    0    0 -0.54627045463E+02 -0.44664311470E+02 -0.18901079216E+02  0.73049747507E+02  0.51100000000E-03 0.  1.
    -200002    1    4    4    0    0  0.37459217849E+02  0.28599353864E+01 -0.43895896410E+02  0.65101627890E+02  0.30000000000E+02 0.  1.
    -200000    1    3    3    0    0 -0.12861762194E+03  0.13573926944E+03  0.84420078500E+03  0.87054213416E+03  0.10100000000E+03 0.  1.
<mgrwt>
<rscale>  0 0.13483191E+04</rscale>
<asrwt>0</asrwt>
<pdfrwt beam="1">  1        2 0.19285774E+00 0.13483191E+04</pdfrwt>
<pdfrwt beam="2">  1       -2 0.48094151E-01 0.13483191E+04</pdfrwt>
<totfact> 0.70524489E+01</totfact>
</mgrwt>
</event>
<event>
 8    2  0.7237260E-052  0.2813481E+04  0.7818608E-02  0.8299095E-01
         -2   -1    0    0    0  501 -0.00000000000E+00  0.00000000000E+00  0.20918823741E+04  0.20918823741E+04  0.25500000000E-02 0.  1.
          2   -1    0    0  501    0  0.00000000000E+00 -0.00000000000E+00 -0.94599920805E+03  0.94599920806E+03  0.25500000000E-02 0. -1.
    -200001    2    1    2    0    0  0.60108302532E+03 -0.64983997490E+03  0.15517555802E+04  0.18871886549E+04  0.60822926784E+03 0.  0.
   -5000001    2    3    3    0    0  0.33659610296E+03 -0.81767320217E+02  0.94120021001E+03  0.10064851105E+04  0.84685365432E+02 0.  0.
     200001    1    1    2    0    0 -0.60108302532E+03  0.64983997490E+03 -0.40587241412E+03  0.11506929273E+04  0.61300000000E+03 0. -1.
         11    1    4    4    0    0  0.26709303475E+03 -0.65944109705E+02  0.79218199038E+03  0.83859383536E+03  0.51100000000E-03 0.  1.
    -200002    1    4    4    0    0  0.69503068213E+02 -0.15823210512E+02  0.14901821962E+03  0.16789127512E+03  0.30000000000E+02 0. -1.
    -200000    1    3    3    0    0  0.26448692236E+03 -0.56807265468E+03  0.61055537014E+03  0.88070354439E+03  0.10100000000E+03 0.  1.
<mgrwt>
<rscale>  0 0.28134812E+04</rscale>
<asrwt>0</asrwt>
<pdfrwt beam="1">  1        2 0.13514274E+00 0.28134812E+04</pdfrwt>
<pdfrwt beam="2">  1       -2 0.29884034E+00 0.28134812E+04</pdfrwt>
<totfact> 0.85778444E-01</totfact>
</mgrwt>
</event>
<event>
 8    2  0.7237260E-052  0.1404447E+04  0.7818608E-02  0.8950606E-01
         -2   -1    0    0    0  501 -0.00000000000E+00  0.00000000000E+00  0.20481035617E+03  0.20481035618E+03  0.25500000000E-02 0. -1.
          2   -1    0    0  501    0  0.00000000000E+00 -0.00000000000E+00 -0.24076787872E+04  0.24076787872E+04  0.25500000000E-02 0.  1.
    -200001    2    1    2    0    0  0.14445185461E+03 -0.14460834851E+03 -0.16120558905E+04  0.17369285396E+04  0.61352966099E+03 0.  0.
   -5000001    2    3    3    0    0  0.74997244131E+02  0.22636726066E+03 -0.63354962932E+03  0.68330510182E+03  0.93026910320E+02 0.  0.
     200001    1    1    2    0    0 -0.14445185461E+03  0.14460834851E+03 -0.59081254046E+03  0.87556060369E+03  0.61300000000E+03 0. -1.
         11    1    4    4    0    0  0.26181939570E+01  0.13530251334E+03 -0.35708493733E+03  0.38186814154E+03  0.51100000000E-03 0.  1.
    -200002    1    4    4    0    0  0.72379050174E+02  0.91064747315E+02 -0.27646469199E+03  0.30143696028E+03  0.30000000000E+02 0.  1.
    -200000    1    3    3    0    0  0.69454610484E+02 -0.37097560917E+03 -0.97850626120E+03  0.10536234378E+04  0.10100000000E+03 0. -1.
<mgrwt>
<rscale>  0 0.14044466E+04</rscale>
<asrwt>0</asrwt>
<pdfrwt beam="1">  1        2 0.34395410E+00 0.14044466E+04</pdfrwt>
<pdfrwt beam="2">  1       -2 0.29258624E-01 0.14044466E+04</pdfrwt>
<totfact> 0.51675797E+01</totfact>
</mgrwt>
</event>
<event>
 8    2  0.7237260E-052  0.1265184E+04  0.7818608E-02  0.9057639E-01
         -2   -1    0    0    0  501 -0.00000000000E+00  0.00000000000E+00  0.92131132074E+03  0.92131132074E+03  0.25500000000E-02 0. -1.
          2   -1    0    0  501    0  0.00000000000E+00 -0.00000000000E+00 -0.43435125900E+03  0.43435125900E+03  0.25500000000E-02 0.  1.
    -200001    2    1    2    0    0  0.14749306869E+02 -0.27999532620E+02  0.40817980713E+03  0.73681135013E+03  0.61259994683E+03 0.  0.
   -5000001    2    3    3    0    0  0.12383399311E+03  0.24503629781E+03  0.16643147555E+03  0.34299503598E+03  0.12070009759E+03 0.  0.
     200001    1    1    2    0    0 -0.14749306869E+02  0.27999532620E+02  0.78780254614E+02  0.61885122962E+03  0.61300000000E+03 0. -1.
         11    1    4    4    0    0 -0.17682138259E+02  0.65269489889E+02  0.23604469282E+02  0.71623566611E+02  0.51100000000E-03 0.  1.
    -200002    1    4    4    0    0  0.14151613137E+03  0.17976680792E+03  0.14282700627E+03  0.27137146937E+03  0.30000000000E+02 0. -1.
    -200000    1    3    3    0    0 -0.10908468624E+03 -0.27303583043E+03  0.24174833158E+03  0.39381631415E+03  0.10100000000E+03 0. -1.
<mgrwt>
<rscale>  0 0.12651841E+04</rscale>
<asrwt>0</asrwt>
<pdfrwt beam="1">  1        2 0.62050180E-01 0.12651841E+04</pdfrwt>
<pdfrwt beam="2">  1       -2 0.13161590E+00 0.12651841E+04</pdfrwt>
<totfact> 0.32616257E+01</totfact>
</mgrwt>
</event>
<event>
 8    2  0.7237260E-052  0.1339721E+04  0.7818608E-02  0.8998646E-01
          2   -1    0    0  501    0  0.00000000000E+00  0.00000000000E+00  0.33784883064E+04  0.33784883064E+04  0.25500000000E-02 0.  1.
         -2   -1    0    0    0  501 -0.00000000000E+00 -0.00000000000E+00 -0.13281470779E+03  0.13281470781E+03  0.25500000000E-02 0. -1.
    -200001    2    1    2    0    0 -0.10226135015E+03 -0.60764565770E+02  0.22571570221E+04  0.23420794521E+04  0.61353779123E+03 0.  0.
   -5000001    2    3    3    0    0 -0.28687118111E+03  0.14367589160E+03  0.11449793192E+04  0.11918547205E+04  0.81253904708E+02 0.  0.
     200001    1    1    2    0    0  0.10226135015E+03  0.60764565770E+02  0.98851657651E+03  0.11692235621E+04  0.61300000000E+03 0. -1.
         11    1    4    4    0    0 -0.24758330608E+03  0.12303017831E+03  0.92393764963E+03  0.96441417380E+03  0.51100000000E-03 0.  1.
    -200002    1    4    4    0    0 -0.39287875031E+02  0.20645713289E+02  0.22104166953E+03  0.22744054667E+03  0.30000000000E+02 0. -1.
    -200000    1    3    3    0    0  0.18460983096E+03 -0.20444045737E+03  0.11121777030E+04  0.11502247316E+04  0.10100000000E+03 0.  1.
<mgrwt>
<rscale>  0 0.13397208E+04</rscale>
<asrwt>0</asrwt>
<pdfrwt beam="1">  1        2 0.48264122E+00 0.13397208E+04</pdfrwt>
<pdfrwt beam="2">  1       -2 0.18973528E-01 0.13397208E+04</pdfrwt>
<totfact> 0.33091466E+01</totfact>
</mgrwt>
</event>
<event>
 8    2  0.7237260E-052  0.1384424E+04  0.7818608E-02  0.8965171E-01
         -2   -1    0    0    0  501 -0.00000000000E+00  0.00000000000E+00  0.12034406488E+04  0.12034406488E+04  0.25500000000E-02 0. -1.
          2   -1    0    0  501    0  0.00000000000E+00 -0.00000000000E+00 -0.39815608033E+03  0.39815608033E+03  0.25500000000E-02 0.  1.
    -200001    2    1    2    0    0 -0.16949011812E+02 -0.25150433094E+03  0.17145210534E+03  0.68450660881E+03  0.61287174482E+03 0.  0.
   -5000001    2    3    3    0    0  0.30575662009E+02  0.10758136571E+03 -0.12658241861E+03  0.20468715358E+03  0.11560752910E+03 0.  0.
     200001    1    1    2    0    0  0.16949011812E+02  0.25150433094E+03  0.63383246313E+03  0.91709012033E+03  0.61300000000E+03 0. -1.
         11    1    4    4    0    0  0.40857414158E+02 -0.25215478292E+01 -0.58523428632E+02  0.71419032437E+02  0.51100000000E-03 0.  1.
    -200002    1    4    4    0    0 -0.10281752149E+02  0.11010291354E+03 -0.68058989973E+02  0.13326812114E+03  0.30000000000E+02 0.  1.
    -200000    1    3    3    0    0 -0.47524673821E+02 -0.35908569664E+03  0.29803452395E+03  0.47981945523E+03  0.10100000000E+03 0. -1.
<mgrwt>
<rscale>  0 0.13844237E+04</rscale>
<asrwt>0</asrwt>
<pdfrwt beam="1">  1        2 0.56879441E-01 0.13844237E+04</pdfrwt>
<pdfrwt beam="2">  1       -2 0.17192009E+00 0.13844237E+04</pdfrwt>
<totfact> 0.17504738E+01</totfact>
</mgrwt>
</event>
<event>
 8    2  0.7237260E-052  0.1398334E+04  0.7818608E-02  0.8955025E-01
         -2   -1    0    0    0  501 -0.00000000000E+00  0.00000000000E+00  0.29198885161E+03  0.29198885162E+03  0.25500000000E-02 0. -1.
          2   -1    0    0  501    0  0.00000000000E+00 -0.00000000000E+00 -0.16741556579E+04  0.16741556579E+04  0.25500000000E-02 0.  1.
    -200001    2    1    2    0    0 -0.32563270865E+02  0.12455999464E+03 -0.24914806316E+03  0.67151095862E+03  0.61014477896E+03 0.  0.
   -5000001    2    3    3    0    0  0.65918000649E+02  0.10492129385E+03  0.15787712647E+03  0.24028625570E+03  0.13213113525E+03 0.  0.
     200001    1    1    2    0    0  0.32563270865E+02 -0.12455999464E+03 -0.11330187431E+04  0.12946335509E+04  0.61300000000E+03 0.  1.
         11    1    4    4    0    0  0.46099813403E+01  0.35657553941E+02  0.13592059322E+03  0.14059559290E+03  0.51100000000E-03 0.  1.
    -200002    1    4    4    0    0  0.61308019308E+02  0.69263739907E+02  0.21956533254E+02  0.99690662802E+02  0.30000000000E+02 0.  1.
    -200000    1    3    3    0    0 -0.98481271513E+02  0.19638700794E+02 -0.40702518964E+03  0.43122470292E+03  0.10100000000E+03 0.  1.
<mgrwt>
<rscale>  0 0.13983344E+04</rscale>
<asrwt>0</asrwt>
<pdfrwt beam="1">  1        2 0.23916509E+00 0.13983344E+04</pdfrwt>
<pdfrwt beam="2">  1       -2 0.41712694E-01 0.13983344E+04</pdfrwt>
<totfact> 0.62762071E+01</totfact>
</mgrwt>
</event>
<event>
 8    2  0.7237260E-052  0.1348388E+04  0.7818608E-02  0.8992049E-01
         -2   -1    0    0    0  501 -0.00000000000E+00  0.00000000000E+00  0.94592388424E+03  0.94592388425E+03  0.25500000000E-02 0. -1.
          2   -1    0    0  501    0  0.00000000000E+00 -0.00000000000E+00 -0.48052257998E+03  0.48052257999E+03  0.25500000000E-02 0.  1.
    -200001    2    1    2    0    0  0.22245109143E+03  0.81124011045E+02  0.73664886282E+02  0.66140266522E+03  0.61315689415E+03 0.  0.
   -5000001    2    3    3    0    0  0.30255129615E+03 -0.17453535344E+03 -0.62785592943E+01  0.36413223626E+03  0.10272774104E+03 0.  0.
     200001    1    1    2    0    0 -0.22245109143E+03 -0.81124011045E+02  0.39173641798E+03  0.76504379902E+03  0.61300000000E+03 0. -1.
         11    1    4    4    0    0  0.98404121512E+02 -0.11010177240E+03 -0.90984798340E+01  0.14794780752E+03  0.51100000000E-03 0.  1.
    -200002    1    4    4    0    0  0.20414717463E+03 -0.64433581042E+02  0.28199205397E+01  0.21618442874E+03  0.30000000000E+02 0.  1.
    -200000    1    3    3    0    0 -0.80100204714E+02  0.25565936448E+03  0.79943445576E+02  0.29727042896E+03  0.10100000000E+03 0. -1.
<mgrwt>
<rscale>  0 0.13483883E+04</rscale>
<asrwt>0</asrwt>
<pdfrwt beam="1">  1        2 0.68646083E-01 0.13483883E+04</pdfrwt>
<pdfrwt beam="2">  1       -2 0.13513198E+00 0.13483883E+04</pdfrwt>
<totfact> 0.27040053E+01</totfact>
</mgrwt>
</event>
<event>
 8    2  0.7237260E-052  0.1659258E+04  0.7818608E-02  0.8784948E-01
         -2   -1    0    0    0  501 -0.00000000000E+00  0.00000000000E+00  0.56170037501E+03  0.56170037502E+03  0.25500000000E-02 0. -1.
          2   -1    0    0  501    0  0.00000000000E+00 -0.00000000000E+00 -0.12253590120E+04  0.12253590120E+04  0.25500000000E-02 0.  1.
    -200001    2    1    2    0    0 -0.47058356662E+03 -0.28273343991E+03 -0.21764703208E+03  0.85106662905E+03  0.61282712513E+03 0.  0.
   -5000001    2    3    3    0    0 -0.54430050879E+03 -0.20401708608E+03 -0.28525275964E+03  0.68857974859E+03  0.23427957232E+03 0.  0.
     200001    1    1    2    0    0  0.47058356662E+03  0.28273343991E+03 -0.44601160487E+03  0.93599275793E+03  0.61300000000E+03 0. -1.
         11    1    4    4    0    0 -0.10185459395E+02  0.28293121397E+02 -0.52757294977E+02  0.60725418689E+02  0.51100000000E-03 0.  1.
    -200002    1    4    4    0    0 -0.53411504939E+03 -0.23231020748E+03 -0.23249546467E+03  0.62785432990E+03  0.30000000000E+02 0.  1.
    -200000    1    3    3    0    0  0.73716942165E+02 -0.78716353823E+02  0.67605727568E+02  0.16248688046E+03  0.10100000000E+03 0. -1.
<mgrwt>
<rscale>  0 0.16592584E+04</rscale>
<asrwt>0</asrwt>
<pdfrwt beam="1">  1        2 0.17505129E+00 0.16592584E+04</pdfrwt>
<pdfrwt beam="2">  1       -2 0.80242911E-01 0.16592584E+04</pdfrwt>
<totfact> 0.27162572E+01</totfact>
</mgrwt>
</event>
<event>
 8    2  0.7237260E-052  0.1315106E+04  0.7818608E-02  0.9017671E-01
         -2   -1    0    0    0  501 -0.00000000000E+00  0.00000000000E+00  0.26744000522E+03  0.26744000523E+03  0.25500000000E-02 0. -1.
          2   -1    0    0  501    0  0.00000000000E+00 -0.00000000000E+00 -0.16167205497E+04  0.16167205497E+04  0.25500000000E-02 0.  1.
    -200001    2    1    2    0    0 -0.14301326687E+03 -0.19131821118E+03 -0.69451670326E+03  0.95596868889E+03  0.61193727669E+03 0.  0.
   -5000001    2    3    3    0    0 -0.18458966977E+03  0.18027600896E+03 -0.30700159606E+03  0.40808200350E+03  0.75552339492E+02 0.  0.
     200001    1    1    2    0    0  0.14301326687E+03  0.19131821118E+03 -0.65476384124E+03  0.92819186607E+03  0.61300000000E+03 0. -1.
         11    1    4    4    0    0 -0.32055544730E+02  0.50768387345E+02 -0.11198452536E+03  0.12706502675E+03  0.51100000000E-03 0.  1.
    -200002    1    4    4    0    0 -0.15253412504E+03  0.12950762162E+03 -0.19501707070E+03  0.28101697675E+03  0.30000000000E+02 0.  1.
    -200000    1    3    3    0    0  0.41576402896E+02 -0.37159422015E+03 -0.38751510720E+03  0.54788668540E+03  0.10100000000E+03 0.  1.
<mgrwt>
<rscale>  0 0.13151057E+04</rscale>
<asrwt>0</asrwt>
<pdfrwt beam="1">  1        2 0.23096007E+00 0.13151057E+04</pdfrwt>
<pdfrwt beam="2">  1       -2 0.38205716E-01 0.13151057E+04</pdfrwt>
<totfact> 0.80320532E+01</totfact>
</mgrwt>
</event>
<event>
 8    2  0.7237260E-052  0.1761084E+04  0.7818608E-02  0.8727273E-01
          2   -1    0    0  501    0  0.00000000000E+00  0.00000000000E+00  0.83704680596E+03  0.83704680597E+03  0.25500000000E-02 0.  1.
         -2   -1    0    0    0  501 -0.00000000000E+00 -0.00000000000E+00 -0.92629721361E+03  0.92629721361E+03  0.25500000000E-02 0. -1.
    -200001    2    1    2    0    0  0.31636759279E+03  0.11177406315E+03  0.49170249842E+03  0.85457717708E+03  0.61314672770E+03 0.  0.
   -5000001    2    3    3    0    0 -0.60533649962E+02 -0.17154115027E+03  0.12033132393E+03  0.24593967727E+03  0.11364861777E+03 0.  0.
     200001    1    1    2    0    0 -0.31636759279E+03 -0.11177406315E+03 -0.58095290606E+03  0.90876684249E+03  0.61300000000E+03 0. -1.
         11    1    4    4    0    0  0.28878099068E+02 -0.70693245341E+02  0.40256803581E+02  0.86325487415E+02  0.51100000000E-03 0.  1.
    -200002    1    4    4    0    0 -0.89411749030E+02 -0.10084790493E+03  0.80074520348E+02  0.15961418985E+03  0.30000000000E+02 0.  1.
    -200000    1    3    3    0    0  0.37690124275E+03  0.28331521342E+03  0.37137117449E+03  0.60863749982E+03  0.10100000000E+03 0.  1.
<mgrwt>
<rscale>  0 0.17610839E+04</rscale>
<asrwt>0</asrwt>
<pdfrwt beam="1">  1        2 0.11957811E+00 0.17610839E+04</pdfrwt>
<pdfrwt beam="2">  1       -2 0.13232817E+00 0.17610839E+04</pdfrwt>
<totfact> 0.14125859E+01</totfact>
</mgrwt>
</event>
<event>
 8    2  0.7237260E-052  0.1300719E+04  0.7818608E-02  0.9028995E-01
         -2   -1    0    0    0  501 -0.00000000000E+00  0.00000000000E+00  0.21464039638E+03  0.21464039640E+03  0.25500000000E-02 0. -1.
          2   -1    0    0  501    0  0.00000000000E+00 -0.00000000000E+00 -0.19705863595E+04  0.19705863595E+04  0.25500000000E-02 0.  1.
    -200001    2    1    2    0    0 -0.86637859451E+02  0.15331152161E+03 -0.66038296866E+03  0.91753680321E+03  0.61217446745E+03 0.  0.
   -5000001    2    3    3    0    0 -0.21177344783E+03  0.14384373681E+03 -0.70252637691E+03  0.75102667953E+03  0.70418387457E+02 0.  0.
     200001    1    1    2    0    0  0.86637859451E+02 -0.15331152161E+03 -0.10955629945E+04  0.12676899527E+04  0.61300000000E+03 0.  1.
         11    1    4    4    0    0 -0.15210612397E+03  0.75008022494E+02 -0.44560133275E+03  0.47678404350E+03  0.51100000000E-03 0.  1.
    -200002    1    4    4    0    0 -0.59667323856E+02  0.68835714313E+02 -0.25692504417E+03  0.27424263604E+03  0.30000000000E+02 0. -1.
    -200000    1    3    3    0    0  0.12513558838E+03  0.94677848006E+01  0.42143408252E+02  0.16651012367E+03  0.10100000000E+03 0. -1.
<mgrwt>
<rscale>  0 0.13007189E+04</rscale>
<asrwt>0</asrwt>
<pdfrwt beam="1">  1        2 0.28151233E+00 0.13007189E+04</pdfrwt>
<pdfrwt beam="2">  1       -2 0.30662915E-01 0.13007189E+04</pdfrwt>
<totfact> 0.80201786E+01</totfact>
</mgrwt>
</event>
<event>
 8    2  0.7237260E-052  0.1337006E+04  0.7818608E-02  0.9000723E-01
          2   -1    0    0  501    0  0.00000000000E+00  0.00000000000E+00  0.13189919727E+04  0.13189919727E+04  0.25500000000E-02 0.  1.
         -2   -1    0    0    0  501 -0.00000000000E+00 -0.00000000000E+00 -0.33881643424E+03  0.33881643425E+03  0.25500000000E-02 0. -1.
    -200001    2    1    2    0    0  0.82684885245E+01  0.11710235859E+03  0.78606007198E+03  0.10041791966E+04  0.61376224372E+03 0.  0.
   -5000001    2    3    3    0    0  0.28658227137E+03  0.13781419058E+03  0.44945166994E+03  0.55541003763E+03  0.73152969175E+02 0.  0.
     200001    1    1    2    0    0 -0.82684885245E+01 -0.11710235859E+03  0.19411546647E+03  0.65362921034E+03  0.61300000000E+03 0. -1.
         11    1    4    4    0    0  0.17138039907E+03  0.11101611233E+03  0.28741098606E+03  0.35256331813E+03  0.51100000000E-03 0.  1.
    -200002    1    4    4    0    0  0.11520187231E+03  0.26798078248E+02  0.16204068387E+03  0.20284671950E+03  0.30000000000E+02 0.  1.
    -200000    1    3    3    0    0 -0.27831378285E+03 -0.20711831987E+02  0.33660840204E+03  0.44876915896E+03  0.10100000000E+03 0.  1.
<mgrwt>
<rscale>  0 0.13370058E+04</rscale>
<asrwt>0</asrwt>
<pdfrwt beam="1">  1        2 0.18842743E+00 0.13370058E+04</pdfrwt>
<pdfrwt beam="2">  1       -2 0.48402347E-01 0.13370058E+04</pdfrwt>
<totfact> 0.72462087E+01</totfact>
</mgrwt>
</event>
<event>
 8    2  0.7237260E-052  0.1546268E+04  0.7818608E-02  0.8854255E-01
         -2   -1    0    0    0  501 -0.00000000000E+00  0.00000000000E+00  0.45838772280E+03  0.45838772280E+03  0.25500000000E-02 0. -1.
          2   -1    0    0  501    0  0.00000000000E+00 -0.00000000000E+00 -0.13039963914E+04  0.13039963914E+04  0.25500000000E-02 0.  1.
    -200001    2    1    2    0    0  0.11573109656E+03  0.20142759853E+03  0.37897658901E+02  0.66223903519E+03  0.61899720760E+03 0.  0.
   -5000001    2    3    3    0    0  0.33324122097E+03  0.23175839785E+03  0.21740787447E+02  0.41997336261E+03  0.10556181665E+03 0.  0.
     200001    1    1    2    0    0 -0.11573109656E+03 -0.20142759853E+03 -0.88350632753E+03  0.11001450790E+04  0.61300000000E+03 0.  1.
         11    1    4    4    0    0  0.19634660955E+03  0.96174234810E+02  0.46159199528E+02  0.22345502059E+03  0.51100000000E-03 0.  1.
    -200002    1    4    4    0    0  0.13689461142E+03  0.13558416304E+03 -0.24418412081E+02  0.19651834203E+03  0.30000000000E+02 0. -1.
    -200000    1    3    3    0    0 -0.21751012442E+03 -0.30330799325E+02  0.16156871454E+02  0.24226567257E+03  0.10100000000E+03 0.  1.
<mgrwt>
<rscale>  0 0.15462677E+04</rscale>
<asrwt>0</asrwt>
<pdfrwt beam="1">  1        2 0.18628520E+00 0.15462677E+04</pdfrwt>
<pdfrwt beam="2">  1       -2 0.65483961E-01 0.15462677E+04</pdfrwt>
<totfact> 0.38711632E+01</totfact>
</mgrwt>
</event>
<event>
 8    2  0.7237260E-052  0.3123048E+04  0.7818608E-02  0.8209441E-01
         -2   -1    0    0    0  501 -0.00000000000E+00  0.00000000000E+00  0.65458520479E+03  0.65458520480E+03  0.25500000000E-02 0. -1.
          2   -1    0    0  501    0  0.00000000000E+00 -0.00000000000E+00 -0.37250419819E+04  0.37250419819E+04  0.25500000000E-02 0.  1.
    -200001    2    1    2    0    0  0.58933431263E+03  0.11806479749E+03  0.29400400327E+03  0.90736285759E+03  0.61287419015E+03 0.  0.
   -5000001    2    3    3    0    0  0.19480700272E+02 -0.30452810360E+02  0.30083360374E+03  0.30983606924E+03  0.64735317435E+02 0.  0.
     200001    1    1    2    0    0 -0.58933431263E+03 -0.11806479749E+03 -0.33644607803E+04  0.34722643291E+04  0.61300000000E+03 0.  1.
         11    1    4    4    0    0  0.19150113582E+02  0.90576421276E+01  0.52827992838E+02  0.56917172792E+02  0.51100000000E-03 0.  1.
    -200002    1    4    4    0    0  0.33058668995E+00 -0.39510452487E+02  0.24800561090E+03  0.25291889645E+03  0.30000000000E+02 0.  1.
    -200000    1    3    3    0    0  0.56985361235E+03  0.14851760785E+03 -0.68296004646E+01  0.59752678835E+03  0.10100000000E+03 0. -1.
<mgrwt>
<rscale>  0 0.31230481E+04</rscale>
<asrwt>0</asrwt>
<pdfrwt beam="1">  1        2 0.53214884E+00 0.31230481E+04</pdfrwt>
<pdfrwt beam="2">  1       -2 0.93512174E-01 0.31230481E+04</pdfrwt>
<totfact> 0.71558907E-01</totfact>
</mgrwt>
</event>
<event>
 8    2  0.7237260E-052  0.1386010E+04  0.7818608E-02  0.8964008E-01
          2   -1    0    0  501    0  0.00000000000E+00  0.00000000000E+00  0.12731985113E+04  0.12731985113E+04  0.25500000000E-02 0.  1.
         -2   -1    0    0    0  501 -0.00000000000E+00 -0.00000000000E+00 -0.37720442761E+03  0.37720442761E+03  0.25500000000E-02 0. -1.
    -200001    2    1    2    0    0  0.20778672771E+03 -0.20612996797E+02  0.15424497331E+03  0.66574007142E+03  0.61304005664E+03 0.  0.
   -5000001    2    3    3    0    0  0.70154974427E+01 -0.24607638279E+03  0.10890034013E+03  0.34418142811E+03  0.21447323378E+03 0.  0.
     200001    1    1    2    0    0 -0.20778672771E+03  0.20612996797E+02  0.74174911035E+03  0.98466286746E+03  0.61300000000E+03 0.  1.
         11    1    4    4    0    0 -0.10075814595E+03 -0.10951808819E+03  0.64228870722E+02  0.16208566701E+03  0.51100000000E-03 0.  1.
    -200002    1    4    4    0    0  0.10777364339E+03 -0.13655829460E+03  0.44671469409E+02  0.18209576110E+03  0.30000000000E+02 0.  1.
    -200000    1    3    3    0    0  0.20077123027E+03  0.22546338599E+03  0.45344633175E+02  0.32155864330E+03  0.10100000000E+03 0. -1.
<mgrwt>
<rscale>  0 0.13860103E+04</rscale>
<asrwt>0</asrwt>
<pdfrwt beam="1">  1        2 0.18188550E+00 0.13860103E+04</pdfrwt>
<pdfrwt beam="2">  1       -2 0.53886346E-01 0.13860103E+04</pdfrwt>
<totfact> 0.61463938E+01</totfact>
</mgrwt>
</event>
<event>
 8    2  0.7237260E-052  0.1459280E+04  0.7818608E-02  0.8911992E-01
          2   -1    0    0  501    0  0.00000000000E+00  0.00000000000E+00  0.89390350065E+03  0.89390350066E+03  0.25500000000E-02 0.  1.
         -2   -1    0    0    0  501 -0.00000000000E+00 -0.00000000000E+00 -0.59556167175E+03  0.59556167176E+03  0.25500000000E-02 0. -1.
    -200001    2    1    2    0    0  0.33120279471E+03  0.12715519492E+03 -0.29489207747E+02  0.70901278860E+03  0.61316048976E+03 0.  0.
   -5000001    2    3    3    0    0  0.12195772500E+03 -0.68139411313E+02 -0.27485578224E+03  0.31871900399E+03  0.80743027041E+02 0.  0.
     200001    1    1    2    0    0 -0.33120279471E+03 -0.12715519492E+03  0.32783103665E+03  0.78045238382E+03  0.61300000000E+03 0.  1.
         11    1    4    4    0    0  0.28478094543E+02 -0.49154927484E+02 -0.65461877552E+02  0.86674484006E+02  0.51100000000E-03 0.  1.
    -200002    1    4    4    0    0  0.93479630456E+02 -0.18984483829E+02 -0.20939390469E+03  0.23204451999E+03  0.30000000000E+02 0.  1.
    -200000    1    3    3    0    0  0.20924506971E+03  0.19529460623E+03  0.24536657449E+03  0.39029378460E+03  0.10100000000E+03 0.  1.
<mgrwt>
<rscale>  0 0.14592802E+04</rscale>
<asrwt>0</asrwt>
<pdfrwt beam="1">  1        2 0.12770050E+00 0.14592802E+04</pdfrwt>
<pdfrwt beam="2">  1       -2 0.85080240E-01 0.14592802E+04</pdfrwt>
<totfact> 0.38317750E+01</totfact>
</mgrwt>
</event>
<event>
 8    2  0.7237260E-052  0.1316802E+04  0.7818608E-02  0.9016346E-01
          2   -1    0    0  501    0  0.00000000000E+00  0.00000000000E+00  0.62340308622E+03  0.62340308622E+03  0.25500000000E-02 0. -1.
         -2   -1    0    0    0  501 -0.00000000000E+00 -0.00000000000E+00 -0.69536398026E+03  0.69536398026E+03  0.25500000000E-02 0.  1.
    -200001    2    1    2    0    0 -0.10147659850E+03  0.11258600823E+03 -0.23583410180E+03  0.66638946301E+03  0.60455279633E+03 0.  0.
   -5000001    2    3    3    0    0 -0.67445042394E+02 -0.20398166152E+03  0.21312045298E+02  0.24484660955E+03  0.11549158822E+03 0.  0.
     200001    1    1    2    0    0  0.10147659850E+03 -0.11258600823E+03  0.16387320776E+03  0.65237760347E+03  0.61300000000E+03 0. -1.
         11    1    4    4    0    0 -0.38460752720E+02 -0.17351653854E+03  0.51472368663E+02  0.18503141188E+03  0.51100000000E-03 0.  1.
    -200002    1    4    4    0    0 -0.28984289673E+02 -0.30465122986E+02 -0.30160323365E+02  0.59815197667E+02  0.30000000000E+02 0. -1.
    -200000    1    3    3    0    0 -0.34031556102E+02  0.31656766975E+03 -0.25714614710E+03  0.42154285347E+03  0.10100000000E+03 0.  1.
<mgrwt>
<rscale>  0 0.13168023E+04</rscale>
<asrwt>0</asrwt>
<pdfrwt beam="1">  1        2 0.89057584E-01 0.13168023E+04</pdfrwt>
<pdfrwt beam="2">  1       -2 0.99337711E-01 0.13168023E+04</pdfrwt>
<totfact> 0.42653285E+01</totfact>
</mgrwt>
</event>
<event>
 8    2  0.7237260E-052  0.3738315E+04  0.7818608E-02  0.8059523E-01
         -2   -1    0    0    0  501 -0.00000000000E+00  0.00000000000E+00  0.21184974144E+04  0.21184974144E+04  0.25500000000E-02 0. -1.
          2   -1    0    0  501    0  0.00000000000E+00 -0.00000000000E+00 -0.16491641331E+04  0.16491641331E+04  0.25500000000E-02 0.  1.
    -200001    2    1    2    0    0  0.13696674652E+04  0.10623226483E+04 -0.10438346977E+03  0.18416713385E+04  0.61346477979E+03 0.  0.
   -5000001    2    3    3    0    0  0.84345870434E+03  0.34299079526E+03 -0.21098018064E+03  0.93840070711E+03  0.83773378379E+02 0.  0.
     200001    1    1    2    0    0 -0.13696674652E+04 -0.10623226483E+04  0.57371675111E+03  0.19259902089E+04  0.61300000000E+03 0. -1.
         11    1    4    4    0    0  0.39690501220E+03  0.20046985029E+03 -0.10018451969E+03  0.45580553701E+03  0.51100000000E-03 0.  1.
    -200002    1    4    4    0    0  0.44655369213E+03  0.14252094497E+03 -0.11079566095E+03  0.48259517009E+03  0.30000000000E+02 0.  1.
    -200000    1    3    3    0    0  0.52620876089E+03  0.71933185304E+03  0.10659671087E+03  0.90327063143E+03  0.10100000000E+03 0.  1.
<mgrwt>
<rscale>  0 0.37383151E+04</rscale>
<asrwt>0</asrwt>
<pdfrwt beam="1">  1        2 0.23559488E+00 0.37383151E+04</pdfrwt>
<pdfrwt beam="2">  1       -2 0.30264249E+00 0.37383151E+04</pdfrwt>
<totfact> 0.30383352E-01</totfact>
</mgrwt>
</event>
<event>
 8    2  0.7237260E-052  0.1438789E+04  0.7818608E-02  0.8926210E-01
         -2   -1    0    0    0  501 -0.00000000000E+00  0.00000000000E+00  0.33643413395E+03  0.33643413396E+03  0.25500000000E-02 0. -1.
          2   -1    0    0  501    0  0.00000000000E+00 -0.00000000000E+00 -0.15382764402E+04  0.15382764402E+04  0.25500000000E-02 0.  1.
    -200001    2    1    2    0    0 -0.23392606348E+02  0.36949147713E+03 -0.68910240567E+03  0.99394819342E+03  0.61318816035E+03 0.  0.
   -5000001    2    3    3    0    0  0.70990026970E+02 -0.14072696298E+03 -0.20108709599E+03  0.27451030132E+03  0.10038039310E+03 0.  0.
     200001    1    1    2    0    0  0.23392606348E+02 -0.36949147713E+03 -0.51273990057E+03  0.88076238074E+03  0.61300000000E+03 0. -1.
         11    1    4    4    0    0  0.22671970951E+02 -0.61433265404E+02 -0.15151316900E+03  0.16505848886E+03  0.51100000000E-03 0.  1.
    -200002    1    4    4    0    0  0.48318056019E+02 -0.79293697578E+02 -0.49573926988E+02  0.10945181246E+03  0.30000000000E+02 0.  1.
    -200000    1    3    3    0    0 -0.94382633318E+02  0.51021844011E+03 -0.48801530969E+03  0.71943789210E+03  0.10100000000E+03 0.  1.
<mgrwt>
<rscale>  0 0.14387894E+04</rscale>
<asrwt>0</asrwt>
<pdfrwt beam="1">  1        2 0.21975377E+00 0.14387894E+04</pdfrwt>
<pdfrwt beam="2">  1       -2 0.48062020E-01 0.14387894E+04</pdfrwt>
<totfact> 0.55577383E+01</totfact>
</mgrwt>
</event>
<event>
 8    2  0.7237260E-052  0.2127304E+04  0.7818608E-02  0.8549310E-01
          2   -1    0    0  501    0  0.00000000000E+00  0.00000000000E+00  0.66793805763E+03  0.66793805763E+03  0.25500000000E-02 0.  1.
         -2   -1    0    0    0  501 -0.00000000000E+00 -0.00000000000E+00 -0.16938030066E+04  0.16938030066E+04  0.25500000000E-02 0. -1.
    -200001    2    1    2    0    0 -0.28267140099E+03 -0.28996148500E+03  0.34034111791E+03  0.81052579842E+03  0.61411660916E+03 0.  0.
   -5000001    2    3    3    0    0  0.65081529225E+02 -0.33154138797E+03  0.25425458826E+03  0.43599558683E+03  0.10626127564E+03 0.  0.
     200001    1    1    2    0    0  0.28267140099E+03  0.28996148500E+03 -0.13662060669E+04  0.15512152658E+04  0.61300000000E+03 0. -1.
         11    1    4    4    0    0 -0.25048633800E+02 -0.37231092703E+02  0.34711251831E+02  0.56731466781E+02  0.51100000000E-03 0.  1.
    -200002    1    4    4    0    0  0.90130163025E+02 -0.29431029526E+03  0.21954333643E+03  0.37926412005E+03  0.30000000000E+02 0.  1.
    -200000    1    3    3    0    0 -0.34775293022E+03  0.41579902972E+02  0.86086529641E+02  0.37453021159E+03  0.10100000000E+03 0. -1.
<mgrwt>
<rscale>  0 0.21273039E+04</rscale>
<asrwt>0</asrwt>
<pdfrwt beam="1">  1        2 0.95419723E-01 0.21273039E+04</pdfrwt>
<pdfrwt beam="2">  1       -2 0.24197186E+00 0.21273039E+04</pdfrwt>
<totfact> 0.31688707E+00</totfact>
</mgrwt>
</event>
<event>
 8    2  0.7237260E-052  0.1429003E+04  0.7818608E-02  0.8933088E-01
         -2   -1    0    0    0  501 -0.00000000000E+00  0.00000000000E+00  0.47520701607E+03  0.47520701608E+03  0.25500000000E-02 0. -1.
          2   -1    0    0  501    0  0.00000000000E+00 -0.00000000000E+00 -0.10742950426E+04  0.10742950426E+04  0.25500000000E-02 0.  1.
    -200001    2    1    2    0    0  0.29769850268E+03  0.21077184325E+03 -0.24503604061E+03  0.75315353123E+03  0.61167672181E+03 0.  0.
   -5000001    2    3    3    0    0  0.20157101650E+03  0.64315379037E+02 -0.39472741528E+03  0.50156160537E+03  0.22580294270E+03 0.  0.
     200001    1    1    2    0    0 -0.29769850268E+03 -0.21077184325E+03 -0.35405198587E+03  0.79634852741E+03  0.61300000000E+03 0. -1.
         11    1    4    4    0    0  0.60308217933E+02  0.13536589072E+03 -0.17812868200E+03  0.23171282414E+03  0.51100000000E-03 0.  1.
    -200002    1    4    4    0    0  0.14126279856E+03 -0.71050511686E+02 -0.21659873329E+03  0.26984878123E+03  0.30000000000E+02 0.  1.
    -200000    1    3    3    0    0  0.96127486185E+02  0.14645646421E+03  0.14969137467E+03  0.25159192586E+03  0.10100000000E+03 0. -1.
<mgrwt>
<rscale>  0 0.14290032E+04</rscale>
<asrwt>0</asrwt>
<pdfrwt beam="1">  1        2 0.15347072E+00 0.14290032E+04</pdfrwt>
<pdfrwt beam="2">  1       -2 0.67886717E-01 0.14290032E+04</pdfrwt>
<totfact> 0.48928635E+01</totfact>
</mgrwt>
</event>
<event>
 8    2  0.7237260E-052  0.1826392E+04  0.7818608E-02  0.8692389E-01
          2   -1    0    0  501    0  0.00000000000E+00  0.00000000000E+00  0.26727824763E+04  0.26727824763E+04  0.25500000000E-02 0.  1.
         -2   -1    0    0    0  501 -0.00000000000E+00 -0.00000000000E+00 -0.31200718517E+03  0.31200718518E+03  0.25500000000E-02 0. -1.
    -200001    2    1    2    0    0 -0.14838036596E+03  0.21731718653E+03  0.21992502239E+04  0.22984203440E+04  0.61383307030E+03 0.  0.
   -5000001    2    3    3    0    0 -0.13338546502E+03  0.30231185238E+03  0.56228237699E+03  0.65607029854E+03  0.71292543657E+02 0.  0.
     200001    1    1    2    0    0  0.14838036596E+03 -0.21731718653E+03  0.16152506727E+03  0.68636931744E+03  0.61300000000E+03 0. -1.
         11    1    4    4    0    0 -0.67915259940E+00  0.44058463210E+01  0.35516425544E+02  0.35795100415E+02  0.51100000000E-03 0.  1.
    -200002    1    4    4    0    0 -0.13270631242E+03  0.29790600606E+03  0.52676595145E+03  0.62027519812E+03  0.30000000000E+02 0.  1.
    -200000    1    3    3    0    0 -0.14994900937E+02 -0.84994665849E+02  0.16369678469E+04  0.16423500455E+04  0.10100000000E+03 0. -1.
<mgrwt>
<rscale>  0 0.18263924E+04</rscale>
<asrwt>0</asrwt>
<pdfrwt beam="1">  1        2 0.38182608E+00 0.18263924E+04</pdfrwt>
<pdfrwt beam="2">  1       -2 0.44572453E-01 0.18263924E+04</pdfrwt>
<totfact> 0.16095831E+01</totfact>
</mgrwt>
</event>
<event>
 8    2  0.7237260E-052  0.1453266E+04  0.7818608E-02  0.8916139E-01
         -2   -1    0    0    0  501 -0.00000000000E+00  0.00000000000E+00  0.87755608495E+03  0.87755608495E+03  0.25500000000E-02 0. -1.
          2   -1    0    0  501    0  0.00000000000E+00 -0.00000000000E+00 -0.60166588340E+03  0.60166588340E+03  0.25500000000E-02 0.  1.
    -200001    2    1    2    0    0 -0.20192036598E+03 -0.33320237160E+03  0.14690852857E+03  0.74152221466E+03  0.61357756187E+03 0.  0.
   -5000001    2    3    3    0    0 -0.17479382907E+03 -0.32969323607E+03  0.34383881147E+03  0.51851840447E+03  0.10670377176E+03 0.  0.
     200001    1    1    2    0    0  0.20192036598E+03  0.33320237160E+03  0.12898167298E+03  0.73769975369E+03  0.61300000000E+03 0. -1.
         11    1    4    4    0    0 -0.66091405275E+02 -0.40150325625E+02  0.64894751721E+02  0.10095271814E+03  0.51100000000E-03 0.  1.
    -200002    1    4    4    0    0 -0.10870242379E+03 -0.28954291045E+03  0.27894405975E+03  0.41756568633E+03  0.30000000000E+02 0.  1.
    -200000    1    3    3    0    0 -0.27126536911E+02 -0.35091355249E+01 -0.19693028290E+03  0.22300381019E+03  0.10100000000E+03 0.  1.
<mgrwt>
<rscale>  0 0.14532661E+04</rscale>
<asrwt>0</asrwt>
<pdfrwt beam="1">  1        2 0.85952269E-01 0.14532661E+04</pdfrwt>
<pdfrwt beam="2">  1       -2 0.12536516E+00 0.14532661E+04</pdfrwt>
<totfact> 0.24998376E+01</totfact>
</mgrwt>
</event>
<event>
 8    2  0.7237260E-052  0.1268650E+04  0.7818608E-02  0.9054803E-01
          2   -1    0    0  501    0  0.00000000000E+00  0.00000000000E+00  0.99453438452E+03  0.99453438452E+03  0.25500000000E-02 0.  1.
         -2   -1    0    0    0  501 -0.00000000000E+00 -0.00000000000E+00 -0.40457919216E+03  0.40457919217E+03  0.25500000000E-02 0. -1.
    -200001    2    1    2    0    0 -0.10733106379E+03 -0.41133209400E+02  0.16870629173E+03  0.64649711763E+03  0.61342058334E+03 0.  0.
   -5000001    2    3    3    0    0  0.19587722059E+03  0.11372937010E+03  0.11456150614E+03  0.28726134540E+03  0.13450831461E+03 0.  0.
     200001    1    1    2    0    0  0.10733106379E+03  0.41133209400E+02  0.42124890063E+03  0.75261645906E+03  0.61300000000E+03 0. -1.
         11    1    4    4    0    0  0.87203926626E+02  0.32250356598E+01 -0.76808471583E+01  0.87600919443E+02  0.51100000000E-03 0.  1.
    -200002    1    4    4    0    0  0.10867329397E+03  0.11050433444E+03  0.12224235330E+03  0.19966042596E+03  0.30000000000E+02 0.  1.
    -200000    1    3    3    0    0 -0.30320828438E+03 -0.15486257950E+03  0.54144785581E+02  0.35923577223E+03  0.10100000000E+03 0. -1.
<mgrwt>
<rscale>  0 0.12686495E+04</rscale>
<asrwt>0</asrwt>
<pdfrwt beam="1">  1        2 0.14207634E+00 0.12686495E+04</pdfrwt>
<pdfrwt beam="2">  1       -2 0.57797028E-01 0.12686495E+04</pdfrwt>
<totfact> 0.77979413E+01</totfact>
</mgrwt>
</event>
<event>
 8    2  0.7237260E-052  0.1633969E+04  0.7818608E-02  0.8799947E-01
         -2   -1    0    0    0  501 -0.00000000000E+00  0.00000000000E+00  0.35314878813E+03  0.35314878814E+03  0.25500000000E-02 0. -1.
          2   -1    0    0  501    0  0.00000000000E+00 -0.00000000000E+00 -0.18900364417E+04  0.18900364417E+04  0.25500000000E-02 0.  1.
    -200001    2    1    2    0    0  0.10562377083E+03 -0.18729086521E+03 -0.88005355815E+02  0.65533663445E+03  0.61276986923E+03 0.  0.
   -5000001    2    3    3    0    0  0.18686601098E+03  0.16907737806E+03 -0.97851981525E+01  0.26814415070E+03  0.91101424914E+02 0.  0.
     200001    1    1    2    0    0 -0.10562377083E+03  0.18729086521E+03 -0.14488822978E+04  0.15878485954E+04  0.61300000000E+03 0.  1.
         11    1    4    4    0    0  0.12811253148E+03  0.10043883991E+03 -0.41147438745E+02  0.16791037192E+03  0.51100000000E-03 0.  1.
    -200002    1    4    4    0    0  0.58753479503E+02  0.68638538158E+02  0.31362240592E+02  0.10023377878E+03  0.30000000000E+02 0.  1.
    -200000    1    3    3    0    0 -0.81242240152E+02 -0.35636824328E+03 -0.78220157662E+02  0.38719248374E+03  0.10100000000E+03 0.  1.
<mgrwt>
<rscale>  0 0.16339695E+04</rscale>
<asrwt>0</asrwt>
<pdfrwt beam="1">  1        2 0.27000520E+00 0.16339695E+04</pdfrwt>
<pdfrwt beam="2">  1       -2 0.50449828E-01 0.16339695E+04</pdfrwt>
<totfact> 0.32554076E+01</totfact>
</mgrwt>
</event>
<event>
 8    2  0.7237260E-052  0.1255443E+04  0.7818608E-02  0.9065665E-01
         -2   -1    0    0    0  501 -0.00000000000E+00  0.00000000000E+00  0.31914626977E+03  0.31914626978E+03  0.25500000000E-02 0. -1.
          2   -1    0    0  501    0  0.00000000000E+00 -0.00000000000E+00 -0.12346512636E+04  0.12346512636E+04  0.25500000000E-02 0.  1.
    -200001    2    1    2    0    0 -0.69871827307E+02  0.26017176999E+02 -0.59475726900E+03  0.85794764388E+03  0.61382325213E+03 0.  0.
   -5000001    2    3    3    0    0  0.35783282084E+02 -0.26888403208E+03 -0.32977036811E+03  0.43539731209E+03  0.85107330519E+02 0.  0.
     200001    1    1    2    0    0  0.69871827307E+02 -0.26017176999E+02 -0.32074772485E+03  0.69584988952E+03  0.61300000000E+03 0. -1.
         11    1    4    4    0    0 -0.21281439170E+02 -0.40307342863E+02 -0.39206097636E+02  0.60122372158E+02  0.51100000000E-03 0.  1.
    -200002    1    4    4    0    0  0.57064721254E+02 -0.22857668921E+03 -0.29056427048E+03  0.37527493993E+03  0.30000000000E+02 0.  1.
    -200000    1    3    3    0    0 -0.10565510939E+03  0.29490120907E+03 -0.26498690088E+03  0.42255033179E+03  0.10100000000E+03 0. -1.
<mgrwt>
<rscale>  0 0.12554431E+04</rscale>
<asrwt>0</asrwt>
<pdfrwt beam="1">  1        2 0.17637875E+00 0.12554431E+04</pdfrwt>
<pdfrwt beam="2">  1       -2 0.45592325E-01 0.12554431E+04</pdfrwt>
<totfact> 0.91594702E+01</totfact>
</mgrwt>
</event>
<event>
 8    2  0.7237260E-052  0.1460087E+04  0.7818608E-02  0.8911437E-01
          2   -1    0    0  501    0  0.00000000000E+00  0.00000000000E+00  0.15094220937E+04  0.15094220937E+04  0.25500000000E-02 0.  1.
         -2   -1    0    0    0  501 -0.00000000000E+00 -0.00000000000E+00 -0.35309124403E+03  0.35309124404E+03  0.25500000000E-02 0. -1.
    -200001    2    1    2    0    0  0.33165808901E+02 -0.12649754820E+03  0.10570396100E+04  0.12279037326E+04  0.61099364882E+03 0.  0.
   -5000001    2    3    3    0    0  0.88066855717E+01 -0.14036925597E+03  0.11019397574E+04  0.11138738488E+04  0.81624974881E+02 0.  0.
     200001    1    1    2    0    0 -0.33165808901E+02  0.12649754820E+03  0.99291239610E+02  0.63460960507E+03  0.61300000000E+03 0. -1.
         11    1    4    4    0    0 -0.78058268023E+01 -0.99393670223E+02  0.51892361280E+03  0.52841437200E+03  0.51100000000E-03 0.  1.
    -200002    1    4    4    0    0  0.16612512374E+02 -0.40975585750E+02  0.58301614458E+03  0.58545947685E+03  0.30000000000E+02 0.  1.
    -200000    1    3    3    0    0  0.24359123329E+02  0.13871707769E+02 -0.44900147353E+02  0.11402988379E+03  0.10100000000E+03 0. -1.
<mgrwt>
<rscale>  0 0.14600873E+04</rscale>
<asrwt>0</asrwt>
<pdfrwt beam="1">  1        2 0.21563173E+00 0.14600873E+04</pdfrwt>
<pdfrwt beam="2">  1       -2 0.50441606E-01 0.14600873E+04</pdfrwt>
<totfact> 0.52103966E+01</totfact>
</mgrwt>
</event>
<event>
 8    2  0.7237260E-052  0.1533764E+04  0.7818608E-02  0.8862305E-01
          2   -1    0    0  501    0  0.00000000000E+00  0.00000000000E+00  0.65590257948E+03  0.65590257949E+03  0.25500000000E-02 0.  1.
         -2   -1    0    0    0  501 -0.00000000000E+00 -0.00000000000E+00 -0.89663968138E+03  0.89663968138E+03  0.25500000000E-02 0. -1.
    -200001    2    1    2    0    0 -0.13681344957E+03  0.33382980909E+03 -0.41088286977E+03  0.82118814435E+03  0.61267036352E+03 0.  0.
   -5000001    2    3    3    0    0 -0.34407891447E+03  0.30026444749E+03 -0.19152504942E+03  0.50118117601E+03  0.77147189352E+02 0.  0.
     200001    1    1    2    0    0  0.13681344957E+03 -0.33382980909E+03  0.17014576787E+03  0.73135411652E+03  0.61300000000E+03 0.  1.
         11    1    4    4    0    0 -0.12598166476E+03  0.12570993323E+03 -0.10754711464E+03  0.20794410075E+03  0.51100000000E-03 0.  1.
    -200002    1    4    4    0    0 -0.21809724971E+03  0.17455451425E+03 -0.83977934778E+02  0.29323707526E+03  0.30000000000E+02 0.  1.
    -200000    1    3    3    0    0  0.20726546490E+03  0.33565361608E+02 -0.21935782035E+03  0.32000696835E+03  0.10100000000E+03 0.  1.
<mgrwt>
<rscale>  0 0.15337644E+04</rscale>
<asrwt>0</asrwt>
<pdfrwt beam="1">  1        2 0.93700369E-01 0.15337644E+04</pdfrwt>
<pdfrwt beam="2">  1       -2 0.12809138E+00 0.15337644E+04</pdfrwt>
<totfact> 0.21222637E+01</totfact>
</mgrwt>
</event>
<event>
 8    2  0.7237260E-052  0.1437986E+04  0.7818608E-02  0.8926772E-01
         -2   -1    0    0    0  501 -0.00000000000E+00  0.00000000000E+00  0.28349984548E+03  0.28349984549E+03  0.25500000000E-02 0. -1.
          2   -1    0    0  501    0  0.00000000000E+00 -0.00000000000E+00 -0.18234604154E+04  0.18234604154E+04  0.25500000000E-02 0.  1.
    -200001    2    1    2    0    0 -0.11575505126E+03 -0.30088080436E+03 -0.10534429999E+04  0.12605579710E+04  0.61264651630E+03 0.  0.
   -5000001    2    3    3    0    0  0.14758459012E+03 -0.30692028480E+03 -0.81639058582E+03  0.89207582889E+03  0.11543146630E+03 0.  0.
     200001    1    1    2    0    0  0.11575505126E+03  0.30088080436E+03 -0.48651756996E+03  0.84640228981E+03  0.61300000000E+03 0. -1.
         11    1    4    4    0    0  0.10048347855E+03 -0.12900352324E+03 -0.28068680289E+03  0.32484445476E+03  0.51100000000E-03 0.  1.
    -200002    1    4    4    0    0  0.47101111570E+02 -0.17791676157E+03 -0.53570378293E+03  0.56723137414E+03  0.30000000000E+02 0.  1.
    -200000    1    3    3    0    0 -0.26333964139E+03  0.60394804465E+01 -0.23705241411E+03  0.36848214215E+03  0.10100000000E+03 0. -1.
<mgrwt>
<rscale>  0 0.14379857E+04</rscale>
<asrwt>0</asrwt>
<pdfrwt beam="1">  1        2 0.26049434E+00 0.14379857E+04</pdfrwt>
<pdfrwt beam="2">  1       -2 0.40499979E-01 0.14379857E+04</pdfrwt>
<totfact> 0.55493402E+01</totfact>
</mgrwt>
</event>
<event>
 8    2  0.7237260E-052  0.1286680E+04  0.7818608E-02  0.9040195E-01
         -2   -1    0    0    0  501 -0.00000000000E+00  0.00000000000E+00  0.44495443270E+03  0.44495443270E+03  0.25500000000E-02 0. -1.
          2   -1    0    0  501    0  0.00000000000E+00 -0.00000000000E+00 -0.93017682292E+03  0.93017682292E+03  0.25500000000E-02 0.  1.
    -200001    2    1    2    0    0 -0.16801051676E+03 -0.10158121893E+03 -0.26192486291E+03  0.69382584431E+03  0.61175435482E+03 0.  0.
   -5000001    2    3    3    0    0 -0.19270717153E+03 -0.32976044818E+03 -0.15005800377E+03  0.41925184775E+03  0.85887718591E+02 0.  0.
     200001    1    1    2    0    0  0.16801051676E+03  0.10158121893E+03 -0.22329752732E+03  0.68130541132E+03  0.61300000000E+03 0.  1.
         11    1    4    4    0    0 -0.13907309897E+03 -0.23014307518E+03 -0.71361196207E+02  0.27820780405E+03  0.51100000000E-03 0.  1.
    -200002    1    4    4    0    0 -0.53634072563E+02 -0.99617372996E+02 -0.78696807564E+02  0.14104404370E+03  0.30000000000E+02 0.  1.
    -200000    1    3    3    0    0  0.24696654771E+02  0.22817922924E+03 -0.11186685914E+03  0.27457399656E+03  0.10100000000E+03 0. -1.
<mgrwt>
<rscale>  0 0.12866799E+04</rscale>
<asrwt>0</asrwt>
<pdfrwt beam="1">  1        2 0.13288240E+00 0.12866799E+04</pdfrwt>
<pdfrwt beam="2">  1       -2 0.63564919E-01 0.12866799E+04</pdfrwt>
<totfact> 0.69921368E+01</totfact>
</mgrwt>
</event>
<event>
 8    2  0.7237260E-052  0.1744254E+04  0.7818608E-02  0.8736520E-01
          2   -1    0    0  501    0  0.00000000000E+00  0.00000000000E+00  0.13903080834E+04  0.13903080834E+04  0.25500000000E-02 0.  1.
         -2   -1    0    0    0  501 -0.00000000000E+00 -0.00000000000E+00 -0.54707687082E+03  0.54707687083E+03  0.25500000000E-02 0. -1.
    -200001    2    1    2    0    0 -0.44015444765E+03 -0.37309023902E+03  0.67375549509E+03  0.10786514199E+04  0.61368571292E+03 0.  0.
   -5000001    2    3    3    0    0 -0.50907957823E+03 -0.37189428043E+03  0.33466520789E+03  0.71818598907E+03  0.79516921094E+02 0.  0.
     200001    1    1    2    0    0  0.44015444765E+03  0.37309023902E+03  0.16947571752E+03  0.85873353438E+03  0.61300000000E+03 0. -1.
         11    1    4    4    0    0 -0.17579815383E+03 -0.10128929787E+03  0.79754336589E+02  0.21800290585E+03  0.51100000000E-03 0.  1.
    -200002    1    4    4    0    0 -0.33328142440E+03 -0.27060498255E+03  0.25491087130E+03  0.50018308322E+03  0.30000000000E+02 0.  1.
    -200000    1    3    3    0    0  0.68925130587E+02 -0.11959585934E+01  0.33909028720E+03  0.36046543082E+03  0.10100000000E+03 0. -1.
<mgrwt>
<rscale>  0 0.17442539E+04</rscale>
<asrwt>0</asrwt>
<pdfrwt beam="1">  1        2 0.19861544E+00 0.17442539E+04</pdfrwt>
<pdfrwt beam="2">  1       -2 0.78153838E-01 0.17442539E+04</pdfrwt>
<totfact> 0.23199888E+01</totfact>
</mgrwt>
</event>
<event>
 8    2  0.7237260E-052  0.1346868E+04  0.7818608E-02  0.8993202E-01
          2   -1    0    0  501    0  0.00000000000E+00  0.00000000000E+00  0.37283565501E+04  0.37283565501E+04  0.25500000000E-02 0.  1.
         -2   -1    0    0    0  501 -0.00000000000E+00 -0.00000000000E+00 -0.12163894081E+03  0.12163894084E+03  0.25500000000E-02 0. -1.
    -200001    2    1    2    0    0 -0.18653950884E+03  0.19967119213E+03  0.16486679919E+04  0.17801179880E+04  0.61322779627E+03 0.  0.
   -5000001    2    3    3    0    0 -0.58354091068E+02  0.92540962237E+02  0.15588835554E+04  0.15652444611E+04  0.88900249004E+02 0.  0.
     200001    1    1    2    0    0  0.18653950884E+03 -0.19967119213E+03  0.19580496174E+04  0.20698775030E+04  0.61300000000E+03 0.  1.
         11    1    4    4    0    0 -0.49377101026E+02  0.84228382168E+02  0.13800805930E+04  0.13835298919E+04  0.51100000000E-03 0.  1.
    -200002    1    4    4    0    0 -0.89769900426E+01  0.83125800690E+01  0.17880296234E+03  0.18171456925E+03  0.30000000000E+02 0. -1.
    -200000    1    3    3    0    0 -0.12818541777E+03  0.10713022990E+03  0.89784436580E+02  0.21487352685E+03  0.10100000000E+03 0. -1.
<mgrwt>
<rscale>  0 0.13468680E+04</rscale>
<asrwt>0</asrwt>
<pdfrwt beam="1">  1        2 0.53262234E+00 0.13468680E+04</pdfrwt>
<pdfrwt beam="2">  1       -2 0.17376992E-01 0.13468680E+04</pdfrwt>
<totfact> 0.23510209E+01</totfact>
</mgrwt>
</event>
<event>
 8    2  0.7237260E-052  0.2341762E+04  0.7818608E-02  0.8461635E-01
         -2   -1    0    0    0  501 -0.00000000000E+00  0.00000000000E+00  0.42318571278E+03  0.42318571279E+03  0.25500000000E-02 0.  1.
          2   -1    0    0  501    0  0.00000000000E+00 -0.00000000000E+00 -0.32396228001E+04  0.32396228001E+04  0.25500000000E-02 0. -1.
    -200001    2    1    2    0    0 -0.32802484896E+03  0.46495982066E+03 -0.26898248491E+04  0.28168844057E+04  0.61310039933E+03 0.  0.
   -5000001    2    3    3    0    0 -0.32395608947E+03  0.58749631336E+03 -0.21046635930E+04  0.22105458513E+04  0.82490332462E+02 0.  0.
     200001    1    1    2    0    0  0.32802484896E+03 -0.46495982066E+03 -0.12661223824E+03  0.84592410725E+03  0.61300000000E+03 0.  1.
         11    1    4    4    0    0 -0.17380548443E+03  0.27333065851E+03 -0.11083788844E+04  0.11547388219E+04  0.51100000000E-03 0.  1.
    -200002    1    4    4    0    0 -0.15015060504E+03  0.31416565484E+03 -0.99628470857E+03  0.10558070294E+04  0.30000000000E+02 0.  1.
    -200000    1    3    3    0    0 -0.40687594950E+01 -0.12253649270E+03 -0.58516125614E+03  0.60633855438E+03  0.10100000000E+03 0.  1.
<mgrwt>
<rscale>  0 0.23417618E+04</rscale>
<asrwt>0</asrwt>
<pdfrwt beam="1">  1        2 0.46280324E+00 0.23417618E+04</pdfrwt>
<pdfrwt beam="2">  1       -2 0.60455104E-01 0.23417618E+04</pdfrwt>
<totfact> 0.39820590E+00</totfact>
</mgrwt>
</event>
<event>
 8    2  0.7237260E-052  0.1508918E+04  0.7818608E-02  0.8878544E-01
          2   -1    0    0  501    0  0.00000000000E+00  0.00000000000E+00  0.18076180854E+04  0.18076180854E+04  0.25500000000E-02 0.  1.
         -2   -1    0    0    0  501 -0.00000000000E+00 -0.00000000000E+00 -0.31489404066E+03  0.31489404067E+03  0.25500000000E-02 0. -1.
    -200001    2    1    2    0    0  0.59671504528E+02  0.15196756643E+03  0.13209770672E+04  0.14653052682E+04  0.61276772710E+03 0.  0.
   -5000001    2    3    3    0    0 -0.29113800923E+02 -0.20745864350E+03  0.53905320095E+03  0.59428519760E+03  0.13678391887E+03 0.  0.
     200001    1    1    2    0    0 -0.59671504528E+02 -0.15196756643E+03  0.17174697756E+03  0.65720685785E+03  0.61300000000E+03 0. -1.
         11    1    4    4    0    0  0.16554558926E+02 -0.17538850194E+03  0.30925166155E+03  0.35590977818E+03  0.51100000000E-03 0.  1.
    -200002    1    4    4    0    0 -0.45668359849E+02 -0.32070141562E+02  0.22980153940E+03  0.23837541942E+03  0.30000000000E+02 0.  1.
    -200000    1    3    3    0    0  0.88785305451E+02  0.35942620993E+03  0.78192386621E+03  0.87102007061E+03  0.10100000000E+03 0.  1.
<mgrwt>
<rscale>  0 0.15089177E+04</rscale>
<asrwt>0</asrwt>
<pdfrwt beam="1">  1        2 0.25823115E+00 0.15089177E+04</pdfrwt>
<pdfrwt beam="2">  1       -2 0.44984863E-01 0.15089177E+04</pdfrwt>
<totfact> 0.45692648E+01</totfact>
</mgrwt>
</event>
<event>
 8    2  0.7237260E-052  0.1379210E+04  0.7818608E-02  0.8969007E-01
          2   -1    0    0  501    0  0.00000000000E+00  0.00000000000E+00  0.20567091030E+04  0.20567091030E+04  0.25500000000E-02 0.  1.
         -2   -1    0    0    0  501 -0.00000000000E+00 -0.00000000000E+00 -0.23122123741E+03  0.23122123742E+03  0.25500000000E-02 0. -1.
    -200001    2    1    2    0    0  0.18975039786E+03  0.25159693814E+03  0.91134054652E+03  0.11430545595E+04  0.61378001067E+03 0.  0.
   -5000001    2    3    3    0    0  0.23039388576E+03  0.20895373051E+03  0.96312787870E+03  0.10151746782E+04  0.78875296830E+02 0.  0.
     200001    1    1    2    0    0 -0.18975039786E+03 -0.25159693814E+03  0.91414731906E+03  0.11448757809E+04  0.61300000000E+03 0. -1.
         11    1    4    4    0    0 -0.54075778027E+01  0.76251015662E+01  0.30365972316E+02  0.31772257498E+02  0.51100000000E-03 0.  1.
    -200002    1    4    4    0    0  0.23580146356E+03  0.20132862894E+03  0.93276190638E+03  0.98340242071E+03  0.30000000000E+02 0.  1.
    -200000    1    3    3    0    0 -0.40643487905E+02  0.42643207632E+02 -0.51787332178E+02  0.12787988130E+03  0.10100000000E+03 0. -1.
<mgrwt>
<rscale>  0 0.13792097E+04</rscale>
<asrwt>0</asrwt>
<pdfrwt beam="1">  1        2 0.29381561E+00 0.13792097E+04</pdfrwt>
<pdfrwt beam="2">  1       -2 0.33031603E-01 0.13792097E+04</pdfrwt>
<totfact> 0.62612396E+01</totfact>
</mgrwt>
</event>
<event>
 8    2  0.7237260E-052  0.1394682E+04  0.7818608E-02  0.8957677E-01
          2   -1    0    0  501    0  0.00000000000E+00  0.00000000000E+00  0.15607743254E+04  0.15607743254E+04  0.25500000000E-02 0.  1.
         -2   -1    0    0    0  501 -0.00000000000E+00 -0.00000000000E+00 -0.31156622252E+03  0.31156622253E+03  0.25500000000E-02 0. -1.
    -200001    2    1    2    0    0 -0.24574000196E+03 -0.22061371804E+03  0.61380433225E+03  0.92970301797E+03  0.61525066613E+03 0.  0.
   -5000001    2    3    3    0    0 -0.58130821268E+02 -0.89106723797E+02 -0.97921073070E+02  0.17521952127E+03  0.98965365023E+02 0.  0.
     200001    1    1    2    0    0  0.24574000196E+03  0.22061371804E+03  0.63540377059E+03  0.94263752993E+03  0.61300000000E+03 0.  1.
         11    1    4    4    0    0 -0.45535402859E+02 -0.57838566908E+02 -0.10632236358E+03  0.12931828073E+03  0.51100000000E-03 0.  1.
    -200002    1    4    4    0    0 -0.12595418409E+02 -0.31268156888E+02  0.84012905060E+01  0.45901240531E+02  0.30000000000E+02 0. -1.
    -200000    1    3    3    0    0 -0.18760918069E+03 -0.13150699425E+03  0.71172540532E+03  0.75448349670E+03  0.10100000000E+03 0.  1.
<mgrwt>
<rscale>  0 0.13946821E+04</rscale>
<asrwt>0</asrwt>
<pdfrwt beam="1">  1        2 0.22296776E+00 0.13946821E+04</pdfrwt>
<pdfrwt beam="2">  1       -2 0.44509460E-01 0.13946821E+04</pdfrwt>
<totfact> 0.63295691E+01</totfact>
</mgrwt>
</event>
<event>
 8    2  0.7237260E-052  0.1660323E+04  0.7818608E-02  0.8784323E-01
          2   -1    0    0  501    0  0.00000000000E+00  0.00000000000E+00  0.13643579203E+04  0.13643579203E+04  0.25500000000E-02 0.  1.
         -2   -1    0    0    0  501 -0.00000000000E+00 -0.00000000000E+00 -0.50512254401E+03  0.50512254402E+03  0.25500000000E-02 0. -1.
    -200001    2    1    2    0    0  0.30298876592E+03 -0.40901295730E+03  0.18099654884E+03  0.82311977195E+03  0.62102545582E+03 0.  0.
   -5000001    2    3    3    0    0  0.13372473576E+03 -0.13796844890E+03  0.38022552402E+03  0.43323694085E+03  0.78773091555E+02 0.  0.
     200001    1    1    2    0    0 -0.30298876592E+03  0.40901295730E+03  0.67823882746E+03  0.10463606924E+04  0.61300000000E+03 0.  1.
         11    1    4    4    0    0  0.42435650592E+02 -0.16696508912E+02  0.45199495730E+02  0.64207104478E+02  0.51100000000E-03 0.  1.
    -200002    1    4    4    0    0  0.91289085172E+02 -0.12127193999E+03  0.33502602829E+03  0.36902983637E+03  0.30000000000E+02 0.  1.
    -200000    1    3    3    0    0  0.16926403016E+03 -0.27104450840E+03 -0.19922897518E+03  0.38988283110E+03  0.10100000000E+03 0. -1.
<mgrwt>
<rscale>  0 0.16603228E+04</rscale>
<asrwt>0</asrwt>
<pdfrwt beam="1">  1        2 0.19490827E+00 0.16603228E+04</pdfrwt>
<pdfrwt beam="2">  1       -2 0.72160366E-01 0.16603228E+04</pdfrwt>
<totfact> 0.28789278E+01</totfact>
</mgrwt>
</event>
<event>
 8    2  0.7237260E-052  0.1411426E+04  0.7818608E-02  0.8945589E-01
         -2   -1    0    0    0  501 -0.00000000000E+00  0.00000000000E+00  0.33552197969E+03  0.33552197970E+03  0.25500000000E-02 0. -1.
          2   -1    0    0  501    0  0.00000000000E+00 -0.00000000000E+00 -0.14843466751E+04  0.14843466751E+04  0.25500000000E-02 0.  1.
    -200001    2    1    2    0    0  0.30162327880E+03 -0.14291480617E+03 -0.46618009398E+03  0.84356240367E+03  0.61876684197E+03 0.  0.
   -5000001    2    3    3    0    0  0.17888332090E+03 -0.28462929784E+03 -0.46743269072E+03  0.63060545165E+03  0.25720971135E+03 0.  0.
     200001    1    1    2    0    0 -0.30162327880E+03  0.14291480617E+03 -0.68264460144E+03  0.97630625114E+03  0.61300000000E+03 0. -1.
         11    1    4    4    0    0  0.22182835119E+02 -0.88924065725E+02  0.82929109156E+01  0.92023583992E+02  0.51100000000E-03 0.  1.
    -200002    1    4    4    0    0  0.15670048578E+03 -0.19570523212E+03 -0.47572560163E+03  0.53858186766E+03  0.30000000000E+02 0.  1.
    -200000    1    3    3    0    0  0.12273995789E+03  0.14171449167E+03  0.12525967379E+01  0.21295695202E+03  0.10100000000E+03 0. -1.
<mgrwt>
<rscale>  0 0.14114261E+04</rscale>
<asrwt>0</asrwt>
<pdfrwt beam="1">  1        2 0.21204952E+00 0.14114261E+04</pdfrwt>
<pdfrwt beam="2">  1       -2 0.47931712E-01 0.14114261E+04</pdfrwt>
<totfact> 0.59813775E+01</totfact>
</mgrwt>
</event>
<event>
 8    2  0.7237260E-052  0.1581580E+04  0.7818608E-02  0.8831945E-01
         -2   -1    0    0    0  501 -0.00000000000E+00  0.00000000000E+00  0.19135007494E+03  0.19135007496E+03  0.25500000000E-02 0.  1.
          2   -1    0    0  501    0  0.00000000000E+00 -0.00000000000E+00 -0.32680876389E+04  0.32680876389E+04  0.25500000000E-02 0. -1.
    -200001    2    1    2    0    0 -0.38301416454E+03 -0.30102747781E+03 -0.13247224775E+04  0.15404162820E+04  0.61698888721E+03 0.  0.
   -5000001    2    3    3    0    0 -0.31792875252E+03 -0.56215481638E+02 -0.11911035632E+04  0.12367321722E+04  0.80869619190E+02 0.  0.
     200001    1    1    2    0    0  0.38301416454E+03  0.30102747781E+03 -0.17520150865E+04  0.19190214319E+04  0.61300000000E+03 0.  1.
         11    1    4    4    0    0 -0.13308581400E+03 -0.50656372755E+02 -0.43258634482E+03  0.45542161533E+03  0.51100000000E-03 0.  1.
    -200002    1    4    4    0    0 -0.18484293852E+03 -0.55591088828E+01 -0.75851721840E+03  0.78131055684E+03  0.30000000000E+02 0.  1.
    -200000    1    3    3    0    0 -0.65085412025E+02 -0.24481199617E+03 -0.13361891426E+03  0.30368410985E+03  0.10100000000E+03 0.  1.
<mgrwt>
<rscale>  0 0.15815800E+04</rscale>
<asrwt>0</asrwt>
<pdfrwt beam="1">  1        2 0.46686963E+00 0.15815800E+04</pdfrwt>
<pdfrwt beam="2">  1       -2 0.27335727E-01 0.15815800E+04</pdfrwt>
<totfact> 0.19529797E+01</totfact>
</mgrwt>
</event>
<event>
 8    2  0.7237260E-052  0.1247196E+04  0.7818608E-02  0.9072520E-01
          2   -1    0    0  501    0  0.00000000000E+00  0.00000000000E+00  0.17266211474E+04  0.17266211474E+04  0.25500000000E-02 0.  1.
         -2   -1    0    0    0  501 -0.00000000000E+00 -0.00000000000E+00 -0.22522282718E+03  0.22522282720E+03  0.25500000000E-02 0. -1.
    -200001    2    1    2    0    0 -0.27312263568E+02  0.89870979335E+02  0.84466566692E+03  0.10485779393E+04  0.61419284689E+03 0.  0.
   -5000001    2    3    3    0    0 -0.30290039450E+02  0.23723167952E+03  0.76731466154E+02  0.26013137810E+03  0.67707161454E+02 0.  0.
     200001    1    1    2    0    0  0.27312263568E+02 -0.89870979335E+02  0.65673265325E+03  0.90326603529E+03  0.61300000000E+03 0.  1.
         11    1    4    4    0    0 -0.12693888298E+02  0.11060816299E+02  0.16351078800E+02  0.23469858020E+02  0.51100000000E-03 0.  1.
    -200002    1    4    4    0    0 -0.17596151152E+02  0.22617086323E+03  0.60380387355E+02  0.23666152008E+03  0.30000000000E+02 0.  1.
    -200000    1    3    3    0    0  0.29777758819E+01 -0.14736070019E+03  0.76793420076E+03  0.78844656116E+03  0.10100000000E+03 0.  1.
<mgrwt>
<rscale>  0 0.12471960E+04</rscale>
<asrwt>0</asrwt>
<pdfrwt beam="1">  1        2 0.24666016E+00 0.12471960E+04</pdfrwt>
<pdfrwt beam="2">  1       -2 0.32174690E-01 0.12471960E+04</pdfrwt>
<totfact> 0.98229359E+01</totfact>
</mgrwt>
</event>
<event>
 8    2  0.7237260E-052  0.1486777E+04  0.7818608E-02  0.8893294E-01
          2   -1    0    0  501    0  0.00000000000E+00  0.00000000000E+00  0.20072299256E+04  0.20072299256E+04  0.25500000000E-02 0. -1.
         -2   -1    0    0    0  501 -0.00000000000E+00 -0.00000000000E+00 -0.27531810602E+03  0.27531810604E+03  0.25500000000E-02 0.  1.
    -200001    2    1    2    0    0  0.17953786038E+03 -0.32786963927E+03  0.56876876324E+03  0.91565260288E+03  0.61252709283E+03 0.  0.
   -5000001    2    3    3    0    0  0.32410950415E+03 -0.39175294889E+03  0.49752215517E+03  0.71500585710E+03  0.72025947782E+02 0.  0.
     200001    1    1    2    0    0 -0.17953786038E+03  0.32786963927E+03  0.11631430563E+04  0.13668954288E+04  0.61300000000E+03 0. -1.
         11    1    4    4    0    0  0.16266247446E+03 -0.15293018262E+03  0.20206537481E+03  0.30112644695E+03  0.51100000000E-03 0.  1.
    -200002    1    4    4    0    0  0.16144702968E+03 -0.23882276627E+03  0.29545678037E+03  0.41387941015E+03  0.30000000000E+02 0. -1.
    -200000    1    3    3    0    0 -0.14457164377E+03  0.63883309621E+02  0.71246608066E+02  0.20064674578E+03  0.10100000000E+03 0.  1.
<mgrwt>
<rscale>  0 0.14867774E+04</rscale>
<asrwt>0</asrwt>
<pdfrwt beam="1">  1        2 0.28674713E+00 0.14867774E+04</pdfrwt>
<pdfrwt beam="2">  1       -2 0.39331159E-01 0.14867774E+04</pdfrwt>
<totfact> 0.47090035E+01</totfact>
</mgrwt>
</event>
<event>
 8    2  0.7237260E-052  0.1327092E+04  0.7818608E-02  0.9008353E-01
         -2   -1    0    0    0  501 -0.00000000000E+00  0.00000000000E+00  0.17063761716E+03  0.17063761718E+03  0.25500000000E-02 0. -1.
          2   -1    0    0  501    0  0.00000000000E+00 -0.00000000000E+00 -0.25802808981E+04  0.25802808981E+04  0.25500000000E-02 0.  1.
    -200001    2    1    2    0    0 -0.21444568229E+03  0.83415796382E+02 -0.97540399334E+03  0.11742903157E+04  0.61204546359E+03 0.  0.
   -5000001    2    3    3    0    0 -0.50972823729E+02  0.21942082700E+03 -0.55154726614E+03  0.68944367081E+03  0.34696463847E+03 0.  0.
     200001    1    1    2    0    0  0.21444568229E+03 -0.83415796382E+02 -0.14342392876E+04  0.15766281997E+04  0.61300000000E+03 0.  1.
         11    1    4    4    0    0 -0.10172463719E+03  0.28692619498E+03 -0.50184115137E+03  0.58695748090E+03  0.51100000000E-03 0.  1.
    -200002    1    4    4    0    0  0.50751813462E+02 -0.67505367984E+02 -0.49706114778E+02  0.10248618991E+03  0.30000000000E+02 0.  1.
    -200000    1    3    3    0    0 -0.16347285856E+03 -0.13600503061E+03 -0.42385672720E+03  0.48484664486E+03  0.10100000000E+03 0. -1.
<mgrwt>
<rscale>  0 0.13270915E+04</rscale>
<asrwt>0</asrwt>
<pdfrwt beam="1">  1        2 0.36861153E+00 0.13270915E+04</pdfrwt>
<pdfrwt beam="2">  1       -2 0.24376804E-01 0.13270915E+04</pdfrwt>
<totfact> 0.58966881E+01</totfact>
</mgrwt>
</event>
<event>
 8    2  0.7237260E-052  0.1268650E+04  0.7818608E-02  0.9054802E-01
         -2   -1    0    0    0  501 -0.00000000000E+00  0.00000000000E+00  0.58709782724E+03  0.58709782724E+03  0.25500000000E-02 0. -1.
          2   -1    0    0  501    0  0.00000000000E+00 -0.00000000000E+00 -0.68535082231E+03  0.68535082232E+03  0.25500000000E-02 0.  1.
    -200001    2    1    2    0    0  0.10901207400E+03 -0.36372973587E+02 -0.17865883194E+03  0.64360787155E+03  0.60754052425E+03 0.  0.
   -5000001    2    3    3    0    0 -0.90242596074E+02 -0.25782160989E+03 -0.48011868956E+02  0.30300318719E+03  0.12202492866E+03 0.  0.
     200001    1    1    2    0    0 -0.10901207400E+03  0.36372973587E+02  0.80405836869E+02  0.62884077801E+03  0.61300000000E+03 0.  1.
         11    1    4    4    0    0  0.45744992871E+01 -0.64761642906E+02  0.30951975183E+02  0.71923717949E+02  0.51100000000E-03 0.  1.
    -200002    1    4    4    0    0 -0.94817095361E+02 -0.19305996699E+03 -0.78963844139E+02  0.23107946925E+03  0.30000000000E+02 0.  1.
    -200000    1    3    3    0    0  0.19925467007E+03  0.22144863631E+03 -0.13064696299E+03  0.34060468436E+03  0.10100000000E+03 0. -1.
<mgrwt>
<rscale>  0 0.12686496E+04</rscale>
<asrwt>0</asrwt>
<pdfrwt beam="1">  1        2 0.97907260E-01 0.12686496E+04</pdfrwt>
<pdfrwt beam="2">  1       -2 0.83871119E-01 0.12686496E+04</pdfrwt>
<totfact> 0.56455819E+01</totfact>
</mgrwt>
</event>
<event>
 8    2  0.7237260E-052  0.1436400E+04  0.7818608E-02  0.8927884E-01
          2   -1    0    0  501    0  0.00000000000E+00  0.00000000000E+00  0.13330568985E+04  0.13330568985E+04  0.25500000000E-02 0.  1.
         -2   -1    0    0    0  501 -0.00000000000E+00 -0.00000000000E+00 -0.38693860559E+03  0.38693860559E+03  0.25500000000E-02 0. -1.
    -200001    2    1    2    0    0 -0.21931828755E+02 -0.10303128288E+03  0.90140833025E+03  0.10964055498E+04  0.61520053752E+03 0.  0.
   -5000001    2    3    3    0    0  0.95686455857E+02 -0.24909658767E+03  0.82544382989E+03  0.87026236625E+03  0.69239165149E+02 0.  0.
     200001    1    1    2    0    0  0.21931828755E+02  0.10303128288E+03  0.44709962658E+02  0.62358995432E+03  0.61300000000E+03 0. -1.
         11    1    4    4    0    0  0.28852053541E+02 -0.92230912576E+02  0.38677333396E+03  0.39866350986E+03  0.51100000000E-03 0.  1.
    -200002    1    4    4    0    0  0.66834402316E+02 -0.15686567510E+03  0.43867049593E+03  0.47159885639E+03  0.30000000000E+02 0.  1.
    -200000    1    3    3    0    0 -0.11761828461E+03  0.14606530479E+03  0.75964500361E+02  0.22614318352E+03  0.10100000000E+03 0. -1.
<mgrwt>
<rscale>  0 0.14363999E+04</rscale>
<asrwt>0</asrwt>
<pdfrwt beam="1">  1        2 0.19043670E+00 0.14363999E+04</pdfrwt>
<pdfrwt beam="2">  1       -2 0.55276944E-01 0.14363999E+04</pdfrwt>
<totfact> 0.53819726E+01</totfact>
</mgrwt>
</event>
<event>
 8    2  0.7237260E-052  0.1405546E+04  0.7818608E-02  0.8949814E-01
          2   -1    0    0  501    0  0.00000000000E+00  0.00000000000E+00  0.30422375378E+03  0.30422375379E+03  0.25500000000E-02 0.  1.
         -2   -1    0    0    0  501 -0.00000000000E+00 -0.00000000000E+00 -0.16234423615E+04  0.16234423615E+04  0.25500000000E-02 0. -1.
    -200001    2    1    2    0    0 -0.25499261559E+03 -0.23003520468E+03 -0.66419073685E+03  0.96705800528E+03  0.61328168182E+03 0.  0.
   -5000001    2    3    3    0    0 -0.38393923820E+03 -0.61435474057E+02 -0.21065718596E+03  0.45622850100E+03  0.11217994041E+03 0.  0.
     200001    1    1    2    0    0  0.25499261559E+03  0.23003520468E+03 -0.65502787082E+03  0.96060810997E+03  0.61300000000E+03 0.  1.
         11    1    4    4    0    0 -0.27033482933E+03 -0.55003497189E+02 -0.19428336252E+03  0.33742010848E+03  0.51100000000E-03 0.  1.
    -200002    1    4    4    0    0 -0.11360440887E+03 -0.64319768678E+01 -0.16373823437E+02  0.11880839253E+03  0.30000000000E+02 0.  1.
    -200000    1    3    3    0    0  0.12894662261E+03 -0.16859973062E+03 -0.45353355090E+03  0.51082950427E+03  0.10100000000E+03 0. -1.
<mgrwt>
<rscale>  0 0.14055458E+04</rscale>
<asrwt>0</asrwt>
<pdfrwt beam="1">  1        2 0.43460537E-01 0.14055458E+04</pdfrwt>
<pdfrwt beam="2">  1       -2 0.23192033E+00 0.14055458E+04</pdfrwt>
<totfact> 0.95188175E+00</totfact>
</mgrwt>
</event>
<event>
 8    2  0.7237260E-052  0.2107627E+04  0.7818608E-02  0.8557891E-01
         -2   -1    0    0    0  501 -0.00000000000E+00  0.00000000000E+00  0.47262316133E+03  0.47262316134E+03  0.25500000000E-02 0. -1.
          2   -1    0    0  501    0  0.00000000000E+00 -0.00000000000E+00 -0.23497002542E+04  0.23497002542E+04  0.25500000000E-02 0.  1.
    -200001    2    1    2    0    0  0.57117665802E+03 -0.52172394783E+03 -0.14331285269E+04  0.17400582070E+04  0.61278588154E+03 0.  0.
   -5000001    2    3    3    0    0 -0.78497215123E+02  0.20995627026E+02 -0.10612351611E+03  0.16279349328E+03  0.92934878524E+02 0.  0.
     200001    1    1    2    0    0 -0.57117665802E+03  0.52172394783E+03 -0.44394856591E+03  0.10822652085E+04  0.61300000000E+03 0. -1.
         11    1    4    4    0    0  0.37863203369E+01 -0.21758987162E+02 -0.56082963205E+01  0.22786898251E+02  0.51100000000E-03 0.  1.
    -200002    1    4    4    0    0 -0.82283535460E+02  0.42754614188E+02 -0.10051521978E+03  0.14000659503E+03  0.30000000000E+02 0.  1.
    -200000    1    3    3    0    0  0.64967387314E+03 -0.54271957486E+03 -0.13270050108E+04  0.15772647137E+04  0.10100000000E+03 0.  1.
<mgrwt>
<rscale>  0 0.21076269E+04</rscale>
<asrwt>0</asrwt>
<pdfrwt beam="1">  1        2 0.33567146E+00 0.21076269E+04</pdfrwt>
<pdfrwt beam="2">  1       -2 0.67517596E-01 0.21076269E+04</pdfrwt>
<totfact> 0.98308698E+00</totfact>
</mgrwt>
</event>
<event>
 8    2  0.7237260E-052  0.1242340E+04  0.7818608E-02  0.9076583E-01
         -2   -1    0    0    0  501 -0.00000000000E+00  0.00000000000E+00  0.14083043954E+03  0.14083043957E+03  0.25500000000E-02 0. -1.
          2   -1    0    0  501    0  0.00000000000E+00 -0.00000000000E+00 -0.27398359233E+04  0.27398359233E+04  0.25500000000E-02 0.  1.
    -200001    2    1    2    0    0  0.62127253541E+02 -0.51140030643E+02 -0.14268978705E+04  0.15554945418E+04  0.61404449209E+03 0.  0.
   -5000001    2    3    3    0    0  0.41022125201E+02 -0.14862927816E+03 -0.51767113089E+02  0.17305641302E+03  0.59120309610E+02 0.  0.
     200001    1    1    2    0    0 -0.62127253541E+02  0.51140030643E+02 -0.11721076132E+04  0.13251718210E+04  0.61300000000E+03 0.  1.
         11    1    4    4    0    0  0.50506788850E+01 -0.85508979251E+02 -0.35863027227E+02  0.92862541489E+02  0.51100000000E-03 0.  1.
    -200002    1    4    4    0    0  0.35971446316E+02 -0.63120298911E+02 -0.15904085862E+02  0.80193871535E+02  0.30000000000E+02 0.  1.
    -200000    1    3    3    0    0  0.21105128339E+02  0.97489247518E+02 -0.13751307574E+04  0.13824381288E+04  0.10100000000E+03 0.  1.
<mgrwt>
<rscale>  0 0.12423402E+04</rscale>
<asrwt>0</asrwt>
<pdfrwt beam="1">  1        2 0.39140510E+00 0.12423402E+04</pdfrwt>
<pdfrwt beam="2">  1       -2 0.20118636E-01 0.12423402E+04</pdfrwt>
<totfact> 0.68770979E+01</totfact>
</mgrwt>
</event>
<event>
 8    2  0.7237260E-052  0.1977123E+04  0.7818608E-02  0.8617392E-01
         -2   -1    0    0    0  501 -0.00000000000E+00  0.00000000000E+00  0.14793534163E+04  0.14793534163E+04  0.25500000000E-02 0. -1.
          2   -1    0    0  501    0  0.00000000000E+00 -0.00000000000E+00 -0.66059504784E+03  0.66059504784E+03  0.25500000000E-02 0.  1.
    -200001    2    1    2    0    0  0.29872840448E+03  0.56802369008E+03 -0.61265479699E+02  0.89010825616E+03  0.61371791285E+03 0.  0.
   -5000001    2    3    3    0    0  0.15748921678E+03  0.19222497844E+03 -0.10698005848E+03  0.47361815721E+03  0.38873658201E+03 0.  0.
     200001    1    1    2    0    0 -0.29872840448E+03 -0.56802369008E+03  0.88002384811E+03  0.12498402079E+04  0.61300000000E+03 0. -1.
         11    1    4    4    0    0  0.25980627764E+03  0.41056112129E+02 -0.65188548315E+01  0.26311100645E+03  0.51100000000E-03 0.  1.
    -200002    1    4    4    0    0 -0.10231706086E+03  0.15116886631E+03 -0.10046120365E+03  0.21050715077E+03  0.30000000000E+02 0.  1.
    -200000    1    3    3    0    0  0.14123918770E+03  0.37579871163E+03  0.45714578779E+02  0.41649009895E+03  0.10100000000E+03 0.  1.
<mgrwt>
<rscale>  0 0.19771227E+04</rscale>
<asrwt>0</asrwt>
<pdfrwt beam="1">  1        2 0.94370722E-01 0.19771227E+04</pdfrwt>
<pdfrwt beam="2">  1       -2 0.21133620E+00 0.19771227E+04</pdfrwt>
<totfact> 0.50644202E+00</totfact>
</mgrwt>
</event>
<event>
 8    2  0.7237260E-052  0.2025743E+04  0.7818608E-02  0.8594679E-01
         -2   -1    0    0    0  501 -0.00000000000E+00  0.00000000000E+00  0.53609827385E+03  0.53609827385E+03  0.25500000000E-02 0. -1.
          2   -1    0    0  501    0  0.00000000000E+00 -0.00000000000E+00 -0.19136578701E+04  0.19136578701E+04  0.25500000000E-02 0.  1.
    -200001    2    1    2    0    0  0.78918950962E+02 -0.49094672905E+03  0.78266645791E+02  0.79371993100E+03  0.61368458465E+03 0.  0.
   -5000001    2    3    3    0    0 -0.10450598050E+03 -0.34053258752E+03  0.28026825377E+03  0.46619165882E+03  0.10908907167E+03 0.  0.
     200001    1    1    2    0    0 -0.78918950962E+02  0.49094672905E+03 -0.14558262420E+04  0.16560362130E+04  0.61300000000E+03 0.  1.
         11    1    4    4    0    0 -0.61802109090E+02 -0.27428647795E+03  0.17447871903E+03  0.33090088557E+03  0.51100000000E-03 0.  1.
    -200002    1    4    4    0    0 -0.42703871409E+02 -0.66246109569E+02  0.10578953474E+03  0.13529077325E+03  0.30000000000E+02 0.  1.
    -200000    1    3    3    0    0  0.18342493146E+03 -0.15041414153E+03 -0.20200160798E+03  0.32752827218E+03  0.10100000000E+03 0. -1.
<mgrwt>
<rscale>  0 0.20257430E+04</rscale>
<asrwt>0</asrwt>
<pdfrwt beam="1">  1        2 0.27337969E+00 0.20257430E+04</pdfrwt>
<pdfrwt beam="2">  1       -2 0.76585469E-01 0.20257430E+04</pdfrwt>
<totfact> 0.12610863E+01</totfact>
</mgrwt>
</event>
<event>
 8    2  0.7237260E-052  0.1512032E+04  0.7818608E-02  0.8876491E-01
         -2   -1    0    0    0  501 -0.00000000000E+00  0.00000000000E+00  0.13941438418E+04  0.13941438418E+04  0.25500000000E-02 0. -1.
          2   -1    0    0  501    0  0.00000000000E+00 -0.00000000000E+00 -0.40997196731E+03  0.40997196731E+03  0.25500000000E-02 0.  1.
    -200001    2    1    2    0    0 -0.39060821418E+03  0.16759177286E+03  0.63946150662E+03  0.98237618060E+03  0.61277252097E+03 0.  0.
   -5000001    2    3    3    0    0 -0.35143070787E+03  0.30069072465E+03  0.65959799298E+03  0.80958530685E+03  0.80252117734E+02 0.  0.
     200001    1    1    2    0    0  0.39060821418E+03 -0.16759177286E+03  0.34471036785E+03  0.82173962848E+03  0.61300000000E+03 0.  1.
         11    1    4    4    0    0 -0.12273956939E+03  0.15034485178E+03  0.27597831413E+03  0.33739088046E+03  0.51100000000E-03 0.  1.
    -200002    1    4    4    0    0 -0.22869113848E+03  0.15034587286E+03  0.38361967886E+03  0.47219442639E+03  0.30000000000E+02 0.  1.
    -200000    1    3    3    0    0 -0.39177506319E+02 -0.13309895179E+03 -0.20136486368E+02  0.17279087375E+03  0.10100000000E+03 0.  1.
<mgrwt>
<rscale>  0 0.15120316E+04</rscale>
<asrwt>0</asrwt>
<pdfrwt beam="1">  1        2 0.58567424E-01 0.15120316E+04</pdfrwt>
<pdfrwt beam="2">  1       -2 0.19916340E+00 0.15120316E+04</pdfrwt>
<totfact> 0.10949106E+01</totfact>
</mgrwt>
</event>
<event>
 8    2  0.7237260E-052  0.1683607E+04  0.7818608E-02  0.8770769E-01
         -2   -1    0    0    0  501 -0.00000000000E+00  0.00000000000E+00  0.26161384605E+03  0.26161384606E+03  0.25500000000E-02 0.  1.
          2   -1    0    0  501    0  0.00000000000E+00 -0.00000000000E+00 -0.27086991138E+04  0.27086991138E+04  0.25500000000E-02 0. -1.
    -200001    2    1    2    0    0  0.19471419631E+03  0.53964586922E+03 -0.13320287975E+04  0.15745152617E+04  0.61291623364E+03 0.  0.
   -5000001    2    3    3    0    0  0.14727986217E+03  0.52982232530E+03 -0.53879925855E+03  0.77341563021E+03  0.73919157511E+02 0.  0.
     200001    1    1    2    0    0 -0.19471419631E+03 -0.53964586922E+03 -0.11150564702E+04  0.13957976982E+04  0.61300000000E+03 0. -1.
         11    1    4    4    0    0  0.85211439925E+02  0.19918389138E+03 -0.19522660732E+03  0.29163100021E+03  0.51100000000E-03 0.  1.
    -200002    1    4    4    0    0  0.62068422245E+02  0.33063843393E+03 -0.34357265123E+03  0.48178463000E+03  0.30000000000E+02 0.  1.
    -200000    1    3    3    0    0  0.47434334139E+02  0.98235439166E+01 -0.79322953894E+03  0.80109963146E+03  0.10100000000E+03 0. -1.
<mgrwt>
<rscale>  0 0.16836071E+04</rscale>
<asrwt>0</asrwt>
<pdfrwt beam="1">  1        2 0.38695700E+00 0.16836071E+04</pdfrwt>
<pdfrwt beam="2">  1       -2 0.37373408E-01 0.16836071E+04</pdfrwt>
<totfact> 0.22022758E+01</totfact>
</mgrwt>
</event>
<event>
 8    2  0.7237260E-052  0.1292073E+04  0.7818608E-02  0.9035875E-01
         -2   -1    0    0    0  501 -0.00000000000E+00  0.00000000000E+00  0.76069072574E+03  0.76069072574E+03  0.25500000000E-02 0. -1.
          2   -1    0    0  501    0  0.00000000000E+00 -0.00000000000E+00 -0.54866302587E+03  0.54866302588E+03  0.25500000000E-02 0.  1.
    -200001    2    1    2    0    0 -0.11712858197E+03  0.10819596058E+03 -0.21492363997E+02  0.63427887368E+03  0.61353263750E+03 0.  0.
   -5000001    2    3    3    0    0 -0.16109372747E+02  0.36389422246E+02  0.26973387144E+03  0.30205187329E+03  0.12998180954E+03 0.  0.
     200001    1    1    2    0    0  0.11712858197E+03 -0.10819596058E+03  0.23352006387E+03  0.67507487794E+03  0.61300000000E+03 0.  1.
         11    1    4    4    0    0 -0.56973052321E+02 -0.51718170576E+00  0.20141711764E+03  0.20932045157E+03  0.51100000000E-03 0.  1.
    -200002    1    4    4    0    0  0.40863679573E+02  0.36906603952E+02  0.68316753805E+02  0.92731421719E+02  0.30000000000E+02 0.  1.
    -200000    1    3    3    0    0 -0.10101920922E+03  0.71806538332E+02 -0.29122623544E+03  0.33222700039E+03  0.10100000000E+03 0.  1.
<mgrwt>
<rscale>  0 0.12920726E+04</rscale>
<asrwt>0</asrwt>
<pdfrwt beam="1">  1        2 0.78380432E-01 0.12920726E+04</pdfrwt>
<pdfrwt beam="2">  1       -2 0.10867010E+00 0.12920726E+04</pdfrwt>
<totfact> 0.40065883E+01</totfact>
</mgrwt>
</event>
<event>
 8    2  0.7237260E-052  0.1638102E+04  0.7818608E-02  0.8797476E-01
         -2   -1    0    0    0  501 -0.00000000000E+00  0.00000000000E+00  0.35409786495E+03  0.35409786496E+03  0.25500000000E-02 0. -1.
          2   -1    0    0  501    0  0.00000000000E+00 -0.00000000000E+00 -0.18945176732E+04  0.18945176732E+04  0.25500000000E-02 0.  1.
    -200001    2    1    2    0    0 -0.29305379744E+03 -0.14605338939E+03 -0.17479791632E+03  0.71632826991E+03  0.61266610643E+03 0.  0.
   -5000001    2    3    3    0    0 -0.58128347249E+02 -0.34709169131E+03 -0.19082848697E+02  0.35569750545E+03  0.48010554488E+02 0.  0.
     200001    1    1    2    0    0  0.29305379744E+03  0.14605338939E+03 -0.13656218919E+04  0.15322872682E+04  0.61300000000E+03 0.  1.
         11    1    4    4    0    0 -0.22503762389E+02 -0.18998326380E+03 -0.11431910117E+02  0.19165267652E+03  0.51100000000E-03 0.  1.
    -200002    1    4    4    0    0 -0.35624584861E+02 -0.15710842750E+03 -0.76509385808E+01  0.16404482893E+03  0.30000000000E+02 0. -1.
    -200000    1    3    3    0    0 -0.23492545019E+03  0.20103830192E+03 -0.15571506763E+03  0.36063076446E+03  0.10100000000E+03 0.  1.
<mgrwt>
<rscale>  0 0.16381021E+04</rscale>
<asrwt>0</asrwt>
<pdfrwt beam="1">  1        2 0.27064538E+00 0.16381021E+04</pdfrwt>
<pdfrwt beam="2">  1       -2 0.50585410E-01 0.16381021E+04</pdfrwt>
<totfact> 0.32194113E+01</totfact>
</mgrwt>
</event>
<event>
 8    2  0.7237260E-052  0.1383920E+04  0.7818608E-02  0.8965541E-01
          2   -1    0    0  501    0  0.00000000000E+00  0.00000000000E+00  0.83502590660E+03  0.83502590660E+03  0.25500000000E-02 0.  1.
         -2   -1    0    0    0  501 -0.00000000000E+00 -0.00000000000E+00 -0.57340572023E+03  0.57340572023E+03  0.25500000000E-02 0. -1.
    -200001    2    1    2    0    0 -0.18227802778E+03 -0.26146881542E+03  0.16169924930E+03  0.71033105062E+03  0.61386670654E+03 0.  0.
   -5000001    2    3    3    0    0 -0.21216102998E+03 -0.41126324582E+03  0.86437574224E+01  0.47167156769E+03  0.90827271337E+02 0.  0.
     200001    1    1    2    0    0  0.18227802778E+03  0.26146881542E+03  0.99920937072E+02  0.69810057622E+03  0.61300000000E+03 0. -1.
         11    1    4    4    0    0 -0.51262358522E+02 -0.51203466874E+02 -0.19874319865E+02  0.75130639632E+02  0.51100000000E-03 0.  1.
    -200002    1    4    4    0    0 -0.16089867146E+03 -0.36005977894E+03  0.28518077287E+02  0.39654092805E+03  0.30000000000E+02 0.  1.
    -200000    1    3    3    0    0  0.29883002199E+02  0.14979443040E+03  0.15305549188E+03  0.23865948293E+03  0.10100000000E+03 0.  1.
<mgrwt>
<rscale>  0 0.13839200E+04</rscale>
<asrwt>0</asrwt>
<pdfrwt beam="1">  1        2 0.11928941E+00 0.13839200E+04</pdfrwt>
<pdfrwt beam="2">  1       -2 0.81915103E-01 0.13839200E+04</pdfrwt>
<totfact> 0.45978922E+01</totfact>
</mgrwt>
</event>
<event>
 8    2  0.7237260E-052  0.1449841E+04  0.7818608E-02  0.8918511E-01
          2   -1    0    0  501    0  0.00000000000E+00  0.00000000000E+00  0.17514546564E+04  0.17514546564E+04  0.25500000000E-02 0.  1.
         -2   -1    0    0    0  501 -0.00000000000E+00 -0.00000000000E+00 -0.30004168389E+03  0.30004168390E+03  0.25500000000E-02 0. -1.
    -200001    2    1    2    0    0 -0.31558802536E+02 -0.20192215716E+03  0.26672762097E+03  0.70204574925E+03  0.61640578735E+03 0.  0.
   -5000001    2    3    3    0    0 -0.67295667434E+01  0.15758618668E+03  0.26752902672E+03  0.32779398573E+03  0.10487336955E+03 0.  0.
     200001    1    1    2    0    0  0.31558802536E+02  0.20192215716E+03  0.11846853515E+04  0.13494505911E+04  0.61300000000E+03 0.  1.
         11    1    4    4    0    0 -0.45269033374E+02  0.47996021985E+02  0.12619302997E+03  0.14239938315E+03  0.51100000000E-03 0.  1.
    -200002    1    4    4    0    0  0.38539466631E+02  0.10959016470E+03  0.14133599675E+03  0.18539460257E+03  0.30000000000E+02 0.  1.
    -200000    1    3    3    0    0 -0.24829235793E+02 -0.35950834385E+03 -0.80140574475E+00  0.37425176352E+03  0.10100000000E+03 0. -1.
<mgrwt>
<rscale>  0 0.14498405E+04</rscale>
<asrwt>0</asrwt>
<pdfrwt beam="1">  1        2 0.25020782E+00 0.14498405E+04</pdfrwt>
<pdfrwt beam="2">  1       -2 0.42863096E-01 0.14498405E+04</pdfrwt>
<totfact> 0.54020870E+01</totfact>
</mgrwt>
</event>
<event>
 8    2  0.7237260E-052  0.1597370E+04  0.7818608E-02  0.8822166E-01
          2   -1    0    0  501    0  0.00000000000E+00  0.00000000000E+00  0.27928412701E+04  0.27928412701E+04  0.25500000000E-02 0. -1.
         -2   -1    0    0    0  501 -0.00000000000E+00 -0.00000000000E+00 -0.22840444965E+03  0.22840444967E+03  0.25500000000E-02 0.  1.
    -200001    2    1    2    0    0 -0.40095407639E+03 -0.24187297174E+03  0.16725518625E+04  0.18420534182E+04  0.61356691321E+03 0.  0.
   -5000001    2    3    3    0    0  0.12458838071E+03  0.44223958186E+02  0.46471424175E+03  0.49034374317E+03  0.83663832627E+02 0.  0.
     200001    1    1    2    0    0  0.40095407639E+03  0.24187297174E+03  0.89188495796E+03  0.11791923016E+04  0.61300000000E+03 0. -1.
         11    1    4    4    0    0 -0.62163555058E+01 -0.79299625066E+00  0.21804307426E+01  0.66352239836E+01  0.51100000000E-03 0.  1.
    -200002    1    4    4    0    0  0.13080473622E+03  0.45016954436E+02  0.46253381101E+03  0.48370851919E+03  0.30000000000E+02 0.  1.
    -200000    1    3    3    0    0 -0.52554245711E+03 -0.28609692992E+03  0.12078376208E+04  0.13517096751E+04  0.10100000000E+03 0.  1.
<mgrwt>
<rscale>  0 0.15973696E+04</rscale>
<asrwt>0</asrwt>
<pdfrwt beam="1">  1        2 0.39897731E+00 0.15973696E+04</pdfrwt>
<pdfrwt beam="2">  1       -2 0.32629209E-01 0.15973696E+04</pdfrwt>
<totfact> 0.25898172E+01</totfact>
</mgrwt>
</event>
<event>
 8    2  0.7237260E-052  0.1301875E+04  0.7818608E-02  0.9028080E-01
          2   -1    0    0  501    0  0.00000000000E+00  0.00000000000E+00  0.11635486957E+04  0.11635486957E+04  0.25500000000E-02 0.  1.
         -2   -1    0    0    0  501 -0.00000000000E+00 -0.00000000000E+00 -0.36416121225E+03  0.36416121226E+03  0.25500000000E-02 0. -1.
    -200001    2    1    2    0    0 -0.53949669920E+02  0.31545650102E+01  0.64781453331E+03  0.89394033041E+03  0.61363272942E+03 0.  0.
   -5000001    2    3    3    0    0 -0.22941396934E+03 -0.89675592432E+02  0.61767131361E+03  0.66918541457E+03  0.74958563241E+02 0.  0.
     200001    1    1    2    0    0  0.53949669920E+02 -0.31545650102E+01  0.15157295010E+03  0.63376957750E+03  0.61300000000E+03 0. -1.
         11    1    4    4    0    0 -0.82749719932E+02 -0.28119828776E+02  0.30260693838E+03  0.31497491976E+03  0.51100000000E-03 0.  1.
    -200002    1    4    4    0    0 -0.14666424941E+03 -0.61555763655E+02  0.31506437523E+03  0.35421049481E+03  0.30000000000E+02 0.  1.
    -200000    1    3    3    0    0  0.17546429942E+03  0.92830157442E+02  0.30143219692E+02  0.22475491584E+03  0.10100000000E+03 0. -1.
<mgrwt>
<rscale>  0 0.13018745E+04</rscale>
<asrwt>0</asrwt>
<pdfrwt beam="1">  1        2 0.16622125E+00 0.13018745E+04</pdfrwt>
<pdfrwt beam="2">  1       -2 0.52023029E-01 0.13018745E+04</pdfrwt>
<totfact> 0.76717100E+01</totfact>
</mgrwt>
</event>
<event>
 8    2  0.7237260E-052  0.1295885E+04  0.7818608E-02  0.9032835E-01
          2   -1    0    0  501    0  0.00000000000E+00  0.00000000000E+00  0.67255225812E+03  0.67255225812E+03  0.25500000000E-02 0.  1.
         -2   -1    0    0    0  501 -0.00000000000E+00 -0.00000000000E+00 -0.62423316347E+03  0.62423316347E+03  0.25500000000E-02 0. -1.
    -200001    2    1    2    0    0  0.12957398829E+03 -0.84306739066E+01 -0.14014304641E+03  0.64245563218E+03  0.61339112413E+03 0.  0.
   -5000001    2    3    3    0    0 -0.11508882326E+03  0.19268934673E+03 -0.19278797967E+03  0.30588224783E+03  0.77602337900E+02 0.  0.
     200001    1    1    2    0    0 -0.12957398829E+03  0.84306739066E+01  0.18846214106E+03  0.65432978942E+03  0.61300000000E+03 0.  1.
         11    1    4    4    0    0 -0.50881104289E+02  0.10846495591E+03 -0.61869472225E+02  0.13483829214E+03  0.51100000000E-03 0.  1.
    -200002    1    4    4    0    0 -0.64207718972E+02  0.84224390820E+02 -0.13091850744E+03  0.17104395568E+03  0.30000000000E+02 0.  1.
    -200000    1    3    3    0    0  0.24466281155E+03 -0.20112002064E+03  0.52644933260E+02  0.33657338435E+03  0.10100000000E+03 0. -1.
<mgrwt>
<rscale>  0 0.12958849E+04</rscale>
<asrwt>0</asrwt>
<pdfrwt beam="1">  1        2 0.96078894E-01 0.12958849E+04</pdfrwt>
<pdfrwt beam="2">  1       -2 0.89176166E-01 0.12958849E+04</pdfrwt>
<totfact> 0.50122161E+01</totfact>
</mgrwt>
</event>
<event>
 8    2  0.7237260E-052  0.1297452E+04  0.7818608E-02  0.9031588E-01
          2   -1    0    0  501    0  0.00000000000E+00  0.00000000000E+00  0.18336418523E+04  0.18336418523E+04  0.25500000000E-02 0.  1.
         -2   -1    0    0    0  501 -0.00000000000E+00 -0.00000000000E+00 -0.22951330999E+03  0.22951331000E+03  0.25500000000E-02 0. -1.
    -200001    2    1    2    0    0  0.20524030607E+03 -0.56451897403E+02  0.78549803939E+03  0.10185330774E+04  0.61244759768E+03 0.  0.
   -5000001    2    3    3    0    0 -0.15763799155E+03 -0.17727556518E+03  0.30297923612E+03  0.39459044134E+03  0.87343210873E+02 0.  0.
     200001    1    1    2    0    0 -0.20524030607E+03  0.56451897403E+02  0.81863050287E+03  0.10446220849E+04  0.61300000000E+03 0. -1.
         11    1    4    4    0    0 -0.10882023472E+03 -0.13090065384E+03  0.25513876403E+03  0.30671259115E+03  0.51100000000E-03 0.  1.
    -200002    1    4    4    0    0 -0.48817756823E+02 -0.46374911346E+02  0.47840472091E+02  0.87877850187E+02  0.30000000000E+02 0.  1.
    -200000    1    3    3    0    0  0.36287829762E+03  0.12082366778E+03  0.48251880327E+03  0.62394263606E+03  0.10100000000E+03 0.  1.
<mgrwt>
<rscale>  0 0.12974517E+04</rscale>
<asrwt>0</asrwt>
<pdfrwt beam="1">  1        2 0.26194886E+00 0.12974517E+04</pdfrwt>
<pdfrwt beam="2">  1       -2 0.32787613E-01 0.12974517E+04</pdfrwt>
<totfact> 0.83170945E+01</totfact>
</mgrwt>
</event>
<event>
 8    2  0.7237260E-052  0.1482240E+04  0.7818608E-02  0.8896350E-01
         -2   -1    0    0    0  501 -0.00000000000E+00  0.00000000000E+00  0.27304185361E+03  0.27304185362E+03  0.25500000000E-02 0.  1.
          2   -1    0    0  501    0  0.00000000000E+00 -0.00000000000E+00 -0.20116276233E+04  0.20116276233E+04  0.25500000000E-02 0. -1.
    -200001    2    1    2    0    0  0.24122776306E+03 -0.30716838554E+03 -0.64805134209E+03  0.97410563317E+03  0.61348837956E+03 0.  0.
   -5000001    2    3    3    0    0 -0.87750059380E+02 -0.30887512630E+03 -0.12827949836E+03  0.35073328044E+03  0.58773188978E+02 0.  0.
     200001    1    1    2    0    0 -0.24122776306E+03  0.30716838554E+03 -0.10905344276E+04  0.13105638437E+04  0.61300000000E+03 0.  1.
         11    1    4    4    0    0 -0.25577932994E+02 -0.12731879810E+03 -0.72098077257E+02  0.14853430496E+03  0.51100000000E-03 0.  1.
    -200002    1    4    4    0    0 -0.62172126386E+02 -0.18155632819E+03 -0.56181421107E+02  0.20219897548E+03  0.30000000000E+02 0.  1.
    -200000    1    3    3    0    0  0.32897782243E+03  0.17067407614E+01 -0.51977184373E+03  0.62337235273E+03  0.10100000000E+03 0.  1.
<mgrwt>
<rscale>  0 0.14822396E+04</rscale>
<asrwt>0</asrwt>
<pdfrwt beam="1">  1        2 0.28737537E+00 0.14822396E+04</pdfrwt>
<pdfrwt beam="2">  1       -2 0.39005980E-01 0.14822396E+04</pdfrwt>
<totfact> 0.47626065E+01</totfact>
</mgrwt>
</event>
<event>
 8    2  0.7237260E-052  0.1486568E+04  0.7818608E-02  0.8893434E-01
          2   -1    0    0  501    0  0.00000000000E+00  0.00000000000E+00  0.12329401234E+04  0.12329401234E+04  0.25500000000E-02 0.  1.
         -2   -1    0    0    0  501 -0.00000000000E+00 -0.00000000000E+00 -0.44809259512E+03  0.44809259513E+03  0.25500000000E-02 0. -1.
    -200001    2    1    2    0    0 -0.35098517294E+03 -0.22777482742E+03  0.43512887991E+03  0.86057912652E+03  0.61334111817E+03 0.  0.
   -5000001    2    3    3    0    0 -0.83673228600E+02 -0.39491370591E+03  0.23130284425E+03  0.47181553113E+03  0.78427325330E+02 0.  0.
     200001    1    1    2    0    0  0.35098517294E+03  0.22777482742E+03  0.34971864836E+03  0.82045359201E+03  0.61300000000E+03 0. -1.
         11    1    4    4    0    0 -0.35699999592E+02 -0.65021754516E+02  0.62249968803E+02  0.96836858414E+02  0.51100000000E-03 0.  1.
    -200002    1    4    4    0    0 -0.47973229007E+02 -0.32989195139E+03  0.16905287545E+03  0.37497867272E+03  0.30000000000E+02 0.  1.
    -200000    1    3    3    0    0 -0.26731194434E+03  0.16713887849E+03  0.20382603565E+03  0.38876359539E+03  0.10100000000E+03 0. -1.
<mgrwt>
<rscale>  0 0.14865683E+04</rscale>
<asrwt>0</asrwt>
<pdfrwt beam="1">  1        2 0.17613431E+00 0.14865683E+04</pdfrwt>
<pdfrwt beam="2">  1       -2 0.64013227E-01 0.14865683E+04</pdfrwt>
<totfact> 0.44737876E+01</totfact>
</mgrwt>
</event>
<event>
 8    2  0.7237260E-052  0.1344112E+04  0.7818608E-02  0.8995298E-01
          2   -1    0    0  501    0  0.00000000000E+00  0.00000000000E+00  0.35410515029E+04  0.35410515029E+04  0.25500000000E-02 0.  1.
         -2   -1    0    0    0  501 -0.00000000000E+00 -0.00000000000E+00 -0.12754940664E+03  0.12754940666E+03  0.25500000000E-02 0. -1.
    -200001    2    1    2    0    0  0.16593229502E+03 -0.20843017293E+03  0.18933677538E+04  0.20080124348E+04  0.61342955874E+03 0.  0.
   -5000001    2    3    3    0    0  0.30061834642E+03 -0.32055971105E+03  0.10436454406E+04  0.11345467083E+04  0.69789032703E+02 0.  0.
     200001    1    1    2    0    0 -0.16593229502E+03  0.20843017293E+03  0.15201343425E+04  0.16605884749E+04  0.61300000000E+03 0.  1.
         11    1    4    4    0    0  0.73936937102E+02 -0.10070439084E+03  0.35540422767E+03  0.37672298848E+03  0.51100000000E-03 0.  1.
    -200002    1    4    4    0    0  0.22668140932E+03 -0.21985532021E+03  0.68824121297E+03  0.75782371986E+03  0.30000000000E+02 0.  1.
    -200000    1    3    3    0    0 -0.13468605140E+03  0.11212953812E+03  0.84972231315E+03  0.87346572641E+03  0.10100000000E+03 0.  1.
<mgrwt>
<rscale>  0 0.13441116E+04</rscale>
<asrwt>0</asrwt>
<pdfrwt beam="1">  1        2 0.50586452E+00 0.13441116E+04</pdfrwt>
<pdfrwt beam="2">  1       -2 0.18221343E-01 0.13441116E+04</pdfrwt>
<totfact> 0.28341414E+01</totfact>
</mgrwt>
</event>
<event>
 8    2  0.7237260E-052  0.1428342E+04  0.7818608E-02  0.8933555E-01
         -2   -1    0    0    0  501 -0.00000000000E+00  0.00000000000E+00  0.63491072832E+03  0.63491072832E+03  0.25500000000E-02 0. -1.
          2   -1    0    0  501    0  0.00000000000E+00 -0.00000000000E+00 -0.80332612438E+03  0.80332612438E+03  0.25500000000E-02 0.  1.
    -200001    2    1    2    0    0  0.40209438295E+01 -0.28326400962E+03 -0.31852300149E+03  0.74645946052E+03  0.61277251618E+03 0.  0.
   -5000001    2    3    3    0    0  0.35206376235E+01  0.17501316233E+03 -0.16484455365E+03  0.25266164565E+03  0.77602696073E+02 0.  0.
     200001    1    1    2    0    0 -0.40209438295E+01  0.28326400962E+03  0.15010760543E+03  0.69177739219E+03  0.61300000000E+03 0. -1.
         11    1    4    4    0    0  0.26025209672E+02  0.50316202178E+02 -0.76975294156E+02  0.95573153400E+02  0.51100000000E-03 0.  1.
    -200002    1    4    4    0    0 -0.22504572049E+02  0.12469696015E+03 -0.87869259492E+02  0.15708849225E+03  0.30000000000E+02 0. -1.
    -200000    1    3    3    0    0  0.50030620600E+00 -0.45827717195E+03 -0.15367844784E+03  0.49379781487E+03  0.10100000000E+03 0. -1.
<mgrwt>
<rscale>  0 0.14283422E+04</rscale>
<asrwt>0</asrwt>
<pdfrwt beam="1">  1        2 0.11476087E+00 0.14283422E+04</pdfrwt>
<pdfrwt beam="2">  1       -2 0.90701533E-01 0.14283422E+04</pdfrwt>
<totfact> 0.38193577E+01</totfact>
</mgrwt>
</event>
<event>
 8    2  0.7237260E-052  0.1473485E+04  0.7818608E-02  0.8902279E-01
          2   -1    0    0  501    0  0.00000000000E+00  0.00000000000E+00  0.12787486383E+04  0.12787486383E+04  0.25500000000E-02 0.  1.
         -2   -1    0    0    0  501 -0.00000000000E+00 -0.00000000000E+00 -0.42446917947E+03  0.42446917948E+03  0.25500000000E-02 0. -1.
    -200001    2    1    2    0    0 -0.23280975877E+03 -0.32733884828E+03  0.51241738847E+03  0.89452147147E+03  0.61338892845E+03 0.  0.
   -5000001    2    3    3    0    0 -0.84036976842E+02 -0.41156600923E+03  0.10688178754E+03  0.44298223850E+03  0.91437157045E+02 0.  0.
     200001    1    1    2    0    0  0.23280975877E+03  0.32733884828E+03  0.34186207033E+03  0.80869634629E+03  0.61300000000E+03 0. -1.
         11    1    4    4    0    0 -0.17166525762E+02 -0.64782381610E+02  0.50874112113E+02  0.84140488812E+02  0.51100000000E-03 0.  1.
    -200002    1    4    4    0    0 -0.66870451080E+02 -0.34678362762E+03  0.56007675422E+02  0.35884174969E+03  0.30000000000E+02 0.  1.
    -200000    1    3    3    0    0 -0.14877278193E+03  0.84227160952E+02  0.40553560094E+03  0.45153923297E+03  0.10100000000E+03 0. -1.
<mgrwt>
<rscale>  0 0.14734848E+04</rscale>
<asrwt>0</asrwt>
<pdfrwt beam="1">  1        2 0.18267838E+00 0.14734848E+04</pdfrwt>
<pdfrwt beam="2">  1       -2 0.60638453E-01 0.14734848E+04</pdfrwt>
<totfact> 0.47367521E+01</totfact>
</mgrwt>
</event>
<event>
 8    2  0.7237260E-052  0.1309374E+04  0.7818608E-02  0.9022164E-01
         -2   -1    0    0    0  501 -0.00000000000E+00  0.00000000000E+00  0.63198150783E+03  0.63198150783E+03  0.25500000000E-02 0. -1.
          2   -1    0    0  501    0  0.00000000000E+00 -0.00000000000E+00 -0.67820851320E+03  0.67820851321E+03  0.25500000000E-02 0.  1.
    -200001    2    1    2    0    0 -0.11360762664E+03  0.94174480006E+02  0.15876308596E+03  0.64719268842E+03  0.60981729474E+03 0.  0.
   -5000001    2    3    3    0    0 -0.98304166847E+02  0.13435736936E+02 -0.15843412397E+03  0.30431076924E+03  0.24012381055E+03 0.  0.
     200001    1    1    2    0    0  0.11360762664E+03 -0.94174480006E+02 -0.20499009133E+03  0.66299733262E+03  0.61300000000E+03 0.  1.
         11    1    4    4    0    0 -0.47978943955E+02 -0.81421037017E+02 -0.16763570025E+03  0.19243984080E+03  0.51100000000E-03 0.  1.
    -200002    1    4    4    0    0 -0.50325222892E+02  0.94856773953E+02  0.92015762793E+01  0.11187092844E+03  0.30000000000E+02 0.  1.
    -200000    1    3    3    0    0 -0.15303459792E+02  0.80738743070E+02  0.31719720993E+03  0.34288191918E+03  0.10100000000E+03 0. -1.
<mgrwt>
<rscale>  0 0.13093743E+04</rscale>
<asrwt>0</asrwt>
<pdfrwt beam="1">  1        2 0.96886930E-01 0.13093743E+04</pdfrwt>
<pdfrwt beam="2">  1       -2 0.90283073E-01 0.13093743E+04</pdfrwt>
<totfact> 0.48174540E+01</totfact>
</mgrwt>
</event>
<event>
 8    2  0.7237260E-052  0.1343158E+04  0.7818608E-02  0.8996024E-01
          2   -1    0    0  501    0  0.00000000000E+00  0.00000000000E+00  0.48776486038E+03  0.48776486039E+03  0.25500000000E-02 0.  1.
         -2   -1    0    0    0  501 -0.00000000000E+00 -0.00000000000E+00 -0.92466298595E+03  0.92466298595E+03  0.25500000000E-02 0. -1.
    -200001    2    1    2    0    0 -0.27140879183E+03  0.62124506625E+02 -0.24677172163E+03  0.71282850667E+03  0.60803454731E+03 0.  0.
   -5000001    2    3    3    0    0 -0.19970083141E+03  0.30210471743E+03 -0.47374283593E+02  0.37713091737E+03  0.93998530488E+02 0.  0.
     200001    1    1    2    0    0  0.27140879183E+03 -0.62124506625E+02 -0.19012640394E+03  0.69959933968E+03  0.61300000000E+03 0.  1.
         11    1    4    4    0    0 -0.39779924731E+02  0.53136089789E+02 -0.44098625916E+02  0.79690496658E+02  0.51100000000E-03 0.  1.
    -200002    1    4    4    0    0 -0.15992090668E+03  0.24896862764E+03 -0.32756576775E+01  0.29744042071E+03  0.30000000000E+02 0.  1.
    -200000    1    3    3    0    0 -0.71707960420E+02 -0.23998021080E+03 -0.19939743804E+03  0.33569758930E+03  0.10100000000E+03 0. -1.
<mgrwt>
<rscale>  0 0.13431576E+04</rscale>
<asrwt>0</asrwt>
<pdfrwt beam="1">  1        2 0.69680695E-01 0.13431576E+04</pdfrwt>
<pdfrwt beam="2">  1       -2 0.13209471E+00 0.13431576E+04</pdfrwt>
<totfact> 0.28180140E+01</totfact>
</mgrwt>
</event>
<event>
 8    2  0.7237260E-052  0.1911776E+04  0.7818608E-02  0.8649017E-01
         -2   -1    0    0    0  501 -0.00000000000E+00  0.00000000000E+00  0.87781027671E+03  0.87781027671E+03  0.25500000000E-02 0. -1.
          2   -1    0    0  501    0  0.00000000000E+00 -0.00000000000E+00 -0.10409100515E+04  0.10409100515E+04  0.25500000000E-02 0.  1.
    -200001    2    1    2    0    0  0.43782747757E+03 -0.58851708597E+02  0.50594736182E+03  0.90948819697E+03  0.61321254372E+03 0.  0.
   -5000001    2    3    3    0    0  0.27981851588E+02  0.19213439816E+03  0.24995975666E+03  0.35568487726E+03  0.16227520139E+03 0.  0.
     200001    1    1    2    0    0 -0.43782747757E+03  0.58851708597E+02 -0.66904713656E+03  0.10092321312E+04  0.61300000000E+03 0.  1.
         11    1    4    4    0    0 -0.18959393055E+02  0.86612101106E+01  0.12520489253E+03  0.12692809090E+03  0.51100000000E-03 0.  1.
    -200002    1    4    4    0    0  0.46941244643E+02  0.18347318805E+03  0.12475486413E+03  0.22875678636E+03  0.30000000000E+02 0.  1.
    -200000    1    3    3    0    0  0.40984562598E+03 -0.25098610676E+03  0.25598760516E+03  0.55380331971E+03  0.10100000000E+03 0. -1.
<mgrwt>
<rscale>  0 0.19117757E+04</rscale>
<asrwt>0</asrwt>
<pdfrwt beam="1">  1        2 0.14870144E+00 0.19117757E+04</pdfrwt>
<pdfrwt beam="2">  1       -2 0.12540147E+00 0.19117757E+04</pdfrwt>
<totfact> 0.11840439E+01</totfact>
</mgrwt>
</event>
<event>
 8    2  0.7237260E-052  0.1545649E+04  0.7818608E-02  0.8854652E-01
         -2   -1    0    0    0  501 -0.00000000000E+00  0.00000000000E+00  0.14695593871E+04  0.14695593871E+04  0.25500000000E-02 0. -1.
          2   -1    0    0  501    0  0.00000000000E+00 -0.00000000000E+00 -0.40641963639E+03  0.40641963640E+03  0.25500000000E-02 0.  1.
    -200001    2    1    2    0    0  0.49706827967E+01  0.42636702707E+03  0.29030896933E+03  0.80133956484E+03  0.61323099323E+03 0.  0.
   -5000001    2    3    3    0    0 -0.19580245285E+03  0.15741715103E+03  0.34780280496E+03  0.44616294828E+03  0.12237575451E+03 0.  0.
     200001    1    1    2    0    0 -0.49706827967E+01 -0.42636702707E+03  0.77283078141E+03  0.10746394587E+04  0.61300000000E+03 0. -1.
         11    1    4    4    0    0  0.52549591878E+01 -0.12330541000E+02  0.27182537780E+02  0.30307543579E+02  0.51100000000E-03 0.  1.
    -200002    1    4    4    0    0 -0.20105741204E+03  0.16974769203E+03  0.32062026718E+03  0.41585540470E+03  0.30000000000E+02 0.  1.
    -200000    1    3    3    0    0  0.20077313565E+03  0.26894987604E+03 -0.57493835636E+02  0.35517661657E+03  0.10100000000E+03 0.  1.
<mgrwt>
<rscale>  0 0.15456491E+04</rscale>
<asrwt>0</asrwt>
<pdfrwt beam="1">  1        2 0.58059948E-01 0.15456491E+04</pdfrwt>
<pdfrwt beam="2">  1       -2 0.20993706E+00 0.15456491E+04</pdfrwt>
<totfact> 0.93870295E+00</totfact>
</mgrwt>
</event>
<event>
 8    2  0.7237260E-052  0.1265859E+04  0.7818608E-02  0.9057087E-01
         -2   -1    0    0    0  501 -0.00000000000E+00  0.00000000000E+00  0.23771893400E+03  0.23771893402E+03  0.25500000000E-02 0. -1.
          2   -1    0    0  501    0  0.00000000000E+00 -0.00000000000E+00 -0.16851812298E+04  0.16851812298E+04  0.25500000000E-02 0.  1.
    -200001    2    1    2    0    0  0.85548431540E+02 -0.37471389804E+02 -0.53179211449E+03  0.81703239590E+03  0.61320179690E+03 0.  0.
   -5000001    2    3    3    0    0 -0.10368750839E+03 -0.24750342330E+03 -0.11255162564E+03  0.30138980306E+03  0.78478665994E+02 0.  0.
     200001    1    1    2    0    0 -0.85548431540E+02  0.37471389804E+02 -0.91567018130E+03  0.11058677679E+04  0.61300000000E+03 0.  1.
         11    1    4    4    0    0 -0.88968489643E+02 -0.19532904173E+03 -0.10509385409E+03  0.23898440297E+03  0.51100000000E-03 0.  1.
    -200002    1    4    4    0    0 -0.14719018749E+02 -0.52174381564E+02 -0.74577715443E+01  0.62405400094E+02  0.30000000000E+02 0. -1.
    -200000    1    3    3    0    0  0.18923593993E+03  0.21003203349E+03 -0.41924048885E+03  0.51564259284E+03  0.10100000000E+03 0.  1.
<mgrwt>
<rscale>  0 0.12658586E+04</rscale>
<asrwt>0</asrwt>
<pdfrwt beam="1">  1        2 0.24074017E+00 0.12658586E+04</pdfrwt>
<pdfrwt beam="2">  1       -2 0.33959849E-01 0.12658586E+04</pdfrwt>
<totfact> 0.93069855E+01</totfact>
</mgrwt>
</event>
<event>
 8    2  0.7237260E-052  0.1305196E+04  0.7818608E-02  0.9025455E-01
          2   -1    0    0  501    0  0.00000000000E+00  0.00000000000E+00  0.27383176029E+04  0.27383176029E+04  0.25500000000E-02 0.  1.
         -2   -1    0    0    0  501 -0.00000000000E+00 -0.00000000000E+00 -0.15552772407E+03  0.15552772409E+03  0.25500000000E-02 0. -1.
    -200001    2    1    2    0    0  0.26609808088E+02  0.11129766431E+03  0.17153613295E+04  0.18255305138E+04  0.61400481592E+03 0.  0.
   -5000001    2    3    3    0    0 -0.17333418204E+03  0.23112908232E+03  0.13160098532E+04  0.13522232462E+04  0.11471870998E+03 0.  0.
     200001    1    1    2    0    0 -0.26609808088E+02 -0.11129766431E+03  0.86742854934E+03  0.10683148132E+04  0.61300000000E+03 0. -1.
         11    1    4    4    0    0  0.14315981492E+02  0.33963406812E+02  0.14291624607E+03  0.14759239046E+03  0.51100000000E-03 0.  1.
    -200002    1    4    4    0    0 -0.18765016353E+03  0.19716567551E+03  0.11730936071E+04  0.12046308557E+04  0.30000000000E+02 0.  1.
    -200000    1    3    3    0    0  0.19994399012E+03 -0.11983141800E+03  0.39935147629E+03  0.47330726758E+03  0.10100000000E+03 0. -1.
<mgrwt>
<rscale>  0 0.13051962E+04</rscale>
<asrwt>0</asrwt>
<pdfrwt beam="1">  1        2 0.39118822E+00 0.13051962E+04</pdfrwt>
<pdfrwt beam="2">  1       -2 0.22218247E-01 0.13051962E+04</pdfrwt>
<totfact> 0.57483127E+01</totfact>
</mgrwt>
</event>
<event>
 8    2  0.7237260E-052  0.1712128E+04  0.7818608E-02  0.8754477E-01
         -2   -1    0    0    0  501 -0.00000000000E+00  0.00000000000E+00  0.44146145492E+03  0.44146145493E+03  0.25500000000E-02 0. -1.
          2   -1    0    0  501    0  0.00000000000E+00 -0.00000000000E+00 -0.16600449508E+04  0.16600449509E+04  0.25500000000E-02 0.  1.
    -200001    2    1    2    0    0 -0.28685816974E+03  0.46450549154E+03 -0.31217833405E+03  0.87864407555E+03  0.61360177479E+03 0.  0.
   -5000001    2    3    3    0    0 -0.95001527361E+02 -0.16333868838E+02 -0.30937423972E+03  0.35117433740E+03  0.13534736634E+03 0.  0.
     200001    1    1    2    0    0  0.28685816974E+03 -0.46450549154E+03 -0.90640516188E+03  0.12228623302E+04  0.61300000000E+03 0. -1.
         11    1    4    4    0    0 -0.11408530180E+03 -0.34217345616E+02 -0.18018006517E+03  0.21598874673E+03  0.51100000000E-03 0.  1.
    -200002    1    4    4    0    0  0.19083774438E+02  0.17883476778E+02 -0.12919417455E+03  0.13518559067E+03  0.30000000000E+02 0.  1.
    -200000    1    3    3    0    0 -0.19185664238E+03  0.48083936038E+03 -0.28040943361E+01  0.52746973815E+03  0.10100000000E+03 0. -1.
<mgrwt>
<rscale>  0 0.17121283E+04</rscale>
<asrwt>0</asrwt>
<pdfrwt beam="1">  1        2 0.23714928E+00 0.17121283E+04</pdfrwt>
<pdfrwt beam="2">  1       -2 0.63065923E-01 0.17121283E+04</pdfrwt>
<totfact> 0.26715513E+01</totfact>
</mgrwt>
</event>
<event>
 8    2  0.7237260E-052  0.2648467E+04  0.7818608E-02  0.8351922E-01
         -2   -1    0    0    0  501 -0.00000000000E+00  0.00000000000E+00  0.92553474437E+03  0.92553474437E+03  0.25500000000E-02 0. -1.
          2   -1    0    0  501    0  0.00000000000E+00 -0.00000000000E+00 -0.18946827875E+04  0.18946827876E+04  0.25500000000E-02 0.  1.
    -200001    2    1    2    0    0  0.80013147274E+03 -0.85068588763E+03 -0.60965320033E+03  0.14531467967E+04  0.61325503258E+03 0.  0.
   -5000001    2    3    3    0    0  0.32908130231E+03 -0.66173407586E+03 -0.14739973642E+03  0.75926617647E+03  0.92584846209E+02 0.  0.
     200001    1    1    2    0    0 -0.80013147274E+03  0.85068588763E+03 -0.35949484285E+03  0.13670707352E+04  0.61300000000E+03 0. -1.
         11    1    4    4    0    0  0.14714676939E+02 -0.94180969251E+02 -0.18121456210E+02  0.97030736687E+02  0.51100000000E-03 0.  1.
    -200002    1    4    4    0    0  0.31436662537E+03 -0.56755310660E+03 -0.12927828021E+03  0.66223543978E+03  0.30000000000E+02 0.  1.
    -200000    1    3    3    0    0  0.47105017042E+03 -0.18895181178E+03 -0.46225346391E+03  0.69388062023E+03  0.10100000000E+03 0.  1.
<mgrwt>
<rscale>  0 0.26484673E+04</rscale>
<asrwt>0</asrwt>
<pdfrwt beam="1">  1        2 0.27066897E+00 0.26484673E+04</pdfrwt>
<pdfrwt beam="2">  1       -2 0.13221925E+00 0.26484673E+04</pdfrwt>
<totfact> 0.33552760E+00</totfact>
</mgrwt>
</event>
<event>
 8    2  0.7237260E-052  0.1362808E+04  0.7818608E-02  0.8981189E-01
          2   -1    0    0  501    0  0.00000000000E+00  0.00000000000E+00  0.47166540050E+03  0.47166540050E+03  0.25500000000E-02 0.  1.
         -2   -1    0    0    0  501 -0.00000000000E+00 -0.00000000000E+00 -0.98440868847E+03  0.98440868847E+03  0.25500000000E-02 0. -1.
    -200001    2    1    2    0    0 -0.19729787483E+03  0.12568133570E+03 -0.45245949577E+03  0.79719216848E+03  0.61324832541E+03 0.  0.
   -5000001    2    3    3    0    0 -0.34286501505E+03  0.11662678459E+03 -0.47314246303E+03  0.61858488324E+03  0.16620842948E+03 0.  0.
     200001    1    1    2    0    0  0.19729787483E+03 -0.12568133570E+03 -0.60283792205E+02  0.65888192050E+03  0.61300000000E+03 0.  1.
         11    1    4    4    0    0 -0.24975087765E+03  0.30872937431E+02 -0.22125084001E+03  0.33508293504E+03  0.51100000000E-03 0.  1.
    -200002    1    4    4    0    0 -0.93114137393E+02  0.85753847158E+02 -0.25189162302E+03  0.28350194820E+03  0.30000000000E+02 0.  1.
    -200000    1    3    3    0    0  0.14556714021E+03  0.90545511109E+01  0.20682967259E+02  0.17860728524E+03  0.10100000000E+03 0.  1.
<mgrwt>
<rscale>  0 0.13628082E+04</rscale>
<asrwt>0</asrwt>
<pdfrwt beam="1">  1        2 0.67380772E-01 0.13628082E+04</pdfrwt>
<pdfrwt beam="2">  1       -2 0.14062981E+00 0.13628082E+04</pdfrwt>
<totfact> 0.24888657E+01</totfact>
</mgrwt>
</event>
<event>
 8    2  0.7237260E-052  0.1566044E+04  0.7818608E-02  0.8841684E-01
          2   -1    0    0  501    0  0.00000000000E+00  0.00000000000E+00  0.29718241263E+04  0.29718241263E+04  0.25500000000E-02 0.  1.
         -2   -1    0    0    0  501 -0.00000000000E+00 -0.00000000000E+00 -0.20631222515E+03  0.20631222517E+03  0.25500000000E-02 0. -1.
    -200001    2    1    2    0    0  0.24797012706E+03 -0.11680893841E+03  0.55797075824E+03  0.87072645949E+03  0.60967178727E+03 0.  0.
   -5000001    2    3    3    0    0  0.74069387600E+02 -0.16886435256E+03  0.62228857261E+03  0.65326608477E+03  0.74243290431E+02 0.  0.
     200001    1    1    2    0    0 -0.24797012706E+03  0.11680893841E+03  0.22075411429E+04  0.23074098920E+04  0.61300000000E+03 0.  1.
         11    1    4    4    0    0  0.46480770458E+02 -0.79985085553E+02  0.20883438342E+03  0.22840725827E+03  0.51100000000E-03 0.  1.
    -200002    1    4    4    0    0  0.27588617143E+02 -0.88879267006E+02  0.41345418918E+03  0.42485882650E+03  0.30000000000E+02 0.  1.
    -200000    1    3    3    0    0  0.17390073946E+03  0.52055414148E+02 -0.64317814362E+02  0.21746037472E+03  0.10100000000E+03 0. -1.
<mgrwt>
<rscale>  0 0.15660443E+04</rscale>
<asrwt>0</asrwt>
<pdfrwt beam="1">  1        2 0.42454627E+00 0.15660443E+04</pdfrwt>
<pdfrwt beam="2">  1       -2 0.29473177E-01 0.15660443E+04</pdfrwt>
<totfact> 0.25065912E+01</totfact>
</mgrwt>
</event>
<event>
 8    2  0.7237260E-052  0.1290248E+04  0.7818608E-02  0.9037335E-01
         -2   -1    0    0    0  501 -0.00000000000E+00  0.00000000000E+00  0.57252568180E+03  0.57252568180E+03  0.25500000000E-02 0. -1.
          2   -1    0    0  501    0  0.00000000000E+00 -0.00000000000E+00 -0.72692772949E+03  0.72692772950E+03  0.25500000000E-02 0.  1.
    -200001    2    1    2    0    0  0.98013118701E+02  0.45170245516E+02  0.92486737317E+02  0.62984905447E+03  0.61360338356E+03 0.  0.
   -5000001    2    3    3    0    0  0.77303205668E+02  0.24003534673E+03 -0.12027890770E+03  0.32346444672E+03  0.16300147043E+03 0.  0.
     200001    1    1    2    0    0 -0.98013118701E+02 -0.45170245516E+02 -0.24688878501E+03  0.66960435683E+03  0.61300000000E+03 0.  1.
         11    1    4    4    0    0  0.65005998981E+02  0.77438395612E+01 -0.31880374946E+02  0.72815556453E+02  0.51100000000E-03 0.  1.
    -200002    1    4    4    0    0  0.12297206687E+02  0.23229150717E+03 -0.88398532755E+02  0.25064889026E+03  0.30000000000E+02 0.  1.
    -200000    1    3    3    0    0  0.20709913033E+02 -0.19486510122E+03  0.21276564502E+03  0.30638460776E+03  0.10100000000E+03 0. -1.
<mgrwt>
<rscale>  0 0.12902477E+04</rscale>
<asrwt>0</asrwt>
<pdfrwt beam="1">  1        2 0.10384682E+00 0.12902477E+04</pdfrwt>
<pdfrwt beam="2">  1       -2 0.81789383E-01 0.12902477E+04</pdfrwt>
<totfact> 0.55471819E+01</totfact>
</mgrwt>
</event>
<event>
 8    2  0.7237260E-052  0.1302336E+04  0.7818608E-02  0.9027715E-01
          2   -1    0    0  501    0  0.00000000000E+00  0.00000000000E+00  0.19453234730E+04  0.19453234730E+04  0.25500000000E-02 0.  1.
         -2   -1    0    0    0  501 -0.00000000000E+00 -0.00000000000E+00 -0.21796873676E+03  0.21796873677E+03  0.25500000000E-02 0. -1.
    -200001    2    1    2    0    0  0.21188483486E+03  0.14161754201E+02  0.95898630695E+03  0.11576805642E+04  0.61275918056E+03 0.  0.
   -5000001    2    3    3    0    0  0.21006445205E+03  0.23915403326E+03  0.26772188469E+03  0.42373755492E+03  0.80973960464E+02 0.  0.
     200001    1    1    2    0    0 -0.21188483486E+03 -0.14161754201E+02  0.76836842930E+03  0.10056116456E+04  0.61300000000E+03 0. -1.
         11    1    4    4    0    0  0.10687631775E+03  0.11384810102E+03  0.86138805501E+02  0.17833628687E+03  0.51100000000E-03 0.  1.
    -200002    1    4    4    0    0  0.10318813429E+03  0.12530593224E+03  0.18158307919E+03  0.24540126805E+03  0.30000000000E+02 0.  1.
    -200000    1    3    3    0    0  0.18203828142E+01 -0.22499227906E+03  0.69126442226E+03  0.73394300931E+03  0.10100000000E+03 0.  1.
<mgrwt>
<rscale>  0 0.13023359E+04</rscale>
<asrwt>0</asrwt>
<pdfrwt beam="1">  1        2 0.27790335E+00 0.13023359E+04</pdfrwt>
<pdfrwt beam="2">  1       -2 0.31138391E-01 0.13023359E+04</pdfrwt>
<totfact> 0.80276727E+01</totfact>
</mgrwt>
</event>
<event>
 8    2  0.7237260E-052  0.1424647E+04  0.7818608E-02  0.8936168E-01
          2   -1    0    0  501    0  0.00000000000E+00  0.00000000000E+00  0.61379148937E+03  0.61379148938E+03  0.25500000000E-02 0.  1.
         -2   -1    0    0    0  501 -0.00000000000E+00 -0.00000000000E+00 -0.82667326179E+03  0.82667326180E+03  0.25500000000E-02 0. -1.
    -200001    2    1    2    0    0 -0.18137601916E+03 -0.59397231235E+02  0.20637040321E+03  0.67367489850E+03  0.61222857998E+03 0.  0.
   -5000001    2    3    3    0    0 -0.99828389121E+02 -0.23484753998E+03  0.21646429558E+03  0.45518985675E+03  0.30858052453E+03 0.  0.
     200001    1    1    2    0    0  0.18137601916E+03  0.59397231235E+02 -0.41925217563E+03  0.76678985268E+03  0.61300000000E+03 0. -1.
         11    1    4    4    0    0 -0.76990348078E+01 -0.10472342198E+03  0.26566030936E+03  0.28566006059E+03  0.51100000000E-03 0.  1.
    -200002    1    4    4    0    0 -0.92129354313E+02 -0.13012411800E+03 -0.49196013783E+02  0.16952979616E+03  0.30000000000E+02 0.  1.
    -200000    1    3    3    0    0 -0.81547630037E+02  0.17545030875E+03 -0.10093892374E+02  0.21848504175E+03  0.10100000000E+03 0.  1.
<mgrwt>
<rscale>  0 0.14246473E+04</rscale>
<asrwt>0</asrwt>
<pdfrwt beam="1">  1        2 0.87684499E-01 0.14246473E+04</pdfrwt>
<pdfrwt beam="2">  1       -2 0.11809618E+00 0.14246473E+04</pdfrwt>
<totfact> 0.28394192E+01</totfact>
</mgrwt>
</event>
<event>
 8    2  0.7237260E-052  0.1412045E+04  0.7818608E-02  0.8945146E-01
         -2   -1    0    0    0  501 -0.00000000000E+00  0.00000000000E+00  0.44685723775E+03  0.44685723775E+03  0.25500000000E-02 0. -1.
          2   -1    0    0  501    0  0.00000000000E+00 -0.00000000000E+00 -0.11154967630E+04  0.11154967630E+04  0.25500000000E-02 0.  1.
    -200001    2    1    2    0    0 -0.29711246980E+03 -0.18611721800E+03 -0.31722947857E+03  0.77357427266E+03  0.61226397468E+03 0.  0.
   -5000001    2    3    3    0    0 -0.16867721637E+03  0.10710108725E+03  0.10023429580E+03  0.23789751213E+03  0.81398194146E+02 0.  0.
     200001    1    1    2    0    0  0.29711246980E+03  0.18611721800E+03 -0.35141004668E+03  0.78877972810E+03  0.61300000000E+03 0.  1.
         11    1    4    4    0    0 -0.65726309324E+01  0.19405793931E+02  0.34137196890E+02  0.39813722851E+02  0.51100000000E-03 0.  1.
    -200002    1    4    4    0    0 -0.16210458544E+03  0.87695293323E+02  0.66097098905E+02  0.19808378928E+03  0.30000000000E+02 0.  1.
    -200000    1    3    3    0    0 -0.12843525343E+03 -0.29321830525E+03 -0.41746377437E+03  0.53567676053E+03  0.10100000000E+03 0.  1.
<mgrwt>
<rscale>  0 0.14120450E+04</rscale>
<asrwt>0</asrwt>
<pdfrwt beam="1">  1        2 0.15935668E+00 0.14120450E+04</pdfrwt>
<pdfrwt beam="2">  1       -2 0.63836749E-01 0.14120450E+04</pdfrwt>
<totfact> 0.52871386E+01</totfact>
</mgrwt>
</event>
<event>
 8    2  0.7237260E-052  0.1426270E+04  0.7818608E-02  0.8935020E-01
         -2   -1    0    0    0  501 -0.00000000000E+00  0.00000000000E+00  0.14248861536E+03  0.14248861539E+03  0.25500000000E-02 0. -1.
          2   -1    0    0  501    0  0.00000000000E+00 -0.00000000000E+00 -0.35691372775E+04  0.35691372775E+04  0.25500000000E-02 0.  1.
    -200001    2    1    2    0    0 -0.11402293651E+03  0.16296125684E+03 -0.91988732118E+03  0.11233486624E+04  0.61332041576E+03 0.  0.
   -5000001    2    3    3    0    0 -0.16641489575E+03 -0.10541903138E+03 -0.74513926404E+03  0.78347989367E+03  0.14071649248E+03 0.  0.
     200001    1    1    2    0    0  0.11402293651E+03 -0.16296125684E+03 -0.25067613409E+04  0.25882772304E+04  0.61300000000E+03 0.  1.
         11    1    4    4    0    0 -0.16885566275E+03 -0.12144309009E+03 -0.63958491928E+03  0.67255447953E+03  0.51100000000E-03 0.  1.
    -200002    1    4    4    0    0  0.24407669968E+01  0.16024058718E+02 -0.10555434477E+03  0.11092541414E+03  0.30000000000E+02 0.  1.
    -200000    1    3    3    0    0  0.52391959241E+02  0.26838028821E+03 -0.17474805714E+03  0.33986876874E+03  0.10100000000E+03 0. -1.
<mgrwt>
<rscale>  0 0.14262699E+04</rscale>
<asrwt>0</asrwt>
<pdfrwt beam="1">  1        2 0.50987670E+00 0.14262699E+04</pdfrwt>
<pdfrwt beam="2">  1       -2 0.20355519E-01 0.14262699E+04</pdfrwt>
<totfact> 0.22256149E+01</totfact>
</mgrwt>
</event>
<event>
 8    2  0.7237260E-052  0.1452726E+04  0.7818608E-02  0.8916513E-01
         -2   -1    0    0    0  501 -0.00000000000E+00  0.00000000000E+00  0.52420745406E+03  0.52420745406E+03  0.25500000000E-02 0. -1.
          2   -1    0    0  501    0  0.00000000000E+00 -0.00000000000E+00 -0.10064780621E+04  0.10064780621E+04  0.25500000000E-02 0.  1.
    -200001    2    1    2    0    0 -0.15889898794E+03  0.33405593684E+03 -0.38327671992E+03  0.80790543396E+03  0.60742727045E+03 0.  0.
   -5000001    2    3    3    0    0 -0.20864273537E+03  0.42891538956E+03 -0.11633870438E+03  0.50306176859E+03  0.10970982843E+03 0.  0.
     200001    1    1    2    0    0  0.15889898794E+03 -0.33405593684E+03 -0.98993888094E+02  0.72278008217E+03  0.61300000000E+03 0. -1.
         11    1    4    4    0    0 -0.19855102186E+02  0.14560667460E+03 -0.47416688480E+02  0.15441460785E+03  0.51100000000E-03 0.  1.
    -200002    1    4    4    0    0 -0.18878763319E+03  0.28330871496E+03 -0.68922015901E+02  0.34864716074E+03  0.30000000000E+02 0.  1.
    -200000    1    3    3    0    0  0.49743747436E+02 -0.94859452720E+02 -0.26693801554E+03  0.30484366537E+03  0.10100000000E+03 0.  1.
<mgrwt>
<rscale>  0 0.14527261E+04</rscale>
<asrwt>0</asrwt>
<pdfrwt beam="1">  1        2 0.14378258E+00 0.14527261E+04</pdfrwt>
<pdfrwt beam="2">  1       -2 0.74886780E-01 0.14527261E+04</pdfrwt>
<totfact> 0.43307665E+01</totfact>
</mgrwt>
</event>
<event>
 8    2  0.7237260E-052  0.1521209E+04  0.7818608E-02  0.8870470E-01
          2   -1    0    0  501    0  0.00000000000E+00  0.00000000000E+00  0.10446208910E+04  0.10446208910E+04  0.25500000000E-02 0.  1.
         -2   -1    0    0    0  501 -0.00000000000E+00 -0.00000000000E+00 -0.55380802826E+03  0.55380802827E+03  0.25500000000E-02 0. -1.
    -200001    2    1    2    0    0 -0.30468974779E+03 -0.23277478812E+03  0.49530907894E+03  0.87537348551E+03  0.61149628867E+03 0.  0.
   -5000001    2    3    3    0    0  0.17094823938E+03 -0.65436409377E+02  0.19699782451E+03  0.28087854662E+03  0.81113444448E+02 0.  0.
     200001    1    1    2    0    0  0.30468974779E+03  0.23277478812E+03 -0.44962161533E+01  0.72305543381E+03  0.61300000000E+03 0. -1.
         11    1    4    4    0    0  0.98579138708E+01 -0.98026342428E+01 -0.51080615297E+01  0.14810887780E+02  0.51100000000E-03 0.  1.
    -200002    1    4    4    0    0  0.16109032551E+03 -0.55633775134E+02  0.20210588604E+03  0.26606765884E+03  0.30000000000E+02 0.  1.
    -200000    1    3    3    0    0 -0.47563798718E+03 -0.16733837875E+03  0.29831125442E+03  0.59449493889E+03  0.10100000000E+03 0.  1.
<mgrwt>
<rscale>  0 0.15212093E+04</rscale>
<asrwt>0</asrwt>
<pdfrwt beam="1">  1        2 0.14923156E+00 0.15212093E+04</pdfrwt>
<pdfrwt beam="2">  1       -2 0.79115432E-01 0.15212093E+04</pdfrwt>
<totfact> 0.36131813E+01</totfact>
</mgrwt>
</event>
<event>
 8    2  0.7237260E-052  0.1279098E+04  0.7818608E-02  0.9046307E-01
         -2   -1    0    0    0  501 -0.00000000000E+00  0.00000000000E+00  0.28594226128E+03  0.28594226129E+03  0.25500000000E-02 0. -1.
          2   -1    0    0  501    0  0.00000000000E+00 -0.00000000000E+00 -0.14304377580E+04  0.14304377580E+04  0.25500000000E-02 0.  1.
    -200001    2    1    2    0    0  0.85198301220E+01  0.10940534493E+03 -0.77072606973E+03  0.99007794609E+03  0.61171361582E+03 0.  0.
   -5000001    2    3    3    0    0  0.31782761655E+02  0.25132485328E+03 -0.76967864080E+03  0.81433834344E+03  0.81039506917E+02 0.  0.
     200001    1    1    2    0    0 -0.85198301220E+01 -0.10940534493E+03 -0.37376942702E+03  0.72630207323E+03  0.61300000000E+03 0.  1.
         11    1    4    4    0    0 -0.10956258075E+02  0.93850851013E+02 -0.20375844188E+03  0.22460081136E+03  0.51100000000E-03 0.  1.
    -200002    1    4    4    0    0  0.42739019730E+02  0.15747400226E+03 -0.56592019892E+03  0.58973753208E+03  0.30000000000E+02 0.  1.
    -200000    1    3    3    0    0 -0.23262931533E+02 -0.14191950835E+03 -0.10474289260E+01  0.17573960265E+03  0.10100000000E+03 0. -1.
<mgrwt>
<rscale>  0 0.12790975E+04</rscale>
<asrwt>0</asrwt>
<pdfrwt beam="1">  1        2 0.20434825E+00 0.12790975E+04</pdfrwt>
<pdfrwt beam="2">  1       -2 0.40848895E-01 0.12790975E+04</pdfrwt>
<totfact> 0.88720911E+01</totfact>
</mgrwt>
</event>
<event>
 8    2  0.7237260E-052  0.1721977E+04  0.7818608E-02  0.8748928E-01
          2   -1    0    0  501    0  0.00000000000E+00  0.00000000000E+00  0.15830057861E+04  0.15830057861E+04  0.25500000000E-02 0.  1.
         -2   -1    0    0    0  501 -0.00000000000E+00 -0.00000000000E+00 -0.46828720209E+03  0.46828720210E+03  0.25500000000E-02 0. -1.
    -200001    2    1    2    0    0 -0.36393407100E+03 -0.32147928378E+03  0.12835789208E+03  0.79253433281E+03  0.61305626355E+03 0.  0.
   -5000001    2    3    3    0    0 -0.18128574361E+03  0.29783264704E+02  0.17659960002E+03  0.38110505352E+03  0.28337621530E+03 0.  0.
     200001    1    1    2    0    0  0.36393407100E+03  0.32147928378E+03  0.98636069188E+03  0.12587586554E+04  0.61300000000E+03 0.  1.
         11    1    4    4    0    0 -0.11398933834E+03  0.67360152527E+02 -0.48720844842E+02  0.14108394709E+03  0.51100000000E-03 0.  1.
    -200002    1    4    4    0    0 -0.67296405273E+02 -0.37576887823E+02  0.22532044486E+03  0.24002110643E+03  0.30000000000E+02 0.  1.
    -200000    1    3    3    0    0 -0.18264832739E+03 -0.35126254849E+03 -0.48241707939E+02  0.41142927929E+03  0.10100000000E+03 0. -1.
<mgrwt>
<rscale>  0 0.17219772E+04</rscale>
<asrwt>0</asrwt>
<pdfrwt beam="1">  1        2 0.22614368E+00 0.17219772E+04</pdfrwt>
<pdfrwt beam="2">  1       -2 0.66898171E-01 0.17219772E+04</pdfrwt>
<totfact> 0.25810222E+01</totfact>
</mgrwt>
</event>
<event>
 8    2  0.7237260E-052  0.1321258E+04  0.7818608E-02  0.9012875E-01
          2   -1    0    0  501    0  0.00000000000E+00  0.00000000000E+00  0.25218445148E+04  0.25218445148E+04  0.25500000000E-02 0.  1.
         -2   -1    0    0    0  501 -0.00000000000E+00 -0.00000000000E+00 -0.17306008198E+03  0.17306008200E+03  0.25500000000E-02 0. -1.
    -200001    2    1    2    0    0  0.24145833119E+03  0.32342553661E+02  0.11239248515E+04  0.13037187141E+04  0.61410686937E+03 0.  0.
   -5000001    2    3    3    0    0  0.20723561643E+03  0.27455803524E+03  0.53494489644E+03  0.65801141100E+03  0.16877280392E+03 0.  0.
     200001    1    1    2    0    0 -0.24145833119E+03 -0.32342553661E+02  0.12248595813E+04  0.13911858827E+04  0.61300000000E+03 0.  1.
         11    1    4    4    0    0  0.77277144883E+02 -0.14908506088E+00  0.12210166097E+03  0.14450119363E+03  0.51100000000E-03 0.  1.
    -200002    1    4    4    0    0  0.12995847155E+03  0.27470712030E+03  0.41284323547E+03  0.51351021737E+03  0.30000000000E+02 0.  1.
    -200000    1    3    3    0    0  0.34222714762E+02 -0.24221548158E+03  0.58897995509E+03  0.64570730306E+03  0.10100000000E+03 0.  1.
<mgrwt>
<rscale>  0 0.13212579E+04</rscale>
<asrwt>0</asrwt>
<pdfrwt beam="1">  1        2 0.36026348E+00 0.13212579E+04</pdfrwt>
<pdfrwt beam="2">  1       -2 0.24722870E-01 0.13212579E+04</pdfrwt>
<totfact> 0.61733584E+01</totfact>
</mgrwt>
</event>
<event>
 8    2  0.7237260E-052  0.1423811E+04  0.7818608E-02  0.8936761E-01
          2   -1    0    0  501    0  0.00000000000E+00  0.00000000000E+00  0.19015777827E+04  0.19015777827E+04  0.25500000000E-02 0.  1.
         -2   -1    0    0    0  501 -0.00000000000E+00 -0.00000000000E+00 -0.26652042469E+03  0.26652042470E+03  0.25500000000E-02 0. -1.
    -200001    2    1    2    0    0 -0.11509619649E+03  0.66471987964E+02  0.30366050794E+03  0.69634679089E+03  0.61239161447E+03 0.  0.
   -5000001    2    3    3    0    0 -0.88374409642E+02 -0.22115450464E+03  0.17079538071E+02  0.27709423523E+03  0.14060637743E+03 0.  0.
     200001    1    1    2    0    0  0.11509619649E+03 -0.66471987964E+02  0.13313968501E+04  0.14717514165E+04  0.61300000000E+03 0.  1.
         11    1    4    4    0    0 -0.55144983441E+02 -0.47265477211E+01 -0.89990657709E+00  0.55354487480E+02  0.51100000000E-03 0.  1.
    -200002    1    4    4    0    0 -0.33229426201E+02 -0.21642795692E+03  0.17979444648E+02  0.22173974775E+03  0.30000000000E+02 0.  1.
    -200000    1    3    3    0    0 -0.26721786846E+02  0.28762649260E+03  0.28658096987E+03  0.41925255567E+03  0.10100000000E+03 0. -1.
<mgrwt>
<rscale>  0 0.14238108E+04</rscale>
<asrwt>0</asrwt>
<pdfrwt beam="1">  1        2 0.27165398E+00 0.14238108E+04</pdfrwt>
<pdfrwt beam="2">  1       -2 0.38074345E-01 0.14238108E+04</pdfrwt>
<totfact> 0.57113723E+01</totfact>
</mgrwt>
</event>
<event>
 8    2  0.7237260E-052  0.2255109E+04  0.7818608E-02  0.8495834E-01
          2   -1    0    0  501    0  0.00000000000E+00  0.00000000000E+00  0.55758733353E+03  0.55758733354E+03  0.25500000000E-02 0.  1.
         -2   -1    0    0    0  501 -0.00000000000E+00 -0.00000000000E+00 -0.22801429784E+04  0.22801429784E+04  0.25500000000E-02 0. -1.
    -200001    2    1    2    0    0 -0.20782850122E+03  0.64795060556E+03 -0.16889129530E+04  0.19212514503E+04  0.61298246240E+03 0.  0.
   -5000001    2    3    3    0    0  0.15702541395E+03  0.45902670177E+03 -0.91580008749E+03  0.10399370208E+04  0.86120342249E+02 0.  0.
     200001    1    1    2    0    0  0.20782850122E+03 -0.64795060556E+03 -0.33642691869E+02  0.91647886167E+03  0.61300000000E+03 0.  1.
         11    1    4    4    0    0 -0.39133008436E+01  0.73946797034E+02 -0.14964487180E+03  0.16696415895E+03  0.51100000000E-03 0.  1.
    -200002    1    4    4    0    0  0.16093871480E+03  0.38507990474E+03 -0.76615521568E+03  0.87297286182E+03  0.30000000000E+02 0.  1.
    -200000    1    3    3    0    0 -0.36485391517E+03  0.18892390379E+03 -0.77311286552E+03  0.88131442951E+03  0.10100000000E+03 0.  1.
<mgrwt>
<rscale>  0 0.22551087E+04</rscale>
<asrwt>0</asrwt>
<pdfrwt beam="1">  1        2 0.79655335E-01 0.22551087E+04</pdfrwt>
<pdfrwt beam="2">  1       -2 0.32573471E+00 0.22551087E+04</pdfrwt>
<totfact> 0.11936382E+00</totfact>
</mgrwt>
</event>
<event>
 8    2  0.7237260E-052  0.2146961E+04  0.7818608E-02  0.8540834E-01
          2   -1    0    0  501    0  0.00000000000E+00  0.00000000000E+00  0.98165673332E+03  0.98165673332E+03  0.25500000000E-02 0.  1.
         -2   -1    0    0    0  501 -0.00000000000E+00 -0.00000000000E+00 -0.11738935813E+04  0.11738935813E+04  0.25500000000E-02 0. -1.
    -200001    2    1    2    0    0 -0.18161213230E+03 -0.61417181986E+03  0.51221526205E+03  0.10232024148E+04  0.61187312092E+03 0.  0.
   -5000001    2    3    3    0    0  0.11706342187E+03 -0.54805408471E+03  0.32896773254E+03  0.65258226071E+03  0.59805630412E+02 0.  0.
     200001    1    1    2    0    0  0.18161213230E+03  0.61417181986E+03 -0.70445211007E+03  0.11323478998E+04  0.61300000000E+03 0. -1.
         11    1    4    4    0    0  0.84369188431E+02 -0.32342207903E+03  0.18340218315E+03  0.38125629431E+03  0.51100000000E-03 0.  1.
    -200002    1    4    4    0    0  0.32694233439E+02 -0.22463200568E+03  0.14556554939E+03  0.27132596640E+03  0.30000000000E+02 0.  1.
    -200000    1    3    3    0    0 -0.29867555417E+03 -0.66117735145E+02  0.18324752951E+03  0.37062015410E+03  0.10100000000E+03 0. -1.
<mgrwt>
<rscale>  0 0.21469611E+04</rscale>
<asrwt>0</asrwt>
<pdfrwt beam="1">  1        2 0.14023668E+00 0.21469611E+04</pdfrwt>
<pdfrwt beam="2">  1       -2 0.16769908E+00 0.21469611E+04</pdfrwt>
<totfact> 0.58837038E+00</totfact>
</mgrwt>
</event>
<event>
 8    2  0.7237260E-052  0.1248508E+04  0.7818608E-02  0.9071426E-01
          2   -1    0    0  501    0  0.00000000000E+00  0.00000000000E+00  0.38397727897E+03  0.38397727898E+03  0.25500000000E-02 0.  1.
         -2   -1    0    0    0  501 -0.00000000000E+00 -0.00000000000E+00 -0.10148849773E+04  0.10148849773E+04  0.25500000000E-02 0. -1.
    -200001    2    1    2    0    0 -0.98659293239E+02  0.64187407468E+02 -0.28865371567E+03  0.68699115276E+03  0.61219457444E+03 0.  0.
   -5000001    2    3    3    0    0 -0.33566067684E+03 -0.39339203618E+02 -0.15928049760E+03  0.38068110626E+03  0.73021673686E+02 0.  0.
     200001    1    1    2    0    0  0.98659293239E+02 -0.64187407468E+02 -0.34225398270E+03  0.71187110357E+03  0.61300000000E+03 0.  1.
         11    1    4    4    0    0 -0.94827657960E+02 -0.27454138415E+02 -0.73198333889E+02  0.12289837474E+03  0.51100000000E-03 0.  1.
    -200002    1    4    4    0    0 -0.24083301888E+03 -0.11885065203E+02 -0.86082163713E+02  0.25778273151E+03  0.30000000000E+02 0.  1.
    -200000    1    3    3    0    0  0.23700138360E+03  0.10352661109E+03 -0.12937321807E+03  0.30631004650E+03  0.10100000000E+03 0.  1.
<mgrwt>
<rscale>  0 0.12485075E+04</rscale>
<asrwt>0</asrwt>
<pdfrwt beam="1">  1        2 0.54853898E-01 0.12485075E+04</pdfrwt>
<pdfrwt beam="2">  1       -2 0.14498357E+00 0.12485075E+04</pdfrwt>
<totfact> 0.29199575E+01</totfact>
</mgrwt>
</event>
<event>
 8    2  0.7237260E-052  0.1247530E+04  0.7818608E-02  0.9072242E-01
          2   -1    0    0  501    0  0.00000000000E+00  0.00000000000E+00  0.43478064565E+04  0.43478064565E+04  0.25500000000E-02 0.  1.
         -2   -1    0    0    0  501 -0.00000000000E+00 -0.00000000000E+00 -0.89489415191E+02  0.89489415227E+02  0.25500000000E-02 0. -1.
    -200001    2    1    2    0    0  0.10731172457E+03 -0.30934922276E+02  0.20445858910E+04  0.21375464547E+04  0.61343345550E+03 0.  0.
   -5000001    2    3    3    0    0 -0.13910803725E+03 -0.14483565540E+03  0.31229683282E+03  0.38120865763E+03  0.86384696327E+02 0.  0.
     200001    1    1    2    0    0 -0.10731172457E+03  0.30934922276E+02  0.22137311502E+04  0.22997494170E+04  0.61300000000E+03 0. -1.
         11    1    4    4    0    0 -0.87507811551E+02 -0.42134065199E+02  0.17059104347E+03  0.19630130067E+03  0.51100000000E-03 0.  1.
    -200002    1    4    4    0    0 -0.51600225703E+02 -0.10270159020E+03  0.14170578935E+03  0.18490735696E+03  0.30000000000E+02 0.  1.
    -200000    1    3    3    0    0  0.24641976182E+03  0.11390073313E+03  0.17322890582E+04  0.17563377970E+04  0.10100000000E+03 0. -1.
<mgrwt>
<rscale>  0 0.12475298E+04</rscale>
<asrwt>0</asrwt>
<pdfrwt beam="1">  1        2 0.62111524E+00 0.12475298E+04</pdfrwt>
<pdfrwt beam="2">  1       -2 0.12784201E-01 0.12475298E+04</pdfrwt>
<totfact> 0.14998931E+01</totfact>
</mgrwt>
</event>
<event>
 8    2  0.7237260E-052  0.1396385E+04  0.7818608E-02  0.8956440E-01
          2   -1    0    0  501    0  0.00000000000E+00  0.00000000000E+00  0.14964882915E+04  0.14964882915E+04  0.25500000000E-02 0.  1.
         -2   -1    0    0    0  501 -0.00000000000E+00 -0.00000000000E+00 -0.32574424529E+03  0.32574424530E+03  0.25500000000E-02 0. -1.
    -200001    2    1    2    0    0 -0.22611179052E+03  0.23770217119E+03  0.49537141514E+03  0.85294101471E+03  0.61195316130E+03 0.  0.
   -5000001    2    3    3    0    0 -0.36571249977E+03  0.30775463566E+03  0.25067466474E+03  0.54557607614E+03  0.79730289445E+02 0.  0.
     200001    1    1    2    0    0  0.22611179052E+03 -0.23770217119E+03  0.67537263102E+03  0.96929152206E+03  0.61300000000E+03 0. -1.
         11    1    4    4    0    0 -0.91728495733E+02  0.39429178000E+02  0.55447024222E+02  0.11420660884E+03  0.51100000000E-03 0.  1.
    -200002    1    4    4    0    0 -0.27398400404E+03  0.26832545766E+03  0.19522764052E+03  0.43136946730E+03  0.30000000000E+02 0.  1.
    -200000    1    3    3    0    0  0.13960070925E+03 -0.70052464475E+02  0.24469675040E+03  0.30736493856E+03  0.10100000000E+03 0.  1.
<mgrwt>
<rscale>  0 0.13963845E+04</rscale>
<asrwt>0</asrwt>
<pdfrwt beam="1">  1        2 0.21378404E+00 0.13963845E+04</pdfrwt>
<pdfrwt beam="2">  1       -2 0.46534892E-01 0.13963845E+04</pdfrwt>
<totfact> 0.62617500E+01</totfact>
</mgrwt>
</event>
<event>
 8    2  0.7237260E-052  0.1912530E+04  0.7818608E-02  0.8648644E-01
          2   -1    0    0  501    0  0.00000000000E+00  0.00000000000E+00  0.26053836865E+04  0.26053836865E+04  0.25500000000E-02 0.  1.
         -2   -1    0    0    0  501 -0.00000000000E+00 -0.00000000000E+00 -0.35098211431E+03  0.35098211432E+03  0.25500000000E-02 0. -1.
    -200001    2    1    2    0    0  0.62784798381E+03  0.28111442697E+03  0.73131445841E+03  0.11762585658E+04  0.61281723606E+03 0.  0.
   -5000001    2    3    3    0    0  0.59988212899E+03 -0.13891845351E+02  0.52990669085E+03  0.80399941071E+03  0.74581494826E+02 0.  0.
     200001    1    1    2    0    0 -0.62784798381E+03 -0.28111442697E+03  0.15230871138E+04  0.17801072349E+04  0.61300000000E+03 0.  1.
         11    1    4    4    0    0  0.87301690407E+02 -0.23151549704E+02  0.94511284699E+02  0.13072858271E+03  0.51100000000E-03 0.  1.
    -200002    1    4    4    0    0  0.51258043858E+03  0.92597043527E+01  0.43539540615E+03  0.67327082800E+03  0.30000000000E+02 0.  1.
    -200000    1    3    3    0    0  0.27965854815E+02  0.29500627232E+03  0.20140776756E+03  0.37225915513E+03  0.10100000000E+03 0. -1.
<mgrwt>
<rscale>  0 0.19125303E+04</rscale>
<asrwt>0</asrwt>
<pdfrwt beam="1">  1        2 0.37219767E+00 0.19125303E+04</pdfrwt>
<pdfrwt beam="2">  1       -2 0.50140301E-01 0.19125303E+04</pdfrwt>
<totfact> 0.13692253E+01</totfact>
</mgrwt>
</event>
<event>
 8    2  0.7237260E-052  0.1892205E+04  0.7818608E-02  0.8658746E-01
          2   -1    0    0  501    0  0.00000000000E+00  0.00000000000E+00  0.27033165339E+04  0.27033165339E+04  0.25500000000E-02 0.  1.
         -2   -1    0    0    0  501 -0.00000000000E+00 -0.00000000000E+00 -0.33111543019E+03  0.33111543020E+03  0.25500000000E-02 0. -1.
    -200001    2    1    2    0    0 -0.45719733104E+03 -0.34255132317E+03  0.48537715563E+03  0.96991157922E+03  0.61544023250E+03 0.  0.
   -5000001    2    3    3    0    0 -0.78851481344E+02  0.10900861479E+03 -0.60461262733E+02  0.16047193446E+03  0.63207936606E+02 0.  0.
     200001    1    1    2    0    0  0.45719733104E+03  0.34255132317E+03  0.18868239481E+04  0.20645203849E+04  0.61300000000E+03 0.  1.
         11    1    4    4    0    0 -0.69011252224E+02  0.75134710501E+02 -0.36647809850E+02  0.10840128977E+03  0.51100000000E-03 0.  1.
    -200002    1    4    4    0    0 -0.98402291196E+01  0.33873904286E+02 -0.23813452883E+02  0.52070644694E+02  0.30000000000E+02 0. -1.
    -200000    1    3    3    0    0 -0.37834584969E+03 -0.45155993796E+03  0.54583841836E+03  0.80943964476E+03  0.10100000000E+03 0.  1.
<mgrwt>
<rscale>  0 0.18922049E+04</rscale>
<asrwt>0</asrwt>
<pdfrwt beam="1">  1        2 0.38618808E+00 0.18922049E+04</pdfrwt>
<pdfrwt beam="2">  1       -2 0.47302203E-01 0.18922049E+04</pdfrwt>
<totfact> 0.13682203E+01</totfact>
</mgrwt>
</event>
<event>
 8    2  0.7237260E-052  0.2134966E+04  0.7818608E-02  0.8545995E-01
         -2   -1    0    0    0  501 -0.00000000000E+00  0.00000000000E+00  0.73704155385E+03  0.73704155385E+03  0.25500000000E-02 0. -1.
          2   -1    0    0  501    0  0.00000000000E+00 -0.00000000000E+00 -0.15460734492E+04  0.15460734492E+04  0.25500000000E-02 0.  1.
    -200001    2    1    2    0    0 -0.65819416216E+03  0.47626203888E+03 -0.61946954289E+02  0.10205976788E+04  0.61460321518E+03 0.  0.
   -5000001    2    3    3    0    0 -0.32865404367E+03  0.14397534922E+03 -0.31136268942E+03  0.48076405376E+03  0.73790036090E+02 0.  0.
     200001    1    1    2    0    0  0.65819416216E+03 -0.47626203888E+03 -0.74708494103E+03  0.12625173242E+04  0.61300000000E+03 0. -1.
         11    1    4    4    0    0 -0.56224850622E+02  0.21956656917E+02 -0.88107129316E+02  0.10679978861E+03  0.51100000000E-03 0.  1.
    -200002    1    4    4    0    0 -0.27242919305E+03  0.12201869230E+03 -0.22325556010E+03  0.37396426515E+03  0.30000000000E+02 0.  1.
    -200000    1    3    3    0    0 -0.32954011849E+03  0.33228668966E+03  0.24941573513E+03  0.53983362506E+03  0.10100000000E+03 0. -1.
<mgrwt>
<rscale>  0 0.21349664E+04</rscale>
<asrwt>0</asrwt>
<pdfrwt beam="1">  1        2 0.22086763E+00 0.21349664E+04</pdfrwt>
<pdfrwt beam="2">  1       -2 0.10529165E+00 0.21349664E+04</pdfrwt>
<totfact> 0.93151439E+00</totfact>
</mgrwt>
</event>
<event>
 8    2  0.7237260E-052  0.3341386E+04  0.7818608E-02  0.8152444E-01
         -2   -1    0    0    0  501 -0.00000000000E+00  0.00000000000E+00  0.93802757444E+03  0.93802757444E+03  0.25500000000E-02 0. -1.
          2   -1    0    0  501    0  0.00000000000E+00 -0.00000000000E+00 -0.29756211812E+04  0.29756211812E+04  0.25500000000E-02 0.  1.
    -200001    2    1    2    0    0 -0.20425566306E+02  0.12348074019E+04  0.86573217499E+02  0.13812545879E+04  0.61253799149E+03 0.  0.
   -5000001    2    3    3    0    0 -0.22243930310E+03  0.59479054998E+03 -0.16005363419E+03  0.65913484396E+03  0.74743125401E+02 0.  0.
     200001    1    1    2    0    0  0.20425566306E+02 -0.12348074019E+04 -0.21241668243E+04  0.25323941678E+04  0.61300000000E+03 0.  1.
         11    1    4    4    0    0 -0.68611316097E+02  0.16011556547E+03 -0.15027964909E+02  0.17484377808E+03  0.51100000000E-03 0.  1.
    -200002    1    4    4    0    0 -0.15382798700E+03  0.43467498451E+03 -0.14502566928E+03  0.48429106588E+03  0.30000000000E+02 0.  1.
    -200000    1    3    3    0    0  0.20201373679E+03  0.64001685193E+03  0.24662685169E+03  0.72211974393E+03  0.10100000000E+03 0. -1.
<mgrwt>
<rscale>  0 0.33413858E+04</rscale>
<asrwt>0</asrwt>
<pdfrwt beam="1">  1        2 0.42508874E+00 0.33413858E+04</pdfrwt>
<pdfrwt beam="2">  1       -2 0.13400394E+00 0.33413858E+04</pdfrwt>
<totfact> 0.82119829E-01</totfact>
</mgrwt>
</event>
<event>
 8    2  0.7237260E-052  0.2308192E+04  0.7818608E-02  0.8474698E-01
          2   -1    0    0  501    0  0.00000000000E+00  0.00000000000E+00  0.16646529363E+04  0.16646529363E+04  0.25500000000E-02 0.  1.
         -2   -1    0    0    0  501 -0.00000000000E+00 -0.00000000000E+00 -0.80012950630E+03  0.80012950630E+03  0.25500000000E-02 0. -1.
    -200001    2    1    2    0    0  0.83289815528E+03 -0.37530082810E+03  0.80459669122E+03  0.13629974079E+04  0.61303837542E+03 0.  0.
   -5000001    2    3    3    0    0  0.80505343874E+03 -0.41732034077E+03  0.82533967723E+03  0.12482270321E+04  0.23370458886E+03 0.  0.
     200001    1    1    2    0    0 -0.83289815528E+03  0.37530082810E+03  0.59926738746E+02  0.11017850347E+04  0.61300000000E+03 0. -1.
         11    1    4    4    0    0  0.32663621982E+03 -0.46034364165E+02  0.30399481711E+03  0.44857912525E+03  0.51100000000E-03 0.  1.
    -200002    1    4    4    0    0  0.47841721892E+03 -0.37128597660E+03  0.52134486012E+03  0.79964790687E+03  0.30000000000E+02 0.  1.
    -200000    1    3    3    0    0  0.27844716542E+02  0.42019512674E+02 -0.20742986012E+02  0.11477037577E+03  0.10100000000E+03 0.  1.
<mgrwt>
<rscale>  0 0.23081923E+04</rscale>
<asrwt>0</asrwt>
<pdfrwt beam="1">  1        2 0.23780756E+00 0.23081923E+04</pdfrwt>
<pdfrwt beam="2">  1       -2 0.11430422E+00 0.23081923E+04</pdfrwt>
<totfact> 0.65247566E+00</totfact>
</mgrwt>
</event>
<event>
 8    2  0.7237260E-052  0.1426764E+04  0.7818608E-02  0.8934670E-01
         -2   -1    0    0    0  501 -0.00000000000E+00  0.00000000000E+00  0.18944622491E+03  0.18944622493E+03  0.25500000000E-02 0. -1.
          2   -1    0    0  501    0  0.00000000000E+00 -0.00000000000E+00 -0.26863248287E+04  0.26863248287E+04  0.25500000000E-02 0.  1.
    -200001    2    1    2    0    0 -0.32840606301E+03  0.87417916448E+02 -0.15196340430E+04  0.16731620707E+04  0.61212029512E+03 0.  0.
   -5000001    2    3    3    0    0  0.66669137174E+02  0.95671149393E+02 -0.45341431433E+02  0.14349144134E+03  0.70258135872E+02 0.  0.
     200001    1    1    2    0    0  0.32840606301E+03 -0.87417916448E+02 -0.97724456076E+03  0.12026089830E+04  0.61300000000E+03 0.  1.
         11    1    4    4    0    0  0.16156311566E+02  0.33598371288E+01 -0.28288300903E+02  0.32749700414E+02  0.51100000000E-03 0.  1.
    -200002    1    4    4    0    0  0.50512825608E+02  0.92311312264E+02 -0.17053130530E+02  0.11074174093E+03  0.30000000000E+02 0.  1.
    -200000    1    3    3    0    0 -0.39507520018E+03 -0.82532329448E+01 -0.14742926116E+04  0.15296706293E+04  0.10100000000E+03 0. -1.
<mgrwt>
<rscale>  0 0.14267643E+04</rscale>
<asrwt>0</asrwt>
<pdfrwt beam="1">  1        2 0.38376067E+00 0.14267643E+04</pdfrwt>
<pdfrwt beam="2">  1       -2 0.27063748E-01 0.14267643E+04</pdfrwt>
<totfact> 0.42467088E+01</totfact>
</mgrwt>
</event>
<event>
 8    2  0.7237260E-052  0.2158098E+04  0.7818608E-02  0.8536074E-01
         -2   -1    0    0    0  501 -0.00000000000E+00  0.00000000000E+00  0.43754386400E+03  0.43754386401E+03  0.25500000000E-02 0. -1.
          2   -1    0    0  501    0  0.00000000000E+00 -0.00000000000E+00 -0.26610962622E+04  0.26610962622E+04  0.25500000000E-02 0.  1.
    -200001    2    1    2    0    0 -0.27842289987E+03 -0.82196500485E+03 -0.13796371768E+04  0.17417658943E+04  0.61416928492E+03 0.  0.
   -5000001    2    3    3    0    0  0.14651329149E+03 -0.27282924015E+03 -0.23616978410E+03  0.40018491166E+03  0.92031829998E+02 0.  0.
     200001    1    1    2    0    0  0.27842289987E+03  0.82196500485E+03 -0.84391522144E+03  0.13568742320E+04  0.61300000000E+03 0.  1.
         11    1    4    4    0    0  0.32737167109E+02 -0.22640187857E+02 -0.56262245887E+01  0.40198938044E+02  0.51100000000E-03 0.  1.
    -200002    1    4    4    0    0  0.11377612438E+03 -0.25018905229E+03 -0.23054355951E+03  0.35998597361E+03  0.30000000000E+02 0.  1.
    -200000    1    3    3    0    0 -0.42493619136E+03 -0.54913576470E+03 -0.11434673927E+04  0.13415809826E+04  0.10100000000E+03 0. -1.
<mgrwt>
<rscale>  0 0.21580976E+04</rscale>
<asrwt>0</asrwt>
<pdfrwt beam="1">  1        2 0.38015660E+00 0.21580976E+04</pdfrwt>
<pdfrwt beam="2">  1       -2 0.62506267E-01 0.21580976E+04</pdfrwt>
<totfact> 0.79117720E+00</totfact>
</mgrwt>
</event>
<event>
 8    2  0.7237260E-052  0.1536761E+04  0.7818608E-02  0.8860368E-01
         -2   -1    0    0    0  501 -0.00000000000E+00  0.00000000000E+00  0.50328578804E+03  0.50328578805E+03  0.25500000000E-02 0. -1.
          2   -1    0    0  501    0  0.00000000000E+00 -0.00000000000E+00 -0.11731086492E+04  0.11731086492E+04  0.25500000000E-02 0.  1.
    -200001    2    1    2    0    0 -0.39279564944E+03  0.10819546416E+03 -0.57478461257E+03  0.93423815360E+03  0.61353801522E+03 0.  0.
   -5000001    2    3    3    0    0 -0.19907642523E+03  0.31597085381E+03 -0.47364308995E+03  0.61623130152E+03  0.12623088681E+03 0.  0.
     200001    1    1    2    0    0  0.39279564944E+03 -0.10819546416E+03 -0.95038248604E+02  0.74215628366E+03  0.61300000000E+03 0.  1.
         11    1    4    4    0    0 -0.15549059359E+03  0.14481128730E+03 -0.22163945260E+03  0.30703693682E+03  0.51100000000E-03 0.  1.
    -200002    1    4    4    0    0 -0.43585831642E+02  0.17115956651E+03 -0.25200363735E+03  0.30919436470E+03  0.30000000000E+02 0.  1.
    -200000    1    3    3    0    0 -0.19371922421E+03 -0.20777538965E+03 -0.10114152263E+03  0.31800685208E+03  0.10100000000E+03 0. -1.
<mgrwt>
<rscale>  0 0.15367614E+04</rscale>
<asrwt>0</asrwt>
<pdfrwt beam="1">  1        2 0.16758695E+00 0.15367614E+04</pdfrwt>
<pdfrwt beam="2">  1       -2 0.71897970E-01 0.15367614E+04</pdfrwt>
<totfact> 0.37478649E+01</totfact>
</mgrwt>
</event>
<event>
 8    2  0.7237260E-052  0.2088406E+04  0.7818608E-02  0.8566368E-01
         -2   -1    0    0    0  501 -0.00000000000E+00  0.00000000000E+00  0.66484502260E+03  0.66484502261E+03  0.25500000000E-02 0. -1.
          2   -1    0    0  501    0  0.00000000000E+00 -0.00000000000E+00 -0.16400207709E+04  0.16400207709E+04  0.25500000000E-02 0.  1.
    -200001    2    1    2    0    0 -0.12300209840E+03 -0.76279570214E+03 -0.11026067902E+03  0.99306021474E+03  0.61402310489E+03 0.  0.
   -5000001    2    3    3    0    0  0.22480751420E+03 -0.29009322131E+03 -0.12645136152E+03  0.39734023001E+03  0.84834050139E+02 0.  0.
     200001    1    1    2    0    0  0.12300209840E+03  0.76279570214E+03 -0.86491506926E+03  0.13118055788E+04  0.61300000000E+03 0.  1.
         11    1    4    4    0    0  0.65969439522E+02 -0.67003894184E+02  0.42894018283E+00  0.94030169503E+02  0.51100000000E-03 0.  1.
    -200002    1    4    4    0    0  0.15883807468E+03 -0.22308932713E+03 -0.12688030170E+03  0.30331006051E+03  0.30000000000E+02 0.  1.
    -200000    1    3    3    0    0 -0.34780961260E+03 -0.47270248083E+03  0.16190682501E+02  0.59571998473E+03  0.10100000000E+03 0. -1.
<mgrwt>
<rscale>  0 0.20884058E+04</rscale>
<asrwt>0</asrwt>
<pdfrwt beam="1">  1        2 0.23428868E+00 0.20884058E+04</pdfrwt>
<pdfrwt beam="2">  1       -2 0.94977861E-01 0.20884058E+04</pdfrwt>
<totfact> 0.10652329E+01</totfact>
</mgrwt>
</event>
<event>
 8    2  0.7237260E-052  0.1493228E+04  0.7818608E-02  0.8888969E-01
          2   -1    0    0  501    0  0.00000000000E+00  0.00000000000E+00  0.17886614303E+04  0.17886614303E+04  0.25500000000E-02 0.  1.
         -2   -1    0    0    0  501 -0.00000000000E+00 -0.00000000000E+00 -0.31164771855E+03  0.31164771856E+03  0.25500000000E-02 0. -1.
    -200001    2    1    2    0    0 -0.33663332842E+03 -0.55909531704E+02  0.37940824391E+03  0.79763703488E+03  0.61304677662E+03 0.  0.
   -5000001    2    3    3    0    0  0.53031156216E+02  0.29089008412E+02  0.37209125338E+03  0.38615471356E+03  0.83696403894E+02 0.  0.
     200001    1    1    2    0    0  0.33663332842E+03  0.55909531704E+02  0.10976054678E+04  0.13026721140E+04  0.61300000000E+03 0. -1.
         11    1    4    4    0    0  0.47597701538E+02  0.47539360392E+02  0.22759166506E+03  0.23732572128E+03  0.51100000000E-03 0.  1.
    -200002    1    4    4    0    0  0.54334546780E+01 -0.18450351980E+02  0.14449958832E+03  0.14882899228E+03  0.30000000000E+02 0.  1.
    -200000    1    3    3    0    0 -0.38966448463E+03 -0.84998540116E+02  0.73169905302E+01  0.41148232132E+03  0.10100000000E+03 0. -1.
<mgrwt>
<rscale>  0 0.14932277E+04</rscale>
<asrwt>0</asrwt>
<pdfrwt beam="1">  1        2 0.25552307E+00 0.14932277E+04</pdfrwt>
<pdfrwt beam="2">  1       -2 0.44521100E-01 0.14932277E+04</pdfrwt>
<totfact> 0.47768568E+01</totfact>
</mgrwt>
</event>
<event>
 8    2  0.7237260E-052  0.1500602E+04  0.7818608E-02  0.8884053E-01
         -2   -1    0    0    0  501 -0.00000000000E+00  0.00000000000E+00  0.11791019593E+04  0.11791019593E+04  0.25500000000E-02 0. -1.
          2   -1    0    0  501    0  0.00000000000E+00 -0.00000000000E+00 -0.47744096089E+03  0.47744096090E+03  0.25500000000E-02 0.  1.
    -200001    2    1    2    0    0 -0.39684317610E+03  0.37172277842E+02  0.16395992977E+03  0.74893192209E+03  0.61249480055E+03 0.  0.
   -5000001    2    3    3    0    0 -0.46815377533E+03 -0.12926443238E+02 -0.69568421513E+02  0.47998662232E+03  0.78818411799E+02 0.  0.
     200001    1    1    2    0    0  0.39684317610E+03 -0.37172277842E+02  0.53770106861E+03  0.90761099809E+03  0.61300000000E+03 0. -1.
         11    1    4    4    0    0 -0.17136808599E+03 -0.29736499466E+02 -0.33305319547E+01  0.17396083679E+03  0.51100000000E-03 0.  1.
    -200002    1    4    4    0    0 -0.29678568935E+03  0.16810056229E+02 -0.66237889558E+02  0.30602578552E+03  0.30000000000E+02 0.  1.
    -200000    1    3    3    0    0  0.71310599231E+02  0.50098721080E+02  0.23352835128E+03  0.26894529977E+03  0.10100000000E+03 0. -1.
<mgrwt>
<rscale>  0 0.15006020E+04</rscale>
<asrwt>0</asrwt>
<pdfrwt beam="1">  1        2 0.68205851E-01 0.15006020E+04</pdfrwt>
<pdfrwt beam="2">  1       -2 0.16844314E+00 0.15006020E+04</pdfrwt>
<totfact> 0.14969935E+01</totfact>
</mgrwt>
</event>
<event>
 8    2  0.7237260E-052  0.1771798E+04  0.7818608E-02  0.8721442E-01
         -2   -1    0    0    0  501 -0.00000000000E+00  0.00000000000E+00  0.85460252295E+03  0.85460252295E+03  0.25500000000E-02 0. -1.
          2   -1    0    0  501    0  0.00000000000E+00 -0.00000000000E+00 -0.91834153499E+03  0.91834153500E+03  0.25500000000E-02 0.  1.
    -200001    2    1    2    0    0  0.57125180215E+03 -0.21332676371E+03 -0.22426759404E+03  0.89352643519E+03  0.61339759298E+03 0.  0.
   -5000001    2    3    3    0    0  0.44859409301E+03 -0.20619094371E+03 -0.41253938835E+03  0.64706527786E+03  0.68944625064E+02 0.  0.
     200001    1    1    2    0    0 -0.57125180215E+03  0.21332676371E+03  0.16052858199E+03  0.87941762276E+03  0.61300000000E+03 0. -1.
         11    1    4    4    0    0 -0.12754252676E+01 -0.18282970650E+01 -0.63319887935E+01  0.67129324526E+01  0.51100000000E-03 0.  1.
    -200002    1    4    4    0    0  0.44986951828E+03 -0.20436264664E+03 -0.40620739955E+03  0.64035234541E+03  0.30000000000E+02 0.  1.
    -200000    1    3    3    0    0  0.12265770914E+03 -0.71358199995E+01  0.18827179431E+03  0.24646115733E+03  0.10100000000E+03 0. -1.
<mgrwt>
<rscale>  0 0.17717979E+04</rscale>
<asrwt>0</asrwt>
<pdfrwt beam="1">  1        2 0.13119165E+00 0.17717979E+04</pdfrwt>
<pdfrwt beam="2">  1       -2 0.12208608E+00 0.17717979E+04</pdfrwt>
<totfact> 0.15272132E+01</totfact>
</mgrwt>
</event>
<event>
 8    2  0.7237260E-052  0.1325601E+04  0.7818608E-02  0.9009506E-01
         -2   -1    0    0    0  501 -0.00000000000E+00  0.00000000000E+00  0.19987330042E+03  0.19987330044E+03  0.25500000000E-02 0. -1.
          2   -1    0    0  501    0  0.00000000000E+00 -0.00000000000E+00 -0.21979140978E+04  0.21979140978E+04  0.25500000000E-02 0.  1.
    -200001    2    1    2    0    0  0.21782915604E+03  0.82024452376E+02 -0.11732240807E+04  0.13440942892E+04  0.61315345764E+03 0.  0.
   -5000001    2    3    3    0    0  0.33437668908E+03 -0.13797837483E+03 -0.53392197181E+03  0.65062997294E+03  0.86028411540E+02 0.  0.
     200001    1    1    2    0    0 -0.21782915604E+03 -0.82024452376E+02 -0.82481671669E+03  0.10536931091E+04  0.61300000000E+03 0.  1.
         11    1    4    4    0    0  0.13675522365E+03 -0.67556295621E+02 -0.16159593464E+03  0.22221406429E+03  0.51100000000E-03 0.  1.
    -200002    1    4    4    0    0  0.19762146543E+03 -0.70422079213E+02 -0.37232603716E+03  0.42841590866E+03  0.30000000000E+02 0.  1.
    -200000    1    3    3    0    0 -0.11654753303E+03  0.22000282721E+03 -0.63930210890E+03  0.69346431623E+03  0.10100000000E+03 0.  1.
<mgrwt>
<rscale>  0 0.13256008E+04</rscale>
<asrwt>0</asrwt>
<pdfrwt beam="1">  1        2 0.31398771E+00 0.13256008E+04</pdfrwt>
<pdfrwt beam="2">  1       -2 0.28553330E-01 0.13256008E+04</pdfrwt>
<totfact> 0.69853995E+01</totfact>
</mgrwt>
</event>
<event>
 8    2  0.7237260E-052  0.1246964E+04  0.7818608E-02  0.9072714E-01
         -2   -1    0    0    0  501 -0.00000000000E+00  0.00000000000E+00  0.81669969492E+03  0.81669969492E+03  0.25500000000E-02 0. -1.
          2   -1    0    0  501    0  0.00000000000E+00 -0.00000000000E+00 -0.47597649938E+03  0.47597649939E+03  0.25500000000E-02 0.  1.
    -200001    2    1    2    0    0 -0.97251247254E+02  0.48673770724E+01  0.22933757861E+03  0.66207548696E+03  0.61340584365E+03 0.  0.
   -5000001    2    3    3    0    0  0.15460410287E+03 -0.17167732231E+03  0.22759617440E+03  0.33834229319E+03  0.96436285402E+02 0.  0.
     200001    1    1    2    0    0  0.97251247254E+02 -0.48673770724E+01  0.11138561693E+03  0.63060070735E+03  0.61300000000E+03 0.  1.
         11    1    4    4    0    0  0.26996461774E+02 -0.68150850768E+02  0.28979829579E+02  0.78823714271E+02  0.51100000000E-03 0.  1.
    -200002    1    4    4    0    0  0.12760764109E+03 -0.10352647154E+03  0.19861634482E+03  0.25951857892E+03  0.30000000000E+02 0.  1.
    -200000    1    3    3    0    0 -0.25185535012E+03  0.17654469938E+03  0.17414042049E+01  0.32373319377E+03  0.10100000000E+03 0. -1.
<mgrwt>
<rscale>  0 0.12469641E+04</rscale>
<asrwt>0</asrwt>
<pdfrwt beam="1">  1        2 0.67996643E-01 0.12469641E+04</pdfrwt>
<pdfrwt beam="2">  1       -2 0.11667138E+00 0.12469641E+04</pdfrwt>
<totfact> 0.39815755E+01</totfact>
</mgrwt>
</event>
<event>
 8    2  0.7237260E-052  0.1541769E+04  0.7818608E-02  0.8857143E-01
         -2   -1    0    0    0  501 -0.00000000000E+00  0.00000000000E+00  0.13112950805E+04  0.13112950805E+04  0.25500000000E-02 0. -1.
          2   -1    0    0  501    0  0.00000000000E+00 -0.00000000000E+00 -0.45318749711E+03  0.45318749711E+03  0.25500000000E-02 0.  1.
    -200001    2    1    2    0    0 -0.11101123230E+03  0.43419575472E+03  0.28560702902E+03  0.81349607306E+03  0.61591804547E+03 0.  0.
   -5000001    2    3    3    0    0  0.15776458542E+03  0.41724774885E+03  0.26659369640E+03  0.52524239674E+03  0.76302215173E+02 0.  0.
     200001    1    1    2    0    0  0.11101123230E+03 -0.43419575472E+03  0.57250055438E+03  0.95098650458E+03  0.61300000000E+03 0. -1.
         11    1    4    4    0    0  0.12420301338E+03  0.35207565671E+03  0.21873728411E+03  0.43270042297E+03  0.51100000000E-03 0.  1.
    -200002    1    4    4    0    0  0.33561572033E+02  0.65172092140E+02  0.47856412287E+02  0.92541973764E+02  0.30000000000E+02 0.  1.
    -200000    1    3    3    0    0 -0.26877581772E+03  0.16948005870E+02  0.19013332630E+02  0.28825367632E+03  0.10100000000E+03 0.  1.
<mgrwt>
<rscale>  0 0.15417685E+04</rscale>
<asrwt>0</asrwt>
<pdfrwt beam="1">  1        2 0.64741071E-01 0.15417685E+04</pdfrwt>
<pdfrwt beam="2">  1       -2 0.18732787E+00 0.15417685E+04</pdfrwt>
<totfact> 0.11702104E+01</totfact>
</mgrwt>
</event>
<event>
 8    2  0.7237260E-052  0.1426053E+04  0.7818608E-02  0.8935173E-01
         -2   -1    0    0    0  501 -0.00000000000E+00  0.00000000000E+00  0.58895864566E+03  0.58895864566E+03  0.25500000000E-02 0.  1.
          2   -1    0    0  501    0  0.00000000000E+00 -0.00000000000E+00 -0.86322985962E+03  0.86322985963E+03  0.25500000000E-02 0. -1.
    -200001    2    1    2    0    0 -0.90949436577E+02  0.32138639762E+03  0.11263143197E+02  0.69796049884E+03  0.61274871111E+03 0.  0.
   -5000001    2    3    3    0    0 -0.29494706763E+03  0.91263422724E+02  0.14294963798E+03  0.34851243409E+03  0.75521736490E+02 0.  0.
     200001    1    1    2    0    0  0.90949436577E+02 -0.32138639762E+03 -0.28553435716E+03  0.75422800645E+03  0.61300000000E+03 0. -1.
         11    1    4    4    0    0 -0.13105580806E+03  0.69570463164E+02  0.50489550535E+02  0.15673183750E+03  0.51100000000E-03 0.  1.
    -200002    1    4    4    0    0 -0.16389125957E+03  0.21692959560E+02  0.92460087449E+02  0.19178059659E+03  0.30000000000E+02 0.  1.
    -200000    1    3    3    0    0  0.20399763105E+03  0.23012297490E+03 -0.13168649479E+03  0.34944806475E+03  0.10100000000E+03 0. -1.
<mgrwt>
<rscale>  0 0.14260529E+04</rscale>
<asrwt>0</asrwt>
<pdfrwt beam="1">  1        2 0.12331855E+00 0.14260529E+04</pdfrwt>
<pdfrwt beam="2">  1       -2 0.84136949E-01 0.14260529E+04</pdfrwt>
<totfact> 0.41287133E+01</totfact>
</mgrwt>
</event>
<event>
 8    2  0.7237260E-052  0.2568885E+04  0.7818608E-02  0.8378848E-01
          2   -1    0    0  501    0  0.00000000000E+00  0.00000000000E+00  0.25744488156E+04  0.25744488156E+04  0.25500000000E-02 0. -1.
         -2   -1    0    0    0  501 -0.00000000000E+00 -0.00000000000E+00 -0.64083337926E+03  0.64083337926E+03  0.25500000000E-02 0.  1.
    -200001    2    1    2    0    0 -0.96637230854E+03  0.55320100098E+03  0.73544257028E+03  0.14684868425E+04  0.61292009765E+03 0.  0.
   -5000001    2    3    3    0    0 -0.23358992060E+03  0.27379332414E+03 -0.26277028880E+02  0.37055404593E+03  0.84218663963E+02 0.  0.
     200001    1    1    2    0    0  0.96637230854E+03 -0.55320100098E+03  0.11981728661E+04  0.17467953524E+04  0.61300000000E+03 0. -1.
         11    1    4    4    0    0 -0.20569901881E+02  0.19409431763E+02  0.19388286349E+02  0.34289248352E+02  0.51100000000E-03 0.  1.
    -200002    1    4    4    0    0 -0.21302001872E+03  0.25438389238E+03 -0.45665315229E+02  0.33626479758E+03  0.30000000000E+02 0.  1.
    -200000    1    3    3    0    0 -0.73278238794E+03  0.27940767684E+03  0.76171959916E+03  0.10979327965E+04  0.10100000000E+03 0. -1.
<mgrwt>
<rscale>  0 0.25688852E+04</rscale>
<asrwt>0</asrwt>
<pdfrwt beam="1">  1        2 0.36777840E+00 0.25688852E+04</pdfrwt>
<pdfrwt beam="2">  1       -2 0.91547626E-01 0.25688852E+04</pdfrwt>
<totfact> 0.36469924E+00</totfact>
</mgrwt>
</event>
<event>
 8    2  0.7237260E-052  0.1397497E+04  0.7818608E-02  0.8955632E-01
         -2   -1    0    0    0  501 -0.00000000000E+00  0.00000000000E+00  0.11682801386E+04  0.11682801386E+04  0.25500000000E-02 0. -1.
          2   -1    0    0  501    0  0.00000000000E+00 -0.00000000000E+00 -0.41792156706E+03  0.41792156707E+03  0.25500000000E-02 0.  1.
    -200001    2    1    2    0    0  0.10581679550E+03 -0.31130138646E+03  0.44800773417E+03  0.82772245329E+03  0.61343930620E+03 0.  0.
   -5000001    2    3    3    0    0 -0.16908658223E+02 -0.31115930333E+03  0.55012877489E+03  0.63880113597E+03  0.91209690215E+02 0.  0.
     200001    1    1    2    0    0 -0.10581679550E+03  0.31130138646E+03  0.30235083737E+03  0.75847925237E+03  0.61300000000E+03 0. -1.
         11    1    4    4    0    0 -0.45123754763E+02 -0.10606991972E+03  0.18381435939E+03  0.21696704780E+03  0.51100000000E-03 0.  1.
    -200002    1    4    4    0    0  0.28215096540E+02 -0.20508938361E+03  0.36631441550E+03  0.42183408817E+03  0.30000000000E+02 0.  1.
    -200000    1    3    3    0    0  0.12272545372E+03 -0.14208312724E+00 -0.10212104072E+03  0.18892131732E+03  0.10100000000E+03 0.  1.
<mgrwt>
<rscale>  0 0.13974970E+04</rscale>
<asrwt>0</asrwt>
<pdfrwt beam="1">  1        2 0.59703081E-01 0.13974970E+04</pdfrwt>
<pdfrwt beam="2">  1       -2 0.16689716E+00 0.13974970E+04</pdfrwt>
<totfact> 0.17987771E+01</totfact>
</mgrwt>
</event>
<event>
 8    2  0.7237260E-052  0.1371702E+04  0.7818608E-02  0.8974560E-01
         -2   -1    0    0    0  501 -0.00000000000E+00  0.00000000000E+00  0.25507713451E+03  0.25507713452E+03  0.25500000000E-02 0. -1.
          2   -1    0    0  501    0  0.00000000000E+00 -0.00000000000E+00 -0.18441161016E+04  0.18441161016E+04  0.25500000000E-02 0.  1.
    -200001    2    1    2    0    0  0.30928023747E+02  0.30639069631E+03 -0.77893577377E+03  0.10376528529E+04  0.61249547100E+03 0.  0.
   -5000001    2    3    3    0    0 -0.11753352589E+03  0.61691946235E+02  0.15047612418E+02  0.18763583684E+03  0.13176020147E+03 0.  0.
     200001    1    1    2    0    0 -0.30928023747E+02 -0.30639069631E+03 -0.81010319333E+03  0.10615403833E+04  0.61300000000E+03 0.  1.
         11    1    4    4    0    0 -0.85778859034E+02 -0.81249428064E+01  0.48348185750E+02  0.98800680253E+02  0.51100000000E-03 0.  1.
    -200002    1    4    4    0    0 -0.31754666851E+02  0.69816889041E+02 -0.33300573332E+02  0.88835156590E+02  0.30000000000E+02 0. -1.
    -200000    1    3    3    0    0  0.14846154963E+03  0.24469875008E+03 -0.79398338619E+03  0.85001701604E+03  0.10100000000E+03 0.  1.
<mgrwt>
<rscale>  0 0.13717024E+04</rscale>
<asrwt>0</asrwt>
<pdfrwt beam="1">  1        2 0.26344515E+00 0.13717024E+04</pdfrwt>
<pdfrwt beam="2">  1       -2 0.36439592E-01 0.13717024E+04</pdfrwt>
<totfact> 0.66803639E+01</totfact>
</mgrwt>
</event>
<event>
 8    2  0.7237260E-052  0.1498993E+04  0.7818608E-02  0.8885123E-01
         -2   -1    0    0    0  501 -0.00000000000E+00  0.00000000000E+00  0.73935750192E+03  0.73935750192E+03  0.25500000000E-02 0. -1.
          2   -1    0    0  501    0  0.00000000000E+00 -0.00000000000E+00 -0.75977473061E+03  0.75977473061E+03  0.25500000000E-02 0.  1.
    -200001    2    1    2    0    0 -0.75803184836E+02  0.78707949958E+02  0.40831123930E+03  0.74314402926E+03  0.61123147487E+03 0.  0.
   -5000001    2    3    3    0    0 -0.14911536607E+03  0.14684275349E+03  0.49166334684E+03  0.57832412391E+03  0.22119620030E+03 0.  0.
     200001    1    1    2    0    0  0.75803184836E+02 -0.78707949958E+02 -0.42872846799E+03  0.75598820327E+03  0.61300000000E+03 0.  1.
         11    1    4    4    0    0 -0.92312036739E+02  0.82677227113E+01  0.38940810520E+02  0.10052986666E+03  0.51100000000E-03 0.  1.
    -200002    1    4    4    0    0 -0.56803329330E+02  0.13857503078E+03  0.45272253632E+03  0.47779425726E+03  0.30000000000E+02 0.  1.
    -200000    1    3    3    0    0  0.73312181233E+02 -0.68134803529E+02 -0.83352107540E+02  0.16481990535E+03  0.10100000000E+03 0.  1.
<mgrwt>
<rscale>  0 0.14989932E+04</rscale>
<asrwt>0</asrwt>
<pdfrwt beam="1">  1        2 0.10853925E+00 0.14989932E+04</pdfrwt>
<pdfrwt beam="2">  1       -2 0.10562250E+00 0.14989932E+04</pdfrwt>
<totfact> 0.28499492E+01</totfact>
</mgrwt>
</event>
<event>
 8    2  0.7237260E-052  0.1707965E+04  0.7818608E-02  0.8756835E-01
          2   -1    0    0  501    0  0.00000000000E+00  0.00000000000E+00  0.27273072392E+04  0.27273072392E+04  0.25500000000E-02 0.  1.
         -2   -1    0    0    0  501 -0.00000000000E+00 -0.00000000000E+00 -0.26740155283E+03  0.26740155284E+03  0.25500000000E-02 0. -1.
    -200001    2    1    2    0    0 -0.14477386890E+03  0.26778922539E+02  0.21990733991E+03  0.66768533365E+03  0.61299908875E+03 0.  0.
   -5000001    2    3    3    0    0 -0.22343586023E+03 -0.21201809065E+03  0.15939503749E+02  0.32854583347E+03  0.11319471063E+03 0.  0.
     200001    1    1    2    0    0  0.14477386890E+03 -0.26778922539E+02  0.22399983465E+04  0.23270234584E+04  0.61300000000E+03 0.  1.
         11    1    4    4    0    0 -0.21195061587E+03 -0.17544581477E+03  0.32663333851E+02  0.27707614634E+03  0.51100000000E-03 0.  1.
    -200002    1    4    4    0    0 -0.11485244358E+02 -0.36572275876E+02 -0.16723830103E+02  0.51469687137E+02  0.30000000000E+02 0. -1.
    -200000    1    3    3    0    0  0.78661991331E+02  0.23879701319E+03  0.20396783616E+03  0.33913950017E+03  0.10100000000E+03 0.  1.
<mgrwt>
<rscale>  0 0.17079651E+04</rscale>
<asrwt>0</asrwt>
<pdfrwt beam="1">  1        2 0.38961532E+00 0.17079651E+04</pdfrwt>
<pdfrwt beam="2">  1       -2 0.38200221E-01 0.17079651E+04</pdfrwt>
<totfact> 0.20585941E+01</totfact>
</mgrwt>
</event>
<event>
 8    2  0.7237260E-052  0.1421627E+04  0.7818608E-02  0.8938311E-01
         -2   -1    0    0    0  501 -0.00000000000E+00  0.00000000000E+00  0.38578396536E+03  0.38578396537E+03  0.25500000000E-02 0. -1.
          2   -1    0    0  501    0  0.00000000000E+00 -0.00000000000E+00 -0.13096864904E+04  0.13096864904E+04  0.25500000000E-02 0.  1.
    -200001    2    1    2    0    0 -0.10162050543E+03  0.15426954640E+03 -0.92996953137E+02  0.64651912731E+03  0.61254610326E+03 0.  0.
   -5000001    2    3    3    0    0  0.50782776181E+02 -0.20706923163E+03  0.20715902434E+01  0.23054857464E+03  0.87702888993E+02 0.  0.
     200001    1    1    2    0    0  0.10162050543E+03 -0.15426954640E+03 -0.83090557190E+03  0.10489513285E+04  0.61300000000E+03 0.  1.
         11    1    4    4    0    0 -0.80919225477E+01 -0.12756287217E+02  0.19388316289E+02  0.24578626546E+02  0.51100000000E-03 0.  1.
    -200002    1    4    4    0    0  0.58874698728E+02 -0.19431294441E+03 -0.17316726046E+02  0.20596994809E+03  0.30000000000E+02 0.  1.
    -200000    1    3    3    0    0 -0.15240328161E+03  0.36133877803E+03 -0.95068543381E+02  0.41597055268E+03  0.10100000000E+03 0.  1.
<mgrwt>
<rscale>  0 0.14216273E+04</rscale>
<asrwt>0</asrwt>
<pdfrwt beam="1">  1        2 0.18709807E+00 0.14216273E+04</pdfrwt>
<pdfrwt beam="2">  1       -2 0.55111996E-01 0.14216273E+04</pdfrwt>
<totfact> 0.55845777E+01</totfact>
</mgrwt>
</event>
<event>
 8    2  0.7237260E-052  0.1416932E+04  0.7818608E-02  0.8941653E-01
         -2   -1    0    0    0  501 -0.00000000000E+00  0.00000000000E+00  0.57034774039E+03  0.57034774040E+03  0.25500000000E-02 0. -1.
          2   -1    0    0  501    0  0.00000000000E+00 -0.00000000000E+00 -0.88003151792E+03  0.88003151792E+03  0.25500000000E-02 0.  1.
    -200001    2    1    2    0    0 -0.34285705143E+03 -0.35514326191E+02 -0.75130563246E+02  0.70903154273E+03  0.61503569163E+03 0.  0.
   -5000001    2    3    3    0    0 -0.32929716965E+03  0.21699684255E+03 -0.14917108116E+03  0.42684586091E+03  0.66491517563E+02 0.  0.
     200001    1    1    2    0    0  0.34285705143E+03  0.35514326191E+02 -0.23455321428E+03  0.74134771559E+03  0.61300000000E+03 0.  1.
         11    1    4    4    0    0 -0.11654705840E+02 -0.15802124109E+01 -0.11157521031E+02  0.16211709203E+02  0.51100000000E-03 0.  1.
    -200002    1    4    4    0    0 -0.31764246381E+03  0.21857705496E+03 -0.13801356013E+03  0.41063415171E+03  0.30000000000E+02 0. -1.
    -200000    1    3    3    0    0 -0.13559881781E+02 -0.25251116874E+03  0.74040517912E+02  0.28218568182E+03  0.10100000000E+03 0. -1.
<mgrwt>
<rscale>  0 0.14169319E+04</rscale>
<asrwt>0</asrwt>
<pdfrwt beam="1">  1        2 0.12571879E+00 0.14169319E+04</pdfrwt>
<pdfrwt beam="2">  1       -2 0.81478248E-01 0.14169319E+04</pdfrwt>
<totfact> 0.43299632E+01</totfact>
</mgrwt>
</event>
<event>
 8    2  0.7237260E-052  0.2262795E+04  0.7818608E-02  0.8492737E-01
         -2   -1    0    0    0  501 -0.00000000000E+00  0.00000000000E+00  0.55492196798E+03  0.55492196799E+03  0.25500000000E-02 0.  1.
          2   -1    0    0  501    0  0.00000000000E+00 -0.00000000000E+00 -0.23067383188E+04  0.23067383188E+04  0.25500000000E-02 0. -1.
    -200001    2    1    2    0    0  0.56041314602E+02  0.48572806915E+03 -0.19073021361E+04  0.20622747631E+04  0.61327267518E+03 0.  0.
   -5000001    2    3    3    0    0 -0.11263974372E+03  0.43381467841E+03 -0.17228707742E+04  0.17877493056E+04  0.16395422517E+03 0.  0.
     200001    1    1    2    0    0 -0.56041314602E+02 -0.48572806915E+03  0.15548578524E+03  0.79938552371E+03  0.61300000000E+03 0.  1.
         11    1    4    4    0    0 -0.77221000250E+02  0.38183396821E+03 -0.12366088623E+04  0.12965190860E+04  0.51100000000E-03 0.  1.
    -200002    1    4    4    0    0 -0.35418743466E+02  0.51980710199E+02 -0.48626191194E+03  0.49123021958E+03  0.30000000000E+02 0.  1.
    -200000    1    3    3    0    0  0.16868105832E+03  0.51913390739E+02 -0.18443136184E+03  0.27452545748E+03  0.10100000000E+03 0. -1.
<mgrwt>
<rscale>  0 0.22627945E+04</rscale>
<asrwt>0</asrwt>
<pdfrwt beam="1">  1        2 0.32953404E+00 0.22627945E+04</pdfrwt>
<pdfrwt beam="2">  1       -2 0.79274568E-01 0.22627945E+04</pdfrwt>
<totfact> 0.71753520E+00</totfact>
</mgrwt>
</event>
<event>
 8    2  0.7237260E-052  0.1834793E+04  0.7818608E-02  0.8688013E-01
          2   -1    0    0  501    0  0.00000000000E+00  0.00000000000E+00  0.20492981567E+04  0.20492981567E+04  0.25500000000E-02 0.  1.
         -2   -1    0    0    0  501 -0.00000000000E+00 -0.00000000000E+00 -0.41068520748E+03  0.41068520748E+03  0.25500000000E-02 0. -1.
    -200001    2    1    2    0    0 -0.20318235014E+03  0.64136920150E+03  0.66462374030E+03  0.11269186624E+04  0.61284862362E+03 0.  0.
   -5000001    2    3    3    0    0 -0.20184408552E+02  0.65269307609E+03  0.63727024717E+03  0.91581278767E+03  0.78638617872E+02 0.  0.
     200001    1    1    2    0    0  0.20318235014E+03 -0.64136920150E+03  0.97398920894E+03  0.13330647018E+04  0.61300000000E+03 0.  1.
         11    1    4    4    0    0 -0.29952977269E+02  0.49984789102E+03  0.46486358882E+03  0.68325928549E+03  0.51100000000E-03 0.  1.
    -200002    1    4    4    0    0  0.97685687172E+01  0.15284518507E+03  0.17240665835E+03  0.23255350218E+03  0.30000000000E+02 0. -1.
    -200000    1    3    3    0    0 -0.18299794159E+03 -0.11323874589E+02  0.27353493136E+02  0.21110587473E+03  0.10100000000E+03 0. -1.
<mgrwt>
<rscale>  0 0.18347931E+04</rscale>
<asrwt>0</asrwt>
<pdfrwt beam="1">  1        2 0.29275688E+00 0.18347931E+04</pdfrwt>
<pdfrwt beam="2">  1       -2 0.58669316E-01 0.18347931E+04</pdfrwt>
<totfact> 0.19401414E+01</totfact>
</mgrwt>
</event>
<event>
 8    2  0.7237260E-052  0.1690066E+04  0.7818608E-02  0.8767051E-01
          2   -1    0    0  501    0  0.00000000000E+00  0.00000000000E+00  0.13755112570E+04  0.13755112571E+04  0.25500000000E-02 0.  1.
         -2   -1    0    0    0  501 -0.00000000000E+00 -0.00000000000E+00 -0.51913831930E+03  0.51913831931E+03  0.25500000000E-02 0. -1.
    -200001    2    1    2    0    0  0.34811968189E+03  0.41863395371E+03  0.65594702087E+03  0.10506227709E+04  0.61408469490E+03 0.  0.
   -5000001    2    3    3    0    0  0.12982933017E+03 -0.14352261376E+03  0.14699732454E+03  0.25507171827E+03  0.77453033571E+02 0.  0.
     200001    1    1    2    0    0 -0.34811968189E+03 -0.41863395371E+03  0.20042591688E+03  0.84402680542E+03  0.61300000000E+03 0. -1.
         11    1    4    4    0    0  0.81791019474E+02 -0.60425462758E+02  0.10476114638E+03  0.14599967536E+03  0.51100000000E-03 0.  1.
    -200002    1    4    4    0    0  0.48038310698E+02 -0.83097150998E+02  0.42236178162E+02  0.10907204291E+03  0.30000000000E+02 0.  1.
    -200000    1    3    3    0    0  0.21829035172E+03  0.56215656746E+03  0.50894969633E+03  0.79555105266E+03  0.10100000000E+03 0. -1.
<mgrwt>
<rscale>  0 0.16900658E+04</rscale>
<asrwt>0</asrwt>
<pdfrwt beam="1">  1        2 0.19650161E+00 0.16900658E+04</pdfrwt>
<pdfrwt beam="2">  1       -2 0.74162618E-01 0.16900658E+04</pdfrwt>
<totfact> 0.26666283E+01</totfact>
</mgrwt>
</event>
<event>
 8    2  0.7237260E-052  0.1329111E+04  0.7818608E-02  0.9006793E-01
          2   -1    0    0  501    0  0.00000000000E+00  0.00000000000E+00  0.23932010111E+04  0.23932010111E+04  0.25500000000E-02 0.  1.
         -2   -1    0    0    0  501 -0.00000000000E+00 -0.00000000000E+00 -0.18453697206E+03  0.18453697208E+03  0.25500000000E-02 0. -1.
    -200001    2    1    2    0    0  0.21758310131E+03 -0.94429638855E+02  0.12896651608E+04  0.14478763541E+04  0.61388137867E+03 0.  0.
   -5000001    2    3    3    0    0  0.63984715151E+02 -0.10002768143E+03  0.13122440460E+02  0.15815308176E+03  0.10363695288E+03 0.  0.
     200001    1    1    2    0    0 -0.21758310131E+03  0.94429638855E+02  0.91899887816E+03  0.11298616290E+04  0.61300000000E+03 0. -1.
         11    1    4    4    0    0  0.69927391058E+02 -0.93248314069E+02 -0.13116000738E+02  0.11729073950E+03  0.51100000000E-03 0.  1.
    -200002    1    4    4    0    0 -0.59426759070E+01 -0.67793673632E+01  0.26238441198E+02  0.40862342264E+02  0.30000000000E+02 0.  1.
    -200000    1    3    3    0    0  0.15359838616E+03  0.55980425774E+01  0.12765427204E+04  0.12897232724E+04  0.10100000000E+03 0.  1.
<mgrwt>
<rscale>  0 0.13291111E+04</rscale>
<asrwt>0</asrwt>
<pdfrwt beam="1">  1        2 0.34188583E+00 0.13291111E+04</pdfrwt>
<pdfrwt beam="2">  1       -2 0.26362426E-01 0.13291111E+04</pdfrwt>
<totfact> 0.64088997E+01</totfact>
</mgrwt>
</event>
<event>
 8    2  0.7237260E-052  0.1640726E+04  0.7818608E-02  0.8795912E-01
         -2   -1    0    0    0  501 -0.00000000000E+00  0.00000000000E+00  0.15911786878E+03  0.15911786880E+03  0.25500000000E-02 0. -1.
          2   -1    0    0  501    0  0.00000000000E+00 -0.00000000000E+00 -0.42295400043E+04  0.42295400043E+04  0.25500000000E-02 0.  1.
    -200001    2    1    2    0    0  0.37943226045E+01 -0.51039277118E+03 -0.15230121803E+04  0.17192793578E+04  0.61305809777E+03 0.  0.
   -5000001    2    3    3    0    0  0.24694423682E+03 -0.42887137114E+03 -0.10086854330E+04  0.11357550461E+04  0.16607562392E+03 0.  0.
     200001    1    1    2    0    0 -0.37943226045E+01  0.51039277118E+03 -0.25474099553E+04  0.26693785153E+04  0.61300000000E+03 0.  1.
         11    1    4    4    0    0  0.46621754490E+02 -0.65092356131E+02 -0.61065015642E+02  0.10069527771E+03  0.51100000000E-03 0.  1.
    -200002    1    4    4    0    0  0.20032248233E+03 -0.36377901501E+03 -0.94762041736E+03  0.10350597684E+04  0.30000000000E+02 0.  1.
    -200000    1    3    3    0    0 -0.24314991421E+03 -0.81521400041E+02 -0.51432674726E+03  0.58352431174E+03  0.10100000000E+03 0.  1.
<mgrwt>
<rscale>  0 0.16407259E+04</rscale>
<asrwt>0</asrwt>
<pdfrwt beam="1">  1        2 0.60421993E+00 0.16407259E+04</pdfrwt>
<pdfrwt beam="2">  1       -2 0.22731127E-01 0.16407259E+04</pdfrwt>
<totfact> 0.64916629E+00</totfact>
</mgrwt>
</event>
<event>
 8    2  0.7237260E-052  0.1357466E+04  0.7818608E-02  0.8985196E-01
         -2   -1    0    0    0  501 -0.00000000000E+00  0.00000000000E+00  0.23003265416E+03  0.23003265418E+03  0.25500000000E-02 0. -1.
          2   -1    0    0  501    0  0.00000000000E+00 -0.00000000000E+00 -0.20026643498E+04  0.20026643498E+04  0.25500000000E-02 0.  1.
    -200001    2    1    2    0    0 -0.74629810761E+02  0.16065392150E+03 -0.50706737089E+03  0.81537510997E+03  0.61346553302E+03 0.  0.
   -5000001    2    3    3    0    0  0.65999786193E+02  0.36121924668E+03 -0.29649037188E+03  0.47692746895E+03  0.68687364729E+02 0.  0.
     200001    1    1    2    0    0  0.74629810761E+02 -0.16065392150E+03 -0.12655643247E+04  0.14173218940E+04  0.61300000000E+03 0.  1.
         11    1    4    4    0    0 -0.39535205282E+01  0.70251763697E+02 -0.35964832267E+02  0.79021577986E+02  0.51100000000E-03 0.  1.
    -200002    1    4    4    0    0  0.69953306721E+02  0.29096748298E+03 -0.26052553961E+03  0.39790589096E+03  0.30000000000E+02 0.  1.
    -200000    1    3    3    0    0 -0.14062959695E+03 -0.20056532518E+03 -0.21057699901E+03  0.33844764102E+03  0.10100000000E+03 0.  1.
<mgrwt>
<rscale>  0 0.13574656E+04</rscale>
<asrwt>0</asrwt>
<pdfrwt beam="1">  1        2 0.28609490E+00 0.13574656E+04</pdfrwt>
<pdfrwt beam="2">  1       -2 0.32861809E-01 0.13574656E+04</pdfrwt>
<totfact> 0.67507333E+01</totfact>
</mgrwt>
</event>
<event>
 8    2  0.7237260E-052  0.1377447E+04  0.7818608E-02  0.8970307E-01
          2   -1    0    0  501    0  0.00000000000E+00  0.00000000000E+00  0.12987006502E+04  0.12987006502E+04  0.25500000000E-02 0.  1.
         -2   -1    0    0    0  501 -0.00000000000E+00 -0.00000000000E+00 -0.36524206285E+03  0.36524206286E+03  0.25500000000E-02 0. -1.
    -200001    2    1    2    0    0  0.47127113953E+01 -0.28213723038E+03  0.30212204064E+03  0.73983316239E+03  0.61355664312E+03 0.  0.
   -5000001    2    3    3    0    0  0.13213497405E+03 -0.30967029976E+03  0.19536409602E+03  0.54338275728E+03  0.37913367692E+03 0.  0.
     200001    1    1    2    0    0 -0.47127113953E+01  0.28213723038E+03  0.63133654672E+03  0.92410955067E+03  0.61300000000E+03 0.  1.
         11    1    4    4    0    0  0.44282768165E+02 -0.28020060555E+03 -0.42039352810E+02  0.28677630672E+03  0.51100000000E-03 0.  1.
    -200002    1    4    4    0    0  0.87852205883E+02 -0.29469694204E+02  0.23740344883E+03  0.25660645056E+03  0.30000000000E+02 0.  1.
    -200000    1    3    3    0    0 -0.12742226265E+03  0.27533069382E+02  0.10675794462E+03  0.19645040511E+03  0.10100000000E+03 0.  1.
<mgrwt>
<rscale>  0 0.13774471E+04</rscale>
<asrwt>0</asrwt>
<pdfrwt beam="1">  1        2 0.18552867E+00 0.13774471E+04</pdfrwt>
<pdfrwt beam="2">  1       -2 0.52177437E-01 0.13774471E+04</pdfrwt>
<totfact> 0.63614190E+01</totfact>
</mgrwt>
</event>
<event>
 8    2  0.7237260E-052  0.2496296E+04  0.7818608E-02  0.8404306E-01
         -2   -1    0    0    0  501 -0.00000000000E+00  0.00000000000E+00  0.31527340715E+04  0.31527340715E+04  0.25500000000E-02 0. -1.
          2   -1    0    0  501    0  0.00000000000E+00 -0.00000000000E+00 -0.49413412397E+03  0.49413412397E+03  0.25500000000E-02 0.  1.
    -200001    2    1    2    0    0  0.13127786778E+03  0.36398656084E+03 -0.15367987434E+03  0.74266315939E+03  0.61498859299E+03 0.  0.
   -5000001    2    3    3    0    0  0.33083679149E+03  0.10816028932E+03 -0.16781424406E+03  0.40255784389E+03  0.11286968760E+03 0.  0.
     200001    1    1    2    0    0 -0.13127786778E+03 -0.36398656084E+03  0.28122798218E+04  0.29042050360E+04  0.61300000000E+03 0. -1.
         11    1    4    4    0    0  0.21967110549E+02 -0.16764351196E+02  0.14046701496E+01  0.27668944963E+02  0.51100000000E-03 0.  1.
    -200002    1    4    4    0    0  0.30886968094E+03  0.12492464052E+03 -0.16921891421E+03  0.37488889892E+03  0.30000000000E+02 0.  1.
    -200000    1    3    3    0    0 -0.19955892371E+03  0.25582627151E+03  0.14134369712E+02  0.34010531551E+03  0.10100000000E+03 0.  1.
<mgrwt>
<rscale>  0 0.24962960E+04</rscale>
<asrwt>0</asrwt>
<pdfrwt beam="1">  1        2 0.70590591E-01 0.24962960E+04</pdfrwt>
<pdfrwt beam="2">  1       -2 0.45039057E+00 0.24962960E+04</pdfrwt>
<totfact> 0.21021186E-01</totfact>
</mgrwt>
</event>
<event>
 8    2  0.7237260E-052  0.1491503E+04  0.7818608E-02  0.8890123E-01
          2   -1    0    0  501    0  0.00000000000E+00  0.00000000000E+00  0.11543792698E+04  0.11543792698E+04  0.25500000000E-02 0.  1.
         -2   -1    0    0    0  501 -0.00000000000E+00 -0.00000000000E+00 -0.48177024092E+03  0.48177024092E+03  0.25500000000E-02 0. -1.
    -200001    2    1    2    0    0  0.50901377418E+02 -0.27581083568E+03  0.68433463131E+03  0.96193214439E+03  0.61509104652E+03 0.  0.
   -5000001    2    3    3    0    0  0.15029891800E+03 -0.24690106431E+03  0.47414443847E+02  0.30879818329E+03  0.97766498386E+02 0.  0.
     200001    1    1    2    0    0 -0.50901377418E+02  0.27581083568E+03 -0.11725602431E+02  0.67421736632E+03  0.61300000000E+03 0. -1.
         11    1    4    4    0    0  0.28277999506E+02 -0.20040703697E+02 -0.21084848074E+02  0.40569026108E+02  0.51100000000E-03 0.  1.
    -200002    1    4    4    0    0  0.12202091849E+03 -0.22686036062E+03  0.68499291921E+02  0.26822915718E+03  0.30000000000E+02 0.  1.
    -200000    1    3    3    0    0 -0.99397540578E+02 -0.28909771363E+02  0.63692018746E+03  0.65313396111E+03  0.10100000000E+03 0.  1.
<mgrwt>
<rscale>  0 0.14915034E+04</rscale>
<asrwt>0</asrwt>
<pdfrwt beam="1">  1        2 0.16491132E+00 0.14915034E+04</pdfrwt>
<pdfrwt beam="2">  1       -2 0.68824321E-01 0.14915034E+04</pdfrwt>
<totfact> 0.42415487E+01</totfact>
</mgrwt>
</event>
<event>
 8    2  0.7237260E-052  0.1331065E+04  0.7818608E-02  0.9005287E-01
         -2   -1    0    0    0  501 -0.00000000000E+00  0.00000000000E+00  0.40079505813E+03  0.40079505814E+03  0.25500000000E-02 0. -1.
          2   -1    0    0  501    0  0.00000000000E+00 -0.00000000000E+00 -0.11051371838E+04  0.11051371838E+04  0.25500000000E-02 0.  1.
    -200001    2    1    2    0    0  0.22769444587E+03  0.84213526850E+02 -0.24667580647E+03  0.70333387505E+03  0.61228498880E+03 0.  0.
   -5000001    2    3    3    0    0  0.56459994701E+01  0.19027075230E+03  0.12783303314E+03  0.24397397414E+03  0.83349740268E+02 0.  0.
     200001    1    1    2    0    0 -0.22769444587E+03 -0.84213526850E+02 -0.45766631918E+03  0.80259836687E+03  0.61300000000E+03 0.  1.
         11    1    4    4    0    0 -0.95390199319E+01  0.15978330197E+03  0.11403792815E+03  0.19653586326E+03  0.51100000000E-03 0.  1.
    -200002    1    4    4    0    0  0.15185019402E+02  0.30487450333E+02  0.13795104989E+02  0.47438110878E+02  0.30000000000E+02 0.  1.
    -200000    1    3    3    0    0  0.22204844640E+03 -0.10605722545E+03 -0.37450883961E+03  0.45935990092E+03  0.10100000000E+03 0.  1.
<mgrwt>
<rscale>  0 0.13310650E+04</rscale>
<asrwt>0</asrwt>
<pdfrwt beam="1">  1        2 0.15787674E+00 0.13310650E+04</pdfrwt>
<pdfrwt beam="2">  1       -2 0.57256438E-01 0.13310650E+04</pdfrwt>
<totfact> 0.67888110E+01</totfact>
</mgrwt>
</event>
<event>
 8    2  0.7237260E-052  0.1351679E+04  0.7818608E-02  0.8989558E-01
          2   -1    0    0  501    0  0.00000000000E+00  0.00000000000E+00  0.26809565535E+04  0.26809565535E+04  0.25500000000E-02 0.  1.
         -2   -1    0    0    0  501 -0.00000000000E+00 -0.00000000000E+00 -0.17037162796E+03  0.17037162798E+03  0.25500000000E-02 0. -1.
    -200001    2    1    2    0    0 -0.64002789421E+02  0.27018910450E+03  0.11375064224E+04  0.13222068374E+04  0.61417550465E+03 0.  0.
   -5000001    2    3    3    0    0  0.22180147623E+03  0.22094748467E+03  0.40133086239E+03  0.52454508539E+03  0.12675724699E+03 0.  0.
     200001    1    1    2    0    0  0.64002789421E+02 -0.27018910450E+03  0.13730785031E+04  0.15291213441E+04  0.61300000000E+03 0. -1.
         11    1    4    4    0    0  0.10570845407E+03  0.31550742628E+02  0.16801513035E+03  0.20099455377E+03  0.51100000000E-03 0.  1.
    -200002    1    4    4    0    0  0.11609302216E+03  0.18939674204E+03  0.23331573204E+03  0.32355053162E+03  0.30000000000E+02 0.  1.
    -200000    1    3    3    0    0 -0.28580426565E+03  0.49241619823E+02  0.73617556003E+03  0.79766175198E+03  0.10100000000E+03 0. -1.
<mgrwt>
<rscale>  0 0.13516789E+04</rscale>
<asrwt>0</asrwt>
<pdfrwt beam="1">  1        2 0.38299375E+00 0.13516789E+04</pdfrwt>
<pdfrwt beam="2">  1       -2 0.24338807E-01 0.13516789E+04</pdfrwt>
<totfact> 0.52180914E+01</totfact>
</mgrwt>
</event>
<event>
 8    2  0.7237260E-052  0.1397446E+04  0.7818608E-02  0.8955669E-01
          2   -1    0    0  501    0  0.00000000000E+00  0.00000000000E+00  0.10044675901E+04  0.10044675901E+04  0.25500000000E-02 0.  1.
         -2   -1    0    0    0  501 -0.00000000000E+00 -0.00000000000E+00 -0.48604243980E+03  0.48604243981E+03  0.25500000000E-02 0. -1.
    -200001    2    1    2    0    0  0.82875377481E+02 -0.16241671531E+03  0.55962155259E+03  0.84964057272E+03  0.61275223629E+03 0.  0.
   -5000001    2    3    3    0    0 -0.33500959203E+01 -0.31387634282E+03  0.12025580714E+03  0.36629999992E+03  0.14554947292E+03 0.  0.
     200001    1    1    2    0    0 -0.82875377481E+02  0.16241671531E+03 -0.41196402289E+02  0.64086945720E+03  0.61300000000E+03 0. -1.
         11    1    4    4    0    0  0.32876165361E+02 -0.28557466903E+03  0.80492450897E+02  0.29851761840E+03  0.51100000000E-03 0.  1.
    -200002    1    4    4    0    0 -0.36226261282E+02 -0.28301673792E+02  0.39763356243E+02  0.67782381527E+02  0.30000000000E+02 0.  1.
    -200000    1    3    3    0    0  0.86225473401E+02  0.15145962751E+03  0.43936574546E+03  0.48334057279E+03  0.10100000000E+03 0.  1.
<mgrwt>
<rscale>  0 0.13974461E+04</rscale>
<asrwt>0</asrwt>
<pdfrwt beam="1">  1        2 0.14349537E+00 0.13974461E+04</pdfrwt>
<pdfrwt beam="2">  1       -2 0.69434634E-01 0.13974461E+04</pdfrwt>
<totfact> 0.51483960E+01</totfact>
</mgrwt>
</event>
<event>
 8    2  0.7237260E-052  0.1276804E+04  0.7818608E-02  0.9048165E-01
         -2   -1    0    0    0  501 -0.00000000000E+00  0.00000000000E+00  0.28531513034E+03  0.28531513035E+03  0.25500000000E-02 0. -1.
          2   -1    0    0  501    0  0.00000000000E+00 -0.00000000000E+00 -0.14284452631E+04  0.14284452631E+04  0.25500000000E-02 0.  1.
    -200001    2    1    2    0    0  0.14401183296E+03 -0.94799802256E+02 -0.62921275216E+03  0.89546552935E+03  0.61337053747E+03 0.  0.
   -5000001    2    3    3    0    0 -0.14878840564E+03 -0.52238446200E+02  0.12310313424E+02  0.18181555042E+03  0.89657713800E+02 0.  0.
     200001    1    1    2    0    0 -0.14401183296E+03  0.94799802256E+02 -0.51391738064E+03  0.81829486413E+03  0.61300000000E+03 0.  1.
         11    1    4    4    0    0  0.17001687079E+01  0.11848699027E+02  0.98512043226E+01  0.15502531056E+02  0.51100000000E-03 0.  1.
    -200002    1    4    4    0    0 -0.15048857435E+03 -0.64087145227E+02  0.24591091016E+01  0.16631301936E+03  0.30000000000E+02 0.  1.
    -200000    1    3    3    0    0  0.29280023860E+03 -0.42561356056E+02 -0.64152306558E+03  0.71364997893E+03  0.10100000000E+03 0.  1.
<mgrwt>
<rscale>  0 0.12768039E+04</rscale>
<asrwt>0</asrwt>
<pdfrwt beam="1">  1        2 0.20406361E+00 0.12768039E+04</pdfrwt>
<pdfrwt beam="2">  1       -2 0.40759305E-01 0.12768039E+04</pdfrwt>
<totfact> 0.89338191E+01</totfact>
</mgrwt>
</event>
<event>
 8    2  0.7237260E-052  0.1254313E+04  0.7818608E-02  0.9066601E-01
          2   -1    0    0  501    0  0.00000000000E+00  0.00000000000E+00  0.12605991227E+04  0.12605991227E+04  0.25500000000E-02 0.  1.
         -2   -1    0    0    0  501 -0.00000000000E+00 -0.00000000000E+00 -0.31201446497E+03  0.31201446498E+03  0.25500000000E-02 0. -1.
    -200001    2    1    2    0    0 -0.30226112089E+02 -0.11147038750E+03  0.55227385710E+03  0.83358008655E+03  0.61360417397E+03 0.  0.
   -5000001    2    3    3    0    0  0.21622386430E+03 -0.22610957719E+03  0.33969443021E+03  0.47403767262E+03  0.10696311870E+03 0.  0.
     200001    1    1    2    0    0  0.30226112089E+02  0.11147038750E+03  0.39631080067E+03  0.73903350118E+03  0.61300000000E+03 0.  1.
         11    1    4    4    0    0  0.11772214092E+03 -0.18585524095E+03  0.23083969073E+03  0.31888498846E+03  0.51100000000E-03 0.  1.
    -200002    1    4    4    0    0  0.98501723377E+02 -0.40254336241E+02  0.10885473948E+03  0.15515268416E+03  0.30000000000E+02 0.  1.
    -200000    1    3    3    0    0 -0.24644997639E+03  0.11463918969E+03  0.21257942689E+03  0.35954241392E+03  0.10100000000E+03 0. -1.
<mgrwt>
<rscale>  0 0.12543128E+04</rscale>
<asrwt>0</asrwt>
<pdfrwt beam="1">  1        2 0.18008559E+00 0.12543128E+04</pdfrwt>
<pdfrwt beam="2">  1       -2 0.44573495E-01 0.12543128E+04</pdfrwt>
<totfact> 0.92667472E+01</totfact>
</mgrwt>
</event>
<event>
 8    2  0.7237260E-052  0.1350785E+04  0.7818608E-02  0.8990234E-01
          2   -1    0    0  501    0  0.00000000000E+00  0.00000000000E+00  0.21401103936E+04  0.21401103936E+04  0.25500000000E-02 0.  1.
         -2   -1    0    0    0  501 -0.00000000000E+00 -0.00000000000E+00 -0.21314571104E+03  0.21314571106E+03  0.25500000000E-02 0. -1.
    -200001    2    1    2    0    0  0.57906077999E+01  0.27160733019E+03  0.11062465082E+04  0.12934677321E+04  0.61275881392E+03 0.  0.
   -5000001    2    3    3    0    0 -0.11053042650E+03 -0.12455652670E+03  0.13879259276E+03  0.23675373905E+03  0.95171663968E+02 0.  0.
     200001    1    1    2    0    0 -0.57906077999E+01 -0.27160733019E+03  0.82071817432E+03  0.10597883726E+04  0.61300000000E+03 0.  1.
         11    1    4    4    0    0  0.15568312028E+02 -0.17686326228E+02  0.13249100953E+02  0.27031780392E+02  0.51100000000E-03 0.  1.
    -200002    1    4    4    0    0 -0.12609873853E+03 -0.10687020047E+03  0.12554349180E+03  0.20972195865E+03  0.30000000000E+02 0.  1.
    -200000    1    3    3    0    0  0.11632103430E+03  0.39616385689E+03  0.96745391549E+03  0.10567139931E+04  0.10100000000E+03 0.  1.
<mgrwt>
<rscale>  0 0.13507855E+04</rscale>
<asrwt>0</asrwt>
<pdfrwt beam="1">  1        2 0.30573005E+00 0.13507855E+04</pdfrwt>
<pdfrwt beam="2">  1       -2 0.30449388E-01 0.13507855E+04</pdfrwt>
<totfact> 0.66253007E+01</totfact>
</mgrwt>
</event>
<event>
 8    2  0.7237260E-052  0.1759925E+04  0.7818608E-02  0.8727906E-01
          2   -1    0    0  501    0  0.00000000000E+00  0.00000000000E+00  0.42152737620E+04  0.42152737620E+04  0.25500000000E-02 0.  1.
         -2   -1    0    0    0  501 -0.00000000000E+00 -0.00000000000E+00 -0.18369720154E+03  0.18369720155E+03  0.25500000000E-02 0. -1.
    -200001    2    1    2    0    0  0.46742989184E+03  0.42405255221E+03  0.19676879874E+04  0.21553764563E+04  0.61281349688E+03 0.  0.
   -5000001    2    3    3    0    0  0.14412005692E+03 -0.47455083551E+02  0.13521026475E+03  0.23313185589E+03  0.11421939755E+03 0.  0.
     200001    1    1    2    0    0 -0.46742989184E+03 -0.42405255221E+03  0.20638885731E+04  0.22435945073E+04  0.61300000000E+03 0. -1.
         11    1    4    4    0    0  0.11101950320E+03  0.15425947196E+02  0.89810399380E+02  0.14362868020E+03  0.51100000000E-03 0.  1.
    -200002    1    4    4    0    0  0.33100553717E+02 -0.62881030747E+02  0.45399865369E+02  0.89503175696E+02  0.30000000000E+02 0.  1.
    -200000    1    3    3    0    0  0.32330983492E+03  0.47150763576E+03  0.18324777227E+04  0.19222446005E+04  0.10100000000E+03 0.  1.
<mgrwt>
<rscale>  0 0.17599250E+04</rscale>
<asrwt>0</asrwt>
<pdfrwt beam="1">  1        2 0.60218194E+00 0.17599250E+04</pdfrwt>
<pdfrwt beam="2">  1       -2 0.26242459E-01 0.17599250E+04</pdfrwt>
<totfact> 0.50643229E+00</totfact>
</mgrwt>
</event>
<event>
 8    2  0.7237260E-052  0.1464833E+04  0.7818608E-02  0.8908181E-01
         -2   -1    0    0    0  501 -0.00000000000E+00  0.00000000000E+00  0.12045983393E+03  0.12045983396E+03  0.25500000000E-02 0. -1.
          2   -1    0    0  501    0  0.00000000000E+00 -0.00000000000E+00 -0.44532189218E+04  0.44532189218E+04  0.25500000000E-02 0.  1.
    -200001    2    1    2    0    0 -0.19384899509E+03 -0.13663082775E+03 -0.31756012483E+04  0.32428787401E+04  0.61284077773E+03 0.  0.
   -5000001    2    3    3    0    0 -0.81596306666E+02 -0.34370978271E+03 -0.12948730320E+04  0.13447686318E+04  0.83139233227E+02 0.  0.
     200001    1    1    2    0    0  0.19384899509E+03  0.13663082775E+03 -0.11571578396E+04  0.13308000157E+04  0.61300000000E+03 0. -1.
         11    1    4    4    0    0 -0.23548336572E+02 -0.22517096661E+03 -0.75734444488E+03  0.79046005374E+03  0.51100000000E-03 0.  1.
    -200002    1    4    4    0    0 -0.58047970094E+02 -0.11853881610E+03 -0.53752858712E+03  0.55430857808E+03  0.30000000000E+02 0. -1.
    -200000    1    3    3    0    0 -0.11225268843E+03  0.20707895496E+03 -0.18807282163E+04  0.18981101083E+04  0.10100000000E+03 0.  1.
<mgrwt>
<rscale>  0 0.14648331E+04</rscale>
<asrwt>0</asrwt>
<pdfrwt beam="1">  1        2 0.63617403E+00 0.14648331E+04</pdfrwt>
<pdfrwt beam="2">  1       -2 0.17208551E-01 0.14648331E+04</pdfrwt>
<totfact> 0.73282769E+00</totfact>
</mgrwt>
</event>
<event>
 8    2  0.7237260E-052  0.1331663E+04  0.7818608E-02  0.9004826E-01
          2   -1    0    0  501    0  0.00000000000E+00  0.00000000000E+00  0.10388045900E+04  0.10388045900E+04  0.25500000000E-02 0.  1.
         -2   -1    0    0    0  501 -0.00000000000E+00 -0.00000000000E+00 -0.42677070142E+03  0.42677070143E+03  0.25500000000E-02 0. -1.
    -200001    2    1    2    0    0  0.14713193613E+03 -0.16486669434E+03  0.45712523164E+03  0.79580329629E+03  0.61278917700E+03 0.  0.
   -5000001    2    3    3    0    0  0.24327812516E+02  0.14289941845E+03  0.37544994279E+03  0.43989223188E+03  0.17756809926E+03 0.  0.
     200001    1    1    2    0    0 -0.14713193613E+03  0.16486669434E+03  0.15490865698E+03  0.66977199519E+03  0.61300000000E+03 0. -1.
         11    1    4    4    0    0  0.23796207995E+02  0.56477560357E+02  0.33379196353E+03  0.33937155045E+03  0.51100000000E-03 0.  1.
    -200002    1    4    4    0    0  0.53160452104E+00  0.86421858093E+02  0.41657979261E+02  0.10052068143E+03  0.30000000000E+02 0.  1.
    -200000    1    3    3    0    0  0.12280412361E+03 -0.30776611279E+03  0.81675288853E+02  0.35591106441E+03  0.10100000000E+03 0.  1.
<mgrwt>
<rscale>  0 0.13316627E+04</rscale>
<asrwt>0</asrwt>
<pdfrwt beam="1">  1        2 0.14840066E+00 0.13316627E+04</pdfrwt>
<pdfrwt beam="2">  1       -2 0.60967243E-01 0.13316627E+04</pdfrwt>
<totfact> 0.65169438E+01</totfact>
</mgrwt>
</event>
<event>
 8    2  0.7237260E-052  0.2003619E+04  0.7818608E-02  0.8604930E-01
         -2   -1    0    0    0  501 -0.00000000000E+00  0.00000000000E+00  0.56640225755E+03  0.56640225756E+03  0.25500000000E-02 0. -1.
          2   -1    0    0  501    0  0.00000000000E+00 -0.00000000000E+00 -0.17719254095E+04  0.17719254096E+04  0.25500000000E-02 0.  1.
    -200001    2    1    2    0    0 -0.23904207164E+02 -0.59920754094E+03  0.27536093803E+00  0.85868577055E+03  0.61458936575E+03 0.  0.
   -5000001    2    3    3    0    0  0.13356814122E+03 -0.30964244680E+02 -0.15852651784E+03  0.23972129585E+03  0.11634607868E+03 0.  0.
     200001    1    1    2    0    0  0.23904207164E+02  0.59920754094E+03 -0.12057985129E+04  0.14796418966E+04  0.61300000000E+03 0.  1.
         11    1    4    4    0    0 -0.10195392159E+02 -0.12916135863E+02  0.68406786230E+01  0.17820422867E+02  0.51100000000E-03 0.  1.
    -200002    1    4    4    0    0  0.14376353338E+03 -0.18048108817E+02 -0.16536719647E+03  0.22190087298E+03  0.30000000000E+02 0.  1.
    -200000    1    3    3    0    0 -0.15747234838E+03 -0.56824329626E+03  0.15880187878E+03  0.61896447471E+03  0.10100000000E+03 0. -1.
<mgrwt>
<rscale>  0 0.20036193E+04</rscale>
<asrwt>0</asrwt>
<pdfrwt beam="1">  1        2 0.25313220E+00 0.20036193E+04</pdfrwt>
<pdfrwt beam="2">  1       -2 0.80914609E-01 0.20036193E+04</pdfrwt>
<totfact> 0.13221098E+01</totfact>
</mgrwt>
</event>
<event>
 8    2  0.7237260E-052  0.1308598E+04  0.7818608E-02  0.9022775E-01
          2   -1    0    0  501    0  0.00000000000E+00  0.00000000000E+00  0.19546344169E+04  0.19546344169E+04  0.25500000000E-02 0.  1.
         -2   -1    0    0    0  501 -0.00000000000E+00 -0.00000000000E+00 -0.21902158507E+03  0.21902158508E+03  0.25500000000E-02 0. -1.
    -200001    2    1    2    0    0  0.15933435907E+03 -0.98677039614E+02  0.68653605543E+03  0.94424326456E+03  0.62059567444E+03 0.  0.
   -5000001    2    3    3    0    0  0.84320319285E+02  0.18828624571E+03  0.56774658423E+03  0.60915078216E+03  0.78529389010E+02 0.  0.
     200001    1    1    2    0    0 -0.15933435907E+03  0.98677039614E+02  0.10490767764E+04  0.12294127374E+04  0.61300000000E+03 0.  1.
         11    1    4    4    0    0 -0.57415510564E+01  0.61191649191E+02  0.18029675453E+03  0.19048439052E+03  0.51100000000E-03 0.  1.
    -200002    1    4    4    0    0  0.90061870342E+02  0.12709459652E+03  0.38744982970E+03  0.41866639164E+03  0.30000000000E+02 0. -1.
    -200000    1    3    3    0    0  0.75014039789E+02 -0.28696328533E+03  0.11878947120E+03  0.33509248240E+03  0.10100000000E+03 0. -1.
<mgrwt>
<rscale>  0 0.13085979E+04</rscale>
<asrwt>0</asrwt>
<pdfrwt beam="1">  1        2 0.27923349E+00 0.13085979E+04</pdfrwt>
<pdfrwt beam="2">  1       -2 0.31288798E-01 0.13085979E+04</pdfrwt>
<totfact> 0.78648081E+01</totfact>
</mgrwt>
</event>
<event>
 8    2  0.7237260E-052  0.1529335E+04  0.7818608E-02  0.8865177E-01
          2   -1    0    0  501    0  0.00000000000E+00  0.00000000000E+00  0.22799541900E+04  0.22799541900E+04  0.25500000000E-02 0.  1.
         -2   -1    0    0    0  501 -0.00000000000E+00 -0.00000000000E+00 -0.25645955622E+03  0.25645955623E+03  0.25500000000E-02 0. -1.
    -200001    2    1    2    0    0  0.11465264131E+03  0.39362006183E+03  0.67722858782E+03  0.10013947731E+04  0.61324623952E+03 0.  0.
   -5000001    2    3    3    0    0 -0.10727720033E+03  0.33630257947E+03  0.65743957256E+03  0.75013643295E+03  0.76616276378E+02 0.  0.
     200001    1    1    2    0    0 -0.11465264131E+03 -0.39362006183E+03  0.13462660459E+04  0.15350189731E+04  0.61300000000E+03 0.  1.
         11    1    4    4    0    0 -0.51961812864E+02  0.24254843791E+03  0.46457858178E+03  0.52665266864E+03  0.51100000000E-03 0.  1.
    -200002    1    4    4    0    0 -0.55315387462E+02  0.93754141558E+02  0.19286099078E+03  0.22348376432E+03  0.30000000000E+02 0.  1.
    -200000    1    3    3    0    0  0.22192984163E+03  0.57317482364E+02  0.19789015259E+02  0.25125834019E+03  0.10100000000E+03 0.  1.
<mgrwt>
<rscale>  0 0.15293345E+04</rscale>
<asrwt>0</asrwt>
<pdfrwt beam="1">  1        2 0.32570774E+00 0.15293345E+04</pdfrwt>
<pdfrwt beam="2">  1       -2 0.36637079E-01 0.15293345E+04</pdfrwt>
<totfact> 0.38963427E+01</totfact>
</mgrwt>
</event>
<event>
 8    2  0.7237260E-052  0.2145757E+04  0.7818608E-02  0.8541351E-01
         -2   -1    0    0    0  501 -0.00000000000E+00  0.00000000000E+00  0.61005509251E+03  0.61005509252E+03  0.25500000000E-02 0. -1.
          2   -1    0    0  501    0  0.00000000000E+00 -0.00000000000E+00 -0.18868266246E+04  0.18868266246E+04  0.25500000000E-02 0.  1.
    -200001    2    1    2    0    0  0.42122436007E+02  0.40783032133E+03  0.26694428349E+03  0.78605519468E+03  0.61524275533E+03 0.  0.
   -5000001    2    3    3    0    0 -0.30207502063E+01  0.34682674346E+03 -0.12443201736E+03  0.37479402141E+03  0.68478585175E+02 0.  0.
     200001    1    1    2    0    0 -0.42122436007E+02 -0.40783032133E+03 -0.15437158156E+04  0.17108265225E+04  0.61300000000E+03 0.  1.
         11    1    4    4    0    0  0.23741843993E+02  0.19607169978E+03 -0.70766392020E+02  0.20979911547E+03  0.51100000000E-03 0.  1.
    -200002    1    4    4    0    0 -0.26762594199E+02  0.15075504368E+03 -0.53665625339E+02  0.16499490594E+03  0.30000000000E+02 0. -1.
    -200000    1    3    3    0    0  0.45143186214E+02  0.61003577868E+02  0.39137630085E+03  0.41126117327E+03  0.10100000000E+03 0. -1.
<mgrwt>
<rscale>  0 0.21457569E+04</rscale>
<asrwt>0</asrwt>
<pdfrwt beam="1">  1        2 0.26954666E+00 0.21457569E+04</pdfrwt>
<pdfrwt beam="2">  1       -2 0.87150728E-01 0.21457569E+04</pdfrwt>
<totfact> 0.96321353E+00</totfact>
</mgrwt>
</event>
<event>
 8    2  0.7237260E-052  0.1487771E+04  0.7818608E-02  0.8892626E-01
          2   -1    0    0  501    0  0.00000000000E+00  0.00000000000E+00  0.26099097996E+04  0.26099097996E+04  0.25500000000E-02 0.  1.
         -2   -1    0    0    0  501 -0.00000000000E+00 -0.00000000000E+00 -0.21202486555E+03  0.21202486557E+03  0.25500000000E-02 0. -1.
    -200001    2    1    2    0    0 -0.22492819475E+03 -0.31427356609E+03  0.88121792808E+03  0.11410395542E+04  0.61324192640E+03 0.  0.
   -5000001    2    3    3    0    0 -0.22908546682E+03 -0.41501326488E+03  0.35681807892E+03  0.59756740988E+03  0.71073952859E+02 0.  0.
     200001    1    1    2    0    0  0.22492819475E+03  0.31427356609E+03  0.15166670059E+04  0.16808951109E+04  0.61300000000E+03 0. -1.
         11    1    4    4    0    0 -0.17991120953E+03 -0.34060826251E+03  0.28982176677E+03  0.48205672726E+03  0.51100000000E-03 0.  1.
    -200002    1    4    4    0    0 -0.49174257293E+02 -0.74405002370E+02  0.66996312149E+02  0.11551068262E+03  0.30000000000E+02 0. -1.
    -200000    1    3    3    0    0  0.41572720725E+01  0.10073969879E+03  0.52439984916E+03  0.54347214430E+03  0.10100000000E+03 0.  1.
<mgrwt>
<rscale>  0 0.14877712E+04</rscale>
<asrwt>0</asrwt>
<pdfrwt beam="1">  1        2 0.37284425E+00 0.14877712E+04</pdfrwt>
<pdfrwt beam="2">  1       -2 0.30289267E-01 0.14877712E+04</pdfrwt>
<totfact> 0.37673449E+01</totfact>
</mgrwt>
</event>
<event>
 8    2  0.7237260E-052  0.1859270E+04  0.7818608E-02  0.8675400E-01
          2   -1    0    0  501    0  0.00000000000E+00  0.00000000000E+00  0.28147661729E+04  0.28147661729E+04  0.25500000000E-02 0.  1.
         -2   -1    0    0    0  501 -0.00000000000E+00 -0.00000000000E+00 -0.30703114081E+03  0.30703114082E+03  0.25500000000E-02 0. -1.
    -200001    2    1    2    0    0 -0.10918158841E+03  0.50069993173E+03  0.45407980860E+03  0.91818895063E+03  0.61176910317E+03 0.  0.
   -5000001    2    3    3    0    0  0.11689749035E+03  0.47927806667E+03  0.44366069120E+03  0.66943163082E+03  0.89058469394E+02 0.  0.
     200001    1    1    2    0    0  0.10918158841E+03 -0.50069993173E+03  0.20536552235E+04  0.22036083631E+04  0.61300000000E+03 0.  1.
         11    1    4    4    0    0  0.16809457335E+02  0.16749305760E+03  0.11072720520E+03  0.20148696278E+03  0.51100000000E-03 0.  1.
    -200002    1    4    4    0    0  0.10008803302E+03  0.31178500908E+03  0.33293348601E+03  0.46794466804E+03  0.30000000000E+02 0.  1.
    -200000    1    3    3    0    0 -0.22607907876E+03  0.21421865060E+02  0.10419117394E+02  0.24875731982E+03  0.10100000000E+03 0. -1.
<mgrwt>
<rscale>  0 0.18592696E+04</rscale>
<asrwt>0</asrwt>
<pdfrwt beam="1">  1        2 0.40210947E+00 0.18592696E+04</pdfrwt>
<pdfrwt beam="2">  1       -2 0.43861590E-01 0.18592696E+04</pdfrwt>
<totfact> 0.13891021E+01</totfact>
</mgrwt>
</event>
<event>
 8    2  0.7237260E-052  0.1427975E+04  0.7818608E-02  0.8933814E-01
          2   -1    0    0  501    0  0.00000000000E+00  0.00000000000E+00  0.48254619404E+03  0.48254619405E+03  0.25500000000E-02 0.  1.
         -2   -1    0    0    0  501 -0.00000000000E+00 -0.00000000000E+00 -0.10564342550E+04  0.10564342550E+04  0.25500000000E-02 0. -1.
    -200001    2    1    2    0    0  0.34768572540E+03 -0.94793817421E+02 -0.35535219151E+03  0.79507309074E+03  0.61318415516E+03 0.  0.
   -5000001    2    3    3    0    0  0.61237231001E+01  0.18581281857E+03  0.32215917368E+02  0.19857101648E+03  0.61876326066E+02 0.  0.
     200001    1    1    2    0    0 -0.34768572540E+03  0.94793817421E+02 -0.21853586941E+03  0.74390735827E+03  0.61300000000E+03 0. -1.
         11    1    4    4    0    0  0.14169779318E+02  0.83500892989E+02 -0.62855903822E+01  0.84927559853E+02  0.51100000000E-03 0.  1.
    -200002    1    4    4    0    0 -0.80460562175E+01  0.10231192558E+03  0.38501507750E+02  0.11364345663E+03  0.30000000000E+02 0.  1.
    -200000    1    3    3    0    0  0.34156200230E+03 -0.28060663599E+03 -0.38756810888E+03  0.59650207426E+03  0.10100000000E+03 0.  1.
<mgrwt>
<rscale>  0 0.14279753E+04</rscale>
<asrwt>0</asrwt>
<pdfrwt beam="1">  1        2 0.68935171E-01 0.14279753E+04</pdfrwt>
<pdfrwt beam="2">  1       -2 0.15091918E+00 0.14279753E+04</pdfrwt>
<totfact> 0.20044380E+01</totfact>
</mgrwt>
</event>
<event>
 8    2  0.7237260E-052  0.1841734E+04  0.7818608E-02  0.8684415E-01
          2   -1    0    0  501    0  0.00000000000E+00  0.00000000000E+00  0.14950234686E+04  0.14950234687E+04  0.25500000000E-02 0.  1.
         -2   -1    0    0    0  501 -0.00000000000E+00 -0.00000000000E+00 -0.56721277872E+03  0.56721277872E+03  0.25500000000E-02 0. -1.
    -200001    2    1    2    0    0  0.67902844236E+03 -0.10628501295E+03  0.47940873612E+03  0.10379269964E+04  0.61244067794E+03 0.  0.
   -5000001    2    3    3    0    0 -0.70985523688E+02  0.39287102427E+02 -0.43961692840E+02  0.10635316893E+03  0.52876697274E+02 0.  0.
     200001    1    1    2    0    0 -0.67902844236E+03  0.10628501295E+03  0.44840195382E+03  0.10243092510E+04  0.61300000000E+03 0. -1.
         11    1    4    4    0    0 -0.30794363570E+00 -0.38130194874E+01  0.44523454188E+01  0.58700363613E+01  0.51100000000E-03 0.  1.
    -200002    1    4    4    0    0 -0.70677580052E+02  0.43100121915E+02 -0.48414038258E+02  0.10048313257E+03  0.30000000000E+02 0.  1.
    -200000    1    3    3    0    0  0.75001396605E+03 -0.14557211538E+03  0.52337042896E+03  0.93157382743E+03  0.10100000000E+03 0.  1.
<mgrwt>
<rscale>  0 0.18417344E+04</rscale>
<asrwt>0</asrwt>
<pdfrwt beam="1">  1        2 0.21357478E+00 0.18417344E+04</pdfrwt>
<pdfrwt beam="2">  1       -2 0.81030398E-01 0.18417344E+04</pdfrwt>
<totfact> 0.18647468E+01</totfact>
</mgrwt>
</event>
<event>
 8    2  0.7237260E-052  0.1632401E+04  0.7818608E-02  0.8800886E-01
          2   -1    0    0  501    0  0.00000000000E+00  0.00000000000E+00  0.47906656094E+03  0.47906656095E+03  0.25500000000E-02 0.  1.
         -2   -1    0    0    0  501 -0.00000000000E+00 -0.00000000000E+00 -0.13905859256E+04  0.13905859256E+04  0.25500000000E-02 0. -1.
    -200001    2    1    2    0    0 -0.53652533132E+03 -0.53126630348E+02 -0.46733050856E+03  0.94026849168E+03  0.61239298022E+03 0.  0.
   -5000001    2    3    3    0    0 -0.33420728277E+03 -0.30502723299E+03 -0.31053122478E+03  0.56720881579E+03  0.14338786009E+03 0.  0.
     200001    1    1    2    0    0  0.53652533132E+03  0.53126630348E+02 -0.44418885606E+03  0.92938399483E+03  0.61300000000E+03 0.  1.
         11    1    4    4    0    0 -0.30703146608E+03 -0.21762458483E+03 -0.26745934275E+03  0.46169609172E+03  0.51100000000E-03 0.  1.
    -200002    1    4    4    0    0 -0.27175816694E+02 -0.87402648169E+02 -0.43071882029E+02  0.10551272407E+03  0.30000000000E+02 0.  1.
    -200000    1    3    3    0    0 -0.20231804855E+03  0.25190060265E+03 -0.15679928379E+03  0.37305967589E+03  0.10100000000E+03 0. -1.
<mgrwt>
<rscale>  0 0.16324010E+04</rscale>
<asrwt>0</asrwt>
<pdfrwt beam="1">  1        2 0.68438081E-01 0.16324010E+04</pdfrwt>
<pdfrwt beam="2">  1       -2 0.19865513E+00 0.16324010E+04</pdfrwt>
<totfact> 0.91689825E+00</totfact>
</mgrwt>
</event>
<event>
 8    2  0.7237260E-052  0.1241514E+04  0.7818608E-02  0.9077276E-01
          2   -1    0    0  501    0  0.00000000000E+00  0.00000000000E+00  0.17395152930E+04  0.17395152930E+04  0.25500000000E-02 0.  1.
         -2   -1    0    0    0  501 -0.00000000000E+00 -0.00000000000E+00 -0.22152099296E+03  0.22152099298E+03  0.25500000000E-02 0. -1.
    -200001    2    1    2    0    0 -0.33932818867E+02 -0.91845945029E+02  0.74915973664E+03  0.97287501387E+03  0.61290975502E+03 0.  0.
   -5000001    2    3    3    0    0 -0.24638743974E+03 -0.10901201849E+03  0.23518492836E+03  0.40736396751E+03  0.19504630441E+03 0.  0.
     200001    1    1    2    0    0  0.33932818867E+02  0.91845945029E+02  0.76883456340E+03  0.98816127211E+03  0.61300000000E+03 0.  1.
         11    1    4    4    0    0 -0.16720551574E+03  0.29292064402E+02  0.10708166816E+03  0.20070424307E+03  0.51100000000E-03 0.  1.
    -200002    1    4    4    0    0 -0.79181924005E+02 -0.13830408289E+03  0.12810326020E+03  0.20665972445E+03  0.30000000000E+02 0.  1.
    -200000    1    3    3    0    0  0.21245462087E+03  0.17166073460E+02  0.51397480828E+03  0.56551104636E+03  0.10100000000E+03 0. -1.
<mgrwt>
<rscale>  0 0.12415138E+04</rscale>
<asrwt>0</asrwt>
<pdfrwt beam="1">  1        2 0.24850218E+00 0.12415138E+04</pdfrwt>
<pdfrwt beam="2">  1       -2 0.31645856E-01 0.12415138E+04</pdfrwt>
<totfact> 0.99833821E+01</totfact>
</mgrwt>
</event>
<event>
 8    2  0.7237260E-052  0.1616624E+04  0.7818608E-02  0.8810400E-01
         -2   -1    0    0    0  501 -0.00000000000E+00  0.00000000000E+00  0.11048815433E+04  0.11048815433E+04  0.25500000000E-02 0. -1.
          2   -1    0    0  501    0  0.00000000000E+00 -0.00000000000E+00 -0.59134674585E+03  0.59134674585E+03  0.25500000000E-02 0.  1.
    -200001    2    1    2    0    0 -0.10544767296E+02  0.19746701247E+03 -0.25554701685E+03  0.69305320461E+03  0.61311830300E+03 0.  0.
   -5000001    2    3    3    0    0  0.52785962321E+02  0.33050293036E+03 -0.34850465788E+03  0.49167927435E+03  0.90964099897E+02 0.  0.
     200001    1    1    2    0    0  0.10544767296E+02 -0.19746701247E+03  0.76908181426E+03  0.10031750845E+04  0.61300000000E+03 0. -1.
         11    1    4    4    0    0 -0.12103322750E+01  0.42547951504E+02 -0.91040966738E+02  0.10050000351E+03  0.51100000000E-03 0.  1.
    -200002    1    4    4    0    0  0.53996294596E+02  0.28795497886E+03 -0.25746369114E+03  0.39117927084E+03  0.30000000000E+02 0.  1.
    -200000    1    3    3    0    0 -0.63330729617E+02 -0.13303591789E+03  0.92957641022E+02  0.20137393026E+03  0.10100000000E+03 0. -1.
<mgrwt>
<rscale>  0 0.16166238E+04</rscale>
<asrwt>0</asrwt>
<pdfrwt beam="1">  1        2 0.84478107E-01 0.16166238E+04</pdfrwt>
<pdfrwt beam="2">  1       -2 0.15784022E+00 0.16166238E+04</pdfrwt>
<totfact> 0.13842181E+01</totfact>
</mgrwt>
</event>
<event>
 8    2  0.7237260E-052  0.1964214E+04  0.7818608E-02  0.8623537E-01
          2   -1    0    0  501    0  0.00000000000E+00  0.00000000000E+00  0.12198449639E+04  0.12198449639E+04  0.25500000000E-02 0.  1.
         -2   -1    0    0    0  501 -0.00000000000E+00 -0.00000000000E+00 -0.79070247958E+03  0.79070247958E+03  0.25500000000E-02 0. -1.
    -200001    2    1    2    0    0  0.89046425877E+02 -0.27655284894E+03  0.94151203040E+03  0.11604284542E+04  0.61297516230E+03 0.  0.
   -5000001    2    3    3    0    0 -0.10184052902E+03 -0.40654494723E+03  0.56755610828E+03  0.70945195049E+03  0.74510714190E+02 0.  0.
     200001    1    1    2    0    0 -0.89046425877E+02  0.27655284894E+03 -0.51236954610E+03  0.85011898931E+03  0.61300000000E+03 0. -1.
         11    1    4    4    0    0 -0.46500550910E+02 -0.15608018987E+03  0.17037454115E+03  0.23569219584E+03  0.51100000000E-03 0.  1.
    -200002    1    4    4    0    0 -0.55339978113E+02 -0.25046475736E+03  0.39718156713E+03  0.47375975465E+03  0.30000000000E+02 0.  1.
    -200000    1    3    3    0    0  0.19088695490E+03  0.12999209830E+03  0.37395592212E+03  0.45097650367E+03  0.10100000000E+03 0.  1.
<mgrwt>
<rscale>  0 0.19642143E+04</rscale>
<asrwt>0</asrwt>
<pdfrwt beam="1">  1        2 0.17426357E+00 0.19642143E+04</pdfrwt>
<pdfrwt beam="2">  1       -2 0.11295750E+00 0.19642143E+04</pdfrwt>
<totfact> 0.11998889E+01</totfact>
</mgrwt>
</event>
<event>
 8    2  0.7237260E-052  0.1416045E+04  0.7818608E-02  0.8942285E-01
          2   -1    0    0  501    0  0.00000000000E+00  0.00000000000E+00  0.70213271808E+03  0.70213271808E+03  0.25500000000E-02 0.  1.
         -2   -1    0    0    0  501 -0.00000000000E+00 -0.00000000000E+00 -0.71396194762E+03  0.71396194762E+03  0.25500000000E-02 0. -1.
    -200001    2    1    2    0    0  0.19694024523E+03  0.15981454351E+03 -0.25294472197E+03  0.71023927740E+03  0.61329654350E+03 0.  0.
   -5000001    2    3    3    0    0  0.19891527248E+03 -0.12225128063E+03 -0.13833425998E+03  0.38945650373E+03  0.27933374227E+03 0.  0.
     200001    1    1    2    0    0 -0.19694024523E+03 -0.15981454351E+03  0.24111549243E+03  0.70585538831E+03  0.61300000000E+03 0.  1.
         11    1    4    4    0    0  0.95226387207E+01 -0.11161509108E+03  0.47997765972E+02  0.12187040142E+03  0.51100000000E-03 0.  1.
    -200002    1    4    4    0    0  0.18939263376E+03 -0.10636189556E+02 -0.18633202595E+03  0.26758610231E+03  0.30000000000E+02 0.  1.
    -200000    1    3    3    0    0 -0.19750272504E+01  0.28206582414E+03 -0.11461046199E+03  0.32078277367E+03  0.10100000000E+03 0.  1.
<mgrwt>
<rscale>  0 0.14160453E+04</rscale>
<asrwt>0</asrwt>
<pdfrwt beam="1">  1        2 0.10030467E+00 0.14160453E+04</pdfrwt>
<pdfrwt beam="2">  1       -2 0.10199456E+00 0.14160453E+04</pdfrwt>
<totfact> 0.34417249E+01</totfact>
</mgrwt>
</event>
<event>
 8    2  0.7237260E-052  0.1268304E+04  0.7818608E-02  0.9055085E-01
          2   -1    0    0  501    0  0.00000000000E+00  0.00000000000E+00  0.52259867936E+03  0.52259867936E+03  0.25500000000E-02 0.  1.
         -2   -1    0    0    0  501 -0.00000000000E+00 -0.00000000000E+00 -0.76951773181E+03  0.76951773181E+03  0.25500000000E-02 0. -1.
    -200001    2    1    2    0    0  0.67070986311E+02 -0.13704282342E+03 -0.66718267337E+02  0.63521415390E+03  0.61299791310E+03 0.  0.
   -5000001    2    3    3    0    0 -0.14699567039E+03  0.14218523738E+03 -0.13129455937E+03  0.26351004989E+03  0.10185733272E+03 0.  0.
     200001    1    1    2    0    0 -0.67070986311E+02  0.13704282342E+03 -0.18020078511E+03  0.65690225727E+03  0.61300000000E+03 0. -1.
         11    1    4    4    0    0  0.13640939249E+02  0.91544822286E+01 -0.17608544165E+02  0.24081955825E+02  0.51100000000E-03 0.  1.
    -200002    1    4    4    0    0 -0.16063660964E+03  0.13303075515E+03 -0.11368601521E+03  0.23942809406E+03  0.30000000000E+02 0.  1.
    -200000    1    3    3    0    0  0.21406665670E+03 -0.27922806080E+03  0.64576292035E+02  0.37170410401E+03  0.10100000000E+03 0. -1.
<mgrwt>
<rscale>  0 0.12683043E+04</rscale>
<asrwt>0</asrwt>
<pdfrwt beam="1">  1        2 0.74656954E-01 0.12683043E+04</pdfrwt>
<pdfrwt beam="2">  1       -2 0.10993110E+00 0.12683043E+04</pdfrwt>
<totfact> 0.41292966E+01</totfact>
</mgrwt>
</event>
<event>
 8    2  0.7237260E-052  0.1920163E+04  0.7818608E-02  0.8644885E-01
          2   -1    0    0  501    0  0.00000000000E+00  0.00000000000E+00  0.87197884435E+03  0.87197884436E+03  0.25500000000E-02 0. -1.
         -2   -1    0    0    0  501 -0.00000000000E+00 -0.00000000000E+00 -0.10570858268E+04  0.10570858268E+04  0.25500000000E-02 0.  1.
    -200001    2    1    2    0    0  0.39340602677E+03  0.24439138287E+03  0.48613155831E+03  0.90885605108E+03  0.61253569666E+03 0.  0.
   -5000001    2    3    3    0    0  0.32007299448E+03  0.36658075493E+03  0.32432474802E+03  0.67075854978E+03  0.32848488283E+03 0.  0.
     200001    1    1    2    0    0 -0.39340602677E+03 -0.24439138287E+03 -0.67123854079E+03  0.10202086201E+04  0.61300000000E+03 0.  1.
         11    1    4    4    0    0  0.17127341418E+03  0.23829824080E+03  0.36426238223E+01  0.29348577935E+03  0.51100000000E-03 0.  1.
    -200002    1    4    4    0    0  0.14879958030E+03  0.12828251413E+03  0.32068212420E+03  0.37727277043E+03  0.30000000000E+02 0.  1.
    -200000    1    3    3    0    0  0.73333032292E+02 -0.12218937206E+03  0.16180681029E+03  0.23809750130E+03  0.10100000000E+03 0. -1.
<mgrwt>
<rscale>  0 0.19201630E+04</rscale>
<asrwt>0</asrwt>
<pdfrwt beam="1">  1        2 0.12456841E+00 0.19201630E+04</pdfrwt>
<pdfrwt beam="2">  1       -2 0.15101226E+00 0.19201630E+04</pdfrwt>
<totfact> 0.93693884E+00</totfact>
</mgrwt>
</event>
<event>
 8    2  0.7237260E-052  0.1490428E+04  0.7818608E-02  0.8890843E-01
          2   -1    0    0  501    0  0.00000000000E+00  0.00000000000E+00  0.38316991010E+04  0.38316991010E+04  0.25500000000E-02 0. -1.
         -2   -1    0    0    0  501 -0.00000000000E+00 -0.00000000000E+00 -0.14493405590E+03  0.14493405592E+03  0.25500000000E-02 0.  1.
    -200001    2    1    2    0    0 -0.14969431035E+03  0.38668149700E+03  0.16151908837E+04  0.17768332858E+04  0.61348510019E+03 0.  0.
   -5000001    2    3    3    0    0  0.15824409119E+03  0.36044617468E+03  0.10534684773E+04  0.11277975294E+04  0.84668750997E+02 0.  0.
     200001    1    1    2    0    0  0.14969431035E+03 -0.38668149700E+03  0.20715741614E+04  0.21997998711E+04  0.61300000000E+03 0.  1.
         11    1    4    4    0    0  0.67919437102E+01  0.22198288524E+02  0.13398905364E+03  0.13598514996E+03  0.51100000000E-03 0.  1.
    -200002    1    4    4    0    0  0.15145214748E+03  0.33824788615E+03  0.91947942364E+03  0.99181237941E+03  0.30000000000E+02 0.  1.
    -200000    1    3    3    0    0 -0.30793840154E+03  0.26235322318E+02  0.56172240640E+03  0.64903575643E+03  0.10100000000E+03 0. -1.
<mgrwt>
<rscale>  0 0.14904277E+04</rscale>
<asrwt>0</asrwt>
<pdfrwt beam="1">  1        2 0.54738551E+00 0.14904277E+04</pdfrwt>
<pdfrwt beam="2">  1       -2 0.20704868E-01 0.14904277E+04</pdfrwt>
<totfact> 0.14628497E+01</totfact>
</mgrwt>
</event>
<event>
 8    2  0.7237260E-052  0.1262510E+04  0.7818608E-02  0.9059835E-01
          2   -1    0    0  501    0  0.00000000000E+00  0.00000000000E+00  0.53811082352E+03  0.53811082353E+03  0.25500000000E-02 0.  1.
         -2   -1    0    0    0  501 -0.00000000000E+00 -0.00000000000E+00 -0.74052159623E+03  0.74052159624E+03  0.25500000000E-02 0. -1.
    -200001    2    1    2    0    0 -0.86694449979E+02 -0.91974437609E+02 -0.18464238966E+03  0.65248551985E+03  0.61291868688E+03 0.  0.
   -5000001    2    3    3    0    0  0.21137687332E+03 -0.85774751733E+02  0.64305843304E+02  0.25116124626E+03  0.83121835469E+02 0.  0.
     200001    1    1    2    0    0  0.86694449979E+02  0.91974437609E+02 -0.17768383055E+02  0.62614689991E+03  0.61300000000E+03 0. -1.
         11    1    4    4    0    0  0.16787331064E+03 -0.80363162855E+02  0.67411539726E+02  0.19794949371E+03  0.51100000000E-03 0.  1.
    -200002    1    4    4    0    0  0.43503562681E+02 -0.54115888777E+01 -0.31056964221E+01  0.53211752559E+02  0.30000000000E+02 0. -1.
    -200000    1    3    3    0    0 -0.29807132330E+03 -0.61996858757E+01 -0.24894823296E+03  0.40132427359E+03  0.10100000000E+03 0. -1.
<mgrwt>
<rscale>  0 0.12625097E+04</rscale>
<asrwt>0</asrwt>
<pdfrwt beam="1">  1        2 0.76872975E-01 0.12625097E+04</pdfrwt>
<pdfrwt beam="2">  1       -2 0.10578880E+00 0.12625097E+04</pdfrwt>
<totfact> 0.43814110E+01</totfact>
</mgrwt>
</event>
<event>
 8    2  0.7237260E-052  0.1942194E+04  0.7818608E-02  0.8634134E-01
          2   -1    0    0  501    0  0.00000000000E+00  0.00000000000E+00  0.18085360776E+04  0.18085360776E+04  0.25500000000E-02 0.  1.
         -2   -1    0    0    0  501 -0.00000000000E+00 -0.00000000000E+00 -0.52143266932E+03  0.52143266933E+03  0.25500000000E-02 0. -1.
    -200001    2    1    2    0    0  0.36438598638E+03 -0.58685875432E+02 -0.14531132183E+03  0.72878101962E+03  0.61137976354E+03 0.  0.
   -5000001    2    3    3    0    0 -0.13632252779E+03 -0.10408035399E+03  0.36409573803E+01  0.19477965602E+03  0.92245900505E+02 0.  0.
     200001    1    1    2    0    0 -0.36438598638E+03  0.58685875432E+02  0.14324147301E+04  0.16011877273E+04  0.61300000000E+03 0.  1.
         11    1    4    4    0    0 -0.37553737362E+02  0.58733248470E+01  0.20224513040E+02  0.43055894632E+02  0.51100000000E-03 0.  1.
    -200002    1    4    4    0    0 -0.98768790427E+02 -0.10995367883E+03 -0.16583555660E+02  0.15172376139E+03  0.30000000000E+02 0.  1.
    -200000    1    3    3    0    0  0.50070851417E+03  0.45394478555E+02 -0.14895227922E+03  0.53400136360E+03  0.10100000000E+03 0.  1.
<mgrwt>
<rscale>  0 0.19421944E+04</rscale>
<asrwt>0</asrwt>
<pdfrwt beam="1">  1        2 0.25836230E+00 0.19421944E+04</pdfrwt>
<pdfrwt beam="2">  1       -2 0.74490380E-01 0.19421944E+04</pdfrwt>
<totfact> 0.15298140E+01</totfact>
</mgrwt>
</event>
<event>
 8    2  0.7237260E-052  0.2016259E+04  0.7818608E-02  0.8599057E-01
          2   -1    0    0  501    0  0.00000000000E+00  0.00000000000E+00  0.11735600424E+04  0.11735600424E+04  0.25500000000E-02 0.  1.
         -2   -1    0    0    0  501 -0.00000000000E+00 -0.00000000000E+00 -0.86601853529E+03  0.86601853530E+03  0.25500000000E-02 0. -1.
    -200001    2    1    2    0    0 -0.41283518266E+03 -0.68158306493E+03  0.82025495255E+02  0.10092316293E+04  0.61386638397E+03 0.  0.
   -5000001    2    3    3    0    0 -0.25758107570E+03 -0.10590004308E+03 -0.90012464313E+02  0.38049254284E+03  0.24312445730E+03 0.  0.
     200001    1    1    2    0    0  0.41283518266E+03  0.68158306493E+03  0.22551601189E+03  0.10303469484E+04  0.61300000000E+03 0. -1.
         11    1    4    4    0    0 -0.29916718282E+03 -0.79385820156E+02 -0.59464623660E+02  0.31518114344E+03  0.51100000000E-03 0.  1.
    -200002    1    4    4    0    0  0.41586107114E+02 -0.26514222919E+02 -0.30547840653E+02  0.65311399392E+02  0.30000000000E+02 0.  1.
    -200000    1    3    3    0    0 -0.15525410696E+03 -0.57568302185E+03  0.17203795957E+03  0.62873908651E+03  0.10100000000E+03 0. -1.
<mgrwt>
<rscale>  0 0.20162587E+04</rscale>
<asrwt>0</asrwt>
<pdfrwt beam="1">  1        2 0.16765143E+00 0.20162587E+04</pdfrwt>
<pdfrwt beam="2">  1       -2 0.12371693E+00 0.20162587E+04</pdfrwt>
<totfact> 0.10145866E+01</totfact>
</mgrwt>
</event>
<event>
 8    2  0.7237260E-052  0.1389916E+04  0.7818608E-02  0.8961150E-01
          2   -1    0    0  501    0  0.00000000000E+00  0.00000000000E+00  0.40987317802E+03  0.40987317802E+03  0.25500000000E-02 0.  1.
         -2   -1    0    0    0  501 -0.00000000000E+00 -0.00000000000E+00 -0.11783322714E+04  0.11783322714E+04  0.25500000000E-02 0. -1.
    -200001    2    1    2    0    0  0.13317841170E+03  0.19248767873E+03 -0.64696897950E+03  0.92088480419E+03  0.61210453874E+03 0.  0.
   -5000001    2    3    3    0    0 -0.10285744409E+03  0.26760529329E+03 -0.47506904061E+03  0.60291283966E+03  0.23584115858E+03 0.  0.
     200001    1    1    2    0    0 -0.13317841170E+03 -0.19248767873E+03 -0.12149011390E+03  0.66732064525E+03  0.61300000000E+03 0. -1.
         11    1    4    4    0    0 -0.13179753350E+02 -0.39634689427E+02 -0.10335778726E+03  0.11147845842E+03  0.51100000000E-03 0.  1.
    -200002    1    4    4    0    0 -0.89677690740E+02  0.30723998272E+03 -0.37171125335E+03  0.49143438124E+03  0.30000000000E+02 0.  1.
    -200000    1    3    3    0    0  0.23603585579E+03 -0.75117614558E+02 -0.17189993889E+03  0.31797196453E+03  0.10100000000E+03 0.  1.
<mgrwt>
<rscale>  0 0.13899162E+04</rscale>
<asrwt>0</asrwt>
<pdfrwt beam="1">  1        2 0.58553311E-01 0.13899162E+04</pdfrwt>
<pdfrwt beam="2">  1       -2 0.16833318E+00 0.13899162E+04</pdfrwt>
<totfact> 0.17963183E+01</totfact>
</mgrwt>
</event>
<event>
 8    2  0.7237260E-052  0.1599507E+04  0.7818608E-02  0.8820851E-01
         -2   -1    0    0    0  501 -0.00000000000E+00  0.00000000000E+00  0.97892833804E+03  0.97892833804E+03  0.25500000000E-02 0. -1.
          2   -1    0    0  501    0  0.00000000000E+00 -0.00000000000E+00 -0.65337299508E+03  0.65337299508E+03  0.25500000000E-02 0.  1.
    -200001    2    1    2    0    0  0.32276345753E+02  0.50519335412E+03  0.53306314367E+02  0.79197364638E+03  0.60672778564E+03 0.  0.
   -5000001    2    3    3    0    0  0.85787457147E+01  0.60734473372E+03 -0.47429689063E+02  0.61492782466E+03  0.83339268491E+02 0.  0.
     200001    1    1    2    0    0 -0.32276345753E+02 -0.50519335412E+03  0.27224902859E+03  0.84032768675E+03  0.61300000000E+03 0.  1.
         11    1    4    4    0    0 -0.20869278257E+02  0.10033759426E+03 -0.25991297841E+02  0.10572940538E+03  0.51100000000E-03 0.  1.
    -200002    1    4    4    0    0  0.29448023972E+02  0.50700713946E+03 -0.21438391222E+02  0.50919841928E+03  0.30000000000E+02 0.  1.
    -200000    1    3    3    0    0  0.23697600038E+02 -0.10215137961E+03  0.10073600343E+03  0.17704582172E+03  0.10100000000E+03 0.  1.
<mgrwt>
<rscale>  0 0.15995066E+04</rscale>
<asrwt>0</asrwt>
<pdfrwt beam="1">  1        2 0.93338999E-01 0.15995066E+04</pdfrwt>
<pdfrwt beam="2">  1       -2 0.13984691E+00 0.15995066E+04</pdfrwt>
<totfact> 0.16950170E+01</totfact>
</mgrwt>
</event>
<event>
 8    2  0.7237260E-052  0.1933224E+04  0.7818608E-02  0.8638493E-01
          2   -1    0    0  501    0  0.00000000000E+00  0.00000000000E+00  0.10827983595E+04  0.10827983595E+04  0.25500000000E-02 0.  1.
         -2   -1    0    0    0  501 -0.00000000000E+00 -0.00000000000E+00 -0.86289223411E+03  0.86289223411E+03  0.25500000000E-02 0. -1.
    -200001    2    1    2    0    0  0.13972370155E+03 -0.35198993068E+03 -0.53393183284E+03  0.90287695190E+03  0.62183917862E+03 0.  0.
   -5000001    2    3    3    0    0  0.17671880166E+03 -0.50063523547E+03 -0.38661068068E+03  0.66757164821E+03  0.11966166146E+03 0.  0.
     200001    1    1    2    0    0 -0.13972370155E+03  0.35198993068E+03  0.75383795825E+03  0.10428136417E+04  0.61300000000E+03 0.  1.
         11    1    4    4    0    0 -0.53740783373E+01  0.40836576809E+01 -0.61054719796E+01  0.91013057516E+01  0.51100000000E-03 0.  1.
    -200002    1    4    4    0    0  0.18209287999E+03 -0.50471889315E+03 -0.38050520870E+03  0.65847034246E+03  0.30000000000E+02 0.  1.
    -200000    1    3    3    0    0 -0.36995100105E+02  0.14864530479E+03 -0.14732115217E+03  0.23530530369E+03  0.10100000000E+03 0.  1.
<mgrwt>
<rscale>  0 0.19332235E+04</rscale>
<asrwt>0</asrwt>
<pdfrwt beam="1">  1        2 0.15468548E+00 0.19332235E+04</pdfrwt>
<pdfrwt beam="2">  1       -2 0.12327032E+00 0.19332235E+04</pdfrwt>
<totfact> 0.11645138E+01</totfact>
</mgrwt>
</event>
<event>
 8    2  0.7237260E-052  0.1694183E+04  0.7818608E-02  0.8764689E-01
          2   -1    0    0  501    0  0.00000000000E+00  0.00000000000E+00  0.16587289872E+04  0.16587289872E+04  0.25500000000E-02 0.  1.
         -2   -1    0    0    0  501 -0.00000000000E+00 -0.00000000000E+00 -0.43259880468E+03  0.43259880469E+03  0.25500000000E-02 0. -1.
    -200001    2    1    2    0    0 -0.27816965259E+03 -0.52266296377E+02  0.12445851802E+04  0.14158874108E+04  0.61289050252E+03 0.  0.
   -5000001    2    3    3    0    0 -0.23719662024E+03 -0.14606055032E+03  0.12386768768E+04  0.12719705616E+04  0.77413069789E+02 0.  0.
     200001    1    1    2    0    0  0.27816965259E+03  0.52266296377E+02 -0.18454997707E+02  0.67544038101E+03  0.61300000000E+03 0. -1.
         11    1    4    4    0    0 -0.15593698958E+03 -0.12437487443E+03  0.82569803402E+03  0.84944846665E+03  0.51100000000E-03 0.  1.
    -200002    1    4    4    0    0 -0.81259630667E+02 -0.21685675892E+02  0.41297884279E+03  0.42252209493E+03  0.30000000000E+02 0.  1.
    -200000    1    3    3    0    0 -0.40973032345E+02  0.93794253946E+02  0.59083033845E+01  0.14391684926E+03  0.10100000000E+03 0. -1.
<mgrwt>
<rscale>  0 0.16941832E+04</rscale>
<asrwt>0</asrwt>
<pdfrwt beam="1">  1        2 0.23696128E+00 0.16941832E+04</pdfrwt>
<pdfrwt beam="2">  1       -2 0.61799831E-01 0.16941832E+04</pdfrwt>
<totfact> 0.27978133E+01</totfact>
</mgrwt>
</event>
<event>
 8    2  0.7237260E-052  0.1309129E+04  0.7818608E-02  0.9022357E-01
         -2   -1    0    0    0  501 -0.00000000000E+00  0.00000000000E+00  0.32614449292E+03  0.32614449293E+03  0.25500000000E-02 0. -1.
          2   -1    0    0  501    0  0.00000000000E+00 -0.00000000000E+00 -0.13136967180E+04  0.13136967180E+04  0.25500000000E-02 0.  1.
    -200001    2    1    2    0    0  0.44347169686E+02  0.22304617776E+03 -0.46788056146E+03  0.80465027058E+03  0.61386771317E+03 0.  0.
   -5000001    2    3    3    0    0 -0.21791166026E+03  0.16484752901E+03 -0.44461486578E+02  0.29313146391E+03  0.96379623624E+02 0.  0.
     200001    1    1    2    0    0 -0.44347169686E+02 -0.22304617776E+03 -0.51967166363E+03  0.83519094036E+03  0.61300000000E+03 0. -1.
         11    1    4    4    0    0 -0.30316856084E+02  0.34795666879E+02 -0.42732647635E+02  0.62896179300E+02  0.51100000000E-03 0.  1.
    -200002    1    4    4    0    0 -0.18759480417E+03  0.13005186213E+03 -0.17288389430E+01  0.23023528461E+03  0.30000000000E+02 0.  1.
    -200000    1    3    3    0    0  0.26225882994E+03  0.58198648758E+02 -0.42341907488E+03  0.51151880667E+03  0.10100000000E+03 0.  1.
<mgrwt>
<rscale>  0 0.13091294E+04</rscale>
<asrwt>0</asrwt>
<pdfrwt beam="1">  1        2 0.18767096E+00 0.13091294E+04</pdfrwt>
<pdfrwt beam="2">  1       -2 0.46592071E-01 0.13091294E+04</pdfrwt>
<totfact> 0.78936354E+01</totfact>
</mgrwt>
</event>
<event>
 8    2  0.7237260E-052  0.1374636E+04  0.7818608E-02  0.8972386E-01
          2   -1    0    0  501    0  0.00000000000E+00  0.00000000000E+00  0.99293086488E+03  0.99293086488E+03  0.25500000000E-02 0. -1.
         -2   -1    0    0    0  501 -0.00000000000E+00 -0.00000000000E+00 -0.47576907502E+03  0.47576907503E+03  0.25500000000E-02 0.  1.
    -200001    2    1    2    0    0 -0.66185394432E+02 -0.29591581422E+03  0.35651461762E+03  0.76618788344E+03  0.60662552255E+03 0.  0.
   -5000001    2    3    3    0    0  0.16039943051E+03 -0.32549026767E+03  0.64470574537E+02  0.38186242983E+03  0.99952832239E+02 0.  0.
     200001    1    1    2    0    0  0.66185394432E+02  0.29591581422E+03  0.16064717224E+03  0.70251205648E+03  0.61300000000E+03 0.  1.
         11    1    4    4    0    0  0.94033804629E+02 -0.17960607269E+03  0.80267844377E+02  0.21804500591E+03  0.51100000000E-03 0.  1.
    -200002    1    4    4    0    0  0.66365625884E+02 -0.14588419498E+03 -0.15797269840E+02  0.16381742392E+03  0.30000000000E+02 0.  1.
    -200000    1    3    3    0    0 -0.22658482495E+03  0.29574453450E+02  0.29204404308E+03  0.38432545361E+03  0.10100000000E+03 0. -1.
<mgrwt>
<rscale>  0 0.13746357E+04</rscale>
<asrwt>0</asrwt>
<pdfrwt beam="1">  1        2 0.14184726E+00 0.13746357E+04</pdfrwt>
<pdfrwt beam="2">  1       -2 0.67967012E-01 0.13746357E+04</pdfrwt>
<totfact> 0.54915165E+01</totfact>
</mgrwt>
</event>
<event>
 8    2  0.7237260E-052  0.1958219E+04  0.7818608E-02  0.8626407E-01
         -2   -1    0    0    0  501 -0.00000000000E+00  0.00000000000E+00  0.36697165862E+03  0.36697165863E+03  0.25500000000E-02 0. -1.
          2   -1    0    0  501    0  0.00000000000E+00 -0.00000000000E+00 -0.26123427356E+04  0.26123427356E+04  0.25500000000E-02 0.  1.
    -200001    2    1    2    0    0 -0.59550964641E+03 -0.14985357580E+03 -0.18134554237E+04  0.20100837897E+04  0.61215066355E+03 0.  0.
   -5000001    2    3    3    0    0 -0.42209479837E+03 -0.30327102473E+03 -0.15835587545E+04  0.16685239829E+04  0.78591470197E+02 0.  0.
     200001    1    1    2    0    0  0.59550964641E+03  0.14985357580E+03 -0.43191565331E+03  0.96923060451E+03  0.61300000000E+03 0. -1.
         11    1    4    4    0    0 -0.27769163850E+03 -0.20770453135E+03 -0.11339271556E+04  0.11857675205E+04  0.51100000000E-03 0.  1.
    -200002    1    4    4    0    0 -0.14440315987E+03 -0.95566493380E+02 -0.44963159892E+03  0.48275646240E+03  0.30000000000E+02 0.  1.
    -200000    1    3    3    0    0 -0.17341484805E+03  0.15341744893E+03 -0.22989666915E+03  0.34155980683E+03  0.10100000000E+03 0.  1.
<mgrwt>
<rscale>  0 0.19582193E+04</rscale>
<asrwt>0</asrwt>
<pdfrwt beam="1">  1        2 0.37319181E+00 0.19582193E+04</pdfrwt>
<pdfrwt beam="2">  1       -2 0.52424524E-01 0.19582193E+04</pdfrwt>
<totfact> 0.12344909E+01</totfact>
</mgrwt>
</event>
<event>
 8    2  0.7237260E-052  0.1752701E+04  0.7818608E-02  0.8731865E-01
          2   -1    0    0  501    0  0.00000000000E+00  0.00000000000E+00  0.11769801561E+04  0.11769801561E+04  0.25500000000E-02 0.  1.
         -2   -1    0    0    0  501 -0.00000000000E+00 -0.00000000000E+00 -0.65250877982E+03  0.65250877982E+03  0.25500000000E-02 0. -1.
    -200001    2    1    2    0    0  0.23337958582E+03  0.36344698078E+03  0.73591110929E+03  0.10503641067E+04  0.61248661772E+03 0.  0.
   -5000001    2    3    3    0    0  0.37753706833E+03  0.67783470769E+02  0.43580317227E+03  0.59378545541E+03  0.12461109595E+03 0.  0.
     200001    1    1    2    0    0 -0.23337958582E+03 -0.36344698078E+03 -0.21143973298E+03  0.77912482928E+03  0.61300000000E+03 0. -1.
         11    1    4    4    0    0  0.12139145253E+03  0.48403143738E+01  0.65095467127E+02  0.13782863720E+03  0.51100000000E-03 0.  1.
    -200002    1    4    4    0    0  0.25614561580E+03  0.62943156396E+02  0.37070770514E+03  0.45595681822E+03  0.30000000000E+02 0.  1.
    -200000    1    3    3    0    0 -0.14415748251E+03  0.29566351001E+03  0.30010793702E+03  0.45657865125E+03  0.10100000000E+03 0.  1.
<mgrwt>
<rscale>  0 0.17527006E+04</rscale>
<asrwt>0</asrwt>
<pdfrwt beam="1">  1        2 0.16814002E+00 0.17527006E+04</pdfrwt>
<pdfrwt beam="2">  1       -2 0.93215541E-01 0.17527006E+04</pdfrwt>
<totfact> 0.20400664E+01</totfact>
</mgrwt>
</event>
<event>
 8    2  0.7237260E-052  0.1479603E+04  0.7818608E-02  0.8898131E-01
         -2   -1    0    0    0  501 -0.00000000000E+00  0.00000000000E+00  0.43204212719E+03  0.43204212720E+03  0.25500000000E-02 0. -1.
          2   -1    0    0  501    0  0.00000000000E+00 -0.00000000000E+00 -0.12667885337E+04  0.12667885337E+04  0.25500000000E-02 0.  1.
    -200001    2    1    2    0    0  0.37684993089E+02 -0.34986650582E+03 -0.66837647534E+03  0.97269383870E+03  0.61284538054E+03 0.  0.
   -5000001    2    3    3    0    0 -0.13054550871E+03  0.68851740795E+02 -0.60627340218E+02  0.20902736501E+03  0.13503359911E+03 0.  0.
     200001    1    1    2    0    0 -0.37684993089E+02  0.34986650582E+03 -0.16636993121E+03  0.72613682224E+03  0.61300000000E+03 0. -1.
         11    1    4    4    0    0 -0.90674804451E+02 -0.12024573188E+01 -0.79929730724E+02  0.12088063501E+03  0.51100000000E-03 0.  1.
    -200002    1    4    4    0    0 -0.39870704257E+02  0.70054198113E+02  0.19302390506E+02  0.88146730004E+02  0.30000000000E+02 0.  1.
    -200000    1    3    3    0    0  0.16823050180E+03 -0.41871824662E+03 -0.60774913512E+03  0.76366647369E+03  0.10100000000E+03 0.  1.
<mgrwt>
<rscale>  0 0.14796027E+04</rscale>
<asrwt>0</asrwt>
<pdfrwt beam="1">  1        2 0.18096979E+00 0.14796027E+04</pdfrwt>
<pdfrwt beam="2">  1       -2 0.61720304E-01 0.14796027E+04</pdfrwt>
<totfact> 0.46309674E+01</totfact>
</mgrwt>
</event>
<event>
 8    2  0.7237260E-052  0.1245700E+04  0.7818608E-02  0.9073769E-01
         -2   -1    0    0    0  501 -0.00000000000E+00  0.00000000000E+00  0.40597028926E+03  0.40597028927E+03  0.25500000000E-02 0. -1.
          2   -1    0    0  501    0  0.00000000000E+00 -0.00000000000E+00 -0.95559309020E+03  0.95559309020E+03  0.25500000000E-02 0.  1.
    -200001    2    1    2    0    0 -0.15797302573E+02 -0.10910570114E+03 -0.28344777568E+03  0.68423646220E+03  0.61293008237E+03 0.  0.
   -5000001    2    3    3    0    0  0.11757459428E+02 -0.29364872548E+03  0.30921328099E+02  0.30496831675E+03  0.75377276833E+02 0.  0.
     200001    1    1    2    0    0  0.15797302573E+02  0.10910570114E+03 -0.26617502525E+03  0.67732691727E+03  0.61300000000E+03 0. -1.
         11    1    4    4    0    0  0.28381313358E+02 -0.11574131777E+03 -0.87556254259E+01  0.11949147486E+03  0.51100000000E-03 0.  1.
    -200002    1    4    4    0    0 -0.16623853930E+02 -0.17790740771E+03  0.39676953525E+02  0.18547684189E+03  0.30000000000E+02 0.  1.
    -200000    1    3    3    0    0 -0.27554762001E+02  0.18454302434E+03 -0.31436910378E+03  0.37926814545E+03  0.10100000000E+03 0.  1.
<mgrwt>
<rscale>  0 0.12457005E+04</rscale>
<asrwt>0</asrwt>
<pdfrwt beam="1">  1        2 0.13651330E+00 0.12457005E+04</pdfrwt>
<pdfrwt beam="2">  1       -2 0.57995756E-01 0.12457005E+04</pdfrwt>
<totfact> 0.82022816E+01</totfact>
</mgrwt>
</event>
<event>
 8    2  0.7237260E-052  0.1405483E+04  0.7818608E-02  0.8949859E-01
         -2   -1    0    0    0  501 -0.00000000000E+00  0.00000000000E+00  0.35787988818E+03  0.35787988819E+03  0.25500000000E-02 0. -1.
          2   -1    0    0  501    0  0.00000000000E+00 -0.00000000000E+00 -0.13799202821E+04  0.13799202821E+04  0.25500000000E-02 0.  1.
    -200001    2    1    2    0    0  0.10320340683E+03 -0.18713931651E+03 -0.84428091656E+03  0.10647180811E+04  0.61248857884E+03 0.  0.
   -5000001    2    3    3    0    0  0.14254872071E+02  0.10709648859E+03 -0.69697537507E+03  0.70920932821E+03  0.74366245860E+02 0.  0.
     200001    1    1    2    0    0 -0.10320340683E+03  0.18713931651E+03 -0.17775947733E+03  0.67308208916E+03  0.61300000000E+03 0. -1.
         11    1    4    4    0    0  0.22382882325E+02  0.88872678784E+02 -0.41882160143E+03  0.42873171130E+03  0.51100000000E-03 0.  1.
    -200002    1    4    4    0    0 -0.81280102547E+01  0.18223809801E+02 -0.27815377364E+03  0.28047761691E+03  0.30000000000E+02 0.  1.
    -200000    1    3    3    0    0  0.88948534759E+02 -0.29423580509E+03 -0.14730554149E+03  0.35550875290E+03  0.10100000000E+03 0. -1.
<mgrwt>
<rscale>  0 0.14054831E+04</rscale>
<asrwt>0</asrwt>
<pdfrwt beam="1">  1        2 0.19713147E+00 0.14054831E+04</pdfrwt>
<pdfrwt beam="2">  1       -2 0.51125699E-01 0.14054831E+04</pdfrwt>
<totfact> 0.59735043E+01</totfact>
</mgrwt>
</event>
<event>
 8    2  0.7237260E-052  0.1257576E+04  0.7818608E-02  0.9063901E-01
          2   -1    0    0  501    0  0.00000000000E+00  0.00000000000E+00  0.10347731240E+04  0.10347731240E+04  0.25500000000E-02 0.  1.
         -2   -1    0    0    0  501 -0.00000000000E+00 -0.00000000000E+00 -0.38208794189E+03  0.38208794190E+03  0.25500000000E-02 0. -1.
    -200001    2    1    2    0    0  0.30890586066E+02  0.10744478138E+02  0.16827756285E+03  0.63488318021E+03  0.61130159679E+03 0.  0.
   -5000001    2    3    3    0    0 -0.23824640737E+03 -0.67071027339E+02  0.21061985080E+03  0.33407785533E+03  0.77378411294E+02 0.  0.
     200001    1    1    2    0    0 -0.30890586066E+02 -0.10744478138E+02  0.48440761927E+03  0.78197788570E+03  0.61300000000E+03 0.  1.
         11    1    4    4    0    0 -0.59526441691E+02 -0.38785887139E+02  0.31527318327E+02  0.77728463916E+02  0.51100000000E-03 0.  1.
    -200002    1    4    4    0    0 -0.17871996568E+03 -0.28285140200E+02  0.17909253247E+03  0.25634939141E+03  0.30000000000E+02 0.  1.
    -200000    1    3    3    0    0  0.26913699344E+03  0.77815505477E+02 -0.42342287944E+02  0.30080532488E+03  0.10100000000E+03 0. -1.
<mgrwt>
<rscale>  0 0.12575760E+04</rscale>
<asrwt>0</asrwt>
<pdfrwt beam="1">  1        2 0.14782473E+00 0.12575760E+04</pdfrwt>
<pdfrwt beam="2">  1       -2 0.54583993E-01 0.12575760E+04</pdfrwt>
<totfact> 0.83057960E+01</totfact>
</mgrwt>
</event>
<event>
 8    2  0.7237260E-052  0.1906636E+04  0.7818608E-02  0.8651560E-01
         -2   -1    0    0    0  501 -0.00000000000E+00  0.00000000000E+00  0.48393588472E+03  0.48393588473E+03  0.25500000000E-02 0. -1.
          2   -1    0    0  501    0  0.00000000000E+00 -0.00000000000E+00 -0.18779671303E+04  0.18779671303E+04  0.25500000000E-02 0.  1.
    -200001    2    1    2    0    0 -0.45967482333E+03 -0.56552780946E+03 -0.67011512497E+03  0.11656813816E+04  0.61533418263E+03 0.  0.
   -5000001    2    3    3    0    0 -0.40526002602E+03 -0.41124484407E+03 -0.75525082639E+03  0.95541181363E+03  0.95131027544E+02 0.  0.
     200001    1    1    2    0    0  0.45967482333E+03  0.56552780946E+03 -0.72391612058E+03  0.11962216334E+04  0.61300000000E+03 0. -1.
         11    1    4    4    0    0 -0.97567240763E+02 -0.53649786939E+02 -0.16797300385E+03  0.20152567115E+03  0.51100000000E-03 0.  1.
    -200002    1    4    4    0    0 -0.30769278526E+03 -0.35759505713E+03 -0.58727782253E+03  0.75388614248E+03  0.30000000000E+02 0.  1.
    -200000    1    3    3    0    0 -0.54414797308E+02 -0.15428296540E+03  0.85135701416E+02  0.21026956801E+03  0.10100000000E+03 0. -1.
<mgrwt>
<rscale>  0 0.19066365E+04</rscale>
<asrwt>0</asrwt>
<pdfrwt beam="1">  1        2 0.26828102E+00 0.19066365E+04</pdfrwt>
<pdfrwt beam="2">  1       -2 0.69133699E-01 0.19066365E+04</pdfrwt>
<totfact> 0.16638805E+01</totfact>
</mgrwt>
</event>
<event>
 8    2  0.7237260E-052  0.2003970E+04  0.7818608E-02  0.8604767E-01
          2   -1    0    0  501    0  0.00000000000E+00  0.00000000000E+00  0.51129022719E+03  0.51129022720E+03  0.25500000000E-02 0.  1.
         -2   -1    0    0    0  501 -0.00000000000E+00 -0.00000000000E+00 -0.19636092873E+04  0.19636092873E+04  0.25500000000E-02 0. -1.
    -200001    2    1    2    0    0  0.19951446648E+03  0.28002873109E+03  0.15571249826E+03  0.71997598190E+03  0.61310433030E+03 0.  0.
   -5000001    2    3    3    0    0  0.38570359103E+03  0.29049350970E+03  0.13749351695E+03  0.50711726591E+03  0.71482269576E+02 0.  0.
     200001    1    1    2    0    0 -0.19951446648E+03 -0.28002873109E+03 -0.16080315584E+04  0.17549235326E+04  0.61300000000E+03 0. -1.
         11    1    4    4    0    0  0.25930192360E+02  0.40052264623E+02  0.23504966282E+02  0.53188741454E+02  0.51100000000E-03 0.  1.
    -200002    1    4    4    0    0  0.35977339867E+03  0.25044124508E+03  0.11398855067E+03  0.45392852446E+03  0.30000000000E+02 0.  1.
    -200000    1    3    3    0    0 -0.18618912455E+03 -0.10464778616E+02  0.18218981304E+02  0.21285871599E+03  0.10100000000E+03 0. -1.
<mgrwt>
<rscale>  0 0.20039703E+04</rscale>
<asrwt>0</asrwt>
<pdfrwt beam="1">  1        2 0.73041462E-01 0.20039703E+04</pdfrwt>
<pdfrwt beam="2">  1       -2 0.28051561E+00 0.20039703E+04</pdfrwt>
<totfact> 0.25507245E+00</totfact>
</mgrwt>
</event>
<event>
 8    2  0.7237260E-052  0.1889722E+04  0.7818608E-02  0.8659989E-01
         -2   -1    0    0    0  501 -0.00000000000E+00  0.00000000000E+00  0.51907563810E+03  0.51907563811E+03  0.25500000000E-02 0. -1.
          2   -1    0    0  501    0  0.00000000000E+00 -0.00000000000E+00 -0.17199081195E+04  0.17199081195E+04  0.25500000000E-02 0.  1.
    -200001    2    1    2    0    0 -0.25735461267E+03 -0.18866403940E+03 -0.13634053481E+04  0.15290369614E+04  0.61421036268E+03 0.  0.
   -5000001    2    3    3    0    0 -0.25336726147E+03  0.83319073163E+02 -0.22677675538E+03  0.35595713874E+03  0.64348665111E+02 0.  0.
     200001    1    1    2    0    0  0.25735461267E+03  0.18866403940E+03  0.16257286674E+03  0.70994679619E+03  0.61300000000E+03 0. -1.
         11    1    4    4    0    0 -0.13238921505E+03  0.66731604838E+02 -0.11346857032E+03  0.18669528060E+03  0.51100000000E-03 0.  1.
    -200002    1    4    4    0    0 -0.12097804642E+03  0.16587468324E+02 -0.11330818505E+03  0.16926185814E+03  0.30000000000E+02 0.  1.
    -200000    1    3    3    0    0 -0.39873511970E+01 -0.27198311257E+03 -0.11366285928E+04  0.11730798227E+04  0.10100000000E+03 0.  1.
<mgrwt>
<rscale>  0 0.18897221E+04</rscale>
<asrwt>0</asrwt>
<pdfrwt beam="1">  1        2 0.24570116E+00 0.18897221E+04</pdfrwt>
<pdfrwt beam="2">  1       -2 0.74153664E-01 0.18897221E+04</pdfrwt>
<totfact> 0.17248111E+01</totfact>
</mgrwt>
</event>
<event>
 8    2  0.7237260E-052  0.1335468E+04  0.7818608E-02  0.9001902E-01
         -2   -1    0    0    0  501 -0.00000000000E+00  0.00000000000E+00  0.27582918761E+03  0.27582918762E+03  0.25500000000E-02 0. -1.
          2   -1    0    0  501    0  0.00000000000E+00 -0.00000000000E+00 -0.16164672388E+04  0.16164672388E+04  0.25500000000E-02 0.  1.
    -200001    2    1    2    0    0 -0.14603875322E+01 -0.95119620091E+02 -0.32128951946E+03  0.69902767883E+03  0.61348420158E+03 0.  0.
   -5000001    2    3    3    0    0  0.62549511500E+02  0.22672871252E+03 -0.48563906442E+02  0.26054862987E+03  0.10103853248E+03 0.  0.
     200001    1    1    2    0    0  0.14603875322E+01  0.95119620091E+02 -0.10193485318E+04  0.11932687476E+04  0.61300000000E+03 0.  1.
         11    1    4    4    0    0  0.78128926255E+02  0.17871458523E+03 -0.51579214918E+02  0.20175095416E+03  0.51100000000E-03 0.  1.
    -200002    1    4    4    0    0 -0.15579414755E+02  0.48014127289E+02  0.30153084760E+01  0.58797675708E+02  0.30000000000E+02 0. -1.
    -200000    1    3    3    0    0 -0.64009899032E+02 -0.32184833261E+03 -0.27272561302E+03  0.43847904896E+03  0.10100000000E+03 0.  1.
<mgrwt>
<rscale>  0 0.13354682E+04</rscale>
<asrwt>0</asrwt>
<pdfrwt beam="1">  1        2 0.23092389E+00 0.13354682E+04</pdfrwt>
<pdfrwt beam="2">  1       -2 0.39404170E-01 0.13354682E+04</pdfrwt>
<totfact> 0.75553431E+01</totfact>
</mgrwt>
</event>
<event>
 8    2  0.7237260E-052  0.1556957E+04  0.7818608E-02  0.8847436E-01
          2   -1    0    0  501    0  0.00000000000E+00  0.00000000000E+00  0.10542437486E+04  0.10542437486E+04  0.25500000000E-02 0.  1.
         -2   -1    0    0    0  501 -0.00000000000E+00 -0.00000000000E+00 -0.57484721604E+03  0.57484721605E+03  0.25500000000E-02 0. -1.
    -200001    2    1    2    0    0 -0.29321391301E+03  0.86459790616E+02 -0.14555887251E+03  0.70184345050E+03  0.61477406376E+03 0.  0.
   -5000001    2    3    3    0    0 -0.28807601145E+03  0.10918740793E+02  0.17605812615E+03  0.35634187009E+03  0.11347271620E+03 0.  0.
     200001    1    1    2    0    0  0.29321391301E+03 -0.86459790616E+02  0.62495540505E+03  0.92724751414E+03  0.61300000000E+03 0.  1.
         11    1    4    4    0    0 -0.74774898560E+02  0.31043332409E+02  0.60358330473E+01  0.81187469615E+02  0.51100000000E-03 0.  1.
    -200002    1    4    4    0    0 -0.21330111289E+03 -0.20124591615E+02  0.17002229310E+03  0.27515440048E+03  0.30000000000E+02 0.  1.
    -200000    1    3    3    0    0 -0.51379015546E+01  0.75541049822E+02 -0.32161699866E+03  0.34550158041E+03  0.10100000000E+03 0. -1.
<mgrwt>
<rscale>  0 0.15569574E+04</rscale>
<asrwt>0</asrwt>
<pdfrwt beam="1">  1        2 0.15060625E+00 0.15569574E+04</pdfrwt>
<pdfrwt beam="2">  1       -2 0.82121031E-01 0.15569574E+04</pdfrwt>
<totfact> 0.32692999E+01</totfact>
</mgrwt>
</event>
<event>
 8    2  0.7237260E-052  0.1462460E+04  0.7818608E-02  0.8909808E-01
          2   -1    0    0  501    0  0.00000000000E+00  0.00000000000E+00  0.22743923071E+04  0.22743923071E+04  0.25500000000E-02 0.  1.
         -2   -1    0    0    0  501 -0.00000000000E+00 -0.00000000000E+00 -0.23509458196E+03  0.23509458197E+03  0.25500000000E-02 0. -1.
    -200001    2    1    2    0    0  0.34938686663E+03  0.10123518919E+03  0.13003316907E+04  0.14827641679E+04  0.61270492545E+03 0.  0.
   -5000001    2    3    3    0    0  0.37458647518E+03 -0.16773069194E+03  0.68712386551E+03  0.80511934769E+03  0.87346122190E+02 0.  0.
     200001    1    1    2    0    0 -0.34938686663E+03 -0.10123518919E+03  0.73896603446E+03  0.10267227212E+04  0.61300000000E+03 0. -1.
         11    1    4    4    0    0  0.28342742965E+03 -0.10003467589E+03  0.52462624336E+03  0.60462446152E+03  0.51100000000E-03 0.  1.
    -200002    1    4    4    0    0  0.91159045538E+02 -0.67696016052E+02  0.16249762215E+03  0.20049488616E+03  0.30000000000E+02 0.  1.
    -200000    1    3    3    0    0 -0.25199608552E+02  0.26896588113E+03  0.61320782517E+03  0.67764482019E+03  0.10100000000E+03 0. -1.
<mgrwt>
<rscale>  0 0.14624600E+04</rscale>
<asrwt>0</asrwt>
<pdfrwt beam="1">  1        2 0.32491319E+00 0.14624600E+04</pdfrwt>
<pdfrwt beam="2">  1       -2 0.33584940E-01 0.14624600E+04</pdfrwt>
<totfact> 0.46565736E+01</totfact>
</mgrwt>
</event>
<event>
 8    2  0.7237260E-052  0.1650933E+04  0.7818608E-02  0.8789855E-01
         -2   -1    0    0    0  501 -0.00000000000E+00  0.00000000000E+00  0.24296600030E+03  0.24296600031E+03  0.25500000000E-02 0. -1.
          2   -1    0    0  501    0  0.00000000000E+00 -0.00000000000E+00 -0.28044856815E+04  0.28044856815E+04  0.25500000000E-02 0.  1.
    -200001    2    1    2    0    0  0.53932708265E+03 -0.11676483659E+03 -0.12277342908E+04  0.14792488261E+04  0.61346383060E+03 0.  0.
   -5000001    2    3    3    0    0  0.31633617144E+03  0.19380525968E+03 -0.47973011807E+03  0.63314601103E+03  0.18194458787E+03 0.  0.
     200001    1    1    2    0    0 -0.53932708265E+03  0.11676483659E+03 -0.13337853904E+04  0.15682028557E+04  0.61300000000E+03 0.  1.
         11    1    4    4    0    0  0.25791063829E+03  0.12028710911E+03 -0.44579650077E+03  0.52888695017E+03  0.51100000000E-03 0.  1.
    -200002    1    4    4    0    0  0.58425533151E+02  0.73518150577E+02 -0.33933617301E+02  0.10425906086E+03  0.30000000000E+02 0.  1.
    -200000    1    3    3    0    0  0.22299091121E+03 -0.31057009627E+03 -0.74800417277E+03  0.84610281507E+03  0.10100000000E+03 0.  1.
<mgrwt>
<rscale>  0 0.16509327E+04</rscale>
<asrwt>0</asrwt>
<pdfrwt beam="1">  1        2 0.40064079E+00 0.16509327E+04</pdfrwt>
<pdfrwt beam="2">  1       -2 0.34709430E-01 0.16509327E+04</pdfrwt>
<totfact> 0.22594974E+01</totfact>
</mgrwt>
</event>
<event>
 8    2  0.7237260E-052  0.1411661E+04  0.7818608E-02  0.8945421E-01
          2   -1    0    0  501    0  0.00000000000E+00  0.00000000000E+00  0.40395690135E+03  0.40395690135E+03  0.25500000000E-02 0.  1.
         -2   -1    0    0    0  501 -0.00000000000E+00 -0.00000000000E+00 -0.12332913861E+04  0.12332913861E+04  0.25500000000E-02 0. -1.
    -200001    2    1    2    0    0 -0.11431922085E+03  0.23821198294E+03 -0.67900505826E+03  0.95301019327E+03  0.61430182018E+03 0.  0.
   -5000001    2    3    3    0    0 -0.18210260235E+03  0.31958470007E+03 -0.18518359846E+03  0.43795996265E+03  0.14906450096E+03 0.  0.
     200001    1    1    2    0    0  0.11431922085E+03 -0.23821198294E+03 -0.15032942651E+03  0.68423809419E+03  0.61300000000E+03 0. -1.
         11    1    4    4    0    0 -0.10330189101E+03  0.52218196532E+02 -0.66802554474E+02  0.13364356333E+03  0.51100000000E-03 0.  1.
    -200002    1    4    4    0    0 -0.78800711339E+02  0.26736650354E+03 -0.11838104398E+03  0.30431639932E+03  0.30000000000E+02 0.  1.
    -200000    1    3    3    0    0  0.67783381495E+02 -0.81372717137E+02 -0.49382145980E+03  0.51505023062E+03  0.10100000000E+03 0. -1.
<mgrwt>
<rscale>  0 0.14116608E+04</rscale>
<asrwt>0</asrwt>
<pdfrwt beam="1">  1        2 0.57708129E-01 0.14116608E+04</pdfrwt>
<pdfrwt beam="2">  1       -2 0.17618448E+00 0.14116608E+04</pdfrwt>
<totfact> 0.16042447E+01</totfact>
</mgrwt>
</event>
<event>
 8    2  0.7237260E-052  0.1635170E+04  0.7818608E-02  0.8799228E-01
          2   -1    0    0  501    0  0.00000000000E+00  0.00000000000E+00  0.28205247387E+04  0.28205247387E+04  0.25500000000E-02 0. -1.
         -2   -1    0    0    0  501 -0.00000000000E+00 -0.00000000000E+00 -0.23699317978E+03  0.23699317979E+03  0.25500000000E-02 0.  1.
    -200001    2    1    2    0    0 -0.51122393577E+03 -0.39158770497E+02  0.16120876892E+04  0.17996007854E+04  0.61388349637E+03 0.  0.
   -5000001    2    3    3    0    0 -0.41576761435E+03 -0.13525488876E+02  0.43338688651E+03  0.61245902603E+03  0.11931562002E+03 0.  0.
     200001    1    1    2    0    0  0.51122393577E+03  0.39158770497E+02  0.97144386966E+03  0.12579171331E+04  0.61300000000E+03 0.  1.
         11    1    4    4    0    0 -0.17679871917E+03  0.29774597987E+01  0.10764161050E+03  0.20701055209E+03  0.51100000000E-03 0.  1.
    -200002    1    4    4    0    0 -0.23896889518E+03 -0.16502948675E+02  0.32574527600E+03  0.40544847394E+03  0.30000000000E+02 0.  1.
    -200000    1    3    3    0    0 -0.95456321428E+02 -0.25633281620E+02  0.11787008027E+04  0.11871417593E+04  0.10100000000E+03 0. -1.
<mgrwt>
<rscale>  0 0.16351699E+04</rscale>
<asrwt>0</asrwt>
<pdfrwt beam="1">  1        2 0.40293210E+00 0.16351699E+04</pdfrwt>
<pdfrwt beam="2">  1       -2 0.33856169E-01 0.16351699E+04</pdfrwt>
<totfact> 0.23252120E+01</totfact>
</mgrwt>
</event>
<event>
 8    2  0.7237260E-052  0.1563258E+04  0.7818608E-02  0.8843443E-01
          2   -1    0    0  501    0  0.00000000000E+00  0.00000000000E+00  0.19014667604E+04  0.19014667604E+04  0.25500000000E-02 0.  1.
         -2   -1    0    0    0  501 -0.00000000000E+00 -0.00000000000E+00 -0.32130156059E+03  0.32130156060E+03  0.25500000000E-02 0. -1.
    -200001    2    1    2    0    0 -0.45550981764E+03 -0.15164145386E+03  0.88578622828E+03  0.11794967933E+04  0.61327898919E+03 0.  0.
   -5000001    2    3    3    0    0 -0.52153272640E+03 -0.26995485693E+03  0.77950858130E+03  0.97986457122E+03  0.87343804158E+02 0.  0.
     200001    1    1    2    0    0  0.45550981764E+03  0.15164145386E+03  0.69437897151E+03  0.10432715277E+04  0.61300000000E+03 0. -1.
         11    1    4    4    0    0 -0.48164327054E+02 -0.53624558896E+02  0.10546608671E+03  0.12774384981E+03  0.51100000000E-03 0.  1.
    -200002    1    4    4    0    0 -0.47336839935E+03 -0.21633029803E+03  0.67404249458E+03  0.85212072141E+03  0.30000000000E+02 0.  1.
    -200000    1    3    3    0    0  0.66022908758E+02  0.11831340307E+03  0.10627764699E+03  0.19963222204E+03  0.10100000000E+03 0. -1.
<mgrwt>
<rscale>  0 0.15632584E+04</rscale>
<asrwt>0</asrwt>
<pdfrwt beam="1">  1        2 0.27163811E+00 0.15632584E+04</pdfrwt>
<pdfrwt beam="2">  1       -2 0.45900222E-01 0.15632584E+04</pdfrwt>
<totfact> 0.39097250E+01</totfact>
</mgrwt>
</event>
<event>
 8    2  0.7237260E-052  0.1406994E+04  0.7818608E-02  0.8948771E-01
          2   -1    0    0  501    0  0.00000000000E+00  0.00000000000E+00  0.17623872307E+04  0.17623872307E+04  0.25500000000E-02 0.  1.
         -2   -1    0    0    0  501 -0.00000000000E+00 -0.00000000000E+00 -0.28081690515E+03  0.28081690516E+03  0.25500000000E-02 0. -1.
    -200001    2    1    2    0    0  0.67910391017E+02 -0.33683365479E+03  0.66677716181E+03  0.96722754138E+03  0.61062967589E+03 0.  0.
   -5000001    2    3    3    0    0 -0.14357693168E+03 -0.25610537271E+03  0.63876097596E+03  0.71776842677E+03  0.14481585833E+03 0.  0.
     200001    1    1    2    0    0 -0.67910391017E+02  0.33683365479E+03  0.81479316377E+03  0.10759765945E+04  0.61300000000E+03 0.  1.
         11    1    4    4    0    0 -0.33034945576E+02 -0.19248420805E+03  0.41011575161E+03  0.45424267490E+03  0.51100000000E-03 0.  1.
    -200002    1    4    4    0    0 -0.11054198611E+03 -0.63621164658E+02  0.22864522435E+03  0.26352575187E+03  0.30000000000E+02 0.  1.
    -200000    1    3    3    0    0  0.21148732270E+03 -0.80728282084E+02  0.28016185851E+02  0.24945911461E+03  0.10100000000E+03 0. -1.
<mgrwt>
<rscale>  0 0.14069941E+04</rscale>
<asrwt>0</asrwt>
<pdfrwt beam="1">  1        2 0.25176961E+00 0.14069941E+04</pdfrwt>
<pdfrwt beam="2">  1       -2 0.40116699E-01 0.14069941E+04</pdfrwt>
<totfact> 0.60936878E+01</totfact>
</mgrwt>
</event>
<event>
 8    2  0.7237260E-052  0.1424529E+04  0.7818608E-02  0.8936252E-01
          2   -1    0    0  501    0  0.00000000000E+00  0.00000000000E+00  0.14004252808E+04  0.14004252808E+04  0.25500000000E-02 0.  1.
         -2   -1    0    0    0  501 -0.00000000000E+00 -0.00000000000E+00 -0.36226168524E+03  0.36226168525E+03  0.25500000000E-02 0. -1.
    -200001    2    1    2    0    0  0.35606767571E+03 -0.42635569768E+02  0.58469603353E+03  0.92006972714E+03  0.61323475903E+03 0.  0.
   -5000001    2    3    3    0    0  0.43536307624E+03  0.10994388655E+03  0.55357121503E+03  0.71823314630E+03  0.88255855317E+02 0.  0.
     200001    1    1    2    0    0 -0.35606767571E+03  0.42635569768E+02  0.45346756205E+03  0.84261723892E+03  0.61300000000E+03 0. -1.
         11    1    4    4    0    0  0.24312238773E+03  0.22272124812E+02  0.30180554399E+03  0.38818955337E+03  0.51100000000E-03 0.  1.
    -200002    1    4    4    0    0  0.19224068851E+03  0.87671761742E+02  0.25176567104E+03  0.33004359293E+03  0.30000000000E+02 0.  1.
    -200000    1    3    3    0    0 -0.79295400530E+02 -0.15257945632E+03  0.31124818497E+02  0.20183658084E+03  0.10100000000E+03 0.  1.
<mgrwt>
<rscale>  0 0.14245286E+04</rscale>
<asrwt>0</asrwt>
<pdfrwt beam="1">  1        2 0.20006076E+00 0.14245286E+04</pdfrwt>
<pdfrwt beam="2">  1       -2 0.51751669E-01 0.14245286E+04</pdfrwt>
<totfact> 0.56711161E+01</totfact>
</mgrwt>
</event>
<event>
 8    2  0.7237260E-052  0.1606678E+04  0.7818608E-02  0.8816456E-01
         -2   -1    0    0    0  501 -0.00000000000E+00  0.00000000000E+00  0.19394069645E+03  0.19394069647E+03  0.25500000000E-02 0. -1.
          2   -1    0    0  501    0  0.00000000000E+00 -0.00000000000E+00 -0.33275837052E+04  0.33275837052E+04  0.25500000000E-02 0.  1.
    -200001    2    1    2    0    0  0.18425240563E+02 -0.45431766056E+03 -0.10171992278E+04  0.12716694498E+04  0.61294770944E+03 0.  0.
   -5000001    2    3    3    0    0  0.12626439283E+03  0.97737013156E+02 -0.26617922575E+03  0.32793978041E+03  0.10582012436E+03 0.  0.
     200001    1    1    2    0    0 -0.18425240563E+02  0.45431766056E+03 -0.21164437810E+04  0.22498549518E+04  0.61300000000E+03 0.  1.
         11    1    4    4    0    0 -0.25017619178E+01  0.50327237529E+02 -0.58318234255E+02  0.77072083772E+02  0.51100000000E-03 0.  1.
    -200002    1    4    4    0    0  0.12876615474E+03  0.47409775627E+02 -0.20786099149E+03  0.25086769664E+03  0.30000000000E+02 0.  1.
    -200000    1    3    3    0    0 -0.10783915226E+03 -0.55205467371E+03 -0.75102000201E+03  0.94372966942E+03  0.10100000000E+03 0. -1.
<mgrwt>
<rscale>  0 0.16066784E+04</rscale>
<asrwt>0</asrwt>
<pdfrwt beam="1">  1        2 0.47536907E+00 0.16066784E+04</pdfrwt>
<pdfrwt beam="2">  1       -2 0.27705816E-01 0.16066784E+04</pdfrwt>
<totfact> 0.17545127E+01</totfact>
</mgrwt>
</event>
<event>
 8    2  0.7237260E-052  0.1400065E+04  0.7818608E-02  0.8953772E-01
          2   -1    0    0  501    0  0.00000000000E+00  0.00000000000E+00  0.24930081993E+04  0.24930081993E+04  0.25500000000E-02 0.  1.
         -2   -1    0    0    0  501 -0.00000000000E+00 -0.00000000000E+00 -0.19656792322E+03  0.19656792324E+03  0.25500000000E-02 0. -1.
    -200001    2    1    2    0    0 -0.21327925354E+02 -0.22269066243E+03  0.66064506727E+03  0.92842849197E+03  0.61276549205E+03 0.  0.
   -5000001    2    3    3    0    0  0.25957589479E+03 -0.10683847750E+03  0.17734514328E+03  0.34867983828E+03  0.10645292078E+03 0.  0.
     200001    1    1    2    0    0  0.21327925354E+02  0.22269066243E+03  0.16357952088E+04  0.17611476306E+04  0.61300000000E+03 0.  1.
         11    1    4    4    0    0  0.11600155315E+03 -0.73334870399E+01  0.35101533551E+02  0.12141770061E+03  0.51100000000E-03 0.  1.
    -200002    1    4    4    0    0  0.14357434165E+03 -0.99504990456E+02  0.14224360973E+03  0.22726213766E+03  0.30000000000E+02 0.  1.
    -200000    1    3    3    0    0 -0.28090382015E+03 -0.11585218493E+03  0.48329992399E+03  0.57974865369E+03  0.10100000000E+03 0.  1.
<mgrwt>
<rscale>  0 0.14000649E+04</rscale>
<asrwt>0</asrwt>
<pdfrwt beam="1">  1        2 0.35614402E+00 0.14000649E+04</pdfrwt>
<pdfrwt beam="2">  1       -2 0.28081133E-01 0.14000649E+04</pdfrwt>
<totfact> 0.50331991E+01</totfact>
</mgrwt>
</event>
<event>
 8    2  0.7237260E-052  0.1395457E+04  0.7818608E-02  0.8957114E-01
          2   -1    0    0  501    0  0.00000000000E+00  0.00000000000E+00  0.31241062977E+04  0.31241062977E+04  0.25500000000E-02 0.  1.
         -2   -1    0    0    0  501 -0.00000000000E+00 -0.00000000000E+00 -0.15582855546E+03  0.15582855548E+03  0.25500000000E-02 0. -1.
    -200001    2    1    2    0    0 -0.17843942233E+03 -0.19629501817E+03  0.10340863644E+04  0.12336607641E+04  0.61823289320E+03 0.  0.
   -5000001    2    3    3    0    0 -0.21473876492E+03 -0.27139675607E+03  0.10435764919E+04  0.11023254078E+04  0.79375523698E+02 0.  0.
     200001    1    1    2    0    0  0.17843942233E+03  0.19629501817E+03  0.19341913778E+04  0.20462740890E+04  0.61300000000E+03 0.  1.
         11    1    4    4    0    0 -0.10443558028E+03 -0.15438687800E+03  0.46202405269E+03  0.49820510213E+03  0.51100000000E-03 0.  1.
    -200002    1    4    4    0    0 -0.11030318464E+03 -0.11700987807E+03  0.58155243924E+03  0.60412030564E+03  0.30000000000E+02 0.  1.
    -200000    1    3    3    0    0  0.36299342592E+02  0.75101737896E+02 -0.94901274901E+01  0.13133535635E+03  0.10100000000E+03 0. -1.
<mgrwt>
<rscale>  0 0.13954569E+04</rscale>
<asrwt>0</asrwt>
<pdfrwt beam="1">  1        2 0.44630092E+00 0.13954569E+04</pdfrwt>
<pdfrwt beam="2">  1       -2 0.22261221E-01 0.13954569E+04</pdfrwt>
<totfact> 0.34845659E+01</totfact>
</mgrwt>
</event>
<event>
 8    2  0.7237260E-052  0.1451358E+04  0.7818608E-02  0.8917459E-01
         -2   -1    0    0    0  501 -0.00000000000E+00  0.00000000000E+00  0.23103199729E+03  0.23103199730E+03  0.25500000000E-02 0. -1.
          2   -1    0    0  501    0  0.00000000000E+00 -0.00000000000E+00 -0.22793821875E+04  0.22793821875E+04  0.25500000000E-02 0.  1.
    -200001    2    1    2    0    0  0.29254438156E+03 -0.21172505758E+03 -0.77651214077E+03  0.10531047670E+04  0.61290197449E+03 0.  0.
   -5000001    2    3    3    0    0  0.19730770594E+03 -0.41290904844E+03 -0.45542381622E+03  0.64956575437E+03  0.71418511293E+02 0.  0.
     200001    1    1    2    0    0 -0.29254438156E+03  0.21172505758E+03 -0.12718380494E+04  0.14573094178E+04  0.61300000000E+03 0. -1.
         11    1    4    4    0    0  0.16395597129E+03 -0.31045554601E+03 -0.33643055137E+03  0.48626096128E+03  0.51100000000E-03 0.  1.
    -200002    1    4    4    0    0  0.33351734650E+02 -0.10245350243E+03 -0.11899326486E+03  0.16330479309E+03  0.30000000000E+02 0. -1.
    -200000    1    3    3    0    0  0.95236675614E+02  0.20118399086E+03 -0.32108832455E+03  0.40353901264E+03  0.10100000000E+03 0.  1.
<mgrwt>
<rscale>  0 0.14513583E+04</rscale>
<asrwt>0</asrwt>
<pdfrwt beam="1">  1        2 0.32562601E+00 0.14513583E+04</pdfrwt>
<pdfrwt beam="2">  1       -2 0.33004572E-01 0.14513583E+04</pdfrwt>
<totfact> 0.47886569E+01</totfact>
</mgrwt>
</event>
<event>
 8    2  0.7237260E-052  0.1461163E+04  0.7818608E-02  0.8910698E-01
         -2   -1    0    0    0  501 -0.00000000000E+00  0.00000000000E+00  0.64671602463E+03  0.64671602464E+03  0.25500000000E-02 0. -1.
          2   -1    0    0  501    0  0.00000000000E+00 -0.00000000000E+00 -0.82532240364E+03  0.82532240364E+03  0.25500000000E-02 0.  1.
    -200001    2    1    2    0    0 -0.21846317151E+02  0.31629683835E+03 -0.33070822660E+03  0.76533840453E+03  0.61306931972E+03 0.  0.
   -5000001    2    3    3    0    0 -0.58754333327E+02 -0.12706584465E+03  0.46938899731E+02  0.17309603660E+03  0.90339232991E+02 0.  0.
     200001    1    1    2    0    0  0.21846317151E+02 -0.31629683835E+03  0.15210184760E+03  0.70670002375E+03  0.61300000000E+03 0. -1.
         11    1    4    4    0    0 -0.40507376125E+02 -0.96439186223E+02 -0.32001818988E+01  0.10464991794E+03  0.51100000000E-03 0.  1.
    -200002    1    4    4    0    0 -0.18246957202E+02 -0.30626658432E+02  0.50139081629E+02  0.68446118666E+02  0.30000000000E+02 0. -1.
    -200000    1    3    3    0    0  0.36908016176E+02  0.44336268300E+03 -0.37764712634E+03  0.59224236793E+03  0.10100000000E+03 0. -1.
<mgrwt>
<rscale>  0 0.14611629E+04</rscale>
<asrwt>0</asrwt>
<pdfrwt beam="1">  1        2 0.11790320E+00 0.14611629E+04</pdfrwt>
<pdfrwt beam="2">  1       -2 0.92388004E-01 0.14611629E+04</pdfrwt>
<totfact> 0.35249178E+01</totfact>
</mgrwt>
</event>
<event>
 8    2  0.7237260E-052  0.1703370E+04  0.7818608E-02  0.8759445E-01
          2   -1    0    0  501    0  0.00000000000E+00  0.00000000000E+00  0.38588565399E+03  0.38588565400E+03  0.25500000000E-02 0.  1.
         -2   -1    0    0    0  501 -0.00000000000E+00 -0.00000000000E+00 -0.18797469394E+04  0.18797469394E+04  0.25500000000E-02 0. -1.
    -200001    2    1    2    0    0  0.97124259240E+02 -0.57284792947E+03 -0.88051539431E+03  0.12218174497E+04  0.61639488060E+03 0.  0.
   -5000001    2    3    3    0    0 -0.84801349305E+02 -0.23499945159E+03 -0.69203383399E+03  0.78253983861E+03  0.26653660263E+03 0.  0.
     200001    1    1    2    0    0 -0.97124259240E+02  0.57284792947E+03 -0.61334589112E+03  0.10438151437E+04  0.61300000000E+03 0.  1.
         11    1    4    4    0    0 -0.14050154193E+03 -0.12857547691E+03 -0.20416110691E+03  0.27920260407E+03  0.51100000000E-03 0.  1.
    -200002    1    4    4    0    0  0.55700192625E+02 -0.10642397468E+03 -0.48787272707E+03  0.50333723453E+03  0.30000000000E+02 0.  1.
    -200000    1    3    3    0    0  0.18192560855E+03 -0.33784847789E+03 -0.18848156032E+03  0.43927761113E+03  0.10100000000E+03 0.  1.
<mgrwt>
<rscale>  0 0.17033700E+04</rscale>
<asrwt>0</asrwt>
<pdfrwt beam="1">  1        2 0.55126523E-01 0.17033700E+04</pdfrwt>
<pdfrwt beam="2">  1       -2 0.26853527E+00 0.17033700E+04</pdfrwt>
<totfact> 0.42517857E+00</totfact>
</mgrwt>
</event>
<event>
 8    2  0.7237260E-052  0.1741906E+04  0.7818608E-02  0.8737818E-01
         -2   -1    0    0    0  501 -0.00000000000E+00  0.00000000000E+00  0.41374748987E+03  0.41374748988E+03  0.25500000000E-02 0. -1.
          2   -1    0    0  501    0  0.00000000000E+00 -0.00000000000E+00 -0.18333871692E+04  0.18333871692E+04  0.25500000000E-02 0.  1.
    -200001    2    1    2    0    0  0.98388894493E+02 -0.74765168361E+02  0.72314612292E+02  0.62943047930E+03  0.61292994719E+03 0.  0.
   -5000001    2    3    3    0    0 -0.12521352119E+03 -0.50497933138E+01 -0.20324614759E+03  0.25394012496E+03  0.86444573320E+02 0.  0.
     200001    1    1    2    0    0 -0.98388894493E+02  0.74765168361E+02 -0.14919542916E+04  0.16177041798E+04  0.61300000000E+03 0.  1.
         11    1    4    4    0    0 -0.12518045518E+02  0.10986904696E+02  0.25547949406E+01  0.16850534586E+02  0.51100000000E-03 0.  1.
    -200002    1    4    4    0    0 -0.11269547567E+03 -0.16036698010E+02 -0.20580094253E+03  0.23708959038E+03  0.30000000000E+02 0.  1.
    -200000    1    3    3    0    0  0.22360241568E+03 -0.69715375047E+02  0.27556075988E+03  0.37549035434E+03  0.10100000000E+03 0. -1.
<mgrwt>
<rscale>  0 0.17419062E+04</rscale>
<asrwt>0</asrwt>
<pdfrwt beam="1">  1        2 0.26191245E+00 0.17419062E+04</pdfrwt>
<pdfrwt beam="2">  1       -2 0.59106785E-01 0.17419062E+04</pdfrwt>
<totfact> 0.24860028E+01</totfact>
</mgrwt>
</event>
<event>
 8    2  0.7237260E-052  0.2244200E+04  0.7818608E-02  0.8500253E-01
          2   -1    0    0  501    0  0.00000000000E+00  0.00000000000E+00  0.18880160326E+04  0.18880160326E+04  0.25500000000E-02 0.  1.
         -2   -1    0    0    0  501 -0.00000000000E+00 -0.00000000000E+00 -0.66689472490E+03  0.66689472491E+03  0.25500000000E-02 0. -1.
    -200001    2    1    2    0    0  0.72886262144E+03  0.22785095342E+03  0.12334442111E+04  0.15755856675E+04  0.61475913639E+03 0.  0.
   -5000001    2    3    3    0    0  0.41781975090E+03 -0.16352224612E+03  0.45713451210E+03  0.64672701440E+03  0.89280455800E+02 0.  0.
     200001    1    1    2    0    0 -0.72886262144E+03 -0.22785095342E+03 -0.12322903465E+02  0.97932508998E+03  0.61300000000E+03 0. -1.
         11    1    4    4    0    0  0.42480933787E+02 -0.23726096565E+02  0.91237346178E+02  0.10340121243E+03  0.51100000000E-03 0.  1.
    -200002    1    4    4    0    0  0.37533881712E+03 -0.13979614955E+03  0.36589716592E+03  0.54332580197E+03  0.30000000000E+02 0.  1.
    -200000    1    3    3    0    0  0.31104287054E+03  0.39137319954E+03  0.77630969905E+03  0.92885865311E+03  0.10100000000E+03 0.  1.
<mgrwt>
<rscale>  0 0.22441996E+04</rscale>
<asrwt>0</asrwt>
<pdfrwt beam="1">  1        2 0.26971658E+00 0.22441996E+04</pdfrwt>
<pdfrwt beam="2">  1       -2 0.95270674E-01 0.22441996E+04</pdfrwt>
<totfact> 0.77660042E+00</totfact>
</mgrwt>
</event>
<event>
 8    2  0.7237260E-052  0.1286676E+04  0.7818608E-02  0.9040198E-01
         -2   -1    0    0    0  501 -0.00000000000E+00  0.00000000000E+00  0.24529905965E+03  0.24529905966E+03  0.25500000000E-02 0. -1.
          2   -1    0    0  501    0  0.00000000000E+00 -0.00000000000E+00 -0.16872632077E+04  0.16872632077E+04  0.25500000000E-02 0.  1.
    -200001    2    1    2    0    0 -0.12659310054E+02 -0.28380512939E+02 -0.43125143353E+03  0.75007552200E+03  0.61291906329E+03 0.  0.
   -5000001    2    3    3    0    0  0.89099106695E+02 -0.23258628204E+03 -0.42477139649E+03  0.50048032495E+03  0.89525342662E+02 0.  0.
     200001    1    1    2    0    0  0.12659310054E+02  0.28380512939E+02 -0.10107127145E+04  0.11824867453E+04  0.61300000000E+03 0.  1.
         11    1    4    4    0    0  0.60261993764E+02 -0.17853169849E+03 -0.25144322529E+03  0.31421134735E+03  0.51100000000E-03 0.  1.
    -200002    1    4    4    0    0  0.28837112931E+02 -0.54054583548E+02 -0.17332817120E+03  0.18626897760E+03  0.30000000000E+02 0.  1.
    -200000    1    3    3    0    0 -0.10175841675E+03  0.20420576910E+03 -0.64800370434E+01  0.24959519706E+03  0.10100000000E+03 0. -1.
<mgrwt>
<rscale>  0 0.12866765E+04</rscale>
<asrwt>0</asrwt>
<pdfrwt beam="1">  1        2 0.24103759E+00 0.12866765E+04</pdfrwt>
<pdfrwt beam="2">  1       -2 0.35042724E-01 0.12866765E+04</pdfrwt>
<totfact> 0.87321497E+01</totfact>
</mgrwt>
</event>
<event>
 8    2  0.7237260E-052  0.2589836E+04  0.7818608E-02  0.8371662E-01
         -2   -1    0    0    0  501 -0.00000000000E+00  0.00000000000E+00  0.72604628637E+03  0.72604628638E+03  0.25500000000E-02 0. -1.
          2   -1    0    0  501    0  0.00000000000E+00 -0.00000000000E+00 -0.23095116941E+04  0.23095116941E+04  0.25500000000E-02 0.  1.
    -200001    2    1    2    0    0  0.86716771105E+03  0.41676408794E+03 -0.71905481714E+02  0.11418170917E+04  0.61065843843E+03 0.  0.
   -5000001    2    3    3    0    0  0.60320624924E+03  0.31886822196E+03  0.22358219211E+03  0.72137301776E+03  0.69680069047E+02 0.  0.
     200001    1    1    2    0    0 -0.86716771105E+03 -0.41676408794E+03 -0.15115599260E+04  0.18937408888E+04  0.61300000000E+03 0.  1.
         11    1    4    4    0    0  0.17112884040E+03  0.12023005142E+03  0.76492391660E+02  0.22269133630E+03  0.51100000000E-03 0.  1.
    -200002    1    4    4    0    0  0.43207740884E+03  0.19863817054E+03  0.14708980045E+03  0.49868168146E+03  0.30000000000E+02 0.  1.
    -200000    1    3    3    0    0  0.26396146180E+03  0.97895865984E+02 -0.29548767382E+03  0.42044407390E+03  0.10100000000E+03 0. -1.
<mgrwt>
<rscale>  0 0.25898358E+04</rscale>
<asrwt>0</asrwt>
<pdfrwt beam="1">  1        2 0.32993024E+00 0.25898358E+04</pdfrwt>
<pdfrwt beam="2">  1       -2 0.10372090E+00 0.25898358E+04</pdfrwt>
<totfact> 0.37409648E+00</totfact>
</mgrwt>
</event>
<event>
 8    2  0.7237260E-052  0.2448283E+04  0.7818608E-02  0.8421645E-01
          2   -1    0    0  501    0  0.00000000000E+00  0.00000000000E+00  0.25429214662E+04  0.25429214662E+04  0.25500000000E-02 0. -1.
         -2   -1    0    0    0  501 -0.00000000000E+00 -0.00000000000E+00 -0.58929174076E+03  0.58929174077E+03  0.25500000000E-02 0.  1.
    -200001    2    1    2    0    0 -0.15224097473E+03 -0.61942358563E+03 -0.10539867087E+03  0.89118000114E+03  0.61337592208E+03 0.  0.
   -5000001    2    3    3    0    0 -0.16952532880E+03  0.87674131348E+01 -0.16737421334E+03  0.25167656277E+03  0.80692380792E+02 0.  0.
     200001    1    1    2    0    0  0.15224097473E+03  0.61942358563E+03  0.20590283963E+04  0.22410332058E+04  0.61300000000E+03 0. -1.
         11    1    4    4    0    0 -0.41783295789E+02 -0.29630847888E+02 -0.44409409808E+02  0.67794001455E+02  0.51100000000E-03 0.  1.
    -200002    1    4    4    0    0 -0.12774203301E+03  0.38398261023E+02 -0.12296480353E+03  0.18388256131E+03  0.30000000000E+02 0.  1.
    -200000    1    3    3    0    0  0.17284354067E+02 -0.62819099876E+03  0.61975542467E+02  0.63950343837E+03  0.10100000000E+03 0.  1.
<mgrwt>
<rscale>  0 0.24482832E+04</rscale>
<asrwt>0</asrwt>
<pdfrwt beam="1">  1        2 0.36327450E+00 0.24482832E+04</pdfrwt>
<pdfrwt beam="2">  1       -2 0.84184533E-01 0.24482832E+04</pdfrwt>
<totfact> 0.46390355E+00</totfact>
</mgrwt>
</event>
<event>
 8    2  0.7237260E-052  0.1534271E+04  0.7818608E-02  0.8861977E-01
          2   -1    0    0  501    0  0.00000000000E+00  0.00000000000E+00  0.26230873106E+04  0.26230873106E+04  0.25500000000E-02 0.  1.
         -2   -1    0    0    0  501 -0.00000000000E+00 -0.00000000000E+00 -0.22435285534E+03  0.22435285536E+03  0.25500000000E-02 0. -1.
    -200001    2    1    2    0    0  0.32685598872E+03  0.34122200769E+02  0.60434126122E+03  0.92296228956E+03  0.61533069645E+03 0.  0.
   -5000001    2    3    3    0    0  0.22580281314E+03  0.97955522061E+02  0.69351740487E+03  0.74285170742E+03  0.10139069797E+03 0.  0.
     200001    1    1    2    0    0 -0.32685598872E+03 -0.34122200769E+02  0.17943931941E+04  0.19244778764E+04  0.61300000000E+03 0.  1.
         11    1    4    4    0    0  0.39880690886E+02  0.61613394496E+02  0.22196827371E+03  0.23378749843E+03  0.51100000000E-03 0.  1.
    -200002    1    4    4    0    0  0.18592212226E+03  0.36342127565E+02  0.47154913116E+03  0.50906420899E+03  0.30000000000E+02 0.  1.
    -200000    1    3    3    0    0  0.10105317558E+03 -0.63833321291E+02 -0.89176143654E+02  0.18011058214E+03  0.10100000000E+03 0. -1.
<mgrwt>
<rscale>  0 0.15342713E+04</rscale>
<asrwt>0</asrwt>
<pdfrwt beam="1">  1        2 0.37472677E+00 0.15342713E+04</pdfrwt>
<pdfrwt beam="2">  1       -2 0.32050407E-01 0.15342713E+04</pdfrwt>
<totfact> 0.33214242E+01</totfact>
</mgrwt>
</event>
<event>
 8    2  0.7237260E-052  0.2024139E+04  0.7818608E-02  0.8595417E-01
         -2   -1    0    0    0  501 -0.00000000000E+00  0.00000000000E+00  0.34133210030E+03  0.34133210031E+03  0.25500000000E-02 0. -1.
          2   -1    0    0  501    0  0.00000000000E+00 -0.00000000000E+00 -0.30008444207E+04  0.30008444207E+04  0.25500000000E-02 0.  1.
    -200001    2    1    2    0    0 -0.20180966273E+03 -0.77962785254E+03 -0.13127855801E+04  0.16575434330E+04  0.61277852795E+03 0.  0.
   -5000001    2    3    3    0    0 -0.90845451961E+02  0.58882138175E+02 -0.33299970187E+03  0.35923937465E+03  0.80275304486E+02 0.  0.
     200001    1    1    2    0    0  0.20180966273E+03  0.77962785254E+03 -0.13467267403E+04  0.16846330881E+04  0.61300000000E+03 0. -1.
         11    1    4    4    0    0 -0.41833429103E+02 -0.11127800574E+02 -0.12802060063E+03  0.13514117774E+03  0.51100000000E-03 0.  1.
    -200002    1    4    4    0    0 -0.49012022858E+02  0.70009938749E+02 -0.20497910125E+03  0.22409819691E+03  0.30000000000E+02 0.  1.
    -200000    1    3    3    0    0 -0.11096421077E+03 -0.83850999072E+03 -0.97978587824E+03  0.12983040583E+04  0.10100000000E+03 0.  1.
<mgrwt>
<rscale>  0 0.20241389E+04</rscale>
<asrwt>0</asrwt>
<pdfrwt beam="1">  1        2 0.42869205E+00 0.20241389E+04</pdfrwt>
<pdfrwt beam="2">  1       -2 0.48761730E-01 0.20241389E+04</pdfrwt>
<totfact> 0.87413395E+00</totfact>
</mgrwt>
</event>
<event>
 8    2  0.7237260E-052  0.1943131E+04  0.7818608E-02  0.8633680E-01
         -2   -1    0    0    0  501 -0.00000000000E+00  0.00000000000E+00  0.47306192049E+03  0.47306192049E+03  0.25500000000E-02 0. -1.
          2   -1    0    0  501    0  0.00000000000E+00 -0.00000000000E+00 -0.19953822274E+04  0.19953822274E+04  0.25500000000E-02 0.  1.
    -200001    2    1    2    0    0  0.21439168359E+03 -0.67657763845E+03 -0.10839039583E+04  0.14332151927E+04  0.61281065842E+03 0.  0.
   -5000001    2    3    3    0    0  0.15465172815E+03 -0.65089259787E+03 -0.50390620508E+03  0.84090870342E+03  0.75017684464E+02 0.  0.
     200001    1    1    2    0    0 -0.21439168359E+03  0.67657763845E+03 -0.43841634864E+03  0.10352289552E+04  0.61300000000E+03 0.  1.
         11    1    4    4    0    0  0.13349129786E+02 -0.17867933245E+03 -0.14362746507E+03  0.22963743561E+03  0.51100000000E-03 0.  1.
    -200002    1    4    4    0    0  0.14130259837E+03 -0.47221326541E+03 -0.36027874002E+03  0.61127126781E+03  0.30000000000E+02 0.  1.
    -200000    1    3    3    0    0  0.59739955441E+02 -0.25685040586E+02 -0.57999775318E+03  0.59230648931E+03  0.10100000000E+03 0.  1.
<mgrwt>
<rscale>  0 0.19431308E+04</rscale>
<asrwt>0</asrwt>
<pdfrwt beam="1">  1        2 0.28505460E+00 0.19431308E+04</pdfrwt>
<pdfrwt beam="2">  1       -2 0.67580276E-01 0.19431308E+04</pdfrwt>
<totfact> 0.15162983E+01</totfact>
</mgrwt>
</event>
<event>
 8    2  0.7237260E-052  0.2130985E+04  0.7818608E-02  0.8547716E-01
          2   -1    0    0  501    0  0.00000000000E+00  0.00000000000E+00  0.16330678873E+04  0.16330678873E+04  0.25500000000E-02 0.  1.
         -2   -1    0    0    0  501 -0.00000000000E+00 -0.00000000000E+00 -0.69517873698E+03  0.69517873699E+03  0.25500000000E-02 0. -1.
    -200001    2    1    2    0    0 -0.25623200867E+02  0.24587595791E+03  0.13820096624E+04  0.15319278662E+04  0.61297695326E+03 0.  0.
   -5000001    2    3    3    0    0 -0.22709812682E+03  0.43463206143E+02  0.10656961272E+04  0.10939571818E+04  0.87014197467E+02 0.  0.
     200001    1    1    2    0    0  0.25623200867E+02 -0.24587595791E+03 -0.44412051212E+03  0.79631875803E+03  0.61300000000E+03 0. -1.
         11    1    4    4    0    0 -0.52677661577E+02 -0.15178460501E+02  0.15601511890E+03  0.16536637814E+03  0.51100000000E-03 0.  1.
    -200002    1    4    4    0    0 -0.17442046524E+03  0.58641666643E+02  0.90968100832E+03  0.92859080367E+03  0.30000000000E+02 0.  1.
    -200000    1    3    3    0    0  0.20147492595E+03  0.20241275176E+03  0.31631353518E+03  0.43797068441E+03  0.10100000000E+03 0. -1.
<mgrwt>
<rscale>  0 0.21309848E+04</rscale>
<asrwt>0</asrwt>
<pdfrwt beam="1">  1        2 0.23329541E+00 0.21309848E+04</pdfrwt>
<pdfrwt beam="2">  1       -2 0.99311249E-01 0.21309848E+04</pdfrwt>
<totfact> 0.96407150E+00</totfact>
</mgrwt>
</event>
<event>
 8    2  0.7237260E-052  0.1364851E+04  0.7818608E-02  0.8979662E-01
         -2   -1    0    0    0  501 -0.00000000000E+00  0.00000000000E+00  0.13731507548E+04  0.13731507548E+04  0.25500000000E-02 0. -1.
          2   -1    0    0  501    0  0.00000000000E+00 -0.00000000000E+00 -0.33915012519E+03  0.33915012520E+03  0.25500000000E-02 0.  1.
    -200001    2    1    2    0    0 -0.42022072190E+02 -0.17096026766E+02  0.89132432705E+03  0.10812829278E+04  0.61045522785E+03 0.  0.
   -5000001    2    3    3    0    0 -0.15402438252E+03  0.45536510363E+02  0.89859676580E+03  0.91781659915E+03  0.95467680291E+02 0.  0.
     200001    1    1    2    0    0  0.42022072190E+02  0.17096026766E+02  0.14267630251E+03  0.63101795219E+03  0.61300000000E+03 0.  1.
         11    1    4    4    0    0 -0.57467364755E+02  0.32183485024E+02  0.17348476546E+03  0.18556734241E+03  0.51100000000E-03 0.  1.
    -200002    1    4    4    0    0 -0.96557017765E+02  0.13353025339E+02  0.72511200034E+03  0.73224925674E+03  0.30000000000E+02 0.  1.
    -200000    1    3    3    0    0  0.11200231033E+03 -0.62632537129E+02 -0.72724387526E+01  0.16346632862E+03  0.10100000000E+03 0.  1.
<mgrwt>
<rscale>  0 0.13648505E+04</rscale>
<asrwt>0</asrwt>
<pdfrwt beam="1">  1        2 0.48450017E-01 0.13648505E+04</pdfrwt>
<pdfrwt beam="2">  1       -2 0.19616440E+00 0.13648505E+04</pdfrwt>
<totfact> 0.14318744E+01</totfact>
</mgrwt>
</event>
<event>
 8    2  0.7237260E-052  0.1303357E+04  0.7818608E-02  0.9026907E-01
          2   -1    0    0  501    0  0.00000000000E+00  0.00000000000E+00  0.62603133090E+03  0.62603133091E+03  0.25500000000E-02 0.  1.
         -2   -1    0    0    0  501 -0.00000000000E+00 -0.00000000000E+00 -0.67837611338E+03  0.67837611339E+03  0.25500000000E-02 0. -1.
    -200001    2    1    2    0    0  0.99545153509E+02  0.19707214670E+03 -0.50286700372E+02  0.65285552442E+03  0.61232745728E+03 0.  0.
   -5000001    2    3    3    0    0  0.12489647329E+03  0.11521513300E+03  0.22805986197E+03  0.34460064794E+03  0.19458841180E+03 0.  0.
     200001    1    1    2    0    0 -0.99545153509E+02 -0.19707214670E+03 -0.20580821065E+01  0.65155191988E+03  0.61300000000E+03 0.  1.
         11    1    4    4    0    0  0.16484218806E+03  0.43270045202E+02  0.15869952026E+03  0.23287503410E+03  0.51100000000E-03 0.  1.
    -200002    1    4    4    0    0 -0.39945714764E+02  0.71945087796E+02  0.69360341713E+02  0.11172561384E+03  0.30000000000E+02 0.  1.
    -200000    1    3    3    0    0 -0.25351319783E+02  0.81857013700E+02 -0.27834656234E+03  0.30825487648E+03  0.10100000000E+03 0. -1.
<mgrwt>
<rscale>  0 0.13033567E+04</rscale>
<asrwt>0</asrwt>
<pdfrwt beam="1">  1        2 0.89433047E-01 0.13033567E+04</pdfrwt>
<pdfrwt beam="2">  1       -2 0.96910874E-01 0.13033567E+04</pdfrwt>
<totfact> 0.45027479E+01</totfact>
</mgrwt>
</event>
<event>
 8    2  0.7237260E-052  0.1249187E+04  0.7818608E-02  0.9070860E-01
          2   -1    0    0  501    0  0.00000000000E+00  0.00000000000E+00  0.13527956602E+04  0.13527956602E+04  0.25500000000E-02 0.  1.
         -2   -1    0    0    0  501 -0.00000000000E+00 -0.00000000000E+00 -0.28837856035E+03  0.28837856036E+03  0.25500000000E-02 0. -1.
    -200001    2    1    2    0    0 -0.73466002063E+02 -0.46809839395E+02  0.42074205058E+03  0.74804769897E+03  0.61234228360E+03 0.  0.
   -5000001    2    3    3    0    0 -0.74325301981E+02  0.19544793827E+03  0.32961496725E+03  0.47020833071E+03  0.26215587071E+03 0.  0.
     200001    1    1    2    0    0  0.73466002063E+02  0.46809839395E+02  0.64367504927E+03  0.89312652159E+03  0.61300000000E+03 0. -1.
         11    1    4    4    0    0  0.19294792536E+02  0.17357818906E+03  0.63769476872E+02  0.18592531542E+03  0.51100000000E-03 0.  1.
    -200002    1    4    4    0    0 -0.93620094518E+02  0.21869749219E+02  0.26584549037E+03  0.28428301529E+03  0.30000000000E+02 0.  1.
    -200000    1    3    3    0    0  0.85929991808E+00 -0.24225777767E+03  0.91127083339E+02  0.27783936826E+03  0.10100000000E+03 0. -1.
<mgrwt>
<rscale>  0 0.12491874E+04</rscale>
<asrwt>0</asrwt>
<pdfrwt beam="1">  1        2 0.19325652E+00 0.12491874E+04</pdfrwt>
<pdfrwt beam="2">  1       -2 0.41196938E-01 0.12491874E+04</pdfrwt>
<totfact> 0.96335341E+01</totfact>
</mgrwt>
</event>
<event>
 8    2  0.7237260E-052  0.2028701E+04  0.7818608E-02  0.8593318E-01
          2   -1    0    0  501    0  0.00000000000E+00  0.00000000000E+00  0.15937080831E+04  0.15937080831E+04  0.25500000000E-02 0.  1.
         -2   -1    0    0    0  501 -0.00000000000E+00 -0.00000000000E+00 -0.64560557748E+03  0.64560557749E+03  0.25500000000E-02 0. -1.
    -200001    2    1    2    0    0  0.74055372016E+03 -0.28861541382E+03  0.30113371193E+03  0.10451376729E+04  0.60820438452E+03 0.  0.
   -5000001    2    3    3    0    0  0.61563734506E+02  0.78917854720E+02  0.22451942744E+03  0.26271908118E+03  0.92705022086E+02 0.  0.
     200001    1    1    2    0    0 -0.74055372016E+03  0.28861541382E+03  0.64696879369E+03  0.11941759877E+04  0.61300000000E+03 0.  1.
         11    1    4    4    0    0  0.64109756644E+02  0.36840481889E+02  0.17950939873E+03  0.19414145934E+03  0.51100000000E-03 0.  1.
    -200002    1    4    4    0    0 -0.25460221380E+01  0.42077372830E+02  0.45010028713E+02  0.68577621844E+02  0.30000000000E+02 0.  1.
    -200000    1    3    3    0    0  0.67898998565E+03 -0.36753326854E+03  0.76614284484E+02  0.78241859173E+03  0.10100000000E+03 0. -1.
<mgrwt>
<rscale>  0 0.20287009E+04</rscale>
<asrwt>0</asrwt>
<pdfrwt beam="1">  1        2 0.22767259E+00 0.20287009E+04</pdfrwt>
<pdfrwt beam="2">  1       -2 0.92229367E-01 0.20287009E+04</pdfrwt>
<totfact> 0.12119739E+01</totfact>
</mgrwt>
</event>
<event>
 8    2  0.7237260E-052  0.1313616E+04  0.7818608E-02  0.9018837E-01
          2   -1    0    0  501    0  0.00000000000E+00  0.00000000000E+00  0.13395995546E+04  0.13395995546E+04  0.25500000000E-02 0.  1.
         -2   -1    0    0    0  501 -0.00000000000E+00 -0.00000000000E+00 -0.32203423333E+03  0.32203423334E+03  0.25500000000E-02 0. -1.
    -200001    2    1    2    0    0 -0.19429624234E+03  0.51847474459E+02  0.66510649660E+03  0.92649066343E+03  0.61284509235E+03 0.  0.
   -5000001    2    3    3    0    0 -0.73439983752E+02 -0.24048679226E+03  0.28298598809E+03  0.42024700494E+03  0.18248053935E+03 0.  0.
     200001    1    1    2    0    0  0.19429624234E+03 -0.51847474459E+02  0.35245882463E+03  0.73514312447E+03  0.61300000000E+03 0.  1.
         11    1    4    4    0    0 -0.94390807567E+02 -0.56193041443E+02  0.49336322664E+02  0.12042157279E+03  0.51100000000E-03 0.  1.
    -200002    1    4    4    0    0  0.20950823815E+02 -0.18429375082E+03  0.23364966542E+03  0.29982543215E+03  0.30000000000E+02 0.  1.
    -200000    1    3    3    0    0 -0.12085625858E+03  0.29233426672E+03  0.38212050851E+03  0.50624365849E+03  0.10100000000E+03 0. -1.
<mgrwt>
<rscale>  0 0.13136163E+04</rscale>
<asrwt>0</asrwt>
<pdfrwt beam="1">  1        2 0.19137137E+00 0.13136163E+04</pdfrwt>
<pdfrwt beam="2">  1       -2 0.46004890E-01 0.13136163E+04</pdfrwt>
<totfact> 0.78332795E+01</totfact>
</mgrwt>
</event>
<event>
 8    2  0.7237260E-052  0.1410317E+04  0.7818608E-02  0.8946384E-01
         -2   -1    0    0    0  501 -0.00000000000E+00  0.00000000000E+00  0.18406580772E+03  0.18406580774E+03  0.25500000000E-02 0. -1.
          2   -1    0    0  501    0  0.00000000000E+00 -0.00000000000E+00 -0.27014707036E+04  0.27014707036E+04  0.25500000000E-02 0.  1.
    -200001    2    1    2    0    0  0.33507619894E+03  0.21898970163E+02 -0.10684203938E+04  0.12767852219E+04  0.61310907756E+03 0.  0.
   -5000001    2    3    3    0    0  0.19487581890E+03  0.55709755962E+02 -0.24360209902E+02  0.21798307636E+03  0.76439780536E+02 0.  0.
     200001    1    1    2    0    0 -0.33507619894E+03 -0.21898970163E+02 -0.14489845020E+04  0.16087512894E+04  0.61300000000E+03 0. -1.
         11    1    4    4    0    0  0.14692841505E+03  0.61869060194E+02 -0.12879153531E+02  0.15994252829E+03  0.51100000000E-03 0.  1.
    -200002    1    4    4    0    0  0.47947403853E+02 -0.61593042318E+01 -0.11481056371E+02  0.58040548070E+02  0.30000000000E+02 0.  1.
    -200000    1    3    3    0    0  0.14020038004E+03 -0.33810785799E+02 -0.10440601839E+04  0.10588021456E+04  0.10100000000E+03 0.  1.
<mgrwt>
<rscale>  0 0.14103168E+04</rscale>
<asrwt>0</asrwt>
<pdfrwt beam="1">  1        2 0.38592436E+00 0.14103168E+04</pdfrwt>
<pdfrwt beam="2">  1       -2 0.26295117E-01 0.14103168E+04</pdfrwt>
<totfact> 0.43999605E+01</totfact>
</mgrwt>
</event>
<event>
 8    2  0.7237260E-052  0.1734438E+04  0.7818608E-02  0.8741963E-01
         -2   -1    0    0    0  501 -0.00000000000E+00  0.00000000000E+00  0.63280768307E+03  0.63280768308E+03  0.25500000000E-02 0. -1.
          2   -1    0    0  501    0  0.00000000000E+00 -0.00000000000E+00 -0.11884628630E+04  0.11884628630E+04  0.25500000000E-02 0.  1.
    -200001    2    1    2    0    0 -0.83108176019E+02  0.59983475521E+03 -0.37998788378E+03  0.94187490055E+03  0.61321189973E+03 0.  0.
   -5000001    2    3    3    0    0  0.15840198901E+03  0.56233451358E+03 -0.20151886218E+03  0.62283631415E+03  0.77485012270E+02 0.  0.
     200001    1    1    2    0    0  0.83108176019E+02 -0.59983475521E+03 -0.17566729617E+03  0.87939564556E+03  0.61300000000E+03 0. -1.
         11    1    4    4    0    0  0.49095528492E+02  0.15821538311E+03 -0.25085051539E+02  0.16754622700E+03  0.51100000000E-03 0.  1.
    -200002    1    4    4    0    0  0.10930646052E+03  0.40411913047E+03 -0.17643381064E+03  0.45529008716E+03  0.30000000000E+02 0.  1.
    -200000    1    3    3    0    0 -0.24151016503E+03  0.37500241632E+02 -0.17846902160E+03  0.31903858639E+03  0.10100000000E+03 0. -1.
<mgrwt>
<rscale>  0 0.17344376E+04</rscale>
<asrwt>0</asrwt>
<pdfrwt beam="1">  1        2 0.16978041E+00 0.17344376E+04</pdfrwt>
<pdfrwt beam="2">  1       -2 0.90401098E-01 0.17344376E+04</pdfrwt>
<totfact> 0.21603628E+01</totfact>
</mgrwt>
</event>
<event>
 8    2  0.7237260E-052  0.2224186E+04  0.7818608E-02  0.8508428E-01
          2   -1    0    0  501    0  0.00000000000E+00  0.00000000000E+00  0.23437760380E+04  0.23437760380E+04  0.25500000000E-02 0.  1.
         -2   -1    0    0    0  501 -0.00000000000E+00 -0.00000000000E+00 -0.52767453632E+03  0.52767453633E+03  0.25500000000E-02 0. -1.
    -200001    2    1    2    0    0 -0.69147297421E+03 -0.26632240843E+03  0.18780926049E+03  0.98037492223E+03  0.61384050901E+03 0.  0.
   -5000001    2    3    3    0    0 -0.14742611916E+03  0.48276240393E+02  0.29183274422E+03  0.33540889560E+03  0.57163980374E+02 0.  0.
     200001    1    1    2    0    0  0.69147297421E+03  0.26632240843E+03  0.16282922412E+04  0.18910756521E+04  0.61300000000E+03 0. -1.
         11    1    4    4    0    0 -0.61625974140E+02  0.12644749042E+02  0.76986126742E+02  0.99420893569E+02  0.51100000000E-03 0.  1.
    -200002    1    4    4    0    0 -0.85800145019E+02  0.35631491351E+02  0.21484661748E+03  0.23598800203E+03  0.30000000000E+02 0.  1.
    -200000    1    3    3    0    0 -0.54404685505E+03 -0.31459864882E+03 -0.10402348373E+03  0.64496602663E+03  0.10100000000E+03 0. -1.
<mgrwt>
<rscale>  0 0.22241861E+04</rscale>
<asrwt>0</asrwt>
<pdfrwt beam="1">  1        2 0.33482515E+00 0.22241861E+04</pdfrwt>
<pdfrwt beam="2">  1       -2 0.75382077E-01 0.22241861E+04</pdfrwt>
<totfact> 0.77031059E+00</totfact>
</mgrwt>
</event>
<event>
 8    2  0.7237260E-052  0.1347882E+04  0.7818608E-02  0.8992433E-01
          2   -1    0    0  501    0  0.00000000000E+00  0.00000000000E+00  0.88209599350E+03  0.88209599351E+03  0.25500000000E-02 0.  1.
         -2   -1    0    0    0  501 -0.00000000000E+00 -0.00000000000E+00 -0.51490602955E+03  0.51490602956E+03  0.25500000000E-02 0. -1.
    -200001    2    1    2    0    0 -0.17161495791E+03  0.83354576006E+01 -0.48065424317E+02  0.63691833615E+03  0.61141925736E+03 0.  0.
   -5000001    2    3    3    0    0  0.12088102488E+03  0.20052069647E+03  0.10496662491E+02  0.26797445966E+03  0.12992058812E+03 0.  0.
     200001    1    1    2    0    0  0.17161495791E+03 -0.83354576006E+01  0.41525538827E+03  0.76008368692E+03  0.61300000000E+03 0.  1.
         11    1    4    4    0    0 -0.11305563274E+02  0.90402000381E+01 -0.26768002660E+02  0.30431348053E+02  0.51100000000E-03 0.  1.
    -200002    1    4    4    0    0  0.13218658816E+03  0.19148049643E+03  0.37264665151E+02  0.23754311160E+03  0.30000000000E+02 0.  1.
    -200000    1    3    3    0    0 -0.29249598279E+03 -0.19218523887E+03 -0.58562086808E+02  0.36894387649E+03  0.10100000000E+03 0. -1.
<mgrwt>
<rscale>  0 0.13478821E+04</rscale>
<asrwt>0</asrwt>
<pdfrwt beam="1">  1        2 0.12601371E+00 0.13478821E+04</pdfrwt>
<pdfrwt beam="2">  1       -2 0.73558005E-01 0.13478821E+04</pdfrwt>
<totfact> 0.54498059E+01</totfact>
</mgrwt>
</event>
<event>
 8    2  0.7237260E-052  0.2327658E+04  0.7818608E-02  0.8467095E-01
         -2   -1    0    0    0  501 -0.00000000000E+00  0.00000000000E+00  0.69562682071E+03  0.69562682072E+03  0.25500000000E-02 0. -1.
          2   -1    0    0  501    0  0.00000000000E+00 -0.00000000000E+00 -0.19471622216E+04  0.19471622216E+04  0.25500000000E-02 0.  1.
    -200001    2    1    2    0    0 -0.81517361186E+03 -0.44935840348E+03 -0.10058325767E+04  0.15014872111E+04  0.61346041458E+03 0.  0.
   -5000001    2    3    3    0    0 -0.20955840461E+03  0.14092362411E+03 -0.19534444391E+03  0.32577693007E+03  0.64783976566E+02 0.  0.
     200001    1    1    2    0    0  0.81517361186E+03  0.44935840348E+03 -0.24570282413E+03  0.11413018313E+04  0.61300000000E+03 0. -1.
         11    1    4    4    0    0 -0.11662019306E+03  0.66258515120E+02 -0.12895047822E+03  0.18606097411E+03  0.51100000000E-03 0.  1.
    -200002    1    4    4    0    0 -0.92938211559E+02  0.74665108992E+02 -0.66393965699E+02  0.13971595596E+03  0.30000000000E+02 0.  1.
    -200000    1    3    3    0    0 -0.60561520725E+03 -0.59028202759E+03 -0.81048813283E+03  0.11757102810E+04  0.10100000000E+03 0.  1.
<mgrwt>
<rscale>  0 0.23276583E+04</rscale>
<asrwt>0</asrwt>
<pdfrwt beam="1">  1        2 0.27816603E+00 0.23276583E+04</pdfrwt>
<pdfrwt beam="2">  1       -2 0.99375261E-01 0.23276583E+04</pdfrwt>
<totfact> 0.65127632E+00</totfact>
</mgrwt>
</event>
<event>
 8    2  0.7237260E-052  0.1571934E+04  0.7818608E-02  0.8837978E-01
         -2   -1    0    0    0  501 -0.00000000000E+00  0.00000000000E+00  0.36952922155E+03  0.36952922156E+03  0.25500000000E-02 0. -1.
          2   -1    0    0  501    0  0.00000000000E+00 -0.00000000000E+00 -0.16717061861E+04  0.16717061861E+04  0.25500000000E-02 0.  1.
    -200001    2    1    2    0    0 -0.40672383003E+02 -0.49024249970E+03 -0.68555787758E+03  0.10422458934E+04  0.61179649188E+03 0.  0.
   -5000001    2    3    3    0    0 -0.22123372467E+03 -0.44928944354E+03 -0.38942011679E+03  0.67868279805E+03  0.24115751699E+03 0.  0.
     200001    1    1    2    0    0  0.40672383003E+02  0.49024249970E+03 -0.61661908699E+03  0.99898951431E+03  0.61300000000E+03 0. -1.
         11    1    4    4    0    0 -0.18421436609E+03 -0.19983291454E+03 -0.31069423748E+03  0.41279418068E+03  0.51100000000E-03 0.  1.
    -200002    1    4    4    0    0 -0.37019358580E+02 -0.24945652900E+03 -0.78725879310E+02  0.26588861737E+03  0.30000000000E+02 0.  1.
    -200000    1    3    3    0    0  0.18056134166E+03 -0.40953056163E+02 -0.29613776079E+03  0.36356309532E+03  0.10100000000E+03 0. -1.
<mgrwt>
<rscale>  0 0.15719342E+04</rscale>
<asrwt>0</asrwt>
<pdfrwt beam="1">  1        2 0.23881517E+00 0.15719342E+04</pdfrwt>
<pdfrwt beam="2">  1       -2 0.52789890E-01 0.15719342E+04</pdfrwt>
<totfact> 0.38666055E+01</totfact>
</mgrwt>
</event>
<event>
 8    2  0.7237260E-052  0.1803043E+04  0.7818608E-02  0.8704683E-01
         -2   -1    0    0    0  501 -0.00000000000E+00  0.00000000000E+00  0.77114592702E+03  0.77114592702E+03  0.25500000000E-02 0. -1.
          2   -1    0    0  501    0  0.00000000000E+00 -0.00000000000E+00 -0.10539389138E+04  0.10539389138E+04  0.25500000000E-02 0.  1.
    -200001    2    1    2    0    0 -0.47683514580E+03 -0.11958130815E+03  0.30627852028E+03  0.84302288456E+03  0.61254355469E+03 0.  0.
   -5000001    2    3    3    0    0 -0.19561481666E+03 -0.61079991810E+02 -0.40781831440E+02  0.38133125017E+03  0.31898972191E+03 0.  0.
     200001    1    1    2    0    0  0.47683514580E+03  0.11958130815E+03 -0.58907150709E+03  0.98206195629E+03  0.61300000000E+03 0. -1.
         11    1    4    4    0    0 -0.21417726078E+03  0.33403571472E+02 -0.12474715034E+03  0.25009907865E+03  0.51100000000E-03 0.  1.
    -200002    1    4    4    0    0  0.18562444126E+02 -0.94483563282E+02  0.83965318904E+02  0.13123217152E+03  0.30000000000E+02 0.  1.
    -200000    1    3    3    0    0 -0.28122032914E+03 -0.58501316343E+02  0.34706035172E+03  0.46169163439E+03  0.10100000000E+03 0. -1.
<mgrwt>
<rscale>  0 0.18030427E+04</rscale>
<asrwt>0</asrwt>
<pdfrwt beam="1">  1        2 0.15056270E+00 0.18030427E+04</pdfrwt>
<pdfrwt beam="2">  1       -2 0.11016370E+00 0.18030427E+04</pdfrwt>
<totfact> 0.16137590E+01</totfact>
</mgrwt>
</event>
<event>
 8    2  0.7237260E-052  0.1875819E+04  0.7818608E-02  0.8666988E-01
          2   -1    0    0  501    0  0.00000000000E+00  0.00000000000E+00  0.40276443295E+03  0.40276443296E+03  0.25500000000E-02 0.  1.
         -2   -1    0    0    0  501 -0.00000000000E+00 -0.00000000000E+00 -0.21840900138E+04  0.21840900138E+04  0.25500000000E-02 0. -1.
    -200001    2    1    2    0    0 -0.56925574690E+03  0.28406417349E+03 -0.13246803513E+04  0.15923503363E+04  0.61323486562E+03 0.  0.
   -5000001    2    3    3    0    0 -0.52309013780E+03  0.31560352148E+02 -0.52080936419E+03  0.74246857561E+03  0.73470020086E+02 0.  0.
     200001    1    1    2    0    0  0.56925574690E+03 -0.28406417349E+03 -0.45664522958E+03  0.99450411047E+03  0.61300000000E+03 0.  1.
         11    1    4    4    0    0 -0.10340633880E+02 -0.92675488413E+01 -0.12349812257E+02  0.18583165328E+02  0.51100000000E-03 0.  1.
    -200002    1    4    4    0    0 -0.51274950392E+03  0.40827900989E+02 -0.50845955193E+03  0.72388541029E+03  0.30000000000E+02 0.  1.
    -200000    1    3    3    0    0 -0.46165609099E+02  0.25250382134E+03 -0.80387098712E+03  0.84988176071E+03  0.10100000000E+03 0. -1.
<mgrwt>
<rscale>  0 0.18758185E+04</rscale>
<asrwt>0</asrwt>
<pdfrwt beam="1">  1        2 0.57537777E-01 0.18758185E+04</pdfrwt>
<pdfrwt beam="2">  1       -2 0.31201285E+00 0.18758185E+04</pdfrwt>
<totfact> 0.21699916E+00</totfact>
</mgrwt>
</event>
<event>
 8    2  0.7237260E-052  0.1964921E+04  0.7818608E-02  0.8623199E-01
         -2   -1    0    0    0  501 -0.00000000000E+00  0.00000000000E+00  0.52411547060E+03  0.52411547060E+03  0.25500000000E-02 0. -1.
          2   -1    0    0  501    0  0.00000000000E+00 -0.00000000000E+00 -0.18416328730E+04  0.18416328730E+04  0.25500000000E-02 0.  1.
    -200001    2    1    2    0    0 -0.25999710586E+03  0.56793414021E+03 -0.11960004165E+04  0.14821856347E+04  0.61344076893E+03 0.  0.
   -5000001    2    3    3    0    0  0.12230960578E+03  0.42331157939E+03 -0.70031423988E+03  0.83181659142E+03  0.85594826125E+02 0.  0.
     200001    1    1    2    0    0  0.25999710586E+03 -0.56793414021E+03 -0.12151698597E+03  0.88356270889E+03  0.61300000000E+03 0. -1.
         11    1    4    4    0    0  0.10976812024E+03  0.30034712244E+03 -0.46526705700E+03  0.56456254614E+03  0.51100000000E-03 0.  1.
    -200002    1    4    4    0    0  0.12541485540E+02  0.12296445695E+03 -0.23504718288E+03  0.26725404527E+03  0.30000000000E+02 0. -1.
    -200000    1    3    3    0    0 -0.38230671164E+03  0.14462256081E+03 -0.49568617657E+03  0.65036904332E+03  0.10100000000E+03 0. -1.
<mgrwt>
<rscale>  0 0.19649206E+04</rscale>
<asrwt>0</asrwt>
<pdfrwt beam="1">  1        2 0.26309041E+00 0.19649206E+04</pdfrwt>
<pdfrwt beam="2">  1       -2 0.74873640E-01 0.19649206E+04</pdfrwt>
<totfact> 0.14514888E+01</totfact>
</mgrwt>
</event>
<event>
 8    2  0.7237260E-052  0.1395480E+04  0.7818608E-02  0.8957097E-01
         -2   -1    0    0    0  501 -0.00000000000E+00  0.00000000000E+00  0.37667164026E+03  0.37667164027E+03  0.25500000000E-02 0. -1.
          2   -1    0    0  501    0  0.00000000000E+00 -0.00000000000E+00 -0.12924814913E+04  0.12924814913E+04  0.25500000000E-02 0.  1.
    -200001    2    1    2    0    0  0.16373495162E+03  0.27934869499E+03 -0.55083158580E+03  0.88568458600E+03  0.61333263585E+03 0.  0.
   -5000001    2    3    3    0    0  0.19535195029E+03  0.37660061271E+03 -0.14481332531E+03  0.45497656663E+03  0.77732689542E+02 0.  0.
     200001    1    1    2    0    0 -0.16373495162E+03 -0.27934869499E+03 -0.36497826523E+03  0.78346854555E+03  0.61300000000E+03 0. -1.
         11    1    4    4    0    0  0.73733975393E+02  0.77605808887E+02 -0.40039818544E+02  0.11429150349E+03  0.51100000000E-03 0.  1.
    -200002    1    4    4    0    0  0.12161797490E+03  0.29899480382E+03 -0.10477350677E+03  0.34068506315E+03  0.30000000000E+02 0.  1.
    -200000    1    3    3    0    0 -0.31616998666E+02 -0.97251917715E+02 -0.40601826048E+03  0.43070801937E+03  0.10100000000E+03 0.  1.
<mgrwt>
<rscale>  0 0.13954800E+04</rscale>
<asrwt>0</asrwt>
<pdfrwt beam="1">  1        2 0.18464021E+00 0.13954800E+04</pdfrwt>
<pdfrwt beam="2">  1       -2 0.53810235E-01 0.13954800E+04</pdfrwt>
<totfact> 0.60097947E+01</totfact>
</mgrwt>
</event>
<event>
 8    2  0.7237260E-052  0.1491095E+04  0.7818608E-02  0.8890396E-01
         -2   -1    0    0    0  501 -0.00000000000E+00  0.00000000000E+00  0.19368255114E+03  0.19368255116E+03  0.25500000000E-02 0. -1.
          2   -1    0    0  501    0  0.00000000000E+00 -0.00000000000E+00 -0.28698567723E+04  0.28698567723E+04  0.25500000000E-02 0.  1.
    -200001    2    1    2    0    0  0.34727268889E+03  0.22326469289E+03 -0.11804125477E+04  0.13951516505E+04  0.61857004580E+03 0.  0.
   -5000001    2    3    3    0    0  0.24917464605E+03  0.37820588093E+03 -0.10523742591E+04  0.11497442319E+04  0.96397743644E+02 0.  0.
     200001    1    1    2    0    0 -0.34727268889E+03 -0.22326469289E+03 -0.14957616735E+04  0.16683876730E+04  0.61300000000E+03 0.  1.
         11    1    4    4    0    0  0.12518593438E+03  0.25602680787E+03 -0.69273665551E+03  0.74906963521E+03  0.51100000000E-03 0.  1.
    -200002    1    4    4    0    0  0.12398871168E+03  0.12217907306E+03 -0.35963760354E+03  0.40067459665E+03  0.30000000000E+02 0. -1.
    -200000    1    3    3    0    0  0.98098042836E+02 -0.15494118804E+03 -0.12803828866E+03  0.24540741864E+03  0.10100000000E+03 0. -1.
<mgrwt>
<rscale>  0 0.14910951E+04</rscale>
<asrwt>0</asrwt>
<pdfrwt beam="1">  1        2 0.40997951E+00 0.14910951E+04</pdfrwt>
<pdfrwt beam="2">  1       -2 0.27668938E-01 0.14910951E+04</pdfrwt>
<totfact> 0.32271897E+01</totfact>
</mgrwt>
</event>
<event>
 8    2  0.7237260E-052  0.1532940E+04  0.7818608E-02  0.8862839E-01
          2   -1    0    0  501    0  0.00000000000E+00  0.00000000000E+00  0.15478443635E+04  0.15478443635E+04  0.25500000000E-02 0.  1.
         -2   -1    0    0    0  501 -0.00000000000E+00 -0.00000000000E+00 -0.37954455244E+03  0.37954455244E+03  0.25500000000E-02 0. -1.
    -200001    2    1    2    0    0  0.57170913205E+02  0.17898320215E+03  0.11123373472E+04  0.12838018609E+04  0.61282080925E+03 0.  0.
   -5000001    2    3    3    0    0  0.13369593915E+03 -0.68788436836E+02  0.93541009389E+03  0.95402751742E+03  0.11211604284E+03 0.  0.
     200001    1    1    2    0    0 -0.57170913205E+02 -0.17898320215E+03  0.55962463849E+02  0.64358705497E+03  0.61300000000E+03 0. -1.
         11    1    4    4    0    0  0.24886388237E+02 -0.70392385454E+02  0.36735184001E+03  0.37486236756E+03  0.51100000000E-03 0.  1.
    -200002    1    4    4    0    0  0.10880955091E+03  0.16039486183E+01  0.56805825387E+03  0.57916514986E+03  0.30000000000E+02 0. -1.
    -200000    1    3    3    0    0 -0.76525025945E+02  0.24777163899E+03  0.17692725328E+03  0.32977434351E+03  0.10100000000E+03 0.  1.
<mgrwt>
<rscale>  0 0.15329395E+04</rscale>
<asrwt>0</asrwt>
<pdfrwt beam="1">  1        2 0.22112062E+00 0.15329395E+04</pdfrwt>
<pdfrwt beam="2">  1       -2 0.54220651E-01 0.15329395E+04</pdfrwt>
<totfact> 0.42621123E+01</totfact>
</mgrwt>
</event>
<event>
 8    2  0.7237260E-052  0.2078000E+04  0.7818608E-02  0.8570997E-01
         -2   -1    0    0    0  501 -0.00000000000E+00  0.00000000000E+00  0.17011569322E+04  0.17011569322E+04  0.25500000000E-02 0. -1.
          2   -1    0    0  501    0  0.00000000000E+00 -0.00000000000E+00 -0.63458026308E+03  0.63458026308E+03  0.25500000000E-02 0.  1.
    -200001    2    1    2    0    0 -0.59496823328E+03  0.29142690632E+03  0.11119076724E+04  0.14320000985E+04  0.61267346098E+03 0.  0.
   -5000001    2    3    3    0    0 -0.75330698174E+02  0.56001215712E+02  0.72334473499E+03  0.73441097871E+03  0.85563016366E+02 0.  0.
     200001    1    1    2    0    0  0.59496823328E+03 -0.29142690632E+03 -0.45331003227E+02  0.90373709683E+03  0.61300000000E+03 0.  1.
         11    1    4    4    0    0 -0.24926173221E+02 -0.65981838273E+00  0.47347127513E+02  0.53511680554E+02  0.51100000000E-03 0.  1.
    -200002    1    4    4    0    0 -0.50404524954E+02  0.56661034095E+02  0.67599760747E+03  0.68089929816E+03  0.30000000000E+02 0.  1.
    -200000    1    3    3    0    0 -0.51963753511E+03  0.23542569061E+03  0.38856293737E+03  0.69758911974E+03  0.10100000000E+03 0. -1.
<mgrwt>
<rscale>  0 0.20779996E+04</rscale>
<asrwt>0</asrwt>
<pdfrwt beam="1">  1        2 0.90654323E-01 0.20779996E+04</pdfrwt>
<pdfrwt beam="2">  1       -2 0.24302242E+00 0.20779996E+04</pdfrwt>
<totfact> 0.33349756E+00</totfact>
</mgrwt>
</event>
<event>
 8    2  0.7237260E-052  0.1274232E+04  0.7818608E-02  0.9050253E-01
          2   -1    0    0  501    0  0.00000000000E+00  0.00000000000E+00  0.13116252961E+04  0.13116252961E+04  0.25500000000E-02 0.  1.
         -2   -1    0    0    0  501 -0.00000000000E+00 -0.00000000000E+00 -0.30947624715E+03  0.30947624716E+03  0.25500000000E-02 0. -1.
    -200001    2    1    2    0    0  0.40387666567E+02 -0.17192341685E+03  0.51559626544E+03  0.81879771301E+03  0.61106575835E+03 0.  0.
   -5000001    2    3    3    0    0  0.29714385917E+03 -0.32807842869E+02  0.22749351653E+03  0.39632750188E+03  0.12629869787E+03 0.  0.
     200001    1    1    2    0    0 -0.40387666567E+02  0.17192341685E+03  0.48655278347E+03  0.80230383021E+03  0.61300000000E+03 0. -1.
         11    1    4    4    0    0  0.30713557998E+02  0.17524459457E+02 -0.76431047956E+01  0.36177981914E+02  0.51100000000E-03 0.  1.
    -200002    1    4    4    0    0  0.26643030118E+03 -0.50332302326E+02  0.23513662133E+03  0.36014951997E+03  0.30000000000E+02 0.  1.
    -200000    1    3    3    0    0 -0.25675619261E+03 -0.13911557398E+03  0.28810274891E+03  0.42247021114E+03  0.10100000000E+03 0. -1.
<mgrwt>
<rscale>  0 0.12742321E+04</rscale>
<asrwt>0</asrwt>
<pdfrwt beam="1">  1        2 0.18737504E+00 0.12742321E+04</pdfrwt>
<pdfrwt beam="2">  1       -2 0.44210892E-01 0.12742321E+04</pdfrwt>
<totfact> 0.88111673E+01</totfact>
</mgrwt>
</event>
<event>
 8    2  0.7237260E-052  0.1432018E+04  0.7818608E-02  0.8930963E-01
         -2   -1    0    0    0  501 -0.00000000000E+00  0.00000000000E+00  0.15056070079E+03  0.15056070081E+03  0.25500000000E-02 0. -1.
          2   -1    0    0  501    0  0.00000000000E+00 -0.00000000000E+00 -0.34050621255E+04  0.34050621255E+04  0.25500000000E-02 0.  1.
    -200001    2    1    2    0    0  0.94852645613E+02  0.90533239996E+01 -0.73828829407E+03  0.96406412432E+03  0.61259370187E+03 0.  0.
   -5000001    2    3    3    0    0  0.69347548225E+02  0.29264362824E+03 -0.46029420273E+03  0.55350878642E+03  0.63654127748E+02 0.  0.
     200001    1    1    2    0    0 -0.94852645613E+02 -0.90533239996E+01 -0.25162131306E+04  0.25915587020E+04  0.61300000000E+03 0.  1.
         11    1    4    4    0    0  0.71987459066E+01  0.90364176275E+02 -0.17444667437E+03  0.19659386689E+03  0.51100000000E-03 0.  1.
    -200002    1    4    4    0    0  0.62148802319E+02  0.20227945197E+03 -0.28584752836E+03  0.35691491954E+03  0.30000000000E+02 0.  1.
    -200000    1    3    3    0    0  0.25505097388E+02 -0.28359030425E+03 -0.27799409134E+03  0.41055533790E+03  0.10100000000E+03 0. -1.
<mgrwt>
<rscale>  0 0.14320175E+04</rscale>
<asrwt>0</asrwt>
<pdfrwt beam="1">  1        2 0.48643740E+00 0.14320175E+04</pdfrwt>
<pdfrwt beam="2">  1       -2 0.21508674E-01 0.14320175E+04</pdfrwt>
<totfact> 0.25360153E+01</totfact>
</mgrwt>
</event>
<event>
 8    2  0.7237260E-052  0.1981572E+04  0.7818608E-02  0.8615285E-01
          2   -1    0    0  501    0  0.00000000000E+00  0.00000000000E+00  0.11318767384E+04  0.11318767384E+04  0.25500000000E-02 0.  1.
         -2   -1    0    0    0  501 -0.00000000000E+00 -0.00000000000E+00 -0.86728209445E+03  0.86728209445E+03  0.25500000000E-02 0. -1.
    -200001    2    1    2    0    0  0.49481694669E+03  0.52821932268E+03  0.42099124950E+03  0.10378636847E+04  0.61324377885E+03 0.  0.
   -5000001    2    3    3    0    0  0.16489095577E+03  0.43040370780E+02 -0.68517706645E+02  0.26710445317E+03  0.19392939945E+03 0.  0.
     200001    1    1    2    0    0 -0.49481694669E+03 -0.52821932268E+03 -0.15639660556E+03  0.96129514813E+03  0.61300000000E+03 0. -1.
         11    1    4    4    0    0  0.84413643541E+02 -0.69031462104E+02 -0.62701282834E+02  0.12578734772E+03  0.51100000000E-03 0.  1.
    -200002    1    4    4    0    0  0.80477312227E+02  0.11207183288E+03 -0.58164238117E+01  0.14131710546E+03  0.30000000000E+02 0.  1.
    -200000    1    3    3    0    0  0.32992599092E+03  0.48517895190E+03  0.48950895615E+03  0.77075923154E+03  0.10100000000E+03 0.  1.
<mgrwt>
<rscale>  0 0.19815715E+04</rscale>
<asrwt>0</asrwt>
<pdfrwt beam="1">  1        2 0.16169668E+00 0.19815715E+04</pdfrwt>
<pdfrwt beam="2">  1       -2 0.12389744E+00 0.19815715E+04</pdfrwt>
<totfact> 0.10716335E+01</totfact>
</mgrwt>
</event>
<event>
 8    2  0.7237260E-052  0.1685105E+04  0.7818608E-02  0.8769906E-01
          2   -1    0    0  501    0  0.00000000000E+00  0.00000000000E+00  0.27500151915E+04  0.27500151915E+04  0.25500000000E-02 0.  1.
         -2   -1    0    0    0  501 -0.00000000000E+00 -0.00000000000E+00 -0.25814198102E+03  0.25814198103E+03  0.25500000000E-02 0. -1.
    -200001    2    1    2    0    0  0.36647195452E+03  0.62905431678E+02  0.45309043085E+03  0.84698549743E+03  0.61142023808E+03 0.  0.
   -5000001    2    3    3    0    0  0.27037153330E+03 -0.92677688368E+02  0.49947413860E+03  0.63299052892E+03  0.26365256424E+03 0.  0.
     200001    1    1    2    0    0 -0.36647195452E+03 -0.62905431678E+02  0.20387827796E+04  0.21611716751E+04  0.61300000000E+03 0.  1.
         11    1    4    4    0    0  0.26642905894E+03 -0.42517818431E+02  0.22198198897E+03  0.34938261513E+03  0.51100000000E-03 0.  1.
    -200002    1    4    4    0    0  0.39424743684E+01 -0.50159869938E+02  0.27749214963E+03  0.28360791379E+03  0.30000000000E+02 0.  1.
    -200000    1    3    3    0    0  0.96100421221E+02  0.15558312005E+03 -0.46383707748E+02  0.21399496851E+03  0.10100000000E+03 0. -1.
<mgrwt>
<rscale>  0 0.16851046E+04</rscale>
<asrwt>0</asrwt>
<pdfrwt beam="1">  1        2 0.39285933E+00 0.16851046E+04</pdfrwt>
<pdfrwt beam="2">  1       -2 0.36877424E-01 0.16851046E+04</pdfrwt>
<totfact> 0.21466872E+01</totfact>
</mgrwt>
</event>
<event>
 8    2  0.7237260E-052  0.1526930E+04  0.7818608E-02  0.8866739E-01
          2   -1    0    0  501    0  0.00000000000E+00  0.00000000000E+00  0.18904195741E+04  0.18904195741E+04  0.25500000000E-02 0.  1.
         -2   -1    0    0    0  501 -0.00000000000E+00 -0.00000000000E+00 -0.30833322404E+03  0.30833322405E+03  0.25500000000E-02 0. -1.
    -200001    2    1    2    0    0 -0.98501987679E+02 -0.36379039151E+01  0.15093845398E+03  0.63873062640E+03  0.61276302131E+03 0.  0.
   -5000001    2    3    3    0    0  0.28268647068E+01 -0.23596127710E+02 -0.21887758458E+03  0.24170320996E+03  0.99741046043E+02 0.  0.
     200001    1    1    2    0    0  0.98501987679E+02  0.36379039151E+01  0.14311478961E+04  0.15600221717E+04  0.61300000000E+03 0.  1.
         11    1    4    4    0    0  0.29498815506E+02  0.24930335414E+02 -0.99477956201E+02  0.10671253680E+03  0.51100000000E-03 0.  1.
    -200002    1    4    4    0    0 -0.26671950800E+02 -0.48526463124E+02 -0.11939962838E+03  0.13499067316E+03  0.30000000000E+02 0.  1.
    -200000    1    3    3    0    0 -0.10132885239E+03  0.19958223795E+02  0.36981603856E+03  0.39702741644E+03  0.10100000000E+03 0.  1.
<mgrwt>
<rscale>  0 0.15269305E+04</rscale>
<asrwt>0</asrwt>
<pdfrwt beam="1">  1        2 0.27005994E+00 0.15269305E+04</pdfrwt>
<pdfrwt beam="2">  1       -2 0.44047603E-01 0.15269305E+04</pdfrwt>
<totfact> 0.43130363E+01</totfact>
</mgrwt>
</event>
<event>
 8    2  0.7237260E-052  0.1822895E+04  0.7818608E-02  0.8694218E-01
         -2   -1    0    0    0  501 -0.00000000000E+00  0.00000000000E+00  0.53545176632E+03  0.53545176633E+03  0.25500000000E-02 0. -1.
          2   -1    0    0  501    0  0.00000000000E+00 -0.00000000000E+00 -0.15514692123E+04  0.15514692123E+04  0.25500000000E-02 0.  1.
    -200001    2    1    2    0    0  0.33795844118E+03  0.13391787497E+03  0.14251698463E+03  0.72672947295E+03  0.61292310345E+03 0.  0.
   -5000001    2    3    3    0    0  0.50435161387E+02  0.30809685234E+03  0.16244247781E+03  0.37515305471E+03  0.12994183291E+03 0.  0.
     200001    1    1    2    0    0 -0.33795844118E+03 -0.13391787497E+03 -0.11585344306E+04  0.13601915057E+04  0.61300000000E+03 0.  1.
         11    1    4    4    0    0  0.18220167583E+01  0.19009428128E+03  0.15243168558E+03  0.24366898508E+03  0.51100000000E-03 0.  1.
    -200002    1    4    4    0    0  0.48613144629E+02  0.11800257106E+03  0.10010792233E+02  0.13148406963E+03  0.30000000000E+02 0.  1.
    -200000    1    3    3    0    0  0.28752327980E+03 -0.17417897737E+03 -0.19925493181E+02  0.35157641824E+03  0.10100000000E+03 0.  1.
<mgrwt>
<rscale>  0 0.18228954E+04</rscale>
<asrwt>0</asrwt>
<pdfrwt beam="1">  1        2 0.22163846E+00 0.18228954E+04</pdfrwt>
<pdfrwt beam="2">  1       -2 0.76493110E-01 0.18228954E+04</pdfrwt>
<totfact> 0.19831152E+01</totfact>
</mgrwt>
</event>
<event>
 8    2  0.7237260E-052  0.1559985E+04  0.7818608E-02  0.8845515E-01
         -2   -1    0    0    0  501 -0.00000000000E+00  0.00000000000E+00  0.13030288973E+04  0.13030288973E+04  0.25500000000E-02 0. -1.
          2   -1    0    0  501    0  0.00000000000E+00 -0.00000000000E+00 -0.46690310747E+03  0.46690310748E+03  0.25500000000E-02 0.  1.
    -200001    2    1    2    0    0 -0.98864949091E+02  0.44293861675E+03  0.23378312137E+03  0.79805002294E+03  0.61340068056E+03 0.  0.
   -5000001    2    3    3    0    0  0.50158323002E+02  0.44960556785E+03 -0.47790814300E+02  0.46377877813E+03  0.90253914611E+02 0.  0.
     200001    1    1    2    0    0  0.98864949091E+02 -0.44293861675E+03  0.60234266844E+03  0.97188198182E+03  0.61300000000E+03 0. -1.
         11    1    4    4    0    0  0.26778350409E+02  0.13761145579E+03 -0.51780067470E+02  0.14944955070E+03  0.51100000000E-03 0.  1.
    -200002    1    4    4    0    0  0.23379972593E+02  0.31199411206E+03  0.39892531704E+01  0.31432922743E+03  0.30000000000E+02 0.  1.
    -200000    1    3    3    0    0 -0.14902327209E+03 -0.66669510948E+01  0.28157393567E+03  0.33427124482E+03  0.10100000000E+03 0. -1.
<mgrwt>
<rscale>  0 0.15599849E+04</rscale>
<asrwt>0</asrwt>
<pdfrwt beam="1">  1        2 0.66700443E-01 0.15599849E+04</pdfrwt>
<pdfrwt beam="2">  1       -2 0.18614699E+00 0.15599849E+04</pdfrwt>
<totfact> 0.11507458E+01</totfact>
</mgrwt>
</event>
<event>
 8    2  0.7237260E-052  0.1429373E+04  0.7818608E-02  0.8932827E-01
         -2   -1    0    0    0  501 -0.00000000000E+00  0.00000000000E+00  0.75752261008E+03  0.75752261009E+03  0.25500000000E-02 0. -1.
          2   -1    0    0  501    0  0.00000000000E+00 -0.00000000000E+00 -0.67427265026E+03  0.67427265026E+03  0.25500000000E-02 0.  1.
    -200001    2    1    2    0    0 -0.19742358204E+03 -0.22291940467E+03 -0.17158002068E+03  0.70421265288E+03  0.61465976382E+03 0.  0.
   -5000001    2    3    3    0    0  0.19201848517E+03  0.11081236649E+02 -0.33802571270E+02  0.21882100749E+03  0.98722474871E+02 0.  0.
     200001    1    1    2    0    0  0.19742358204E+03  0.22291940467E+03  0.25482998050E+03  0.72758260747E+03  0.61300000000E+03 0.  1.
         11    1    4    4    0    0  0.23011357810E+02 -0.30254891202E+02 -0.16435777065E+02  0.41412749219E+02  0.51100000000E-03 0.  1.
    -200002    1    4    4    0    0  0.16900712736E+03  0.41336127851E+02 -0.17366794205E+02  0.17740825827E+03  0.30000000000E+02 0.  1.
    -200000    1    3    3    0    0 -0.38944206721E+03 -0.23400064132E+03 -0.13777744941E+03  0.48539164539E+03  0.10100000000E+03 0. -1.
<mgrwt>
<rscale>  0 0.14293730E+04</rscale>
<asrwt>0</asrwt>
<pdfrwt beam="1">  1        2 0.96324663E-01 0.14293730E+04</pdfrwt>
<pdfrwt beam="2">  1       -2 0.10821752E+00 0.14293730E+04</pdfrwt>
<totfact> 0.31348145E+01</totfact>
</mgrwt>
</event>
<event>
 8    2  0.7237260E-052  0.1307710E+04  0.7818608E-02  0.9023473E-01
          2   -1    0    0  501    0  0.00000000000E+00  0.00000000000E+00  0.19454702596E+04  0.19454702596E+04  0.25500000000E-02 0.  1.
         -2   -1    0    0    0  501 -0.00000000000E+00 -0.00000000000E+00 -0.21975486533E+03  0.21975486534E+03  0.25500000000E-02 0. -1.
    -200001    2    1    2    0    0 -0.29008738126E+02 -0.13097134769E+03  0.55582961431E+03  0.83767221114E+03  0.61217086860E+03 0.  0.
   -5000001    2    3    3    0    0  0.18046187367E+03 -0.21026432908E+03  0.51286663146E+03  0.58824861162E+03  0.78909261025E+02 0.  0.
     200001    1    1    2    0    0  0.29008738126E+02  0.13097134769E+03  0.11698857800E+04  0.13275529138E+04  0.61300000000E+03 0.  1.
         11    1    4    4    0    0  0.99514030193E+02 -0.69977884591E+02  0.18651825192E+03  0.22268588828E+03  0.51100000000E-03 0.  1.
    -200002    1    4    4    0    0  0.80947843472E+02 -0.14028644449E+03  0.32634837954E+03  0.36556272334E+03  0.30000000000E+02 0.  1.
    -200000    1    3    3    0    0 -0.20947061179E+03  0.79292981387E+02  0.42962982845E+02  0.24942359952E+03  0.10100000000E+03 0. -1.
<mgrwt>
<rscale>  0 0.13077103E+04</rscale>
<asrwt>0</asrwt>
<pdfrwt beam="1">  1        2 0.27792433E+00 0.13077103E+04</pdfrwt>
<pdfrwt beam="2">  1       -2 0.31393552E-01 0.13077103E+04</pdfrwt>
<totfact> 0.79012762E+01</totfact>
</mgrwt>
</event>
<event>
 8    2  0.7237260E-052  0.1486876E+04  0.7818608E-02  0.8893227E-01
          2   -1    0    0  501    0  0.00000000000E+00  0.00000000000E+00  0.15357849245E+04  0.15357849245E+04  0.25500000000E-02 0.  1.
         -2   -1    0    0    0  501 -0.00000000000E+00 -0.00000000000E+00 -0.35988128842E+03  0.35988128842E+03  0.25500000000E-02 0. -1.
    -200001    2    1    2    0    0  0.30863952991E+03 -0.21157072687E+03  0.83235674096E+03  0.10995418502E+04  0.61331395232E+03 0.  0.
   -5000001    2    3    3    0    0  0.11206154918E+03  0.19856816776E+03  0.37571290681E+03  0.44717584347E+03  0.82576864730E+02 0.  0.
     200001    1    1    2    0    0 -0.30863952991E+03  0.21157072687E+03  0.34354689517E+03  0.79612436282E+03  0.61300000000E+03 0. -1.
         11    1    4    4    0    0  0.84125323315E+02  0.10404337110E+03  0.25881219739E+03  0.29135175752E+03  0.51100000000E-03 0.  1.
    -200002    1    4    4    0    0  0.27936225861E+02  0.94524796659E+02  0.11690070942E+03  0.15582408594E+03  0.30000000000E+02 0.  1.
    -200000    1    3    3    0    0  0.19657798074E+03 -0.41013889464E+03  0.45664383416E+03  0.65236600669E+03  0.10100000000E+03 0. -1.
<mgrwt>
<rscale>  0 0.14868763E+04</rscale>
<asrwt>0</asrwt>
<pdfrwt beam="1">  1        2 0.21939785E+00 0.14868763E+04</pdfrwt>
<pdfrwt beam="2">  1       -2 0.51411613E-01 0.14868763E+04</pdfrwt>
<totfact> 0.48428592E+01</totfact>
</mgrwt>
</event>
<event>
 8    2  0.7237260E-052  0.1424581E+04  0.7818608E-02  0.8936215E-01
         -2   -1    0    0    0  501 -0.00000000000E+00  0.00000000000E+00  0.93259447395E+03  0.93259447395E+03  0.25500000000E-02 0.  1.
          2   -1    0    0  501    0  0.00000000000E+00 -0.00000000000E+00 -0.54402810274E+03  0.54402810275E+03  0.25500000000E-02 0. -1.
    -200001    2    1    2    0    0  0.22677079197E+03  0.19874761824E+03 -0.14504513681E+02  0.68342603983E+03  0.61313551777E+03 0.  0.
   -5000001    2    3    3    0    0  0.32810780784E+03  0.32585908682E+03 -0.91079992960E+02  0.47729181110E+03  0.75319517985E+02 0.  0.
     200001    1    1    2    0    0 -0.22677079197E+03 -0.19874761824E+03  0.40307088489E+03  0.79319653686E+03  0.61300000000E+03 0.  1.
         11    1    4    4    0    0  0.46894705960E+00 -0.21079874323E+01  0.26075925307E+01  0.33857143156E+01  0.51100000000E-03 0.  1.
    -200002    1    4    4    0    0  0.32763886078E+03  0.32796707425E+03 -0.93687585491E+02  0.47390609678E+03  0.30000000000E+02 0.  1.
    -200000    1    3    3    0    0 -0.10133701587E+03 -0.12711146858E+03  0.76575479280E+02  0.20613422874E+03  0.10100000000E+03 0.  1.
<mgrwt>
<rscale>  0 0.14245808E+04</rscale>
<asrwt>0</asrwt>
<pdfrwt beam="1">  1        2 0.77718301E-01 0.14245808E+04</pdfrwt>
<pdfrwt beam="2">  1       -2 0.13322778E+00 0.14245808E+04</pdfrwt>
<totfact> 0.24172909E+01</totfact>
</mgrwt>
</event>
<event>
 8    2  0.7237260E-052  0.1441942E+04  0.7818608E-02  0.8924006E-01
         -2   -1    0    0    0  501 -0.00000000000E+00  0.00000000000E+00  0.30085329562E+03  0.30085329563E+03  0.25500000000E-02 0. -1.
          2   -1    0    0  501    0  0.00000000000E+00 -0.00000000000E+00 -0.17277487573E+04  0.17277487573E+04  0.25500000000E-02 0.  1.
    -200001    2    1    2    0    0  0.76728056181E+02 -0.13123585920E+02 -0.12362721797E+04  0.13819447567E+04  0.61265241795E+03 0.  0.
   -5000001    2    3    3    0    0  0.16035404993E+03  0.25755612752E+03 -0.57976037876E+03  0.65981626478E+03  0.84775151688E+02 0.  0.
     200001    1    1    2    0    0 -0.76728056181E+02  0.13123585920E+02 -0.19062328200E+03  0.64665729622E+03  0.61300000000E+03 0. -1.
         11    1    4    4    0    0 -0.51295372393E+01  0.96381777730E+01 -0.50354980098E+02  0.51525048704E+02  0.51100000000E-03 0.  1.
    -200002    1    4    4    0    0  0.16548358717E+03  0.24791794974E+03 -0.52940539866E+03  0.60829121608E+03  0.30000000000E+02 0.  1.
    -200000    1    3    3    0    0 -0.83625993749E+02 -0.27067971344E+03 -0.65651180091E+03  0.72212849191E+03  0.10100000000E+03 0. -1.
<mgrwt>
<rscale>  0 0.14419416E+04</rscale>
<asrwt>0</asrwt>
<pdfrwt beam="1">  1        2 0.24682124E+00 0.14419416E+04</pdfrwt>
<pdfrwt beam="2">  1       -2 0.42979043E-01 0.14419416E+04</pdfrwt>
<totfact> 0.55307318E+01</totfact>
</mgrwt>
</event>
<event>
 8    2  0.7237260E-052  0.1500944E+04  0.7818608E-02  0.8883825E-01
          2   -1    0    0  501    0  0.00000000000E+00  0.00000000000E+00  0.26303640157E+04  0.26303640157E+04  0.25500000000E-02 0.  1.
         -2   -1    0    0    0  501 -0.00000000000E+00 -0.00000000000E+00 -0.21411799889E+03  0.21411799890E+03  0.25500000000E-02 0. -1.
    -200001    2    1    2    0    0  0.36424757927E+03  0.22470751096E+03  0.10857430115E+04  0.13183178650E+04  0.61315115721E+03 0.  0.
   -5000001    2    3    3    0    0  0.44030818421E+02  0.13425056464E+03  0.91611079123E+03  0.93141048171E+03  0.91129449358E+02 0.  0.
     200001    1    1    2    0    0 -0.36424757927E+03 -0.22470751096E+03  0.13305030054E+04  0.15261641497E+04  0.61300000000E+03 0. -1.
         11    1    4    4    0    0  0.62968135804E+02  0.93133620145E+02  0.67129230227E+03  0.68064103051E+03  0.51100000000E-03 0.  1.
    -200002    1    4    4    0    0 -0.18937317383E+02  0.41116944492E+02  0.24481848896E+03  0.25076945119E+03  0.30000000000E+02 0.  1.
    -200000    1    3    3    0    0  0.32021676084E+03  0.90456946327E+02  0.16963222025E+03  0.38690738325E+03  0.10100000000E+03 0. -1.
<mgrwt>
<rscale>  0 0.15009441E+04</rscale>
<asrwt>0</asrwt>
<pdfrwt beam="1">  1        2 0.37576629E+00 0.15009441E+04</pdfrwt>
<pdfrwt beam="2">  1       -2 0.30588286E-01 0.15009441E+04</pdfrwt>
<totfact> 0.36034576E+01</totfact>
</mgrwt>
</event>
<event>
 8    2  0.7237260E-052  0.1343824E+04  0.7818608E-02  0.8995516E-01
         -2   -1    0    0    0  501 -0.00000000000E+00  0.00000000000E+00  0.36728630781E+03  0.36728630782E+03  0.25500000000E-02 0. -1.
          2   -1    0    0  501    0  0.00000000000E+00 -0.00000000000E+00 -0.12291933434E+04  0.12291933434E+04  0.25500000000E-02 0.  1.
    -200001    2    1    2    0    0 -0.72985868224E+02  0.25958963752E+03 -0.49509156150E+03  0.83291150828E+03  0.61311679922E+03 0.  0.
   -5000001    2    3    3    0    0 -0.26164531957E+03  0.18783266139E+03 -0.64064974872E+02  0.34636616549E+03  0.11011729045E+03 0.  0.
     200001    1    1    2    0    0  0.72985868224E+02 -0.25958963752E+03 -0.36681547406E+03  0.76356814292E+03  0.61300000000E+03 0. -1.
         11    1    4    4    0    0 -0.11816907202E+03  0.13433484140E+03 -0.64920225965E+02  0.19032712612E+03  0.51100000000E-03 0.  1.
    -200002    1    4    4    0    0 -0.14347624755E+03  0.53497819985E+02  0.85525109288E+00  0.15603903937E+03  0.30000000000E+02 0.  1.
    -200000    1    3    3    0    0  0.18865945135E+03  0.71756976133E+02 -0.43102658663E+03  0.48654534278E+03  0.10100000000E+03 0. -1.
<mgrwt>
<rscale>  0 0.13438242E+04</rscale>
<asrwt>0</asrwt>
<pdfrwt beam="1">  1        2 0.17559905E+00 0.13438242E+04</pdfrwt>
<pdfrwt beam="2">  1       -2 0.52469473E-01 0.13438242E+04</pdfrwt>
<totfact> 0.68945051E+01</totfact>
</mgrwt>
</event>
<event>
 8    2  0.7237260E-052  0.1728173E+04  0.7818608E-02  0.8745458E-01
          2   -1    0    0  501    0  0.00000000000E+00  0.00000000000E+00  0.38848527524E+04  0.38848527524E+04  0.25500000000E-02 0.  1.
         -2   -1    0    0    0  501 -0.00000000000E+00 -0.00000000000E+00 -0.19219397488E+03  0.19219397490E+03  0.25500000000E-02 0. -1.
    -200001    2    1    2    0    0 -0.51302450480E+03 -0.28600997614E+02  0.26178701067E+04  0.27372885974E+04  0.61277468170E+03 0.  0.
   -5000001    2    3    3    0    0 -0.13014229580E+03  0.24695369844E+03  0.12555790118E+04  0.12921009959E+04  0.12297634864E+03 0.  0.
     200001    1    1    2    0    0  0.51302450480E+03  0.28600997614E+02  0.10747886708E+04  0.13397581298E+04  0.61300000000E+03 0. -1.
         11    1    4    4    0    0 -0.42824224459E+02  0.13226537106E+03  0.38885630693E+03  0.41296158420E+03  0.51100000000E-03 0.  1.
    -200002    1    4    4    0    0 -0.87318071341E+02  0.11468832738E+03  0.86672270490E+03  0.87913941171E+03  0.30000000000E+02 0.  1.
    -200000    1    3    3    0    0 -0.38288220900E+03 -0.27555469605E+03  0.13622910949E+04  0.14451876015E+04  0.10100000000E+03 0.  1.
<mgrwt>
<rscale>  0 0.17281728E+04</rscale>
<asrwt>0</asrwt>
<pdfrwt beam="1">  1        2 0.55497898E+00 0.17281728E+04</pdfrwt>
<pdfrwt beam="2">  1       -2 0.27456282E-01 0.17281728E+04</pdfrwt>
<totfact> 0.79252973E+00</totfact>
</mgrwt>
</event>
<event>
 8    2  0.7237260E-052  0.1245433E+04  0.7818608E-02  0.9073993E-01
          2   -1    0    0  501    0  0.00000000000E+00  0.00000000000E+00  0.20598004061E+03  0.20598004062E+03  0.25500000000E-02 0.  1.
         -2   -1    0    0    0  501 -0.00000000000E+00 -0.00000000000E+00 -0.18825885611E+04  0.18825885611E+04  0.25500000000E-02 0. -1.
    -200001    2    1    2    0    0 -0.50521210342E+02  0.22837385019E+02 -0.99783980910E+03  0.11722881303E+04  0.61278155720E+03 0.  0.
   -5000001    2    3    3    0    0 -0.36866375851E+02 -0.26450865950E+03 -0.65903830760E+03  0.71650127082E+03  0.87855674790E+02 0.  0.
     200001    1    1    2    0    0  0.50521210342E+02 -0.22837385019E+02 -0.67876871141E+03  0.91628047149E+03  0.61300000000E+03 0.  1.
         11    1    4    4    0    0 -0.90468899618E+01 -0.13571707234E+03 -0.42518290275E+03  0.44640953253E+03  0.51100000000E-03 0.  1.
    -200002    1    4    4    0    0 -0.27819485889E+02 -0.12879158716E+03 -0.23385540485E+03  0.27009173829E+03  0.30000000000E+02 0.  1.
    -200000    1    3    3    0    0 -0.13654834492E+02  0.28734604452E+03 -0.33880150151E+03  0.45578685943E+03  0.10100000000E+03 0.  1.
<mgrwt>
<rscale>  0 0.12454327E+04</rscale>
<asrwt>0</asrwt>
<pdfrwt beam="1">  1        2 0.29425721E-01 0.12454327E+04</pdfrwt>
<pdfrwt beam="2">  1       -2 0.26894121E+00 0.12454327E+04</pdfrwt>
<totfact> 0.88577697E+00</totfact>
</mgrwt>
</event>
<event>
 8    2  0.7237260E-052  0.1469446E+04  0.7818608E-02  0.8905029E-01
          2   -1    0    0  501    0  0.00000000000E+00  0.00000000000E+00  0.28824032404E+04  0.28824032404E+04  0.25500000000E-02 0.  1.
         -2   -1    0    0    0  501 -0.00000000000E+00 -0.00000000000E+00 -0.18728053873E+03  0.18728053875E+03  0.25500000000E-02 0. -1.
    -200001    2    1    2    0    0  0.35431097708E+03 -0.49559936815E+02  0.17471872875E+04  0.18854781360E+04  0.61185940206E+03 0.  0.
   -5000001    2    3    3    0    0  0.24334664303E+03  0.19602601039E+03  0.47083987441E+03  0.57708627581E+03  0.11702391622E+03 0.  0.
     200001    1    1    2    0    0 -0.35431097708E+03  0.49559936815E+02  0.94793541413E+03  0.11842056431E+04  0.61300000000E+03 0. -1.
         11    1    4    4    0    0  0.21052943598E+03  0.14102976663E+03  0.30325892507E+03  0.39519364130E+03  0.51100000000E-03 0.  1.
    -200002    1    4    4    0    0  0.32817207049E+02  0.54996243768E+02  0.16758094934E+03  0.18189263451E+03  0.30000000000E+02 0. -1.
    -200000    1    3    3    0    0  0.11096433405E+03 -0.24558594721E+03  0.12763474131E+04  0.13083918602E+04  0.10100000000E+03 0. -1.
<mgrwt>
<rscale>  0 0.14694462E+04</rscale>
<asrwt>0</asrwt>
<pdfrwt beam="1">  1        2 0.41177188E+00 0.14694462E+04</pdfrwt>
<pdfrwt beam="2">  1       -2 0.26754364E-01 0.14694462E+04</pdfrwt>
<totfact> 0.33851538E+01</totfact>
</mgrwt>
</event>
<event>
 8    2  0.7237260E-052  0.1670505E+04  0.7818608E-02  0.8778368E-01
         -2   -1    0    0    0  501 -0.00000000000E+00  0.00000000000E+00  0.13996532490E+04  0.13996532490E+04  0.25500000000E-02 0. -1.
          2   -1    0    0  501    0  0.00000000000E+00 -0.00000000000E+00 -0.49844227645E+03  0.49844227645E+03  0.25500000000E-02 0.  1.
    -200001    2    1    2    0    0  0.26069920716E+03 -0.13140954931E+03  0.10041058027E+04  0.12113722244E+04  0.61152404429E+03 0.  0.
   -5000001    2    3    3    0    0  0.39742597695E+03  0.29008448817E+02  0.43984514385E+03  0.60061921800E+03  0.92145521837E+02 0.  0.
     200001    1    1    2    0    0 -0.26069920716E+03  0.13140954931E+03 -0.10289483007E+03  0.68672330113E+03  0.61300000000E+03 0.  1.
         11    1    4    4    0    0  0.21185178852E+03 -0.14254091537E+02  0.27091167166E+03  0.34420559738E+03  0.51100000000E-03 0.  1.
    -200002    1    4    4    0    0  0.18557418844E+03  0.43262540354E+02  0.16893347219E+03  0.25641362062E+03  0.30000000000E+02 0.  1.
    -200000    1    3    3    0    0 -0.13672676979E+03 -0.16041799813E+03  0.56426065880E+03  0.61075300636E+03  0.10100000000E+03 0. -1.
<mgrwt>
<rscale>  0 0.16705045E+04</rscale>
<asrwt>0</asrwt>
<pdfrwt beam="1">  1        2 0.71206038E-01 0.16705045E+04</pdfrwt>
<pdfrwt beam="2">  1       -2 0.19995047E+00 0.16705045E+04</pdfrwt>
<totfact> 0.85673699E+00</totfact>
</mgrwt>
</event>
<event>
 8    2  0.7237260E-052  0.1293647E+04  0.7818608E-02  0.9034619E-01
         -2   -1    0    0    0  501 -0.00000000000E+00  0.00000000000E+00  0.28465476417E+04  0.28465476417E+04  0.25500000000E-02 0. -1.
          2   -1    0    0  501    0  0.00000000000E+00 -0.00000000000E+00 -0.14697817029E+03  0.14697817031E+03  0.25500000000E-02 0.  1.
    -200001    2    1    2    0    0 -0.13296292709E+03 -0.11201317695E+03  0.15957355512E+04  0.17189888705E+04  0.61508104821E+03 0.  0.
   -5000001    2    3    3    0    0  0.11363883170E+03 -0.25664100018E+03  0.10882515727E+04  0.11278284667E+04  0.94483742737E+02 0.  0.
     200001    1    1    2    0    0  0.13296292709E+03  0.11201317695E+03  0.11038339202E+04  0.12745369415E+04  0.61300000000E+03 0. -1.
         11    1    4    4    0    0  0.67480550590E+02 -0.16389544977E+03  0.51847677711E+03  0.54793568196E+03  0.51100000000E-03 0.  1.
    -200002    1    4    4    0    0  0.46158281107E+02 -0.92745550413E+02  0.56977479561E+03  0.57989278470E+03  0.30000000000E+02 0.  1.
    -200000    1    3    3    0    0 -0.24660175879E+03  0.14462782323E+03  0.50748397847E+03  0.59116040386E+03  0.10100000000E+03 0.  1.
<mgrwt>
<rscale>  0 0.12936466E+04</rscale>
<asrwt>0</asrwt>
<pdfrwt beam="1">  1        2 0.20996881E-01 0.12936466E+04</pdfrwt>
<pdfrwt beam="2">  1       -2 0.40664967E+00 0.12936466E+04</pdfrwt>
<totfact> 0.18003470E+00</totfact>
</mgrwt>
</event>
<event>
 8    2  0.7237260E-052  0.1493621E+04  0.7818608E-02  0.8888706E-01
          2   -1    0    0  501    0  0.00000000000E+00  0.00000000000E+00  0.22214023722E+04  0.22214023722E+04  0.25500000000E-02 0.  1.
         -2   -1    0    0    0  501 -0.00000000000E+00 -0.00000000000E+00 -0.25106945032E+03  0.25106945034E+03  0.25500000000E-02 0. -1.
    -200001    2    1    2    0    0  0.51660609349E+02 -0.13306435436E+03  0.32071499705E+03  0.70686052928E+03  0.61352975279E+03 0.  0.
   -5000001    2    3    3    0    0 -0.50351999597E+02 -0.22327036355E+03 -0.93689306615E+02  0.25911548646E+03  0.77318626762E+02 0.  0.
     200001    1    1    2    0    0 -0.51660609349E+02  0.13306435436E+03  0.16496179248E+04  0.17656112932E+04  0.61300000000E+03 0.  1.
         11    1    4    4    0    0  0.72328709596E+01 -0.14229943314E+02  0.78850631153E+01  0.17803930173E+02  0.51100000000E-03 0.  1.
    -200002    1    4    4    0    0 -0.57584870557E+02 -0.20904042023E+03 -0.10157436973E+03  0.24131155628E+03  0.30000000000E+02 0.  1.
    -200000    1    3    3    0    0  0.10201260895E+03  0.90206009190E+02  0.41440430367E+03  0.44774504283E+03  0.10100000000E+03 0.  1.
<mgrwt>
<rscale>  0 0.14936215E+04</rscale>
<asrwt>0</asrwt>
<pdfrwt beam="1">  1        2 0.31734322E+00 0.14936215E+04</pdfrwt>
<pdfrwt beam="2">  1       -2 0.35867062E-01 0.14936215E+04</pdfrwt>
<totfact> 0.43641119E+01</totfact>
</mgrwt>
</event>
<event>
 8    2  0.7237260E-052  0.1545904E+04  0.7818608E-02  0.8854489E-01
         -2   -1    0    0    0  501 -0.00000000000E+00  0.00000000000E+00  0.47044723576E+03  0.47044723577E+03  0.25500000000E-02 0. -1.
          2   -1    0    0  501    0  0.00000000000E+00 -0.00000000000E+00 -0.12699713232E+04  0.12699713232E+04  0.25500000000E-02 0.  1.
    -200001    2    1    2    0    0  0.73909294261E+02 -0.26028856971E+03  0.34141183556E+02  0.67084878220E+03  0.61291087840E+03 0.  0.
   -5000001    2    3    3    0    0 -0.12954533103E+03 -0.23440215463E+02 -0.21143277756E+03  0.26097258401E+03  0.77919405071E+02 0.  0.
     200001    1    1    2    0    0 -0.73909294261E+02  0.26028856971E+03 -0.83366527098E+03  0.10695697767E+04  0.61300000000E+03 0.  1.
         11    1    4    4    0    0 -0.10334473791E+01 -0.48436543774E+01  0.48465523058E+01  0.69295072499E+01  0.51100000000E-03 0.  1.
    -200002    1    4    4    0    0 -0.12851188365E+03 -0.18596561086E+02 -0.21627932986E+03  0.25404307676E+03  0.30000000000E+02 0.  1.
    -200000    1    3    3    0    0  0.20345462529E+03 -0.23684835425E+03  0.24557396112E+03  0.40987619819E+03  0.10100000000E+03 0. -1.
<mgrwt>
<rscale>  0 0.15459036E+04</rscale>
<asrwt>0</asrwt>
<pdfrwt beam="1">  1        2 0.18142447E+00 0.15459036E+04</pdfrwt>
<pdfrwt beam="2">  1       -2 0.67206749E-01 0.15459036E+04</pdfrwt>
<totfact> 0.38233686E+01</totfact>
</mgrwt>
</event>
<event>
 8    2  0.7237260E-052  0.1480973E+04  0.7818608E-02  0.8897205E-01
          2   -1    0    0  501    0  0.00000000000E+00  0.00000000000E+00  0.12729669418E+04  0.12729669418E+04  0.25500000000E-02 0.  1.
         -2   -1    0    0    0  501 -0.00000000000E+00 -0.00000000000E+00 -0.43074213645E+03  0.43074213646E+03  0.25500000000E-02 0. -1.
    -200001    2    1    2    0    0 -0.88284225050E+01  0.32391112323E+03  0.12267872137E+03  0.70445339339E+03  0.61335809930E+03 0.  0.
   -5000001    2    3    3    0    0 -0.71878163100E+02  0.25382249427E+03  0.34352166697E+03  0.44395331216E+03  0.97442694846E+02 0.  0.
     200001    1    1    2    0    0  0.88284225050E+01 -0.32391112323E+03  0.71954608398E+03  0.99925568488E+03  0.61300000000E+03 0. -1.
         11    1    4    4    0    0 -0.16181994060E+02  0.16705548576E+03  0.16332962276E+03  0.23419213891E+03  0.51100000000E-03 0.  1.
    -200002    1    4    4    0    0 -0.55696169041E+02  0.86767008507E+02  0.18019204420E+03  0.20976117325E+03  0.30000000000E+02 0.  1.
    -200000    1    3    3    0    0  0.63049740595E+02  0.70088628959E+02 -0.22084294559E+03  0.26050008122E+03  0.10100000000E+03 0. -1.
<mgrwt>
<rscale>  0 0.14809733E+04</rscale>
<asrwt>0</asrwt>
<pdfrwt beam="1">  1        2 0.18185242E+00 0.14809733E+04</pdfrwt>
<pdfrwt beam="2">  1       -2 0.61534590E-01 0.14809733E+04</pdfrwt>
<totfact> 0.46233389E+01</totfact>
</mgrwt>
</event>
<event>
 8    2  0.7237260E-052  0.1517298E+04  0.7818608E-02  0.8873031E-01
          2   -1    0    0  501    0  0.00000000000E+00  0.00000000000E+00  0.25814328091E+04  0.25814328091E+04  0.25500000000E-02 0.  1.
         -2   -1    0    0    0  501 -0.00000000000E+00 -0.00000000000E+00 -0.22295681160E+03  0.22295681162E+03  0.25500000000E-02 0. -1.
    -200001    2    1    2    0    0 -0.91290010935E+02  0.32656228655E+03  0.17148223935E+04  0.18530559490E+04  0.61499895578E+03 0.  0.
   -5000001    2    3    3    0    0 -0.79837687661E+02 -0.12978332385E+03  0.17000582592E+03  0.23904179186E+03  0.70860637068E+02 0.  0.
     200001    1    1    2    0    0  0.91290010935E+02 -0.32656228655E+03  0.64365360399E+03  0.95133367176E+03  0.61300000000E+03 0. -1.
         11    1    4    4    0    0 -0.69051623905E+02 -0.60881630063E+02  0.96520191492E+02  0.13338233395E+03  0.51100000000E-03 0.  1.
    -200002    1    4    4    0    0 -0.10786063756E+02 -0.68901693792E+02  0.73485634432E+02  0.10565945791E+03  0.30000000000E+02 0.  1.
    -200000    1    3    3    0    0 -0.11452323274E+02  0.45634561040E+03  0.15448165676E+04  0.16140141571E+04  0.10100000000E+03 0.  1.
<mgrwt>
<rscale>  0 0.15172976E+04</rscale>
<asrwt>0</asrwt>
<pdfrwt beam="1">  1        2 0.36877610E+00 0.15172976E+04</pdfrwt>
<pdfrwt beam="2">  1       -2 0.31850974E-01 0.15172976E+04</pdfrwt>
<totfact> 0.35410955E+01</totfact>
</mgrwt>
</event>
<event>
 8    2  0.7237260E-052  0.1565234E+04  0.7818608E-02  0.8842195E-01
         -2   -1    0    0    0  501 -0.00000000000E+00  0.00000000000E+00  0.41792272420E+03  0.41792272421E+03  0.25500000000E-02 0. -1.
          2   -1    0    0  501    0  0.00000000000E+00 -0.00000000000E+00 -0.14655569261E+04  0.14655569261E+04  0.25500000000E-02 0.  1.
    -200001    2    1    2    0    0 -0.28509867349E+03 -0.11837654589E+03 -0.72666734270E+02  0.69116055580E+03  0.61410764478E+03 0.  0.
   -5000001    2    3    3    0    0 -0.42569600562E+02 -0.32725903412E+03 -0.97161157180E+02  0.35462939549E+03  0.86087579665E+02 0.  0.
     200001    1    1    2    0    0  0.28509867349E+03  0.11837654589E+03 -0.97496746766E+03  0.11923190946E+04  0.61300000000E+03 0.  1.
         11    1    4    4    0    0 -0.33321957999E+02 -0.39880531671E+02 -0.14338000202E+02  0.53910925991E+02  0.51100000000E-03 0.  1.
    -200002    1    4    4    0    0 -0.92476425636E+01 -0.28737850245E+03 -0.82823156979E+02  0.30071846949E+03  0.30000000000E+02 0.  1.
    -200000    1    3    3    0    0 -0.24252907293E+03  0.20888248823E+03  0.24494422911E+02  0.33653116031E+03  0.10100000000E+03 0. -1.
<mgrwt>
<rscale>  0 0.15652342E+04</rscale>
<asrwt>0</asrwt>
<pdfrwt beam="1">  1        2 0.20936527E+00 0.15652342E+04</pdfrwt>
<pdfrwt beam="2">  1       -2 0.59703247E-01 0.15652342E+04</pdfrwt>
<totfact> 0.38448350E+01</totfact>
</mgrwt>
</event>
<event>
 8    2  0.7237260E-052  0.2538471E+04  0.7818608E-02  0.8389407E-01
          2   -1    0    0  501    0  0.00000000000E+00  0.00000000000E+00  0.33228045185E+04  0.33228045185E+04  0.25500000000E-02 0.  1.
         -2   -1    0    0    0  501 -0.00000000000E+00 -0.00000000000E+00 -0.48481914674E+03  0.48481914675E+03  0.25500000000E-02 0. -1.
    -200001    2    1    2    0    0  0.86333550176E+03  0.24996773095E+03  0.23997049125E+04  0.26347251973E+04  0.61266723697E+03 0.  0.
   -5000001    2    3    3    0    0  0.60196315409E+03 -0.33577772977E+02  0.16812241746E+04  0.18130627803E+04  0.31176082837E+03 0.  0.
     200001    1    1    2    0    0 -0.86333550176E+03 -0.24996773095E+03  0.43828045929E+03  0.11728984679E+04  0.61300000000E+03 0. -1.
         11    1    4    4    0    0 -0.20888236883E+02 -0.30058894762E+02  0.27825569506E+02  0.45979537981E+02  0.51100000000E-03 0.  1.
    -200002    1    4    4    0    0  0.62285139097E+03 -0.35188782156E+01  0.16533986051E+04  0.17670832423E+04  0.30000000000E+02 0.  1.
    -200000    1    3    3    0    0  0.26137234767E+03  0.28354550392E+03  0.71848073784E+03  0.82166241703E+03  0.10100000000E+03 0.  1.
<mgrwt>
<rscale>  0 0.25384714E+04</rscale>
<asrwt>0</asrwt>
<pdfrwt beam="1">  1        2 0.47468636E+00 0.25384714E+04</pdfrwt>
<pdfrwt beam="2">  1       -2 0.69259877E-01 0.25384714E+04</pdfrwt>
<totfact> 0.26138514E+00</totfact>
</mgrwt>
</event>
<event>
 8    2  0.7237260E-052  0.1430322E+04  0.7818608E-02  0.8932158E-01
         -2   -1    0    0    0  501 -0.00000000000E+00  0.00000000000E+00  0.19299232349E+03  0.19299232351E+03  0.25500000000E-02 0. -1.
          2   -1    0    0  501    0  0.00000000000E+00 -0.00000000000E+00 -0.26501315328E+04  0.26501315328E+04  0.25500000000E-02 0.  1.
    -200001    2    1    2    0    0  0.32235796565E+03 -0.12468247707E+03 -0.97690395981E+03  0.12041224006E+04  0.61327728699E+03 0.  0.
   -5000001    2    3    3    0    0  0.15271551564E+03 -0.24064751078E+02 -0.96674107714E+03  0.98229640611E+03  0.80104795575E+02 0.  0.
     200001    1    1    2    0    0 -0.32235796565E+03  0.12468247707E+03 -0.14802352495E+04  0.16390014557E+04  0.61300000000E+03 0.  1.
         11    1    4    4    0    0  0.55396700177E+02 -0.28946164734E+02 -0.22278792981E+03  0.23138957736E+03  0.51100000000E-03 0.  1.
    -200002    1    4    4    0    0  0.97318815464E+02  0.48814136558E+01 -0.74395314733E+03  0.75090682875E+03  0.30000000000E+02 0. -1.
    -200000    1    3    3    0    0  0.16964245001E+03 -0.10061772600E+03 -0.10162882674E+02  0.22182599445E+03  0.10100000000E+03 0. -1.
<mgrwt>
<rscale>  0 0.14303217E+04</rscale>
<asrwt>0</asrwt>
<pdfrwt beam="1">  1        2 0.37859020E+00 0.14303217E+04</pdfrwt>
<pdfrwt beam="2">  1       -2 0.27570334E-01 0.14303217E+04</pdfrwt>
<totfact> 0.42897811E+01</totfact>
</mgrwt>
</event>
<event>
 8    2  0.7237260E-052  0.1289108E+04  0.7818608E-02  0.9038248E-01
          2   -1    0    0  501    0  0.00000000000E+00  0.00000000000E+00  0.28299738630E+04  0.28299738630E+04  0.25500000000E-02 0.  1.
         -2   -1    0    0    0  501 -0.00000000000E+00 -0.00000000000E+00 -0.14680340746E+03  0.14680340748E+03  0.25500000000E-02 0. -1.
    -200001    2    1    2    0    0 -0.26456047694E+02  0.13056424557E+03  0.99905791017E+03  0.11796264671E+04  0.61290696628E+03 0.  0.
   -5000001    2    3    3    0    0 -0.15943914100E+03 -0.14548472930E+03  0.15028810300E+03  0.27160734549E+03  0.67804056513E+02 0.  0.
     200001    1    1    2    0    0  0.26456047694E+02 -0.13056424557E+03  0.16841125454E+04  0.17971508034E+04  0.61300000000E+03 0.  1.
         11    1    4    4    0    0 -0.90599230206E+02 -0.55698323383E+02  0.93056649143E+02  0.14131547577E+03  0.51100000000E-03 0.  1.
    -200002    1    4    4    0    0 -0.68839910793E+02 -0.89786405916E+02  0.57231453858E+02  0.13029186972E+03  0.30000000000E+02 0.  1.
    -200000    1    3    3    0    0  0.13298309331E+03  0.27604897487E+03  0.84876980717E+03  0.90801912160E+03  0.10100000000E+03 0.  1.
<mgrwt>
<rscale>  0 0.12891079E+04</rscale>
<asrwt>0</asrwt>
<pdfrwt beam="1">  1        2 0.40428197E+00 0.12891079E+04</pdfrwt>
<pdfrwt beam="2">  1       -2 0.20971916E-01 0.12891079E+04</pdfrwt>
<totfact> 0.56913745E+01</totfact>
</mgrwt>
</event>
<event>
 8    2  0.7237260E-052  0.1430592E+04  0.7818608E-02  0.8931968E-01
         -2   -1    0    0    0  501 -0.00000000000E+00  0.00000000000E+00  0.50209200918E+03  0.50209200919E+03  0.25500000000E-02 0. -1.
          2   -1    0    0  501    0  0.00000000000E+00 -0.00000000000E+00 -0.10190324371E+04  0.10190324371E+04  0.25500000000E-02 0.  1.
    -200001    2    1    2    0    0 -0.14156950602E+03  0.25344357131E+02  0.10246614661E+03  0.63788169027E+03  0.61295144841E+03 0.  0.
   -5000001    2    3    3    0    0 -0.42193924097E+02  0.66161652094E+02  0.34036812353E+03  0.35798901715E+03  0.78409090324E+02 0.  0.
     200001    1    1    2    0    0  0.14156950602E+03 -0.25344357131E+02 -0.61940657452E+03  0.88324275601E+03  0.61300000000E+03 0.  1.
         11    1    4    4    0    0 -0.31933169084E+02  0.70387504327E+02  0.21056358912E+03  0.22430147818E+03  0.51100000000E-03 0.  1.
    -200002    1    4    4    0    0 -0.10260755013E+02 -0.42258522331E+01  0.12980453441E+03  0.13368753896E+03  0.30000000000E+02 0. -1.
    -200000    1    3    3    0    0 -0.99375581923E+02 -0.40817294963E+02 -0.23790197692E+03  0.27989267313E+03  0.10100000000E+03 0.  1.
<mgrwt>
<rscale>  0 0.14305915E+04</rscale>
<asrwt>0</asrwt>
<pdfrwt beam="1">  1        2 0.14557606E+00 0.14305915E+04</pdfrwt>
<pdfrwt beam="2">  1       -2 0.71727430E-01 0.14305915E+04</pdfrwt>
<totfact> 0.46862069E+01</totfact>
</mgrwt>
</event>
<event>
 8    2  0.7237260E-052  0.1322785E+04  0.7818608E-02  0.9011689E-01
         -2   -1    0    0    0  501 -0.00000000000E+00  0.00000000000E+00  0.12288239554E+03  0.12288239556E+03  0.25500000000E-02 0. -1.
          2   -1    0    0  501    0  0.00000000000E+00 -0.00000000000E+00 -0.35598281903E+04  0.35598281903E+04  0.25500000000E-02 0.  1.
    -200001    2    1    2    0    0  0.20325403845E+03 -0.56598423799E+02 -0.20830872416E+04  0.21816384465E+04  0.61300756051E+03 0.  0.
   -5000001    2    3    3    0    0  0.30567651637E+03 -0.21566307689E+03 -0.17048639933E+04  0.17468445259E+04  0.70397914969E+02 0.  0.
     200001    1    1    2    0    0 -0.20325403845E+03  0.56598423799E+02 -0.13538585532E+04  0.15010721394E+04  0.61300000000E+03 0. -1.
         11    1    4    4    0    0  0.61908304421E+02 -0.19907431194E+02 -0.35671916576E+03  0.36259827246E+03  0.51100000000E-03 0.  1.
    -200002    1    4    4    0    0  0.24376821195E+03 -0.19575564569E+03 -0.13481448276E+04  0.13842462534E+04  0.30000000000E+02 0.  1.
    -200000    1    3    3    0    0 -0.10242247793E+03  0.15906465309E+03 -0.37822324826E+03  0.43479392058E+03  0.10100000000E+03 0.  1.
<mgrwt>
<rscale>  0 0.13227853E+04</rscale>
<asrwt>0</asrwt>
<pdfrwt beam="1">  1        2 0.50854682E+00 0.13227853E+04</pdfrwt>
<pdfrwt beam="2">  1       -2 0.17554630E-01 0.13227853E+04</pdfrwt>
<totfact> 0.29506927E+01</totfact>
</mgrwt>
</event>
<event>
 8    2  0.7237260E-052  0.1253332E+04  0.7818608E-02  0.9067415E-01
          2   -1    0    0  501    0  0.00000000000E+00  0.00000000000E+00  0.10579462319E+04  0.10579462319E+04  0.25500000000E-02 0.  1.
         -2   -1    0    0    0  501 -0.00000000000E+00 -0.00000000000E+00 -0.37120058505E+03  0.37120058506E+03  0.25500000000E-02 0. -1.
    -200001    2    1    2    0    0 -0.79505154171E+02  0.10448214649E+03  0.32987942460E+03  0.70778692823E+03  0.61229430221E+03 0.  0.
   -5000001    2    3    3    0    0 -0.26764641910E+02 -0.29081877257E+02  0.46893558438E+03  0.48382593688E+03  0.11236037227E+03 0.  0.
     200001    1    1    2    0    0  0.79505154171E+02 -0.10448214649E+03  0.35686622224E+03  0.72135988872E+03  0.61300000000E+03 0.  1.
         11    1    4    4    0    0 -0.59582309623E+02 -0.41705126192E+02  0.27434463287E+03  0.28382097660E+03  0.51100000000E-03 0.  1.
    -200002    1    4    4    0    0  0.32817667712E+02  0.12623248935E+02  0.19459095151E+03  0.20000496028E+03  0.30000000000E+02 0.  1.
    -200000    1    3    3    0    0 -0.52740512261E+02  0.13356402375E+03 -0.13905615978E+03  0.22396099135E+03  0.10100000000E+03 0. -1.
<mgrwt>
<rscale>  0 0.12533320E+04</rscale>
<asrwt>0</asrwt>
<pdfrwt beam="1">  1        2 0.15113518E+00 0.12533320E+04</pdfrwt>
<pdfrwt beam="2">  1       -2 0.53028654E-01 0.12533320E+04</pdfrwt>
<totfact> 0.85395640E+01</totfact>
</mgrwt>
</event>
<event>
 8    2  0.7237260E-052  0.1459966E+04  0.7818608E-02  0.8911520E-01
         -2   -1    0    0    0  501 -0.00000000000E+00  0.00000000000E+00  0.43908002954E+03  0.43908002955E+03  0.25500000000E-02 0.  1.
          2   -1    0    0  501    0  0.00000000000E+00 -0.00000000000E+00 -0.12136173934E+04  0.12136173934E+04  0.25500000000E-02 0. -1.
    -200001    2    1    2    0    0  0.29197673226E+03  0.43817967220E+02 -0.68701010716E+03  0.96669418160E+03  0.61265351299E+03 0.  0.
   -5000001    2    3    3    0    0 -0.10657035384E+03  0.17307528274E+03 -0.37761023105E+03  0.43615057662E+03  0.79533295407E+02 0.  0.
     200001    1    1    2    0    0 -0.29197673226E+03 -0.43817967220E+02 -0.87527256667E+02  0.68600324131E+03  0.61300000000E+03 0.  1.
         11    1    4    4    0    0 -0.26695994916E+02  0.94719945067E+02 -0.13253298874E+03  0.16507433853E+03  0.51100000000E-03 0.  1.
    -200002    1    4    4    0    0 -0.79874358923E+02  0.78355337672E+02 -0.24507724231E+03  0.27107623809E+03  0.30000000000E+02 0.  1.
    -200000    1    3    3    0    0  0.39854708610E+03 -0.12925731552E+03 -0.30939987611E+03  0.53054360499E+03  0.10100000000E+03 0.  1.
<mgrwt>
<rscale>  0 0.14599660E+04</rscale>
<asrwt>0</asrwt>
<pdfrwt beam="1">  1        2 0.17337391E+00 0.14599660E+04</pdfrwt>
<pdfrwt beam="2">  1       -2 0.62725719E-01 0.14599660E+04</pdfrwt>
<totfact> 0.48009330E+01</totfact>
</mgrwt>
</event>
<event>
 8    2  0.7237260E-052  0.1777770E+04  0.7818608E-02  0.8718211E-01
         -2   -1    0    0    0  501 -0.00000000000E+00  0.00000000000E+00  0.31672158651E+03  0.31672158652E+03  0.25500000000E-02 0. -1.
          2   -1    0    0  501    0  0.00000000000E+00 -0.00000000000E+00 -0.24946718351E+04  0.24946718351E+04  0.25500000000E-02 0.  1.
    -200001    2    1    2    0    0  0.57192271173E+03  0.28256236789E+03 -0.95437606734E+03  0.13014795642E+04  0.61325223039E+03 0.  0.
   -5000001    2    3    3    0    0  0.60389828655E+03  0.21535830755E+03 -0.46123610210E+03  0.79263101260E+03  0.66729596978E+02 0.  0.
     200001    1    1    2    0    0 -0.57192271173E+03 -0.28256236789E+03 -0.12235741812E+04  0.15099138574E+04  0.61300000000E+03 0. -1.
         11    1    4    4    0    0  0.26788590997E+03  0.68391869080E+02 -0.18910023151E+03  0.33496149939E+03  0.51100000000E-03 0.  1.
    -200002    1    4    4    0    0  0.33601237658E+03  0.14696643847E+03 -0.27213587059E+03  0.45766951321E+03  0.30000000000E+02 0.  1.
    -200000    1    3    3    0    0 -0.31975574828E+02  0.67204060340E+02 -0.49313996524E+03  0.50884855157E+03  0.10100000000E+03 0. -1.
<mgrwt>
<rscale>  0 0.17777699E+04</rscale>
<asrwt>0</asrwt>
<pdfrwt beam="1">  1        2 0.35638168E+00 0.17777699E+04</pdfrwt>
<pdfrwt beam="2">  1       -2 0.45245942E-01 0.17777699E+04</pdfrwt>
<totfact> 0.19499143E+01</totfact>
</mgrwt>
</event>
<event>
 8    2  0.7237260E-052  0.1552124E+04  0.7818608E-02  0.8850512E-01
         -2   -1    0    0    0  501 -0.00000000000E+00  0.00000000000E+00  0.90689507740E+03  0.90689507741E+03  0.25500000000E-02 0. -1.
          2   -1    0    0  501    0  0.00000000000E+00 -0.00000000000E+00 -0.66410364087E+03  0.66410364088E+03  0.25500000000E-02 0.  1.
    -200001    2    1    2    0    0  0.22332837847E+03  0.87948990504E+02 -0.29509371756E+03  0.72088106257E+03  0.61235497440E+03 0.  0.
   -5000001    2    3    3    0    0  0.29425408463E+03 -0.13892944121E+03 -0.21989847855E+03  0.45188366009E+03  0.22350983296E+03 0.  0.
     200001    1    1    2    0    0 -0.22332837847E+03 -0.87948990504E+02  0.53788515409E+03  0.85011765571E+03  0.61300000000E+03 0. -1.
         11    1    4    4    0    0  0.34936240017E+02 -0.36228412437E+02 -0.15635224569E+03  0.16425304705E+03  0.51100000000E-03 0.  1.
    -200002    1    4    4    0    0  0.25931784461E+03 -0.10270102877E+03 -0.63546232865E+02  0.28763061304E+03  0.30000000000E+02 0.  1.
    -200000    1    3    3    0    0 -0.70925706162E+02  0.22687843171E+03 -0.75195239011E+02  0.26899740248E+03  0.10100000000E+03 0.  1.
<mgrwt>
<rscale>  0 0.15521241E+04</rscale>
<asrwt>0</asrwt>
<pdfrwt beam="1">  1        2 0.94871948E-01 0.15521241E+04</pdfrwt>
<pdfrwt beam="2">  1       -2 0.12955644E+00 0.15521241E+04</pdfrwt>
<totfact> 0.20284015E+01</totfact>
</mgrwt>
</event>
<event>
 8    2  0.7237260E-052  0.1666618E+04  0.7818608E-02  0.8780635E-01
          2   -1    0    0  501    0  0.00000000000E+00  0.00000000000E+00  0.10760867720E+04  0.10760867720E+04  0.25500000000E-02 0.  1.
         -2   -1    0    0    0  501 -0.00000000000E+00 -0.00000000000E+00 -0.64530507431E+03  0.64530507432E+03  0.25500000000E-02 0. -1.
    -200001    2    1    2    0    0  0.51184631236E+03 -0.22003952618E+03  0.31106622019E+03  0.88443017688E+03  0.61241367056E+03 0.  0.
   -5000001    2    3    3    0    0  0.58076425837E+03 -0.19068820143E+03  0.39451669120E+03  0.73351243552E+03  0.93530526935E+02 0.  0.
     200001    1    1    2    0    0 -0.51184631236E+03  0.22003952618E+03  0.11971547750E+03  0.83696166944E+03  0.61300000000E+03 0.  1.
         11    1    4    4    0    0  0.32186397378E+03 -0.80128112268E+02  0.25195873097E+03  0.41653347297E+03  0.51100000000E-03 0.  1.
    -200002    1    4    4    0    0  0.25890028459E+03 -0.11056008916E+03  0.14255796022E+03  0.31697896255E+03  0.30000000000E+02 0.  1.
    -200000    1    3    3    0    0 -0.68917946012E+02 -0.29351324750E+02 -0.83450471008E+02  0.15091774136E+03  0.10100000000E+03 0.  1.
<mgrwt>
<rscale>  0 0.16666184E+04</rscale>
<asrwt>0</asrwt>
<pdfrwt beam="1">  1        2 0.15372668E+00 0.16666184E+04</pdfrwt>
<pdfrwt beam="2">  1       -2 0.92186439E-01 0.16666184E+04</pdfrwt>
<totfact> 0.24143322E+01</totfact>
</mgrwt>
</event>
<event>
 8    2  0.7237260E-052  0.1399678E+04  0.7818608E-02  0.8954051E-01
         -2   -1    0    0    0  501 -0.00000000000E+00  0.00000000000E+00  0.12649837479E+04  0.12649837479E+04  0.25500000000E-02 0. -1.
          2   -1    0    0  501    0  0.00000000000E+00 -0.00000000000E+00 -0.38717874709E+03  0.38717874710E+03  0.25500000000E-02 0.  1.
    -200001    2    1    2    0    0  0.26628615139E+03  0.16429247773E+03  0.54566052730E+03  0.88797057935E+03  0.62677428638E+03 0.  0.
   -5000001    2    3    3    0    0  0.41356640556E+03  0.25494444795E+03  0.34356760436E+03  0.60345027695E+03  0.10039768242E+03 0.  0.
     200001    1    1    2    0    0 -0.26628615139E+03 -0.16429247773E+03  0.33214447349E+03  0.76419191564E+03  0.61300000000E+03 0. -1.
         11    1    4    4    0    0  0.20115259502E+03  0.80363831823E+02  0.18349737563E+03  0.28388729949E+03  0.51100000000E-03 0.  1.
    -200002    1    4    4    0    0  0.21241381054E+03  0.17458061613E+03  0.16007022873E+03  0.31956297746E+03  0.30000000000E+02 0.  1.
    -200000    1    3    3    0    0 -0.14728025417E+03 -0.90651970221E+02  0.20209292294E+03  0.28452030239E+03  0.10100000000E+03 0.  1.
<mgrwt>
<rscale>  0 0.13996783E+04</rscale>
<asrwt>0</asrwt>
<pdfrwt beam="1">  1        2 0.55311248E-01 0.13996783E+04</pdfrwt>
<pdfrwt beam="2">  1       -2 0.18071197E+00 0.13996783E+04</pdfrwt>
<totfact> 0.15662121E+01</totfact>
</mgrwt>
</event>
<event>
 8    2  0.7237260E-052  0.1497165E+04  0.7818608E-02  0.8886340E-01
          2   -1    0    0  501    0  0.00000000000E+00  0.00000000000E+00  0.20693989521E+04  0.20693989521E+04  0.25500000000E-02 0.  1.
         -2   -1    0    0    0  501 -0.00000000000E+00 -0.00000000000E+00 -0.27079148079E+03  0.27079148080E+03  0.25500000000E-02 0. -1.
    -200001    2    1    2    0    0 -0.33667662621E+03 -0.47887684256E+02  0.13100043617E+04  0.14857044004E+04  0.61283093661E+03 0.  0.
   -5000001    2    3    3    0    0 -0.26081143256E+03  0.24156651119E+03  0.88535113490E+03  0.95648741101E+03  0.68150954987E+02 0.  0.
     200001    1    1    2    0    0  0.33667662621E+03  0.47887684256E+02  0.48860310958E+03  0.85448603244E+03  0.61300000000E+03 0.  1.
         11    1    4    4    0    0 -0.58669917629E+02  0.87754538817E+02  0.28508729051E+03  0.30400293013E+03  0.51100000000E-03 0.  1.
    -200002    1    4    4    0    0 -0.20214151493E+03  0.15381197237E+03  0.60026384439E+03  0.65248448088E+03  0.30000000000E+02 0.  1.
    -200000    1    3    3    0    0 -0.75865193652E+02 -0.28945419544E+03  0.42465322679E+03  0.52921698942E+03  0.10100000000E+03 0.  1.
<mgrwt>
<rscale>  0 0.14971648E+04</rscale>
<asrwt>0</asrwt>
<pdfrwt beam="1">  1        2 0.29562842E+00 0.14971648E+04</pdfrwt>
<pdfrwt beam="2">  1       -2 0.38684497E-01 0.14971648E+04</pdfrwt>
<totfact> 0.45147998E+01</totfact>
</mgrwt>
</event>
<event>
 8    2  0.7237260E-052  0.1601099E+04  0.7818608E-02  0.8819873E-01
          2   -1    0    0  501    0  0.00000000000E+00  0.00000000000E+00  0.17200148247E+04  0.17200148248E+04  0.25500000000E-02 0.  1.
         -2   -1    0    0    0  501 -0.00000000000E+00 -0.00000000000E+00 -0.37260118620E+03  0.37260118621E+03  0.25500000000E-02 0. -1.
    -200001    2    1    2    0    0 -0.49209958681E+03  0.50694563740E+02  0.48939386615E+03  0.92784183887E+03  0.61371995210E+03 0.  0.
   -5000001    2    3    3    0    0 -0.20976038935E+03  0.30638471033E+03  0.26599768420E+03  0.47485207343E+03  0.12984110281E+03 0.  0.
     200001    1    1    2    0    0  0.49209958681E+03 -0.50694563740E+02  0.85801977240E+03  0.11647741721E+04  0.61300000000E+03 0.  1.
         11    1    4    4    0    0 -0.96680677735E+02  0.76780907720E+02  0.14418400035E+03  0.18981961751E+03  0.51100000000E-03 0.  1.
    -200002    1    4    4    0    0 -0.11307971161E+03  0.22960380261E+03  0.12181368385E+03  0.28503245591E+03  0.30000000000E+02 0.  1.
    -200000    1    3    3    0    0 -0.28233919746E+03 -0.25569014659E+03  0.22339618195E+03  0.45298976544E+03  0.10100000000E+03 0.  1.
<mgrwt>
<rscale>  0 0.16010991E+04</rscale>
<asrwt>0</asrwt>
<pdfrwt beam="1">  1        2 0.24571641E+00 0.16010991E+04</pdfrwt>
<pdfrwt beam="2">  1       -2 0.53228741E-01 0.16010991E+04</pdfrwt>
<totfact> 0.35793762E+01</totfact>
</mgrwt>
</event>
<event>
 8    2  0.7237260E-052  0.1548805E+04  0.7818608E-02  0.8852631E-01
          2   -1    0    0  501    0  0.00000000000E+00  0.00000000000E+00  0.37623432513E+04  0.37623432513E+04  0.25500000000E-02 0.  1.
         -2   -1    0    0    0  501 -0.00000000000E+00 -0.00000000000E+00 -0.15939515300E+03  0.15939515302E+03  0.25500000000E-02 0. -1.
    -200001    2    1    2    0    0 -0.25961513505E+03 -0.36331010096E+03  0.21966393600E+04  0.23239688605E+04  0.61336167044E+03 0.  0.
   -5000001    2    3    3    0    0 -0.37111410500E+02 -0.39644193239E+03  0.18758757884E+04  0.19193753675E+04  0.80921970516E+02 0.  0.
     200001    1    1    2    0    0  0.25961513505E+03  0.36331010096E+03  0.14063087384E+04  0.15977695439E+04  0.61300000000E+03 0. -1.
         11    1    4    4    0    0  0.17241445180E+02 -0.29906784900E+02  0.16691141475E+03  0.17044384292E+03  0.51100000000E-03 0.  1.
    -200002    1    4    4    0    0 -0.54352855679E+02 -0.36653514749E+03  0.17089643737E+04  0.17489315246E+04  0.30000000000E+02 0.  1.
    -200000    1    3    3    0    0 -0.22250372455E+03  0.33131831427E+02  0.32076357158E+03  0.40459349296E+03  0.10100000000E+03 0. -1.
<mgrwt>
<rscale>  0 0.15488051E+04</rscale>
<asrwt>0</asrwt>
<pdfrwt beam="1">  1        2 0.53747764E+00 0.15488051E+04</pdfrwt>
<pdfrwt beam="2">  1       -2 0.22770735E-01 0.15488051E+04</pdfrwt>
<totfact> 0.13618316E+01</totfact>
</mgrwt>
</event>
<event>
 8    2  0.7237260E-052  0.1280197E+04  0.7818608E-02  0.9045418E-01
          2   -1    0    0  501    0  0.00000000000E+00  0.00000000000E+00  0.61030319000E+03  0.61030319000E+03  0.25500000000E-02 0.  1.
         -2   -1    0    0    0  501 -0.00000000000E+00 -0.00000000000E+00 -0.67134814299E+03  0.67134814299E+03  0.25500000000E-02 0. -1.
    -200001    2    1    2    0    0  0.17355999160E+03  0.29924159834E+02 -0.92565554875E+02  0.64307394977E+03  0.61152039778E+03 0.  0.
   -5000001    2    3    3    0    0  0.23770954676E+03  0.50605838097E+02  0.20277344850E+03  0.32374805956E+03  0.68036425375E+02 0.  0.
     200001    1    1    2    0    0 -0.17355999160E+03 -0.29924159834E+02  0.31520601885E+02  0.63857738323E+03  0.61300000000E+03 0.  1.
         11    1    4    4    0    0  0.12839608430E+03  0.30899667254E+02  0.14088616726E+03  0.19310426206E+03  0.51100000000E-03 0.  1.
    -200002    1    4    4    0    0  0.10931346246E+03  0.19706170844E+02  0.61887281243E+02  0.13064379750E+03  0.30000000000E+02 0.  1.
    -200000    1    3    3    0    0 -0.64149555159E+02 -0.20681678263E+02 -0.29533900338E+03  0.31932589021E+03  0.10100000000E+03 0.  1.
<mgrwt>
<rscale>  0 0.12801967E+04</rscale>
<asrwt>0</asrwt>
<pdfrwt beam="1">  1        2 0.87186171E-01 0.12801967E+04</pdfrwt>
<pdfrwt beam="2">  1       -2 0.95906877E-01 0.12801967E+04</pdfrwt>
<totfact> 0.47642548E+01</totfact>
</mgrwt>
</event>
<event>
 8    2  0.7237260E-052  0.1332348E+04  0.7818608E-02  0.9004299E-01
          2   -1    0    0  501    0  0.00000000000E+00  0.00000000000E+00  0.37880820624E+04  0.37880820624E+04  0.25500000000E-02 0.  1.
         -2   -1    0    0    0  501 -0.00000000000E+00 -0.00000000000E+00 -0.11715370731E+03  0.11715370734E+03  0.25500000000E-02 0. -1.
    -200001    2    1    2    0    0  0.24496279993E+03 -0.31364949330E+02  0.15825323393E+04  0.17147660822E+04  0.61239168694E+03 0.  0.
   -5000001    2    3    3    0    0  0.35334187858E+03 -0.93654558012E+02  0.14716294831E+04  0.15195060925E+04  0.97896732866E+02 0.  0.
     200001    1    1    2    0    0 -0.24496279993E+03  0.31364949330E+02  0.20883960158E+04  0.21904696876E+04  0.61300000000E+03 0.  1.
         11    1    4    4    0    0  0.24483410433E+03 -0.65424915220E+02  0.11495314519E+04  0.11771349613E+04  0.51100000000E-03 0.  1.
    -200002    1    4    4    0    0  0.10850777425E+03 -0.28229642792E+02  0.32209803119E+03  0.34237113123E+03  0.30000000000E+02 0.  1.
    -200000    1    3    3    0    0 -0.10837907865E+03  0.62289608682E+02  0.11090285619E+03  0.19525998963E+03  0.10100000000E+03 0. -1.
<mgrwt>
<rscale>  0 0.13323481E+04</rscale>
<asrwt>0</asrwt>
<pdfrwt beam="1">  1        2 0.54115467E+00 0.13323481E+04</pdfrwt>
<pdfrwt beam="2">  1       -2 0.16736241E-01 0.13323481E+04</pdfrwt>
<totfact> 0.23003092E+01</totfact>
</mgrwt>
</event>
<event>
 8    2  0.7237260E-052  0.2289494E+04  0.7818608E-02  0.8482075E-01
          2   -1    0    0  501    0  0.00000000000E+00  0.00000000000E+00  0.44221465597E+04  0.44221465597E+04  0.25500000000E-02 0.  1.
         -2   -1    0    0    0  501 -0.00000000000E+00 -0.00000000000E+00 -0.29633691323E+03  0.29633691325E+03  0.25500000000E-02 0. -1.
    -200001    2    1    2    0    0  0.62369177568E+03  0.73489586248E+03  0.22124772467E+04  0.24901044137E+04  0.61359682546E+03 0.  0.
   -5000001    2    3    3    0    0  0.49958432769E+03  0.66421900235E+03  0.21452698249E+04  0.23027125388E+04  0.97627001585E+02 0.  0.
     200001    1    1    2    0    0 -0.62369177568E+03 -0.73489586248E+03  0.19133323999E+04  0.22283790593E+04  0.61300000000E+03 0. -1.
         11    1    4    4    0    0  0.12346558928E+03  0.22656569975E+03  0.71444249043E+03  0.75960768833E+03  0.51100000000E-03 0.  1.
    -200002    1    4    4    0    0  0.37611873840E+03  0.43765330260E+03  0.14308273345E+04  0.15431048505E+04  0.30000000000E+02 0.  1.
    -200000    1    3    3    0    0  0.12410744799E+03  0.70676860131E+02  0.67207421769E+02  0.18739187481E+03  0.10100000000E+03 0. -1.
<mgrwt>
<rscale>  0 0.22894936E+04</rscale>
<asrwt>0</asrwt>
<pdfrwt beam="1">  1        2 0.63173521E+00 0.22894936E+04</pdfrwt>
<pdfrwt beam="2">  1       -2 0.42333846E-01 0.22894936E+04</pdfrwt>
<totfact> 0.13554119E+00</totfact>
</mgrwt>
</event>
<event>
 8    2  0.7237260E-052  0.1358672E+04  0.7818608E-02  0.8984289E-01
          2   -1    0    0  501    0  0.00000000000E+00  0.00000000000E+00  0.25750308516E+04  0.25750308516E+04  0.25500000000E-02 0.  1.
         -2   -1    0    0    0  501 -0.00000000000E+00 -0.00000000000E+00 -0.17922020638E+03  0.17922020640E+03  0.25500000000E-02 0. -1.
    -200001    2    1    2    0    0  0.12513282487E+03  0.95754765430E+02  0.16991840113E+04  0.18130364884E+04  0.61241146707E+03 0.  0.
   -5000001    2    3    3    0    0  0.33835499367E+03  0.11457104700E+03  0.12778723676E+04  0.13297950924E+04  0.88241561796E+02 0.  0.
     200001    1    1    2    0    0 -0.12513282487E+03 -0.95754765430E+02  0.69662663392E+03  0.94121456961E+03  0.61300000000E+03 0. -1.
         11    1    4    4    0    0  0.70335720305E+02  0.49416007535E+01  0.36073625130E+03  0.36756247901E+03  0.51100000000E-03 0.  1.
    -200002    1    4    4    0    0  0.26801927336E+03  0.10962944624E+03  0.91713611631E+03  0.96223261336E+03  0.30000000000E+02 0.  1.
    -200000    1    3    3    0    0 -0.21322216880E+03 -0.18816281568E+02  0.42131164369E+03  0.48324139602E+03  0.10100000000E+03 0. -1.
<mgrwt>
<rscale>  0 0.13586722E+04</rscale>
<asrwt>0</asrwt>
<pdfrwt beam="1">  1        2 0.36786155E+00 0.13586722E+04</pdfrwt>
<pdfrwt beam="2">  1       -2 0.25602886E-01 0.13586722E+04</pdfrwt>
<totfact> 0.54154528E+01</totfact>
</mgrwt>
</event>
<event>
 8    2  0.7237260E-052  0.2190698E+04  0.7818608E-02  0.8522310E-01
          2   -1    0    0  501    0  0.00000000000E+00  0.00000000000E+00  0.17606432342E+04  0.17606432342E+04  0.25500000000E-02 0.  1.
         -2   -1    0    0    0  501 -0.00000000000E+00 -0.00000000000E+00 -0.68144975948E+03  0.68144975949E+03  0.25500000000E-02 0. -1.
    -200001    2    1    2    0    0 -0.54472073591E+03 -0.34305039639E+03 -0.17393247014E+03  0.90570180384E+03  0.61289395389E+03 0.  0.
   -5000001    2    3    3    0    0 -0.45961880688E+03 -0.38765362307E+03 -0.33144399115E+03  0.69536239858E+03  0.11022235245E+03 0.  0.
     200001    1    1    2    0    0  0.54472073591E+03  0.34305039639E+03  0.12531259449E+04  0.15363911899E+04  0.61300000000E+03 0. -1.
         11    1    4    4    0    0 -0.26742126376E+03 -0.19572229184E+03 -0.23212052124E+03  0.40460015351E+03  0.51100000000E-03 0.  1.
    -200002    1    4    4    0    0 -0.19219754312E+03 -0.19193133123E+03 -0.99323469903E+02  0.29076224508E+03  0.30000000000E+02 0.  1.
    -200000    1    3    3    0    0 -0.85101929033E+02  0.44603226675E+02  0.15751152101E+03  0.21033940526E+03  0.10100000000E+03 0.  1.
<mgrwt>
<rscale>  0 0.21906984E+04</rscale>
<asrwt>0</asrwt>
<pdfrwt beam="1">  1        2 0.25152046E+00 0.21906984E+04</pdfrwt>
<pdfrwt beam="2">  1       -2 0.97349966E-01 0.21906984E+04</pdfrwt>
<totfact> 0.86290084E+00</totfact>
</mgrwt>
</event>
<event>
 8    2  0.7237260E-052  0.1718263E+04  0.7818608E-02  0.8751017E-01
          2   -1    0    0  501    0  0.00000000000E+00  0.00000000000E+00  0.20867896412E+04  0.20867896412E+04  0.25500000000E-02 0.  1.
         -2   -1    0    0    0  501 -0.00000000000E+00 -0.00000000000E+00 -0.35370436035E+03  0.35370436036E+03  0.25500000000E-02 0. -1.
    -200001    2    1    2    0    0  0.14457224401E+03  0.56950331639E+03  0.68426400252E+03  0.10910384688E+04  0.61393204355E+03 0.  0.
   -5000001    2    3    3    0    0  0.21122113531E+03  0.63349144890E+03  0.67205919171E+03  0.95361025762E+03  0.10855036822E+03 0.  0.
     200001    1    1    2    0    0 -0.14457224401E+03 -0.56950331639E+03  0.10488212784E+04  0.13494555328E+04  0.61300000000E+03 0. -1.
         11    1    4    4    0    0  0.19694480123E+03  0.46924506630E+03  0.49962284387E+03  0.71316279565E+03  0.51100000000E-03 0.  1.
    -200002    1    4    4    0    0  0.14276334085E+02  0.16424638260E+03  0.17243634784E+03  0.24044746197E+03  0.30000000000E+02 0.  1.
    -200000    1    3    3    0    0 -0.66648891297E+02 -0.63988132518E+02  0.12204810804E+02  0.13742821115E+03  0.10100000000E+03 0. -1.
<mgrwt>
<rscale>  0 0.17182626E+04</rscale>
<asrwt>0</asrwt>
<pdfrwt beam="1">  1        2 0.29811279E+00 0.17182626E+04</pdfrwt>
<pdfrwt beam="2">  1       -2 0.50529197E-01 0.17182626E+04</pdfrwt>
<totfact> 0.25530193E+01</totfact>
</mgrwt>
</event>
<event>
 8    2  0.7237260E-052  0.1830597E+04  0.7818608E-02  0.8690196E-01
         -2   -1    0    0    0  501 -0.00000000000E+00  0.00000000000E+00  0.31789433634E+03  0.31789433635E+03  0.25500000000E-02 0. -1.
          2   -1    0    0  501    0  0.00000000000E+00 -0.00000000000E+00 -0.26353763743E+04  0.26353763743E+04  0.25500000000E-02 0.  1.
    -200001    2    1    2    0    0 -0.17629914360E+03  0.63386535968E+03 -0.88454384189E+03  0.12615415491E+04  0.61335356010E+03 0.  0.
   -5000001    2    3    3    0    0 -0.20185098919E+03  0.67353888877E+03 -0.52066536673E+03  0.88096904563E+03  0.10303193061E+03 0.  0.
     200001    1    1    2    0    0  0.17629914360E+03 -0.63386535968E+03 -0.14329381960E+04  0.16917291615E+04  0.61300000000E+03 0.  1.
         11    1    4    4    0    0 -0.12547057860E+03  0.53431914129E+03 -0.41059475292E+03  0.68543990397E+03  0.51100000000E-03 0.  1.
    -200002    1    4    4    0    0 -0.76380410588E+02  0.13921974749E+03 -0.11007061381E+03  0.19552914166E+03  0.30000000000E+02 0.  1.
    -200000    1    3    3    0    0  0.25551845587E+02 -0.39673529096E+02 -0.36387847516E+03  0.38057250348E+03  0.10100000000E+03 0.  1.
<mgrwt>
<rscale>  0 0.18305969E+04</rscale>
<asrwt>0</asrwt>
<pdfrwt beam="1">  1        2 0.37648232E+00 0.18305969E+04</pdfrwt>
<pdfrwt beam="2">  1       -2 0.45413479E-01 0.18305969E+04</pdfrwt>
<totfact> 0.16230586E+01</totfact>
</mgrwt>
</event>
<event>
 8    2  0.7237260E-052  0.1255973E+04  0.7818608E-02  0.9065227E-01
          2   -1    0    0  501    0  0.00000000000E+00  0.00000000000E+00  0.14849768291E+04  0.14849768291E+04  0.25500000000E-02 0.  1.
         -2   -1    0    0    0  501 -0.00000000000E+00 -0.00000000000E+00 -0.26557109965E+03  0.26557109967E+03  0.25500000000E-02 0. -1.
    -200001    2    1    2    0    0 -0.54654882960E+02  0.82575772835E+02  0.48086011948E+03  0.78565180353E+03  0.61336480776E+03 0.  0.
   -5000001    2    3    3    0    0  0.12137639714E+03 -0.16564279191E+03  0.40184423027E+03  0.45543372679E+03  0.61411153690E+02 0.  0.
     200001    1    1    2    0    0  0.54654882960E+02 -0.82575772835E+02  0.73854560994E+03  0.96489612521E+03  0.61300000000E+03 0. -1.
         11    1    4    4    0    0  0.41536235762E+01 -0.86276698277E+01  0.29832556147E+01  0.10029411239E+02  0.51100000000E-03 0.  1.
    -200002    1    4    4    0    0  0.11722277357E+03 -0.15701512209E+03  0.39886097465E+03  0.44540431555E+03  0.30000000000E+02 0.  1.
    -200000    1    3    3    0    0 -0.17603128010E+03  0.24821856475E+03  0.79015889214E+02  0.33021807675E+03  0.10100000000E+03 0. -1.
<mgrwt>
<rscale>  0 0.12559728E+04</rscale>
<asrwt>0</asrwt>
<pdfrwt beam="1">  1        2 0.21213954E+00 0.12559728E+04</pdfrwt>
<pdfrwt beam="2">  1       -2 0.37938729E-01 0.12559728E+04</pdfrwt>
<totfact> 0.95954453E+01</totfact>
</mgrwt>
</event>
<event>
 8    2  0.7237260E-052  0.1708871E+04  0.7818608E-02  0.8756321E-01
         -2   -1    0    0    0  501 -0.00000000000E+00  0.00000000000E+00  0.22648560949E+04  0.22648560949E+04  0.25500000000E-02 0. -1.
          2   -1    0    0  501    0  0.00000000000E+00 -0.00000000000E+00 -0.32234280781E+03  0.32234280782E+03  0.25500000000E-02 0.  1.
    -200001    2    1    2    0    0 -0.58698060453E+03 -0.73254766553E+02  0.88954256076E+03  0.12327880192E+04  0.61527867015E+03 0.  0.
   -5000001    2    3    3    0    0  0.62668160210E+02 -0.15224275074E+03  0.28011776687E+03  0.33285346681E+03  0.72251737644E+02 0.  0.
     200001    1    1    2    0    0  0.58698060453E+03  0.73254766553E+02  0.10529707263E+04  0.13544108835E+04  0.61300000000E+03 0. -1.
         11    1    4    4    0    0  0.50901546709E+02 -0.47239186381E+02  0.12090528767E+03  0.13942954054E+03  0.51100000000E-03 0.  1.
    -200002    1    4    4    0    0  0.11766613501E+02 -0.10500356436E+03  0.15921247921E+03  0.19342392627E+03  0.30000000000E+02 0.  1.
    -200000    1    3    3    0    0 -0.64964876474E+03  0.78987984183E+02  0.60942479389E+03  0.89993455239E+03  0.10100000000E+03 0.  1.
<mgrwt>
<rscale>  0 0.17088711E+04</rscale>
<asrwt>0</asrwt>
<pdfrwt beam="1">  1        2 0.46048971E-01 0.17088711E+04</pdfrwt>
<pdfrwt beam="2">  1       -2 0.32355088E+00 0.17088711E+04</pdfrwt>
<totfact> 0.23967889E+00</totfact>
</mgrwt>
</event>
<event>
 8    2  0.7237260E-052  0.1406477E+04  0.7818608E-02  0.8949143E-01
          2   -1    0    0  501    0  0.00000000000E+00  0.00000000000E+00  0.19590859095E+04  0.19590859095E+04  0.25500000000E-02 0.  1.
         -2   -1    0    0    0  501 -0.00000000000E+00 -0.00000000000E+00 -0.25243631289E+03  0.25243631290E+03  0.25500000000E-02 0. -1.
    -200001    2    1    2    0    0  0.27569631230E+03  0.22415462878E+02  0.11762067764E+04  0.13549888050E+04  0.61320581480E+03 0.  0.
   -5000001    2    3    3    0    0 -0.55779565589E+02  0.57030643780E+02  0.90997683657E+03  0.91663523856E+03  0.76147640835E+02 0.  0.
     200001    1    1    2    0    0 -0.27569631230E+03 -0.22415462878E+02  0.53044282023E+03  0.85653341740E+03  0.61300000000E+03 0. -1.
         11    1    4    4    0    0 -0.23644286405E+02  0.60399486182E+02  0.46997659168E+03  0.47443139329E+03  0.51100000000E-03 0.  1.
    -200002    1    4    4    0    0 -0.32135279183E+02 -0.33688424017E+01  0.44000024489E+03  0.44220384527E+03  0.30000000000E+02 0.  1.
    -200000    1    3    3    0    0  0.33147587789E+03 -0.34615180902E+02  0.26622993982E+03  0.43835356646E+03  0.10100000000E+03 0.  1.
<mgrwt>
<rscale>  0 0.14064771E+04</rscale>
<asrwt>0</asrwt>
<pdfrwt beam="1">  1        2 0.27986941E+00 0.14064771E+04</pdfrwt>
<pdfrwt beam="2">  1       -2 0.36062331E-01 0.14064771E+04</pdfrwt>
<totfact> 0.59324203E+01</totfact>
</mgrwt>
</event>
<event>
 8    2  0.7237260E-052  0.1250367E+04  0.7818608E-02  0.9069878E-01
         -2   -1    0    0    0  501 -0.00000000000E+00  0.00000000000E+00  0.28619069548E+03  0.28619069549E+03  0.25500000000E-02 0. -1.
          2   -1    0    0  501    0  0.00000000000E+00 -0.00000000000E+00 -0.13657140896E+04  0.13657140896E+04  0.25500000000E-02 0.  1.
    -200001    2    1    2    0    0  0.55291213614E+02  0.49406003597E+01 -0.68602187660E+03  0.92136117096E+03  0.61253478623E+03 0.  0.
   -5000001    2    3    3    0    0 -0.62608639259E+02  0.23302479015E+03 -0.10130838363E+03  0.27482142601E+03  0.83922780391E+02 0.  0.
     200001    1    1    2    0    0 -0.55291213614E+02 -0.49406003597E+01 -0.39350151750E+03  0.73054361410E+03  0.61300000000E+03 0.  1.
         11    1    4    4    0    0 -0.62281494709E+02  0.12130337021E+03 -0.32333093476E+02  0.14013893514E+03  0.51100000000E-03 0.  1.
    -200002    1    4    4    0    0 -0.32714455023E+00  0.11172141994E+03 -0.68975290155E+02  0.13468249088E+03  0.30000000000E+02 0.  1.
    -200000    1    3    3    0    0  0.11789985287E+03 -0.22808418979E+03 -0.58471349297E+03  0.64653974495E+03  0.10100000000E+03 0.  1.
<mgrwt>
<rscale>  0 0.12503674E+04</rscale>
<asrwt>0</asrwt>
<pdfrwt beam="1">  1        2 0.19510201E+00 0.12503674E+04</pdfrwt>
<pdfrwt beam="2">  1       -2 0.40884386E-01 0.12503674E+04</pdfrwt>
<totfact> 0.96203555E+01</totfact>
</mgrwt>
</event>
<event>
 8    2  0.7237260E-052  0.2144190E+04  0.7818608E-02  0.8542023E-01
         -2   -1    0    0    0  501 -0.00000000000E+00  0.00000000000E+00  0.15731737180E+04  0.15731737180E+04  0.25500000000E-02 0. -1.
          2   -1    0    0  501    0  0.00000000000E+00 -0.00000000000E+00 -0.73061724627E+03  0.73061724627E+03  0.25500000000E-02 0.  1.
    -200001    2    1    2    0    0  0.36830120208E+03 -0.10328644980E+03 -0.42935089679E+03  0.84097476931E+03  0.61366318440E+03 0.  0.
   -5000001    2    3    3    0    0  0.41982999482E+03  0.91265731322E+02 -0.10759510779E+03  0.44824896750E+03  0.69020079555E+02 0.  0.
     200001    1    1    2    0    0 -0.36830120208E+03  0.10328644980E+03  0.12719073685E+04  0.14628161950E+04  0.61300000000E+03 0. -1.
         11    1    4    4    0    0  0.15203118294E+03  0.69986365932E+01 -0.49046858865E+02  0.15990014342E+03  0.51100000000E-03 0.  1.
    -200002    1    4    4    0    0  0.26779881188E+03  0.84267094729E+02 -0.58548248926E+02  0.28834882408E+03  0.30000000000E+02 0.  1.
    -200000    1    3    3    0    0 -0.51528792737E+02 -0.19455218112E+03 -0.32175578900E+03  0.39272580182E+03  0.10100000000E+03 0. -1.
<mgrwt>
<rscale>  0 0.21441901E+04</rscale>
<asrwt>0</asrwt>
<pdfrwt beam="1">  1        2 0.10437389E+00 0.21441901E+04</pdfrwt>
<pdfrwt beam="2">  1       -2 0.22473910E+00 0.21441901E+04</pdfrwt>
<totfact> 0.36273319E+00</totfact>
</mgrwt>
</event>
<event>
 8    2  0.7237260E-052  0.1492016E+04  0.7818608E-02  0.8889780E-01
         -2   -1    0    0    0  501 -0.00000000000E+00  0.00000000000E+00  0.14301508010E+03  0.14301508012E+03  0.25500000000E-02 0. -1.
          2   -1    0    0  501    0  0.00000000000E+00 -0.00000000000E+00 -0.38913939314E+04  0.38913939314E+04  0.25500000000E-02 0.  1.
    -200001    2    1    2    0    0  0.36658885294E+03 -0.21364006067E+03 -0.20193422388E+04  0.21514947623E+04  0.60922670009E+03 0.  0.
   -5000001    2    3    3    0    0  0.17721395808E+03  0.10739845212E+03 -0.13971040530E+04  0.14191629131E+04  0.13850784991E+03 0.  0.
     200001    1    1    2    0    0 -0.36658885294E+03  0.21364006067E+03 -0.17290366126E+04  0.18829142493E+04  0.61300000000E+03 0.  1.
         11    1    4    4    0    0  0.61166931617E+02  0.96294486956E+02 -0.44122058877E+03  0.45572977706E+03  0.51100000000E-03 0.  1.
    -200002    1    4    4    0    0  0.11604702646E+03  0.11103965166E+02 -0.95588346420E+03  0.96343313599E+03  0.30000000000E+02 0.  1.
    -200000    1    3    3    0    0  0.18937489486E+03 -0.32103851279E+03 -0.62223818581E+03  0.73233184921E+03  0.10100000000E+03 0. -1.
<mgrwt>
<rscale>  0 0.14920161E+04</rscale>
<asrwt>0</asrwt>
<pdfrwt beam="1">  1        2 0.55591335E+00 0.14920161E+04</pdfrwt>
<pdfrwt beam="2">  1       -2 0.20430728E-01 0.14920161E+04</pdfrwt>
<totfact> 0.13679405E+01</totfact>
</mgrwt>
</event>
<event>
 8    2  0.7237260E-052  0.1751233E+04  0.7818608E-02  0.8732672E-01
         -2   -1    0    0    0  501 -0.00000000000E+00  0.00000000000E+00  0.39989576335E+03  0.39989576336E+03  0.25500000000E-02 0. -1.
          2   -1    0    0  501    0  0.00000000000E+00 -0.00000000000E+00 -0.19172592513E+04  0.19172592513E+04  0.25500000000E-02 0.  1.
    -200001    2    1    2    0    0  0.42756457315E+03 -0.24118047791E+03 -0.12704263820E+04  0.14939136033E+04  0.61385273051E+03 0.  0.
   -5000001    2    3    3    0    0  0.14623081583E+03 -0.20340781535E+03 -0.11333612809E+04  0.11629101305E+04  0.71372177704E+02 0.  0.
     200001    1    1    2    0    0 -0.42756457315E+03  0.24118047791E+03 -0.24693710591E+03  0.82324141138E+03  0.61300000000E+03 0. -1.
         11    1    4    4    0    0  0.95018970090E+02 -0.85512411638E+02 -0.51628203098E+03  0.53187227107E+03  0.51100000000E-03 0.  1.
    -200002    1    4    4    0    0  0.51211845737E+02 -0.11789540371E+03 -0.61707924989E+03  0.63103785941E+03  0.30000000000E+02 0.  1.
    -200000    1    3    3    0    0  0.28133375732E+03 -0.37772662561E+02 -0.13706510116E+03  0.33100347279E+03  0.10100000000E+03 0. -1.
<mgrwt>
<rscale>  0 0.17512325E+04</rscale>
<asrwt>0</asrwt>
<pdfrwt beam="1">  1        2 0.27389417E+00 0.17512325E+04</pdfrwt>
<pdfrwt beam="2">  1       -2 0.57127967E-01 0.17512325E+04</pdfrwt>
<totfact> 0.24153117E+01</totfact>
</mgrwt>
</event>
<event>
 8    2  0.7237260E-052  0.1895133E+04  0.7818608E-02  0.8657283E-01
          2   -1    0    0  501    0  0.00000000000E+00  0.00000000000E+00  0.79392261348E+03  0.79392261349E+03  0.25500000000E-02 0.  1.
         -2   -1    0    0    0  501 -0.00000000000E+00 -0.00000000000E+00 -0.11309437458E+04  0.11309437458E+04  0.25500000000E-02 0. -1.
    -200001    2    1    2    0    0  0.49016593322E+03  0.50697519826E+03 -0.68627937742E+01  0.93387694348E+03  0.61220303323E+03 0.  0.
   -5000001    2    3    3    0    0  0.28113798336E+03  0.35966580995E+03 -0.20729614799E+03  0.59363104830E+03  0.31784912773E+03 0.  0.
     200001    1    1    2    0    0 -0.49016593322E+03 -0.50697519826E+03 -0.33015833855E+03  0.99098941581E+03  0.61300000000E+03 0. -1.
         11    1    4    4    0    0 -0.67421016286E+02  0.24806217478E+02 -0.31350631782E+02  0.78382421346E+02  0.51100000000E-03 0.  1.
    -200002    1    4    4    0    0  0.34855899965E+03  0.33485959247E+03 -0.17594551621E+03  0.51524862696E+03  0.30000000000E+02 0.  1.
    -200000    1    3    3    0    0  0.20902794986E+03  0.14730938831E+03  0.20043335422E+03  0.34024589518E+03  0.10100000000E+03 0.  1.
<mgrwt>
<rscale>  0 0.18951325E+04</rscale>
<asrwt>0</asrwt>
<pdfrwt beam="1">  1        2 0.11341752E+00 0.18951325E+04</pdfrwt>
<pdfrwt beam="2">  1       -2 0.16156339E+00 0.18951325E+04</pdfrwt>
<totfact> 0.88483862E+00</totfact>
</mgrwt>
</event>
<event>
 8    2  0.7237260E-052  0.1570608E+04  0.7818608E-02  0.8838811E-01
          2   -1    0    0  501    0  0.00000000000E+00  0.00000000000E+00  0.24776012956E+04  0.24776012956E+04  0.25500000000E-02 0.  1.
         -2   -1    0    0    0  501 -0.00000000000E+00 -0.00000000000E+00 -0.24891104922E+03  0.24891104923E+03  0.25500000000E-02 0. -1.
    -200001    2    1    2    0    0 -0.22350369196E+03  0.32190613766E+03  0.16266528659E+04  0.17821631143E+04  0.61361906579E+03 0.  0.
   -5000001    2    3    3    0    0  0.26920816543E+02 -0.79238119554E+02  0.86516618763E+03  0.88011427371E+03  0.13814916800E+03 0.  0.
     200001    1    1    2    0    0  0.22350369196E+03 -0.32190613766E+03  0.60203738046E+03  0.94434923056E+03  0.61300000000E+03 0. -1.
         11    1    4    4    0    0 -0.37884755200E+02 -0.76965475055E+02  0.36964585896E+03  0.37946936645E+03  0.51100000000E-03 0.  1.
    -200002    1    4    4    0    0  0.64805571743E+02 -0.22726444987E+01  0.49552032867E+03  0.50064490726E+03  0.30000000000E+02 0.  1.
    -200000    1    3    3    0    0 -0.25042450850E+03  0.40114425721E+03  0.76148667829E+03  0.90204884057E+03  0.10100000000E+03 0. -1.
<mgrwt>
<rscale>  0 0.15706080E+04</rscale>
<asrwt>0</asrwt>
<pdfrwt beam="1">  1        2 0.35394306E+00 0.15706080E+04</pdfrwt>
<pdfrwt beam="2">  1       -2 0.35558720E-01 0.15706080E+04</pdfrwt>
<totfact> 0.32446253E+01</totfact>
</mgrwt>
</event>
<event>
 8    2  0.7237260E-052  0.1375154E+04  0.7818608E-02  0.8972002E-01
          2   -1    0    0  501    0  0.00000000000E+00  0.00000000000E+00  0.67463476119E+03  0.67463476120E+03  0.25500000000E-02 0.  1.
         -2   -1    0    0    0  501 -0.00000000000E+00 -0.00000000000E+00 -0.70076791611E+03  0.70076791612E+03  0.25500000000E-02 0. -1.
    -200001    2    1    2    0    0  0.11826174855E+03  0.28859710446E+03 -0.92280531668E+01  0.68741364227E+03  0.61251794157E+03 0.  0.
   -5000001    2    3    3    0    0  0.27952758037E+03  0.89884439617E+02 -0.14462719448E+03  0.38077489855E+03  0.19457034026E+03 0.  0.
     200001    1    1    2    0    0 -0.11826174855E+03 -0.28859710446E+03 -0.16905101752E+02  0.68798903504E+03  0.61300000000E+03 0. -1.
         11    1    4    4    0    0  0.26492588286E+03  0.77740505762E+02 -0.18084823004E+03  0.33005361981E+03  0.51100000000E-03 0.  1.
    -200002    1    4    4    0    0  0.14601697518E+02  0.12143933855E+02  0.36221035558E+02  0.50721278738E+02  0.30000000000E+02 0.  1.
    -200000    1    3    3    0    0 -0.16126583182E+03  0.19871266484E+03  0.13539914131E+03  0.30663874372E+03  0.10100000000E+03 0.  1.
<mgrwt>
<rscale>  0 0.13751544E+04</rscale>
<asrwt>0</asrwt>
<pdfrwt beam="1">  1        2 0.96376395E-01 0.13751544E+04</pdfrwt>
<pdfrwt beam="2">  1       -2 0.10010970E+00 0.13751544E+04</pdfrwt>
<totfact> 0.37904795E+01</totfact>
</mgrwt>
</event>
<event>
 8    2  0.7237260E-052  0.1910505E+04  0.7818608E-02  0.8649645E-01
         -2   -1    0    0    0  501 -0.00000000000E+00  0.00000000000E+00  0.67800654808E+03  0.67800654808E+03  0.25500000000E-02 0. -1.
          2   -1    0    0  501    0  0.00000000000E+00 -0.00000000000E+00 -0.13458683445E+04  0.13458683445E+04  0.25500000000E-02 0.  1.
    -200001    2    1    2    0    0  0.46329402121E+03 -0.27639901814E+03 -0.85892627963E+03  0.11852376623E+04  0.61318528597E+03 0.  0.
   -5000001    2    3    3    0    0  0.28811985674E+03 -0.69429929372E+02 -0.13936404859E+03  0.40967786707E+03  0.24613014806E+03 0.  0.
     200001    1    1    2    0    0 -0.46329402121E+03  0.27639901814E+03  0.19106448320E+03  0.83863723031E+03  0.61300000000E+03 0. -1.
         11    1    4    4    0    0  0.16728105906E+02  0.34573398748E+02  0.48836291686E+02  0.62129967118E+02  0.51100000000E-03 0.  1.
    -200002    1    4    4    0    0  0.27139175084E+03 -0.10400332812E+03 -0.18820034027E+03  0.34754789995E+03  0.30000000000E+02 0.  1.
    -200000    1    3    3    0    0  0.17517416447E+03 -0.20696908877E+03 -0.71956223104E+03  0.77555979521E+03  0.10100000000E+03 0.  1.
<mgrwt>
<rscale>  0 0.19105052E+04</rscale>
<asrwt>0</asrwt>
<pdfrwt beam="1">  1        2 0.19226691E+00 0.19105052E+04</pdfrwt>
<pdfrwt beam="2">  1       -2 0.96858078E-01 0.19105052E+04</pdfrwt>
<totfact> 0.14815786E+01</totfact>
</mgrwt>
</event>
<event>
 8    2  0.7237260E-052  0.1621032E+04  0.7818608E-02  0.8807730E-01
         -2   -1    0    0    0  501 -0.00000000000E+00  0.00000000000E+00  0.10958010374E+04  0.10958010374E+04  0.25500000000E-02 0. -1.
          2   -1    0    0  501    0  0.00000000000E+00 -0.00000000000E+00 -0.59950351389E+03  0.59950351390E+03  0.25500000000E-02 0.  1.
    -200001    2    1    2    0    0 -0.47420047238E+03 -0.19659398023E+03  0.11071586239E+03  0.80763485009E+03  0.61359658395E+03 0.  0.
   -5000001    2    3    3    0    0 -0.54874646680E+02  0.10022344110E+03 -0.16723082976E+03  0.21485319267E+03  0.71692251923E+02 0.  0.
     200001    1    1    2    0    0  0.47420047238E+03  0.19659398023E+03  0.38558166113E+03  0.88766970122E+03  0.61300000000E+03 0. -1.
         11    1    4    4    0    0 -0.15193238618E+02 -0.94772722292E+00 -0.49755842331E+02  0.52032456533E+02  0.51100000000E-03 0.  1.
    -200002    1    4    4    0    0 -0.39681408061E+02  0.10117116833E+03 -0.11747498743E+03  0.16282073614E+03  0.30000000000E+02 0.  1.
    -200000    1    3    3    0    0 -0.41932582570E+03 -0.29681742133E+03  0.27794669214E+03  0.59278165742E+03  0.10100000000E+03 0. -1.
<mgrwt>
<rscale>  0 0.16210325E+04</rscale>
<asrwt>0</asrwt>
<pdfrwt beam="1">  1        2 0.85643359E-01 0.16210325E+04</pdfrwt>
<pdfrwt beam="2">  1       -2 0.15654300E+00 0.16210325E+04</pdfrwt>
<totfact> 0.13922500E+01</totfact>
</mgrwt>
</event>
<event>
 8    2  0.7237260E-052  0.1322436E+04  0.7818608E-02  0.9011960E-01
         -2   -1    0    0    0  501 -0.00000000000E+00  0.00000000000E+00  0.60896521016E+03  0.60896521016E+03  0.25500000000E-02 0. -1.
          2   -1    0    0  501    0  0.00000000000E+00 -0.00000000000E+00 -0.71795488701E+03  0.71795488701E+03  0.25500000000E-02 0.  1.
    -200001    2    1    2    0    0  0.10700307897E+03 -0.25344652417E+02  0.16712840893E+03  0.64566962370E+03  0.61389359630E+03 0.  0.
   -5000001    2    3    3    0    0  0.27281709464E+03 -0.38617067480E+02 -0.10725536370E+03  0.30928011810E+03  0.90719531400E+02 0.  0.
     200001    1    1    2    0    0 -0.10700307897E+03  0.25344652417E+02 -0.27611808579E+03  0.68125047348E+03  0.61300000000E+03 0.  1.
         11    1    4    4    0    0  0.14179176121E+03 -0.59959072240E+02 -0.59468323059E+02  0.16503477009E+03  0.51100000000E-03 0.  1.
    -200002    1    4    4    0    0  0.13102533344E+03  0.21342004760E+02 -0.47787040639E+02  0.14424534801E+03  0.30000000000E+02 0. -1.
    -200000    1    3    3    0    0 -0.16581401567E+03  0.13272415063E+02  0.27438377263E+03  0.33638950560E+03  0.10100000000E+03 0. -1.
<mgrwt>
<rscale>  0 0.13224365E+04</rscale>
<asrwt>0</asrwt>
<pdfrwt beam="1">  1        2 0.10256498E+00 0.13224365E+04</pdfrwt>
<pdfrwt beam="2">  1       -2 0.86995030E-01 0.13224365E+04</pdfrwt>
<totfact> 0.48854810E+01</totfact>
</mgrwt>
</event>
<event>
 8    2  0.7237260E-052  0.1894304E+04  0.7818608E-02  0.8657697E-01
          2   -1    0    0  501    0  0.00000000000E+00  0.00000000000E+00  0.21290749584E+04  0.21290749584E+04  0.25500000000E-02 0.  1.
         -2   -1    0    0    0  501 -0.00000000000E+00 -0.00000000000E+00 -0.42135544325E+03  0.42135544325E+03  0.25500000000E-02 0. -1.
    -200001    2    1    2    0    0 -0.42367233270E+03 -0.57878817715E+03  0.93090012301E+03  0.13282555502E+04  0.61902646804E+03 0.  0.
   -5000001    2    3    3    0    0 -0.24600440609E+01 -0.39168330083E+03  0.17460000918E+03  0.43684156724E+03  0.83207762247E+02 0.  0.
     200001    1    1    2    0    0  0.42367233270E+03  0.57878817715E+03  0.77681939214E+03  0.12221748514E+04  0.61300000000E+03 0. -1.
         11    1    4    4    0    0 -0.93913443456E+01 -0.20873682589E+03  0.12982465033E+03  0.24599532448E+03  0.51100000000E-03 0.  1.
    -200002    1    4    4    0    0  0.69313002847E+01 -0.18294647494E+03  0.44775358847E+02  0.19084624276E+03  0.30000000000E+02 0. -1.
    -200000    1    3    3    0    0 -0.42121228864E+03 -0.18710487632E+03  0.75630011383E+03  0.89141398297E+03  0.10100000000E+03 0.  1.
<mgrwt>
<rscale>  0 0.18943044E+04</rscale>
<asrwt>0</asrwt>
<pdfrwt beam="1">  1        2 0.30415356E+00 0.18943044E+04</pdfrwt>
<pdfrwt beam="2">  1       -2 0.60193635E-01 0.18943044E+04</pdfrwt>
<totfact> 0.16640273E+01</totfact>
</mgrwt>
</event>
<event>
 8    2  0.7237260E-052  0.1308789E+04  0.7818608E-02  0.9022624E-01
          2   -1    0    0  501    0  0.00000000000E+00  0.00000000000E+00  0.88169469792E+03  0.88169469793E+03  0.25500000000E-02 0.  1.
         -2   -1    0    0    0  501 -0.00000000000E+00 -0.00000000000E+00 -0.48569226846E+03  0.48569226846E+03  0.25500000000E-02 0. -1.
    -200001    2    1    2    0    0 -0.58746744858E+02 -0.20664565362E+03  0.11401615679E+03  0.65926348551E+03  0.61276019219E+03 0.  0.
   -5000001    2    3    3    0    0  0.19995759810E+03 -0.10701142220E+03  0.23925471748E+03  0.33873171763E+03  0.77858019318E+02 0.  0.
     200001    1    1    2    0    0  0.58746744858E+02  0.20664565362E+03  0.28198627267E+03  0.70812348088E+03  0.61300000000E+03 0.  1.
         11    1    4    4    0    0  0.13789111262E+03 -0.43163337517E+02  0.12725986965E+03  0.19254118278E+03  0.51100000000E-03 0.  1.
    -200002    1    4    4    0    0  0.62066485489E+02 -0.63848084686E+02  0.11199484783E+03  0.14619053485E+03  0.30000000000E+02 0. -1.
    -200000    1    3    3    0    0 -0.25870434296E+03 -0.99634231422E+02 -0.12523856069E+03  0.32053176788E+03  0.10100000000E+03 0. -1.
<mgrwt>
<rscale>  0 0.13087892E+04</rscale>
<asrwt>0</asrwt>
<pdfrwt beam="1">  1        2 0.12595638E+00 0.13087892E+04</pdfrwt>
<pdfrwt beam="2">  1       -2 0.69384611E-01 0.13087892E+04</pdfrwt>
<totfact> 0.62151781E+01</totfact>
</mgrwt>
</event>
<event>
 8    2  0.7237260E-052  0.1844769E+04  0.7818608E-02  0.8682848E-01
         -2   -1    0    0    0  501 -0.00000000000E+00  0.00000000000E+00  0.16472547100E+04  0.16472547100E+04  0.25500000000E-02 0. -1.
          2   -1    0    0  501    0  0.00000000000E+00 -0.00000000000E+00 -0.51649137141E+03  0.51649137142E+03  0.25500000000E-02 0.  1.
    -200001    2    1    2    0    0 -0.32440763131E+03 -0.25907812482E+03  0.12087040544E+04  0.14192962569E+04  0.61731239072E+03 0.  0.
   -5000001    2    3    3    0    0 -0.18255020081E+02 -0.29765388582E+03  0.87253660073E+03  0.95193444031E+03  0.23649096713E+03 0.  0.
     200001    1    1    2    0    0  0.32440763131E+03  0.25907812482E+03 -0.77940715817E+02  0.74444982450E+03  0.61300000000E+03 0.  1.
         11    1    4    4    0    0 -0.49855783503E+02  0.17002527403E+02  0.61894157512E+02  0.81274669000E+02  0.51100000000E-03 0.  1.
    -200002    1    4    4    0    0  0.31600763422E+02 -0.31465641323E+03  0.81064244322E+03  0.87065977131E+03  0.30000000000E+02 0.  1.
    -200000    1    3    3    0    0 -0.30615261123E+03  0.38575761000E+02  0.33616745364E+03  0.46736181657E+03  0.10100000000E+03 0. -1.
<mgrwt>
<rscale>  0 0.18447687E+04</rscale>
<asrwt>0</asrwt>
<pdfrwt beam="1">  1        2 0.73784482E-01 0.18447687E+04</pdfrwt>
<pdfrwt beam="2">  1       -2 0.23532210E+00 0.18447687E+04</pdfrwt>
<totfact> 0.48309933E+00</totfact>
</mgrwt>
</event>
<event>
 8    2  0.7237260E-052  0.1733982E+04  0.7818608E-02  0.8742217E-01
         -2   -1    0    0    0  501 -0.00000000000E+00  0.00000000000E+00  0.37387107819E+03  0.37387107820E+03  0.25500000000E-02 0. -1.
          2   -1    0    0  501    0  0.00000000000E+00 -0.00000000000E+00 -0.20105140575E+04  0.20105140575E+04  0.25500000000E-02 0.  1.
    -200001    2    1    2    0    0 -0.29146263135E+03  0.53579521459E+03 -0.73197871797E+03  0.11329006559E+04  0.61289809522E+03 0.  0.
   -5000001    2    3    3    0    0 -0.20510180377E+02  0.76115545977E+02 -0.55021785306E+03  0.56022392297E+03  0.69977955117E+02 0.  0.
     200001    1    1    2    0    0  0.29146263135E+03 -0.53579521459E+03 -0.90466426133E+03  0.12514844798E+04  0.61300000000E+03 0.  1.
         11    1    4    4    0    0 -0.22560431026E+02  0.34599418326E+02 -0.11889311878E+03  0.12586368217E+03  0.51100000000E-03 0.  1.
    -200002    1    4    4    0    0  0.20502506488E+01  0.41516127651E+02 -0.43132473428E+03  0.43436024080E+03  0.30000000000E+02 0.  1.
    -200000    1    3    3    0    0 -0.27095245098E+03  0.45967966862E+03 -0.18176086491E+03  0.57267673294E+03  0.10100000000E+03 0. -1.
<mgrwt>
<rscale>  0 0.17339816E+04</rscale>
<asrwt>0</asrwt>
<pdfrwt beam="1">  1        2 0.28721629E+00 0.17339816E+04</pdfrwt>
<pdfrwt beam="2">  1       -2 0.53410155E-01 0.17339816E+04</pdfrwt>
<totfact> 0.24906719E+01</totfact>
</mgrwt>
</event>
<event>
 8    2  0.7237260E-052  0.1298551E+04  0.7818608E-02  0.9030715E-01
         -2   -1    0    0    0  501 -0.00000000000E+00  0.00000000000E+00  0.21420751583E+03  0.21420751584E+03  0.25500000000E-02 0. -1.
          2   -1    0    0  501    0  0.00000000000E+00 -0.00000000000E+00 -0.19679906864E+04  0.19679906864E+04  0.25500000000E-02 0.  1.
    -200001    2    1    2    0    0 -0.12366074289E+03  0.17003105055E+03 -0.94098236783E+03  0.11426710586E+04  0.61322654385E+03 0.  0.
   -5000001    2    3    3    0    0  0.65120491287E+02 -0.64002101136E+02 -0.74433000965E+03  0.76946465398E+03  0.17237094628E+03 0.  0.
     200001    1    1    2    0    0  0.12366074289E+03 -0.17003105055E+03 -0.81280080279E+03  0.10395271437E+04  0.61300000000E+03 0. -1.
         11    1    4    4    0    0  0.62602661984E+02  0.47421152119E+02 -0.26201411176E+03  0.27353108364E+03  0.51100000000E-03 0.  1.
    -200002    1    4    4    0    0  0.25178293031E+01 -0.11142325326E+03 -0.48231589789E+03  0.49593357033E+03  0.30000000000E+02 0.  1.
    -200000    1    3    3    0    0 -0.18878123418E+03  0.23403315168E+03 -0.19665235818E+03  0.37320640461E+03  0.10100000000E+03 0. -1.
<mgrwt>
<rscale>  0 0.12985506E+04</rscale>
<asrwt>0</asrwt>
<pdfrwt beam="1">  1        2 0.28114152E+00 0.12985506E+04</pdfrwt>
<pdfrwt beam="2">  1       -2 0.30601075E-01 0.12985506E+04</pdfrwt>
<totfact> 0.80765101E+01</totfact>
</mgrwt>
</event>
<event>
 8    2  0.7237260E-052  0.1933549E+04  0.7818608E-02  0.8638335E-01
         -2   -1    0    0    0  501 -0.00000000000E+00  0.00000000000E+00  0.75831274122E+03  0.75831274123E+03  0.25500000000E-02 0. -1.
          2   -1    0    0  501    0  0.00000000000E+00 -0.00000000000E+00 -0.12325422609E+04  0.12325422609E+04  0.25500000000E-02 0.  1.
    -200001    2    1    2    0    0 -0.53874311848E+03  0.16790059311E+03 -0.74254317046E+03  0.11155287932E+04  0.61204523650E+03 0.  0.
   -5000001    2    3    3    0    0 -0.32840806011E+03 -0.15677444219E+03 -0.16214461765E+03  0.41074641866E+03  0.99958309992E+02 0.  0.
     200001    1    1    2    0    0  0.53874311848E+03 -0.16790059311E+03  0.26831365079E+03  0.87532620895E+03  0.61300000000E+03 0. -1.
         11    1    4    4    0    0 -0.16496545952E+03 -0.56844519477E+02 -0.12151876548E+03  0.21263046018E+03  0.51100000000E-03 0.  1.
    -200002    1    4    4    0    0 -0.16344260058E+03 -0.99929922717E+02 -0.40625852171E+02  0.19811595848E+03  0.30000000000E+02 0.  1.
    -200000    1    3    3    0    0 -0.21033505838E+03  0.32467503531E+03 -0.58039855280E+03  0.70478237452E+03  0.10100000000E+03 0.  1.
<mgrwt>
<rscale>  0 0.19335486E+04</rscale>
<asrwt>0</asrwt>
<pdfrwt beam="1">  1        2 0.17607747E+00 0.19335486E+04</pdfrwt>
<pdfrwt beam="2">  1       -2 0.10833039E+00 0.19335486E+04</pdfrwt>
<totfact> 0.13093039E+01</totfact>
</mgrwt>
</event>
<event>
 8    2  0.7237260E-052  0.1419832E+04  0.7818608E-02  0.8939587E-01
         -2   -1    0    0    0  501 -0.00000000000E+00  0.00000000000E+00  0.30255407082E+03  0.30255407083E+03  0.25500000000E-02 0. -1.
          2   -1    0    0  501    0  0.00000000000E+00 -0.00000000000E+00 -0.16657540458E+04  0.16657540458E+04  0.25500000000E-02 0.  1.
    -200001    2    1    2    0    0  0.71910810810E+02  0.17825258244E+03 -0.26237387970E+03  0.69373672203E+03  0.61276866670E+03 0.  0.
   -5000001    2    3    3    0    0  0.20216708360E+03 -0.11109918632E+03  0.38541596227E+02  0.24491352038E+03  0.72681627183E+02 0.  0.
     200001    1    1    2    0    0 -0.71910810810E+02 -0.17825258244E+03 -0.11008260953E+04  0.12745713946E+04  0.61300000000E+03 0.  1.
         11    1    4    4    0    0  0.99430696229E+02 -0.74204739032E+02  0.43830642063E+02  0.13158241460E+03  0.51100000000E-03 0.  1.
    -200002    1    4    4    0    0  0.10273638737E+03 -0.36894447292E+02 -0.52890458357E+01  0.11333110578E+03  0.30000000000E+02 0.  1.
    -200000    1    3    3    0    0 -0.13025627279E+03  0.28935176877E+03 -0.30091547593E+03  0.44882320165E+03  0.10100000000E+03 0. -1.
<mgrwt>
<rscale>  0 0.14198319E+04</rscale>
<asrwt>0</asrwt>
<pdfrwt beam="1">  1        2 0.23796486E+00 0.14198319E+04</pdfrwt>
<pdfrwt beam="2">  1       -2 0.43222011E-01 0.14198319E+04</pdfrwt>
<totfact> 0.59004200E+01</totfact>
</mgrwt>
</event>
<event>
 8    2  0.7237260E-052  0.1317971E+04  0.7818608E-02  0.9015434E-01
         -2   -1    0    0    0  501 -0.00000000000E+00  0.00000000000E+00  0.10649637816E+04  0.10649637816E+04  0.25500000000E-02 0. -1.
          2   -1    0    0  501    0  0.00000000000E+00 -0.00000000000E+00 -0.40777161245E+03  0.40777161245E+03  0.25500000000E-02 0.  1.
    -200001    2    1    2    0    0 -0.15550722375E+03 -0.75362055154E+02  0.51803780421E+03  0.82081908557E+03  0.61279594373E+03 0.  0.
   -5000001    2    3    3    0    0  0.42948250104E+02 -0.14557212851E+03  0.54818274805E+03  0.58539659909E+03  0.13838011484E+03 0.  0.
     200001    1    1    2    0    0  0.15550722375E+03  0.75362055154E+02  0.13915436494E+03  0.65191630849E+03  0.61300000000E+03 0.  1.
         11    1    4    4    0    0  0.43324513183E+02 -0.22425372858E+02  0.44569978166E+02  0.66078693573E+02  0.51100000000E-03 0.  1.
    -200002    1    4    4    0    0 -0.37626307939E+00 -0.12314675565E+03  0.50361276988E+03  0.51931790552E+03  0.30000000000E+02 0.  1.
    -200000    1    3    3    0    0 -0.19845547385E+03  0.70210073359E+02 -0.30144943834E+02  0.23542248648E+03  0.10100000000E+03 0. -1.
<mgrwt>
<rscale>  0 0.13179712E+04</rscale>
<asrwt>0</asrwt>
<pdfrwt beam="1">  1        2 0.58253089E-01 0.13179712E+04</pdfrwt>
<pdfrwt beam="2">  1       -2 0.15213768E+00 0.13179712E+04</pdfrwt>
<totfact> 0.23917777E+01</totfact>
</mgrwt>
</event>
<event>
 8    2  0.7237260E-052  0.1785365E+04  0.7818608E-02  0.8714121E-01
          2   -1    0    0  501    0  0.00000000000E+00  0.00000000000E+00  0.18016337650E+04  0.18016337650E+04  0.25500000000E-02 0.  1.
         -2   -1    0    0    0  501 -0.00000000000E+00 -0.00000000000E+00 -0.44231084523E+03  0.44231084524E+03  0.25500000000E-02 0. -1.
    -200001    2    1    2    0    0  0.31256226205E+02  0.33333973320E+02 -0.13473369114E+03  0.62837589860E+03  0.61205800130E+03 0.  0.
   -5000001    2    3    3    0    0  0.28073620254E+03 -0.71774870749E+02  0.16317511939E+02  0.30233051273E+03  0.84693743849E+02 0.  0.
     200001    1    1    2    0    0 -0.31256226205E+02 -0.33333973320E+02  0.14940566109E+04  0.16155687116E+04  0.61300000000E+03 0.  1.
         11    1    4    4    0    0  0.70625194488E+02  0.14268510807E+02 -0.55701588150E+01  0.72267109854E+02  0.51100000000E-03 0.  1.
    -200002    1    4    4    0    0  0.21011100805E+03 -0.86043381556E+02  0.21887670754E+02  0.23006340288E+03  0.30000000000E+02 0.  1.
    -200000    1    3    3    0    0 -0.24947997633E+03  0.10510884407E+03 -0.15105120308E+03  0.32604538586E+03  0.10100000000E+03 0. -1.
<mgrwt>
<rscale>  0 0.17853651E+04</rscale>
<asrwt>0</asrwt>
<pdfrwt beam="1">  1        2 0.25737625E+00 0.17853651E+04</pdfrwt>
<pdfrwt beam="2">  1       -2 0.63187263E-01 0.17853651E+04</pdfrwt>
<totfact> 0.22332280E+01</totfact>
</mgrwt>
</event>
<event>
 8    2  0.7237260E-052  0.2253793E+04  0.7818608E-02  0.8496366E-01
          2   -1    0    0  501    0  0.00000000000E+00  0.00000000000E+00  0.81818389211E+03  0.81818389211E+03  0.25500000000E-02 0.  1.
         -2   -1    0    0    0  501 -0.00000000000E+00 -0.00000000000E+00 -0.15520910041E+04  0.15520910041E+04  0.25500000000E-02 0. -1.
    -200001    2    1    2    0    0 -0.17864915279E+03 -0.23948597867E+03  0.57553338011E+03  0.89390351472E+03  0.61526885849E+03 0.  0.
   -5000001    2    3    3    0    0 -0.71703136816E+02 -0.42078631556E+03  0.28322886380E+03  0.51980433970E+03  0.88178790466E+02 0.  0.
     200001    1    1    2    0    0  0.17864915279E+03  0.23948597867E+03 -0.13094404921E+04  0.14763713815E+04  0.61300000000E+03 0. -1.
         11    1    4    4    0    0 -0.25039278690E+01  0.35172750702E+01  0.59585721401E+01  0.73583599329E+01  0.51100000000E-03 0.  1.
    -200002    1    4    4    0    0 -0.69199208947E+02 -0.42430359063E+03  0.27727029166E+03  0.51244597977E+03  0.30000000000E+02 0.  1.
    -200000    1    3    3    0    0 -0.10694601598E+03  0.18130033690E+03  0.29230451631E+03  0.37409917502E+03  0.10100000000E+03 0.  1.
<mgrwt>
<rscale>  0 0.22537931E+04</rscale>
<asrwt>0</asrwt>
<pdfrwt beam="1">  1        2 0.11688341E+00 0.22537931E+04</pdfrwt>
<pdfrwt beam="2">  1       -2 0.22172729E+00 0.22537931E+04</pdfrwt>
<totfact> 0.32509005E+00</totfact>
</mgrwt>
</event>
<event>
 8    2  0.7237260E-052  0.1470458E+04  0.7818608E-02  0.8904339E-01
          2   -1    0    0  501    0  0.00000000000E+00  0.00000000000E+00  0.17773828701E+04  0.17773828701E+04  0.25500000000E-02 0.  1.
         -2   -1    0    0    0  501 -0.00000000000E+00 -0.00000000000E+00 -0.30413341719E+03  0.30413341720E+03  0.25500000000E-02 0. -1.
    -200001    2    1    2    0    0  0.30888312784E+03 -0.20669318203E+03  0.50458081780E+03  0.87643588217E+03  0.61270481938E+03 0.  0.
   -5000001    2    3    3    0    0  0.42746140438E+02  0.17582571456E+03  0.28246390333E+03  0.35042587655E+03  0.10134359302E+03 0.  0.
     200001    1    1    2    0    0 -0.30888312784E+03  0.20669318203E+03  0.96866863508E+03  0.12050804051E+04  0.61300000000E+03 0. -1.
         11    1    4    4    0    0  0.88167393523E+01  0.12854761246E+03  0.12337449468E+03  0.17839139413E+03  0.51100000000E-03 0.  1.
    -200002    1    4    4    0    0  0.33929401086E+02  0.47278102104E+02  0.15908940864E+03  0.17203448241E+03  0.30000000000E+02 0.  1.
    -200000    1    3    3    0    0  0.26613698741E+03 -0.38251889660E+03  0.22211691447E+03  0.52601000562E+03  0.10100000000E+03 0. -1.
<mgrwt>
<rscale>  0 0.14704578E+04</rscale>
<asrwt>0</asrwt>
<pdfrwt beam="1">  1        2 0.25391184E+00 0.14704578E+04</pdfrwt>
<pdfrwt beam="2">  1       -2 0.43447631E-01 0.14704578E+04</pdfrwt>
<totfact> 0.50910627E+01</totfact>
</mgrwt>
</event>
<event>
 8    2  0.7237260E-052  0.1857006E+04  0.7818608E-02  0.8676558E-01
          2   -1    0    0  501    0  0.00000000000E+00  0.00000000000E+00  0.14637446992E+04  0.14637446992E+04  0.25500000000E-02 0.  1.
         -2   -1    0    0    0  501 -0.00000000000E+00 -0.00000000000E+00 -0.58898075917E+03  0.58898075918E+03  0.25500000000E-02 0. -1.
    -200001    2    1    2    0    0 -0.23265698997E+03  0.19162403539E+03  0.11323864785E+04  0.13226655853E+04  0.61342975781E+03 0.  0.
   -5000001    2    3    3    0    0 -0.21579147089E+03 -0.17341090772E+03  0.33773006197E+03  0.44220276617E+03  0.69601651035E+02 0.  0.
     200001    1    1    2    0    0  0.23265698997E+03 -0.19162403539E+03 -0.25762253854E+03  0.73005987308E+03  0.61300000000E+03 0. -1.
         11    1    4    4    0    0 -0.15192911665E+03 -0.14035956770E+03  0.25869169374E+03  0.33121693366E+03  0.51100000000E-03 0.  1.
    -200002    1    4    4    0    0 -0.63862354248E+02 -0.33051340016E+02  0.79038368224E+02  0.11098583251E+03  0.30000000000E+02 0.  1.
    -200000    1    3    3    0    0 -0.16865519075E+02  0.36503494310E+03  0.79465641657E+03  0.88046281910E+03  0.10100000000E+03 0.  1.
<mgrwt>
<rscale>  0 0.18570056E+04</rscale>
<asrwt>0</asrwt>
<pdfrwt beam="1">  1        2 0.20910638E+00 0.18570056E+04</pdfrwt>
<pdfrwt beam="2">  1       -2 0.84140109E-01 0.18570056E+04</pdfrwt>
<totfact> 0.17775025E+01</totfact>
</mgrwt>
</event>
<event>
 8    2  0.7237260E-052  0.1327826E+04  0.7818608E-02  0.9007785E-01
          2   -1    0    0  501    0  0.00000000000E+00  0.00000000000E+00  0.19881662320E+04  0.19881662320E+04  0.25500000000E-02 0.  1.
         -2   -1    0    0    0  501 -0.00000000000E+00 -0.00000000000E+00 -0.22170206383E+03  0.22170206385E+03  0.25500000000E-02 0. -1.
    -200001    2    1    2    0    0  0.85923423461E+02 -0.18305325423E+03  0.63447578853E+03  0.90677274287E+03  0.61545588989E+03 0.  0.
   -5000001    2    3    3    0    0 -0.17446403796E+03 -0.13607554048E+03  0.56619607882E+03  0.61544534215E+03  0.96128644278E+02 0.  0.
     200001    1    1    2    0    0 -0.85923423461E+02  0.18305325423E+03  0.11319883797E+04  0.13030955530E+04  0.61300000000E+03 0.  1.
         11    1    4    4    0    0 -0.61235721842E+02 -0.52889407055E+02  0.10605380246E+03  0.13339607200E+03  0.51100000000E-03 0.  1.
    -200002    1    4    4    0    0 -0.11322831611E+03 -0.83186133424E+02  0.46014227635E+03  0.48204927015E+03  0.30000000000E+02 0.  1.
    -200000    1    3    3    0    0  0.26038746142E+03 -0.46977713748E+02  0.68279709718E+02  0.29132740072E+03  0.10100000000E+03 0. -1.
<mgrwt>
<rscale>  0 0.13278261E+04</rscale>
<asrwt>0</asrwt>
<pdfrwt beam="1">  1        2 0.28402375E+00 0.13278261E+04</pdfrwt>
<pdfrwt beam="2">  1       -2 0.31671723E-01 0.13278261E+04</pdfrwt>
<totfact> 0.73781157E+01</totfact>
</mgrwt>
</event>
<event>
 8    2  0.7237260E-052  0.1355688E+04  0.7818608E-02  0.8986533E-01
          2   -1    0    0  501    0  0.00000000000E+00  0.00000000000E+00  0.15279041754E+04  0.15279041754E+04  0.25500000000E-02 0.  1.
         -2   -1    0    0    0  501 -0.00000000000E+00 -0.00000000000E+00 -0.30072092891E+03  0.30072092892E+03  0.25500000000E-02 0. -1.
    -200001    2    1    2    0    0 -0.14915296297E+03  0.10913743947E+03  0.31301023467E+03  0.71254317068E+03  0.61284971732E+03 0.  0.
   -5000001    2    3    3    0    0 -0.20721007711E+02  0.19632141598E+03 -0.11988402960E+03  0.24169897466E+03  0.71237316510E+02 0.  0.
     200001    1    1    2    0    0  0.14915296297E+03 -0.10913743947E+03  0.91417301180E+03  0.11160819336E+04  0.61300000000E+03 0.  1.
         11    1    4    4    0    0 -0.35570741612E+02  0.12521905848E+03 -0.86633120524E+02  0.15636619788E+03  0.51100000000E-03 0.  1.
    -200002    1    4    4    0    0  0.14849733901E+02  0.71102357496E+02 -0.33250909075E+02  0.85332776779E+02  0.30000000000E+02 0. -1.
    -200000    1    3    3    0    0 -0.12843195525E+03 -0.87183976514E+02  0.43289426427E+03  0.47084419602E+03  0.10100000000E+03 0.  1.
<mgrwt>
<rscale>  0 0.13556884E+04</rscale>
<asrwt>0</asrwt>
<pdfrwt beam="1">  1        2 0.21827202E+00 0.13556884E+04</pdfrwt>
<pdfrwt beam="2">  1       -2 0.42960133E-01 0.13556884E+04</pdfrwt>
<totfact> 0.70882341E+01</totfact>
</mgrwt>
</event>
<event>
 8    2  0.7237260E-052  0.1486647E+04  0.7818608E-02  0.8893381E-01
         -2   -1    0    0    0  501 -0.00000000000E+00  0.00000000000E+00  0.14798991258E+03  0.14798991261E+03  0.25500000000E-02 0. -1.
          2   -1    0    0  501    0  0.00000000000E+00 -0.00000000000E+00 -0.37335650469E+04  0.37335650469E+04  0.25500000000E-02 0.  1.
    -200001    2    1    2    0    0  0.12511629190E+03  0.12389483296E+02 -0.28446144103E+04  0.29117099305E+04  0.60861809878E+03 0.  0.
   -5000001    2    3    3    0    0  0.30750266596E+03 -0.11834790273E+03 -0.13048513526E+04  0.13524061347E+04  0.13342108247E+03 0.  0.
     200001    1    1    2    0    0 -0.12511629190E+03 -0.12389483296E+02 -0.74096072401E+03  0.96984502902E+03  0.61300000000E+03 0. -1.
         11    1    4    4    0    0  0.30393270700E+03 -0.10226762338E+03 -0.11544971445E+04  0.11982059146E+04  0.51100000000E-03 0.  1.
    -200002    1    4    4    0    0  0.35699589559E+01 -0.16080279348E+02 -0.15035420808E+03  0.15420022010E+03  0.30000000000E+02 0.  1.
    -200000    1    3    3    0    0 -0.18238637406E+03  0.13073738602E+03 -0.15397630577E+04  0.15593037957E+04  0.10100000000E+03 0.  1.
<mgrwt>
<rscale>  0 0.14866472E+04</rscale>
<asrwt>0</asrwt>
<pdfrwt beam="1">  1        2 0.53336637E+00 0.14866472E+04</pdfrwt>
<pdfrwt beam="2">  1       -2 0.21141419E-01 0.14866472E+04</pdfrwt>
<totfact> 0.16319298E+01</totfact>
</mgrwt>
</event>
<event>
 8    2  0.7237260E-052  0.1352869E+04  0.7818608E-02  0.8988659E-01
          2   -1    0    0  501    0  0.00000000000E+00  0.00000000000E+00  0.25201892616E+04  0.25201892616E+04  0.25500000000E-02 0.  1.
         -2   -1    0    0    0  501 -0.00000000000E+00 -0.00000000000E+00 -0.18155928297E+03  0.18155928299E+03  0.25500000000E-02 0. -1.
    -200001    2    1    2    0    0  0.28002545973E+03 -0.51786879715E+02  0.11146540063E+04  0.13035417216E+04  0.61292032696E+03 0.  0.
   -5000001    2    3    3    0    0  0.16448759669E+03 -0.13521788619E+02  0.35812930504E+02  0.21316917893E+03  0.13007507302E+03 0.  0.
     200001    1    1    2    0    0 -0.28002545973E+03  0.51786879715E+02  0.12239759723E+04  0.13982068230E+04  0.61300000000E+03 0.  1.
         11    1    4    4    0    0  0.50720139349E+02  0.40533421981E+01  0.72594790307E+02  0.88650807659E+02  0.51100000000E-03 0.  1.
    -200002    1    4    4    0    0  0.11376745734E+03 -0.17575130817E+02 -0.36781859802E+02  0.12451837127E+03  0.30000000000E+02 0.  1.
    -200000    1    3    3    0    0  0.11553786304E+03 -0.38265091096E+02  0.10788410758E+04  0.10903725427E+04  0.10100000000E+03 0.  1.
<mgrwt>
<rscale>  0 0.13528692E+04</rscale>
<asrwt>0</asrwt>
<pdfrwt beam="1">  1        2 0.36002701E+00 0.13528692E+04</pdfrwt>
<pdfrwt beam="2">  1       -2 0.25937042E-01 0.13528692E+04</pdfrwt>
<totfact> 0.56555358E+01</totfact>
</mgrwt>
</event>
<event>
 8    2  0.7237260E-052  0.1405590E+04  0.7818608E-02  0.8949782E-01
          2   -1    0    0  501    0  0.00000000000E+00  0.00000000000E+00  0.21273057129E+04  0.21273057129E+04  0.25500000000E-02 0.  1.
         -2   -1    0    0    0  501 -0.00000000000E+00 -0.00000000000E+00 -0.23218142490E+03  0.23218142492E+03  0.25500000000E-02 0. -1.
    -200001    2    1    2    0    0  0.16930583026E+03 -0.64936849823E+02  0.14383984107E+04  0.15738353157E+04  0.61244293962E+03 0.  0.
   -5000001    2    3    3    0    0  0.38267765069E+03 -0.54554814552E+02  0.98210161009E+03  0.10599840817E+04  0.98103357512E+02 0.  0.
     200001    1    1    2    0    0 -0.16930583026E+03  0.64936849823E+02  0.45672587724E+03  0.78565182210E+03  0.61300000000E+03 0. -1.
         11    1    4    4    0    0  0.29007281957E+03 -0.12036029706E+02  0.76638147905E+03  0.81952893670E+03  0.51100000000E-03 0.  1.
    -200002    1    4    4    0    0  0.92604831126E+02 -0.42518784846E+02  0.21572013104E+03  0.24045514498E+03  0.30000000000E+02 0.  1.
    -200000    1    3    3    0    0 -0.21337182043E+03 -0.10382035271E+02  0.45629680063E+03  0.51385123399E+03  0.10100000000E+03 0. -1.
<mgrwt>
<rscale>  0 0.14055901E+04</rscale>
<asrwt>0</asrwt>
<pdfrwt beam="1">  1        2 0.30390081E+00 0.14055901E+04</pdfrwt>
<pdfrwt beam="2">  1       -2 0.33168776E-01 0.14055901E+04</pdfrwt>
<totfact> 0.57029857E+01</totfact>
</mgrwt>
</event>
<event>
 8    2  0.7237260E-052  0.2558609E+04  0.7818608E-02  0.8382398E-01
         -2   -1    0    0    0  501 -0.00000000000E+00  0.00000000000E+00  0.96537433180E+03  0.96537433180E+03  0.25500000000E-02 0. -1.
          2   -1    0    0  501    0  0.00000000000E+00 -0.00000000000E+00 -0.16953214513E+04  0.16953214513E+04  0.25500000000E-02 0.  1.
    -200001    2    1    2    0    0 -0.65314803574E+03  0.89515489850E+03 -0.55306622906E+03  0.13820400443E+04  0.61339039887E+03 0.  0.
   -5000001    2    3    3    0    0 -0.63977615012E+03  0.81841702340E+03 -0.29709378916E+03  0.10960498368E+04  0.18422969014E+03 0.  0.
     200001    1    1    2    0    0  0.65314803574E+03 -0.89515489850E+03 -0.17688089040E+03  0.12786557388E+04  0.61300000000E+03 0.  1.
         11    1    4    4    0    0 -0.30048621851E+03  0.40828358127E+03 -0.53014909272E+02  0.50970386584E+03  0.51100000000E-03 0.  1.
    -200002    1    4    4    0    0 -0.33928993161E+03  0.41013344212E+03 -0.24407887988E+03  0.58634597095E+03  0.30000000000E+02 0.  1.
    -200000    1    3    3    0    0 -0.13371885620E+02  0.76737875101E+02 -0.25597243990E+03  0.28599020751E+03  0.10100000000E+03 0.  1.
<mgrwt>
<rscale>  0 0.25586089E+04</rscale>
<asrwt>0</asrwt>
<pdfrwt beam="1">  1        2 0.24218878E+00 0.25586089E+04</pdfrwt>
<pdfrwt beam="2">  1       -2 0.13791062E+00 0.25586089E+04</pdfrwt>
<totfact> 0.38484202E+00</totfact>
</mgrwt>
</event>
<event>
 8    2  0.7237260E-052  0.3035190E+04  0.7818608E-02  0.8233753E-01
         -2   -1    0    0    0  501 -0.00000000000E+00  0.00000000000E+00  0.19177829209E+04  0.19177829209E+04  0.25500000000E-02 0. -1.
          2   -1    0    0  501    0  0.00000000000E+00 -0.00000000000E+00 -0.12009149824E+04  0.12009149825E+04  0.25500000000E-02 0.  1.
    -200001    2    1    2    0    0  0.10695043266E+04  0.15374174587E+03 -0.53714961107E+03  0.13535335927E+04  0.61322708088E+03 0.  0.
   -5000001    2    3    3    0    0  0.16010118332E+03 -0.11427130647E+03 -0.31040291397E+03  0.37350291053E+03  0.66814181088E+02 0.  0.
     200001    1    1    2    0    0 -0.10695043266E+04 -0.15374174587E+03  0.12540175495E+04  0.17651643107E+04  0.61300000000E+03 0.  1.
         11    1    4    4    0    0  0.58366794041E+02 -0.13819764065E+02 -0.11291336652E+03  0.12785576586E+03  0.51100000000E-03 0.  1.
    -200002    1    4    4    0    0  0.10173438928E+03 -0.10045154240E+03 -0.19748954745E+03  0.24564714467E+03  0.30000000000E+02 0.  1.
    -200000    1    3    3    0    0  0.90940314333E+03  0.26801305234E+03 -0.22674669710E+03  0.98003068215E+03  0.10100000000E+03 0. -1.
<mgrwt>
<rscale>  0 0.30351898E+04</rscale>
<asrwt>0</asrwt>
<pdfrwt beam="1">  1        2 0.17155928E+00 0.30351898E+04</pdfrwt>
<pdfrwt beam="2">  1       -2 0.27396899E+00 0.30351898E+04</pdfrwt>
<totfact> 0.84095216E-01</totfact>
</mgrwt>
</event>
<event>
 8    2  0.7237260E-052  0.1363147E+04  0.7818608E-02  0.8980935E-01
         -2   -1    0    0    0  501 -0.00000000000E+00  0.00000000000E+00  0.86225219510E+03  0.86225219510E+03  0.25500000000E-02 0. -1.
          2   -1    0    0  501    0  0.00000000000E+00 -0.00000000000E+00 -0.53875464897E+03  0.53875464898E+03  0.25500000000E-02 0.  1.
    -200001    2    1    2    0    0 -0.16721001760E+03  0.75256784199E+02  0.39772283916E+03  0.75687862107E+03  0.61729977862E+03 0.  0.
   -5000001    2    3    3    0    0 -0.16144388476E+03  0.15401977825E+03  0.49204905539E+03  0.59770798122E+03  0.25564885661E+03 0.  0.
     200001    1    1    2    0    0  0.16721001760E+03 -0.75256784199E+02 -0.74225293033E+02  0.64412822301E+03  0.61300000000E+03 0.  1.
         11    1    4    4    0    0  0.48669536347E+02 -0.30741283342E+02  0.73505648200E+02  0.93363968357E+02  0.51100000000E-03 0.  1.
    -200002    1    4    4    0    0 -0.21011342111E+03  0.18476106159E+03  0.41854340719E+03  0.50434401286E+03  0.30000000000E+02 0.  1.
    -200000    1    3    3    0    0 -0.57661328458E+01 -0.78762994050E+02 -0.94326216234E+02  0.15917063984E+03  0.10100000000E+03 0.  1.
<mgrwt>
<rscale>  0 0.13631469E+04</rscale>
<asrwt>0</asrwt>
<pdfrwt beam="1">  1        2 0.76964949E-01 0.13631469E+04</pdfrwt>
<pdfrwt beam="2">  1       -2 0.12317889E+00 0.13631469E+04</pdfrwt>
<totfact> 0.29936807E+01</totfact>
</mgrwt>
</event>
<event>
 8    2  0.7237260E-052  0.1361437E+04  0.7818608E-02  0.8982215E-01
          2   -1    0    0  501    0  0.00000000000E+00  0.00000000000E+00  0.28907532235E+04  0.28907532235E+04  0.25500000000E-02 0.  1.
         -2   -1    0    0    0  501 -0.00000000000E+00 -0.00000000000E+00 -0.16029653950E+03  0.16029653952E+03  0.25500000000E-02 0. -1.
    -200001    2    1    2    0    0  0.14708518284E+03 -0.19921654770E+03  0.99902489694E+03  0.11976889462E+04  0.61244328992E+03 0.  0.
   -5000001    2    3    3    0    0 -0.19626019585E+03 -0.20821076345E+03  0.53623294608E+03  0.61258695961E+03  0.76467144176E+02 0.  0.
     200001    1    1    2    0    0 -0.14708518284E+03  0.19921654770E+03  0.17314317871E+04  0.18533608168E+04  0.61300000000E+03 0.  1.
         11    1    4    4    0    0 -0.94766338828E+02 -0.58712729209E+02  0.23364148949E+03  0.25887485231E+03  0.51100000000E-03 0.  1.
    -200002    1    4    4    0    0 -0.10149385702E+03 -0.14949803424E+03  0.30259145658E+03  0.35371210730E+03  0.30000000000E+02 0.  1.
    -200000    1    3    3    0    0  0.34334537869E+03  0.89942157501E+01  0.46279195086E+03  0.58510198664E+03  0.10100000000E+03 0. -1.
<mgrwt>
<rscale>  0 0.13614371E+04</rscale>
<asrwt>0</asrwt>
<pdfrwt beam="1">  1        2 0.41296475E+00 0.13614371E+04</pdfrwt>
<pdfrwt beam="2">  1       -2 0.22899506E-01 0.13614371E+04</pdfrwt>
<totfact> 0.44813971E+01</totfact>
</mgrwt>
</event>
<event>
 8    2  0.7237260E-052  0.1447849E+04  0.7818608E-02  0.8919893E-01
          2   -1    0    0  501    0  0.00000000000E+00  0.00000000000E+00  0.83521364002E+03  0.83521364002E+03  0.25500000000E-02 0.  1.
         -2   -1    0    0    0  501 -0.00000000000E+00 -0.00000000000E+00 -0.62746420886E+03  0.62746420887E+03  0.25500000000E-02 0. -1.
    -200001    2    1    2    0    0  0.14201217234E+03 -0.21181712557E+03 -0.18720735221E+03  0.69015353697E+03  0.61337701301E+03 0.  0.
   -5000001    2    3    3    0    0  0.11024450750E+03 -0.67049913505E+02  0.20822490332E+03  0.25594805689E+03  0.74177187381E+02 0.  0.
     200001    1    1    2    0    0 -0.14201217234E+03  0.21181712557E+03  0.39495678337E+03  0.77252431192E+03  0.61300000000E+03 0.  1.
         11    1    4    4    0    0  0.54525701190E+02 -0.55682220738E+02  0.15077683426E+03  0.16972688516E+03  0.51100000000E-03 0.  1.
    -200002    1    4    4    0    0  0.55718806315E+02 -0.11367692767E+02  0.57448069062E+02  0.86221171732E+02  0.30000000000E+02 0. -1.
    -200000    1    3    3    0    0  0.31767664839E+02 -0.14476721206E+03 -0.39543225553E+03  0.43420548008E+03  0.10100000000E+03 0. -1.
<mgrwt>
<rscale>  0 0.14478490E+04</rscale>
<asrwt>0</asrwt>
<pdfrwt beam="1">  1        2 0.11931623E+00 0.14478490E+04</pdfrwt>
<pdfrwt beam="2">  1       -2 0.89637744E-01 0.14478490E+04</pdfrwt>
<totfact> 0.37252068E+01</totfact>
</mgrwt>
</event>
<event>
 8    2  0.7237260E-052  0.1311421E+04  0.7818608E-02  0.9020557E-01
          2   -1    0    0  501    0  0.00000000000E+00  0.00000000000E+00  0.46865449737E+04  0.46865449737E+04  0.25500000000E-02 0.  1.
         -2   -1    0    0    0  501 -0.00000000000E+00 -0.00000000000E+00 -0.91742631599E+02  0.91742631634E+02  0.25500000000E-02 0. -1.
    -200001    2    1    2    0    0 -0.41111095538E+02 -0.24028945803E+01  0.31304331812E+04  0.31902567695E+04  0.61353928764E+03 0.  0.
   -5000001    2    3    3    0    0 -0.18158520997E+03 -0.42824162681E+02  0.12415278372E+04  0.12930137028E+04  0.30933148505E+03 0.  0.
     200001    1    1    2    0    0  0.41111095538E+02  0.24028945803E+01  0.14643691609E+04  0.15880308358E+04  0.61300000000E+03 0. -1.
         11    1    4    4    0    0 -0.23282843601E+03  0.61680620029E+02  0.80867165329E+03  0.84377924977E+03  0.51100000000E-03 0.  1.
    -200002    1    4    4    0    0  0.51243226039E+02 -0.10450478271E+03  0.43285618391E+03  0.44923445301E+03  0.30000000000E+02 0.  1.
    -200000    1    3    3    0    0  0.14047411443E+03  0.40421268101E+02  0.18889053440E+04  0.18972430667E+04  0.10100000000E+03 0.  1.
<mgrwt>
<rscale>  0 0.13114206E+04</rscale>
<asrwt>0</asrwt>
<pdfrwt beam="1">  1        2 0.66950651E+00 0.13114206E+04</pdfrwt>
<pdfrwt beam="2">  1       -2 0.13106089E-01 0.13114206E+04</pdfrwt>
<totfact> 0.76838708E+00</totfact>
</mgrwt>
</event>
<event>
 8    2  0.7237260E-052  0.1233169E+04  0.7818608E-02  0.9084309E-01
          2   -1    0    0  501    0  0.00000000000E+00  0.00000000000E+00  0.14195913476E+04  0.14195913476E+04  0.25500000000E-02 0.  1.
         -2   -1    0    0    0  501 -0.00000000000E+00 -0.00000000000E+00 -0.26780699185E+03  0.26780699187E+03  0.25500000000E-02 0. -1.
    -200001    2    1    2    0    0  0.10976694894E+02  0.85986619913E+02  0.61072736174E+03  0.86519042332E+03  0.60667319999E+03 0.  0.
   -5000001    2    3    3    0    0  0.98473362829E+02 -0.16406878380E+03  0.17897681200E+02  0.20805162371E+03  0.79684265258E+02 0.  0.
     200001    1    1    2    0    0 -0.10976694894E+02 -0.85986619913E+02  0.54105699404E+03  0.82220791618E+03  0.61300000000E+03 0.  1.
         11    1    4    4    0    0  0.91209645320E+02 -0.12415563056E+03 -0.13092418001E+01  0.15406340939E+03  0.51100000000E-03 0.  1.
    -200002    1    4    4    0    0  0.72637175089E+01 -0.39913153241E+02  0.19206923000E+02  0.53988214314E+02  0.30000000000E+02 0. -1.
    -200000    1    3    3    0    0 -0.87496667934E+02  0.25005540371E+03  0.59282968054E+03  0.65713879961E+03  0.10100000000E+03 0.  1.
<mgrwt>
<rscale>  0 0.12331691E+04</rscale>
<asrwt>0</asrwt>
<pdfrwt beam="1">  1        2 0.20279876E+00 0.12331691E+04</pdfrwt>
<pdfrwt beam="2">  1       -2 0.38258142E-01 0.12331691E+04</pdfrwt>
<totfact> 0.10250042E+02</totfact>
</mgrwt>
</event>
<event>
 8    2  0.7237260E-052  0.1484230E+04  0.7818608E-02  0.8895008E-01
         -2   -1    0    0    0  501 -0.00000000000E+00  0.00000000000E+00  0.11930880589E+04  0.11930880589E+04  0.25500000000E-02 0. -1.
          2   -1    0    0  501    0  0.00000000000E+00 -0.00000000000E+00 -0.46160457261E+03  0.46160457262E+03  0.25500000000E-02 0.  1.
    -200001    2    1    2    0    0  0.12954041276E+03 -0.18648782139E+02  0.80802732729E+03  0.10232209732E+04  0.61395806276E+03 0.  0.
   -5000001    2    3    3    0    0 -0.18294787077E+03  0.15947374490E+03  0.30604118953E+03  0.39746731206E+03  0.73602009055E+02 0.  0.
     200001    1    1    2    0    0 -0.12954041276E+03  0.18648782139E+02 -0.76543840997E+02  0.63147165828E+03  0.61300000000E+03 0.  1.
         11    1    4    4    0    0 -0.13346676257E+03  0.13702211091E+03  0.22311911506E+03  0.29388871209E+03  0.51100000000E-03 0.  1.
    -200002    1    4    4    0    0 -0.49481108206E+02  0.22451633992E+02  0.82922074474E+02  0.10357859998E+03  0.30000000000E+02 0. -1.
    -200000    1    3    3    0    0  0.31248828353E+03 -0.17812252704E+03  0.50198613775E+03  0.62575366118E+03  0.10100000000E+03 0. -1.
<mgrwt>
<rscale>  0 0.14842303E+04</rscale>
<asrwt>0</asrwt>
<pdfrwt beam="1">  1        2 0.65943510E-01 0.14842303E+04</pdfrwt>
<pdfrwt beam="2">  1       -2 0.17044115E+00 0.14842303E+04</pdfrwt>
<totfact> 0.15071367E+01</totfact>
</mgrwt>
</event>
<event>
 8    2  0.7237260E-052  0.1636279E+04  0.7818608E-02  0.8798565E-01
         -2   -1    0    0    0  501 -0.00000000000E+00  0.00000000000E+00  0.11381820650E+04  0.11381820650E+04  0.25500000000E-02 0. -1.
          2   -1    0    0  501    0  0.00000000000E+00 -0.00000000000E+00 -0.58808869153E+03  0.58808869154E+03  0.25500000000E-02 0.  1.
    -200001    2    1    2    0    0 -0.77246743998E+02  0.30841641046E+03  0.73771997401E+03  0.10106867412E+04  0.61332633006E+03 0.  0.
   -5000001    2    3    3    0    0 -0.32696342966E+02  0.47170033127E+03  0.43983697196E+03  0.65350099132E+03  0.10018348365E+03 0.  0.
     200001    1    1    2    0    0  0.77246743998E+02 -0.30841641046E+03 -0.18762660056E+03  0.71558401529E+03  0.61300000000E+03 0.  1.
         11    1    4    4    0    0 -0.30535516697E+02  0.93764991667E+02  0.13409651449E+03  0.16645169461E+03  0.51100000000E-03 0.  1.
    -200002    1    4    4    0    0 -0.21608262693E+01  0.37793533960E+03  0.30574045748E+03  0.48704929671E+03  0.30000000000E+02 0.  1.
    -200000    1    3    3    0    0 -0.44550401032E+02 -0.16328392081E+03  0.29788300205E+03  0.35718574991E+03  0.10100000000E+03 0. -1.
<mgrwt>
<rscale>  0 0.16362787E+04</rscale>
<asrwt>0</asrwt>
<pdfrwt beam="1">  1        2 0.84012671E-01 0.16362787E+04</pdfrwt>
<pdfrwt beam="2">  1       -2 0.16259744E+00 0.16362787E+04</pdfrwt>
<totfact> 0.12830149E+01</totfact>
</mgrwt>
</event>
<event>
 8    2  0.7237260E-052  0.1847555E+04  0.7818608E-02  0.8681411E-01
          2   -1    0    0  501    0  0.00000000000E+00  0.00000000000E+00  0.12563613943E+04  0.12563613943E+04  0.25500000000E-02 0.  1.
         -2   -1    0    0    0  501 -0.00000000000E+00 -0.00000000000E+00 -0.67923552281E+03  0.67923552282E+03  0.25500000000E-02 0. -1.
    -200001    2    1    2    0    0  0.67299933987E+03  0.71989622122E+02  0.13877072325E+03  0.92266313197E+03  0.61150578436E+03 0.  0.
   -5000001    2    3    3    0    0  0.14786666986E+03  0.65733862864E+02  0.26390825560E+03  0.37342378739E+03  0.20883549706E+03 0.  0.
     200001    1    1    2    0    0 -0.67299933987E+03 -0.71989622122E+02  0.43835514829E+03  0.10129337852E+04  0.61300000000E+03 0. -1.
         11    1    4    4    0    0  0.17646609573E+03 -0.99515057189E+01  0.19331987978E+03  0.26193871673E+03  0.51100000000E-03 0.  1.
    -200002    1    4    4    0    0 -0.28599425867E+02  0.75685368583E+02  0.70588375819E+02  0.11148507065E+03  0.30000000000E+02 0.  1.
    -200000    1    3    3    0    0  0.52513267001E+03  0.62557592575E+01 -0.12513753235E+03  0.54923934458E+03  0.10100000000E+03 0. -1.
<mgrwt>
<rscale>  0 0.18475555E+04</rscale>
<asrwt>0</asrwt>
<pdfrwt beam="1">  1        2 0.17948020E+00 0.18475555E+04</pdfrwt>
<pdfrwt beam="2">  1       -2 0.97033646E-01 0.18475555E+04</pdfrwt>
<totfact> 0.16619991E+01</totfact>
</mgrwt>
</event>
<event>
 8    2  0.7237260E-052  0.2107023E+04  0.7818608E-02  0.8558156E-01
          2   -1    0    0  501    0  0.00000000000E+00  0.00000000000E+00  0.18834556295E+04  0.18834556295E+04  0.25500000000E-02 0.  1.
         -2   -1    0    0    0  501 -0.00000000000E+00 -0.00000000000E+00 -0.58928175906E+03  0.58928175907E+03  0.25500000000E-02 0. -1.
    -200001    2    1    2    0    0  0.67044049552E+02 -0.83096692609E+03  0.41512160986E+03  0.11149808516E+04  0.61307047850E+03 0.  0.
   -5000001    2    3    3    0    0  0.26334285807E+02 -0.50551189559E+03  0.54530189498E+03  0.74793021697E+03  0.76221267325E+02 0.  0.
     200001    1    1    2    0    0 -0.67044049552E+02  0.83096692609E+03  0.87905226053E+03  0.13577565369E+04  0.61300000000E+03 0.  1.
         11    1    4    4    0    0  0.15072986929E+02 -0.32639097624E+03  0.30923214634E+03  0.44986974185E+03  0.51100000000E-03 0.  1.
    -200002    1    4    4    0    0  0.11261298879E+02 -0.17912091934E+03  0.23606974865E+03  0.29806047511E+03  0.30000000000E+02 0. -1.
    -200000    1    3    3    0    0  0.40709763745E+02 -0.32545503050E+03 -0.13018028513E+03  0.36705063462E+03  0.10100000000E+03 0. -1.
<mgrwt>
<rscale>  0 0.21070226E+04</rscale>
<asrwt>0</asrwt>
<pdfrwt beam="1">  1        2 0.26906510E+00 0.21070226E+04</pdfrwt>
<pdfrwt beam="2">  1       -2 0.84183106E-01 0.21070226E+04</pdfrwt>
<totfact> 0.10498197E+01</totfact>
</mgrwt>
</event>
<event>
 8    2  0.7237260E-052  0.1374770E+04  0.7818608E-02  0.8972286E-01
          2   -1    0    0  501    0  0.00000000000E+00  0.00000000000E+00  0.73131048748E+03  0.73131048749E+03  0.25500000000E-02 0. -1.
         -2   -1    0    0    0  501 -0.00000000000E+00 -0.00000000000E+00 -0.64609828304E+03  0.64609828304E+03  0.25500000000E-02 0.  1.
    -200001    2    1    2    0    0  0.56420917438E+02 -0.25516266885E+03  0.21391258701E+03  0.69871583851E+03  0.61168122467E+03 0.  0.
   -5000001    2    3    3    0    0  0.26899950082E+03 -0.30962187758E+03  0.16399921957E+03  0.45204236248E+03  0.96021429572E+02 0.  0.
     200001    1    1    2    0    0 -0.56420917438E+02  0.25516266885E+03 -0.12870038256E+03  0.67869293202E+03  0.61300000000E+03 0.  1.
         11    1    4    4    0    0  0.16285856354E+03 -0.19518687104E+03  0.14315520468E+03  0.29174344718E+03  0.51100000000E-03 0.  1.
    -200002    1    4    4    0    0  0.10614093728E+03 -0.11443500654E+03  0.20844014884E+02  0.16029891530E+03  0.30000000000E+02 0.  1.
    -200000    1    3    3    0    0 -0.21257858338E+03  0.54459208734E+02  0.49913367440E+02  0.24667347603E+03  0.10100000000E+03 0. -1.
<mgrwt>
<rscale>  0 0.13747705E+04</rscale>
<asrwt>0</asrwt>
<pdfrwt beam="1">  1        2 0.10447293E+00 0.13747705E+04</pdfrwt>
<pdfrwt beam="2">  1       -2 0.92299755E-01 0.13747705E+04</pdfrwt>
<totfact> 0.41498939E+01</totfact>
</mgrwt>
</event>
<event>
 8    2  0.7237260E-052  0.1278130E+04  0.7818608E-02  0.9047090E-01
          2   -1    0    0  501    0  0.00000000000E+00  0.00000000000E+00  0.26548871839E+04  0.26548871839E+04  0.25500000000E-02 0.  1.
         -2   -1    0    0    0  501 -0.00000000000E+00 -0.00000000000E+00 -0.15383099697E+03  0.15383099699E+03  0.25500000000E-02 0. -1.
    -200001    2    1    2    0    0 -0.99227360649E+02  0.90428999762E+02  0.15170176738E+04  0.16416173848E+04  0.61281444345E+03 0.  0.
   -5000001    2    3    3    0    0  0.14084210385E+03  0.16293655651E+03  0.23431431156E+03  0.33073233672E+03  0.89977009753E+02 0.  0.
     200001    1    1    2    0    0  0.99227360649E+02 -0.90428999762E+02  0.98403851310E+03  0.11671007961E+04  0.61300000000E+03 0. -1.
         11    1    4    4    0    0  0.31510908436E+02  0.10244090615E+02  0.61475356213E+01  0.33699717172E+02  0.51100000000E-03 0.  1.
    -200002    1    4    4    0    0  0.10933119542E+03  0.15269246589E+03  0.22816677594E+03  0.29703261954E+03  0.30000000000E+02 0.  1.
    -200000    1    3    3    0    0 -0.24006946450E+03 -0.72507556745E+02  0.12827033623E+04  0.13108850480E+04  0.10100000000E+03 0.  1.
<mgrwt>
<rscale>  0 0.12781298E+04</rscale>
<asrwt>0</asrwt>
<pdfrwt beam="1">  1        2 0.37926956E+00 0.12781298E+04</pdfrwt>
<pdfrwt beam="2">  1       -2 0.21975859E-01 0.12781298E+04</pdfrwt>
<totfact> 0.65098013E+01</totfact>
</mgrwt>
</event>
<event>
 8    2  0.7237260E-052  0.1609087E+04  0.7818608E-02  0.8814985E-01
          2   -1    0    0  501    0  0.00000000000E+00  0.00000000000E+00  0.73679902116E+03  0.73679902117E+03  0.25500000000E-02 0.  1.
         -2   -1    0    0    0  501 -0.00000000000E+00 -0.00000000000E+00 -0.87851635868E+03  0.87851635868E+03  0.25500000000E-02 0. -1.
    -200001    2    1    2    0    0 -0.31714403890E+03 -0.18950465575E+03 -0.43980818669E+03  0.83999640657E+03  0.61291954285E+03 0.  0.
   -5000001    2    3    3    0    0 -0.17207112669E+03 -0.28870285254E+03 -0.50601657166E+03  0.62675714577E+03  0.15431765704E+03 0.  0.
     200001    1    1    2    0    0  0.31714403890E+03  0.18950465575E+03  0.29809084917E+03  0.77531897328E+03  0.61300000000E+03 0.  1.
         11    1    4    4    0    0 -0.11722320962E+03 -0.27686002288E+03 -0.45423101862E+03  0.54471880031E+03  0.51100000000E-03 0.  1.
    -200002    1    4    4    0    0 -0.54847917073E+02 -0.11842829666E+02 -0.51785553043E+02  0.82038345459E+02  0.30000000000E+02 0.  1.
    -200000    1    3    3    0    0 -0.14507291221E+03  0.99198196792E+02  0.66208384973E+02  0.21323926080E+03  0.10100000000E+03 0. -1.
<mgrwt>
<rscale>  0 0.16090867E+04</rscale>
<asrwt>0</asrwt>
<pdfrwt beam="1">  1        2 0.10525700E+00 0.16090867E+04</pdfrwt>
<pdfrwt beam="2">  1       -2 0.12550234E+00 0.16090867E+04</pdfrwt>
<totfact> 0.19247435E+01</totfact>
</mgrwt>
</event>
<event>
 8    2  0.7237260E-052  0.1782046E+04  0.7818608E-02  0.8715906E-01
         -2   -1    0    0    0  501 -0.00000000000E+00  0.00000000000E+00  0.32123074488E+03  0.32123074489E+03  0.25500000000E-02 0. -1.
          2   -1    0    0  501    0  0.00000000000E+00 -0.00000000000E+00 -0.24715001672E+04  0.24715001672E+04  0.25500000000E-02 0.  1.
    -200001    2    1    2    0    0 -0.33801423189E+03 -0.16416060262E+03 -0.19000904573E+04  0.20314419794E+04  0.61254423957E+03 0.  0.
   -5000001    2    3    3    0    0 -0.47124527325E+03 -0.16506533857E+03 -0.11114488561E+04  0.12252733221E+04  0.12906386223E+03 0.  0.
     200001    1    1    2    0    0  0.33801423189E+03  0.16416060262E+03 -0.25017896496E+03  0.76128893261E+03  0.61300000000E+03 0. -1.
         11    1    4    4    0    0 -0.19071880365E+02 -0.14775730731E+02 -0.14867000123E+03  0.15061483361E+03  0.51100000000E-03 0.  1.
    -200002    1    4    4    0    0 -0.45217339289E+03 -0.15028960784E+03 -0.96277885492E+03  0.10746584885E+04  0.30000000000E+02 0.  1.
    -200000    1    3    3    0    0  0.13323104136E+03  0.90473595191E+00 -0.78864160117E+03  0.80616865731E+03  0.10100000000E+03 0.  1.
<mgrwt>
<rscale>  0 0.17820458E+04</rscale>
<asrwt>0</asrwt>
<pdfrwt beam="1">  1        2 0.35307144E+00 0.17820458E+04</pdfrwt>
<pdfrwt beam="2">  1       -2 0.45890108E-01 0.17820458E+04</pdfrwt>
<totfact> 0.19487249E+01</totfact>
</mgrwt>
</event>
<event>
 8    2  0.7237260E-052  0.2371388E+04  0.7818608E-02  0.8450294E-01
          2   -1    0    0  501    0  0.00000000000E+00  0.00000000000E+00  0.15008377000E+04  0.15008377000E+04  0.25500000000E-02 0.  1.
         -2   -1    0    0    0  501 -0.00000000000E+00 -0.00000000000E+00 -0.93672383335E+03  0.93672383336E+03  0.25500000000E-02 0. -1.
    -200001    2    1    2    0    0  0.74248647834E+03 -0.47966736396E+03  0.79480102183E+03  0.13374013113E+04  0.61283493096E+03 0.  0.
   -5000001    2    3    3    0    0  0.72745564447E+03 -0.57017689490E+03  0.72904526935E+03  0.11859327662E+04  0.14365275890E+03 0.  0.
     200001    1    1    2    0    0 -0.74248647834E+03  0.47966736396E+03 -0.23068715521E+03  0.11001602220E+04  0.61300000000E+03 0. -1.
         11    1    4    4    0    0  0.83487795759E+02 -0.43972722091E+02  0.12976893773E+03  0.16044871308E+03  0.51100000000E-03 0.  1.
    -200002    1    4    4    0    0  0.64396784871E+03 -0.52620417281E+03  0.59927633162E+03  0.10254840532E+04  0.30000000000E+02 0. -1.
    -200000    1    3    3    0    0  0.15030833870E+02  0.90509530943E+02  0.65755752484E+02  0.15146854506E+03  0.10100000000E+03 0. -1.
<mgrwt>
<rscale>  0 0.23713882E+04</rscale>
<asrwt>0</asrwt>
<pdfrwt beam="1">  1        2 0.21440539E+00 0.23713882E+04</pdfrwt>
<pdfrwt beam="2">  1       -2 0.13381769E+00 0.23713882E+04</pdfrwt>
<totfact> 0.53412992E+00</totfact>
</mgrwt>
</event>
<event>
 8    2  0.7237260E-052  0.1308656E+04  0.7818608E-02  0.9022729E-01
         -2   -1    0    0    0  501 -0.00000000000E+00  0.00000000000E+00  0.15835061643E+03  0.15835061646E+03  0.25500000000E-02 0. -1.
          2   -1    0    0  501    0  0.00000000000E+00 -0.00000000000E+00 -0.27037810164E+04  0.27037810164E+04  0.25500000000E-02 0.  1.
    -200001    2    1    2    0    0 -0.28887933591E+02 -0.11708262990E+03 -0.17001744171E+04  0.18110514592E+04  0.61218582499E+03 0.  0.
   -5000001    2    3    3    0    0 -0.19013459012E+03 -0.16960523814E+03 -0.15217284701E+04  0.15449630066E+04  0.79599345246E+02 0.  0.
     200001    1    1    2    0    0  0.28887933591E+02  0.11708262990E+03 -0.84525598289E+03  0.10510801737E+04  0.61300000000E+03 0. -1.
         11    1    4    4    0    0 -0.48249958058E+02 -0.84687842272E+02 -0.63720798851E+03  0.64461935257E+03  0.51100000000E-03 0.  1.
    -200002    1    4    4    0    0 -0.14188463206E+03 -0.84917395871E+02 -0.88452048159E+03  0.90034365399E+03  0.30000000000E+02 0.  1.
    -200000    1    3    3    0    0  0.16124665653E+03  0.52522608239E+02 -0.17844594700E+03  0.26608845262E+03  0.10100000000E+03 0. -1.
<mgrwt>
<rscale>  0 0.13086564E+04</rscale>
<asrwt>0</asrwt>
<pdfrwt beam="1">  1        2 0.38625440E+00 0.13086564E+04</pdfrwt>
<pdfrwt beam="2">  1       -2 0.22621518E-01 0.13086564E+04</pdfrwt>
<totfact> 0.58072155E+01</totfact>
</mgrwt>
</event>
<event>
 8    2  0.7237260E-052  0.1537981E+04  0.7818608E-02  0.8859582E-01
         -2   -1    0    0    0  501 -0.00000000000E+00  0.00000000000E+00  0.24533015903E+03  0.24533015904E+03  0.25500000000E-02 0. -1.
          2   -1    0    0  501    0  0.00000000000E+00 -0.00000000000E+00 -0.24104095546E+04  0.24104095546E+04  0.25500000000E-02 0.  1.
    -200001    2    1    2    0    0 -0.33294575255E+03 -0.30147086541E+03 -0.12855995057E+04  0.14934181430E+04  0.61302047600E+03 0.  0.
   -5000001    2    3    3    0    0 -0.31220544901E+03 -0.42326478238E+03 -0.11994858110E+04  0.13120883693E+04  0.78640700976E+02 0.  0.
     200001    1    1    2    0    0  0.33294575255E+03  0.30147086541E+03 -0.87947988983E+03  0.11623215706E+04  0.61300000000E+03 0.  1.
         11    1    4    4    0    0 -0.14651473872E+03 -0.24186684077E+03 -0.68872396799E+03  0.74451785835E+03  0.51100000000E-03 0.  1.
    -200002    1    4    4    0    0 -0.16569071030E+03 -0.18139794162E+03 -0.51076184298E+03  0.56757051099E+03  0.30000000000E+02 0.  1.
    -200000    1    3    3    0    0 -0.20740303543E+02  0.12179391697E+03 -0.86113694756E+02  0.18132977369E+03  0.10100000000E+03 0.  1.
<mgrwt>
<rscale>  0 0.15379807E+04</rscale>
<asrwt>0</asrwt>
<pdfrwt beam="1">  1        2 0.34434421E+00 0.15379807E+04</pdfrwt>
<pdfrwt beam="2">  1       -2 0.35047167E-01 0.15379807E+04</pdfrwt>
<totfact> 0.36267503E+01</totfact>
</mgrwt>
</event>
<event>
 8    2  0.7237260E-052  0.1229715E+04  0.7818608E-02  0.9087237E-01
         -2   -1    0    0    0  501 -0.00000000000E+00  0.00000000000E+00  0.12211713519E+04  0.12211713519E+04  0.25500000000E-02 0. -1.
          2   -1    0    0  501    0  0.00000000000E+00 -0.00000000000E+00 -0.30957962922E+03  0.30957962923E+03  0.25500000000E-02 0.  1.
    -200001    2    1    2    0    0 -0.32588334501E+02  0.39511633158E+02  0.42644579872E+03  0.74732342466E+03  0.61156611507E+03 0.  0.
   -5000001    2    3    3    0    0 -0.10434083462E+03  0.17251574595E+03 -0.63651010036E+02  0.22460514753E+03  0.75811139346E+02 0.  0.
     200001    1    1    2    0    0  0.32588334501E+02 -0.39511633158E+02  0.48514592394E+03  0.78342755646E+03  0.61300000000E+03 0. -1.
         11    1    4    4    0    0  0.68822246788E+01  0.71310533156E+01 -0.13784418542E+02  0.16977253391E+02  0.51100000000E-03 0.  1.
    -200002    1    4    4    0    0 -0.11122305930E+03  0.16538469264E+03 -0.49866591494E+02  0.20762789414E+03  0.30000000000E+02 0.  1.
    -200000    1    3    3    0    0  0.71752500123E+02 -0.13300411279E+03  0.49009680875E+03  0.52271827713E+03  0.10100000000E+03 0. -1.
<mgrwt>
<rscale>  0 0.12297150E+04</rscale>
<asrwt>0</asrwt>
<pdfrwt beam="1">  1        2 0.44225661E-01 0.12297150E+04</pdfrwt>
<pdfrwt beam="2">  1       -2 0.17445305E+00 0.12297150E+04</pdfrwt>
<totfact> 0.22482820E+01</totfact>
</mgrwt>
</event>
<event>
 8    2  0.7237260E-052  0.1430884E+04  0.7818608E-02  0.8931762E-01
          2   -1    0    0  501    0  0.00000000000E+00  0.00000000000E+00  0.30915141238E+04  0.30915141238E+04  0.25500000000E-02 0.  1.
         -2   -1    0    0    0  501 -0.00000000000E+00 -0.00000000000E+00 -0.16556847586E+03  0.16556847588E+03  0.25500000000E-02 0. -1.
    -200001    2    1    2    0    0 -0.14208907055E+03  0.13308649330E+03  0.21737083857E+04  0.22673699053E+04  0.61486325535E+03 0.  0.
   -5000001    2    3    3    0    0 -0.14887909418E+03  0.30678344622E+03  0.18282803525E+04  0.18676972117E+04  0.17147232961E+03 0.  0.
     200001    1    1    2    0    0  0.14208907055E+03 -0.13308649330E+03  0.75223726221E+03  0.98971269433E+03  0.61300000000E+03 0. -1.
         11    1    4    4    0    0 -0.10599924400E+03  0.29430591519E+03  0.13191242965E+04  0.13557067238E+04  0.51100000000E-03 0.  1.
    -200002    1    4    4    0    0 -0.42879850185E+02  0.12477531027E+02  0.50915605606E+03  0.51199048795E+03  0.30000000000E+02 0.  1.
    -200000    1    3    3    0    0  0.67900236295E+01 -0.17369695292E+03  0.34542803322E+03  0.39967269360E+03  0.10100000000E+03 0. -1.
<mgrwt>
<rscale>  0 0.14308840E+04</rscale>
<asrwt>0</asrwt>
<pdfrwt beam="1">  1        2 0.44164489E+00 0.14308840E+04</pdfrwt>
<pdfrwt beam="2">  1       -2 0.23652639E-01 0.14308840E+04</pdfrwt>
<totfact> 0.32509560E+01</totfact>
</mgrwt>
</event>
<event>
 8    2  0.7237260E-052  0.1556053E+04  0.7818608E-02  0.8848010E-01
         -2   -1    0    0    0  501 -0.00000000000E+00  0.00000000000E+00  0.38975665653E+03  0.38975665654E+03  0.25500000000E-02 0. -1.
          2   -1    0    0  501    0  0.00000000000E+00 -0.00000000000E+00 -0.15530856890E+04  0.15530856890E+04  0.25500000000E-02 0.  1.
    -200001    2    1    2    0    0 -0.32432532860E+03  0.18208764155E+03 -0.20327301741E+03  0.74458553666E+03  0.61216409061E+03 0.  0.
   -5000001    2    3    3    0    0 -0.14214400850E+03 -0.12604045947E+03  0.13141918270E+03  0.24423283222E+03  0.79294124493E+02 0.  0.
     200001    1    1    2    0    0  0.32432532860E+03 -0.18208764155E+03 -0.96005601507E+03  0.11982568089E+04  0.61300000000E+03 0.  1.
         11    1    4    4    0    0  0.24725199020E+01 -0.28749146219E+02  0.21689198073E+02  0.36097757220E+02  0.51100000000E-03 0.  1.
    -200002    1    4    4    0    0 -0.14461652840E+03 -0.97291313254E+02  0.10972998462E+03  0.20813507500E+03  0.30000000000E+02 0.  1.
    -200000    1    3    3    0    0 -0.18218132010E+03  0.30812810102E+03 -0.33469220010E+03  0.50035270444E+03  0.10100000000E+03 0. -1.
<mgrwt>
<rscale>  0 0.15560533E+04</rscale>
<asrwt>0</asrwt>
<pdfrwt beam="1">  1        2 0.22186938E+00 0.15560533E+04</pdfrwt>
<pdfrwt beam="2">  1       -2 0.55679523E-01 0.15560533E+04</pdfrwt>
<totfact> 0.40008907E+01</totfact>
</mgrwt>
</event>
<event>
 8    2  0.7237260E-052  0.1268626E+04  0.7818608E-02  0.9054822E-01
          2   -1    0    0  501    0  0.00000000000E+00  0.00000000000E+00  0.16098121694E+04  0.16098121694E+04  0.25500000000E-02 0.  1.
         -2   -1    0    0    0  501 -0.00000000000E+00 -0.00000000000E+00 -0.24993788013E+03  0.24993788015E+03  0.25500000000E-02 0. -1.
    -200001    2    1    2    0    0 -0.46056649286E+02  0.36752441093E+02  0.45691521471E+03  0.76678342279E+03  0.61295460449E+03 0.  0.
   -5000001    2    3    3    0    0 -0.20790800324E+03  0.23123160287E+03  0.23441049935E+03  0.41503443061E+03  0.14356707288E+03 0.  0.
     200001    1    1    2    0    0  0.46056649286E+02 -0.36752441093E+02  0.90295907454E+03  0.10929666267E+04  0.61300000000E+03 0.  1.
         11    1    4    4    0    0 -0.25712528798E+02 -0.39128265016E+01 -0.10995271017E+02  0.28237215397E+02  0.51100000000E-03 0.  1.
    -200002    1    4    4    0    0 -0.18219547444E+03  0.23514442937E+03  0.24540577037E+03  0.38679721522E+03  0.30000000000E+02 0.  1.
    -200000    1    3    3    0    0  0.16185135395E+03 -0.19447916177E+03  0.22250471536E+03  0.35174899218E+03  0.10100000000E+03 0. -1.
<mgrwt>
<rscale>  0 0.12686261E+04</rscale>
<asrwt>0</asrwt>
<pdfrwt beam="1">  1        2 0.22997317E+00 0.12686261E+04</pdfrwt>
<pdfrwt beam="2">  1       -2 0.35705411E-01 0.12686261E+04</pdfrwt>
<totfact> 0.92578840E+01</totfact>
</mgrwt>
</event>
<event>
 8    2  0.7237260E-052  0.1250970E+04  0.7818608E-02  0.9069377E-01
          2   -1    0    0  501    0  0.00000000000E+00  0.00000000000E+00  0.38760461572E+04  0.38760461572E+04  0.25500000000E-02 0.  1.
         -2   -1    0    0    0  501 -0.00000000000E+00 -0.00000000000E+00 -0.10093567143E+03  0.10093567146E+03  0.25500000000E-02 0. -1.
    -200001    2    1    2    0    0 -0.67071371927E+02 -0.39841163268E+02  0.15873964814E+04  0.17036698280E+04  0.61365903122E+03 0.  0.
   -5000001    2    3    3    0    0 -0.22767028087E+03 -0.28555950719E+02  0.81727697963E+03  0.91044576601E+03  0.32912099949E+03 0.  0.
     200001    1    1    2    0    0  0.67071371927E+02  0.39841163268E+02  0.21877140044E+04  0.22733120006E+04  0.61300000000E+03 0.  1.
         11    1    4    4    0    0  0.21415259150E+02 -0.73196608273E+02  0.48879697654E+03  0.49471086613E+03  0.51100000000E-03 0.  1.
    -200002    1    4    4    0    0 -0.24908554002E+03  0.44640657554E+02  0.32848000309E+03  0.41573489988E+03  0.30000000000E+02 0.  1.
    -200000    1    3    3    0    0  0.16059890894E+03 -0.11285212549E+02  0.77011950176E+03  0.79322406202E+03  0.10100000000E+03 0. -1.
<mgrwt>
<rscale>  0 0.12509697E+04</rscale>
<asrwt>0</asrwt>
<pdfrwt beam="1">  1        2 0.55372086E+00 0.12509697E+04</pdfrwt>
<pdfrwt beam="2">  1       -2 0.14419382E-01 0.12509697E+04</pdfrwt>
<totfact> 0.26223958E+01</totfact>
</mgrwt>
</event>
<event>
 8    2  0.7237260E-052  0.1666600E+04  0.7818608E-02  0.8780646E-01
         -2   -1    0    0    0  501 -0.00000000000E+00  0.00000000000E+00  0.41770171955E+03  0.41770171955E+03  0.25500000000E-02 0. -1.
          2   -1    0    0  501    0  0.00000000000E+00 -0.00000000000E+00 -0.16624041145E+04  0.16624041145E+04  0.25500000000E-02 0.  1.
    -200001    2    1    2    0    0 -0.29733069026E+03  0.46515611943E+03 -0.76870506543E+03  0.11276782974E+04  0.61316809286E+03 0.  0.
   -5000001    2    3    3    0    0 -0.70589646348E+02  0.16419180335E+03  0.60176422492E+02  0.21157975386E+03  0.95931975683E+02 0.  0.
     200001    1    1    2    0    0  0.29733069026E+03 -0.46515611943E+03 -0.47599732957E+03  0.95242753666E+03  0.61300000000E+03 0.  1.
         11    1    4    4    0    0 -0.60637711331E+02  0.15925548606E+03  0.55677734243E+02  0.17927423676E+03  0.51100000000E-03 0.  1.
    -200002    1    4    4    0    0 -0.99519350169E+01  0.49363172960E+01  0.44986882498E+01  0.32305517098E+02  0.30000000000E+02 0. -1.
    -200000    1    3    3    0    0 -0.22674104392E+03  0.30096431608E+03 -0.82888148792E+03  0.91609854359E+03  0.10100000000E+03 0.  1.
<mgrwt>
<rscale>  0 0.16666002E+04</rscale>
<asrwt>0</asrwt>
<pdfrwt beam="1">  1        2 0.23748630E+00 0.16666002E+04</pdfrwt>
<pdfrwt beam="2">  1       -2 0.59671675E-01 0.16666002E+04</pdfrwt>
<totfact> 0.30065086E+01</totfact>
</mgrwt>
</event>
<event>
 8    2  0.7237260E-052  0.1435063E+04  0.7818608E-02  0.8928822E-01
          2   -1    0    0  501    0  0.00000000000E+00  0.00000000000E+00  0.25116379637E+04  0.25116379637E+04  0.25500000000E-02 0.  1.
         -2   -1    0    0    0  501 -0.00000000000E+00 -0.00000000000E+00 -0.20498642308E+03  0.20498642310E+03  0.25500000000E-02 0. -1.
    -200001    2    1    2    0    0  0.23331574814E+03 -0.19764110400E+03  0.15572486818E+04  0.17013057722E+04  0.61312285004E+03 0.  0.
   -5000001    2    3    3    0    0  0.33738135067E+03 -0.15700857810E+03  0.14863640514E+04  0.15348537292E+04  0.89554493946E+02 0.  0.
     200001    1    1    2    0    0 -0.23331574814E+03  0.19764110400E+03  0.74940285874E+03  0.10153186145E+04  0.61300000000E+03 0. -1.
         11    1    4    4    0    0  0.28753717722E+03 -0.11302122162E+03  0.11598373555E+04  0.12002808488E+04  0.51100000000E-03 0.  1.
    -200002    1    4    4    0    0  0.49844173448E+02 -0.43987356483E+02  0.32652669591E+03  0.33457288040E+03  0.30000000000E+02 0.  1.
    -200000    1    3    3    0    0 -0.10406560253E+03 -0.40632525894E+02  0.70884630407E+02  0.16645204300E+03  0.10100000000E+03 0. -1.
<mgrwt>
<rscale>  0 0.14350633E+04</rscale>
<asrwt>0</asrwt>
<pdfrwt beam="1">  1        2 0.35880544E+00 0.14350633E+04</pdfrwt>
<pdfrwt beam="2">  1       -2 0.29283773E-01 0.14350633E+04</pdfrwt>
<totfact> 0.45406405E+01</totfact>
</mgrwt>
</event>
<event>
 8    2  0.7237260E-052  0.1514487E+04  0.7818608E-02  0.8874876E-01
         -2   -1    0    0    0  501 -0.00000000000E+00  0.00000000000E+00  0.18438497337E+03  0.18438497339E+03  0.25500000000E-02 0. -1.
          2   -1    0    0  501    0  0.00000000000E+00 -0.00000000000E+00 -0.31098952346E+04  0.31098952346E+04  0.25500000000E-02 0.  1.
    -200001    2    1    2    0    0 -0.12867544845E+03  0.27035058634E+03 -0.21777491133E+04  0.22820734381E+04  0.61287940582E+03 0.  0.
   -5000001    2    3    3    0    0 -0.22444092856E+03 -0.10514754683E+03 -0.11549112515E+04  0.11836344700E+04  0.75768217295E+02 0.  0.
     200001    1    1    2    0    0  0.12867544845E+03 -0.27035058634E+03 -0.74776114797E+03  0.10122067699E+04  0.61300000000E+03 0. -1.
         11    1    4    4    0    0 -0.16151107116E+03 -0.97101893322E+02 -0.87447014520E+03  0.89454605171E+03  0.51100000000E-03 0.  1.
    -200002    1    4    4    0    0 -0.62929857392E+02 -0.80456535102E+01 -0.28044110626E+03  0.28908841826E+03  0.30000000000E+02 0. -1.
    -200000    1    3    3    0    0  0.95765480108E+02  0.37549813317E+03 -0.10228378618E+04  0.10984389681E+04  0.10100000000E+03 0. -1.
<mgrwt>
<rscale>  0 0.15144873E+04</rscale>
<asrwt>0</asrwt>
<pdfrwt beam="1">  1        2 0.44427072E+00 0.15144873E+04</pdfrwt>
<pdfrwt beam="2">  1       -2 0.26340712E-01 0.15144873E+04</pdfrwt>
<totfact> 0.25917912E+01</totfact>
</mgrwt>
</event>
<event>
 8    2  0.7237260E-052  0.1899289E+04  0.7818608E-02  0.8655211E-01
         -2   -1    0    0    0  501 -0.00000000000E+00  0.00000000000E+00  0.43598032982E+03  0.43598032983E+03  0.25500000000E-02 0. -1.
          2   -1    0    0  501    0  0.00000000000E+00 -0.00000000000E+00 -0.20684976750E+04  0.20684976750E+04  0.25500000000E-02 0.  1.
    -200001    2    1    2    0    0 -0.15299909878E+03 -0.25521818012E+03  0.55979122885E+02  0.68367203868E+03  0.61296716926E+03 0.  0.
   -5000001    2    3    3    0    0  0.40646405495E+02 -0.40012583779E+03  0.39731022406E+02  0.42106622887E+03  0.11817528763E+03 0.  0.
     200001    1    1    2    0    0  0.15299909878E+03  0.25521818012E+03 -0.16884964681E+04  0.18208059662E+04  0.61300000000E+03 0.  1.
         11    1    4    4    0    0  0.15662268082E+02 -0.43099854966E+02 -0.30547790805E+02  0.55100559551E+02  0.51100000000E-03 0.  1.
    -200002    1    4    4    0    0  0.24984137412E+02 -0.35702598283E+03  0.70278813211E+02  0.36596566932E+03  0.30000000000E+02 0.  1.
    -200000    1    3    3    0    0 -0.19364550427E+03  0.14490765767E+03  0.16248100479E+02  0.26260580981E+03  0.10100000000E+03 0. -1.
<mgrwt>
<rscale>  0 0.18992886E+04</rscale>
<asrwt>0</asrwt>
<pdfrwt beam="1">  1        2 0.29549966E+00 0.18992886E+04</pdfrwt>
<pdfrwt beam="2">  1       -2 0.62282905E-01 0.18992886E+04</pdfrwt>
<totfact> 0.16625580E+01</totfact>
</mgrwt>
</event>
<event>
 8    2  0.7237260E-052  0.1401889E+04  0.7818608E-02  0.8952452E-01
          2   -1    0    0  501    0  0.00000000000E+00  0.00000000000E+00  0.83505976387E+03  0.83505976387E+03  0.25500000000E-02 0.  1.
         -2   -1    0    0    0  501 -0.00000000000E+00 -0.00000000000E+00 -0.58836877337E+03  0.58836877337E+03  0.25500000000E-02 0. -1.
    -200001    2    1    2    0    0 -0.32158733783E+03  0.61965974131E+02  0.21791706789E+03  0.72783157318E+03  0.61236651822E+03 0.  0.
   -5000001    2    3    3    0    0 -0.95547130387E+02 -0.60205912701E+02 -0.18925311525E+03  0.23588777217E+03  0.84096928460E+02 0.  0.
     200001    1    1    2    0    0  0.32158733783E+03 -0.61965974131E+02  0.28773922612E+02  0.69559696407E+03  0.61300000000E+03 0. -1.
         11    1    4    4    0    0 -0.63429497214E+02  0.16482324660E+01 -0.69391131488E+02  0.94027373230E+02  0.51100000000E-03 0.  1.
    -200002    1    4    4    0    0 -0.32117633173E+02 -0.61854145167E+02 -0.11986198376E+03  0.14186039894E+03  0.30000000000E+02 0.  1.
    -200000    1    3    3    0    0 -0.22604020744E+03  0.12217188683E+03  0.40717018314E+03  0.49194380101E+03  0.10100000000E+03 0.  1.
<mgrwt>
<rscale>  0 0.14018889E+04</rscale>
<asrwt>0</asrwt>
<pdfrwt beam="1">  1        2 0.11929425E+00 0.14018889E+04</pdfrwt>
<pdfrwt beam="2">  1       -2 0.84052682E-01 0.14018889E+04</pdfrwt>
<totfact> 0.43314033E+01</totfact>
</mgrwt>
</event>
<event>
 8    2  0.7237260E-052  0.1293831E+04  0.7818608E-02  0.9034472E-01
         -2   -1    0    0    0  501 -0.00000000000E+00  0.00000000000E+00  0.13474260810E+03  0.13474260812E+03  0.25500000000E-02 0. -1.
          2   -1    0    0  501    0  0.00000000000E+00 -0.00000000000E+00 -0.31059188947E+04  0.31059188947E+04  0.25500000000E-02 0.  1.
    -200001    2    1    2    0    0 -0.16741659410E+03 -0.10969769726E+02 -0.17880985012E+04  0.18976832088E+04  0.61298993406E+03 0.  0.
   -5000001    2    3    3    0    0 -0.16101234743E+02 -0.26604766722E+03 -0.71291224858E+03  0.77777805678E+03  0.16016934927E+03 0.  0.
     200001    1    1    2    0    0  0.16741659410E+03  0.10969769726E+02 -0.11830777855E+04  0.13429782941E+04  0.61300000000E+03 0. -1.
         11    1    4    4    0    0 -0.79371869910E+02 -0.16022460182E+03 -0.34474121006E+03  0.38835334255E+03  0.51100000000E-03 0.  1.
    -200002    1    4    4    0    0  0.63270635167E+02 -0.10582306540E+03 -0.36817103852E+03  0.38942471423E+03  0.30000000000E+02 0.  1.
    -200000    1    3    3    0    0 -0.15131535936E+03  0.25507789749E+03 -0.10751862526E+04  0.11199051520E+04  0.10100000000E+03 0. -1.
<mgrwt>
<rscale>  0 0.12938309E+04</rscale>
<asrwt>0</asrwt>
<pdfrwt beam="1">  1        2 0.44370265E+00 0.12938309E+04</pdfrwt>
<pdfrwt beam="2">  1       -2 0.19248946E-01 0.12938309E+04</pdfrwt>
<totfact> 0.46559824E+01</totfact>
</mgrwt>
</event>
<event>
 8    2  0.7237260E-052  0.1268943E+04  0.7818608E-02  0.9054563E-01
          2   -1    0    0  501    0  0.00000000000E+00  0.00000000000E+00  0.19529644526E+04  0.19529644526E+04  0.25500000000E-02 0.  1.
         -2   -1    0    0    0  501 -0.00000000000E+00 -0.00000000000E+00 -0.20612455595E+03  0.20612455597E+03  0.25500000000E-02 0. -1.
    -200001    2    1    2    0    0  0.10349632231E+03  0.11633634542E+03  0.77417196130E+03  0.99887456871E+03  0.61168827383E+03 0.  0.
   -5000001    2    3    3    0    0 -0.59524716345E+02 -0.96095741409E+02 -0.30220391781E+02  0.14508811516E+03  0.85788727164E+02 0.  0.
     200001    1    1    2    0    0 -0.10349632231E+03 -0.11633634542E+03  0.97266793531E+03  0.11602144398E+04  0.61300000000E+03 0. -1.
         11    1    4    4    0    0 -0.56662756348E+02 -0.59890446196E+02 -0.47215535663E+02  0.95009685352E+02  0.51100000000E-03 0.  1.
    -200002    1    4    4    0    0 -0.28619599970E+01 -0.36205295213E+02  0.16995143882E+02  0.50078429808E+02  0.30000000000E+02 0. -1.
    -200000    1    3    3    0    0  0.16302103865E+03  0.21243208683E+03  0.80439235309E+03  0.85378645355E+03  0.10100000000E+03 0.  1.
<mgrwt>
<rscale>  0 0.12689428E+04</rscale>
<asrwt>0</asrwt>
<pdfrwt beam="1">  1        2 0.27899495E+00 0.12689428E+04</pdfrwt>
<pdfrwt beam="2">  1       -2 0.29446362E-01 0.12689428E+04</pdfrwt>
<totfact> 0.88510208E+01</totfact>
</mgrwt>
</event>
<event>
 8    2  0.7237260E-052  0.1401860E+04  0.7818608E-02  0.8952474E-01
          2   -1    0    0  501    0  0.00000000000E+00  0.00000000000E+00  0.13327441738E+04  0.13327441738E+04  0.25500000000E-02 0.  1.
         -2   -1    0    0    0  501 -0.00000000000E+00 -0.00000000000E+00 -0.36863985628E+03  0.36863985629E+03  0.25500000000E-02 0. -1.
    -200001    2    1    2    0    0 -0.85437873358E+01  0.31977720720E+03  0.62221248998E+03  0.93002841803E+03  0.61275934681E+03 0.  0.
   -5000001    2    3    3    0    0  0.22218904971E+03  0.15974917888E+03  0.41785332232E+03  0.56835137792E+03  0.27117174603E+03 0.  0.
     200001    1    1    2    0    0  0.85437873358E+01 -0.31977720720E+03  0.34189182756E+03  0.77135561209E+03  0.61300000000E+03 0. -1.
         11    1    4    4    0    0  0.77296174084E+02 -0.74424438996E+02  0.99220510310E+02  0.14614515153E+03  0.51100000000E-03 0.  1.
    -200002    1    4    4    0    0  0.14489287562E+03  0.23417361788E+03  0.31863281201E+03  0.42220622639E+03  0.30000000000E+02 0.  1.
    -200000    1    3    3    0    0 -0.23073283704E+03  0.16002802832E+03  0.20435916767E+03  0.36167704012E+03  0.10100000000E+03 0. -1.
<mgrwt>
<rscale>  0 0.14018597E+04</rscale>
<asrwt>0</asrwt>
<pdfrwt beam="1">  1        2 0.19039203E+00 0.14018597E+04</pdfrwt>
<pdfrwt beam="2">  1       -2 0.52662836E-01 0.14018597E+04</pdfrwt>
<totfact> 0.59666196E+01</totfact>
</mgrwt>
</event>
<event>
 8    2  0.7237260E-052  0.1365506E+04  0.7818608E-02  0.8979173E-01
          2   -1    0    0  501    0  0.00000000000E+00  0.00000000000E+00  0.14314204754E+04  0.14314204754E+04  0.25500000000E-02 0.  1.
         -2   -1    0    0    0  501 -0.00000000000E+00 -0.00000000000E+00 -0.32565673851E+03  0.32565673852E+03  0.25500000000E-02 0. -1.
    -200001    2    1    2    0    0  0.15052128543E+03 -0.24831885725E+03  0.66546354146E+03  0.94840411909E+03  0.61017189043E+03 0.  0.
   -5000001    2    3    3    0    0  0.22242637452E+03 -0.13237081148E+03  0.71588194899E+03  0.77132417394E+03  0.12433218652E+03 0.  0.
     200001    1    1    2    0    0 -0.15052128543E+03  0.24831885725E+03  0.44030019546E+03  0.80867309486E+03  0.61300000000E+03 0.  1.
         11    1    4    4    0    0  0.14868373089E+03 -0.62770538175E+02  0.56124053527E+03  0.58398452952E+03  0.51100000000E-03 0.  1.
    -200002    1    4    4    0    0  0.73742643632E+02 -0.69600273302E+02  0.15464141372E+03  0.18733964442E+03  0.30000000000E+02 0.  1.
    -200000    1    3    3    0    0 -0.71905089091E+02 -0.11594804577E+03 -0.50418407536E+02  0.17707994515E+03  0.10100000000E+03 0. -1.
<mgrwt>
<rscale>  0 0.13655061E+04</rscale>
<asrwt>0</asrwt>
<pdfrwt beam="1">  1        2 0.20448864E+00 0.13655061E+04</pdfrwt>
<pdfrwt beam="2">  1       -2 0.46522390E-01 0.13655061E+04</pdfrwt>
<totfact> 0.68033152E+01</totfact>
</mgrwt>
</event>
<event>
 8    2  0.7237260E-052  0.1577435E+04  0.7818608E-02  0.8834532E-01
         -2   -1    0    0    0  501 -0.00000000000E+00  0.00000000000E+00  0.36697334539E+03  0.36697334540E+03  0.25500000000E-02 0. -1.
          2   -1    0    0  501    0  0.00000000000E+00 -0.00000000000E+00 -0.16951507798E+04  0.16951507798E+04  0.25500000000E-02 0.  1.
    -200001    2    1    2    0    0  0.18671698547E+03  0.41752220568E+03 -0.91441502901E+03  0.11925516136E+04  0.61387008465E+03 0.  0.
   -5000001    2    3    3    0    0  0.12734755949E+03  0.34975964325E+02  0.36883562213E+02  0.16054562270E+03  0.83509166061E+02 0.  0.
     200001    1    1    2    0    0 -0.18671698547E+03 -0.41752220568E+03 -0.41376240541E+03  0.86957251166E+03  0.61300000000E+03 0. -1.
         11    1    4    4    0    0 -0.10307873203E+02  0.45681106963E+01  0.72368408356E+01  0.13397453148E+02  0.51100000000E-03 0.  1.
    -200002    1    4    4    0    0  0.13765543270E+03  0.30407853629E+02  0.29646721378E+02  0.14714816955E+03  0.30000000000E+02 0.  1.
    -200000    1    3    3    0    0  0.59369425977E+02  0.38254624135E+03 -0.95129859122E+03  0.10320059909E+04  0.10100000000E+03 0.  1.
<mgrwt>
<rscale>  0 0.15774348E+04</rscale>
<asrwt>0</asrwt>
<pdfrwt beam="1">  1        2 0.24216439E+00 0.15774348E+04</pdfrwt>
<pdfrwt beam="2">  1       -2 0.52424765E-01 0.15774348E+04</pdfrwt>
<totfact> 0.38118834E+01</totfact>
</mgrwt>
</event>
<event>
 8    2  0.7237260E-052  0.1826028E+04  0.7818608E-02  0.8692579E-01
         -2   -1    0    0    0  501 -0.00000000000E+00  0.00000000000E+00  0.83197633483E+03  0.83197633483E+03  0.25500000000E-02 0. -1.
          2   -1    0    0  501    0  0.00000000000E+00 -0.00000000000E+00 -0.10019452855E+04  0.10019452855E+04  0.25500000000E-02 0.  1.
    -200001    2    1    2    0    0 -0.67193148391E+03 -0.82318539007E+02 -0.85510614999E+02  0.91676815914E+03  0.61227733209E+03 0.  0.
   -5000001    2    3    3    0    0  0.81744094389E+02 -0.25992782979E+02 -0.80565986406E+02  0.15425591827E+03  0.99731080521E+02 0.  0.
     200001    1    1    2    0    0  0.67193148391E+03  0.82318539007E+02 -0.84458335677E+02  0.91715346121E+03  0.61300000000E+03 0.  1.
         11    1    4    4    0    0  0.65913164125E+01  0.16154256620E+02 -0.57582819649E+02  0.60167986321E+02  0.51100000000E-03 0.  1.
    -200002    1    4    4    0    0  0.75152777976E+02 -0.42147039599E+02 -0.22983166757E+02  0.94087931950E+02  0.30000000000E+02 0.  1.
    -200000    1    3    3    0    0 -0.75367557830E+03 -0.56325756028E+02 -0.49446285933E+01  0.76251224087E+03  0.10100000000E+03 0. -1.
<mgrwt>
<rscale>  0 0.18260282E+04</rscale>
<asrwt>0</asrwt>
<pdfrwt beam="1">  1        2 0.14313504E+00 0.18260282E+04</pdfrwt>
<pdfrwt beam="2">  1       -2 0.11885376E+00 0.18260282E+04</pdfrwt>
<totfact> 0.14396922E+01</totfact>
</mgrwt>
</event>
<event>
 8    2  0.7237260E-052  0.1599548E+04  0.7818608E-02  0.8820826E-01
         -2   -1    0    0    0  501 -0.00000000000E+00  0.00000000000E+00  0.48088331826E+03  0.48088331827E+03  0.25500000000E-02 0. -1.
          2   -1    0    0  501    0  0.00000000000E+00 -0.00000000000E+00 -0.13301329310E+04  0.13301329310E+04  0.25500000000E-02 0.  1.
    -200001    2    1    2    0    0  0.31938247569E+03 -0.39435777301E+03 -0.51527546129E+03  0.94798035619E+03  0.61289047618E+03 0.  0.
   -5000001    2    3    3    0    0  0.29402490007E+03 -0.25037704161E+03  0.58645946961E+00  0.40237245765E+03  0.11297763458E+03 0.  0.
     200001    1    1    2    0    0 -0.31938247569E+03  0.39435777301E+03 -0.33397415145E+03  0.86303589309E+03  0.61300000000E+03 0. -1.
         11    1    4    4    0    0  0.27218551950E+03 -0.19271592305E+03 -0.53543762346E+01  0.33354617877E+03  0.51100000000E-03 0.  1.
    -200002    1    4    4    0    0  0.21839380573E+02 -0.57661118554E+02  0.59408357042E+01  0.68826278888E+02  0.30000000000E+02 0.  1.
    -200000    1    3    3    0    0  0.25357575621E+02 -0.14398073141E+03 -0.51586192076E+03  0.54560789853E+03  0.10100000000E+03 0.  1.
<mgrwt>
<rscale>  0 0.15995484E+04</rscale>
<asrwt>0</asrwt>
<pdfrwt beam="1">  1        2 0.19001899E+00 0.15995484E+04</pdfrwt>
<pdfrwt beam="2">  1       -2 0.68697617E-01 0.15995484E+04</pdfrwt>
<totfact> 0.33625890E+01</totfact>
</mgrwt>
</event>
<event>
 8    2  0.7237260E-052  0.1329623E+04  0.7818608E-02  0.9006398E-01
         -2   -1    0    0    0  501 -0.00000000000E+00  0.00000000000E+00  0.46519267236E+03  0.46519267237E+03  0.25500000000E-02 0. -1.
          2   -1    0    0  501    0  0.00000000000E+00 -0.00000000000E+00 -0.95008823387E+03  0.95008823387E+03  0.25500000000E-02 0.  1.
    -200001    2    1    2    0    0 -0.93727606931E+02 -0.18308550493E+03 -0.77570225245E+02  0.65108976786E+03  0.61285853143E+03 0.  0.
   -5000001    2    3    3    0    0  0.95514849926E+02 -0.26638873830E+03 -0.22749668414E+03  0.37644257737E+03  0.99338946622E+02 0.  0.
     200001    1    1    2    0    0  0.93727606931E+02  0.18308550493E+03 -0.40732533626E+03  0.76419113838E+03  0.61300000000E+03 0.  1.
         11    1    4    4    0    0  0.82297952397E+02 -0.97476060022E+02 -0.88740290383E+02  0.15540068978E+03  0.51100000000E-03 0.  1.
    -200002    1    4    4    0    0  0.13216897528E+02 -0.16891267828E+03 -0.13875639376E+03  0.22104188759E+03  0.30000000000E+02 0.  1.
    -200000    1    3    3    0    0 -0.18924245686E+03  0.83303233366E+02  0.14992645890E+03  0.27464719049E+03  0.10100000000E+03 0. -1.
<mgrwt>
<rscale>  0 0.13296226E+04</rscale>
<asrwt>0</asrwt>
<pdfrwt beam="1">  1        2 0.13572689E+00 0.13296226E+04</pdfrwt>
<pdfrwt beam="2">  1       -2 0.66456096E-01 0.13296226E+04</pdfrwt>
<totfact> 0.61531805E+01</totfact>
</mgrwt>
</event>
<event>
 8    2  0.7237260E-052  0.1312170E+04  0.7818608E-02  0.9019970E-01
         -2   -1    0    0    0  501 -0.00000000000E+00  0.00000000000E+00  0.45342445785E+03  0.45342445786E+03  0.25500000000E-02 0.  1.
          2   -1    0    0  501    0  0.00000000000E+00 -0.00000000000E+00 -0.94932576120E+03  0.94932576120E+03  0.25500000000E-02 0. -1.
    -200001    2    1    2    0    0 -0.13938523725E+03  0.29220187377E+02 -0.49790547146E+02  0.63134509170E+03  0.61305420846E+03 0.  0.
   -5000001    2    3    3    0    0 -0.13847881070E+03  0.24893674613E+03  0.12713728316E+03  0.33171090651E+03  0.11279340469E+03 0.  0.
     200001    1    1    2    0    0  0.13938523725E+03 -0.29220187377E+02 -0.44611075621E+03  0.77140512736E+03  0.61300000000E+03 0. -1.
         11    1    4    4    0    0  0.15389478368E+02  0.18480756552E+02 -0.27592957996E+01  0.24207191509E+02  0.51100000000E-03 0.  1.
    -200002    1    4    4    0    0 -0.15386828906E+03  0.23045598958E+03  0.12989657896E+03  0.30750371500E+03  0.30000000000E+02 0.  1.
    -200000    1    3    3    0    0 -0.90642655401E+00 -0.21971655875E+03 -0.17692783031E+03  0.29963418519E+03  0.10100000000E+03 0. -1.
<mgrwt>
<rscale>  0 0.13121700E+04</rscale>
<asrwt>0</asrwt>
<pdfrwt beam="1">  1        2 0.13561797E+00 0.13121700E+04</pdfrwt>
<pdfrwt beam="2">  1       -2 0.64774923E-01 0.13121700E+04</pdfrwt>
<totfact> 0.65172650E+01</totfact>
</mgrwt>
</event>
<event>
 8    2  0.7237260E-052  0.1490819E+04  0.7818608E-02  0.8890582E-01
          2   -1    0    0  501    0  0.00000000000E+00  0.00000000000E+00  0.15029592525E+04  0.15029592525E+04  0.25500000000E-02 0.  1.
         -2   -1    0    0    0  501 -0.00000000000E+00 -0.00000000000E+00 -0.36969397765E+03  0.36969397766E+03  0.25500000000E-02 0. -1.
    -200001    2    1    2    0    0 -0.33220999966E+03 -0.70455569758E+02  0.25007598311E+03  0.74521374343E+03  0.61439242743E+03 0.  0.
   -5000001    2    3    3    0    0 -0.22393945992E+03  0.72793982729E+02 -0.15361344755E+03  0.29199293577E+03  0.78834875771E+02 0.  0.
     200001    1    1    2    0    0  0.33220999966E+03  0.70455569758E+02  0.88318929169E+03  0.11274394867E+04  0.61300000000E+03 0.  1.
         11    1    4    4    0    0 -0.17963081968E+03  0.35535138308E+02 -0.11249005354E+03  0.21490460576E+03  0.51100000000E-03 0.  1.
    -200002    1    4    4    0    0 -0.44308640247E+02  0.37258844421E+02 -0.41123394012E+02  0.77088330007E+02  0.30000000000E+02 0. -1.
    -200000    1    3    3    0    0 -0.10827053974E+03 -0.14324955249E+03  0.40368943067E+03  0.45322080766E+03  0.10100000000E+03 0.  1.
<mgrwt>
<rscale>  0 0.14908185E+04</rscale>
<asrwt>0</asrwt>
<pdfrwt beam="1">  1        2 0.21470847E+00 0.14908185E+04</pdfrwt>
<pdfrwt beam="2">  1       -2 0.52813424E-01 0.14908185E+04</pdfrwt>
<totfact> 0.47685940E+01</totfact>
</mgrwt>
</event>
<event>
 8    2  0.7237260E-052  0.1872683E+04  0.7818608E-02  0.8668574E-01
         -2   -1    0    0    0  501 -0.00000000000E+00  0.00000000000E+00  0.66558845931E+03  0.66558845932E+03  0.25500000000E-02 0. -1.
          2   -1    0    0  501    0  0.00000000000E+00 -0.00000000000E+00 -0.13172338637E+04  0.13172338637E+04  0.25500000000E-02 0.  1.
    -200001    2    1    2    0    0 -0.99851691593E+02 -0.69658670577E+03 -0.40557873632E+03  0.10176688616E+04  0.61314957514E+03 0.  0.
   -5000001    2    3    3    0    0  0.11096889974E+03 -0.51501535473E+03 -0.32351026938E+02  0.54131458133E+03  0.12008319909E+03 0.  0.
     200001    1    1    2    0    0  0.99851691593E+02  0.69658670577E+03 -0.24606666803E+03  0.96515346142E+03  0.61300000000E+03 0.  1.
         11    1    4    4    0    0  0.12087315944E+03 -0.46944959371E+03 -0.32755935791E+02  0.48586643539E+03  0.51100000000E-03 0.  1.
    -200002    1    4    4    0    0 -0.99042597007E+01 -0.45565761021E+02  0.40490885244E+00  0.55448145946E+02  0.30000000000E+02 0. -1.
    -200000    1    3    3    0    0 -0.21082059133E+03 -0.18157135104E+03 -0.37322770938E+03  0.47635428024E+03  0.10100000000E+03 0.  1.
<mgrwt>
<rscale>  0 0.18726833E+04</rscale>
<asrwt>0</asrwt>
<pdfrwt beam="1">  1        2 0.18817626E+00 0.18726833E+04</pdfrwt>
<pdfrwt beam="2">  1       -2 0.95084066E-01 0.18726833E+04</pdfrwt>
<totfact> 0.16090284E+01</totfact>
</mgrwt>
</event>
<event>
 8    2  0.7237260E-052  0.1964079E+04  0.7818608E-02  0.8623602E-01
          2   -1    0    0  501    0  0.00000000000E+00  0.00000000000E+00  0.92666452171E+03  0.92666452172E+03  0.25500000000E-02 0.  1.
         -2   -1    0    0    0  501 -0.00000000000E+00 -0.00000000000E+00 -0.10407230218E+04  0.10407230219E+04  0.25500000000E-02 0. -1.
    -200001    2    1    2    0    0  0.12484573826E+03 -0.75488325896E+03 -0.24954889966E+01  0.98065024394E+03  0.61337874144E+03 0.  0.
   -5000001    2    3    3    0    0  0.17924144636E+03 -0.92272916549E+02  0.55665302388E+02  0.30567243942E+03  0.22292426318E+03 0.  0.
     200001    1    1    2    0    0 -0.12484573826E+03  0.75488325896E+03 -0.11156301114E+03  0.98673729963E+03  0.61300000000E+03 0.  1.
         11    1    4    4    0    0  0.30326824929E+02 -0.65691139021E+02  0.11874796318E+03  0.13905438079E+03  0.51100000000E-03 0.  1.
    -200002    1    4    4    0    0  0.14891462143E+03 -0.26581777527E+02 -0.63082660791E+02  0.16661805864E+03  0.30000000000E+02 0.  1.
    -200000    1    3    3    0    0 -0.54395708100E+02 -0.66261034241E+03 -0.58160791385E+02  0.67497780452E+03  0.10100000000E+03 0.  1.
<mgrwt>
<rscale>  0 0.19640785E+04</rscale>
<asrwt>0</asrwt>
<pdfrwt beam="1">  1        2 0.13238065E+00 0.19640785E+04</pdfrwt>
<pdfrwt beam="2">  1       -2 0.14867472E+00 0.19640785E+04</pdfrwt>
<totfact> 0.89621997E+00</totfact>
</mgrwt>
</event>
<event>
 8    2  0.7237260E-052  0.1766265E+04  0.7818608E-02  0.8724448E-01
          2   -1    0    0  501    0  0.00000000000E+00  0.00000000000E+00  0.24331437335E+04  0.24331437335E+04  0.25500000000E-02 0.  1.
         -2   -1    0    0    0  501 -0.00000000000E+00 -0.00000000000E+00 -0.32054136588E+03  0.32054136589E+03  0.25500000000E-02 0. -1.
    -200001    2    1    2    0    0  0.14420379520E+03 -0.45725265887E+03  0.17063918544E+04  0.18758179627E+04  0.61404001488E+03 0.  0.
   -5000001    2    3    3    0    0 -0.11858517240E+03 -0.12684354623E+03  0.10019739622E+03  0.21200010588E+03  0.68940542164E+02 0.  0.
     200001    1    1    2    0    0 -0.14420379520E+03  0.45725265887E+03  0.40621051322E+03  0.87786713667E+03  0.61300000000E+03 0. -1.
         11    1    4    4    0    0 -0.35825101107E+02 -0.66532531052E+02  0.64888457558E+02  0.99601844772E+02  0.51100000000E-03 0.  1.
    -200002    1    4    4    0    0 -0.82760071294E+02 -0.60311015174E+02  0.35308938660E+02  0.11239826111E+03  0.30000000000E+02 0. -1.
    -200000    1    3    3    0    0  0.26278896760E+03 -0.33040911264E+03  0.16061944581E+04  0.16638178568E+04  0.10100000000E+03 0.  1.
<mgrwt>
<rscale>  0 0.17662652E+04</rscale>
<asrwt>0</asrwt>
<pdfrwt beam="1">  1        2 0.34759197E+00 0.17662652E+04</pdfrwt>
<pdfrwt beam="2">  1       -2 0.45791622E-01 0.17662652E+04</pdfrwt>
<totfact> 0.20526150E+01</totfact>
</mgrwt>
</event>
<event>
 8    2  0.7237260E-052  0.1450918E+04  0.7818608E-02  0.8917764E-01
          2   -1    0    0  501    0  0.00000000000E+00  0.00000000000E+00  0.15933546338E+04  0.15933546338E+04  0.25500000000E-02 0.  1.
         -2   -1    0    0    0  501 -0.00000000000E+00 -0.00000000000E+00 -0.33030355929E+03  0.33030355930E+03  0.25500000000E-02 0. -1.
    -200001    2    1    2    0    0 -0.22939099039E+03 -0.24107813647E+02  0.21908344066E+03  0.69124639760E+03  0.61369586529E+03 0.  0.
   -5000001    2    3    3    0    0  0.70727594388E+02 -0.24668283570E+03  0.62288694806E+02  0.27363845024E+03  0.71716845400E+02 0.  0.
     200001    1    1    2    0    0  0.22939099039E+03  0.24107813647E+02  0.10439676339E+04  0.12324117955E+04  0.61300000000E+03 0.  1.
         11    1    4    4    0    0 -0.85545467618E+00 -0.52983474457E+02 -0.76916262185E+01  0.53545695274E+02  0.51100000000E-03 0.  1.
    -200002    1    4    4    0    0  0.71583049065E+02 -0.19369936124E+03  0.69980321024E+02  0.22009275497E+03  0.30000000000E+02 0.  1.
    -200000    1    3    3    0    0 -0.30011858478E+03  0.22257502205E+03  0.15679474586E+03  0.41760794736E+03  0.10100000000E+03 0.  1.
<mgrwt>
<rscale>  0 0.14509179E+04</rscale>
<asrwt>0</asrwt>
<pdfrwt beam="1">  1        2 0.22762209E+00 0.14509179E+04</pdfrwt>
<pdfrwt beam="2">  1       -2 0.47186222E-01 0.14509179E+04</pdfrwt>
<totfact> 0.53900542E+01</totfact>
</mgrwt>
</event>
<event>
 8    2  0.7237260E-052  0.2130523E+04  0.7818608E-02  0.8547916E-01
          2   -1    0    0  501    0  0.00000000000E+00  0.00000000000E+00  0.10060997794E+04  0.10060997794E+04  0.25500000000E-02 0.  1.
         -2   -1    0    0    0  501 -0.00000000000E+00 -0.00000000000E+00 -0.11279023856E+04  0.11279023856E+04  0.25500000000E-02 0. -1.
    -200001    2    1    2    0    0  0.43617509402E+03  0.75293636319E+03  0.36757515984E+02  0.10578645381E+04  0.60047013766E+03 0.  0.
   -5000001    2    3    3    0    0  0.19858107267E+03  0.62796975921E+03 -0.19197038624E+03  0.69100622160E+03  0.82804034893E+02 0.  0.
     200001    1    1    2    0    0 -0.43617509402E+03 -0.75293636319E+03 -0.15856012222E+03  0.10761376269E+04  0.61300000000E+03 0. -1.
         11    1    4    4    0    0  0.15874713443E+03  0.43721376050E+03 -0.15586427515E+03  0.49056110458E+03  0.51100000000E-03 0.  1.
    -200002    1    4    4    0    0  0.39833938246E+02  0.19075599871E+03 -0.36106111091E+02  0.20044511702E+03  0.30000000000E+02 0. -1.
    -200000    1    3    3    0    0  0.23759402135E+03  0.12496660398E+03  0.22872790222E+03  0.36685831645E+03  0.10100000000E+03 0.  1.
<mgrwt>
<rscale>  0 0.21305233E+04</rscale>
<asrwt>0</asrwt>
<pdfrwt beam="1">  1        2 0.14372854E+00 0.21305233E+04</pdfrwt>
<pdfrwt beam="2">  1       -2 0.16112891E+00 0.21305233E+04</pdfrwt>
<totfact> 0.63508683E+00</totfact>
</mgrwt>
</event>
<event>
 8    2  0.7237260E-052  0.1422183E+04  0.7818608E-02  0.8937916E-01
          2   -1    0    0  501    0  0.00000000000E+00  0.00000000000E+00  0.94907217973E+03  0.94907217974E+03  0.25500000000E-02 0.  1.
         -2   -1    0    0    0  501 -0.00000000000E+00 -0.00000000000E+00 -0.53278474684E+03  0.53278474684E+03  0.25500000000E-02 0. -1.
    -200001    2    1    2    0    0 -0.22686106706E+03 -0.46517827378E+02  0.49557506327E+03  0.82179224767E+03  0.61328460194E+03 0.  0.
   -5000001    2    3    3    0    0 -0.37971235959E+03  0.30239201001E+02  0.13815822899E+03  0.41288767144E+03  0.79326210573E+02 0.  0.
     200001    1    1    2    0    0  0.22686106706E+03  0.46517827378E+02 -0.79287630377E+02  0.66006467891E+03  0.61300000000E+03 0. -1.
         11    1    4    4    0    0 -0.24726184305E+02  0.72625852542E+01 -0.82220505627E+01  0.27050535125E+02  0.51100000000E-03 0.  1.
    -200002    1    4    4    0    0 -0.35498617529E+03  0.22976615747E+02  0.14638027955E+03  0.38583713631E+03  0.30000000000E+02 0.  1.
    -200000    1    3    3    0    0  0.15285129253E+03 -0.76757028379E+02  0.35741683428E+03  0.40890457623E+03  0.10100000000E+03 0.  1.
<mgrwt>
<rscale>  0 0.14221831E+04</rscale>
<asrwt>0</asrwt>
<pdfrwt beam="1">  1        2 0.13558174E+00 0.14221831E+04</pdfrwt>
<pdfrwt beam="2">  1       -2 0.76112107E-01 0.14221831E+04</pdfrwt>
<totfact> 0.45479622E+01</totfact>
</mgrwt>
</event>
<event>
 8    2  0.7237260E-052  0.2946737E+04  0.7818608E-02  0.8259106E-01
          2   -1    0    0  501    0  0.00000000000E+00  0.00000000000E+00  0.10831612428E+04  0.10831612428E+04  0.25500000000E-02 0.  1.
         -2   -1    0    0    0  501 -0.00000000000E+00 -0.00000000000E+00 -0.20041471303E+04  0.20041471303E+04  0.25500000000E-02 0. -1.
    -200001    2    1    2    0    0 -0.51693561014E+02  0.60138853895E+02 -0.18617039027E+04  0.19616937455E+04  0.61319819288E+03 0.  0.
   -5000001    2    3    3    0    0 -0.88678742314E+02  0.54082934601E+02 -0.31836220684E+03  0.41459673237E+03  0.24443214314E+03 0.  0.
     200001    1    1    2    0    0  0.51693561014E+02 -0.60138853895E+02  0.94071801517E+03  0.11256146277E+04  0.61300000000E+03 0.  1.
         11    1    4    4    0    0 -0.44306045741E+01 -0.63368586700E+02  0.16534946097E+00  0.63523502563E+02  0.51100000000E-03 0.  1.
    -200002    1    4    4    0    0 -0.84248137740E+02  0.11745152130E+03 -0.31852755630E+03  0.35107322981E+03  0.30000000000E+02 0.  1.
    -200000    1    3    3    0    0  0.36985181301E+02  0.60559192937E+01 -0.15433416958E+04  0.15470970131E+04  0.10100000000E+03 0. -1.
<mgrwt>
<rscale>  0 0.29467368E+04</rscale>
<asrwt>0</asrwt>
<pdfrwt beam="1">  1        2 0.15473732E+00 0.29467368E+04</pdfrwt>
<pdfrwt beam="2">  1       -2 0.28630673E+00 0.29467368E+04</pdfrwt>
<totfact> 0.83382259E-01</totfact>
</mgrwt>
</event>
<event>
 8    2  0.7237260E-052  0.1622295E+04  0.7818608E-02  0.8806967E-01
         -2   -1    0    0    0  501 -0.00000000000E+00  0.00000000000E+00  0.53823203731E+03  0.53823203731E+03  0.25500000000E-02 0. -1.
          2   -1    0    0  501    0  0.00000000000E+00 -0.00000000000E+00 -0.12224478551E+04  0.12224478551E+04  0.25500000000E-02 0.  1.
    -200001    2    1    2    0    0  0.15956738709E+03 -0.49988872422E+03 -0.25304010456E+03  0.84578537207E+03  0.61316646473E+03 0.  0.
   -5000001    2    3    3    0    0 -0.19707813345E+03 -0.32854347987E+03 -0.14622226968E+03  0.42368790711E+03  0.10653582323E+03 0.  0.
     200001    1    1    2    0    0 -0.15956738709E+03  0.49988872422E+03 -0.43117571319E+03  0.91489452030E+03  0.61300000000E+03 0.  1.
         11    1    4    4    0    0  0.10271831732E+02 -0.33472775430E+01 -0.34643765085E+01  0.11345338203E+02  0.51100000000E-03 0.  1.
    -200002    1    4    4    0    0 -0.20734996518E+03 -0.32519620233E+03 -0.14275789317E+03  0.41234256891E+03  0.30000000000E+02 0.  1.
    -200000    1    3    3    0    0  0.35664552054E+03 -0.17134524435E+03 -0.10681783488E+03  0.42209746497E+03  0.10100000000E+03 0. -1.
<mgrwt>
<rscale>  0 0.16222954E+04</rscale>
<asrwt>0</asrwt>
<pdfrwt beam="1">  1        2 0.17463541E+00 0.16222954E+04</pdfrwt>
<pdfrwt beam="2">  1       -2 0.76890291E-01 0.16222954E+04</pdfrwt>
<totfact> 0.30083990E+01</totfact>
</mgrwt>
</event>
<event>
 8    2  0.7237260E-052  0.1522391E+04  0.7818608E-02  0.8869698E-01
          2   -1    0    0  501    0  0.00000000000E+00  0.00000000000E+00  0.45902699376E+04  0.45902699376E+04  0.25500000000E-02 0.  1.
         -2   -1    0    0    0  501 -0.00000000000E+00 -0.00000000000E+00 -0.12622749167E+03  0.12622749170E+03  0.25500000000E-02 0. -1.
    -200001    2    1    2    0    0 -0.14363282921E+03 -0.42175479421E+03  0.20082080911E+04  0.21464003738E+04  0.61288443581E+03 0.  0.
   -5000001    2    3    3    0    0  0.63605579605E+02 -0.17962697975E+03  0.13745815144E+04  0.14299806119E+04  0.34504882126E+03 0.  0.
     200001    1    1    2    0    0  0.14363282921E+03  0.42175479421E+03  0.24558343548E+04  0.25700970554E+04  0.61300000000E+03 0. -1.
         11    1    4    4    0    0 -0.85521493258E+02 -0.14340493806E+03  0.29367514854E+03  0.33782243108E+03  0.51100000000E-03 0.  1.
    -200002    1    4    4    0    0  0.14912707286E+03 -0.36222041690E+02  0.10809063659E+04  0.10921581808E+04  0.30000000000E+02 0.  1.
    -200000    1    3    3    0    0 -0.20723840882E+03 -0.24212781445E+03  0.63362657665E+03  0.71641976191E+03  0.10100000000E+03 0.  1.
<mgrwt>
<rscale>  0 0.15223906E+04</rscale>
<asrwt>0</asrwt>
<pdfrwt beam="1">  1        2 0.65575276E+00 0.15223906E+04</pdfrwt>
<pdfrwt beam="2">  1       -2 0.18032501E-01 0.15223906E+04</pdfrwt>
<totfact> 0.52197963E+00</totfact>
</mgrwt>
</event>
<event>
 8    2  0.7237260E-052  0.1370575E+04  0.7818608E-02  0.8975397E-01
         -2   -1    0    0    0  501 -0.00000000000E+00  0.00000000000E+00  0.25932731738E+03  0.25932731739E+03  0.25500000000E-02 0. -1.
          2   -1    0    0  501    0  0.00000000000E+00 -0.00000000000E+00 -0.18109130941E+04  0.18109130941E+04  0.25500000000E-02 0.  1.
    -200001    2    1    2    0    0  0.25782884467E+03 -0.11173950133E+03 -0.59843865879E+03  0.90267034604E+03  0.61459213791E+03 0.  0.
   -5000001    2    3    3    0    0 -0.66385928754E+01 -0.17744875697E+03  0.39157493276E+02  0.20196314262E+03  0.87884409481E+02 0.  0.
     200001    1    1    2    0    0 -0.25782884467E+03  0.11173950133E+03 -0.95314711789E+03  0.11675700654E+04  0.61300000000E+03 0.  1.
         11    1    4    4    0    0  0.30297042548E+02 -0.28160698617E+02  0.10508648423E+02  0.42677481483E+02  0.51100000000E-03 0.  1.
    -200002    1    4    4    0    0 -0.36935635424E+02 -0.14928805835E+03  0.28648844853E+02  0.15928566113E+03  0.30000000000E+02 0.  1.
    -200000    1    3    3    0    0  0.26446743754E+03  0.65709255636E+02 -0.63759615207E+03  0.70070720342E+03  0.10100000000E+03 0.  1.
<mgrwt>
<rscale>  0 0.13705754E+04</rscale>
<asrwt>0</asrwt>
<pdfrwt beam="1">  1        2 0.25870186E+00 0.13705754E+04</pdfrwt>
<pdfrwt beam="2">  1       -2 0.37046761E-01 0.13705754E+04</pdfrwt>
<totfact> 0.67317785E+01</totfact>
</mgrwt>
</event>
<event>
 8    2  0.7237260E-052  0.1791496E+04  0.7818608E-02  0.8710835E-01
          2   -1    0    0  501    0  0.00000000000E+00  0.00000000000E+00  0.35645894734E+04  0.35645894734E+04  0.25500000000E-02 0.  1.
         -2   -1    0    0    0  501 -0.00000000000E+00 -0.00000000000E+00 -0.22509306922E+03  0.22509306924E+03  0.25500000000E-02 0. -1.
    -200001    2    1    2    0    0  0.21097197454E+03  0.31557785507E+03  0.54909453210E+03  0.90763289623E+03  0.61497488768E+03 0.  0.
   -5000001    2    3    3    0    0  0.33511226765E+03  0.39179088003E+03  0.30022161781E+03  0.60208753951E+03  0.81092908680E+02 0.  0.
     200001    1    1    2    0    0 -0.21097197454E+03 -0.31557785507E+03  0.27904018721E+04  0.28820496464E+04  0.61300000000E+03 0.  1.
         11    1    4    4    0    0  0.17355396290E+03  0.19663116155E+03  0.11268628459E+03  0.28545225602E+03  0.51100000000E-03 0.  1.
    -200002    1    4    4    0    0  0.16155830474E+03  0.19515971848E+03  0.18753533322E+03  0.31663528350E+03  0.30000000000E+02 0.  1.
    -200000    1    3    3    0    0 -0.12414029310E+03 -0.76213024951E+02  0.24887291429E+03  0.30554535672E+03  0.10100000000E+03 0.  1.
<mgrwt>
<rscale>  0 0.17914959E+04</rscale>
<asrwt>0</asrwt>
<pdfrwt beam="1">  1        2 0.50922704E+00 0.17914959E+04</pdfrwt>
<pdfrwt beam="2">  1       -2 0.32156155E-01 0.17914959E+04</pdfrwt>
<totfact> 0.94064778E+00</totfact>
</mgrwt>
</event>
<event>
 8    2  0.7237260E-052  0.1481626E+04  0.7818608E-02  0.8896764E-01
         -2   -1    0    0    0  501 -0.00000000000E+00  0.00000000000E+00  0.67831935337E+03  0.67831935338E+03  0.25500000000E-02 0. -1.
          2   -1    0    0  501    0  0.00000000000E+00 -0.00000000000E+00 -0.80906393168E+03  0.80906393168E+03  0.25500000000E-02 0.  1.
    -200001    2    1    2    0    0 -0.14386792014E+03 -0.26426836668E+03 -0.35370635480E+03  0.76904025986E+03  0.61300814659E+03 0.  0.
   -5000001    2    3    3    0    0 -0.23730961129E+03  0.11245729997E+03 -0.19298505575E+03  0.33696860663E+03  0.85686137631E+02 0.  0.
     200001    1    1    2    0    0  0.14386792014E+03  0.26426836668E+03  0.22296177650E+03  0.71834302520E+03  0.61300000000E+03 0. -1.
         11    1    4    4    0    0 -0.12200988624E+03  0.94997194719E+02 -0.12389753752E+03  0.19814509620E+03  0.51100000000E-03 0.  1.
    -200002    1    4    4    0    0 -0.11529972505E+03  0.17460105252E+02 -0.69087518234E+02  0.13882351043E+03  0.30000000000E+02 0.  1.
    -200000    1    3    3    0    0  0.93441691150E+02 -0.37672566665E+03 -0.16072129905E+03  0.43207165323E+03  0.10100000000E+03 0.  1.
<mgrwt>
<rscale>  0 0.14816258E+04</rscale>
<asrwt>0</asrwt>
<pdfrwt beam="1">  1        2 0.11558056E+00 0.14816258E+04</pdfrwt>
<pdfrwt beam="2">  1       -2 0.96902764E-01 0.14816258E+04</pdfrwt>
<totfact> 0.32312453E+01</totfact>
</mgrwt>
</event>
<event>
 8    2  0.7237260E-052  0.1440095E+04  0.7818608E-02  0.8925296E-01
         -2   -1    0    0    0  501 -0.00000000000E+00  0.00000000000E+00  0.32790540581E+03  0.32790540582E+03  0.25500000000E-02 0. -1.
          2   -1    0    0  501    0  0.00000000000E+00 -0.00000000000E+00 -0.15811532557E+04  0.15811532557E+04  0.25500000000E-02 0.  1.
    -200001    2    1    2    0    0 -0.12470333273E+03  0.32497648805E+03 -0.42949106523E+03  0.82485163366E+03  0.61217399769E+03 0.  0.
   -5000001    2    3    3    0    0  0.14741325479E+03  0.37198086871E+03 -0.25041027225E+03  0.48057299734E+03  0.90247808582E+02 0.  0.
     200001    1    1    2    0    0  0.12470333273E+03 -0.32497648805E+03 -0.82375678467E+03  0.10842070279E+04  0.61300000000E+03 0.  1.
         11    1    4    4    0    0  0.80677306285E+02  0.10704190101E+03 -0.64542293426E+02  0.14876996996E+03  0.51100000000E-03 0.  1.
    -200002    1    4    4    0    0  0.66735948507E+02  0.26493896769E+03 -0.18586797882E+03  0.33180302738E+03  0.30000000000E+02 0.  1.
    -200000    1    3    3    0    0 -0.27211658753E+03 -0.47004380653E+02 -0.17908079298E+03  0.34427863631E+03  0.10100000000E+03 0. -1.
<mgrwt>
<rscale>  0 0.14400954E+04</rscale>
<asrwt>0</asrwt>
<pdfrwt beam="1">  1        2 0.22587903E+00 0.14400954E+04</pdfrwt>
<pdfrwt beam="2">  1       -2 0.46843630E-01 0.14400954E+04</pdfrwt>
<totfact> 0.55555996E+01</totfact>
</mgrwt>
</event>
<event>
 8    2  0.7237260E-052  0.1469987E+04  0.7818608E-02  0.8904660E-01
         -2   -1    0    0    0  501 -0.00000000000E+00  0.00000000000E+00  0.31334255711E+03  0.31334255712E+03  0.25500000000E-02 0. -1.
          2   -1    0    0  501    0  0.00000000000E+00 -0.00000000000E+00 -0.17240401473E+04  0.17240401473E+04  0.25500000000E-02 0.  1.
    -200001    2    1    2    0    0 -0.37850504297E+02 -0.13553540641E+03 -0.12332214462E+04  0.13838773190E+04  0.61194672292E+03 0.  0.
   -5000001    2    3    3    0    0 -0.23292047957E+02 -0.20759859707E+03 -0.11869261070E+03  0.26236914819E+03  0.10540368629E+03 0.  0.
     200001    1    1    2    0    0  0.37850504297E+02  0.13553540641E+03 -0.17747614400E+03  0.65350538541E+03  0.61300000000E+03 0. -1.
         11    1    4    4    0    0 -0.35152649122E+02 -0.24961526973E+02 -0.18201948470E+01  0.43152053006E+02  0.51100000000E-03 0.  1.
    -200002    1    4    4    0    0  0.11860601165E+02 -0.18263707010E+03 -0.11687241586E+03  0.21921709518E+03  0.30000000000E+02 0. -1.
    -200000    1    3    3    0    0 -0.14558456340E+02  0.72063190661E+02 -0.11145288355E+04  0.11215081709E+04  0.10100000000E+03 0.  1.
<mgrwt>
<rscale>  0 0.14699866E+04</rscale>
<asrwt>0</asrwt>
<pdfrwt beam="1">  1        2 0.24629144E+00 0.14699866E+04</pdfrwt>
<pdfrwt beam="2">  1       -2 0.44763223E-01 0.14699866E+04</pdfrwt>
<totfact> 0.51129869E+01</totfact>
</mgrwt>
</event>
<event>
 8    2  0.7237260E-052  0.2128168E+04  0.7818608E-02  0.8548935E-01
          2   -1    0    0  501    0  0.00000000000E+00  0.00000000000E+00  0.41027700189E+04  0.41027700189E+04  0.25500000000E-02 0.  1.
         -2   -1    0    0    0  501 -0.00000000000E+00 -0.00000000000E+00 -0.27597822629E+03  0.27597822630E+03  0.25500000000E-02 0. -1.
    -200001    2    1    2    0    0 -0.30901360153E+03 -0.80710993623E+03  0.17095295625E+04  0.20111578655E+04  0.61265714700E+03 0.  0.
   -5000001    2    3    3    0    0  0.97425824677E+02 -0.15199201323E+03  0.65980449013E+03  0.70482857019E+03  0.16984694509E+03 0.  0.
     200001    1    1    2    0    0  0.30901360153E+03  0.80710993623E+03  0.21172622301E+04  0.23675903797E+04  0.61300000000E+03 0.  1.
         11    1    4    4    0    0  0.11745343429E+03 -0.11189937165E+03  0.30043732532E+03  0.34143720513E+03  0.51100000000E-03 0.  1.
    -200002    1    4    4    0    0 -0.20027609609E+02 -0.40092641587E+02  0.35936716481E+03  0.36339136506E+03  0.30000000000E+02 0.  1.
    -200000    1    3    3    0    0 -0.40643942620E+03 -0.65511792299E+03  0.10497250724E+04  0.13063292953E+04  0.10100000000E+03 0. -1.
<mgrwt>
<rscale>  0 0.21281684E+04</rscale>
<asrwt>0</asrwt>
<pdfrwt beam="1">  1        2 0.58611000E+00 0.21281684E+04</pdfrwt>
<pdfrwt beam="2">  1       -2 0.39425461E-01 0.21281684E+04</pdfrwt>
<totfact> 0.27268728E+00</totfact>
</mgrwt>
</event>
<event>
 8    2  0.7237260E-052  0.1350420E+04  0.7818608E-02  0.8990510E-01
         -2   -1    0    0    0  501 -0.00000000000E+00  0.00000000000E+00  0.58128249341E+03  0.58128249341E+03  0.25500000000E-02 0. -1.
          2   -1    0    0  501    0  0.00000000000E+00 -0.00000000000E+00 -0.78431514764E+03  0.78431514765E+03  0.25500000000E-02 0.  1.
    -200001    2    1    2    0    0  0.25223340768E+03 -0.76313328370E+02 -0.20588407795E+03  0.69834765293E+03  0.61307077468E+03 0.  0.
   -5000001    2    3    3    0    0  0.24515924911E+03 -0.23577556473E+02 -0.39776126524E+03  0.47507884553E+03  0.82625218628E+02 0.  0.
     200001    1    1    2    0    0 -0.25223340768E+03  0.76313328370E+02  0.28514237168E+01  0.66724998813E+03  0.61300000000E+03 0. -1.
         11    1    4    4    0    0  0.23352183807E+02 -0.15001569364E+02 -0.91705296679E+02  0.95813532505E+02  0.51100000000E-03 0.  1.
    -200002    1    4    4    0    0  0.22180706530E+03 -0.85759871092E+01 -0.30605596856E+03  0.37926531303E+03  0.30000000000E+02 0.  1.
    -200000    1    3    3    0    0  0.70741585703E+01 -0.52735771897E+02  0.19187718729E+03  0.22326880740E+03  0.10100000000E+03 0. -1.
<mgrwt>
<rscale>  0 0.13504202E+04</rscale>
<asrwt>0</asrwt>
<pdfrwt beam="1">  1        2 0.11204502E+00 0.13504202E+04</pdfrwt>
<pdfrwt beam="2">  1       -2 0.83040357E-01 0.13504202E+04</pdfrwt>
<totfact> 0.48474646E+01</totfact>
</mgrwt>
</event>
<event>
 8    2  0.7237260E-052  0.1411334E+04  0.7818608E-02  0.8945655E-01
          2   -1    0    0  501    0  0.00000000000E+00  0.00000000000E+00  0.95212374581E+03  0.95212374581E+03  0.25500000000E-02 0.  1.
         -2   -1    0    0    0  501 -0.00000000000E+00 -0.00000000000E+00 -0.52300521902E+03  0.52300521903E+03  0.25500000000E-02 0. -1.
    -200001    2    1    2    0    0 -0.20228058377E+03  0.18796123490E+03  0.43887907521E+03  0.80273687037E+03  0.61280076697E+03 0.  0.
   -5000001    2    3    3    0    0 -0.28788162935E+03 -0.61956231520E+02  0.42059599263E+03  0.51932630223E+03  0.78002641175E+02 0.  0.
     200001    1    1    2    0    0  0.20228058377E+03 -0.18796123490E+03 -0.97605484232E+01  0.67239209447E+03  0.61300000000E+03 0. -1.
         11    1    4    4    0    0 -0.19719182122E+03 -0.17638526253E+02  0.29722863400E+03  0.35712825824E+03  0.51100000000E-03 0.  1.
    -200002    1    4    4    0    0 -0.90689808126E+02 -0.44317705267E+02  0.12336735864E+03  0.16219804399E+03  0.30000000000E+02 0. -1.
    -200000    1    3    3    0    0  0.85601045577E+02  0.24991746642E+03  0.18283082576E+02  0.28341056814E+03  0.10100000000E+03 0.  1.
<mgrwt>
<rscale>  0 0.14113337E+04</rscale>
<asrwt>0</asrwt>
<pdfrwt beam="1">  1        2 0.13601768E+00 0.14113337E+04</pdfrwt>
<pdfrwt beam="2">  1       -2 0.74715031E-01 0.14113337E+04</pdfrwt>
<totfact> 0.47214072E+01</totfact>
</mgrwt>
</event>
<event>
 8    2  0.7237260E-052  0.1233674E+04  0.7818608E-02  0.9083882E-01
         -2   -1    0    0    0  501 -0.00000000000E+00  0.00000000000E+00  0.12177226372E+03  0.12177226374E+03  0.25500000000E-02 0. -1.
          2   -1    0    0  501    0  0.00000000000E+00 -0.00000000000E+00 -0.31245838758E+04  0.31245838758E+04  0.25500000000E-02 0.  1.
    -200001    2    1    2    0    0 -0.77019336628E+01  0.76556267398E+02 -0.15669995309E+04  0.16832676858E+04  0.60990359094E+03 0.  0.
   -5000001    2    3    3    0    0 -0.11587210568E+03  0.11267130987E+03 -0.94124056629E+02  0.20253535171E+03  0.77717833942E+02 0.  0.
     200001    1    1    2    0    0  0.77019336628E+01 -0.76556267398E+02 -0.14358120811E+04  0.15630884537E+04  0.61300000000E+03 0.  1.
         11    1    4    4    0    0  0.67442749052E+01  0.19634383300E+02 -0.24856109038E+01  0.20908670771E+02  0.51100000000E-03 0.  1.
    -200002    1    4    4    0    0 -0.12261638058E+03  0.93036926573E+02 -0.91638445725E+02  0.18162668094E+03  0.30000000000E+02 0.  1.
    -200000    1    3    3    0    0  0.10817017202E+03 -0.36115042475E+02 -0.14728754743E+04  0.14807323341E+04  0.10100000000E+03 0.  1.
<mgrwt>
<rscale>  0 0.12336736E+04</rscale>
<asrwt>0</asrwt>
<pdfrwt beam="1">  1        2 0.44636908E+00 0.12336736E+04</pdfrwt>
<pdfrwt beam="2">  1       -2 0.17396040E-01 0.12336736E+04</pdfrwt>
<totfact> 0.54490362E+01</totfact>
</mgrwt>
</event>
<event>
 8    2  0.7237260E-052  0.1554717E+04  0.7818608E-02  0.8848861E-01
          2   -1    0    0  501    0  0.00000000000E+00  0.00000000000E+00  0.24255667628E+03  0.24255667629E+03  0.25500000000E-02 0.  1.
         -2   -1    0    0    0  501 -0.00000000000E+00 -0.00000000000E+00 -0.24913181961E+04  0.24913181961E+04  0.25500000000E-02 0. -1.
    -200001    2    1    2    0    0  0.43625216390E+01  0.67682337091E+02 -0.29191317900E+03  0.68213795960E+03  0.61277970063E+03 0.  0.
   -5000001    2    3    3    0    0  0.92393161260E+02 -0.16246598778E+03  0.90370839055E+01  0.28028014184E+03  0.20867102240E+03 0.  0.
     200001    1    1    2    0    0 -0.43625216390E+01 -0.67682337091E+02 -0.19568483408E+04  0.20517369128E+04  0.61300000000E+03 0. -1.
         11    1    4    4    0    0  0.27665410714E+02 -0.62751113277E+02  0.10442918225E+03  0.12493410773E+03  0.51100000000E-03 0.  1.
    -200002    1    4    4    0    0  0.64727750546E+02 -0.99714874502E+02 -0.95392098345E+02  0.15534603411E+03  0.30000000000E+02 0.  1.
    -200000    1    3    3    0    0 -0.88030639621E+02  0.23014832487E+03 -0.30095026290E+03  0.40185781776E+03  0.10100000000E+03 0. -1.
<mgrwt>
<rscale>  0 0.15547165E+04</rscale>
<asrwt>0</asrwt>
<pdfrwt beam="1">  1        2 0.34650955E-01 0.15547165E+04</pdfrwt>
<pdfrwt beam="2">  1       -2 0.35590259E+00 0.15547165E+04</pdfrwt>
<totfact> 0.20970953E+00</totfact>
</mgrwt>
</event>
<event>
 8    2  0.7237260E-052  0.1296859E+04  0.7818608E-02  0.9032060E-01
         -2   -1    0    0    0  501 -0.00000000000E+00  0.00000000000E+00  0.18939547982E+03  0.18939547983E+03  0.25500000000E-02 0. -1.
          2   -1    0    0  501    0  0.00000000000E+00 -0.00000000000E+00 -0.22200133846E+04  0.22200133846E+04  0.25500000000E-02 0.  1.
    -200001    2    1    2    0    0 -0.17767751730E+03 -0.10821913431E+03 -0.95247726831E+03  0.11518569119E+04  0.61341724606E+03 0.  0.
   -5000001    2    3    3    0    0 -0.20715341594E+03 -0.40571267502E+02 -0.38498179211E+02  0.22935821938E+03  0.81021710115E+02 0.  0.
     200001    1    1    2    0    0  0.17767751730E+03  0.10821913431E+03 -0.10781406364E+04  0.12575519525E+04  0.61300000000E+03 0. -1.
         11    1    4    4    0    0 -0.11552961149E+03 -0.53293856611E+02 -0.81647458515E+01  0.12749113443E+03  0.51100000000E-03 0.  1.
    -200002    1    4    4    0    0 -0.91623804452E+02  0.12722589109E+02 -0.30333433360E+02  0.10186708495E+03  0.30000000000E+02 0.  1.
    -200000    1    3    3    0    0  0.29475898640E+02 -0.67647866804E+02 -0.91397908910E+03  0.92249869257E+03  0.10100000000E+03 0.  1.
<mgrwt>
<rscale>  0 0.12968585E+04</rscale>
<asrwt>0</asrwt>
<pdfrwt beam="1">  1        2 0.31714475E+00 0.12968585E+04</pdfrwt>
<pdfrwt beam="2">  1       -2 0.27056498E-01 0.12968585E+04</pdfrwt>
<totfact> 0.75305151E+01</totfact>
</mgrwt>
</event>
<event>
 8    2  0.7237260E-052  0.2380969E+04  0.7818608E-02  0.8446663E-01
          2   -1    0    0  501    0  0.00000000000E+00  0.00000000000E+00  0.83816449363E+03  0.83816449363E+03  0.25500000000E-02 0.  1.
         -2   -1    0    0    0  501 -0.00000000000E+00 -0.00000000000E+00 -0.16909015402E+04  0.16909015402E+04  0.25500000000E-02 0. -1.
    -200001    2    1    2    0    0  0.15989462642E+02  0.20225124822E+02 -0.15099784759E+04  0.16299553538E+04  0.61323302189E+03 0.  0.
   -5000001    2    3    3    0    0 -0.24503077961E+03 -0.38841685578E+02 -0.57248562419E+03  0.64979500878E+03  0.18150758671E+03 0.  0.
     200001    1    1    2    0    0 -0.15989462642E+02 -0.20225124822E+02  0.65724142931E+03  0.89911068005E+03  0.61300000000E+03 0.  1.
         11    1    4    4    0    0 -0.10135639058E+03 -0.66315203809E+02 -0.41693515088E+03  0.43417248210E+03  0.51100000000E-03 0.  1.
    -200002    1    4    4    0    0 -0.14367438903E+03  0.27473518231E+02 -0.15555047331E+03  0.21562252668E+03  0.30000000000E+02 0.  1.
    -200000    1    3    3    0    0  0.26102024226E+03  0.59066810401E+02 -0.93749285172E+03  0.98016034504E+03  0.10100000000E+03 0. -1.
<mgrwt>
<rscale>  0 0.23809692E+04</rscale>
<asrwt>0</asrwt>
<pdfrwt beam="1">  1        2 0.11973779E+00 0.23809692E+04</pdfrwt>
<pdfrwt beam="2">  1       -2 0.24155736E+00 0.23809692E+04</pdfrwt>
<totfact> 0.23442645E+00</totfact>
</mgrwt>
</event>
<event>
 8    2  0.7237260E-052  0.1434538E+04  0.7818608E-02  0.8929190E-01
         -2   -1    0    0    0  501 -0.00000000000E+00  0.00000000000E+00  0.30213818861E+03  0.30213818862E+03  0.25500000000E-02 0. -1.
          2   -1    0    0  501    0  0.00000000000E+00 -0.00000000000E+00 -0.17027810132E+04  0.17027810132E+04  0.25500000000E-02 0.  1.
    -200001    2    1    2    0    0 -0.13176363104E+02  0.35434191452E+03 -0.85981537598E+03  0.11138551536E+04  0.61291028170E+03 0.  0.
   -5000001    2    3    3    0    0  0.61558666971E+01  0.93304422369E+01 -0.66439080219E+03  0.70422310506E+03  0.23321683435E+03 0.  0.
     200001    1    1    2    0    0  0.13176363104E+02 -0.35434191452E+03 -0.54082744862E+03  0.89106404826E+03  0.61300000000E+03 0.  1.
         11    1    4    4    0    0  0.86722178685E+02 -0.49438972833E+02 -0.49818313927E+03  0.50808600509E+03  0.51100000000E-03 0.  1.
    -200002    1    4    4    0    0 -0.80566311988E+02  0.58769415070E+02 -0.16620766291E+03  0.19613709997E+03  0.30000000000E+02 0.  1.
    -200000    1    3    3    0    0 -0.19332229801E+02  0.34501147228E+03 -0.19542457379E+03  0.40963204850E+03  0.10100000000E+03 0. -1.
<mgrwt>
<rscale>  0 0.14345385E+04</rscale>
<asrwt>0</asrwt>
<pdfrwt beam="1">  1        2 0.24325443E+00 0.14345385E+04</pdfrwt>
<pdfrwt beam="2">  1       -2 0.43162599E-01 0.14345385E+04</pdfrwt>
<totfact> 0.56535314E+01</totfact>
</mgrwt>
</event>
<event>
 8    2  0.7237260E-052  0.1595112E+04  0.7818608E-02  0.8823556E-01
         -2   -1    0    0    0  501 -0.00000000000E+00  0.00000000000E+00  0.85007883133E+03  0.85007883134E+03  0.25500000000E-02 0. -1.
          2   -1    0    0  501    0  0.00000000000E+00 -0.00000000000E+00 -0.74827866767E+03  0.74827866768E+03  0.25500000000E-02 0.  1.
    -200001    2    1    2    0    0 -0.41583118371E+01 -0.45443710005E+02  0.56002998328E+03  0.83165939029E+03  0.61314055236E+03 0.  0.
   -5000001    2    3    3    0    0 -0.17937895246E+03 -0.96834555801E+01  0.57567216399E+03  0.62568185143E+03  0.16675959018E+03 0.  0.
     200001    1    1    2    0    0  0.41583118371E+01  0.45443710005E+02 -0.45822981961E+03  0.76669810872E+03  0.61300000000E+03 0.  1.
         11    1    4    4    0    0 -0.13839597237E+03 -0.43162372921E+02  0.53039443369E+03  0.54984969846E+03  0.51100000000E-03 0.  1.
    -200002    1    4    4    0    0 -0.40982980090E+02  0.33478917340E+02  0.45277730302E+02  0.75832152974E+02  0.30000000000E+02 0.  1.
    -200000    1    3    3    0    0  0.17522064062E+03 -0.35760254425E+02 -0.15642180712E+02  0.20597753886E+03  0.10100000000E+03 0.  1.
<mgrwt>
<rscale>  0 0.15951124E+04</rscale>
<asrwt>0</asrwt>
<pdfrwt beam="1">  1        2 0.10689695E+00 0.15951124E+04</pdfrwt>
<pdfrwt beam="2">  1       -2 0.12143983E+00 0.15951124E+04</pdfrwt>
<totfact> 0.20519471E+01</totfact>
</mgrwt>
</event>
<event>
 8    2  0.7237260E-052  0.1771014E+04  0.7818608E-02  0.8721867E-01
          2   -1    0    0  501    0  0.00000000000E+00  0.00000000000E+00  0.11247662017E+04  0.11247662017E+04  0.25500000000E-02 0.  1.
         -2   -1    0    0    0  501 -0.00000000000E+00 -0.00000000000E+00 -0.69714308438E+03  0.69714308439E+03  0.25500000000E-02 0. -1.
    -200001    2    1    2    0    0  0.65096593117E+02 -0.50379494825E+03 -0.17716901138E+03  0.82211458956E+03  0.62164026852E+03 0.  0.
   -5000001    2    3    3    0    0 -0.22945876728E+03 -0.12687337261E+03  0.81244832241E+01  0.29926909262E+03  0.14404098032E+03 0.  0.
     200001    1    1    2    0    0 -0.65096593117E+02  0.50379494825E+03  0.60479212873E+03  0.99979469657E+03  0.61300000000E+03 0.  1.
         11    1    4    4    0    0 -0.31306680094E+02 -0.88224750687E+02  0.16202325234E+02  0.95006474493E+02  0.51100000000E-03 0.  1.
    -200002    1    4    4    0    0 -0.19815208719E+03 -0.38648621919E+02 -0.80778420104E+01  0.20426261813E+03  0.30000000000E+02 0.  1.
    -200000    1    3    3    0    0  0.29455536040E+03 -0.37692157565E+03 -0.18529349460E+03  0.52284549694E+03  0.10100000000E+03 0. -1.
<mgrwt>
<rscale>  0 0.17710144E+04</rscale>
<asrwt>0</asrwt>
<pdfrwt beam="1">  1        2 0.16068088E+00 0.17710144E+04</pdfrwt>
<pdfrwt beam="2">  1       -2 0.99591871E-01 0.17710144E+04</pdfrwt>
<totfact> 0.18704417E+01</totfact>
</mgrwt>
</event>
<event>
 8    2  0.7237260E-052  0.1360156E+04  0.7818608E-02  0.8983175E-01
          2   -1    0    0  501    0  0.00000000000E+00  0.00000000000E+00  0.21668797121E+04  0.21668797121E+04  0.25500000000E-02 0.  1.
         -2   -1    0    0    0  501 -0.00000000000E+00 -0.00000000000E+00 -0.21344351224E+03  0.21344351225E+03  0.25500000000E-02 0. -1.
    -200001    2    1    2    0    0 -0.41441773222E+02  0.14364560823E+03  0.53700462257E+03  0.82971079873E+03  0.61456859954E+03 0.  0.
   -5000001    2    3    3    0    0 -0.14209883300E+03  0.34231107934E+03  0.25737059627E+03  0.45823266780E+03  0.79803512686E+02 0.  0.
     200001    1    1    2    0    0  0.41441773222E+02 -0.14364560823E+03  0.14164315773E+04  0.15506124256E+04  0.61300000000E+03 0.  1.
         11    1    4    4    0    0 -0.44383608262E+02  0.12090952790E+03  0.50136262369E+02  0.13821238521E+03  0.51100000000E-03 0.  1.
    -200002    1    4    4    0    0 -0.97715224737E+02  0.22140155144E+03  0.20723433390E+03  0.32002028260E+03  0.30000000000E+02 0.  1.
    -200000    1    3    3    0    0  0.10065705978E+03 -0.19866547112E+03  0.27963402629E+03  0.37147813093E+03  0.10100000000E+03 0.  1.
<mgrwt>
<rscale>  0 0.13601565E+04</rscale>
<asrwt>0</asrwt>
<pdfrwt beam="1">  1        2 0.30955424E+00 0.13601565E+04</pdfrwt>
<pdfrwt beam="2">  1       -2 0.30491931E-01 0.13601565E+04</pdfrwt>
<totfact> 0.63972718E+01</totfact>
</mgrwt>
</event>
<event>
 8    2  0.7237260E-052  0.2175475E+04  0.7818608E-02  0.8528706E-01
          2   -1    0    0  501    0  0.00000000000E+00  0.00000000000E+00  0.17755086771E+04  0.17755086771E+04  0.25500000000E-02 0.  1.
         -2   -1    0    0    0  501 -0.00000000000E+00 -0.00000000000E+00 -0.66638514562E+03  0.66638514563E+03  0.25500000000E-02 0. -1.
    -200001    2    1    2    0    0 -0.73217219614E+03  0.31754046457E+03  0.91485285599E+02  0.10107178479E+04  0.61341090561E+03 0.  0.
   -5000001    2    3    3    0    0 -0.68756858738E+02  0.19557182547E+03  0.22322975913E+03  0.31605687653E+03  0.84169942983E+02 0.  0.
     200001    1    1    2    0    0  0.73217219614E+03 -0.31754046457E+03  0.10176382459E+04  0.14311759748E+04  0.61300000000E+03 0.  1.
         11    1    4    4    0    0 -0.60053359055E+02  0.16860777540E+03  0.20116656189E+03  0.26926376192E+03  0.51100000000E-03 0.  1.
    -200002    1    4    4    0    0 -0.87034996840E+01  0.26964050064E+02  0.22063197236E+02  0.46793114610E+02  0.30000000000E+02 0. -1.
    -200000    1    3    3    0    0 -0.66341533740E+03  0.12196863911E+03 -0.13174447353E+03  0.69466097136E+03  0.10100000000E+03 0. -1.
<mgrwt>
<rscale>  0 0.21754748E+04</rscale>
<asrwt>0</asrwt>
<pdfrwt beam="1">  1        2 0.25364410E+00 0.21754748E+04</pdfrwt>
<pdfrwt beam="2">  1       -2 0.95197877E-01 0.21754748E+04</pdfrwt>
<totfact> 0.89440260E+00</totfact>
</mgrwt>
</event>
<event>
 8    2  0.7237260E-052  0.2070830E+04  0.7818608E-02  0.8574203E-01
          2   -1    0    0  501    0  0.00000000000E+00  0.00000000000E+00  0.12781733844E+04  0.12781733844E+04  0.25500000000E-02 0.  1.
         -2   -1    0    0    0  501 -0.00000000000E+00 -0.00000000000E+00 -0.83876277981E+03  0.83876277982E+03  0.25500000000E-02 0. -1.
    -200001    2    1    2    0    0 -0.59703301398E+03 -0.39785954255E+03  0.65546941347E+03  0.11488498849E+04  0.61276036964E+03 0.  0.
   -5000001    2    3    3    0    0 -0.36554534469E+03 -0.20417094755E+02  0.48786245655E+03  0.66476060134E+03  0.26430403665E+03 0.  0.
     200001    1    1    2    0    0  0.59703301398E+03  0.39785954255E+03 -0.21605880887E+03  0.96808627935E+03  0.61300000000E+03 0.  1.
         11    1    4    4    0    0  0.23232499009E+02 -0.18246008546E+02  0.13718591302E+03  0.14033046914E+03  0.51100000000E-03 0.  1.
    -200002    1    4    4    0    0 -0.38877784370E+03 -0.21710862087E+01  0.35067654353E+03  0.52443013219E+03  0.30000000000E+02 0.  1.
    -200000    1    3    3    0    0 -0.23148766929E+03 -0.37744244780E+03  0.16760695691E+03  0.48408928354E+03  0.10100000000E+03 0. -1.
<mgrwt>
<rscale>  0 0.20708300E+04</rscale>
<asrwt>0</asrwt>
<pdfrwt beam="1">  1        2 0.18259620E+00 0.20708300E+04</pdfrwt>
<pdfrwt beam="2">  1       -2 0.11982325E+00 0.20708300E+04</pdfrwt>
<totfact> 0.95468660E+00</totfact>
</mgrwt>
</event>
<event>
 8    2  0.7237260E-052  0.2182640E+04  0.7818608E-02  0.8525689E-01
         -2   -1    0    0    0  501 -0.00000000000E+00  0.00000000000E+00  0.10820603422E+04  0.10820603422E+04  0.25500000000E-02 0. -1.
          2   -1    0    0  501    0  0.00000000000E+00 -0.00000000000E+00 -0.11006591644E+04  0.11006591644E+04  0.25500000000E-02 0.  1.
    -200001    2    1    2    0    0  0.33267363562E+03 -0.59474849678E+03 -0.60017219231E+03  0.10971808813E+04  0.61579355603E+03 0.  0.
   -5000001    2    3    3    0    0  0.45591712027E+02 -0.60682303422E+03 -0.41276465742E+03  0.73957158412E+03  0.79238037253E+02 0.  0.
     200001    1    1    2    0    0 -0.33267363562E+03  0.59474849678E+03  0.58157337005E+03  0.10855386253E+04  0.61300000000E+03 0. -1.
         11    1    4    4    0    0  0.33058685250E+02 -0.51775262587E+03 -0.35218843625E+03  0.62705450552E+03  0.51100000000E-03 0.  1.
    -200002    1    4    4    0    0  0.12533026777E+02 -0.89070408356E+02 -0.60576221173E+02  0.11251707860E+03  0.30000000000E+02 0. -1.
    -200000    1    3    3    0    0  0.28708192359E+03  0.12074537447E+02 -0.18740753489E+03  0.35760929720E+03  0.10100000000E+03 0.  1.
<mgrwt>
<rscale>  0 0.21826403E+04</rscale>
<asrwt>0</asrwt>
<pdfrwt beam="1">  1        2 0.15723702E+00 0.21826403E+04</pdfrwt>
<pdfrwt beam="2">  1       -2 0.15458005E+00 0.21826403E+04</pdfrwt>
<totfact> 0.62067660E+00</totfact>
</mgrwt>
</event>
<event>
 8    2  0.7237260E-052  0.1572670E+04  0.7818608E-02  0.8837516E-01
          2   -1    0    0  501    0  0.00000000000E+00  0.00000000000E+00  0.26804857589E+04  0.26804857589E+04  0.25500000000E-02 0.  1.
         -2   -1    0    0    0  501 -0.00000000000E+00 -0.00000000000E+00 -0.23067570207E+03  0.23067570209E+03  0.25500000000E-02 0. -1.
    -200001    2    1    2    0    0  0.18802785901E+03  0.28458346014E+03  0.56206627471E+03  0.89728762967E+03  0.61062621270E+03 0.  0.
   -5000001    2    3    3    0    0  0.35522009014E+03  0.43917656236E+02  0.22374506904E+03  0.43844614339E+03  0.11858790736E+03 0.  0.
     200001    1    1    2    0    0 -0.18802785901E+03 -0.28458346014E+03  0.18877437821E+04  0.20138738313E+04  0.61300000000E+03 0. -1.
         11    1    4    4    0    0  0.16701416155E+03 -0.32075102805E-01  0.16367728861E+03  0.23384607330E+03  0.51100000000E-03 0.  1.
    -200002    1    4    4    0    0  0.18820592858E+03  0.43949731339E+02  0.60067780423E+02  0.20460007010E+03  0.30000000000E+02 0. -1.
    -200000    1    3    3    0    0 -0.16719223112E+03  0.24066580390E+03  0.33832120567E+03  0.45884148627E+03  0.10100000000E+03 0. -1.
<mgrwt>
<rscale>  0 0.15726703E+04</rscale>
<asrwt>0</asrwt>
<pdfrwt beam="1">  1        2 0.38292653E+00 0.15726703E+04</pdfrwt>
<pdfrwt beam="2">  1       -2 0.32953672E-01 0.15726703E+04</pdfrwt>
<totfact> 0.29278326E+01</totfact>
</mgrwt>
</event>
<event>
 8    2  0.7237260E-052  0.1651698E+04  0.7818608E-02  0.8789403E-01
          2   -1    0    0  501    0  0.00000000000E+00  0.00000000000E+00  0.78027185568E+03  0.78027185569E+03  0.25500000000E-02 0.  1.
         -2   -1    0    0    0  501 -0.00000000000E+00 -0.00000000000E+00 -0.87408852454E+03  0.87408852454E+03  0.25500000000E-02 0. -1.
    -200001    2    1    2    0    0 -0.33277907392E+02 -0.40732215217E+03 -0.42177098704E+03  0.84792266435E+03  0.61160716513E+03 0.  0.
   -5000001    2    3    3    0    0  0.24313584115E+03 -0.32017221173E+02 -0.18801669054E+03  0.31679139739E+03  0.69759399624E+02 0.  0.
     200001    1    1    2    0    0  0.33277907392E+02  0.40732215217E+03  0.32795431819E+03  0.80643771588E+03  0.61300000000E+03 0.  1.
         11    1    4    4    0    0  0.72458514005E+02 -0.36730514107E+02 -0.68038252744E+02  0.10596495060E+03  0.51100000000E-03 0.  1.
    -200002    1    4    4    0    0  0.17067732714E+03  0.47132929333E+01 -0.11997843779E+03  0.21082644679E+03  0.30000000000E+02 0.  1.
    -200000    1    3    3    0    0 -0.27641374854E+03 -0.37530493100E+03 -0.23375429650E+03  0.53113126697E+03  0.10100000000E+03 0. -1.
<mgrwt>
<rscale>  0 0.16516981E+04</rscale>
<asrwt>0</asrwt>
<pdfrwt beam="1">  1        2 0.11146741E+00 0.16516981E+04</pdfrwt>
<pdfrwt beam="2">  1       -2 0.12486979E+00 0.16516981E+04</pdfrwt>
<totfact> 0.18068196E+01</totfact>
</mgrwt>
</event>
<event>
 8    2  0.7237260E-052  0.1607473E+04  0.7818608E-02  0.8815970E-01
          2   -1    0    0  501    0  0.00000000000E+00  0.00000000000E+00  0.11972673076E+04  0.11972673076E+04  0.25500000000E-02 0.  1.
         -2   -1    0    0    0  501 -0.00000000000E+00 -0.00000000000E+00 -0.53955578695E+03  0.53955578696E+03  0.25500000000E-02 0. -1.
    -200001    2    1    2    0    0 -0.33114871507E+03 -0.39292759111E+03  0.24765288386E+03  0.83795233135E+03  0.61382456401E+03 0.  0.
   -5000001    2    3    3    0    0  0.10517875447E+03 -0.25513450356E+03  0.21283448956E+03  0.36807796917E+03  0.11843431152E+03 0.  0.
     200001    1    1    2    0    0  0.33114871507E+03  0.39292759111E+03  0.41005863678E+03  0.89887076320E+03  0.61300000000E+03 0.  1.
         11    1    4    4    0    0  0.11730549680E+02 -0.10603156055E+03  0.26257355508E+02  0.10986239733E+03  0.51100000000E-03 0.  1.
    -200002    1    4    4    0    0  0.93448204789E+02 -0.14910294301E+03  0.18657713405E+03  0.25821557184E+03  0.30000000000E+02 0.  1.
    -200000    1    3    3    0    0 -0.43632746954E+03 -0.13779308755E+03  0.34818394303E+02  0.46987436218E+03  0.10100000000E+03 0. -1.
<mgrwt>
<rscale>  0 0.16074732E+04</rscale>
<asrwt>0</asrwt>
<pdfrwt beam="1">  1        2 0.17103819E+00 0.16074732E+04</pdfrwt>
<pdfrwt beam="2">  1       -2 0.77079398E-01 0.16074732E+04</pdfrwt>
<totfact> 0.30957611E+01</totfact>
</mgrwt>
</event>
<event>
 8    2  0.7237260E-052  0.1406138E+04  0.7818608E-02  0.8949387E-01
         -2   -1    0    0    0  501 -0.00000000000E+00  0.00000000000E+00  0.56621786138E+03  0.56621786139E+03  0.25500000000E-02 0. -1.
          2   -1    0    0  501    0  0.00000000000E+00 -0.00000000000E+00 -0.87299624428E+03  0.87299624428E+03  0.25500000000E-02 0.  1.
    -200001    2    1    2    0    0 -0.25261804267E+03  0.15203276214E+03 -0.33364321295E+03  0.75846411093E+03  0.61401968843E+03 0.  0.
   -5000001    2    3    3    0    0 -0.33742852301E+03  0.24931449493E+03 -0.39781903930E+03  0.58246385582E+03  0.70628816971E+02 0.  0.
     200001    1    1    2    0    0  0.25261804267E+03 -0.15203276214E+03  0.26864830050E+02  0.68074999474E+03  0.61300000000E+03 0.  1.
         11    1    4    4    0    0 -0.76133509579E+02  0.30285345614E+02 -0.59978410529E+02  0.10154271598E+03  0.51100000000E-03 0.  1.
    -200002    1    4    4    0    0 -0.26129501343E+03  0.21902914932E+03 -0.33784062877E+03  0.48092113984E+03  0.30000000000E+02 0.  1.
    -200000    1    3    3    0    0  0.84810480345E+02 -0.97281732791E+02  0.64175826349E+02  0.17600025511E+03  0.10100000000E+03 0. -1.
<mgrwt>
<rscale>  0 0.14061381E+04</rscale>
<asrwt>0</asrwt>
<pdfrwt beam="1">  1        2 0.12471375E+00 0.14061381E+04</pdfrwt>
<pdfrwt beam="2">  1       -2 0.80888266E-01 0.14061381E+04</pdfrwt>
<totfact> 0.44526150E+01</totfact>
</mgrwt>
</event>
<event>
 8    2  0.7237260E-052  0.1562977E+04  0.7818608E-02  0.8843621E-01
          2   -1    0    0  501    0  0.00000000000E+00  0.00000000000E+00  0.96525038430E+03  0.96525038430E+03  0.25500000000E-02 0.  1.
         -2   -1    0    0    0  501 -0.00000000000E+00 -0.00000000000E+00 -0.63271109582E+03  0.63271109582E+03  0.25500000000E-02 0. -1.
    -200001    2    1    2    0    0  0.12149455591E+03  0.48470458438E+02  0.64327387044E+03  0.89836495864E+03  0.61330906895E+03 0.  0.
   -5000001    2    3    3    0    0  0.22294917845E+01 -0.12495600806E+03  0.41553654366E+02  0.25294330326E+03  0.21595053574E+03 0.  0.
     200001    1    1    2    0    0 -0.12149455591E+03 -0.48470458438E+02 -0.31073458195E+03  0.69959652149E+03  0.61300000000E+03 0. -1.
         11    1    4    4    0    0 -0.95820623493E+02 -0.10543546799E+03  0.42104996508E+02  0.14856332161E+03  0.51100000000E-03 0.  1.
    -200002    1    4    4    0    0  0.98050115277E+02 -0.19520540068E+02 -0.55134214165E+00  0.10437998165E+03  0.30000000000E+02 0.  1.
    -200000    1    3    3    0    0  0.11926506412E+03  0.17342646650E+03  0.60172021607E+03  0.64542165538E+03  0.10100000000E+03 0.  1.
<mgrwt>
<rscale>  0 0.15629775E+04</rscale>
<asrwt>0</asrwt>
<pdfrwt beam="1">  1        2 0.13789291E+00 0.15629775E+04</pdfrwt>
<pdfrwt beam="2">  1       -2 0.90387300E-01 0.15629775E+04</pdfrwt>
<totfact> 0.29780252E+01</totfact>
</mgrwt>
</event>
<event>
 8    2  0.7237260E-052  0.1961294E+04  0.7818608E-02  0.8624934E-01
          2   -1    0    0  501    0  0.00000000000E+00  0.00000000000E+00  0.31447534009E+04  0.31447534009E+04  0.25500000000E-02 0.  1.
         -2   -1    0    0    0  501 -0.00000000000E+00 -0.00000000000E+00 -0.30580091607E+03  0.30580091608E+03  0.25500000000E-02 0. -1.
    -200001    2    1    2    0    0 -0.17902289900E+03 -0.15056142843E+03  0.27017038128E+04  0.27802378693E+04  0.61302624409E+03 0.  0.
   -5000001    2    3    3    0    0 -0.30936866771E+03 -0.15347764608E+03  0.87911177944E+03  0.95019927855E+03  0.10381130860E+03 0.  0.
     200001    1    1    2    0    0  0.17902289900E+03  0.15056142843E+03  0.13724867212E+03  0.67031644773E+03  0.61300000000E+03 0. -1.
         11    1    4    4    0    0 -0.16880867516E+03 -0.11387836314E+03  0.60236454175E+03  0.63585194154E+03  0.51100000000E-03 0.  1.
    -200002    1    4    4    0    0 -0.14055999255E+03 -0.39599282941E+02  0.27674723769E+03  0.31434733701E+03  0.30000000000E+02 0. -1.
    -200000    1    3    3    0    0  0.13034576871E+03  0.29162176501E+01  0.18225920333E+04  0.18300385908E+04  0.10100000000E+03 0.  1.
<mgrwt>
<rscale>  0 0.19612939E+04</rscale>
<asrwt>0</asrwt>
<pdfrwt beam="1">  1        2 0.44925050E+00 0.19612939E+04</pdfrwt>
<pdfrwt beam="2">  1       -2 0.43685844E-01 0.19612939E+04</pdfrwt>
<totfact> 0.90871868E+00</totfact>
</mgrwt>
</event>
<event>
 8    2  0.7237260E-052  0.1340141E+04  0.7818608E-02  0.8998325E-01
         -2   -1    0    0    0  501 -0.00000000000E+00  0.00000000000E+00  0.13386928269E+03  0.13386928271E+03  0.25500000000E-02 0. -1.
          2   -1    0    0  501    0  0.00000000000E+00 -0.00000000000E+00 -0.33539777970E+04  0.33539777970E+04  0.25500000000E-02 0.  1.
    -200001    2    1    2    0    0 -0.20629735341E+03 -0.24584613634E+02 -0.11617088493E+04  0.13300840756E+04  0.61350892105E+03 0.  0.
   -5000001    2    3    3    0    0  0.16665448700E+03 -0.62538992007E+02 -0.33026198207E+03  0.41245751580E+03  0.17135746842E+03 0.  0.
     200001    1    1    2    0    0  0.20629735341E+03  0.24584613634E+02 -0.20583996650E+04  0.21577630042E+04  0.61300000000E+03 0.  1.
         11    1    4    4    0    0  0.12626361830E+03 -0.10013393913E+03 -0.14479610431E+03  0.21664537590E+03  0.51100000000E-03 0.  1.
    -200002    1    4    4    0    0  0.40390868700E+02  0.37594947121E+02 -0.18546587775E+03  0.19581213991E+03  0.30000000000E+02 0.  1.
    -200000    1    3    3    0    0 -0.37295184042E+03  0.37954378373E+02 -0.83144686725E+03  0.91762655976E+03  0.10100000000E+03 0. -1.
<mgrwt>
<rscale>  0 0.13401412E+04</rscale>
<asrwt>0</asrwt>
<pdfrwt beam="1">  1        2 0.47913964E+00 0.13401412E+04</pdfrwt>
<pdfrwt beam="2">  1       -2 0.19124185E-01 0.13401412E+04</pdfrwt>
<totfact> 0.33741414E+01</totfact>
</mgrwt>
</event>
<event>
 8    2  0.7237260E-052  0.1348407E+04  0.7818608E-02  0.8992035E-01
          2   -1    0    0  501    0  0.00000000000E+00  0.00000000000E+00  0.52772652943E+03  0.52772652944E+03  0.25500000000E-02 0.  1.
         -2   -1    0    0    0  501 -0.00000000000E+00 -0.00000000000E+00 -0.86133722749E+03  0.86133722749E+03  0.25500000000E-02 0. -1.
    -200001    2    1    2    0    0  0.57296448704E+02  0.10928369744E+03 -0.42627592446E+03  0.75693904317E+03  0.61320448607E+03 0.  0.
   -5000001    2    3    3    0    0  0.13692982012E+03  0.14563916730E+03 -0.53801830141E+03  0.58272494260E+03  0.10071803901E+03 0.  0.
     200001    1    1    2    0    0 -0.57296448704E+02 -0.10928369744E+03  0.92665226406E+02  0.63212471376E+03  0.61300000000E+03 0.  1.
         11    1    4    4    0    0  0.17982596862E+02  0.63713262572E+02 -0.25642851734E+03  0.26483643655E+03  0.51100000000E-03 0.  1.
    -200002    1    4    4    0    0  0.11894722326E+03  0.81925904731E+02 -0.28158978407E+03  0.31788850605E+03  0.30000000000E+02 0.  1.
    -200000    1    3    3    0    0 -0.79633371416E+02 -0.36355469860E+02  0.11174237695E+03  0.17421410057E+03  0.10100000000E+03 0.  1.
<mgrwt>
<rscale>  0 0.13484072E+04</rscale>
<asrwt>0</asrwt>
<pdfrwt beam="1">  1        2 0.75389504E-01 0.13484072E+04</pdfrwt>
<pdfrwt beam="2">  1       -2 0.12304818E+00 0.13484072E+04</pdfrwt>
<totfact> 0.30776816E+01</totfact>
</mgrwt>
</event>
<event>
 8    2  0.7237260E-052  0.1834055E+04  0.7818608E-02  0.8688396E-01
          2   -1    0    0  501    0  0.00000000000E+00  0.00000000000E+00  0.52104235378E+03  0.52104235379E+03  0.25500000000E-02 0.  1.
         -2   -1    0    0    0  501 -0.00000000000E+00 -0.00000000000E+00 -0.16139560684E+04  0.16139560684E+04  0.25500000000E-02 0. -1.
    -200001    2    1    2    0    0 -0.34706992963E+03 -0.42282031132E+03 -0.72440296044E+02  0.82489554465E+03  0.61316434288E+03 0.  0.
   -5000001    2    3    3    0    0 -0.45892046142E+03 -0.38089118755E+03 -0.18920959647E+03  0.62969138896E+03  0.70886439219E+02 0.  0.
     200001    1    1    2    0    0  0.34706992963E+03  0.42282031132E+03 -0.10204734185E+04  0.13101028775E+04  0.61300000000E+03 0. -1.
         11    1    4    4    0    0 -0.16947894940E+03 -0.17534568303E+03 -0.64767927301E+02  0.25231747315E+03  0.51100000000E-03 0.  1.
    -200002    1    4    4    0    0 -0.28944151202E+03 -0.20554550452E+03 -0.12444166917E+03  0.37737391581E+03  0.30000000000E+02 0.  1.
    -200000    1    3    3    0    0  0.11185053179E+03 -0.41929123761E+02  0.11676930042E+03  0.19520415570E+03  0.10100000000E+03 0.  1.
<mgrwt>
<rscale>  0 0.18340550E+04</rscale>
<asrwt>0</asrwt>
<pdfrwt beam="1">  1        2 0.74434623E-01 0.18340550E+04</pdfrwt>
<pdfrwt beam="2">  1       -2 0.23056515E+00 0.18340550E+04</pdfrwt>
<totfact> 0.51245014E+00</totfact>
</mgrwt>
</event>
<event>
 8    2  0.7237260E-052  0.1260187E+04  0.7818608E-02  0.9061747E-01
         -2   -1    0    0    0  501 -0.00000000000E+00  0.00000000000E+00  0.16227949652E+03  0.16227949654E+03  0.25500000000E-02 0. -1.
          2   -1    0    0  501    0  0.00000000000E+00 -0.00000000000E+00 -0.24465072970E+04  0.24465072970E+04  0.25500000000E-02 0.  1.
    -200001    2    1    2    0    0  0.10385383489E+03 -0.97663593714E+02 -0.10821805289E+04  0.12519483951E+04  0.61313643681E+03 0.  0.
   -5000001    2    3    3    0    0  0.19112733803E+03  0.90939219749E+02 -0.11082922224E+03  0.25349356553E+03  0.84712869343E+02 0.  0.
     200001    1    1    2    0    0 -0.10385383489E+03  0.97663593714E+02 -0.12020472715E+04  0.13568383985E+04  0.61300000000E+03 0.  1.
         11    1    4    4    0    0  0.11779307053E+03  0.17090303131E+02 -0.48506702325E+02  0.12853087604E+03  0.51100000000E-03 0.  1.
    -200002    1    4    4    0    0  0.73334267504E+02  0.73848916617E+02 -0.62322519917E+02  0.12496268949E+03  0.30000000000E+02 0.  1.
    -200000    1    3    3    0    0 -0.87273503145E+02 -0.18860281346E+03 -0.97135130670E+03  0.99845482954E+03  0.10100000000E+03 0.  1.
<mgrwt>
<rscale>  0 0.12601872E+04</rscale>
<asrwt>0</asrwt>
<pdfrwt beam="1">  1        2 0.34950102E+00 0.12601872E+04</pdfrwt>
<pdfrwt beam="2">  1       -2 0.23182787E-01 0.12601872E+04</pdfrwt>
<totfact> 0.76275984E+01</totfact>
</mgrwt>
</event>
<event>
 8    2  0.7237260E-052  0.1416674E+04  0.7818608E-02  0.8941837E-01
          2   -1    0    0  501    0  0.00000000000E+00  0.00000000000E+00  0.21548860158E+04  0.21548860158E+04  0.25500000000E-02 0.  1.
         -2   -1    0    0    0  501 -0.00000000000E+00 -0.00000000000E+00 -0.23283879064E+03  0.23283879066E+03  0.25500000000E-02 0. -1.
    -200001    2    1    2    0    0 -0.17133526035E+02 -0.18987186193E+03  0.14671670572E+04  0.16009403068E+04  0.61162554773E+03 0.  0.
   -5000001    2    3    3    0    0  0.80512712773E+02  0.78402107029E+02  0.25873290726E+03  0.35513943787E+03  0.21575939313E+03 0.  0.
     200001    1    1    2    0    0  0.17133526035E+02  0.18987186193E+03  0.45488016799E+03  0.78678449966E+03  0.61300000000E+03 0.  1.
         11    1    4    4    0    0  0.64104722373E+01  0.10421735173E+02 -0.38250978474E+02  0.40160229989E+02  0.51100000000E-03 0.  1.
    -200002    1    4    4    0    0  0.74102240536E+02  0.67980371856E+02  0.29698388573E+03  0.31497920788E+03  0.30000000000E+02 0.  1.
    -200000    1    3    3    0    0 -0.97646238808E+02 -0.26827396896E+03  0.12084341499E+04  0.12458008689E+04  0.10100000000E+03 0.  1.
<mgrwt>
<rscale>  0 0.14166736E+04</rscale>
<asrwt>0</asrwt>
<pdfrwt beam="1">  1        2 0.30784087E+00 0.14166736E+04</pdfrwt>
<pdfrwt beam="2">  1       -2 0.33262683E-01 0.14166736E+04</pdfrwt>
<totfact> 0.54855059E+01</totfact>
</mgrwt>
</event>
<event>
 8    2  0.7237260E-052  0.2173680E+04  0.7818608E-02  0.8529464E-01
          2   -1    0    0  501    0  0.00000000000E+00  0.00000000000E+00  0.19076556586E+04  0.19076556586E+04  0.25500000000E-02 0.  1.
         -2   -1    0    0    0  501 -0.00000000000E+00 -0.00000000000E+00 -0.61920044277E+03  0.61920044278E+03  0.25500000000E-02 0. -1.
    -200001    2    1    2    0    0 -0.77991289404E+03  0.88258335854E+02  0.13836673001E+03  0.10054994104E+04  0.61304979905E+03 0.  0.
   -5000001    2    3    3    0    0 -0.49216741148E+01  0.12131771143E+03  0.53508008490E+02  0.21866631758E+03  0.17380921002E+03 0.  0.
     200001    1    1    2    0    0  0.77991289404E+03 -0.88258335854E+02  0.11500884859E+04  0.15213566911E+04  0.61300000000E+03 0.  1.
         11    1    4    4    0    0 -0.56074108533E+02  0.74868838525E+02 -0.37282759469E+02  0.10069584293E+03  0.51100000000E-03 0.  1.
    -200002    1    4    4    0    0  0.51152434418E+02  0.46448872908E+02  0.90790767959E+02  0.11797047465E+03  0.30000000000E+02 0.  1.
    -200000    1    3    3    0    0 -0.77499121992E+03 -0.33059375578E+02  0.84858721519E+02  0.78683309278E+03  0.10100000000E+03 0. -1.
<mgrwt>
<rscale>  0 0.21736800E+04</rscale>
<asrwt>0</asrwt>
<pdfrwt beam="1">  1        2 0.27252223E+00 0.21736800E+04</pdfrwt>
<pdfrwt beam="2">  1       -2 0.88457207E-01 0.21736800E+04</pdfrwt>
<totfact> 0.90612018E+00</totfact>
</mgrwt>
</event>
<event>
 8    2  0.7237260E-052  0.3475134E+04  0.7818608E-02  0.8119708E-01
          2   -1    0    0  501    0  0.00000000000E+00  0.00000000000E+00  0.15068419624E+04  0.15068419624E+04  0.25500000000E-02 0.  1.
         -2   -1    0    0    0  501 -0.00000000000E+00 -0.00000000000E+00 -0.20036206506E+04  0.20036206506E+04  0.25500000000E-02 0. -1.
    -200001    2    1    2    0    0 -0.31870591231E+03 -0.89479216185E+03 -0.15813881451E+04  0.19438187015E+04  0.61271217328E+03 0.  0.
   -5000001    2    3    3    0    0 -0.31157159561E+02  0.74162114318E+02 -0.13269532301E+03  0.17450568019E+03  0.79833551074E+02 0.  0.
     200001    1    1    2    0    0  0.31870591231E+03  0.89479216185E+03  0.10846094570E+04  0.15666439115E+04  0.61300000000E+03 0.  1.
         11    1    4    4    0    0  0.96754025973E+01 -0.92211491557E+01 -0.30037488104E+02  0.32876947836E+02  0.51100000000E-03 0.  1.
    -200002    1    4    4    0    0 -0.40832562159E+02  0.83383263474E+02 -0.10265783490E+03  0.14162873235E+03  0.30000000000E+02 0.  1.
    -200000    1    3    3    0    0 -0.28754875275E+03 -0.96895427616E+03 -0.14486928221E+04  0.17693130213E+04  0.10100000000E+03 0. -1.
<mgrwt>
<rscale>  0 0.34751343E+04</rscale>
<asrwt>0</asrwt>
<pdfrwt beam="1">  1        2 0.21526314E+00 0.34751343E+04</pdfrwt>
<pdfrwt beam="2">  1       -2 0.28623152E+00 0.34751343E+04</pdfrwt>
<totfact> 0.46455946E-01</totfact>
</mgrwt>
</event>
<event>
 8    2  0.7237260E-052  0.1322325E+04  0.7818608E-02  0.9012046E-01
          2   -1    0    0  501    0  0.00000000000E+00  0.00000000000E+00  0.12908129115E+04  0.12908129115E+04  0.25500000000E-02 0.  1.
         -2   -1    0    0    0  501 -0.00000000000E+00 -0.00000000000E+00 -0.33865155060E+03  0.33865155061E+03  0.25500000000E-02 0. -1.
    -200001    2    1    2    0    0  0.46456862725E+02 -0.43790614812E+02  0.77167847186E+03  0.98726594817E+03  0.61247900409E+03 0.  0.
   -5000001    2    3    3    0    0 -0.20424546582E+03  0.68209296478E+02  0.21280390591E+03  0.35644313776E+03  0.18814220594E+03 0.  0.
     200001    1    1    2    0    0 -0.46456862725E+02  0.43790614812E+02  0.18048288900E+03  0.64219851390E+03  0.61300000000E+03 0. -1.
         11    1    4    4    0    0 -0.99466699580E+02 -0.54962431671E+02  0.12878826821E+03  0.17175829310E+03  0.51100000000E-03 0.  1.
    -200002    1    4    4    0    0 -0.10477876624E+03  0.12317172815E+03  0.84015637700E+02  0.18468484466E+03  0.30000000000E+02 0.  1.
    -200000    1    3    3    0    0  0.25070232854E+03 -0.11199991129E+03  0.55887456595E+03  0.63082281041E+03  0.10100000000E+03 0.  1.
<mgrwt>
<rscale>  0 0.13223249E+04</rscale>
<asrwt>0</asrwt>
<pdfrwt beam="1">  1        2 0.18440185E+00 0.13223249E+04</pdfrwt>
<pdfrwt beam="2">  1       -2 0.48378792E-01 0.13223249E+04</pdfrwt>
<totfact> 0.75262749E+01</totfact>
</mgrwt>
</event>
<event>
 8    2  0.7237260E-052  0.1525203E+04  0.7818608E-02  0.8867864E-01
         -2   -1    0    0    0  501 -0.00000000000E+00  0.00000000000E+00  0.56145326418E+03  0.56145326419E+03  0.25500000000E-02 0.  1.
          2   -1    0    0  501    0  0.00000000000E+00 -0.00000000000E+00 -0.10358139545E+04  0.10358139545E+04  0.25500000000E-02 0. -1.
    -200001    2    1    2    0    0 -0.25764504229E+03  0.18015090009E+03 -0.57971711621E+03  0.90034233672E+03  0.61295111864E+03 0.  0.
   -5000001    2    3    3    0    0  0.10397309650E+03  0.19103719303E+03 -0.36977692786E+02  0.24030198082E+03  0.95247458260E+02 0.  0.
     200001    1    1    2    0    0  0.25764504229E+03 -0.18015090009E+03  0.10535642590E+03  0.69692488196E+03  0.61300000000E+03 0.  1.
         11    1    4    4    0    0 -0.29652438805E+01  0.58265352757E+02 -0.33270271133E+02  0.67160665160E+02  0.51100000000E-03 0.  1.
    -200002    1    4    4    0    0  0.10693834038E+03  0.13277184027E+03 -0.37074216521E+01  0.17314131566E+03  0.30000000000E+02 0.  1.
    -200000    1    3    3    0    0 -0.36161813879E+03 -0.10886292940E+02 -0.54273942343E+03  0.66004035590E+03  0.10100000000E+03 0. -1.
<mgrwt>
<rscale>  0 0.15252031E+04</rscale>
<asrwt>0</asrwt>
<pdfrwt beam="1">  1        2 0.14797342E+00 0.15252031E+04</pdfrwt>
<pdfrwt beam="2">  1       -2 0.80207609E-01 0.15252031E+04</pdfrwt>
<totfact> 0.35459457E+01</totfact>
</mgrwt>
</event>
<event>
 8    2  0.7237260E-052  0.1418304E+04  0.7818608E-02  0.8940674E-01
          2   -1    0    0  501    0  0.00000000000E+00  0.00000000000E+00  0.10766338061E+04  0.10766338061E+04  0.25500000000E-02 0. -1.
         -2   -1    0    0    0  501 -0.00000000000E+00 -0.00000000000E+00 -0.46710115335E+03  0.46710115335E+03  0.25500000000E-02 0.  1.
    -200001    2    1    2    0    0 -0.84414710607E+02 -0.34101869516E+03  0.23841195457E+03  0.74566280328E+03  0.61298708167E+03 0.  0.
   -5000001    2    3    3    0    0  0.28093676867E+02 -0.28820893882E+03 -0.14535747274E+03  0.32981790315E+03  0.61623106529E+02 0.  0.
     200001    1    1    2    0    0  0.84414710607E+02  0.34101869516E+03  0.37112069814E+03  0.79807215614E+03  0.61300000000E+03 0.  1.
         11    1    4    4    0    0  0.53842141817E+01 -0.34766730608E+02 -0.38654806647E+02  0.52267670664E+02  0.51100000000E-03 0.  1.
    -200002    1    4    4    0    0  0.22709462685E+02 -0.25344220822E+03 -0.10670266610E+03  0.27755023249E+03  0.30000000000E+02 0.  1.
    -200000    1    3    3    0    0 -0.11250838747E+03 -0.52809756336E+02  0.38376942732E+03  0.41584490013E+03  0.10100000000E+03 0. -1.
<mgrwt>
<rscale>  0 0.14183045E+04</rscale>
<asrwt>0</asrwt>
<pdfrwt beam="1">  1        2 0.15380483E+00 0.14183045E+04</pdfrwt>
<pdfrwt beam="2">  1       -2 0.66728736E-01 0.14183045E+04</pdfrwt>
<totfact> 0.50661049E+01</totfact>
</mgrwt>
</event>
<event>
 8    2  0.7237260E-052  0.2040522E+04  0.7818608E-02  0.8587906E-01
          2   -1    0    0  501    0  0.00000000000E+00  0.00000000000E+00  0.15490505953E+04  0.15490505953E+04  0.25500000000E-02 0.  1.
         -2   -1    0    0    0  501 -0.00000000000E+00 -0.00000000000E+00 -0.67198084954E+03  0.67198084955E+03  0.25500000000E-02 0. -1.
    -200001    2    1    2    0    0  0.27204275295E+03  0.49427541589E+03  0.10795644154E+04  0.13636584004E+04  0.61301668795E+03 0.  0.
   -5000001    2    3    3    0    0 -0.22394423127E+01  0.53327149334E+03  0.64222099286E+03  0.83619116353E+03  0.48829884105E+02 0.  0.
     200001    1    1    2    0    0 -0.27204275295E+03 -0.49427541589E+03 -0.20249466963E+03  0.85737304449E+03  0.61300000000E+03 0. -1.
         11    1    4    4    0    0  0.71532562258E+01  0.21062630741E+03  0.23405462183E+03  0.31495424501E+03  0.51100000000E-03 0.  1.
    -200002    1    4    4    0    0 -0.93926985385E+01  0.32264518593E+03  0.40816637102E+03  0.52123691852E+03  0.30000000000E+02 0.  1.
    -200000    1    3    3    0    0  0.27428219526E+03 -0.38996077451E+02  0.43734342253E+03  0.52746723683E+03  0.10100000000E+03 0. -1.
<mgrwt>
<rscale>  0 0.20405218E+04</rscale>
<asrwt>0</asrwt>
<pdfrwt beam="1">  1        2 0.22129295E+00 0.20405218E+04</pdfrwt>
<pdfrwt beam="2">  1       -2 0.95997262E-01 0.20405218E+04</pdfrwt>
<totfact> 0.11644319E+01</totfact>
</mgrwt>
</event>
<event>
 8    2  0.7237260E-052  0.1667125E+04  0.7818608E-02  0.8780339E-01
         -2   -1    0    0    0  501 -0.00000000000E+00  0.00000000000E+00  0.11273429595E+04  0.11273429596E+04  0.25500000000E-02 0. -1.
          2   -1    0    0  501    0  0.00000000000E+00 -0.00000000000E+00 -0.61634010372E+03  0.61634010373E+03  0.25500000000E-02 0.  1.
    -200001    2    1    2    0    0  0.39893787240E+03  0.33787856603E+03  0.47846604904E+03  0.93736985167E+03  0.61353005414E+03 0.  0.
   -5000001    2    3    3    0    0  0.23270217738E+03  0.25660048589E+03 -0.60046442134E+02  0.35906445160E+03  0.72990358772E+02 0.  0.
     200001    1    1    2    0    0 -0.39893787240E+03 -0.33787856603E+03  0.32536806791E+02  0.80631321161E+03  0.61300000000E+03 0.  1.
         11    1    4    4    0    0  0.95148035285E+02  0.10317004024E+03 -0.55084720571E+02  0.15076979890E+03  0.51100000000E-03 0.  1.
    -200002    1    4    4    0    0  0.13755414210E+03  0.15343044565E+03 -0.49617215634E+01  0.20829465270E+03  0.30000000000E+02 0.  1.
    -200000    1    3    3    0    0  0.16623569502E+03  0.81278080140E+02  0.53851249117E+03  0.57830540007E+03  0.10100000000E+03 0. -1.
<mgrwt>
<rscale>  0 0.16671253E+04</rscale>
<asrwt>0</asrwt>
<pdfrwt beam="1">  1        2 0.88048587E-01 0.16671253E+04</pdfrwt>
<pdfrwt beam="2">  1       -2 0.16104899E+00 0.16671253E+04</pdfrwt>
<totfact> 0.12427391E+01</totfact>
</mgrwt>
</event>
<event>
 8    2  0.7237260E-052  0.1369697E+04  0.7818608E-02  0.8976050E-01
         -2   -1    0    0    0  501 -0.00000000000E+00  0.00000000000E+00  0.15429379325E+03  0.15429379328E+03  0.25500000000E-02 0. -1.
          2   -1    0    0  501    0  0.00000000000E+00 -0.00000000000E+00 -0.30397684785E+04  0.30397684785E+04  0.25500000000E-02 0.  1.
    -200001    2    1    2    0    0  0.49746213964E+02 -0.29979126163E+03 -0.14811931176E+04  0.16319722591E+04  0.61404471875E+03 0.  0.
   -5000001    2    3    3    0    0  0.54567887956E+02 -0.23258138027E+03 -0.14893902514E+04  0.15102816280E+04  0.74803222288E+02 0.  0.
     200001    1    1    2    0    0 -0.49746213964E+02  0.29979126163E+03 -0.14042815677E+04  0.15620900127E+04  0.61300000000E+03 0. -1.
         11    1    4    4    0    0  0.61424048057E+02 -0.15115637306E+03 -0.99402340638E+03  0.10073250197E+04  0.51100000000E-03 0.  1.
    -200002    1    4    4    0    0 -0.68561601008E+01 -0.81425007203E+02 -0.49536684506E+03  0.50295660838E+03  0.30000000000E+02 0.  1.
    -200000    1    3    3    0    0 -0.48216739919E+01 -0.67209881367E+02  0.81971338476E+01  0.12169063110E+03  0.10100000000E+03 0. -1.
<mgrwt>
<rscale>  0 0.13696969E+04</rscale>
<asrwt>0</asrwt>
<pdfrwt beam="1">  1        2 0.43425260E+00 0.13696969E+04</pdfrwt>
<pdfrwt beam="2">  1       -2 0.22041972E-01 0.13696969E+04</pdfrwt>
<totfact> 0.39653971E+01</totfact>
</mgrwt>
</event>
<event>
 8    2  0.7237260E-052  0.1282484E+04  0.7818608E-02  0.9043572E-01
          2   -1    0    0  501    0  0.00000000000E+00  0.00000000000E+00  0.13567347616E+04  0.13567347616E+04  0.25500000000E-02 0.  1.
         -2   -1    0    0    0  501 -0.00000000000E+00 -0.00000000000E+00 -0.30307410056E+03  0.30307410057E+03  0.25500000000E-02 0. -1.
    -200001    2    1    2    0    0 -0.99099710217E+01  0.85585879741E+02  0.31036828640E+03  0.69250554647E+03  0.61303532390E+03 0.  0.
   -5000001    2    3    3    0    0 -0.34951740502E+02  0.30719399073E+03  0.32661271491E+02  0.32229016159E+03  0.84937727175E+02 0.  0.
     200001    1    1    2    0    0  0.99099710217E+01 -0.85585879741E+02  0.74329237461E+03  0.96730331566E+03  0.61300000000E+03 0.  1.
         11    1    4    4    0    0 -0.43374771912E+02  0.87534548735E+02 -0.21600745570E+01  0.97715576972E+02  0.51100000000E-03 0.  1.
    -200002    1    4    4    0    0  0.84230314105E+01  0.21965944199E+03  0.34821346048E+02  0.22457458462E+03  0.30000000000E+02 0.  1.
    -200000    1    3    3    0    0  0.25041769480E+02 -0.22160811099E+03  0.27770701491E+03  0.37021538488E+03  0.10100000000E+03 0. -1.
<mgrwt>
<rscale>  0 0.12824838E+04</rscale>
<asrwt>0</asrwt>
<pdfrwt beam="1">  1        2 0.19381925E+00 0.12824838E+04</pdfrwt>
<pdfrwt beam="2">  1       -2 0.43296300E-01 0.12824838E+04</pdfrwt>
<totfact> 0.86704813E+01</totfact>
</mgrwt>
</event>
<event>
 8    2  0.7237260E-052  0.1657445E+04  0.7818608E-02  0.8786014E-01
         -2   -1    0    0    0  501 -0.00000000000E+00  0.00000000000E+00  0.34264363220E+03  0.34264363221E+03  0.25500000000E-02 0. -1.
          2   -1    0    0  501    0  0.00000000000E+00 -0.00000000000E+00 -0.20043596146E+04  0.20043596146E+04  0.25500000000E-02 0.  1.
    -200001    2    1    2    0    0  0.55063892224E+03 -0.53603521283E+02 -0.75625949343E+03  0.11215657683E+04  0.61636417089E+03 0.  0.
   -5000001    2    3    3    0    0  0.30576661171E+03 -0.31157772958E+03 -0.30352736834E+03  0.53703132309E+03  0.75497524714E+02 0.  0.
     200001    1    1    2    0    0 -0.55063892224E+03  0.53603521283E+02 -0.90545648896E+03  0.12254374784E+04  0.61300000000E+03 0. -1.
         11    1    4    4    0    0  0.12695539495E+03 -0.11073406021E+03 -0.15208114895E+03  0.22695457754E+03  0.51100000000E-03 0.  1.
    -200002    1    4    4    0    0  0.17881121676E+03 -0.20084366936E+03 -0.15144621939E+03  0.31007674555E+03  0.30000000000E+02 0.  1.
    -200000    1    3    3    0    0  0.24487231053E+03  0.25797420830E+03 -0.45273212509E+03  0.58453444526E+03  0.10100000000E+03 0.  1.
<mgrwt>
<rscale>  0 0.16574451E+04</rscale>
<asrwt>0</asrwt>
<pdfrwt beam="1">  1        2 0.28633708E+00 0.16574451E+04</pdfrwt>
<pdfrwt beam="2">  1       -2 0.48949091E-01 0.16574451E+04</pdfrwt>
<totfact> 0.30176428E+01</totfact>
</mgrwt>
</event>
<event>
 8    2  0.7237260E-052  0.1490179E+04  0.7818608E-02  0.8891010E-01
         -2   -1    0    0    0  501 -0.00000000000E+00  0.00000000000E+00  0.55102330512E+03  0.55102330513E+03  0.25500000000E-02 0. -1.
          2   -1    0    0  501    0  0.00000000000E+00 -0.00000000000E+00 -0.10075045594E+04  0.10075045594E+04  0.25500000000E-02 0.  1.
    -200001    2    1    2    0    0  0.45092646035E+02 -0.16759471663E+03 -0.63327180754E+03  0.89735826791E+03  0.61163497530E+03 0.  0.
   -5000001    2    3    3    0    0 -0.48172196819E+02 -0.29624140587E+03 -0.12429592982E+03  0.35467443209E+03  0.14235499119E+03 0.  0.
     200001    1    1    2    0    0 -0.45092646035E+02  0.16759471663E+03  0.17679055326E+03  0.66116959662E+03  0.61300000000E+03 0. -1.
         11    1    4    4    0    0 -0.28144876014E+01 -0.24412161868E+02 -0.67319236363E+02  0.71664179143E+02  0.51100000000E-03 0.  1.
    -200002    1    4    4    0    0 -0.45357709218E+02 -0.27182924400E+03 -0.56976693460E+02  0.28301025295E+03  0.30000000000E+02 0.  1.
    -200000    1    3    3    0    0  0.93264842854E+02  0.12864668924E+03 -0.50897587771E+03  0.54268383582E+03  0.10100000000E+03 0.  1.
<mgrwt>
<rscale>  0 0.14901792E+04</rscale>
<asrwt>0</asrwt>
<pdfrwt beam="1">  1        2 0.14392922E+00 0.14901792E+04</pdfrwt>
<pdfrwt beam="2">  1       -2 0.78717616E-01 0.14901792E+04</pdfrwt>
<totfact> 0.38589660E+01</totfact>
</mgrwt>
</event>
<event>
 8    2  0.7237260E-052  0.1689915E+04  0.7818608E-02  0.8767137E-01
         -2   -1    0    0    0  501 -0.00000000000E+00  0.00000000000E+00  0.48630808543E+03  0.48630808543E+03  0.25500000000E-02 0. -1.
          2   -1    0    0  501    0  0.00000000000E+00 -0.00000000000E+00 -0.14681083813E+04  0.14681083813E+04  0.25500000000E-02 0.  1.
    -200001    2    1    2    0    0 -0.24023474434E+03 -0.35457219538E+03 -0.36486893849E+02  0.74908638657E+03  0.61348589796E+03 0.  0.
   -5000001    2    3    3    0    0 -0.15794715951E+03 -0.46818284641E+03 -0.17115334829E+03  0.52996386240E+03  0.86172756417E+02 0.  0.
     200001    1    1    2    0    0  0.24023474434E+03  0.35457219538E+03 -0.94531340207E+03  0.12053300802E+04  0.61300000000E+03 0.  1.
         11    1    4    4    0    0  0.22454930409E+01 -0.78287099263E+02 -0.36788409623E+02  0.86529181395E+02  0.51100000000E-03 0.  1.
    -200002    1    4    4    0    0 -0.16019265255E+03 -0.38989574715E+03 -0.13436493867E+03  0.44343468101E+03  0.30000000000E+02 0.  1.
    -200000    1    3    3    0    0 -0.82287584831E+02  0.11361065103E+03  0.13466645445E+03  0.21912252417E+03  0.10100000000E+03 0. -1.
<mgrwt>
<rscale>  0 0.16899148E+04</rscale>
<asrwt>0</asrwt>
<pdfrwt beam="1">  1        2 0.20972977E+00 0.16899148E+04</pdfrwt>
<pdfrwt beam="2">  1       -2 0.69472584E-01 0.16899148E+04</pdfrwt>
<totfact> 0.27431504E+01</totfact>
</mgrwt>
</event>
<event>
 8    2  0.7237260E-052  0.1897930E+04  0.7818608E-02  0.8655887E-01
         -2   -1    0    0    0  501 -0.00000000000E+00  0.00000000000E+00  0.10290279369E+04  0.10290279369E+04  0.25500000000E-02 0. -1.
          2   -1    0    0  501    0  0.00000000000E+00 -0.00000000000E+00 -0.87513161125E+03  0.87513161126E+03  0.25500000000E-02 0.  1.
    -200001    2    1    2    0    0 -0.40378900484E+03 -0.41832147640E+03 -0.35566972200E+03  0.91751626158E+03  0.61424483805E+03 0.  0.
   -5000001    2    3    3    0    0 -0.24408699070E+00  0.10777205513E+03 -0.17648873740E+03  0.22330467288E+03  0.84272338628E+02 0.  0.
     200001    1    1    2    0    0  0.40378900484E+03  0.41832147640E+03  0.50956604765E+03  0.98664328659E+03  0.61300000000E+03 0. -1.
         11    1    4    4    0    0 -0.17057699729E+02  0.89756001466E+02 -0.15217929545E+03  0.17749828981E+03  0.51100000000E-03 0.  1.
    -200002    1    4    4    0    0  0.16813612739E+02  0.18016053662E+02 -0.24309441945E+02  0.45806383076E+02  0.30000000000E+02 0. -1.
    -200000    1    3    3    0    0 -0.40354491785E+03 -0.52609353153E+03 -0.17918098460E+03  0.69421158870E+03  0.10100000000E+03 0.  1.
<mgrwt>
<rscale>  0 0.18979303E+04</rscale>
<asrwt>0</asrwt>
<pdfrwt beam="1">  1        2 0.12501880E+00 0.18979303E+04</pdfrwt>
<pdfrwt beam="2">  1       -2 0.14700399E+00 0.18979303E+04</pdfrwt>
<totfact> 0.10030199E+01</totfact>
</mgrwt>
</event>
<event>
 8    2  0.7237260E-052  0.1296574E+04  0.7818608E-02  0.9032286E-01
         -2   -1    0    0    0  501 -0.00000000000E+00  0.00000000000E+00  0.83345417550E+03  0.83345417550E+03  0.25500000000E-02 0. -1.
          2   -1    0    0  501    0  0.00000000000E+00 -0.00000000000E+00 -0.50425838684E+03  0.50425838684E+03  0.25500000000E-02 0.  1.
    -200001    2    1    2    0    0  0.43700905467E+01  0.10669938883E+03  0.35199913474E+03  0.71506270098E+03  0.61319443752E+03 0.  0.
   -5000001    2    3    3    0    0  0.16328494287E+02 -0.23764517513E+03  0.74608719218E+02  0.26134183440E+03  0.77403129372E+02 0.  0.
     200001    1    1    2    0    0 -0.43700905467E+01 -0.10669938883E+03 -0.22803346082E+02  0.62264986137E+03  0.61300000000E+03 0.  1.
         11    1    4    4    0    0 -0.67768512226E+01 -0.13458535424E+03  0.12847012420E+02  0.13536686824E+03  0.51100000000E-03 0.  1.
    -200002    1    4    4    0    0  0.23105345509E+02 -0.10305982089E+03  0.61761706798E+02  0.12597496616E+03  0.30000000000E+02 0. -1.
    -200000    1    3    3    0    0 -0.11958403740E+02  0.34434456396E+03  0.27739041553E+03  0.45372086658E+03  0.10100000000E+03 0. -1.
<mgrwt>
<rscale>  0 0.12965743E+04</rscale>
<asrwt>0</asrwt>
<pdfrwt beam="1">  1        2 0.72036912E-01 0.12965743E+04</pdfrwt>
<pdfrwt beam="2">  1       -2 0.11906488E+00 0.12965743E+04</pdfrwt>
<totfact> 0.35334358E+01</totfact>
</mgrwt>
</event>
<event>
 8    2  0.7237260E-052  0.1273482E+04  0.7818608E-02  0.9050863E-01
          2   -1    0    0  501    0  0.00000000000E+00  0.00000000000E+00  0.15726997014E+04  0.15726997014E+04  0.25500000000E-02 0.  1.
         -2   -1    0    0    0  501 -0.00000000000E+00 -0.00000000000E+00 -0.25779802279E+03  0.25779802280E+03  0.25500000000E-02 0. -1.
    -200001    2    1    2    0    0  0.12718829558E+02  0.97171628726E+02  0.45337696045E+03  0.76861358080E+03  0.61287198848E+03 0.  0.
   -5000001    2    3    3    0    0  0.26555611384E+03  0.11516889476E+03  0.38168044351E+03  0.48649306674E+03  0.84921252367E+02 0.  0.
     200001    1    1    2    0    0 -0.12718829558E+02 -0.97171628726E+02  0.86152471820E+03  0.10618841435E+04  0.61300000000E+03 0.  1.
         11    1    4    4    0    0  0.17699886844E+02  0.92053577243E+01  0.22263652209E+01  0.20074394324E+02  0.51100000000E-03 0.  1.
    -200002    1    4    4    0    0  0.24785622700E+03  0.10596353704E+03  0.37945407829E+03  0.46641867242E+03  0.30000000000E+02 0.  1.
    -200000    1    3    3    0    0 -0.25283728429E+03 -0.17997266039E+02  0.71696516942E+02  0.28212051406E+03  0.10100000000E+03 0. -1.
<mgrwt>
<rscale>  0 0.12734816E+04</rscale>
<asrwt>0</asrwt>
<pdfrwt beam="1">  1        2 0.22467140E+00 0.12734816E+04</pdfrwt>
<pdfrwt beam="2">  1       -2 0.36828287E-01 0.12734816E+04</pdfrwt>
<totfact> 0.91204115E+01</totfact>
</mgrwt>
</event>
<event>
 8    2  0.7237260E-052  0.1456960E+04  0.7818608E-02  0.8913590E-01
          2   -1    0    0  501    0  0.00000000000E+00  0.00000000000E+00  0.63767023208E+03  0.63767023209E+03  0.25500000000E-02 0.  1.
         -2   -1    0    0    0  501 -0.00000000000E+00 -0.00000000000E+00 -0.83222173519E+03  0.83222173519E+03  0.25500000000E-02 0. -1.
    -200001    2    1    2    0    0 -0.88350209917E+02  0.19797337785E+03 -0.42873816090E+03  0.77879746678E+03  0.61295176460E+03 0.  0.
   -5000001    2    3    3    0    0  0.18780527606E+03  0.26266650460E+03 -0.14239290389E+03  0.36329577089E+03  0.86276090054E+02 0.  0.
     200001    1    1    2    0    0  0.88350209917E+02 -0.19797337785E+03  0.23418665779E+03  0.69109450050E+03  0.61300000000E+03 0.  1.
         11    1    4    4    0    0  0.78400983822E+02  0.85682047637E+02 -0.14028673404E+02  0.11698261080E+03  0.51100000000E-03 0.  1.
    -200002    1    4    4    0    0  0.10940429223E+03  0.17698445696E+03 -0.12836423049E+03  0.24631316009E+03  0.30000000000E+02 0.  1.
    -200000    1    3    3    0    0 -0.27615548597E+03 -0.64693126744E+02 -0.28634525700E+03  0.41550169589E+03  0.10100000000E+03 0. -1.
<mgrwt>
<rscale>  0 0.14569599E+04</rscale>
<asrwt>0</asrwt>
<pdfrwt beam="1">  1        2 0.91095747E-01 0.14569599E+04</pdfrwt>
<pdfrwt beam="2">  1       -2 0.11888882E+00 0.14569599E+04</pdfrwt>
<totfact> 0.26616582E+01</totfact>
</mgrwt>
</event>
<event>
 8    2  0.7237260E-052  0.1502069E+04  0.7818608E-02  0.8883078E-01
         -2   -1    0    0    0  501 -0.00000000000E+00  0.00000000000E+00  0.45155355881E+03  0.45155355882E+03  0.25500000000E-02 0. -1.
          2   -1    0    0  501    0  0.00000000000E+00 -0.00000000000E+00 -0.12491384641E+04  0.12491384641E+04  0.25500000000E-02 0.  1.
    -200001    2    1    2    0    0  0.32342344790E+03 -0.24531024125E+03 -0.22329598260E+03  0.76776297533E+03  0.61222467227E+03 0.  0.
   -5000001    2    3    3    0    0  0.29274924880E+03 -0.34963771362E+03 -0.34223436127E+03  0.57757237119E+03  0.92286686304E+02 0.  0.
     200001    1    1    2    0    0 -0.32342344790E+03  0.24531024125E+03 -0.57428892271E+03  0.93292904760E+03  0.61300000000E+03 0. -1.
         11    1    4    4    0    0  0.49574723370E+02 -0.11693154801E+03 -0.83795896233E+02  0.15215910207E+03  0.51100000000E-03 0.  1.
    -200002    1    4    4    0    0  0.24317452543E+03 -0.23270616561E+03 -0.25843846504E+03  0.42541326912E+03  0.30000000000E+02 0.  1.
    -200000    1    3    3    0    0  0.30674199099E+02  0.10432747237E+03  0.11893837867E+03  0.19019060414E+03  0.10100000000E+03 0. -1.
<mgrwt>
<rscale>  0 0.15020691E+04</rscale>
<asrwt>0</asrwt>
<pdfrwt beam="1">  1        2 0.17844835E+00 0.15020691E+04</pdfrwt>
<pdfrwt beam="2">  1       -2 0.64507652E-01 0.15020691E+04</pdfrwt>
<totfact> 0.43041676E+01</totfact>
</mgrwt>
</event>
<event>
 8    2  0.7237260E-052  0.1284692E+04  0.7818608E-02  0.9041794E-01
          2   -1    0    0  501    0  0.00000000000E+00  0.00000000000E+00  0.23283788784E+04  0.23283788784E+04  0.25500000000E-02 0.  1.
         -2   -1    0    0    0  501 -0.00000000000E+00 -0.00000000000E+00 -0.17720831265E+03  0.17720831267E+03  0.25500000000E-02 0. -1.
    -200001    2    1    2    0    0 -0.82504157264E+02  0.61103583042E+02  0.13926552453E+04  0.15249470556E+04  0.61272694287E+03 0.  0.
   -5000001    2    3    3    0    0 -0.33040086175E+03  0.16767260593E+02  0.62733588690E+03  0.71295370230E+03  0.72847760170E+02 0.  0.
     200001    1    1    2    0    0  0.82504157264E+02 -0.61103583042E+02  0.75851532052E+03  0.98064013547E+03  0.61300000000E+03 0. -1.
         11    1    4    4    0    0 -0.21548213103E+03  0.21891193602E+02  0.45065005703E+03  0.49999724704E+03  0.51100000000E-03 0.  1.
    -200002    1    4    4    0    0 -0.11491873071E+03 -0.51239330088E+01  0.17668582987E+03  0.21295645525E+03  0.30000000000E+02 0. -1.
    -200000    1    3    3    0    0  0.24789670448E+03  0.44336322449E+02  0.76531935837E+03  0.81199335335E+03  0.10100000000E+03 0.  1.
<mgrwt>
<rscale>  0 0.12846915E+04</rscale>
<asrwt>0</asrwt>
<pdfrwt beam="1">  1        2 0.33262554E+00 0.12846915E+04</pdfrwt>
<pdfrwt beam="2">  1       -2 0.25315474E-01 0.12846915E+04</pdfrwt>
<totfact> 0.74812200E+01</totfact>
</mgrwt>
</event>
<event>
 8    2  0.7237260E-052  0.1444835E+04  0.7818608E-02  0.8921989E-01
         -2   -1    0    0    0  501 -0.00000000000E+00  0.00000000000E+00  0.15366295826E+03  0.15366295828E+03  0.25500000000E-02 0. -1.
          2   -1    0    0  501    0  0.00000000000E+00 -0.00000000000E+00 -0.33963123489E+04  0.33963123489E+04  0.25500000000E-02 0.  1.
    -200001    2    1    2    0    0 -0.22667275402E+03 -0.37877444482E+02 -0.87093785210E+03  0.10895688651E+04  0.61303534266E+03 0.  0.
   -5000001    2    3    3    0    0 -0.34044257249E+03 -0.86441349502E+02 -0.23539257470E+03  0.43426677896E+03  0.99018781135E+02 0.  0.
     200001    1    1    2    0    0  0.22667275402E+03  0.37877444482E+02 -0.23717115386E+04  0.24604064421E+04  0.61300000000E+03 0.  1.
         11    1    4    4    0    0 -0.19103837379E+03 -0.83094412513E+02 -0.16792143838E+03  0.26757793466E+03  0.51100000000E-03 0.  1.
    -200002    1    4    4    0    0 -0.14940419871E+03 -0.33469369888E+01 -0.67471136323E+02  0.16668884430E+03  0.30000000000E+02 0.  1.
    -200000    1    3    3    0    0  0.11376981847E+03  0.48563905020E+02 -0.63554527739E+03  0.65530208613E+03  0.10100000000E+03 0.  1.
<mgrwt>
<rscale>  0 0.14448355E+04</rscale>
<asrwt>0</asrwt>
<pdfrwt beam="1">  1        2 0.48518743E+00 0.14448355E+04</pdfrwt>
<pdfrwt beam="2">  1       -2 0.21951853E-01 0.14448355E+04</pdfrwt>
<totfact> 0.24721384E+01</totfact>
</mgrwt>
</event>
<event>
 8    2  0.7237260E-052  0.2409656E+04  0.7818608E-02  0.8435897E-01
          2   -1    0    0  501    0  0.00000000000E+00  0.00000000000E+00  0.88123442971E+03  0.88123442971E+03  0.25500000000E-02 0.  1.
         -2   -1    0    0    0  501 -0.00000000000E+00 -0.00000000000E+00 -0.16472473104E+04  0.16472473104E+04  0.25500000000E-02 0. -1.
    -200001    2    1    2    0    0  0.59567341242E+03 -0.23703818423E+03  0.47371956774E+03  0.10041066358E+04  0.61057840780E+03 0.  0.
   -5000001    2    3    3    0    0  0.65143030145E+03 -0.91215641194E+02  0.23830846184E+03  0.70411924684E+03  0.79443438667E+02 0.  0.
     200001    1    1    2    0    0 -0.59567341242E+03  0.23703818423E+03 -0.12397324484E+04  0.15243751043E+04  0.61300000000E+03 0. -1.
         11    1    4    4    0    0  0.46036008100E+03 -0.52289563465E+02  0.14209815435E+03  0.48462097365E+03  0.51100000000E-03 0.  1.
    -200002    1    4    4    0    0  0.19107022044E+03 -0.38926077729E+02  0.96210307498E+02  0.21949827320E+03  0.30000000000E+02 0.  1.
    -200000    1    3    3    0    0 -0.55756889025E+02 -0.14582254304E+03  0.23541110590E+03  0.29998738892E+03  0.10100000000E+03 0.  1.
<mgrwt>
<rscale>  0 0.24096564E+04</rscale>
<asrwt>0</asrwt>
<pdfrwt beam="1">  1        2 0.12589063E+00 0.24096564E+04</pdfrwt>
<pdfrwt beam="2">  1       -2 0.23532104E+00 0.24096564E+04</pdfrwt>
<totfact> 0.23920355E+00</totfact>
</mgrwt>
</event>
<event>
 8    2  0.7237260E-052  0.1458229E+04  0.7818608E-02  0.8912716E-01
          2   -1    0    0  501    0  0.00000000000E+00  0.00000000000E+00  0.21148575000E+04  0.21148575000E+04  0.25500000000E-02 0. -1.
         -2   -1    0    0    0  501 -0.00000000000E+00 -0.00000000000E+00 -0.25136810381E+03  0.25136810382E+03  0.25500000000E-02 0.  1.
    -200001    2    1    2    0    0 -0.12835777458E+03  0.91687756263E+02  0.15188171492E+04  0.16454965835E+04  0.61316483148E+03 0.  0.
   -5000001    2    3    3    0    0 -0.99862796826E+02 -0.19946191157E+03  0.10986429183E+04  0.11236465311E+04  0.76207824966E+02 0.  0.
     200001    1    1    2    0    0  0.12835777458E+03 -0.91687756263E+02  0.34467224699E+03  0.72072902036E+03  0.61300000000E+03 0.  1.
         11    1    4    4    0    0 -0.72042866550E+02 -0.15659827570E+03  0.89979884442E+03  0.91616109664E+03  0.51100000000E-03 0.  1.
    -200002    1    4    4    0    0 -0.27819930276E+02 -0.42863635874E+02  0.19884407389E+03  0.20748543448E+03  0.30000000000E+02 0.  1.
    -200000    1    3    3    0    0 -0.28494977758E+02  0.29114966783E+03  0.42017423091E+03  0.52185005237E+03  0.10100000000E+03 0.  1.
<mgrwt>
<rscale>  0 0.14582287E+04</rscale>
<asrwt>0</asrwt>
<pdfrwt beam="1">  1        2 0.30212252E+00 0.14582287E+04</pdfrwt>
<pdfrwt beam="2">  1       -2 0.35909727E-01 0.14582287E+04</pdfrwt>
<totfact> 0.49545557E+01</totfact>
</mgrwt>
</event>
<event>
 8    2  0.7237260E-052  0.1514346E+04  0.7818608E-02  0.8874968E-01
         -2   -1    0    0    0  501 -0.00000000000E+00  0.00000000000E+00  0.67950281902E+03  0.67950281902E+03  0.25500000000E-02 0. -1.
          2   -1    0    0  501    0  0.00000000000E+00 -0.00000000000E+00 -0.84372150919E+03  0.84372150919E+03  0.25500000000E-02 0.  1.
    -200001    2    1    2    0    0  0.35438371100E+03  0.13168086364E+03 -0.32364073670E+03  0.78558481369E+03  0.60784250310E+03 0.  0.
   -5000001    2    3    3    0    0  0.38487515479E+03  0.27458734594E+02  0.37484406209E+02  0.39519481744E+03  0.76752824999E+02 0.  0.
     200001    1    1    2    0    0 -0.35438371100E+03 -0.13168086364E+03  0.15942204653E+03  0.73763951453E+03  0.61300000000E+03 0.  1.
         11    1    4    4    0    0  0.19411821884E+02  0.92006330229E+01 -0.12195178281E+02  0.24702081905E+02  0.51100000000E-03 0.  1.
    -200002    1    4    4    0    0  0.36546333291E+03  0.18258101571E+02  0.49679584490E+02  0.37049273554E+03  0.30000000000E+02 0.  1.
    -200000    1    3    3    0    0 -0.30491443793E+02  0.10422212905E+03 -0.36112514291E+03  0.39038999625E+03  0.10100000000E+03 0.  1.
<mgrwt>
<rscale>  0 0.15143463E+04</rscale>
<asrwt>0</asrwt>
<pdfrwt beam="1">  1        2 0.12053164E+00 0.15143463E+04</pdfrwt>
<pdfrwt beam="2">  1       -2 0.97071831E-01 0.15143463E+04</pdfrwt>
<totfact> 0.30387880E+01</totfact>
</mgrwt>
</event>
<event>
 8    2  0.7237260E-052  0.1387239E+04  0.7818608E-02  0.8963108E-01
         -2   -1    0    0    0  501 -0.00000000000E+00  0.00000000000E+00  0.29223655055E+03  0.29223655056E+03  0.25500000000E-02 0. -1.
          2   -1    0    0  501    0  0.00000000000E+00 -0.00000000000E+00 -0.16462961460E+04  0.16462961460E+04  0.25500000000E-02 0.  1.
    -200001    2    1    2    0    0  0.75648190457E+02 -0.25210263581E+03 -0.41179693483E+03  0.78401707981E+03  0.61304785963E+03 0.  0.
   -5000001    2    3    3    0    0  0.78395286578E+02 -0.41192720635E+03 -0.41347330491E+03  0.59492649278E+03  0.84542969296E+02 0.  0.
     200001    1    1    2    0    0 -0.75648190457E+02  0.25210263581E+03 -0.94226266060E+03  0.11545156167E+04  0.61300000000E+03 0.  1.
         11    1    4    4    0    0  0.79728306995E+02 -0.33823452634E+03 -0.34907200047E+03  0.49255503171E+03  0.51100000000E-03 0.  1.
    -200002    1    4    4    0    0 -0.13330204161E+01 -0.73692680013E+02 -0.64401304431E+02  0.10237146108E+03  0.30000000000E+02 0. -1.
    -200000    1    3    3    0    0 -0.27470961214E+01  0.15982457054E+03  0.16763700742E+01  0.18909058703E+03  0.10100000000E+03 0. -1.
<mgrwt>
<rscale>  0 0.13872389E+04</rscale>
<asrwt>0</asrwt>
<pdfrwt beam="1">  1        2 0.23518516E+00 0.13872389E+04</pdfrwt>
<pdfrwt beam="2">  1       -2 0.41748080E-01 0.13872389E+04</pdfrwt>
<totfact> 0.64841716E+01</totfact>
</mgrwt>
</event>
<event>
 8    2  0.7237260E-052  0.2008179E+04  0.7818608E-02  0.8602806E-01
          2   -1    0    0  501    0  0.00000000000E+00  0.00000000000E+00  0.19651332492E+04  0.19651332492E+04  0.25500000000E-02 0.  1.
         -2   -1    0    0    0  501 -0.00000000000E+00 -0.00000000000E+00 -0.51304178781E+03  0.51304178781E+03  0.25500000000E-02 0. -1.
    -200001    2    1    2    0    0 -0.69229388765E+03 -0.11991840734E+03  0.27271275707E+03  0.97472753893E+03  0.61811833493E+03 0.  0.
   -5000001    2    3    3    0    0 -0.51064811083E+02 -0.23090738321E+03  0.62606952666E+02  0.28346873758E+03  0.14320984641E+03 0.  0.
     200001    1    1    2    0    0  0.69229388765E+03  0.11991840734E+03  0.11793787043E+04  0.15034474981E+04  0.61300000000E+03 0. -1.
         11    1    4    4    0    0  0.36988793153E+02 -0.10204157982E+03 -0.94785756040E+01  0.10895181608E+03  0.51100000000E-03 0.  1.
    -200002    1    4    4    0    0 -0.88053604237E+02 -0.12886580339E+03  0.72085528270E+02  0.17451692150E+03  0.30000000000E+02 0.  1.
    -200000    1    3    3    0    0 -0.64122907656E+03  0.11098897588E+03  0.21010580441E+03  0.69125880135E+03  0.10100000000E+03 0.  1.
<mgrwt>
<rscale>  0 0.20081788E+04</rscale>
<asrwt>0</asrwt>
<pdfrwt beam="1">  1        2 0.28073331E+00 0.20081788E+04</pdfrwt>
<pdfrwt beam="2">  1       -2 0.73291686E-01 0.20081788E+04</pdfrwt>
<totfact> 0.13095276E+01</totfact>
</mgrwt>
</event>
<event>
 8    2  0.7237260E-052  0.2927438E+04  0.7818608E-02  0.8264760E-01
          2   -1    0    0  501    0  0.00000000000E+00  0.00000000000E+00  0.32811620722E+04  0.32811620722E+04  0.25500000000E-02 0.  1.
         -2   -1    0    0    0  501 -0.00000000000E+00 -0.00000000000E+00 -0.65296169459E+03  0.65296169460E+03  0.25500000000E-02 0. -1.
    -200001    2    1    2    0    0 -0.94827325430E+03  0.81732105870E+03  0.71343791169E+03  0.15657234251E+04  0.61258494278E+03 0.  0.
   -5000001    2    3    3    0    0 -0.21076228583E+03  0.16989468484E+03  0.46888093314E+03  0.54931186769E+03  0.92786062858E+02 0.  0.
     200001    1    1    2    0    0  0.94827325430E+03 -0.81732105870E+03  0.19147624659E+04  0.23684003417E+04  0.61300000000E+03 0.  1.
         11    1    4    4    0    0 -0.18064715159E+03  0.16253539598E+03  0.40085813415E+03  0.46876261800E+03  0.51100000000E-03 0.  1.
    -200002    1    4    4    0    0 -0.30115134237E+02  0.73592888574E+01  0.68022798992E+02  0.80549249688E+02  0.30000000000E+02 0. -1.
    -200000    1    3    3    0    0 -0.73751096847E+03  0.64742637387E+03  0.24455697855E+03  0.10164115574E+04  0.10100000000E+03 0. -1.
<mgrwt>
<rscale>  0 0.29274379E+04</rscale>
<asrwt>0</asrwt>
<pdfrwt beam="1">  1        2 0.46873744E+00 0.29274379E+04</pdfrwt>
<pdfrwt beam="2">  1       -2 0.93280243E-01 0.29274379E+04</pdfrwt>
<totfact> 0.13705958E+00</totfact>
</mgrwt>
</event>
<event>
 8    2  0.7237260E-052  0.1304932E+04  0.7818608E-02  0.9025663E-01
         -2   -1    0    0    0  501 -0.00000000000E+00  0.00000000000E+00  0.26814463045E+03  0.26814463046E+03  0.25500000000E-02 0.  1.
          2   -1    0    0  501    0  0.00000000000E+00 -0.00000000000E+00 -0.15876198795E+04  0.15876198795E+04  0.25500000000E-02 0. -1.
    -200001    2    1    2    0    0 -0.18459079967E+03  0.75354987518E+02 -0.79905106699E+03  0.10272945547E+04  0.61408416121E+03 0.  0.
   -5000001    2    3    3    0    0 -0.33643267472E+03  0.57968479946E+02 -0.20728602896E+03  0.40782292027E+03  0.82490891646E+02 0.  0.
     200001    1    1    2    0    0  0.18459079967E+03 -0.75354987518E+02 -0.52042418208E+03  0.82846995525E+03  0.61300000000E+03 0.  1.
         11    1    4    4    0    0 -0.11789348644E+02  0.11754724711E+02  0.32805925906E+01  0.16968340593E+02  0.51100000000E-03 0.  1.
    -200002    1    4    4    0    0 -0.32464332608E+03  0.46213755235E+02 -0.21056662156E+03  0.39085457968E+03  0.30000000000E+02 0.  1.
    -200000    1    3    3    0    0  0.15184187506E+03  0.17386507573E+02 -0.59176503803E+03  0.61947163446E+03  0.10100000000E+03 0. -1.
<mgrwt>
<rscale>  0 0.13049318E+04</rscale>
<asrwt>0</asrwt>
<pdfrwt beam="1">  1        2 0.22680283E+00 0.13049318E+04</pdfrwt>
<pdfrwt beam="2">  1       -2 0.38306377E-01 0.13049318E+04</pdfrwt>
<totfact> 0.82829404E+01</totfact>
</mgrwt>
</event>
<event>
 8    2  0.7237260E-052  0.1328847E+04  0.7818608E-02  0.9006997E-01
          2   -1    0    0  501    0  0.00000000000E+00  0.00000000000E+00  0.20364203041E+04  0.20364203041E+04  0.25500000000E-02 0.  1.
         -2   -1    0    0    0  501 -0.00000000000E+00 -0.00000000000E+00 -0.21678158002E+03  0.21678158004E+03  0.25500000000E-02 0. -1.
    -200001    2    1    2    0    0  0.16819798185E+03 -0.37383559832E+02  0.59390701300E+03  0.87194328446E+03  0.61471250157E+03 0.  0.
   -5000001    2    3    3    0    0  0.28689653849E+03  0.66002900451E+02  0.63643574401E+02  0.30966361932E+03  0.71937791899E+02 0.  0.
     200001    1    1    2    0    0 -0.16819798185E+03  0.37383559832E+02  0.12257317111E+04  0.13812585997E+04  0.61300000000E+03 0.  1.
         11    1    4    4    0    0  0.12399338422E+03  0.46205671282E+01  0.45189652345E+02  0.13205231407E+03  0.51100000000E-03 0.  1.
    -200002    1    4    4    0    0  0.16290315427E+03  0.61382333323E+02  0.18453922056E+02  0.17761130526E+03  0.30000000000E+02 0.  1.
    -200000    1    3    3    0    0 -0.11869855664E+03 -0.10338646028E+03  0.53026343860E+03  0.56227966514E+03  0.10100000000E+03 0.  1.
<mgrwt>
<rscale>  0 0.13288467E+04</rscale>
<asrwt>0</asrwt>
<pdfrwt beam="1">  1        2 0.29091720E+00 0.13288467E+04</pdfrwt>
<pdfrwt beam="2">  1       -2 0.30968796E-01 0.13288467E+04</pdfrwt>
<totfact> 0.72683498E+01</totfact>
</mgrwt>
</event>
<event>
 8    2  0.7237260E-052  0.1516537E+04  0.7818608E-02  0.8873530E-01
          2   -1    0    0  501    0  0.00000000000E+00  0.00000000000E+00  0.21140645658E+04  0.21140645658E+04  0.25500000000E-02 0.  1.
         -2   -1    0    0    0  501 -0.00000000000E+00 -0.00000000000E+00 -0.27197436270E+03  0.27197436272E+03  0.25500000000E-02 0. -1.
    -200001    2    1    2    0    0  0.28576028480E+03 -0.83416813752E+02  0.14451398905E+04  0.15973971493E+04  0.61207111059E+03 0.  0.
   -5000001    2    3    3    0    0  0.18148071980E+03 -0.32814642715E+03  0.66730568083E+03  0.76914968084E+03  0.75359342822E+02 0.  0.
     200001    1    1    2    0    0 -0.28576028480E+03  0.83416813752E+02  0.39695031259E+03  0.78864177917E+03  0.61300000000E+03 0. -1.
         11    1    4    4    0    0  0.44482995154E+02 -0.14510884092E+03  0.27442249914E+03  0.31359690784E+03  0.51100000000E-03 0.  1.
    -200002    1    4    4    0    0  0.13699772464E+03 -0.18303758623E+03  0.39288318169E+03  0.45555277300E+03  0.30000000000E+02 0. -1.
    -200000    1    3    3    0    0  0.10427956501E+03  0.24472961340E+03  0.77783420967E+03  0.82824746850E+03  0.10100000000E+03 0.  1.
<mgrwt>
<rscale>  0 0.15165373E+04</rscale>
<asrwt>0</asrwt>
<pdfrwt beam="1">  1        2 0.30200923E+00 0.15165373E+04</pdfrwt>
<pdfrwt beam="2">  1       -2 0.38853479E-01 0.15165373E+04</pdfrwt>
<totfact> 0.42395838E+01</totfact>
</mgrwt>
</event>
<event>
 8    2  0.7237260E-052  0.2222902E+04  0.7818608E-02  0.8508956E-01
          2   -1    0    0  501    0  0.00000000000E+00  0.00000000000E+00  0.12425339419E+04  0.12425339419E+04  0.25500000000E-02 0.  1.
         -2   -1    0    0    0  501 -0.00000000000E+00 -0.00000000000E+00 -0.99419722744E+03  0.99419722744E+03  0.25500000000E-02 0. -1.
    -200001    2    1    2    0    0 -0.31651247917E+03  0.16546655821E+03 -0.73633599474E+03  0.10230966792E+04  0.61398435365E+03 0.  0.
   -5000001    2    3    3    0    0 -0.31589123015E+03  0.32757930486E+03 -0.36041891123E+03  0.60143854489E+03  0.15726112502E+03 0.  0.
     200001    1    1    2    0    0  0.31651247917E+03 -0.16546655821E+03  0.98467270916E+03  0.12136344901E+04  0.61300000000E+03 0.  1.
         11    1    4    4    0    0 -0.47088562785E+02  0.65566535189E+02 -0.14929783879E+03  0.16972374009E+03  0.51100000000E-03 0.  1.
    -200002    1    4    4    0    0 -0.26880266737E+03  0.26201276967E+03 -0.21112107245E+03  0.43171480480E+03  0.30000000000E+02 0.  1.
    -200000    1    3    3    0    0 -0.62124901823E+00 -0.16211274665E+03 -0.37591708351E+03  0.42165813433E+03  0.10100000000E+03 0. -1.
<mgrwt>
<rscale>  0 0.22229024E+04</rscale>
<asrwt>0</asrwt>
<pdfrwt beam="1">  1        2 0.17750485E+00 0.22229024E+04</pdfrwt>
<pdfrwt beam="2">  1       -2 0.14202818E+00 0.22229024E+04</pdfrwt>
<totfact> 0.64119767E+00</totfact>
</mgrwt>
</event>
<event>
 8    2  0.7237260E-052  0.1307941E+04  0.7818608E-02  0.9023292E-01
         -2   -1    0    0    0  501 -0.00000000000E+00  0.00000000000E+00  0.52262413508E+03  0.52262413508E+03  0.25500000000E-02 0. -1.
          2   -1    0    0  501    0  0.00000000000E+00 -0.00000000000E+00 -0.81832686490E+03  0.81832686491E+03  0.25500000000E-02 0.  1.
    -200001    2    1    2    0    0 -0.16236118085E+03 -0.14467807146E+03 -0.84693522983E+02  0.65714782452E+03  0.61431048585E+03 0.  0.
   -5000001    2    3    3    0    0 -0.27017606298E+03  0.53020932624E+02 -0.22453917768E+03  0.37348120300E+03  0.11516962440E+03 0.  0.
     200001    1    1    2    0    0  0.16236118085E+03  0.14467807146E+03 -0.21100920684E+03  0.68380317547E+03  0.61300000000E+03 0. -1.
         11    1    4    4    0    0 -0.22348675069E+03  0.65290860662E+02 -0.21284093862E+03  0.31545283224E+03  0.51100000000E-03 0.  1.
    -200002    1    4    4    0    0 -0.46689312291E+02 -0.12269928038E+02 -0.11698239063E+02  0.58028370763E+02  0.30000000000E+02 0.  1.
    -200000    1    3    3    0    0  0.10781488212E+03 -0.19769900409E+03  0.13984565470E+03  0.28366662152E+03  0.10100000000E+03 0. -1.
<mgrwt>
<rscale>  0 0.13079409E+04</rscale>
<asrwt>0</asrwt>
<pdfrwt beam="1">  1        2 0.11690384E+00 0.13079409E+04</pdfrwt>
<pdfrwt beam="2">  1       -2 0.74660591E-01 0.13079409E+04</pdfrwt>
<totfact> 0.58406126E+01</totfact>
</mgrwt>
</event>
<event>
 8    2  0.7237260E-052  0.1386474E+04  0.7818608E-02  0.8963668E-01
          2   -1    0    0  501    0  0.00000000000E+00  0.00000000000E+00  0.35415865148E+04  0.35415865148E+04  0.25500000000E-02 0.  1.
         -2   -1    0    0    0  501 -0.00000000000E+00 -0.00000000000E+00 -0.13569563429E+03  0.13569563432E+03  0.25500000000E-02 0. -1.
    -200001    2    1    2    0    0  0.70753940038E+02 -0.28690749607E+03  0.13519545813E+04  0.15135480267E+04  0.61296362690E+03 0.  0.
   -5000001    2    3    3    0    0 -0.10539506298E+02  0.22054766967E+02  0.10820719330E+04  0.10833109430E+04  0.45666584297E+02 0.  0.
     200001    1    1    2    0    0 -0.70753940038E+02  0.28690749607E+03  0.20539362992E+04  0.21637341224E+04  0.61300000000E+03 0.  1.
         11    1    4    4    0    0 -0.36272062470E+01 -0.53637371154E+01  0.36331392865E+03  0.36337162390E+03  0.51100000000E-03 0.  1.
    -200002    1    4    4    0    0 -0.69123000514E+01  0.27418504083E+02  0.71875800439E+03  0.71993931907E+03  0.30000000000E+02 0. -1.
    -200000    1    3    3    0    0  0.81293446337E+02 -0.30896226304E+03  0.26988264827E+03  0.43023708375E+03  0.10100000000E+03 0. -1.
<mgrwt>
<rscale>  0 0.13864744E+04</rscale>
<asrwt>0</asrwt>
<pdfrwt beam="1">  1        2 0.50594088E+00 0.13864744E+04</pdfrwt>
<pdfrwt beam="2">  1       -2 0.19385092E-01 0.13864744E+04</pdfrwt>
<totfact> 0.25313362E+01</totfact>
</mgrwt>
</event>
<event>
 8    2  0.7237260E-052  0.3217810E+04  0.7818608E-02  0.8184129E-01
         -2   -1    0    0    0  501 -0.00000000000E+00  0.00000000000E+00  0.13472520295E+04  0.13472520295E+04  0.25500000000E-02 0. -1.
          2   -1    0    0  501    0  0.00000000000E+00 -0.00000000000E+00 -0.19213743643E+04  0.19213743643E+04  0.25500000000E-02 0.  1.
    -200001    2    1    2    0    0  0.56299304251E+03 -0.84826370836E+03  0.81451081677E+03  0.14409000701E+04  0.61339437271E+03 0.  0.
   -5000001    2    3    3    0    0  0.41536548269E+03 -0.24306429004E+03  0.12570791523E+03  0.50671022346E+03  0.96664560730E+02 0.  0.
     200001    1    1    2    0    0 -0.56299304251E+03  0.84826370836E+03 -0.13886331516E+04  0.18277263238E+04  0.61300000000E+03 0.  1.
         11    1    4    4    0    0  0.37397688625E+03 -0.20713165930E+03  0.11964309293E+03  0.44393322180E+03  0.51100000000E-03 0.  1.
    -200002    1    4    4    0    0  0.41388596440E+02 -0.35932630743E+02  0.60648222998E+01  0.62777001656E+02  0.30000000000E+02 0. -1.
    -200000    1    3    3    0    0  0.14762755982E+03 -0.60519941832E+03  0.68880290154E+03  0.93418984662E+03  0.10100000000E+03 0. -1.
<mgrwt>
<rscale>  0 0.32178101E+04</rscale>
<asrwt>0</asrwt>
<pdfrwt beam="1">  1        2 0.27448205E+00 0.32178101E+04</pdfrwt>
<pdfrwt beam="2">  1       -2 0.19246458E+00 0.32178101E+04</pdfrwt>
<totfact> 0.11149450E+00</totfact>
</mgrwt>
</event>
<event>
 8    2  0.7237260E-052  0.1673758E+04  0.7818608E-02  0.8776474E-01
          2   -1    0    0  501    0  0.00000000000E+00  0.00000000000E+00  0.18605638359E+04  0.18605638359E+04  0.25500000000E-02 0.  1.
         -2   -1    0    0    0  501 -0.00000000000E+00 -0.00000000000E+00 -0.37642698784E+03  0.37642698785E+03  0.25500000000E-02 0. -1.
    -200001    2    1    2    0    0  0.68575791982E+02  0.51544774187E+03  0.43052130341E+03  0.91174981556E+03  0.61282144189E+03 0.  0.
   -5000001    2    3    3    0    0 -0.25684598908E+03  0.20207456672E+03  0.10966163696E+03  0.34849675694E+03  0.51189084330E+02 0.  0.
     200001    1    1    2    0    0 -0.68575791982E+02 -0.51544774187E+03  0.10536155446E+04  0.13252410081E+04  0.61300000000E+03 0.  1.
         11    1    4    4    0    0 -0.45536345525E+02  0.54586787446E+02  0.17786022199E+02  0.73277682233E+02  0.51100000000E-03 0.  1.
    -200002    1    4    4    0    0 -0.21130964355E+03  0.14748777927E+03  0.91875614758E+02  0.27521907470E+03  0.30000000000E+02 0.  1.
    -200000    1    3    3    0    0  0.32542178106E+03  0.31337317515E+03  0.32085966646E+03  0.56325305863E+03  0.10100000000E+03 0. -1.
<mgrwt>
<rscale>  0 0.16737580E+04</rscale>
<asrwt>0</asrwt>
<pdfrwt beam="1">  1        2 0.26579483E+00 0.16737580E+04</pdfrwt>
<pdfrwt beam="2">  1       -2 0.53775286E-01 0.16737580E+04</pdfrwt>
<totfact> 0.29477087E+01</totfact>
</mgrwt>
</event>
<event>
 8    2  0.7237260E-052  0.1351269E+04  0.7818608E-02  0.8989868E-01
          2   -1    0    0  501    0  0.00000000000E+00  0.00000000000E+00  0.52998216060E+03  0.52998216061E+03  0.25500000000E-02 0.  1.
         -2   -1    0    0    0  501 -0.00000000000E+00 -0.00000000000E+00 -0.86131589408E+03  0.86131589408E+03  0.25500000000E-02 0. -1.
    -200001    2    1    2    0    0  0.12598258734E+03 -0.15728650815E+03  0.40574114707E+02  0.64651949330E+03  0.61296862764E+03 0.  0.
   -5000001    2    3    3    0    0 -0.15736663483E+03 -0.98711669671E+02  0.19451685168E+03  0.30356591090E+03  0.14073807298E+03 0.  0.
     200001    1    1    2    0    0 -0.12598258734E+03  0.15728650815E+03 -0.37190784818E+03  0.74477856139E+03  0.61300000000E+03 0. -1.
         11    1    4    4    0    0 -0.10699687417E+03 -0.35118742851E+02  0.28180404771E+02  0.11608528070E+03  0.51100000000E-03 0.  1.
    -200002    1    4    4    0    0 -0.50369760662E+02 -0.63592926820E+02  0.16633644691E+03  0.18748063020E+03  0.30000000000E+02 0.  1.
    -200000    1    3    3    0    0  0.28334922218E+03 -0.58574838482E+02 -0.15394273697E+03  0.34295358240E+03  0.10100000000E+03 0.  1.
<mgrwt>
<rscale>  0 0.13512691E+04</rscale>
<asrwt>0</asrwt>
<pdfrwt beam="1">  1        2 0.75711738E-01 0.13512691E+04</pdfrwt>
<pdfrwt beam="2">  1       -2 0.12304513E+00 0.13512691E+04</pdfrwt>
<totfact> 0.30620972E+01</totfact>
</mgrwt>
</event>
<event>
 8    2  0.7237260E-052  0.1607250E+04  0.7818608E-02  0.8816107E-01
         -2   -1    0    0    0  501 -0.00000000000E+00  0.00000000000E+00  0.18111836274E+03  0.18111836275E+03  0.25500000000E-02 0. -1.
          2   -1    0    0  501    0  0.00000000000E+00 -0.00000000000E+00 -0.35656957634E+04  0.35656957634E+04  0.25500000000E-02 0.  1.
    -200001    2    1    2    0    0  0.51365500906E+02 -0.48342232836E+03 -0.21131401876E+04  0.22539453613E+04  0.61528259940E+03 0.  0.
   -5000001    2    3    3    0    0  0.13194572021E+03  0.32338207298E+02 -0.71207075663E+03  0.75537982980E+03  0.21236405552E+03 0.  0.
     200001    1    1    2    0    0 -0.51365500906E+02  0.48342232836E+03 -0.12714372130E+04  0.14928687648E+04  0.61300000000E+03 0. -1.
         11    1    4    4    0    0  0.85464243632E+02 -0.65375403540E+02 -0.16556996766E+03  0.19746264082E+03  0.51100000000E-03 0.  1.
    -200002    1    4    4    0    0  0.46481476583E+02  0.97713610838E+02 -0.54650078898E+03  0.55791718898E+03  0.30000000000E+02 0.  1.
    -200000    1    3    3    0    0 -0.80580219308E+02 -0.51576053566E+03 -0.14010694310E+04  0.14985655315E+04  0.10100000000E+03 0.  1.
<mgrwt>
<rscale>  0 0.16072498E+04</rscale>
<asrwt>0</asrwt>
<pdfrwt beam="1">  1        2 0.50938507E+00 0.16072498E+04</pdfrwt>
<pdfrwt beam="2">  1       -2 0.25874054E-01 0.16072498E+04</pdfrwt>
<totfact> 0.14296915E+01</totfact>
</mgrwt>
</event>
<event>
 8    2  0.7237260E-052  0.1350415E+04  0.7818608E-02  0.8990514E-01
         -2   -1    0    0    0  501 -0.00000000000E+00  0.00000000000E+00  0.55668688375E+03  0.55668688375E+03  0.25500000000E-02 0. -1.
          2   -1    0    0  501    0  0.00000000000E+00 -0.00000000000E+00 -0.81896168273E+03  0.81896168273E+03  0.25500000000E-02 0.  1.
    -200001    2    1    2    0    0  0.11670604757E+03 -0.25790967459E+03 -0.11751703497E+03  0.68509696665E+03  0.61270702495E+03 0.  0.
   -5000001    2    3    3    0    0 -0.22916789296E+03 -0.11467579326E+03  0.30779301251E+02  0.26996140947E+03  0.79141243955E+02 0.  0.
     200001    1    1    2    0    0 -0.11670604757E+03  0.25790967459E+03 -0.14475776401E+03  0.69055159983E+03  0.61300000000E+03 0. -1.
         11    1    4    4    0    0 -0.18069127573E+03 -0.82578977096E+02  0.43349536028E+02  0.20334160140E+03  0.51100000000E-03 0.  1.
    -200002    1    4    4    0    0 -0.48476617227E+02 -0.32096816160E+02 -0.12570234777E+02  0.66619808073E+02  0.30000000000E+02 0. -1.
    -200000    1    3    3    0    0  0.34587394053E+03 -0.14323388134E+03 -0.14829633622E+03  0.41513555718E+03  0.10100000000E+03 0. -1.
<mgrwt>
<rscale>  0 0.13504151E+04</rscale>
<asrwt>0</asrwt>
<pdfrwt beam="1">  1        2 0.11699453E+00 0.13504151E+04</pdfrwt>
<pdfrwt beam="2">  1       -2 0.79526697E-01 0.13504151E+04</pdfrwt>
<totfact> 0.50534611E+01</totfact>
</mgrwt>
</event>
<event>
 8    2  0.7237260E-052  0.1718508E+04  0.7818608E-02  0.8750878E-01
          2   -1    0    0  501    0  0.00000000000E+00  0.00000000000E+00  0.32450852794E+04  0.32450852794E+04  0.25500000000E-02 0.  1.
         -2   -1    0    0    0  501 -0.00000000000E+00 -0.00000000000E+00 -0.22751865027E+03  0.22751865029E+03  0.25500000000E-02 0. -1.
    -200001    2    1    2    0    0 -0.35028215875E+03 -0.31366936649E+03  0.22687221337E+04  0.23966749634E+04  0.61307805200E+03 0.  0.
   -5000001    2    3    3    0    0 -0.12611438482E+03  0.42784964229E+02  0.10186538202E+03  0.18697361180E+03  0.82747714374E+02 0.  0.
     200001    1    1    2    0    0  0.35028215875E+03  0.31366936649E+03  0.74884449536E+03  0.10759289663E+04  0.61300000000E+03 0. -1.
         11    1    4    4    0    0 -0.12802666774E+02  0.36047350911E+02  0.35056097127E+02  0.51886893628E+02  0.51100000000E-03 0.  1.
    -200002    1    4    4    0    0 -0.11331171805E+03  0.67376133180E+01  0.66809284891E+02  0.13508671817E+03  0.30000000000E+02 0.  1.
    -200000    1    3    3    0    0 -0.22416777393E+03 -0.35645433072E+03  0.21668567517E+04  0.22097013516E+04  0.10100000000E+03 0.  1.
<mgrwt>
<rscale>  0 0.17185080E+04</rscale>
<asrwt>0</asrwt>
<pdfrwt beam="1">  1        2 0.46358360E+00 0.17185080E+04</pdfrwt>
<pdfrwt beam="2">  1       -2 0.32502665E-01 0.17185080E+04</pdfrwt>
<totfact> 0.14409334E+01</totfact>
</mgrwt>
</event>
<event>
 8    2  0.7237260E-052  0.1278362E+04  0.7818608E-02  0.9046902E-01
         -2   -1    0    0    0  501 -0.00000000000E+00  0.00000000000E+00  0.11925899018E+04  0.11925899018E+04  0.25500000000E-02 0. -1.
          2   -1    0    0  501    0  0.00000000000E+00 -0.00000000000E+00 -0.34257597669E+03  0.34257597670E+03  0.25500000000E-02 0.  1.
    -200001    2    1    2    0    0 -0.95095020114E+02 -0.14966502787E+03  0.40489403528E+03  0.75712770481E+03  0.61470358562E+03 0.  0.
   -5000001    2    3    3    0    0 -0.25665631057E+03 -0.13099564130E+03  0.48318031351E+02  0.35240799545E+03  0.19703919231E+03 0.  0.
     200001    1    1    2    0    0  0.95095020114E+02  0.14966502787E+03  0.44511988988E+03  0.77803817373E+03  0.61300000000E+03 0.  1.
         11    1    4    4    0    0 -0.26878530561E+03 -0.93644677114E+02  0.77529802826E+02  0.29500124812E+03  0.51100000000E-03 0.  1.
    -200002    1    4    4    0    0  0.12128995039E+02 -0.37350964190E+02 -0.29211771475E+02  0.57406747332E+02  0.30000000000E+02 0.  1.
    -200000    1    3    3    0    0  0.16156129046E+03 -0.18669386567E+02  0.35657600393E+03  0.40471970936E+03  0.10100000000E+03 0. -1.
<mgrwt>
<rscale>  0 0.12783625E+04</rscale>
<asrwt>0</asrwt>
<pdfrwt beam="1">  1        2 0.48939424E-01 0.12783625E+04</pdfrwt>
<pdfrwt beam="2">  1       -2 0.17036999E+00 0.12783625E+04</pdfrwt>
<totfact> 0.21393702E+01</totfact>
</mgrwt>
</event>
<event>
 8    2  0.7237260E-052  0.1353478E+04  0.7818608E-02  0.8988200E-01
          2   -1    0    0  501    0  0.00000000000E+00  0.00000000000E+00  0.87053401035E+03  0.87053401035E+03  0.25500000000E-02 0.  1.
         -2   -1    0    0    0  501 -0.00000000000E+00 -0.00000000000E+00 -0.52608578356E+03  0.52608578357E+03  0.25500000000E-02 0. -1.
    -200001    2    1    2    0    0  0.15406012625E+02  0.51917124929E+02  0.46256535633E+03  0.76999918352E+03  0.61318781842E+03 0.  0.
   -5000001    2    3    3    0    0 -0.87639429867E+02 -0.23053172291E+03  0.34949987047E+03  0.43327894511E+03  0.68956072092E+02 0.  0.
     200001    1    1    2    0    0 -0.15406012625E+02 -0.51917124929E+02 -0.11811712954E+03  0.62662061040E+03  0.61300000000E+03 0.  1.
         11    1    4    4    0    0 -0.42485196259E+01 -0.28650110287E+02  0.14902232608E+02  0.32572308414E+02  0.51100000000E-03 0.  1.
    -200002    1    4    4    0    0 -0.83390910242E+02 -0.20188161262E+03  0.33459763786E+03  0.40070663669E+03  0.30000000000E+02 0.  1.
    -200000    1    3    3    0    0  0.10304544249E+03  0.28244884784E+03  0.11306548586E+03  0.33672023841E+03  0.10100000000E+03 0. -1.
<mgrwt>
<rscale>  0 0.13534778E+04</rscale>
<asrwt>0</asrwt>
<pdfrwt beam="1">  1        2 0.12436200E+00 0.13534778E+04</pdfrwt>
<pdfrwt beam="2">  1       -2 0.75155112E-01 0.13534778E+04</pdfrwt>
<totfact> 0.52875902E+01</totfact>
</mgrwt>
</event>
<event>
 8    2  0.7237260E-052  0.1934746E+04  0.7818608E-02  0.8637752E-01
          2   -1    0    0  501    0  0.00000000000E+00  0.00000000000E+00  0.23327833502E+04  0.23327833502E+04  0.25500000000E-02 0.  1.
         -2   -1    0    0    0  501 -0.00000000000E+00 -0.00000000000E+00 -0.40115606891E+03  0.40115606892E+03  0.25500000000E-02 0. -1.
    -200001    2    1    2    0    0  0.88022355969E+02  0.54661852861E+03  0.16768653679E+04  0.18695249448E+04  0.61376404753E+03 0.  0.
   -5000001    2    3    3    0    0  0.57227338975E+02  0.65863366853E+03  0.14003431324E+04  0.15530422890E+04  0.11792449048E+03 0.  0.
     200001    1    1    2    0    0 -0.88022355969E+02 -0.54661852861E+03  0.25476191338E+03  0.86441447436E+03  0.61300000000E+03 0. -1.
         11    1    4    4    0    0 -0.13962564513E+02  0.42872413359E+02  0.52581414361E+02  0.69266169026E+02  0.51100000000E-03 0.  1.
    -200002    1    4    4    0    0  0.71189903488E+02  0.61576125517E+03  0.13477617180E+04  0.14837761200E+04  0.30000000000E+02 0.  1.
    -200000    1    3    3    0    0  0.30795016994E+02 -0.11201513992E+03  0.27652223556E+03  0.31648265577E+03  0.10100000000E+03 0.  1.
<mgrwt>
<rscale>  0 0.19347457E+04</rscale>
<asrwt>0</asrwt>
<pdfrwt beam="1">  1        2 0.33325477E+00 0.19347457E+04</pdfrwt>
<pdfrwt beam="2">  1       -2 0.57308008E-01 0.19347457E+04</pdfrwt>
<totfact> 0.14425123E+01</totfact>
</mgrwt>
</event>
<event>
 8    2  0.7237260E-052  0.2357147E+04  0.7818608E-02  0.8455723E-01
          2   -1    0    0  501    0  0.00000000000E+00  0.00000000000E+00  0.14503562604E+04  0.14503562604E+04  0.25500000000E-02 0.  1.
         -2   -1    0    0    0  501 -0.00000000000E+00 -0.00000000000E+00 -0.95772038651E+03  0.95772038651E+03  0.25500000000E-02 0. -1.
    -200001    2    1    2    0    0  0.38932264274E+03  0.34224432831E+03  0.11278582038E+04  0.13843678461E+04  0.61294934955E+03 0.  0.
   -5000001    2    3    3    0    0  0.93955353172E+02  0.10321094784E+03  0.92100787700E+03  0.94010795551E+03  0.12675705256E+03 0.  0.
     200001    1    1    2    0    0 -0.38932264274E+03 -0.34224432831E+03 -0.63522232990E+03  0.10237088008E+04  0.61300000000E+03 0. -1.
         11    1    4    4    0    0  0.10865094048E+03  0.38218860005E+02  0.53783579487E+03  0.55003004497E+03  0.51100000000E-03 0.  1.
    -200002    1    4    4    0    0 -0.14695587303E+02  0.64992087832E+02  0.38317208213E+03  0.39007791054E+03  0.30000000000E+02 0.  1.
    -200000    1    3    3    0    0  0.29536728957E+03  0.23903338047E+03  0.20685032682E+03  0.44425989064E+03  0.10100000000E+03 0.  1.
<mgrwt>
<rscale>  0 0.23571472E+04</rscale>
<asrwt>0</asrwt>
<pdfrwt beam="1">  1        2 0.20719375E+00 0.23571472E+04</pdfrwt>
<pdfrwt beam="2">  1       -2 0.13681720E+00 0.23571472E+04</pdfrwt>
<totfact> 0.53764892E+00</totfact>
</mgrwt>
</event>
<event>
 8    2  0.7237260E-052  0.2351386E+04  0.7818608E-02  0.8457931E-01
         -2   -1    0    0    0  501 -0.00000000000E+00  0.00000000000E+00  0.35755655239E+04  0.35755655239E+04  0.25500000000E-02 0. -1.
          2   -1    0    0  501    0  0.00000000000E+00 -0.00000000000E+00 -0.38658341146E+03  0.38658341146E+03  0.25500000000E-02 0.  1.
    -200001    2    1    2    0    0 -0.66039550488E+03  0.24597053128E+03  0.27973909086E+04  0.29493624840E+04  0.61377474814E+03 0.  0.
   -5000001    2    3    3    0    0 -0.16635824230E+03  0.36205989618E+03  0.12515123030E+04  0.13191811380E+04  0.12326149940E+03 0.  0.
     200001    1    1    2    0    0  0.66039550488E+03 -0.24597053128E+03  0.39159120385E+03  0.10127864514E+04  0.61300000000E+03 0.  1.
         11    1    4    4    0    0 -0.15124754500E+03  0.20090970677E+03  0.71135558817E+03  0.75449804703E+03  0.51100000000E-03 0.  1.
    -200002    1    4    4    0    0 -0.15110697304E+02  0.16115018941E+03  0.54015671479E+03  0.56468309099E+03  0.30000000000E+02 0.  1.
    -200000    1    3    3    0    0 -0.49403726258E+03 -0.11608936489E+03  0.15458786057E+04  0.16301813460E+04  0.10100000000E+03 0. -1.
<mgrwt>
<rscale>  0 0.23513862E+04</rscale>
<asrwt>0</asrwt>
<pdfrwt beam="1">  1        2 0.55226201E-01 0.23513862E+04</pdfrwt>
<pdfrwt beam="2">  1       -2 0.51079508E+00 0.23513862E+04</pdfrwt>
<totfact> 0.11474655E-01</totfact>
</mgrwt>
</event>
<event>
 8    2  0.7237260E-052  0.1357889E+04  0.7818608E-02  0.8984877E-01
          2   -1    0    0  501    0  0.00000000000E+00  0.00000000000E+00  0.38219216711E+04  0.38219216711E+04  0.25500000000E-02 0.  1.
         -2   -1    0    0    0  501 -0.00000000000E+00 -0.00000000000E+00 -0.12061101610E+03  0.12061101613E+03  0.25500000000E-02 0. -1.
    -200001    2    1    2    0    0  0.12567722923E+03 -0.15252178652E+02  0.10872734991E+04  0.12545991599E+04  0.61304811823E+03 0.  0.
   -5000001    2    3    3    0    0 -0.11755664168E+03 -0.15883955922E+02  0.93751215969E+03  0.95162626690E+03  0.11221246911E+03 0.  0.
     200001    1    1    2    0    0 -0.12567722923E+03  0.15252178652E+02  0.26140371559E+04  0.26879335273E+04  0.61300000000E+03 0. -1.
         11    1    4    4    0    0 -0.30965656448E+02  0.43969687013E+02  0.29735886922E+03  0.30218289555E+03  0.51100000000E-03 0.  1.
    -200002    1    4    4    0    0 -0.86590985235E+02 -0.59853642935E+02  0.64015329047E+03  0.64944337136E+03  0.30000000000E+02 0.  1.
    -200000    1    3    3    0    0  0.24323387091E+03  0.63177726984E+00  0.14976133937E+03  0.30297289296E+03  0.10100000000E+03 0. -1.
<mgrwt>
<rscale>  0 0.13578893E+04</rscale>
<asrwt>0</asrwt>
<pdfrwt beam="1">  1        2 0.54598868E+00 0.13578893E+04</pdfrwt>
<pdfrwt beam="2">  1       -2 0.17230149E-01 0.13578893E+04</pdfrwt>
<totfact> 0.20745887E+01</totfact>
</mgrwt>
</event>
<event>
 8    2  0.7237260E-052  0.1573036E+04  0.7818608E-02  0.8837286E-01
          2   -1    0    0  501    0  0.00000000000E+00  0.00000000000E+00  0.18746238789E+04  0.18746238789E+04  0.25500000000E-02 0. -1.
         -2   -1    0    0    0  501 -0.00000000000E+00 -0.00000000000E+00 -0.32999192677E+03  0.32999192678E+03  0.25500000000E-02 0.  1.
    -200001    2    1    2    0    0 -0.17245108620E+03  0.14255317614E+03  0.13878381305E+04  0.15334868407E+04  0.61272051445E+03 0.  0.
   -5000001    2    3    3    0    0 -0.60633788399E+02  0.28989939800E+03  0.12341071272E+04  0.12726262676E+04  0.94016479750E+02 0.  0.
     200001    1    1    2    0    0  0.17245108620E+03 -0.14255317614E+03  0.15679382159E+03  0.67112896499E+03  0.61300000000E+03 0.  1.
         11    1    4    4    0    0 -0.57932437323E+02  0.87929908365E+02  0.36771469148E+03  0.38249435343E+03  0.51100000000E-03 0.  1.
    -200002    1    4    4    0    0 -0.27013510763E+01  0.20196948964E+03  0.86639243567E+03  0.89013191418E+03  0.30000000000E+02 0.  1.
    -200000    1    3    3    0    0 -0.11181729780E+03 -0.14734622186E+03  0.15373100339E+03  0.26086057308E+03  0.10100000000E+03 0.  1.
<mgrwt>
<rscale>  0 0.15730362E+04</rscale>
<asrwt>0</asrwt>
<pdfrwt beam="1">  1        2 0.26780342E+00 0.15730362E+04</pdfrwt>
<pdfrwt beam="2">  1       -2 0.47141702E-01 0.15730362E+04</pdfrwt>
<totfact> 0.38224703E+01</totfact>
</mgrwt>
</event>
<event>
 8    2  0.7237260E-052  0.1840088E+04  0.7818608E-02  0.8685267E-01
         -2   -1    0    0    0  501 -0.00000000000E+00  0.00000000000E+00  0.16986861229E+04  0.16986861229E+04  0.25500000000E-02 0. -1.
          2   -1    0    0  501    0  0.00000000000E+00 -0.00000000000E+00 -0.49831529192E+03  0.49831529193E+03  0.25500000000E-02 0.  1.
    -200001    2    1    2    0    0 -0.12008769589E+03 -0.52791765292E+03  0.11034753005E+04  0.13734263746E+04  0.61280026498E+03 0.  0.
   -5000001    2    3    3    0    0 -0.27233684286E+03 -0.49913130422E+03  0.10186277391E+04  0.11699354281E+04  0.88583409046E+02 0.  0.
     200001    1    1    2    0    0  0.12008769589E+03  0.52791765292E+03  0.96895530453E+02  0.82357504017E+03  0.61300000000E+03 0.  1.
         11    1    4    4    0    0 -0.21394194367E+03 -0.34578253615E+03  0.67622415452E+03  0.78906008942E+03  0.51100000000E-03 0.  1.
    -200002    1    4    4    0    0 -0.58394899193E+02 -0.15334876808E+03  0.34240358457E+03  0.38087533873E+03  0.30000000000E+02 0.  1.
    -200000    1    3    3    0    0  0.15224914698E+03 -0.28786348694E+02  0.84847561421E+02  0.20349094649E+03  0.10100000000E+03 0.  1.
<mgrwt>
<rscale>  0 0.18400883E+04</rscale>
<asrwt>0</asrwt>
<pdfrwt beam="1">  1        2 0.71187898E-01 0.18400883E+04</pdfrwt>
<pdfrwt beam="2">  1       -2 0.24266945E+00 0.18400883E+04</pdfrwt>
<totfact> 0.45353172E+00</totfact>
</mgrwt>
</event>
<event>
 8    2  0.7237260E-052  0.1591959E+04  0.7818608E-02  0.8825503E-01
          2   -1    0    0  501    0  0.00000000000E+00  0.00000000000E+00  0.98640355155E+03  0.98640355156E+03  0.25500000000E-02 0.  1.
         -2   -1    0    0    0  501 -0.00000000000E+00 -0.00000000000E+00 -0.64231669349E+03  0.64231669349E+03  0.25500000000E-02 0. -1.
    -200001    2    1    2    0    0  0.74594243493E+02 -0.57498388297E+02 -0.33838485463E+03  0.70654509659E+03  0.61305081180E+03 0.  0.
   -5000001    2    3    3    0    0  0.15031555847E+03  0.23082780189E+03 -0.13409362887E+03  0.33130968460E+03  0.12612995111E+03 0.  0.
     200001    1    1    2    0    0 -0.74594243493E+02  0.57498388297E+02  0.68247171269E+03  0.92217514846E+03  0.61300000000E+03 0.  1.
         11    1    4    4    0    0  0.10316994518E+03  0.85104304885E+02 -0.11046059578E+03  0.17345986141E+03  0.51100000000E-03 0.  1.
    -200002    1    4    4    0    0  0.47145613285E+02  0.14572349700E+03 -0.23633033094E+02  0.15784982320E+03  0.30000000000E+02 0.  1.
    -200000    1    3    3    0    0 -0.75721314973E+02 -0.28832619018E+03 -0.20429122575E+03  0.37523541198E+03  0.10100000000E+03 0. -1.
<mgrwt>
<rscale>  0 0.15919591E+04</rscale>
<asrwt>0</asrwt>
<pdfrwt beam="1">  1        2 0.14091479E+00 0.15919591E+04</pdfrwt>
<pdfrwt beam="2">  1       -2 0.91759527E-01 0.15919591E+04</pdfrwt>
<totfact> 0.27835261E+01</totfact>
</mgrwt>
</event>
<event>
 8    2  0.7237260E-052  0.1377504E+04  0.7818608E-02  0.8970265E-01
         -2   -1    0    0    0  501 -0.00000000000E+00  0.00000000000E+00  0.38725725377E+03  0.38725725378E+03  0.25500000000E-02 0. -1.
          2   -1    0    0  501    0  0.00000000000E+00 -0.00000000000E+00 -0.12249728899E+04  0.12249728899E+04  0.25500000000E-02 0.  1.
    -200001    2    1    2    0    0  0.20009205116E+03 -0.10965785320E+03 -0.67087573599E+03  0.93719960661E+03  0.61335729864E+03 0.  0.
   -5000001    2    3    3    0    0  0.25912206289E+03  0.90891299201E+02 -0.64122862974E+02  0.28754234796E+03  0.56244009148E+02 0.  0.
     200001    1    1    2    0    0 -0.20009205116E+03  0.10965785320E+03 -0.16683990016E+03  0.67503053708E+03  0.61300000000E+03 0. -1.
         11    1    4    4    0    0  0.15621724295E+03  0.67303140196E+02 -0.31005782612E+02  0.17290141188E+03  0.51100000000E-03 0.  1.
    -200002    1    4    4    0    0  0.10290481994E+03  0.23588159005E+02 -0.33117080362E+02  0.11464093608E+03  0.30000000000E+02 0. -1.
    -200000    1    3    3    0    0 -0.59030011729E+02 -0.20054915240E+03 -0.60675287301E+03  0.64965725866E+03  0.10100000000E+03 0. -1.
<mgrwt>
<rscale>  0 0.13775045E+04</rscale>
<asrwt>0</asrwt>
<pdfrwt beam="1">  1        2 0.17499612E+00 0.13775045E+04</pdfrwt>
<pdfrwt beam="2">  1       -2 0.55322466E-01 0.13775045E+04</pdfrwt>
<totfact> 0.61986887E+01</totfact>
</mgrwt>
</event>
<event>
 8    2  0.7237260E-052  0.1651588E+04  0.7818608E-02  0.8789468E-01
         -2   -1    0    0    0  501 -0.00000000000E+00  0.00000000000E+00  0.25666684336E+03  0.25666684337E+03  0.25500000000E-02 0. -1.
          2   -1    0    0  501    0  0.00000000000E+00 -0.00000000000E+00 -0.26568909109E+04  0.26568909109E+04  0.25500000000E-02 0.  1.
    -200001    2    1    2    0    0 -0.54233687618E+03  0.10042974574E+03 -0.12967111216E+04  0.15359782673E+04  0.61119070968E+03 0.  0.
   -5000001    2    3    3    0    0 -0.35765301421E+03 -0.20168379191E+03 -0.91277489261E+03  0.10040114014E+04  0.79302326624E+02 0.  0.
     200001    1    1    2    0    0  0.54233687618E+03 -0.10042974574E+03 -0.11035129459E+04  0.13775794869E+04  0.61300000000E+03 0.  1.
         11    1    4    4    0    0 -0.96819568070E+02 -0.92169672396E+02 -0.29780738012E+03  0.32643301446E+03  0.51100000000E-03 0.  1.
    -200002    1    4    4    0    0 -0.26083344614E+03 -0.10951411952E+03 -0.61496751249E+03  0.67757838692E+03  0.30000000000E+02 0.  1.
    -200000    1    3    3    0    0 -0.18468386197E+03  0.30211353765E+03 -0.38393622903E+03  0.53196686595E+03  0.10100000000E+03 0. -1.
<mgrwt>
<rscale>  0 0.16515881E+04</rscale>
<asrwt>0</asrwt>
<pdfrwt beam="1">  1        2 0.37955583E+00 0.16515881E+04</pdfrwt>
<pdfrwt beam="2">  1       -2 0.36666693E-01 0.16515881E+04</pdfrwt>
<totfact> 0.24422108E+01</totfact>
</mgrwt>
</event>
<event>
 8    2  0.7237260E-052  0.1418088E+04  0.7818608E-02  0.8940829E-01
          2   -1    0    0  501    0  0.00000000000E+00  0.00000000000E+00  0.21073528565E+03  0.21073528566E+03  0.25500000000E-02 0.  1.
         -2   -1    0    0    0  501 -0.00000000000E+00 -0.00000000000E+00 -0.23856623263E+04  0.23856623263E+04  0.25500000000E-02 0. -1.
    -200001    2    1    2    0    0  0.28400241255E+03  0.20119326784E+03 -0.91854598253E+03  0.11557732804E+04  0.60905586970E+03 0.  0.
   -5000001    2    3    3    0    0  0.29312393417E+03 -0.13602223131E+03 -0.38711729043E+03  0.51826645710E+03  0.11965214503E+03 0.  0.
     200001    1    1    2    0    0 -0.28400241255E+03 -0.20119326784E+03 -0.12563810581E+04  0.14406243315E+04  0.61300000000E+03 0. -1.
         11    1    4    4    0    0  0.14894640527E+03 -0.81608362538E+02 -0.11835609156E+03  0.20700995360E+03  0.51100000000E-03 0.  1.
    -200002    1    4    4    0    0  0.14417752891E+03 -0.54413868776E+02 -0.26876119887E+03  0.31125650350E+03  0.30000000000E+02 0.  1.
    -200000    1    3    3    0    0 -0.91215216206E+01  0.33721549916E+03 -0.53142869210E+03  0.63750682335E+03  0.10100000000E+03 0.  1.
<mgrwt>
<rscale>  0 0.14180878E+04</rscale>
<asrwt>0</asrwt>
<pdfrwt beam="1">  1        2 0.30105042E-01 0.14180878E+04</pdfrwt>
<pdfrwt beam="2">  1       -2 0.34080889E+00 0.14180878E+04</pdfrwt>
<totfact> 0.30942370E+00</totfact>
</mgrwt>
</event>
<event>
 8    2  0.7237260E-052  0.1576836E+04  0.7818608E-02  0.8834906E-01
          2   -1    0    0  501    0  0.00000000000E+00  0.00000000000E+00  0.60518941134E+03  0.60518941135E+03  0.25500000000E-02 0.  1.
         -2   -1    0    0    0  501 -0.00000000000E+00 -0.00000000000E+00 -0.10271219550E+04  0.10271219550E+04  0.25500000000E-02 0. -1.
    -200001    2    1    2    0    0  0.26824004222E+03 -0.34540051610E+03  0.26303257484E+02  0.75599032349E+03  0.61609680334E+03 0.  0.
   -5000001    2    3    3    0    0  0.65314085367E+02 -0.45382693717E+03  0.13143403121E+03  0.48361427401E+03  0.79893947297E+02 0.  0.
     200001    1    1    2    0    0 -0.26824004222E+03  0.34540051610E+03 -0.44823580118E+03  0.87632104290E+03  0.61300000000E+03 0. -1.
         11    1    4    4    0    0  0.27956404352E+02 -0.46434966472E+02  0.52996544033E+01  0.54459645542E+02  0.51100000000E-03 0.  1.
    -200002    1    4    4    0    0  0.37357681015E+02 -0.40739197070E+03  0.12613437681E+03  0.42915462846E+03  0.30000000000E+02 0.  1.
    -200000    1    3    3    0    0  0.20292595685E+03  0.10842642107E+03 -0.10513077373E+03  0.27237604948E+03  0.10100000000E+03 0. -1.
<mgrwt>
<rscale>  0 0.15768365E+04</rscale>
<asrwt>0</asrwt>
<pdfrwt beam="1">  1        2 0.86455630E-01 0.15768365E+04</pdfrwt>
<pdfrwt beam="2">  1       -2 0.14673171E+00 0.15768365E+04</pdfrwt>
<totfact> 0.16413373E+01</totfact>
</mgrwt>
</event>
<event>
 8    2  0.7237260E-052  0.2282474E+04  0.7818608E-02  0.8484864E-01
          2   -1    0    0  501    0  0.00000000000E+00  0.00000000000E+00  0.86039148695E+03  0.86039148696E+03  0.25500000000E-02 0.  1.
         -2   -1    0    0    0  501 -0.00000000000E+00 -0.00000000000E+00 -0.15137547418E+04  0.15137547418E+04  0.25500000000E-02 0. -1.
    -200001    2    1    2    0    0 -0.48058283856E+03 -0.20698403473E+03 -0.11670925876E+04  0.14183800007E+04  0.61310232663E+03 0.  0.
   -5000001    2    3    3    0    0 -0.59393842219E+03 -0.17411466682E+03 -0.83516918812E+03  0.10519048626E+04  0.16098913209E+03 0.  0.
     200001    1    1    2    0    0  0.48058283856E+03  0.20698403473E+03  0.51372933278E+03  0.95576622806E+03  0.61300000000E+03 0.  1.
         11    1    4    4    0    0 -0.12693015131E+03 -0.66224329327E+02 -0.30273390049E+03  0.33488018695E+03  0.51100000000E-03 0.  1.
    -200002    1    4    4    0    0 -0.46700827089E+03 -0.10789033750E+03 -0.53243528763E+03  0.71702467567E+03  0.30000000000E+02 0. -1.
    -200000    1    3    3    0    0  0.11335558363E+03 -0.32869367905E+02 -0.33192339950E+03  0.36647513807E+03  0.10100000000E+03 0.  1.
<mgrwt>
<rscale>  0 0.22824738E+04</rscale>
<asrwt>0</asrwt>
<pdfrwt beam="1">  1        2 0.12291307E+00 0.22824738E+04</pdfrwt>
<pdfrwt beam="2">  1       -2 0.21625068E+00 0.22824738E+04</pdfrwt>
<totfact> 0.32887300E+00</totfact>
</mgrwt>
</event>
<event>
 8    2  0.7237260E-052  0.1754669E+04  0.7818608E-02  0.8730785E-01
         -2   -1    0    0    0  501 -0.00000000000E+00  0.00000000000E+00  0.12822699948E+04  0.12822699948E+04  0.25500000000E-02 0. -1.
          2   -1    0    0  501    0  0.00000000000E+00 -0.00000000000E+00 -0.60027573954E+03  0.60027573955E+03  0.25500000000E-02 0.  1.
    -200001    2    1    2    0    0 -0.31694180594E+03 -0.50675142798E+03  0.54614685119E+03  0.10156705211E+04  0.61323821332E+03 0.  0.
   -5000001    2    3    3    0    0 -0.16962280548E+03 -0.59420821496E+03  0.51768692012E+03  0.81476620269E+03  0.11827476025E+03 0.  0.
     200001    1    1    2    0    0  0.31694180594E+03  0.50675142798E+03  0.13584740404E+03  0.86687521322E+03  0.61300000000E+03 0.  1.
         11    1    4    4    0    0 -0.14118865226E+03 -0.29449874398E+03  0.27206677944E+03  0.42506949809E+03  0.51100000000E-03 0.  1.
    -200002    1    4    4    0    0 -0.28434153223E+02 -0.29970947098E+03  0.24562014068E+03  0.38969670459E+03  0.30000000000E+02 0.  1.
    -200000    1    3    3    0    0 -0.14731900046E+03  0.87456786981E+02  0.28459931075E+02  0.20090431842E+03  0.10100000000E+03 0.  1.
<mgrwt>
<rscale>  0 0.17546687E+04</rscale>
<asrwt>0</asrwt>
<pdfrwt beam="1">  1        2 0.85753676E-01 0.17546687E+04</pdfrwt>
<pdfrwt beam="2">  1       -2 0.18318143E+00 0.17546687E+04</pdfrwt>
<totfact> 0.88767327E+00</totfact>
</mgrwt>
</event>
<event>
 8    2  0.7237260E-052  0.1443601E+04  0.7818608E-02  0.8922849E-01
          2   -1    0    0  501    0  0.00000000000E+00  0.00000000000E+00  0.20649672488E+04  0.20649672488E+04  0.25500000000E-02 0.  1.
         -2   -1    0    0    0  501 -0.00000000000E+00 -0.00000000000E+00 -0.25230235118E+03  0.25230235120E+03  0.25500000000E-02 0. -1.
    -200001    2    1    2    0    0  0.18038883788E+03 -0.21550428737E+03  0.49331115311E+03  0.83556600823E+03  0.61305173487E+03 0.  0.
   -5000001    2    3    3    0    0 -0.18300745173E+02  0.17362144813E+03  0.27141686265E+03  0.33523165545E+03  0.90740426269E+02 0.  0.
     200001    1    1    2    0    0 -0.18038883788E+03  0.21550428737E+03  0.13193537445E+04  0.14817035918E+04  0.61300000000E+03 0.  1.
         11    1    4    4    0    0  0.20927336043E+02  0.11833295797E+03  0.19272600712E+03  0.22712101654E+03  0.51100000000E-03 0.  1.
    -200002    1    4    4    0    0 -0.39228081216E+02  0.55288490165E+02  0.78690855529E+02  0.10811063891E+03  0.30000000000E+02 0.  1.
    -200000    1    3    3    0    0  0.19868958305E+03 -0.38912573550E+03  0.22189429046E+03  0.50033435279E+03  0.10100000000E+03 0. -1.
<mgrwt>
<rscale>  0 0.14436012E+04</rscale>
<asrwt>0</asrwt>
<pdfrwt beam="1">  1        2 0.29499532E+00 0.14436012E+04</pdfrwt>
<pdfrwt beam="2">  1       -2 0.36043194E-01 0.14436012E+04</pdfrwt>
<totfact> 0.52246057E+01</totfact>
</mgrwt>
</event>
<event>
 8    2  0.7237260E-052  0.1618120E+04  0.7818608E-02  0.8809493E-01
          2   -1    0    0  501    0  0.00000000000E+00  0.00000000000E+00  0.10721516361E+04  0.10721516361E+04  0.25500000000E-02 0.  1.
         -2   -1    0    0    0  501 -0.00000000000E+00 -0.00000000000E+00 -0.61052744026E+03  0.61052744026E+03  0.25500000000E-02 0. -1.
    -200001    2    1    2    0    0  0.37361399603E+03 -0.36219676577E+03  0.32405062223E+03  0.86691599597E+03  0.61299316728E+03 0.  0.
   -5000001    2    3    3    0    0  0.75498978390E+02 -0.56295279899E+02  0.69013569936E+02  0.35928110666E+03  0.33978049751E+03 0.  0.
     200001    1    1    2    0    0 -0.37361399603E+03  0.36219676577E+03  0.13757357360E+03  0.81576308038E+03  0.61300000000E+03 0.  1.
         11    1    4    4    0    0 -0.10501358488E+03 -0.53886371286E+02 -0.62845963337E+02  0.13372063837E+03  0.51100000000E-03 0.  1.
    -200002    1    4    4    0    0  0.18051256327E+03 -0.24089086130E+01  0.13185953327E+03  0.22556046828E+03  0.30000000000E+02 0.  1.
    -200000    1    3    3    0    0  0.29811501764E+03 -0.30590148587E+03  0.25503705229E+03  0.50763488931E+03  0.10100000000E+03 0. -1.
<mgrwt>
<rscale>  0 0.16181199E+04</rscale>
<asrwt>0</asrwt>
<pdfrwt beam="1">  1        2 0.15316452E+00 0.16181199E+04</pdfrwt>
<pdfrwt beam="2">  1       -2 0.87218206E-01 0.16181199E+04</pdfrwt>
<totfact> 0.27682697E+01</totfact>
</mgrwt>
</event>
<event>
 8    2  0.7237260E-052  0.1487153E+04  0.7818608E-02  0.8893042E-01
          2   -1    0    0  501    0  0.00000000000E+00  0.00000000000E+00  0.23435703687E+04  0.23435703687E+04  0.25500000000E-02 0.  1.
         -2   -1    0    0    0  501 -0.00000000000E+00 -0.00000000000E+00 -0.23592451633E+03  0.23592451634E+03  0.25500000000E-02 0. -1.
    -200001    2    1    2    0    0  0.41678205501E+03  0.22417880891E+02  0.94849861310E+03  0.12034130688E+04  0.61183621360E+03 0.  0.
   -5000001    2    3    3    0    0  0.38235080338E+03  0.25282537001E+03  0.74772922648E+03  0.87971186591E+03  0.68419049371E+02 0.  0.
     200001    1    1    2    0    0 -0.41678205501E+03 -0.22417880891E+02  0.11591472393E+04  0.13760818163E+04  0.61300000000E+03 0. -1.
         11    1    4    4    0    0  0.23275909654E+03  0.17925882187E+03  0.45912471102E+03  0.54507432751E+03  0.51100000000E-03 0.  1.
    -200002    1    4    4    0    0  0.14959170684E+03  0.73566548147E+02  0.28860451546E+03  0.33463753839E+03  0.30000000000E+02 0. -1.
    -200000    1    3    3    0    0  0.34431251631E+02 -0.23040748912E+03  0.20076938662E+03  0.32370120287E+03  0.10100000000E+03 0. -1.
<mgrwt>
<rscale>  0 0.14871526E+04</rscale>
<asrwt>0</asrwt>
<pdfrwt beam="1">  1        2 0.33479577E+00 0.14871526E+04</pdfrwt>
<pdfrwt beam="2">  1       -2 0.33703502E-01 0.14871526E+04</pdfrwt>
<totfact> 0.42505647E+01</totfact>
</mgrwt>
</event>
<event>
 8    2  0.7237260E-052  0.1820424E+04  0.7818608E-02  0.8695513E-01
          2   -1    0    0  501    0  0.00000000000E+00  0.00000000000E+00  0.13400499751E+04  0.13400499751E+04  0.25500000000E-02 0.  1.
         -2   -1    0    0    0  501 -0.00000000000E+00 -0.00000000000E+00 -0.61824999218E+03  0.61824999219E+03  0.25500000000E-02 0. -1.
    -200001    2    1    2    0    0 -0.33787739518E+03  0.41026001240E+02  0.98532815241E+03  0.12092603402E+04  0.61285784273E+03 0.  0.
   -5000001    2    3    3    0    0 -0.33932099842E+03  0.27506898849E+03  0.60998585572E+03  0.75554121607E+03  0.89208164490E+02 0.  0.
     200001    1    1    2    0    0  0.33787739518E+03 -0.41026001240E+02 -0.26352816947E+03  0.74903962716E+03  0.61300000000E+03 0. -1.
         11    1    4    4    0    0 -0.13204653980E+03  0.66096563618E+02  0.16798266080E+03  0.22365871038E+03  0.51100000000E-03 0.  1.
    -200002    1    4    4    0    0 -0.20727445862E+03  0.20897242488E+03  0.44200319491E+03  0.53188250570E+03  0.30000000000E+02 0.  1.
    -200000    1    3    3    0    0  0.14436032391E+01 -0.23404298725E+03  0.37534229669E+03  0.45371912409E+03  0.10100000000E+03 0.  1.
<mgrwt>
<rscale>  0 0.18204240E+04</rscale>
<asrwt>0</asrwt>
<pdfrwt beam="1">  1        2 0.19143571E+00 0.18204240E+04</pdfrwt>
<pdfrwt beam="2">  1       -2 0.88321429E-01 0.18204240E+04</pdfrwt>
<totfact> 0.18620793E+01</totfact>
</mgrwt>
</event>
<event>
 8    2  0.7237260E-052  0.1515779E+04  0.7818608E-02  0.8874027E-01
          2   -1    0    0  501    0  0.00000000000E+00  0.00000000000E+00  0.60529950067E+03  0.60529950067E+03  0.25500000000E-02 0.  1.
         -2   -1    0    0    0  501 -0.00000000000E+00 -0.00000000000E+00 -0.94894608418E+03  0.94894608418E+03  0.25500000000E-02 0. -1.
    -200001    2    1    2    0    0 -0.28055739265E+03 -0.33954914609E+03 -0.24398908003E+03  0.79286086529E+03  0.61244722822E+03 0.  0.
   -5000001    2    3    3    0    0 -0.20406807594E+03 -0.11984848679E+03 -0.41419831089E+03  0.48742482037E+03  0.10007634772E+03 0.  0.
     200001    1    1    2    0    0  0.28055739265E+03  0.33954914609E+03 -0.99657503480E+02  0.76138471956E+03  0.61300000000E+03 0. -1.
         11    1    4    4    0    0 -0.40662347817E+02 -0.73966294596E+02 -0.14498481431E+03  0.16776482244E+03  0.51100000000E-03 0.  1.
    -200002    1    4    4    0    0 -0.16340572812E+03 -0.45882192195E+02 -0.26921349657E+03  0.31965999794E+03  0.30000000000E+02 0.  1.
    -200000    1    3    3    0    0 -0.76489316715E+02 -0.21970065930E+03  0.17020923085E+03  0.30543604492E+03  0.10100000000E+03 0.  1.
<mgrwt>
<rscale>  0 0.15157791E+04</rscale>
<asrwt>0</asrwt>
<pdfrwt beam="1">  1        2 0.86471357E-01 0.15157791E+04</pdfrwt>
<pdfrwt beam="2">  1       -2 0.13556373E+00 0.15157791E+04</pdfrwt>
<totfact> 0.20259981E+01</totfact>
</mgrwt>
</event>
<event>
 8    2  0.7237260E-052  0.1302027E+04  0.7818608E-02  0.9027959E-01
         -2   -1    0    0    0  501 -0.00000000000E+00  0.00000000000E+00  0.47869866711E+03  0.47869866712E+03  0.25500000000E-02 0. -1.
          2   -1    0    0  501    0  0.00000000000E+00 -0.00000000000E+00 -0.88535571382E+03  0.88535571382E+03  0.25500000000E-02 0.  1.
    -200001    2    1    2    0    0 -0.77418938247E+02  0.15323509496E+03 -0.59381655420E+02  0.63890344237E+03  0.61253305326E+03 0.  0.
   -5000001    2    3    3    0    0 -0.18317139292E+03  0.22374950999E+03  0.18165520161E+03  0.34829093258E+03  0.68500795866E+02 0.  0.
     200001    1    1    2    0    0  0.77418938247E+02 -0.15323509496E+03 -0.34727539129E+03  0.72515093858E+03  0.61300000000E+03 0.  1.
         11    1    4    4    0    0 -0.11650933444E+03  0.12554453504E+03  0.13173540212E+03  0.21607885473E+03  0.51100000000E-03 0.  1.
    -200002    1    4    4    0    0 -0.66662058480E+02  0.98204974955E+02  0.49919799497E+02  0.13221207785E+03  0.30000000000E+02 0.  1.
    -200000    1    3    3    0    0  0.10575245468E+03 -0.70514415032E+02 -0.24103685703E+03  0.29061250979E+03  0.10100000000E+03 0.  1.
<mgrwt>
<rscale>  0 0.13020270E+04</rscale>
<asrwt>0</asrwt>
<pdfrwt beam="1">  1        2 0.12647939E+00 0.13020270E+04</pdfrwt>
<pdfrwt beam="2">  1       -2 0.68385524E-01 0.13020270E+04</pdfrwt>
<totfact> 0.63817145E+01</totfact>
</mgrwt>
</event>
<event>
 8    2  0.7237260E-052  0.1713041E+04  0.7818608E-02  0.8753961E-01
         -2   -1    0    0    0  501 -0.00000000000E+00  0.00000000000E+00  0.10785730741E+04  0.10785730741E+04  0.25500000000E-02 0. -1.
          2   -1    0    0  501    0  0.00000000000E+00 -0.00000000000E+00 -0.68018356632E+03  0.68018356633E+03  0.25500000000E-02 0.  1.
    -200001    2    1    2    0    0 -0.25081707887E+03  0.44812401336E+03 -0.11420823525E+03  0.80888834189E+03  0.61443672598E+03 0.  0.
   -5000001    2    3    3    0    0 -0.20812216562E+03  0.58353389318E+03 -0.10724618939E+03  0.63450898172E+03  0.85283424086E+02 0.  0.
     200001    1    1    2    0    0  0.25081707887E+03 -0.44812401336E+03  0.51259774302E+03  0.94986829853E+03  0.61300000000E+03 0. -1.
         11    1    4    4    0    0  0.59648021630E+01  0.13737289702E+02  0.27722643053E+01  0.15230805719E+02  0.51100000000E-03 0.  1.
    -200002    1    4    4    0    0 -0.21408696778E+03  0.56979660348E+03 -0.11001845370E+03  0.61927817600E+03  0.30000000000E+02 0.  1.
    -200000    1    3    3    0    0 -0.42694913259E+02 -0.13540987982E+03 -0.69620458556E+01  0.17437936017E+03  0.10100000000E+03 0. -1.
<mgrwt>
<rscale>  0 0.17130414E+04</rscale>
<asrwt>0</asrwt>
<pdfrwt beam="1">  1        2 0.97169082E-01 0.17130414E+04</pdfrwt>
<pdfrwt beam="2">  1       -2 0.15408187E+00 0.17130414E+04</pdfrwt>
<totfact> 0.12391003E+01</totfact>
</mgrwt>
</event>
<event>
 8    2  0.7237260E-052  0.1434847E+04  0.7818608E-02  0.8928974E-01
         -2   -1    0    0    0  501 -0.00000000000E+00  0.00000000000E+00  0.10509870701E+04  0.10509870701E+04  0.25500000000E-02 0. -1.
          2   -1    0    0  501    0  0.00000000000E+00 -0.00000000000E+00 -0.48972690324E+03  0.48972690325E+03  0.25500000000E-02 0.  1.
    -200001    2    1    2    0    0 -0.13934865553E+03 -0.25622704848E+03  0.30661333107E+02  0.67910241901E+03  0.61251092234E+03 0.  0.
   -5000001    2    3    3    0    0  0.17500321681E+03 -0.22330875948E+03 -0.11310592138E+03  0.31748005126E+03  0.86647016913E+02 0.  0.
     200001    1    1    2    0    0  0.13934865553E+03  0.25622704848E+03  0.53059883372E+03  0.86161155431E+03  0.61300000000E+03 0. -1.
         11    1    4    4    0    0  0.22997168461E+02 -0.39533517225E+01 -0.26488401170E+02  0.35300625262E+02  0.51100000000E-03 0.  1.
    -200002    1    4    4    0    0  0.15200604835E+03 -0.21935540776E+03 -0.86617520211E+02  0.28217942600E+03  0.30000000000E+02 0.  1.
    -200000    1    3    3    0    0 -0.31435187234E+03 -0.32918288996E+02  0.14376725449E+03  0.36162236775E+03  0.10100000000E+03 0.  1.
<mgrwt>
<rscale>  0 0.14348472E+04</rscale>
<asrwt>0</asrwt>
<pdfrwt beam="1">  1        2 0.69960986E-01 0.14348472E+04</pdfrwt>
<pdfrwt beam="2">  1       -2 0.15014101E+00 0.14348472E+04</pdfrwt>
<totfact> 0.19971625E+01</totfact>
</mgrwt>
</event>
<event>
 8    2  0.7237260E-052  0.1333487E+04  0.7818608E-02  0.9003423E-01
          2   -1    0    0  501    0  0.00000000000E+00  0.00000000000E+00  0.25793189719E+04  0.25793189719E+04  0.25500000000E-02 0.  1.
         -2   -1    0    0    0  501 -0.00000000000E+00 -0.00000000000E+00 -0.17235045556E+03  0.17235045558E+03  0.25500000000E-02 0. -1.
    -200001    2    1    2    0    0  0.70911806520E+02  0.23931758314E+03  0.10412302701E+04  0.12340030125E+04  0.61343424227E+03 0.  0.
   -5000001    2    3    3    0    0  0.12977258211E+03  0.52398948661E+02  0.99680870642E+03  0.10091087215E+04  0.71317891595E+02 0.  0.
     200001    1    1    2    0    0 -0.70911806520E+02 -0.23931758314E+03  0.13657382462E+04  0.15176664149E+04  0.61300000000E+03 0.  1.
         11    1    4    4    0    0  0.71095755095E+02  0.68369083358E+01  0.33924219617E+03  0.34667941584E+03  0.51100000000E-03 0.  1.
    -200002    1    4    4    0    0  0.58676827020E+02  0.45562040325E+02  0.65756651025E+03  0.66242930562E+03  0.30000000000E+02 0.  1.
    -200000    1    3    3    0    0 -0.58860775595E+02  0.18691863448E+03  0.44421563679E+02  0.22489429103E+03  0.10100000000E+03 0. -1.
<mgrwt>
<rscale>  0 0.13334869E+04</rscale>
<asrwt>0</asrwt>
<pdfrwt beam="1">  1        2 0.36847416E+00 0.13334869E+04</pdfrwt>
<pdfrwt beam="2">  1       -2 0.24621492E-01 0.13334869E+04</pdfrwt>
<totfact> 0.57949538E+01</totfact>
</mgrwt>
</event>
<event>
 8    2  0.7237260E-052  0.1823073E+04  0.7818608E-02  0.8694125E-01
          2   -1    0    0  501    0  0.00000000000E+00  0.00000000000E+00  0.62313207416E+03  0.62313207417E+03  0.25500000000E-02 0.  1.
         -2   -1    0    0    0  501 -0.00000000000E+00 -0.00000000000E+00 -0.13334227262E+04  0.13334227262E+04  0.25500000000E-02 0. -1.
    -200001    2    1    2    0    0 -0.42254597671E+03  0.52257067207E+03 -0.28777641312E+03  0.95360291131E+03  0.61230551097E+03 0.  0.
   -5000001    2    3    3    0    0  0.41129035028E+02  0.22410303341E+03 -0.22406819437E+03  0.38938913535E+03  0.22249399070E+03 0.  0.
     200001    1    1    2    0    0  0.42254597671E+03 -0.52257067207E+03 -0.42251423896E+03  0.10029518891E+04  0.61300000000E+03 0.  1.
         11    1    4    4    0    0  0.14269716978E+02 -0.44540072036E+02 -0.30575811254E+02  0.55877751151E+02  0.51100000000E-03 0.  1.
    -200002    1    4    4    0    0  0.26859318050E+02  0.26864310544E+03 -0.19349238311E+03  0.33351138420E+03  0.30000000000E+02 0.  1.
    -200000    1    3    3    0    0 -0.46367501174E+03  0.29846763866E+03 -0.63708218752E+02  0.56421377596E+03  0.10100000000E+03 0.  1.
<mgrwt>
<rscale>  0 0.18230726E+04</rscale>
<asrwt>0</asrwt>
<pdfrwt beam="1">  1        2 0.89018868E-01 0.18230726E+04</pdfrwt>
<pdfrwt beam="2">  1       -2 0.19048896E+00 0.18230726E+04</pdfrwt>
<totfact> 0.75351808E+00</totfact>
</mgrwt>
</event>
<event>
 8    2  0.7237260E-052  0.1254376E+04  0.7818608E-02  0.9066549E-01
         -2   -1    0    0    0  501 -0.00000000000E+00  0.00000000000E+00  0.21065836661E+04  0.21065836661E+04  0.25500000000E-02 0. -1.
          2   -1    0    0  501    0  0.00000000000E+00 -0.00000000000E+00 -0.18673113293E+03  0.18673113295E+03  0.25500000000E-02 0.  1.
    -200001    2    1    2    0    0  0.72248208295E+02 -0.10055761582E+03  0.91313930410E+03  0.11081683257E+04  0.61553392411E+03 0.  0.
   -5000001    2    3    3    0    0 -0.21685449859E+03 -0.96742109209E+02  0.55197564127E+03  0.63463361256E+03  0.20420040248E+03 0.  0.
     200001    1    1    2    0    0 -0.72248208295E+02  0.10055761582E+03  0.10067132291E+04  0.11851464734E+04  0.61300000000E+03 0. -1.
         11    1    4    4    0    0 -0.13443071238E+03 -0.11672311935E+02  0.46621727360E+03  0.48535183681E+03  0.51100000000E-03 0.  1.
    -200002    1    4    4    0    0 -0.82423786219E+02 -0.85069797275E+02  0.85758367677E+02  0.14928177575E+03  0.30000000000E+02 0.  1.
    -200000    1    3    3    0    0  0.28910270689E+03 -0.38155066134E+01  0.36116366282E+03  0.47353471316E+03  0.10100000000E+03 0.  1.
<mgrwt>
<rscale>  0 0.12543759E+04</rscale>
<asrwt>0</asrwt>
<pdfrwt beam="1">  1        2 0.26675878E-01 0.12543759E+04</pdfrwt>
<pdfrwt beam="2">  1       -2 0.30094050E+00 0.12543759E+04</pdfrwt>
<totfact> 0.63338904E+00</totfact>
</mgrwt>
</event>
<event>
 8    2  0.7237260E-052  0.1430706E+04  0.7818608E-02  0.8931887E-01
          2   -1    0    0  501    0  0.00000000000E+00  0.00000000000E+00  0.20434750430E+04  0.20434750430E+04  0.25500000000E-02 0.  1.
         -2   -1    0    0    0  501 -0.00000000000E+00 -0.00000000000E+00 -0.25042135585E+03  0.25042135586E+03  0.25500000000E-02 0. -1.
    -200001    2    1    2    0    0 -0.27425697404E+03  0.20501410775E+03  0.11137761786E+04  0.13169447082E+04  0.61367606794E+03 0.  0.
   -5000001    2    3    3    0    0 -0.75104893091E+02 -0.16418463188E+03  0.15370321686E+03  0.26437150293E+03  0.11691994858E+03 0.  0.
     200001    1    1    2    0    0  0.27425697404E+03 -0.20501410775E+03  0.67927750857E+03  0.97695169064E+03  0.61300000000E+03 0.  1.
         11    1    4    4    0    0 -0.51059225345E+02 -0.14005341695E+03  0.60840282224E+02  0.16100790053E+03  0.51100000000E-03 0.  1.
    -200002    1    4    4    0    0 -0.24045667745E+02 -0.24131214925E+02  0.92862934633E+02  0.10336360239E+03  0.30000000000E+02 0.  1.
    -200000    1    3    3    0    0 -0.19915208095E+03  0.36919873963E+03  0.96007296170E+03  0.10525732053E+04  0.10100000000E+03 0.  1.
<mgrwt>
<rscale>  0 0.14307058E+04</rscale>
<asrwt>0</asrwt>
<pdfrwt beam="1">  1        2 0.29192500E+00 0.14307058E+04</pdfrwt>
<pdfrwt beam="2">  1       -2 0.35774480E-01 0.14307058E+04</pdfrwt>
<totfact> 0.54420539E+01</totfact>
</mgrwt>
</event>
<event>
 8    2  0.7237260E-052  0.1341467E+04  0.7818608E-02  0.8997313E-01
         -2   -1    0    0    0  501 -0.00000000000E+00  0.00000000000E+00  0.68688642994E+03  0.68688642994E+03  0.25500000000E-02 0. -1.
          2   -1    0    0  501    0  0.00000000000E+00 -0.00000000000E+00 -0.65496031072E+03  0.65496031073E+03  0.25500000000E-02 0.  1.
    -200001    2    1    2    0    0 -0.12866013228E+03  0.10144740415E+03 -0.19566553518E+03  0.66774588279E+03  0.61705312322E+03 0.  0.
   -5000001    2    3    3    0    0 -0.31836598625E+03 -0.43594401292E+02 -0.18069090631E+01  0.34400585858E+03  0.12279817911E+03 0.  0.
     200001    1    1    2    0    0  0.12866013228E+03 -0.10144740415E+03  0.22759165439E+03  0.67410085788E+03  0.61300000000E+03 0. -1.
         11    1    4    4    0    0  0.88459549519E+01  0.26780875447E+00 -0.87347028223E+01  0.12434535544E+02  0.51100000000E-03 0.  1.
    -200002    1    4    4    0    0 -0.32721194120E+03 -0.43862210046E+02  0.69277937592E+01  0.33157132304E+03  0.30000000000E+02 0.  1.
    -200000    1    3    3    0    0  0.18970585396E+03  0.14504180544E+03 -0.19385862611E+03  0.32374002420E+03  0.10100000000E+03 0.  1.
<mgrwt>
<rscale>  0 0.13414669E+04</rscale>
<asrwt>0</asrwt>
<pdfrwt beam="1">  1        2 0.93565759E-01 0.13414669E+04</pdfrwt>
<pdfrwt beam="2">  1       -2 0.98126632E-01 0.13414669E+04</pdfrwt>
<totfact> 0.41296923E+01</totfact>
</mgrwt>
</event>
<event>
 8    2  0.7237260E-052  0.1531742E+04  0.7818608E-02  0.8863615E-01
          2   -1    0    0  501    0  0.00000000000E+00  0.00000000000E+00  0.19743895557E+04  0.19743895557E+04  0.25500000000E-02 0.  1.
         -2   -1    0    0    0  501 -0.00000000000E+00 -0.00000000000E+00 -0.29708334649E+03  0.29708334650E+03  0.25500000000E-02 0. -1.
    -200001    2    1    2    0    0  0.33754948531E+03 -0.31100591109E+03  0.81630406331E+03  0.11191890713E+04  0.61283564004E+03 0.  0.
   -5000001    2    3    3    0    0  0.33283874286E+03 -0.41961621589E+03  0.38837949134E+03  0.66626652966E+03  0.78822977989E+02 0.  0.
     200001    1    1    2    0    0 -0.33754948531E+03  0.31100591109E+03  0.86100214585E+03  0.11522838309E+04  0.61300000000E+03 0. -1.
         11    1    4    4    0    0  0.19660043814E+03 -0.21864164243E+03  0.17883751721E+03  0.34414932463E+03  0.51100000000E-03 0.  1.
    -200002    1    4    4    0    0  0.13623830471E+03 -0.20097457347E+03  0.20954197413E+03  0.32211720503E+03  0.30000000000E+02 0.  1.
    -200000    1    3    3    0    0  0.47107424559E+01  0.10861030480E+03  0.42792457197E+03  0.45292254161E+03  0.10100000000E+03 0.  1.
<mgrwt>
<rscale>  0 0.15317418E+04</rscale>
<asrwt>0</asrwt>
<pdfrwt beam="1">  1        2 0.28205565E+00 0.15317418E+04</pdfrwt>
<pdfrwt beam="2">  1       -2 0.42440478E-01 0.15317418E+04</pdfrwt>
<totfact> 0.42018019E+01</totfact>
</mgrwt>
</event>
<event>
 8    2  0.7237260E-052  0.2127556E+04  0.7818608E-02  0.8549201E-01
          2   -1    0    0  501    0  0.00000000000E+00  0.00000000000E+00  0.31867742551E+04  0.31867742551E+04  0.25500000000E-02 0.  1.
         -2   -1    0    0    0  501 -0.00000000000E+00 -0.00000000000E+00 -0.35510016960E+03  0.35510016961E+03  0.25500000000E-02 0. -1.
    -200001    2    1    2    0    0  0.57188466340E+03 -0.56807085013E+03  0.19625554626E+04  0.22073734919E+04  0.60919391822E+03 0.  0.
   -5000001    2    3    3    0    0  0.13001186659E+03 -0.40074082028E+03  0.14060126189E+04  0.14703579939E+04  0.87091074221E+02 0.  0.
     200001    1    1    2    0    0 -0.57188466340E+03  0.56807085013E+03  0.86911862290E+03  0.13345009328E+04  0.61300000000E+03 0. -1.
         11    1    4    4    0    0  0.47619382556E+02 -0.67711904969E+02  0.20916428832E+03  0.22494934358E+03  0.51100000000E-03 0.  1.
    -200002    1    4    4    0    0  0.82392484033E+02 -0.33302891531E+03  0.11968483306E+04  0.12454086503E+04  0.30000000000E+02 0.  1.
    -200000    1    3    3    0    0  0.44187279681E+03 -0.16733002985E+03  0.55654284374E+03  0.73701549805E+03  0.10100000000E+03 0.  1.
<mgrwt>
<rscale>  0 0.21275564E+04</rscale>
<asrwt>0</asrwt>
<pdfrwt beam="1">  1        2 0.45525350E+00 0.21275564E+04</pdfrwt>
<pdfrwt beam="2">  1       -2 0.50728591E-01 0.21275564E+04</pdfrwt>
<totfact> 0.62688306E+00</totfact>
</mgrwt>
</event>
<event>
 8    2  0.7237260E-052  0.1627653E+04  0.7818608E-02  0.8803738E-01
         -2   -1    0    0    0  501 -0.00000000000E+00  0.00000000000E+00  0.86829650429E+03  0.86829650430E+03  0.25500000000E-02 0. -1.
          2   -1    0    0  501    0  0.00000000000E+00 -0.00000000000E+00 -0.76277325150E+03  0.76277325150E+03  0.25500000000E-02 0.  1.
    -200001    2    1    2    0    0 -0.65112155470E+02 -0.50865586579E+03  0.20604822667E+03  0.82556081546E+03  0.61328982195E+03 0.  0.
   -5000001    2    3    3    0    0  0.62263335772E+02 -0.36298783396E+03 -0.15154684677E+03  0.40661102394E+03  0.82031624610E+02 0.  0.
     200001    1    1    2    0    0  0.65112155470E+02  0.50865586579E+03 -0.10052497388E+03  0.80550894034E+03  0.61300000000E+03 0.  1.
         11    1    4    4    0    0  0.10901027225E+02 -0.14429700237E+03 -0.94745024768E+02  0.17296553705E+03  0.51100000000E-03 0.  1.
    -200002    1    4    4    0    0  0.51362308546E+02 -0.21869083159E+03 -0.56801822002E+02  0.23364548689E+03  0.30000000000E+02 0.  1.
    -200000    1    3    3    0    0 -0.12737549124E+03 -0.14566803183E+03  0.35759507344E+03  0.41894979152E+03  0.10100000000E+03 0. -1.
<mgrwt>
<rscale>  0 0.16276527E+04</rscale>
<asrwt>0</asrwt>
<pdfrwt beam="1">  1        2 0.10896761E+00 0.16276527E+04</pdfrwt>
<pdfrwt beam="2">  1       -2 0.12404236E+00 0.16276527E+04</pdfrwt>
<totfact> 0.18945934E+01</totfact>
</mgrwt>
</event>
<event>
 8    2  0.7237260E-052  0.1693947E+04  0.7818608E-02  0.8764824E-01
         -2   -1    0    0    0  501 -0.00000000000E+00  0.00000000000E+00  0.19334057701E+04  0.19334057701E+04  0.25500000000E-02 0. -1.
          2   -1    0    0  501    0  0.00000000000E+00 -0.00000000000E+00 -0.37103639195E+03  0.37103639196E+03  0.25500000000E-02 0.  1.
    -200001    2    1    2    0    0 -0.77694627163E+02 -0.52395663705E+03  0.11179225822E+04  0.13803918566E+04  0.61250613499E+03 0.  0.
   -5000001    2    3    3    0    0  0.15376756991E+03 -0.14568974040E+03  0.72733144294E+03  0.78087285620E+03  0.18942392577E+03 0.  0.
     200001    1    1    2    0    0  0.77694627163E+02  0.52395663705E+03  0.44444679596E+03  0.92405030547E+03  0.61300000000E+03 0.  1.
         11    1    4    4    0    0  0.14895436534E+03 -0.15656557250E+03  0.71394676784E+03  0.74593576718E+03  0.51100000000E-03 0.  1.
    -200002    1    4    4    0    0  0.48132045734E+01  0.10875832098E+02  0.13384675098E+02  0.34937089026E+02  0.30000000000E+02 0.  1.
    -200000    1    3    3    0    0 -0.23146219707E+03 -0.37826689665E+03  0.39059113925E+03  0.59951900039E+03  0.10100000000E+03 0.  1.
<mgrwt>
<rscale>  0 0.16939468E+04</rscale>
<asrwt>0</asrwt>
<pdfrwt beam="1">  1        2 0.53005199E-01 0.16939468E+04</pdfrwt>
<pdfrwt beam="2">  1       -2 0.27620082E+00 0.16939468E+04</pdfrwt>
<totfact> 0.39931912E+00</totfact>
</mgrwt>
</event>
<event>
 8    2  0.7237260E-052  0.1490947E+04  0.7818608E-02  0.8890495E-01
         -2   -1    0    0    0  501 -0.00000000000E+00  0.00000000000E+00  0.62317960581E+03  0.62317960581E+03  0.25500000000E-02 0. -1.
          2   -1    0    0  501    0  0.00000000000E+00 -0.00000000000E+00 -0.89176714330E+03  0.89176714330E+03  0.25500000000E-02 0.  1.
    -200001    2    1    2    0    0 -0.73947790039E+02 -0.37913467265E+03 -0.31266579592E+03  0.78905194371E+03  0.61288799489E+03 0.  0.
   -5000001    2    3    3    0    0  0.67477623404E+01 -0.35382068338E+03  0.78788147213E+02  0.37602681152E+03  0.99769647468E+02 0.  0.
     200001    1    1    2    0    0  0.73947790039E+02  0.37913467265E+03  0.44078258428E+02  0.72589480541E+03  0.61300000000E+03 0. -1.
         11    1    4    4    0    0  0.98766904409E+01 -0.83785110812E+02 -0.20360537079E+02  0.86787356673E+02  0.51100000000E-03 0.  1.
    -200002    1    4    4    0    0 -0.31289281005E+01 -0.27003557256E+03  0.99148684291E+02  0.28923945484E+03  0.30000000000E+02 0.  1.
    -200000    1    3    3    0    0 -0.80695552379E+02 -0.25313989268E+02 -0.39145394313E+03  0.41302513219E+03  0.10100000000E+03 0.  1.
<mgrwt>
<rscale>  0 0.14909475E+04</rscale>
<asrwt>0</asrwt>
<pdfrwt beam="1">  1        2 0.12739531E+00 0.14909475E+04</pdfrwt>
<pdfrwt beam="2">  1       -2 0.89025658E-01 0.14909475E+04</pdfrwt>
<totfact> 0.34571935E+01</totfact>
</mgrwt>
</event>
<event>
 8    2  0.7237260E-052  0.2365116E+04  0.7818608E-02  0.8452680E-01
          2   -1    0    0  501    0  0.00000000000E+00  0.00000000000E+00  0.14343131360E+04  0.14343131360E+04  0.25500000000E-02 0.  1.
         -2   -1    0    0    0  501 -0.00000000000E+00 -0.00000000000E+00 -0.97499144369E+03  0.97499144369E+03  0.25500000000E-02 0. -1.
    -200001    2    1    2    0    0  0.44482412635E+03 -0.42375615372E+02  0.11538027459E+04  0.13808410997E+04  0.61302297667E+03 0.  0.
   -5000001    2    3    3    0    0  0.14208057591E+02 -0.24585804776E+03  0.32813823267E+03  0.42232235318E+03  0.10016696914E+03 0.  0.
     200001    1    1    2    0    0 -0.44482412635E+03  0.42375615372E+02 -0.69448105353E+03  0.10284634801E+04  0.61300000000E+03 0. -1.
         11    1    4    4    0    0 -0.11639077164E+02 -0.14093755078E+02 -0.44114263384E+00  0.18283781242E+02  0.51100000000E-03 0.  1.
    -200002    1    4    4    0    0  0.25847134755E+02 -0.23176429268E+03  0.32857937530E+03  0.40403857194E+03  0.30000000000E+02 0.  1.
    -200000    1    3    3    0    0  0.43061606876E+03  0.20348243239E+03  0.82566451322E+03  0.95851874648E+03  0.10100000000E+03 0.  1.
<mgrwt>
<rscale>  0 0.23651157E+04</rscale>
<asrwt>0</asrwt>
<pdfrwt beam="1">  1        2 0.20490188E+00 0.23651157E+04</pdfrwt>
<pdfrwt beam="2">  1       -2 0.13928449E+00 0.23651157E+04</pdfrwt>
<totfact> 0.52330286E+00</totfact>
</mgrwt>
</event>
<event>
 8    2  0.7237260E-052  0.1306395E+04  0.7818608E-02  0.9024509E-01
         -2   -1    0    0    0  501 -0.00000000000E+00  0.00000000000E+00  0.14954761403E+03  0.14954761405E+03  0.25500000000E-02 0. -1.
          2   -1    0    0  501    0  0.00000000000E+00 -0.00000000000E+00 -0.28530528911E+04  0.28530528911E+04  0.25500000000E-02 0.  1.
    -200001    2    1    2    0    0  0.69238338805E+02 -0.18938049865E+03 -0.15837754567E+04  0.17102295091E+04  0.61309163726E+03 0.  0.
   -5000001    2    3    3    0    0  0.73717136804E+02 -0.27603522266E+03 -0.15405137699E+04  0.15702235293E+04  0.10387298172E+03 0.  0.
     200001    1    1    2    0    0 -0.69238338805E+02  0.18938049865E+03 -0.11197298203E+04  0.12923709960E+04  0.61300000000E+03 0. -1.
         11    1    4    4    0    0  0.37456111108E+01 -0.17134492358E+03 -0.98748911105E+03  0.10022513941E+04  0.51100000000E-03 0.  1.
    -200002    1    4    4    0    0  0.69971525694E+02 -0.10469029908E+03 -0.55302465887E+03  0.56797213528E+03  0.30000000000E+02 0.  1.
    -200000    1    3    3    0    0 -0.44787979992E+01  0.86654724005E+02 -0.43261686772E+02  0.14000597975E+03  0.10100000000E+03 0. -1.
<mgrwt>
<rscale>  0 0.13063954E+04</rscale>
<asrwt>0</asrwt>
<pdfrwt beam="1">  1        2 0.40757895E+00 0.13063954E+04</pdfrwt>
<pdfrwt beam="2">  1       -2 0.21363947E-01 0.13063954E+04</pdfrwt>
<totfact> 0.53429607E+01</totfact>
</mgrwt>
</event>
<event>
 8    2  0.7237260E-052  0.1355169E+04  0.7818608E-02  0.8986925E-01
          2   -1    0    0  501    0  0.00000000000E+00  0.00000000000E+00  0.17086292720E+04  0.17086292720E+04  0.25500000000E-02 0.  1.
         -2   -1    0    0    0  501 -0.00000000000E+00 -0.00000000000E+00 -0.26870693462E+03  0.26870693463E+03  0.25500000000E-02 0. -1.
    -200001    2    1    2    0    0  0.16744866760E+03 -0.10772120882E+03  0.10280463378E+04  0.12124481402E+04  0.61115325818E+03 0.  0.
   -5000001    2    3    3    0    0  0.28584335168E+03 -0.22574021002E+02  0.18321828474E+03  0.34919685351E+03  0.78444212745E+02 0.  0.
     200001    1    1    2    0    0 -0.16744866760E+03  0.10772120882E+03  0.41187599965E+03  0.76488806645E+03  0.61300000000E+03 0. -1.
         11    1    4    4    0    0  0.61030585058E+01  0.11855618541E+02  0.43122949144E+01  0.14014239252E+02  0.51100000000E-03 0.  1.
    -200002    1    4    4    0    0  0.27974029317E+03 -0.34429639543E+02  0.17890598983E+03  0.33518261426E+03  0.30000000000E+02 0.  1.
    -200000    1    3    3    0    0 -0.11839468408E+03 -0.85147187823E+02  0.84482805301E+03  0.86325128669E+03  0.10100000000E+03 0.  1.
<mgrwt>
<rscale>  0 0.13551687E+04</rscale>
<asrwt>0</asrwt>
<pdfrwt beam="1">  1        2 0.24408990E+00 0.13551687E+04</pdfrwt>
<pdfrwt beam="2">  1       -2 0.38386705E-01 0.13551687E+04</pdfrwt>
<totfact> 0.71070408E+01</totfact>
</mgrwt>
</event>
<event>
 8    2  0.7237260E-052  0.2905951E+04  0.7818608E-02  0.8271109E-01
          2   -1    0    0  501    0  0.00000000000E+00  0.00000000000E+00  0.26268341290E+04  0.26268341290E+04  0.25500000000E-02 0.  1.
         -2   -1    0    0    0  501 -0.00000000000E+00 -0.00000000000E+00 -0.80368134660E+03  0.80368134660E+03  0.25500000000E-02 0. -1.
    -200001    2    1    2    0    0 -0.97568523547E+03 -0.52491764251E+02  0.19549355975E+04  0.22695448582E+04  0.61183626004E+03 0.  0.
   -5000001    2    3    3    0    0 -0.54364031729E+03 -0.20775717752E+03  0.15119677344E+04  0.16236410824E+04  0.10703315018E+03 0.  0.
     200001    1    1    2    0    0  0.97568523547E+03  0.52491764251E+02 -0.13178281512E+03  0.11609706174E+04  0.61300000000E+03 0. -1.
         11    1    4    4    0    0 -0.43883789859E+02  0.92403330628E+01  0.14550019463E+03  0.15225464658E+03  0.51100000000E-03 0.  1.
    -200002    1    4    4    0    0 -0.49975652743E+03 -0.21699751059E+03  0.13664675397E+04  0.14713864358E+04  0.30000000000E+02 0.  1.
    -200000    1    3    3    0    0 -0.43204491818E+03  0.15526541327E+03  0.44296786315E+03  0.64590377585E+03  0.10100000000E+03 0. -1.
<mgrwt>
<rscale>  0 0.29059509E+04</rscale>
<asrwt>0</asrwt>
<pdfrwt beam="1">  1        2 0.37526201E+00 0.29059509E+04</pdfrwt>
<pdfrwt beam="2">  1       -2 0.11481162E+00 0.29059509E+04</pdfrwt>
<totfact> 0.19409880E+00</totfact>
</mgrwt>
</event>
<event>
 8    2  0.7237260E-052  0.2722488E+04  0.7818608E-02  0.8327745E-01
         -2   -1    0    0    0  501 -0.00000000000E+00  0.00000000000E+00  0.12895675004E+04  0.12895675004E+04  0.25500000000E-02 0. -1.
          2   -1    0    0  501    0  0.00000000000E+00 -0.00000000000E+00 -0.14369043599E+04  0.14369043599E+04  0.25500000000E-02 0.  1.
    -200001    2    1    2    0    0 -0.67714210313E+03 -0.99911929740E+03 -0.21758406100E+03  0.13709407956E+04  0.61267858060E+03 0.  0.
   -5000001    2    3    3    0    0 -0.61379613146E+03 -0.39584449049E+03 -0.16615703658E+03  0.75385170670E+03  0.85121579158E+02 0.  0.
     200001    1    1    2    0    0  0.67714210313E+03  0.99911929740E+03  0.70247201510E+02  0.13555310648E+04  0.61300000000E+03 0. -1.
         11    1    4    4    0    0 -0.21868729171E+03 -0.12580149371E+03 -0.92502646232E+02  0.26871339180E+03  0.51100000000E-03 0.  1.
    -200002    1    4    4    0    0 -0.39510883976E+03 -0.27004299679E+03 -0.73654390351E+02  0.48513831490E+03  0.30000000000E+02 0.  1.
    -200000    1    3    3    0    0 -0.63345971666E+02 -0.60327480691E+03 -0.51427024421E+02  0.61708908888E+03  0.10100000000E+03 0.  1.
<mgrwt>
<rscale>  0 0.27224880E+04</rscale>
<asrwt>0</asrwt>
<pdfrwt beam="1">  1        2 0.20527205E+00 0.27224880E+04</pdfrwt>
<pdfrwt beam="2">  1       -2 0.18422393E+00 0.27224880E+04</pdfrwt>
<totfact> 0.23629800E+00</totfact>
</mgrwt>
</event>
<event>
 8    2  0.7237260E-052  0.2167029E+04  0.7818608E-02  0.8532278E-01
          2   -1    0    0  501    0  0.00000000000E+00  0.00000000000E+00  0.34568795250E+04  0.34568795250E+04  0.25500000000E-02 0.  1.
         -2   -1    0    0    0  501 -0.00000000000E+00 -0.00000000000E+00 -0.33961356068E+03  0.33961356069E+03  0.25500000000E-02 0. -1.
    -200001    2    1    2    0    0 -0.45428205177E+03 -0.61243174246E+03  0.23743341369E+04  0.25680137322E+04  0.61301477429E+03 0.  0.
   -5000001    2    3    3    0    0 -0.21505135978E+03 -0.66846007237E+03  0.18350415743E+04  0.19668415724E+04  0.89455215457E+02 0.  0.
     200001    1    1    2    0    0  0.45428205177E+03  0.61243174246E+03  0.74293182746E+03  0.12284793535E+04  0.61300000000E+03 0. -1.
         11    1    4    4    0    0 -0.15974662008E+03 -0.52800720623E+03  0.13653972842E+04  0.14726236234E+04  0.51100000000E-03 0.  1.
    -200002    1    4    4    0    0 -0.55304739707E+02 -0.14045286614E+03  0.46964429015E+03  0.49421794900E+03  0.30000000000E+02 0.  1.
    -200000    1    3    3    0    0 -0.23923069199E+03  0.56028329906E+02  0.53929256254E+03  0.60117215983E+03  0.10100000000E+03 0.  1.
<mgrwt>
<rscale>  0 0.21670285E+04</rscale>
<asrwt>0</asrwt>
<pdfrwt beam="1">  1        2 0.49383990E+00 0.21670285E+04</pdfrwt>
<pdfrwt beam="2">  1       -2 0.48516226E-01 0.21670285E+04</pdfrwt>
<totfact> 0.47382077E+00</totfact>
</mgrwt>
</event>
<event>
 8    2  0.7237260E-052  0.1507253E+04  0.7818608E-02  0.8879644E-01
         -2   -1    0    0    0  501 -0.00000000000E+00  0.00000000000E+00  0.43656160354E+03  0.43656160355E+03  0.25500000000E-02 0. -1.
          2   -1    0    0  501    0  0.00000000000E+00 -0.00000000000E+00 -0.13009679129E+04  0.13009679129E+04  0.25500000000E-02 0.  1.
    -200001    2    1    2    0    0 -0.18626562805E+03  0.38723572987E+03 -0.53784385796E+03  0.92079306609E+03  0.61150426027E+03 0.  0.
   -5000001    2    3    3    0    0 -0.12646890458E+03  0.84702164610E+02  0.90799699801E+02  0.21333569708E+03  0.11873792001E+03 0.  0.
     200001    1    1    2    0    0  0.18626562805E+03 -0.38723572987E+03 -0.32656245138E+03  0.81673645035E+03  0.61300000000E+03 0. -1.
         11    1    4    4    0    0 -0.10225090600E+03  0.10146544972E+02  0.22654491092E+02  0.10522084451E+03  0.51100000000E-03 0.  1.
    -200002    1    4    4    0    0 -0.24217998578E+02  0.74555619638E+02  0.68145208710E+02  0.10811485256E+03  0.30000000000E+02 0.  1.
    -200000    1    3    3    0    0 -0.59796723473E+02  0.30253356526E+03 -0.62864355777E+03  0.70745736901E+03  0.10100000000E+03 0.  1.
<mgrwt>
<rscale>  0 0.15072527E+04</rscale>
<asrwt>0</asrwt>
<pdfrwt beam="1">  1        2 0.18585256E+00 0.15072527E+04</pdfrwt>
<pdfrwt beam="2">  1       -2 0.62365944E-01 0.15072527E+04</pdfrwt>
<totfact> 0.43265206E+01</totfact>
</mgrwt>
</event>
<event>
 8    2  0.7237260E-052  0.2190706E+04  0.7818608E-02  0.8522307E-01
         -2   -1    0    0    0  501 -0.00000000000E+00  0.00000000000E+00  0.99426484698E+03  0.99426484698E+03  0.25500000000E-02 0. -1.
          2   -1    0    0  501    0  0.00000000000E+00 -0.00000000000E+00 -0.12067187285E+04  0.12067187285E+04  0.25500000000E-02 0.  1.
    -200001    2    1    2    0    0 -0.65932283252E+03 -0.57788459340E+03  0.12973501830E+03  0.10778097493E+04  0.61333961221E+03 0.  0.
   -5000001    2    3    3    0    0 -0.70017644008E+02 -0.28344353536E+03  0.25994703070E+03  0.39874251400E+03  0.78615682214E+02 0.  0.
     200001    1    1    2    0    0  0.65932283252E+03  0.57788459340E+03 -0.34218889986E+03  0.11231738262E+04  0.61300000000E+03 0.  1.
         11    1    4    4    0    0 -0.25713151403E+01 -0.24940094717E+01 -0.46115513338E+01  0.58393621879E+01  0.51100000000E-03 0.  1.
    -200002    1    4    4    0    0 -0.67446328867E+02 -0.28094952589E+03  0.26455858203E+03  0.39290315181E+03  0.30000000000E+02 0.  1.
    -200000    1    3    3    0    0 -0.58930518851E+03 -0.29444105804E+03 -0.13021201240E+03  0.67906723528E+03  0.10100000000E+03 0. -1.
<mgrwt>
<rscale>  0 0.21907058E+04</rscale>
<asrwt>0</asrwt>
<pdfrwt beam="1">  1        2 0.17238839E+00 0.21907058E+04</pdfrwt>
<pdfrwt beam="2">  1       -2 0.14203784E+00 0.21907058E+04</pdfrwt>
<totfact> 0.67343725E+00</totfact>
</mgrwt>
</event>
<event>
 8    2  0.7237260E-052  0.1857048E+04  0.7818608E-02  0.8676537E-01
          2   -1    0    0  501    0  0.00000000000E+00  0.00000000000E+00  0.94837668869E+03  0.94837668870E+03  0.25500000000E-02 0. -1.
         -2   -1    0    0    0  501 -0.00000000000E+00 -0.00000000000E+00 -0.90908704444E+03  0.90908704445E+03  0.25500000000E-02 0.  1.
    -200001    2    1    2    0    0 -0.19538816107E+03  0.22161640627E+03 -0.61251492588E+03  0.91517473148E+03  0.61243766189E+03 0.  0.
   -5000001    2    3    3    0    0 -0.16321718138E+02  0.31160535182E+02 -0.60957222197E+03  0.63491076783E+03  0.17405749586E+03 0.  0.
     200001    1    1    2    0    0  0.19538816107E+03 -0.22161640627E+03  0.65180457013E+03  0.94228900166E+03  0.61300000000E+03 0. -1.
         11    1    4    4    0    0 -0.60305756285E+02 -0.45155129741E+02 -0.17567289677E+03  0.19114585175E+03  0.51100000000E-03 0.  1.
    -200002    1    4    4    0    0  0.43984038147E+02  0.76315664923E+02 -0.43389932521E+03  0.44376491608E+03  0.30000000000E+02 0.  1.
    -200000    1    3    3    0    0 -0.17906644293E+03  0.19045587108E+03 -0.29427039051E+01  0.28026396365E+03  0.10100000000E+03 0.  1.
<mgrwt>
<rscale>  0 0.18570482E+04</rscale>
<asrwt>0</asrwt>
<pdfrwt beam="1">  1        2 0.13548238E+00 0.18570482E+04</pdfrwt>
<pdfrwt beam="2">  1       -2 0.12986958E+00 0.18570482E+04</pdfrwt>
<totfact> 0.12423704E+01</totfact>
</mgrwt>
</event>
<event>
 8    2  0.7237260E-052  0.1282341E+04  0.7818608E-02  0.9043688E-01
          2   -1    0    0  501    0  0.00000000000E+00  0.00000000000E+00  0.11342909155E+04  0.11342909155E+04  0.25500000000E-02 0. -1.
         -2   -1    0    0    0  501 -0.00000000000E+00 -0.00000000000E+00 -0.36242853441E+03  0.36242853441E+03  0.25500000000E-02 0.  1.
    -200001    2    1    2    0    0 -0.56975061993E+02  0.93123784857E+02  0.20597238028E+03  0.65534040929E+03  0.61247712905E+03 0.  0.
   -5000001    2    3    3    0    0  0.39789124834E+02  0.18184737800E+03 -0.13194515545E+03  0.27901017560E+03  0.16057867450E+03 0.  0.
     200001    1    1    2    0    0  0.56975061993E+02 -0.93123784857E+02  0.56589000083E+03  0.84137904064E+03  0.61300000000E+03 0. -1.
         11    1    4    4    0    0  0.67880703271E+02  0.13243185117E+02 -0.58435703474E+02  0.90542273383E+02  0.51100000000E-03 0.  1.
    -200002    1    4    4    0    0 -0.28091578438E+02  0.16860419289E+03 -0.73509451974E+02  0.18846790222E+03  0.30000000000E+02 0.  1.
    -200000    1    3    3    0    0 -0.96764186827E+02 -0.88723593146E+02  0.33791753573E+03  0.37633023368E+03  0.10100000000E+03 0.  1.
<mgrwt>
<rscale>  0 0.12823407E+04</rscale>
<asrwt>0</asrwt>
<pdfrwt beam="1">  1        2 0.16204156E+00 0.12823407E+04</pdfrwt>
<pdfrwt beam="2">  1       -2 0.51775505E-01 0.12823407E+04</pdfrwt>
<totfact> 0.80669261E+01</totfact>
</mgrwt>
</event>
<event>
 8    2  0.7237260E-052  0.1485484E+04  0.7818608E-02  0.8894164E-01
         -2   -1    0    0    0  501 -0.00000000000E+00  0.00000000000E+00  0.73599925205E+03  0.73599925205E+03  0.25500000000E-02 0. -1.
          2   -1    0    0  501    0  0.00000000000E+00 -0.00000000000E+00 -0.74954613503E+03  0.74954613504E+03  0.25500000000E-02 0.  1.
    -200001    2    1    2    0    0  0.12095379870E+03 -0.16475633145E+03  0.35920999998E+03  0.73956203341E+03  0.61330718813E+03 0.  0.
   -5000001    2    3    3    0    0 -0.37612875184E+02  0.20384800150E+03  0.63580491725E+02  0.23102457119E+03  0.79756739344E+02 0.  0.
     200001    1    1    2    0    0 -0.12095379870E+03  0.16475633145E+03 -0.37275688296E+03  0.74598335368E+03  0.61300000000E+03 0.  1.
         11    1    4    4    0    0 -0.67537592800E+01 -0.39828511920E+01 -0.32842864790E+01  0.85007591407E+01  0.51100000000E-03 0.  1.
    -200002    1    4    4    0    0 -0.30859115904E+02  0.20783085269E+03  0.66864778204E+02  0.22252381205E+03  0.30000000000E+02 0.  1.
    -200000    1    3    3    0    0  0.15856667388E+03 -0.36860433295E+03  0.29562950825E+03  0.50853746222E+03  0.10100000000E+03 0.  1.
<mgrwt>
<rscale>  0 0.14854836E+04</rscale>
<asrwt>0</asrwt>
<pdfrwt beam="1">  1        2 0.10707802E+00 0.14854836E+04</pdfrwt>
<pdfrwt beam="2">  1       -2 0.10514275E+00 0.14854836E+04</pdfrwt>
<totfact> 0.29341072E+01</totfact>
</mgrwt>
</event>
<event>
 8    2  0.7237260E-052  0.1719785E+04  0.7818608E-02  0.8750160E-01
          2   -1    0    0  501    0  0.00000000000E+00  0.00000000000E+00  0.28355609518E+04  0.28355609518E+04  0.25500000000E-02 0.  1.
         -2   -1    0    0    0  501 -0.00000000000E+00 -0.00000000000E+00 -0.26076516187E+03  0.26076516188E+03  0.25500000000E-02 0. -1.
    -200001    2    1    2    0    0 -0.12870970195E+03  0.40667925002E+03  0.52100052805E+03  0.91096614849E+03  0.61356627489E+03 0.  0.
   -5000001    2    3    3    0    0 -0.64425054208E+02 -0.83148525731E+02  0.35775436122E+03  0.38095286864E+03  0.77927146828E+02 0.  0.
     200001    1    1    2    0    0  0.12870970195E+03 -0.40667925002E+03  0.20537952619E+04  0.21853599652E+04  0.61300000000E+03 0.  1.
         11    1    4    4    0    0 -0.22799887022E+02 -0.62357622268E+02  0.26261672719E+03  0.27087977647E+03  0.51100000000E-03 0.  1.
    -200002    1    4    4    0    0 -0.41625167186E+02 -0.20790903462E+02  0.95137634032E+02  0.11007309217E+03  0.30000000000E+02 0.  1.
    -200000    1    3    3    0    0 -0.64284647744E+02  0.48982777575E+03  0.16324616684E+03  0.53001327985E+03  0.10100000000E+03 0. -1.
<mgrwt>
<rscale>  0 0.17197855E+04</rscale>
<asrwt>0</asrwt>
<pdfrwt beam="1">  1        2 0.40508015E+00 0.17197855E+04</pdfrwt>
<pdfrwt beam="2">  1       -2 0.37252165E-01 0.17197855E+04</pdfrwt>
<totfact> 0.18862258E+01</totfact>
</mgrwt>
</event>
<event>
 8    2  0.7237260E-052  0.1395952E+04  0.7818608E-02  0.8956754E-01
         -2   -1    0    0    0  501 -0.00000000000E+00  0.00000000000E+00  0.74790493774E+03  0.74790493774E+03  0.25500000000E-02 0. -1.
          2   -1    0    0  501    0  0.00000000000E+00 -0.00000000000E+00 -0.65137995255E+03  0.65137995256E+03  0.25500000000E-02 0.  1.
    -200001    2    1    2    0    0  0.13368534606E+03  0.26311736136E+03 -0.11807725224E+03  0.68589464793E+03  0.60778837843E+03 0.  0.
   -5000001    2    3    3    0    0  0.28222617175E+03  0.30561066009E+03  0.61844752982E+02  0.42812927924E+03  0.80127515180E+02 0.  0.
     200001    1    1    2    0    0 -0.13368534606E+03 -0.26311736136E+03  0.21460223742E+03  0.71339024237E+03  0.61300000000E+03 0.  1.
         11    1    4    4    0    0  0.27770215921E+02  0.34369026182E+02 -0.15962908389E+02  0.46981158963E+02  0.51100000000E-03 0.  1.
    -200002    1    4    4    0    0  0.25445595583E+03  0.27124163391E+03  0.77807661372E+02  0.38114812028E+03  0.30000000000E+02 0.  1.
    -200000    1    3    3    0    0 -0.14854082569E+03 -0.42493298729E+02 -0.17992200522E+03  0.25776536869E+03  0.10100000000E+03 0.  1.
<mgrwt>
<rscale>  0 0.13959517E+04</rscale>
<asrwt>0</asrwt>
<pdfrwt beam="1">  1        2 0.93054280E-01 0.13959517E+04</pdfrwt>
<pdfrwt beam="2">  1       -2 0.10684356E+00 0.13959517E+04</pdfrwt>
<totfact> 0.33799345E+01</totfact>
</mgrwt>
</event>
<event>
 8    2  0.7237260E-052  0.1339891E+04  0.7818608E-02  0.8998516E-01
          2   -1    0    0  501    0  0.00000000000E+00  0.00000000000E+00  0.10784329007E+04  0.10784329007E+04  0.25500000000E-02 0.  1.
         -2   -1    0    0    0  501 -0.00000000000E+00 -0.00000000000E+00 -0.41618451000E+03  0.41618451001E+03  0.25500000000E-02 0. -1.
    -200001    2    1    2    0    0 -0.24729486070E+02 -0.26747641678E+03  0.31219285573E+03  0.73932736139E+03  0.61399135753E+03 0.  0.
   -5000001    2    3    3    0    0 -0.26148195123E+03 -0.28828925057E+03  0.26461061275E+03  0.47674409144E+03  0.76043734348E+02 0.  0.
     200001    1    1    2    0    0  0.24729486070E+02  0.26747641678E+03  0.35005553495E+03  0.75529004929E+03  0.61300000000E+03 0. -1.
         11    1    4    4    0    0 -0.72470615738E+02 -0.90637511681E+02  0.44048828700E+02  0.12412674160E+03  0.51100000000E-03 0.  1.
    -200002    1    4    4    0    0 -0.18901133549E+03 -0.19765173889E+03  0.22056178405E+03  0.35261734985E+03  0.30000000000E+02 0. -1.
    -200000    1    3    3    0    0  0.23675246516E+03  0.20812833785E+02  0.47582242978E+02  0.26258326995E+03  0.10100000000E+03 0.  1.
<mgrwt>
<rscale>  0 0.13398911E+04</rscale>
<asrwt>0</asrwt>
<pdfrwt beam="1">  1        2 0.15406184E+00 0.13398911E+04</pdfrwt>
<pdfrwt beam="2">  1       -2 0.59454930E-01 0.13398911E+04</pdfrwt>
<totfact> 0.65013343E+01</totfact>
</mgrwt>
</event>
<event>
 8    2  0.7237260E-052  0.2307356E+04  0.7818608E-02  0.8475027E-01
         -2   -1    0    0    0  501 -0.00000000000E+00  0.00000000000E+00  0.92008120140E+03  0.92008120141E+03  0.25500000000E-02 0. -1.
          2   -1    0    0  501    0  0.00000000000E+00 -0.00000000000E+00 -0.14465815003E+04  0.14465815003E+04  0.25500000000E-02 0.  1.
    -200001    2    1    2    0    0 -0.66065268589E+02 -0.16541003707E+03 -0.12489364922E+04  0.14026045326E+04  0.61296983070E+03 0.  0.
   -5000001    2    3    3    0    0  0.24561426786E+03 -0.38921063807E+02 -0.36082195943E+03  0.44756944579E+03  0.91020352727E+02 0.  0.
     200001    1    1    2    0    0  0.66065268589E+02  0.16541003707E+03  0.72243619327E+03  0.96405816911E+03  0.61300000000E+03 0. -1.
         11    1    4    4    0    0  0.15214920119E+02  0.94234071085E+01 -0.69759616723E+02  0.72018737293E+02  0.51100000000E-03 0.  1.
    -200002    1    4    4    0    0  0.23039934774E+03 -0.48344470916E+02 -0.29106234271E+03  0.37555070849E+03  0.30000000000E+02 0.  1.
    -200000    1    3    3    0    0 -0.31167953645E+03 -0.12648897327E+03 -0.88811453276E+03  0.95503508684E+03  0.10100000000E+03 0.  1.
<mgrwt>
<rscale>  0 0.23073556E+04</rscale>
<asrwt>0</asrwt>
<pdfrwt beam="1">  1        2 0.20665450E+00 0.23073556E+04</pdfrwt>
<pdfrwt beam="2">  1       -2 0.13144017E+00 0.23073556E+04</pdfrwt>
<totfact> 0.60073749E+00</totfact>
</mgrwt>
</event>
<event>
 8    2  0.7237260E-052  0.1488170E+04  0.7818608E-02  0.8892358E-01
          2   -1    0    0  501    0  0.00000000000E+00  0.00000000000E+00  0.16868383081E+04  0.16868383081E+04  0.25500000000E-02 0.  1.
         -2   -1    0    0    0  501 -0.00000000000E+00 -0.00000000000E+00 -0.32822484419E+03  0.32822484420E+03  0.25500000000E-02 0. -1.
    -200001    2    1    2    0    0 -0.82971843095E+02  0.19507339170E+03  0.18619945601E+03  0.67518944153E+03  0.61341062074E+03 0.  0.
   -5000001    2    3    3    0    0 -0.18006324548E+03  0.24484110810E+02 -0.15967044002E+03  0.26487928061E+03  0.10790801558E+03 0.  0.
     200001    1    1    2    0    0  0.82971843095E+02 -0.19507339170E+03  0.11724140079E+04  0.13398737108E+04  0.61300000000E+03 0.  1.
         11    1    4    4    0    0 -0.17819901858E+03  0.14035629987E+02 -0.14326033055E+03  0.22907512183E+03  0.51100000000E-03 0.  1.
    -200002    1    4    4    0    0 -0.18642269008E+01  0.10448480823E+02 -0.16410109473E+02  0.35804158786E+02  0.30000000000E+02 0.  1.
    -200000    1    3    3    0    0  0.97091402384E+02  0.17058928089E+03  0.34586989603E+03  0.41031016091E+03  0.10100000000E+03 0.  1.
<mgrwt>
<rscale>  0 0.14881697E+04</rscale>
<asrwt>0</asrwt>
<pdfrwt beam="1">  1        2 0.24097690E+00 0.14881697E+04</pdfrwt>
<pdfrwt beam="2">  1       -2 0.46889263E-01 0.14881697E+04</pdfrwt>
<totfact> 0.48643540E+01</totfact>
</mgrwt>
</event>
<event>
 8    2  0.7237260E-052  0.1282494E+04  0.7818608E-02  0.9043564E-01
          2   -1    0    0  501    0  0.00000000000E+00  0.00000000000E+00  0.15506450795E+04  0.15506450795E+04  0.25500000000E-02 0.  1.
         -2   -1    0    0    0  501 -0.00000000000E+00 -0.00000000000E+00 -0.26517830016E+03  0.26517830017E+03  0.25500000000E-02 0. -1.
    -200001    2    1    2    0    0 -0.37700245288E+02 -0.91683551794E+02  0.41359770685E+03  0.74542538746E+03  0.61218360235E+03 0.  0.
   -5000001    2    3    3    0    0  0.17351036353E+02  0.11330333170E+03  0.45020876345E+03  0.50753542239E+03  0.20436626642E+03 0.  0.
     200001    1    1    2    0    0  0.37700245288E+02  0.91683551794E+02  0.87186907244E+03  0.10703979922E+04  0.61300000000E+03 0.  1.
         11    1    4    4    0    0 -0.45600861039E+01  0.78614037489E+02  0.30005310858E+02  0.84269092529E+02  0.51100000000E-03 0.  1.
    -200002    1    4    4    0    0  0.21911122457E+02  0.34689294211E+02  0.42020345260E+03  0.42326632986E+03  0.30000000000E+02 0. -1.
    -200000    1    3    3    0    0 -0.55051281642E+02 -0.20498688349E+03 -0.36611056605E+02  0.23788996507E+03  0.10100000000E+03 0. -1.
<mgrwt>
<rscale>  0 0.12824935E+04</rscale>
<asrwt>0</asrwt>
<pdfrwt beam="1">  1        2 0.22152072E+00 0.12824935E+04</pdfrwt>
<pdfrwt beam="2">  1       -2 0.37882615E-01 0.12824935E+04</pdfrwt>
<totfact> 0.88653346E+01</totfact>
</mgrwt>
</event>
<event>
 8    2  0.7237260E-052  0.1247219E+04  0.7818608E-02  0.9072501E-01
          2   -1    0    0  501    0  0.00000000000E+00  0.00000000000E+00  0.21121920634E+03  0.21121920635E+03  0.25500000000E-02 0.  1.
         -2   -1    0    0    0  501 -0.00000000000E+00 -0.00000000000E+00 -0.18411627738E+04  0.18411627738E+04  0.25500000000E-02 0. -1.
    -200001    2    1    2    0    0 -0.79824138608E+02 -0.64492152692E+00 -0.94906083390E+03  0.11327393289E+04  0.61319622625E+03 0.  0.
   -5000001    2    3    3    0    0  0.69444713010E+02  0.21969780714E+03 -0.15925935915E+03  0.29320405413E+03  0.86691287090E+02 0.  0.
     200001    1    1    2    0    0  0.79824138608E+02  0.64492152692E+00 -0.68088273353E+03  0.91964265117E+03  0.61300000000E+03 0. -1.
         11    1    4    4    0    0  0.41689074036E+02  0.49957610550E+02 -0.75164054020E+02  0.99415173705E+02  0.51100000000E-03 0.  1.
    -200002    1    4    4    0    0  0.27755638974E+02  0.16974019659E+03 -0.84095305126E+02  0.19378888043E+03  0.30000000000E+02 0.  1.
    -200000    1    3    3    0    0 -0.14926885162E+03 -0.22034272867E+03 -0.78980147475E+03  0.83953527481E+03  0.10100000000E+03 0. -1.
<mgrwt>
<rscale>  0 0.12472192E+04</rscale>
<asrwt>0</asrwt>
<pdfrwt beam="1">  1        2 0.30174173E-01 0.12472192E+04</pdfrwt>
<pdfrwt beam="2">  1       -2 0.26302324E+00 0.12472192E+04</pdfrwt>
<totfact> 0.93495653E+00</totfact>
</mgrwt>
</event>
<event>
 8    2  0.7237260E-052  0.1293301E+04  0.7818608E-02  0.9034895E-01
         -2   -1    0    0    0  501 -0.00000000000E+00  0.00000000000E+00  0.76132728984E+03  0.76132728984E+03  0.25500000000E-02 0. -1.
          2   -1    0    0  501    0  0.00000000000E+00 -0.00000000000E+00 -0.54924708775E+03  0.54924708776E+03  0.25500000000E-02 0.  1.
    -200001    2    1    2    0    0  0.19117753473E+03  0.55900429415E+02  0.59645741326E+02  0.64824592991E+03  0.61399630568E+03 0.  0.
   -5000001    2    3    3    0    0  0.35734330022E+03 -0.69551709622E+02 -0.51637855858E+02  0.39146910110E+03  0.13434996998E+03 0.  0.
     200001    1    1    2    0    0 -0.19117753473E+03 -0.55900429415E+02  0.15243446076E+03  0.66232844769E+03  0.61300000000E+03 0. -1.
         11    1    4    4    0    0  0.43721117179E+02 -0.45207864514E+02  0.22678084417E+02  0.66854937098E+02  0.51100000000E-03 0.  1.
    -200002    1    4    4    0    0  0.31362218304E+03 -0.24343845107E+02 -0.74315940275E+02  0.32461416400E+03  0.30000000000E+02 0.  1.
    -200000    1    3    3    0    0 -0.16616576549E+03  0.12545213904E+03  0.11128359718E+03  0.25677682881E+03  0.10100000000E+03 0. -1.
<mgrwt>
<rscale>  0 0.12933009E+04</rscale>
<asrwt>0</asrwt>
<pdfrwt beam="1">  1        2 0.78463870E-01 0.12933009E+04</pdfrwt>
<pdfrwt beam="2">  1       -2 0.10876104E+00 0.12933009E+04</pdfrwt>
<totfact> 0.39931981E+01</totfact>
</mgrwt>
</event>
<event>
 8    2  0.7237260E-052  0.1473827E+04  0.7818608E-02  0.8902046E-01
         -2   -1    0    0    0  501 -0.00000000000E+00  0.00000000000E+00  0.18760384748E+03  0.18760384749E+03  0.25500000000E-02 0. -1.
          2   -1    0    0  501    0  0.00000000000E+00 -0.00000000000E+00 -0.28946198984E+04  0.28946198984E+04  0.25500000000E-02 0.  1.
    -200001    2    1    2    0    0 -0.28552344137E+03  0.85058652785E+02 -0.19388134332E+04  0.20552559412E+04  0.61344995326E+03 0.  0.
   -5000001    2    3    3    0    0 -0.26001495571E+03 -0.14693747199E+03 -0.45124287911E+03  0.54610384876E+03  0.73558682811E+02 0.  0.
     200001    1    1    2    0    0  0.28552344137E+03 -0.85058652785E+02 -0.76820261774E+03  0.10269678047E+04  0.61300000000E+03 0. -1.
         11    1    4    4    0    0 -0.10690332467E+03 -0.27091294431E+02 -0.17818816047E+03  0.20955495602E+03  0.51100000000E-03 0.  1.
    -200002    1    4    4    0    0 -0.15311163103E+03 -0.11984617756E+03 -0.27305471864E+03  0.33654889274E+03  0.30000000000E+02 0. -1.
    -200000    1    3    3    0    0 -0.25508485667E+02  0.23199612478E+03 -0.14875705541E+04  0.15091520925E+04  0.10100000000E+03 0.  1.
<mgrwt>
<rscale>  0 0.14738274E+04</rscale>
<asrwt>0</asrwt>
<pdfrwt beam="1">  1        2 0.41351710E+00 0.14738274E+04</pdfrwt>
<pdfrwt beam="2">  1       -2 0.26800551E-01 0.14738274E+04</pdfrwt>
<totfact> 0.33215908E+01</totfact>
</mgrwt>
</event>
<event>
 8    2  0.7237260E-052  0.1428406E+04  0.7818608E-02  0.8933510E-01
         -2   -1    0    0    0  501 -0.00000000000E+00  0.00000000000E+00  0.31438902689E+03  0.31438902690E+03  0.25500000000E-02 0. -1.
          2   -1    0    0  501    0  0.00000000000E+00 -0.00000000000E+00 -0.16224667419E+04  0.16224667419E+04  0.25500000000E-02 0.  1.
    -200001    2    1    2    0    0  0.25929154380E+03  0.13942855752E+03 -0.35892283195E+03  0.76923578809E+03  0.61337237551E+03 0.  0.
   -5000001    2    3    3    0    0  0.37863403931E+02  0.34137843225E+03 -0.25420619713E+03  0.43609805886E+03  0.87108294208E+02 0.  0.
     200001    1    1    2    0    0 -0.25929154380E+03 -0.13942855752E+03 -0.94915488308E+03  0.11676199807E+04  0.61300000000E+03 0.  1.
         11    1    4    4    0    0  0.16812134910E+02  0.20834766068E+03 -0.10881991625E+03  0.23565476818E+03  0.51100000000E-03 0.  1.
    -200002    1    4    4    0    0  0.21051269021E+02  0.13303077156E+03 -0.14538628088E+03  0.20044329068E+03  0.30000000000E+02 0.  1.
    -200000    1    3    3    0    0  0.22142813987E+03 -0.20194987473E+03 -0.10471663481E+03  0.33313772923E+03  0.10100000000E+03 0.  1.
<mgrwt>
<rscale>  0 0.14284057E+04</rscale>
<asrwt>0</asrwt>
<pdfrwt beam="1">  1        2 0.23178096E+00 0.14284057E+04</pdfrwt>
<pdfrwt beam="2">  1       -2 0.44912719E-01 0.14284057E+04</pdfrwt>
<totfact> 0.57553029E+01</totfact>
</mgrwt>
</event>
<event>
 8    2  0.7237260E-052  0.1614534E+04  0.7818608E-02  0.8811669E-01
          2   -1    0    0  501    0  0.00000000000E+00  0.00000000000E+00  0.38465490231E+04  0.38465490231E+04  0.25500000000E-02 0.  1.
         -2   -1    0    0    0  501 -0.00000000000E+00 -0.00000000000E+00 -0.16941933242E+03  0.16941933244E+03  0.25500000000E-02 0. -1.
    -200001    2    1    2    0    0 -0.35805907594E+03 -0.13796546707E+03  0.94371274617E+03  0.11884998828E+04  0.61212535652E+03 0.  0.
   -5000001    2    3    3    0    0 -0.23083785474E+03 -0.26568899978E+03  0.22300837873E+03  0.43875704341E+03  0.13747089283E+03 0.  0.
     200001    1    1    2    0    0  0.35805907594E+03  0.13796546707E+03  0.27334169445E+04  0.28274684727E+04  0.61300000000E+03 0.  1.
         11    1    4    4    0    0 -0.10636082351E+03 -0.46445304746E+02  0.11323541413E+03  0.16214823503E+03  0.51100000000E-03 0.  1.
    -200002    1    4    4    0    0 -0.12447703122E+03 -0.21924369503E+03  0.10977296460E+03  0.27660880837E+03  0.30000000000E+02 0.  1.
    -200000    1    3    3    0    0 -0.12722122121E+03  0.12772353270E+03  0.72070436744E+03  0.74974283936E+03  0.10100000000E+03 0. -1.
<mgrwt>
<rscale>  0 0.16145337E+04</rscale>
<asrwt>0</asrwt>
<pdfrwt beam="1">  1        2 0.54950705E+00 0.16145337E+04</pdfrwt>
<pdfrwt beam="2">  1       -2 0.24202760E-01 0.16145337E+04</pdfrwt>
<totfact> 0.10689867E+01</totfact>
</mgrwt>
</event>
<event>
 8    2  0.7237260E-052  0.1298029E+04  0.7818608E-02  0.9031130E-01
         -2   -1    0    0    0  501 -0.00000000000E+00  0.00000000000E+00  0.62567659187E+03  0.62567659187E+03  0.25500000000E-02 0. -1.
          2   -1    0    0  501    0  0.00000000000E+00 -0.00000000000E+00 -0.67322242073E+03  0.67322242073E+03  0.25500000000E-02 0.  1.
    -200001    2    1    2    0    0  0.12328560360E+03  0.17318388873E+03 -0.26367849060E+02  0.64973839596E+03  0.61341072728E+03 0.  0.
   -5000001    2    3    3    0    0  0.12212120024E+03  0.37857535323E+03 -0.46488340203E+02  0.41997146255E+03  0.12641984795E+03 0.  0.
     200001    1    1    2    0    0 -0.12328560360E+03 -0.17318388873E+03 -0.21177979801E+02  0.64916061664E+03  0.61300000000E+03 0. -1.
         11    1    4    4    0    0  0.25098890592E+02  0.19187510528E+03  0.26367217086E+02  0.19529782506E+03  0.51100000000E-03 0.  1.
    -200002    1    4    4    0    0  0.97022309648E+02  0.18670024795E+03 -0.72855557289E+02  0.22467363749E+03  0.30000000000E+02 0.  1.
    -200000    1    3    3    0    0  0.11644033626E+01 -0.20539146450E+03  0.20120491143E+02  0.22976693341E+03  0.10100000000E+03 0.  1.
<mgrwt>
<rscale>  0 0.12980285E+04</rscale>
<asrwt>0</asrwt>
<pdfrwt beam="1">  1        2 0.96174631E-01 0.12980285E+04</pdfrwt>
<pdfrwt beam="2">  1       -2 0.89382370E-01 0.12980285E+04</pdfrwt>
<totfact> 0.49788172E+01</totfact>
</mgrwt>
</event>
<event>
 8    2  0.7237260E-052  0.1533211E+04  0.7818608E-02  0.8862664E-01
         -2   -1    0    0    0  501 -0.00000000000E+00  0.00000000000E+00  0.66478158967E+03  0.66478158967E+03  0.25500000000E-02 0. -1.
          2   -1    0    0  501    0  0.00000000000E+00 -0.00000000000E+00 -0.88402518803E+03  0.88402518803E+03  0.25500000000E-02 0.  1.
    -200001    2    1    2    0    0  0.11185808456E+03  0.34805831970E+03 -0.39164569909E+03  0.81453958565E+03  0.61354018449E+03 0.  0.
   -5000001    2    3    3    0    0  0.18883121077E+03  0.48408106912E+03 -0.29287743189E+03  0.60386632887E+03  0.94263701313E+02 0.  0.
     200001    1    1    2    0    0 -0.11185808456E+03 -0.34805831970E+03  0.17240210072E+03  0.73426719205E+03  0.61300000000E+03 0. -1.
         11    1    4    4    0    0  0.17543973219E+02  0.55650150523E+02 -0.68314613848E+02  0.89842176704E+02  0.51100000000E-03 0.  1.
    -200002    1    4    4    0    0  0.17128723755E+03  0.42843091859E+03 -0.22456281805E+03  0.51402415216E+03  0.30000000000E+02 0.  1.
    -200000    1    3    3    0    0 -0.76973126216E+02 -0.13602274942E+03 -0.98768267190E+02  0.21067325678E+03  0.10100000000E+03 0. -1.
<mgrwt>
<rscale>  0 0.15332106E+04</rscale>
<asrwt>0</asrwt>
<pdfrwt beam="1">  1        2 0.12628931E+00 0.15332106E+04</pdfrwt>
<pdfrwt beam="2">  1       -2 0.94968799E-01 0.15332106E+04</pdfrwt>
<totfact> 0.30017820E+01</totfact>
</mgrwt>
</event>
<event>
 8    2  0.7237260E-052  0.1457581E+04  0.7818608E-02  0.8913162E-01
         -2   -1    0    0    0  501 -0.00000000000E+00  0.00000000000E+00  0.69869261440E+03  0.69869261441E+03  0.25500000000E-02 0. -1.
          2   -1    0    0  501    0  0.00000000000E+00 -0.00000000000E+00 -0.76018470099E+03  0.76018470099E+03  0.25500000000E-02 0.  1.
    -200001    2    1    2    0    0  0.15218591049E+03 -0.26910798235E+03  0.21457996713E+03  0.71890134528E+03  0.61253157016E+03 0.  0.
   -5000001    2    3    3    0    0 -0.29864903109E+02 -0.19507217945E+03 -0.15883577371E+03  0.28500721724E+03  0.13059572442E+03 0.  0.
     200001    1    1    2    0    0 -0.15218591049E+03  0.26910798235E+03 -0.27607205371E+03  0.73997597012E+03  0.61300000000E+03 0.  1.
         11    1    4    4    0    0 -0.17050804122E+02  0.14496802584E+02 -0.48235437898E+01  0.22894405022E+02  0.51100000000E-03 0.  1.
    -200002    1    4    4    0    0 -0.12814098987E+02 -0.20956898204E+03 -0.15401222992E+03  0.26211281222E+03  0.30000000000E+02 0.  1.
    -200000    1    3    3    0    0  0.18205081360E+03 -0.74035802892E+02  0.37341574084E+03  0.43389412804E+03  0.10100000000E+03 0. -1.
<mgrwt>
<rscale>  0 0.14575808E+04</rscale>
<asrwt>0</asrwt>
<pdfrwt beam="1">  1        2 0.10859781E+00 0.14575808E+04</pdfrwt>
<pdfrwt beam="2">  1       -2 0.99813230E-01 0.14575808E+04</pdfrwt>
<totfact> 0.32702283E+01</totfact>
</mgrwt>
</event>
<event>
 8    2  0.7237260E-052  0.1366775E+04  0.7818608E-02  0.8978226E-01
         -2   -1    0    0    0  501 -0.00000000000E+00  0.00000000000E+00  0.48634908379E+03  0.48634908380E+03  0.25500000000E-02 0. -1.
          2   -1    0    0  501    0  0.00000000000E+00 -0.00000000000E+00 -0.96025319198E+03  0.96025319198E+03  0.25500000000E-02 0.  1.
    -200001    2    1    2    0    0  0.41105516428E+02  0.19020315127E+03 -0.48203144086E+03  0.80340560619E+03  0.61256783775E+03 0.  0.
   -5000001    2    3    3    0    0  0.24136485468E+01  0.43896482317E+02  0.22452110066E+02  0.26711524157E+03  0.26251424376E+03 0.  0.
     200001    1    1    2    0    0 -0.41105516428E+02 -0.19020315127E+03  0.81273326730E+01  0.64319666959E+03  0.61300000000E+03 0. -1.
         11    1    4    4    0    0 -0.36249205245E+02 -0.74403171852E+02  0.90080191318E+02  0.12232856465E+03  0.51100000000E-03 0.  1.
    -200002    1    4    4    0    0  0.38662853792E+02  0.11829965417E+03 -0.67628081252E+02  0.14478667692E+03  0.30000000000E+02 0.  1.
    -200000    1    3    3    0    0  0.38691867881E+02  0.14630666896E+03 -0.50448355093E+03  0.53629036461E+03  0.10100000000E+03 0.  1.
<mgrwt>
<rscale>  0 0.13667747E+04</rscale>
<asrwt>0</asrwt>
<pdfrwt beam="1">  1        2 0.13717903E+00 0.13667747E+04</pdfrwt>
<pdfrwt beam="2">  1       -2 0.69478441E-01 0.13667747E+04</pdfrwt>
<totfact> 0.54907569E+01</totfact>
</mgrwt>
</event>
<event>
 8    2  0.7237260E-052  0.1480173E+04  0.7818608E-02  0.8897746E-01
         -2   -1    0    0    0  501 -0.00000000000E+00  0.00000000000E+00  0.16291953255E+03  0.16291953257E+03  0.25500000000E-02 0. -1.
          2   -1    0    0  501    0  0.00000000000E+00 -0.00000000000E+00 -0.33619533694E+04  0.33619533694E+04  0.25500000000E-02 0.  1.
    -200001    2    1    2    0    0 -0.32620911928E+02  0.11743670232E+03 -0.65769638787E+03  0.90780956064E+03  0.61375740878E+03 0.  0.
   -5000001    2    3    3    0    0  0.43955285482E+02 -0.14099996411E+03 -0.58800321390E+03  0.61164818054E+03  0.80948503404E+02 0.  0.
     200001    1    1    2    0    0  0.32620911928E+02 -0.11743670232E+03 -0.25413374490E+04  0.26170633414E+04  0.61300000000E+03 0.  1.
         11    1    4    4    0    0  0.33685905327E+02 -0.10185159851E+03 -0.28572210173E+03  0.30519765358E+03  0.51100000000E-03 0.  1.
    -200002    1    4    4    0    0  0.10269380155E+02 -0.39148365606E+02 -0.30228111217E+03  0.30645052696E+03  0.30000000000E+02 0.  1.
    -200000    1    3    3    0    0 -0.76576197410E+02  0.25843666643E+03 -0.69693173972E+02  0.29616138010E+03  0.10100000000E+03 0. -1.
<mgrwt>
<rscale>  0 0.14801728E+04</rscale>
<asrwt>0</asrwt>
<pdfrwt beam="1">  1        2 0.48027901E+00 0.14801728E+04</pdfrwt>
<pdfrwt beam="2">  1       -2 0.23274221E-01 0.14801728E+04</pdfrwt>
<totfact> 0.23257382E+01</totfact>
</mgrwt>
</event>
<event>
 8    2  0.7237260E-052  0.1934002E+04  0.7818608E-02  0.8638114E-01
         -2   -1    0    0    0  501 -0.00000000000E+00  0.00000000000E+00  0.11790416393E+04  0.11790416393E+04  0.25500000000E-02 0. -1.
          2   -1    0    0  501    0  0.00000000000E+00 -0.00000000000E+00 -0.79309391787E+03  0.79309391788E+03  0.25500000000E-02 0.  1.
    -200001    2    1    2    0    0  0.35425279476E+03  0.37703621730E+03 -0.35722044234E+03  0.87864606413E+03  0.61380869156E+03 0.  0.
   -5000001    2    3    3    0    0 -0.48350960397E+02 -0.19430500301E+02 -0.28431197511E+03  0.30003368401E+03  0.80445960965E+02 0.  0.
     200001    1    1    2    0    0 -0.35425279476E+03 -0.37703621730E+03  0.74316816373E+03  0.10934894930E+04  0.61300000000E+03 0. -1.
         11    1    4    4    0    0 -0.37416545762E+02 -0.84383268380E+01 -0.48588195181E+02  0.61903279136E+02  0.51100000000E-03 0.  1.
    -200002    1    4    4    0    0 -0.10934414635E+02 -0.10992173463E+02 -0.23572377993E+03  0.23813040488E+03  0.30000000000E+02 0.  1.
    -200000    1    3    3    0    0  0.40260375516E+03  0.39646671760E+03 -0.72908467228E+02  0.57861238012E+03  0.10100000000E+03 0.  1.
<mgrwt>
<rscale>  0 0.19340018E+04</rscale>
<asrwt>0</asrwt>
<pdfrwt beam="1">  1        2 0.11329913E+00 0.19340018E+04</pdfrwt>
<pdfrwt beam="2">  1       -2 0.16843452E+00 0.19340018E+04</pdfrwt>
<totfact> 0.78755420E+00</totfact>
</mgrwt>
</event>
<event>
 8    2  0.7237260E-052  0.1435629E+04  0.7818608E-02  0.8928424E-01
         -2   -1    0    0    0  501 -0.00000000000E+00  0.00000000000E+00  0.17448371537E+03  0.17448371539E+03  0.25500000000E-02 0. -1.
          2   -1    0    0  501    0  0.00000000000E+00 -0.00000000000E+00 -0.29530429114E+04  0.29530429114E+04  0.25500000000E-02 0.  1.
    -200001    2    1    2    0    0 -0.30655587449E+01 -0.30028464831E+03 -0.88778421377E+03  0.11173079071E+04  0.60830574655E+03 0.  0.
   -5000001    2    3    3    0    0 -0.11286589139E+03 -0.38023337314E+03 -0.29424404366E+03  0.50010547253E+03  0.78802277455E+02 0.  0.
     200001    1    1    2    0    0  0.30655587449E+01  0.30028464831E+03 -0.18907749822E+04  0.20102187197E+04  0.61300000000E+03 0.  1.
         11    1    4    4    0    0 -0.49629778718E+02 -0.20017446444E+03 -0.19085277780E+03  0.28099415287E+03  0.51100000000E-03 0.  1.
    -200002    1    4    4    0    0 -0.63236112676E+02 -0.18005890870E+03 -0.10339126586E+03  0.21911131966E+03  0.30000000000E+02 0.  1.
    -200000    1    3    3    0    0  0.10980033265E+03  0.79948724832E+02 -0.59354017011E+03  0.61720243452E+03  0.10100000000E+03 0.  1.
<mgrwt>
<rscale>  0 0.14356293E+04</rscale>
<asrwt>0</asrwt>
<pdfrwt beam="1">  1        2 0.42186324E+00 0.14356293E+04</pdfrwt>
<pdfrwt beam="2">  1       -2 0.24926247E-01 0.14356293E+04</pdfrwt>
<totfact> 0.35317992E+01</totfact>
</mgrwt>
</event>
<event>
 8    2  0.7237260E-052  0.1261914E+04  0.7818608E-02  0.9060325E-01
         -2   -1    0    0    0  501 -0.00000000000E+00  0.00000000000E+00  0.19194622207E+03  0.19194622209E+03  0.25500000000E-02 0. -1.
          2   -1    0    0  501    0  0.00000000000E+00 -0.00000000000E+00 -0.20740551444E+04  0.20740551444E+04  0.25500000000E-02 0.  1.
    -200001    2    1    2    0    0 -0.64199434180E+02 -0.12597969179E+03 -0.10316452622E+04  0.12081498234E+04  0.61265128629E+03 0.  0.
   -5000001    2    3    3    0    0 -0.45152842495E+02  0.20842303352E+03 -0.19026977364E+03  0.29694091861E+03  0.80575320663E+02 0.  0.
     200001    1    1    2    0    0  0.64199434180E+02  0.12597969179E+03 -0.85046366014E+03  0.10578515431E+04  0.61300000000E+03 0.  1.
         11    1    4    4    0    0 -0.42628578101E+02  0.14496701375E+03 -0.94661546373E+02  0.17830714822E+03  0.51100000000E-03 0.  1.
    -200002    1    4    4    0    0 -0.25242643940E+01  0.63456019772E+02 -0.95608227266E+02  0.11863377039E+03  0.30000000000E+02 0.  1.
    -200000    1    3    3    0    0 -0.19046591685E+02 -0.33440272531E+03 -0.84137548856E+03  0.91120890475E+03  0.10100000000E+03 0.  1.
<mgrwt>
<rscale>  0 0.12619145E+04</rscale>
<asrwt>0</asrwt>
<pdfrwt beam="1">  1        2 0.29629358E+00 0.12619145E+04</pdfrwt>
<pdfrwt beam="2">  1       -2 0.27420890E-01 0.12619145E+04</pdfrwt>
<totfact> 0.87557916E+01</totfact>
</mgrwt>
</event>
<event>
 8    2  0.7237260E-052  0.1332801E+04  0.7818608E-02  0.9003950E-01
         -2   -1    0    0    0  501 -0.00000000000E+00  0.00000000000E+00  0.43133294534E+03  0.43133294535E+03  0.25500000000E-02 0. -1.
          2   -1    0    0  501    0  0.00000000000E+00 -0.00000000000E+00 -0.10295756018E+04  0.10295756018E+04  0.25500000000E-02 0.  1.
    -200001    2    1    2    0    0 -0.13921029174E+03  0.21905811363E+03 -0.26770197278E+03  0.71767769065E+03  0.61321363240E+03 0.  0.
   -5000001    2    3    3    0    0 -0.12984027748E+03 -0.18319520360E+03 -0.11818214744E+03  0.27670977056E+03  0.11037344278E+03 0.  0.
     200001    1    1    2    0    0  0.13921029174E+03 -0.21905811363E+03 -0.33054068366E+03  0.74323085648E+03  0.61300000000E+03 0. -1.
         11    1    4    4    0    0 -0.66734031200E+02 -0.14052180488E+03 -0.11729944240E+03  0.19483061298E+03  0.51100000000E-03 0.  1.
    -200002    1    4    4    0    0 -0.63106246279E+02 -0.42673398718E+02 -0.88270504544E+00  0.81879157578E+02  0.30000000000E+02 0.  1.
    -200000    1    3    3    0    0 -0.93700142598E+01  0.40225331722E+03 -0.14951982534E+03  0.44096792010E+03  0.10100000000E+03 0.  1.
<mgrwt>
<rscale>  0 0.13328014E+04</rscale>
<asrwt>0</asrwt>
<pdfrwt beam="1">  1        2 0.14708223E+00 0.13328014E+04</pdfrwt>
<pdfrwt beam="2">  1       -2 0.61618993E-01 0.13328014E+04</pdfrwt>
<totfact> 0.64539706E+01</totfact>
</mgrwt>
</event>
<event>
 8    2  0.7237260E-052  0.1690324E+04  0.7818608E-02  0.8766902E-01
         -2   -1    0    0    0  501 -0.00000000000E+00  0.00000000000E+00  0.10371930065E+04  0.10371930066E+04  0.25500000000E-02 0. -1.
          2   -1    0    0  501    0  0.00000000000E+00 -0.00000000000E+00 -0.68868494144E+03  0.68868494144E+03  0.25500000000E-02 0.  1.
    -200001    2    1    2    0    0  0.31974322618E+02 -0.34255095569E+03 -0.30662806302E+03  0.76497427908E+03  0.61057461794E+03 0.  0.
   -5000001    2    3    3    0    0  0.25623305039E+03  0.10967856211E+02 -0.80976179202E+02  0.27877750820E+03  0.73376341559E+02 0.  0.
     200001    1    1    2    0    0 -0.31974322618E+02  0.34255095569E+03  0.65513612813E+03  0.96090366891E+03  0.61300000000E+03 0. -1.
         11    1    4    4    0    0  0.19466025360E+03 -0.49511176020E+01 -0.45282717659E+02  0.19991911468E+03  0.51100000000E-03 0.  1.
    -200002    1    4    4    0    0  0.61572796790E+02  0.15918973813E+02 -0.35693461542E+02  0.78858393521E+02  0.30000000000E+02 0.  1.
    -200000    1    3    3    0    0 -0.22425872777E+03 -0.35351881190E+03 -0.22565188382E+03  0.48619677088E+03  0.10100000000E+03 0.  1.
<mgrwt>
<rscale>  0 0.16903245E+04</rscale>
<asrwt>0</asrwt>
<pdfrwt beam="1">  1        2 0.98383563E-01 0.16903245E+04</pdfrwt>
<pdfrwt beam="2">  1       -2 0.14817043E+00 0.16903245E+04</pdfrwt>
<totfact> 0.13565436E+01</totfact>
</mgrwt>
</event>
<event>
 8    2  0.7237260E-052  0.1346694E+04  0.7818608E-02  0.8993334E-01
          2   -1    0    0  501    0  0.00000000000E+00  0.00000000000E+00  0.17387704596E+04  0.17387704596E+04  0.25500000000E-02 0.  1.
         -2   -1    0    0    0  501 -0.00000000000E+00 -0.00000000000E+00 -0.26075687591E+03  0.26075687592E+03  0.25500000000E-02 0. -1.
    -200001    2    1    2    0    0 -0.19991036889E+03  0.11803274885E+03  0.51001718491E+03  0.83047562006E+03  0.61292441721E+03 0.  0.
   -5000001    2    3    3    0    0 -0.17017380567E+03  0.30013387367E+03  0.99354372245E+02  0.36907554576E+03  0.85475148036E+02 0.  0.
     200001    1    1    2    0    0  0.19991036889E+03 -0.11803274885E+03  0.96799639880E+03  0.11690517155E+04  0.61300000000E+03 0.  1.
         11    1    4    4    0    0 -0.23145004074E+02  0.24333195259E+02  0.35119952708E+02  0.48592249213E+02  0.51100000000E-03 0.  1.
    -200002    1    4    4    0    0 -0.14702880160E+03  0.27580067842E+03  0.64234419536E+02  0.32048329655E+03  0.30000000000E+02 0.  1.
    -200000    1    3    3    0    0 -0.29736563221E+02 -0.18210112482E+03  0.41066281267E+03  0.46140007430E+03  0.10100000000E+03 0.  1.
<mgrwt>
<rscale>  0 0.13466943E+04</rscale>
<asrwt>0</asrwt>
<pdfrwt beam="1">  1        2 0.24839578E+00 0.13466943E+04</pdfrwt>
<pdfrwt beam="2">  1       -2 0.37250983E-01 0.13466943E+04</pdfrwt>
<totfact> 0.72705659E+01</totfact>
</mgrwt>
</event>
<event>
 8    2  0.7237260E-052  0.2177756E+04  0.7818608E-02  0.8527744E-01
         -2   -1    0    0    0  501 -0.00000000000E+00  0.00000000000E+00  0.59806038727E+03  0.59806038727E+03  0.25500000000E-02 0. -1.
          2   -1    0    0  501    0  0.00000000000E+00 -0.00000000000E+00 -0.19825003216E+04  0.19825003216E+04  0.25500000000E-02 0.  1.
    -200001    2    1    2    0    0  0.89283064429E+02  0.34429927971E+03 -0.16720285384E+04  0.18157145381E+04  0.61206730952E+03 0.  0.
   -5000001    2    3    3    0    0  0.44534959794E+02  0.37660490291E+03 -0.16549393052E+04  0.16993569512E+04  0.71939753127E+02 0.  0.
     200001    1    1    2    0    0 -0.89283064429E+02 -0.34429927971E+03  0.28758860407E+03  0.76484617067E+03  0.61300000000E+03 0. -1.
         11    1    4    4    0    0 -0.13837168781E+02  0.66543887453E+02 -0.24641520539E+03  0.25561691972E+03  0.51100000000E-03 0.  1.
    -200002    1    4    4    0    0  0.58372128574E+02  0.31006101546E+03 -0.14085240998E+04  0.14437400314E+04  0.30000000000E+02 0.  1.
    -200000    1    3    3    0    0  0.44748104636E+02 -0.32305623198E+02 -0.17089233165E+02  0.11635758698E+03  0.10100000000E+03 0. -1.
<mgrwt>
<rscale>  0 0.21777556E+04</rscale>
<asrwt>0</asrwt>
<pdfrwt beam="1">  1        2 0.28321433E+00 0.21777556E+04</pdfrwt>
<pdfrwt beam="2">  1       -2 0.85437200E-01 0.21777556E+04</pdfrwt>
<totfact> 0.89736545E+00</totfact>
</mgrwt>
</event>
<event>
 8    2  0.7237260E-052  0.1354146E+04  0.7818608E-02  0.8987696E-01
         -2   -1    0    0    0  501 -0.00000000000E+00  0.00000000000E+00  0.59812231858E+03  0.59812231859E+03  0.25500000000E-02 0. -1.
          2   -1    0    0  501    0  0.00000000000E+00 -0.00000000000E+00 -0.76644493931E+03  0.76644493932E+03  0.25500000000E-02 0.  1.
    -200001    2    1    2    0    0  0.14149370804E+03 -0.24331718875E+03 -0.24575229619E+02  0.67488904583E+03  0.61290093695E+03 0.  0.
   -5000001    2    3    3    0    0 -0.51669486119E+02 -0.34397189563E+03 -0.16503264946E+03  0.39672960166E+03  0.95771606801E+02 0.  0.
     200001    1    1    2    0    0 -0.14149370804E+03  0.24331718875E+03 -0.14374739111E+03  0.68967821207E+03  0.61300000000E+03 0.  1.
         11    1    4    4    0    0 -0.38085363862E+02 -0.73045195073E+02 -0.10359540272E+02  0.83026595370E+02  0.51100000000E-03 0.  1.
    -200002    1    4    4    0    0 -0.13584122257E+02 -0.27092670055E+03 -0.15467310919E+03  0.31370300629E+03  0.30000000000E+02 0.  1.
    -200000    1    3    3    0    0  0.19316319416E+03  0.10065470688E+03  0.14045741984E+03  0.27815944417E+03  0.10100000000E+03 0. -1.
<mgrwt>
<rscale>  0 0.13541460E+04</rscale>
<asrwt>0</asrwt>
<pdfrwt beam="1">  1        2 0.10949213E+00 0.13541460E+04</pdfrwt>
<pdfrwt beam="2">  1       -2 0.85446046E-01 0.13541460E+04</pdfrwt>
<totfact> 0.46774943E+01</totfact>
</mgrwt>
</event>
<event>
 8    2  0.7237260E-052  0.1897439E+04  0.7818608E-02  0.8656132E-01
          2   -1    0    0  501    0  0.00000000000E+00  0.00000000000E+00  0.40337567122E+04  0.40337567122E+04  0.25500000000E-02 0.  1.
         -2   -1    0    0    0  501 -0.00000000000E+00 -0.00000000000E+00 -0.22313405045E+03  0.22313405047E+03  0.25500000000E-02 0. -1.
    -200001    2    1    2    0    0  0.33428948466E+02  0.40929412798E+03  0.32436290989E+04  0.33263587223E+04  0.61228542403E+03 0.  0.
   -5000001    2    3    3    0    0  0.21640544545E+03  0.17894826774E+03  0.20119288331E+04  0.20559941453E+04  0.31686037409E+03 0.  0.
     200001    1    1    2    0    0 -0.33428948466E+02 -0.40929412798E+03  0.56699356281E+03  0.93053204032E+03  0.61300000000E+03 0. -1.
         11    1    4    4    0    0  0.96366438904E+02  0.23720852071E+03  0.16369870588E+04  0.16568889533E+04  0.51100000000E-03 0.  1.
    -200002    1    4    4    0    0  0.12003900655E+03 -0.58260252967E+02  0.37494177423E+03  0.39910519193E+03  0.30000000000E+02 0.  1.
    -200000    1    3    3    0    0 -0.18297649698E+03  0.23034586024E+03  0.12317002659E+04  0.12703645771E+04  0.10100000000E+03 0.  1.
<mgrwt>
<rscale>  0 0.18974388E+04</rscale>
<asrwt>0</asrwt>
<pdfrwt beam="1">  1        2 0.57625086E+00 0.18974388E+04</pdfrwt>
<pdfrwt beam="2">  1       -2 0.31876298E-01 0.18974388E+04</pdfrwt>
<totfact> 0.46812671E+00</totfact>
</mgrwt>
</event>
<event>
 8    2  0.7237260E-052  0.1661286E+04  0.7818608E-02  0.8783758E-01
         -2   -1    0    0    0  501 -0.00000000000E+00  0.00000000000E+00  0.26456178758E+03  0.26456178759E+03  0.25500000000E-02 0. -1.
          2   -1    0    0  501    0  0.00000000000E+00 -0.00000000000E+00 -0.26079655345E+04  0.26079655345E+04  0.25500000000E-02 0.  1.
    -200001    2    1    2    0    0  0.47846614996E+03 -0.22914800231E+03 -0.85816552940E+03  0.11804456969E+04  0.61283383049E+03 0.  0.
   -5000001    2    3    3    0    0  0.47934672768E+03  0.31781528614E+02 -0.71148971454E+03  0.86453464897E+03  0.10207445550E+03 0.  0.
     200001    1    1    2    0    0 -0.47846614996E+03  0.22914800231E+03 -0.14852382175E+04  0.16920816252E+04  0.61300000000E+03 0.  1.
         11    1    4    4    0    0  0.26312528303E+03  0.20636959997E+02 -0.46828019765E+03  0.53753803791E+03  0.51100000000E-03 0.  1.
    -200002    1    4    4    0    0  0.21622144465E+03  0.11144568616E+02 -0.24320951689E+03  0.32699661106E+03  0.30000000000E+02 0.  1.
    -200000    1    3    3    0    0 -0.88057771672E+00 -0.26092953092E+03 -0.14667581485E+03  0.31591104790E+03  0.10100000000E+03 0.  1.
<mgrwt>
<rscale>  0 0.16612863E+04</rscale>
<asrwt>0</asrwt>
<pdfrwt beam="1">  1        2 0.37256649E+00 0.16612863E+04</pdfrwt>
<pdfrwt beam="2">  1       -2 0.37794543E-01 0.16612863E+04</pdfrwt>
<totfact> 0.24439134E+01</totfact>
</mgrwt>
</event>
<event>
 8    2  0.7237260E-052  0.2282723E+04  0.7818608E-02  0.8484764E-01
         -2   -1    0    0    0  501 -0.00000000000E+00  0.00000000000E+00  0.58536691744E+03  0.58536691745E+03  0.25500000000E-02 0. -1.
          2   -1    0    0  501    0  0.00000000000E+00 -0.00000000000E+00 -0.22254531323E+04  0.22254531323E+04  0.25500000000E-02 0.  1.
    -200001    2    1    2    0    0 -0.59437318397E+03  0.59180965181E+03 -0.23777856538E+03  0.10656112114E+04  0.61275644578E+03 0.  0.
   -5000001    2    3    3    0    0 -0.49535127262E+02  0.12358095727E+03  0.16005149772E+03  0.23823198905E+03  0.11581026228E+03 0.  0.
     200001    1    1    2    0    0  0.59437318397E+03 -0.59180965181E+03 -0.14023076495E+04  0.17452088384E+04  0.61300000000E+03 0. -1.
         11    1    4    4    0    0 -0.30378035165E+02  0.33380461063E+01 -0.49781877403E+01  0.30963687212E+02  0.51100000000E-03 0.  1.
    -200002    1    4    4    0    0 -0.19157092097E+02  0.12024291116E+03  0.16502968546E+03  0.20726830183E+03  0.30000000000E+02 0.  1.
    -200000    1    3    3    0    0 -0.54483805671E+03  0.46822869454E+03 -0.39783006310E+03  0.82737922233E+03  0.10100000000E+03 0.  1.
<mgrwt>
<rscale>  0 0.22827235E+04</rscale>
<asrwt>0</asrwt>
<pdfrwt beam="1">  1        2 0.31792187E+00 0.22827235E+04</pdfrwt>
<pdfrwt beam="2">  1       -2 0.83623847E-01 0.22827235E+04</pdfrwt>
<totfact> 0.69989732E+00</totfact>
</mgrwt>
</event>
<event>
 8    2  0.7237260E-052  0.1359065E+04  0.7818608E-02  0.8983995E-01
          2   -1    0    0  501    0  0.00000000000E+00  0.00000000000E+00  0.49537185446E+03  0.49537185447E+03  0.25500000000E-02 0.  1.
         -2   -1    0    0    0  501 -0.00000000000E+00 -0.00000000000E+00 -0.93215662015E+03  0.93215662016E+03  0.25500000000E-02 0. -1.
    -200001    2    1    2    0    0  0.35993393989E+02 -0.22462302456E+03 -0.28781130843E+02  0.65682295782E+03  0.61549737356E+03 0.  0.
   -5000001    2    3    3    0    0 -0.17841969523E+03 -0.46471415763E+02  0.19258885508E+03  0.28680047308E+03  0.10569230874E+03 0.  0.
     200001    1    1    2    0    0 -0.35993393989E+02  0.22462302456E+03 -0.40800363485E+03  0.77070551680E+03  0.61300000000E+03 0. -1.
         11    1    4    4    0    0 -0.95542406228E+02 -0.70005775332E+02  0.85265338768E+02  0.14594292707E+03  0.51100000000E-03 0.  1.
    -200002    1    4    4    0    0 -0.82877289006E+02  0.23534359569E+02  0.10732351631E+03  0.14085754601E+03  0.30000000000E+02 0.  1.
    -200000    1    3    3    0    0  0.21441308922E+03 -0.17815160880E+03 -0.22136998592E+03  0.37002248474E+03  0.10100000000E+03 0. -1.
<mgrwt>
<rscale>  0 0.13590646E+04</rscale>
<asrwt>0</asrwt>
<pdfrwt beam="1">  1        2 0.70767408E-01 0.13590646E+04</pdfrwt>
<pdfrwt beam="2">  1       -2 0.13316523E+00 0.13590646E+04</pdfrwt>
<totfact> 0.27091860E+01</totfact>
</mgrwt>
</event>
<event>
 8    2  0.7237260E-052  0.2722668E+04  0.7818608E-02  0.8327687E-01
          2   -1    0    0  501    0  0.00000000000E+00  0.00000000000E+00  0.15338496997E+04  0.15338496997E+04  0.25500000000E-02 0.  1.
         -2   -1    0    0    0  501 -0.00000000000E+00 -0.00000000000E+00 -0.12082211950E+04  0.12082211950E+04  0.25500000000E-02 0. -1.
    -200001    2    1    2    0    0 -0.81036104679E+03 -0.81356745476E+03  0.56378963207E+03  0.14187921061E+04  0.61362469111E+03 0.  0.
   -5000001    2    3    3    0    0 -0.30722651621E+03 -0.34206497486E+01  0.26342497033E+03  0.41385323655E+03  0.86498284979E+02 0.  0.
     200001    1    1    2    0    0  0.81036104679E+03  0.81356745476E+03 -0.23816112742E+03  0.13232787885E+04  0.61300000000E+03 0. -1.
         11    1    4    4    0    0 -0.24681908089E+03 -0.44182445223E+01  0.23441476180E+03  0.34042541051E+03  0.51100000000E-03 0.  1.
    -200002    1    4    4    0    0 -0.60407435323E+02  0.99759477373E+00  0.29010208531E+02  0.73427826038E+02  0.30000000000E+02 0. -1.
    -200000    1    3    3    0    0 -0.50313453058E+03 -0.81014680501E+03  0.30036466175E+03  0.10049388696E+04  0.10100000000E+03 0.  1.
<mgrwt>
<rscale>  0 0.27226676E+04</rscale>
<asrwt>0</asrwt>
<pdfrwt beam="1">  1        2 0.21912139E+00 0.27226676E+04</pdfrwt>
<pdfrwt beam="2">  1       -2 0.17260303E+00 0.27226676E+04</pdfrwt>
<totfact> 0.25261309E+00</totfact>
</mgrwt>
</event>
<event>
 8    2  0.7237260E-052  0.1261652E+04  0.7818608E-02  0.9060540E-01
          2   -1    0    0  501    0  0.00000000000E+00  0.00000000000E+00  0.11057253704E+04  0.11057253704E+04  0.25500000000E-02 0.  1.
         -2   -1    0    0    0  501 -0.00000000000E+00 -0.00000000000E+00 -0.35989201038E+03  0.35989201039E+03  0.25500000000E-02 0. -1.
    -200001    2    1    2    0    0 -0.37407257983E+02 -0.24247836593E+02  0.53502848068E+03  0.81585207111E+03  0.61430600377E+03 0.  0.
   -5000001    2    3    3    0    0 -0.17161441069E+03 -0.22142324025E+03  0.46777274019E+03  0.54824408492E+03  0.57275500070E+02 0.  0.
     200001    1    1    2    0    0  0.37407257983E+02  0.24247836593E+02  0.21080487938E+03  0.64976530971E+03  0.61300000000E+03 0. -1.
         11    1    4    4    0    0 -0.95654314639E+01  0.32040202324E+00  0.18242150605E+02  0.20600393091E+02  0.51100000000E-03 0.  1.
    -200002    1    4    4    0    0 -0.16204897922E+03 -0.22174364227E+03  0.44953058958E+03  0.52764369183E+03  0.30000000000E+02 0.  1.
    -200000    1    3    3    0    0  0.13420715271E+03  0.19717540366E+03  0.67255740489E+02  0.26760798619E+03  0.10100000000E+03 0.  1.
<mgrwt>
<rscale>  0 0.12616525E+04</rscale>
<asrwt>0</asrwt>
<pdfrwt beam="1">  1        2 0.15796077E+00 0.12616525E+04</pdfrwt>
<pdfrwt beam="2">  1       -2 0.51413145E-01 0.12616525E+04</pdfrwt>
<totfact> 0.85178875E+01</totfact>
</mgrwt>
</event>
<event>
 8    2  0.7237260E-052  0.2098011E+04  0.7818608E-02  0.8562120E-01
          2   -1    0    0  501    0  0.00000000000E+00  0.00000000000E+00  0.23054547840E+04  0.23054547840E+04  0.25500000000E-02 0.  1.
         -2   -1    0    0    0  501 -0.00000000000E+00 -0.00000000000E+00 -0.47730826248E+03  0.47730826249E+03  0.25500000000E-02 0. -1.
    -200001    2    1    2    0    0 -0.72076575196E+03  0.43827796009E+03  0.76389766345E+03  0.12928014794E+04  0.61335567612E+03 0.  0.
   -5000001    2    3    3    0    0 -0.73349390447E+03  0.51293566351E+03  0.60182915011E+03  0.10873678367E+04  0.13803689196E+03 0.  0.
     200001    1    1    2    0    0  0.72076575196E+03 -0.43827796009E+03  0.10642488581E+04  0.14899615671E+04  0.61300000000E+03 0.  1.
         11    1    4    4    0    0 -0.20257704339E+03  0.20107529793E+03  0.23731840128E+03  0.37119908073E+03  0.51100000000E-03 0.  1.
    -200002    1    4    4    0    0 -0.53091686108E+03  0.31186036558E+03  0.36451074883E+03  0.71616875596E+03  0.30000000000E+02 0.  1.
    -200000    1    3    3    0    0  0.12728152510E+02 -0.74657703419E+02  0.16206851334E+03  0.20543364272E+03  0.10100000000E+03 0.  1.
<mgrwt>
<rscale>  0 0.20980111E+04</rscale>
<asrwt>0</asrwt>
<pdfrwt beam="1">  1        2 0.32935068E+00 0.20980111E+04</pdfrwt>
<pdfrwt beam="2">  1       -2 0.68186896E-01 0.20980111E+04</pdfrwt>
<totfact> 0.10155237E+01</totfact>
</mgrwt>
</event>
<event>
 8    2  0.7237260E-052  0.1330543E+04  0.7818608E-02  0.9005689E-01
          2   -1    0    0  501    0  0.00000000000E+00  0.00000000000E+00  0.89727135337E+03  0.89727135337E+03  0.25500000000E-02 0.  1.
         -2   -1    0    0    0  501 -0.00000000000E+00 -0.00000000000E+00 -0.49325775821E+03  0.49325775822E+03  0.25500000000E-02 0. -1.
    -200001    2    1    2    0    0 -0.12970450443E+03 -0.16437027023E+03  0.43826820406E+02  0.64935142918E+03  0.61310328998E+03 0.  0.
   -5000001    2    3    3    0    0 -0.33216584960E+03 -0.59229844305E+02  0.15576541441E+03  0.37589877463E+03  0.56521662622E+02 0.  0.
     200001    1    1    2    0    0  0.12970450443E+03  0.16437027023E+03  0.36018677475E+03  0.74117768242E+03  0.61300000000E+03 0.  1.
         11    1    4    4    0    0 -0.18703492746E+03 -0.30607888408E+02  0.10492279186E+03  0.21662802029E+03  0.51100000000E-03 0.  1.
    -200002    1    4    4    0    0 -0.14513092214E+03 -0.28621955897E+02  0.50842622553E+02  0.15927075435E+03  0.30000000000E+02 0. -1.
    -200000    1    3    3    0    0  0.20246134517E+03 -0.10514042593E+03 -0.11193859400E+03  0.27345265455E+03  0.10100000000E+03 0. -1.
<mgrwt>
<rscale>  0 0.13305428E+04</rscale>
<asrwt>0</asrwt>
<pdfrwt beam="1">  1        2 0.12818162E+00 0.13305428E+04</pdfrwt>
<pdfrwt beam="2">  1       -2 0.70465394E-01 0.13305428E+04</pdfrwt>
<totfact> 0.58598153E+01</totfact>
</mgrwt>
</event>
<event>
 8    2  0.7237260E-052  0.1422597E+04  0.7818608E-02  0.8937623E-01
          2   -1    0    0  501    0  0.00000000000E+00  0.00000000000E+00  0.13450511567E+04  0.13450511567E+04  0.25500000000E-02 0.  1.
         -2   -1    0    0    0  501 -0.00000000000E+00 -0.00000000000E+00 -0.37615315894E+03  0.37615315895E+03  0.25500000000E-02 0. -1.
    -200001    2    1    2    0    0  0.70578209122E+01  0.23627031151E+03  0.15526475258E+03  0.67543114207E+03  0.61337314202E+03 0.  0.
   -5000001    2    3    3    0    0  0.64388644008E+02  0.29351781926E+03  0.33092793515E+03  0.45720498843E+03  0.96044237127E+02 0.  0.
     200001    1    1    2    0    0 -0.70578209122E+01 -0.23627031151E+03  0.81363324517E+03  0.10457731736E+04  0.61300000000E+03 0.  1.
         11    1    4    4    0    0  0.49526159996E+02  0.13913143597E+03  0.21678177620E+03  0.26230656776E+03  0.51100000000E-03 0.  1.
    -200002    1    4    4    0    0  0.14862484012E+02  0.15438638329E+03  0.11414615895E+03  0.19489842067E+03  0.30000000000E+02 0.  1.
    -200000    1    3    3    0    0 -0.57330823096E+02 -0.57247507748E+02 -0.17566318257E+03  0.21822615364E+03  0.10100000000E+03 0.  1.
<mgrwt>
<rscale>  0 0.14225966E+04</rscale>
<asrwt>0</asrwt>
<pdfrwt beam="1">  1        2 0.19215017E+00 0.14225966E+04</pdfrwt>
<pdfrwt beam="2">  1       -2 0.53736165E-01 0.14225966E+04</pdfrwt>
<totfact> 0.56265724E+01</totfact>
</mgrwt>
</event>
<event>
 8    2  0.7237260E-052  0.1283185E+04  0.7818608E-02  0.9043007E-01
          2   -1    0    0  501    0  0.00000000000E+00  0.00000000000E+00  0.18767620713E+04  0.18767620713E+04  0.25500000000E-02 0.  1.
         -2   -1    0    0    0  501 -0.00000000000E+00 -0.00000000000E+00 -0.21933570665E+03  0.21933570666E+03  0.25500000000E-02 0. -1.
    -200001    2    1    2    0    0  0.44878851307E+02 -0.54595296513E+02  0.54817906532E+03  0.82676987361E+03  0.61486045454E+03 0.  0.
   -5000001    2    3    3    0    0 -0.71900940206E+02  0.19866137970E+03  0.29942670862E+03  0.43965852178E+03  0.24291392087E+03 0.  0.
     200001    1    1    2    0    0 -0.44878851307E+02  0.54595296513E+02  0.11092472993E+04  0.12693279043E+04  0.61300000000E+03 0.  1.
         11    1    4    4    0    0 -0.13563399217E+03  0.42673391033E+02  0.18684799036E+03  0.23479729478E+03  0.51100000000E-03 0.  1.
    -200002    1    4    4    0    0  0.63733051966E+02  0.15598798867E+03  0.11257871826E+03  0.20486122700E+03  0.30000000000E+02 0.  1.
    -200000    1    3    3    0    0  0.11677979151E+03 -0.25325667621E+03  0.24875235669E+03  0.38711135183E+03  0.10100000000E+03 0. -1.
<mgrwt>
<rscale>  0 0.12831850E+04</rscale>
<asrwt>0</asrwt>
<pdfrwt beam="1">  1        2 0.26810888E+00 0.12831850E+04</pdfrwt>
<pdfrwt beam="2">  1       -2 0.31333671E-01 0.12831850E+04</pdfrwt>
<totfact> 0.86162120E+01</totfact>
</mgrwt>
</event>
<event>
 8    2  0.7237260E-052  0.1502519E+04  0.7818608E-02  0.8882780E-01
         -2   -1    0    0    0  501 -0.00000000000E+00  0.00000000000E+00  0.39939007523E+03  0.39939007523E+03  0.25500000000E-02 0. -1.
          2   -1    0    0  501    0  0.00000000000E+00 -0.00000000000E+00 -0.14131314041E+04  0.14131314041E+04  0.25500000000E-02 0.  1.
    -200001    2    1    2    0    0 -0.35031152921E+03 -0.22819389089E+03 -0.37570469939E+03  0.83392536251E+03  0.61602505610E+03 0.  0.
   -5000001    2    3    3    0    0 -0.20068783082E+03 -0.40822055903E+03 -0.13363635908E+03  0.48236465119E+03  0.88867035484E+02 0.  0.
     200001    1    1    2    0    0  0.35031152921E+03  0.22819389089E+03 -0.63803662951E+03  0.97859611686E+03  0.61300000000E+03 0.  1.
         11    1    4    4    0    0  0.73988292240E+01 -0.22128656760E+02 -0.18064961713E+01  0.23402639863E+02  0.51100000000E-03 0.  1.
    -200002    1    4    4    0    0 -0.20808666005E+03 -0.38609190227E+03 -0.13182986291E+03  0.45896201133E+03  0.30000000000E+02 0.  1.
    -200000    1    3    3    0    0 -0.14962369839E+03  0.18002666814E+03 -0.24206834031E+03  0.35156071131E+03  0.10100000000E+03 0.  1.
<mgrwt>
<rscale>  0 0.15025188E+04</rscale>
<asrwt>0</asrwt>
<pdfrwt beam="1">  1        2 0.20187591E+00 0.15025188E+04</pdfrwt>
<pdfrwt beam="2">  1       -2 0.57055726E-01 0.15025188E+04</pdfrwt>
<totfact> 0.45341953E+01</totfact>
</mgrwt>
</event>
<event>
 8    2  0.7237260E-052  0.1582823E+04  0.7818608E-02  0.8831171E-01
          2   -1    0    0  501    0  0.00000000000E+00  0.00000000000E+00  0.43395032397E+03  0.43395032397E+03  0.25500000000E-02 0.  1.
         -2   -1    0    0    0  501 -0.00000000000E+00 -0.00000000000E+00 -0.14433268556E+04  0.14433268556E+04  0.25500000000E-02 0. -1.
    -200001    2    1    2    0    0 -0.32201343668E+03 -0.87949146582E+01 -0.50561412761E+02  0.69454076088E+03  0.61323764409E+03 0.  0.
   -5000001    2    3    3    0    0 -0.45849458419E+03  0.10992845992E+03 -0.20365035665E+02  0.48517227116E+03  0.11258706852E+03 0.  0.
     200001    1    1    2    0    0  0.32201343668E+03  0.87949146582E+01 -0.95881511885E+03  0.11827364187E+04  0.61300000000E+03 0. -1.
         11    1    4    4    0    0 -0.23564091766E+03  0.15192242343E+02  0.23349683075E+02  0.23728180293E+03  0.51100000000E-03 0.  1.
    -200002    1    4    4    0    0 -0.22285366653E+03  0.94736217576E+02 -0.43714718740E+02  0.24789046823E+03  0.30000000000E+02 0.  1.
    -200000    1    3    3    0    0  0.13648114750E+03 -0.11872337458E+03 -0.30196377096E+02  0.20936848971E+03  0.10100000000E+03 0.  1.
<mgrwt>
<rscale>  0 0.15828230E+04</rscale>
<asrwt>0</asrwt>
<pdfrwt beam="1">  1        2 0.61992904E-01 0.15828230E+04</pdfrwt>
<pdfrwt beam="2">  1       -2 0.20618955E+00 0.15828230E+04</pdfrwt>
<totfact> 0.91931971E+00</totfact>
</mgrwt>
</event>
<event>
 8    2  0.7237260E-052  0.1462811E+04  0.7818608E-02  0.8909567E-01
         -2   -1    0    0    0  501 -0.00000000000E+00  0.00000000000E+00  0.68230596250E+03  0.68230596250E+03  0.25500000000E-02 0.  1.
          2   -1    0    0  501    0  0.00000000000E+00 -0.00000000000E+00 -0.78403876717E+03  0.78403876717E+03  0.25500000000E-02 0. -1.
    -200001    2    1    2    0    0 -0.11250112614E+03 -0.30444210484E+03  0.18179993141E+03  0.71701081812E+03  0.61295334216E+03 0.  0.
   -5000001    2    3    3    0    0 -0.54352470277E+02  0.89737888817E+02  0.23185879755E+03  0.30292625712E+03  0.16431291958E+03 0.  0.
     200001    1    1    2    0    0  0.11250112614E+03  0.30444210484E+03 -0.28353273608E+03  0.74933391156E+03  0.61300000000E+03 0. -1.
         11    1    4    4    0    0  0.36080083987E+02  0.88247925872E+02  0.14767245115E+03  0.17577434884E+03  0.51100000000E-03 0.  1.
    -200002    1    4    4    0    0 -0.90432554264E+02  0.14899629446E+01  0.84186346403E+02  0.12715190829E+03  0.30000000000E+02 0. -1.
    -200000    1    3    3    0    0 -0.58148655865E+02 -0.39417999365E+03 -0.50058866140E+02  0.41408456100E+03  0.10100000000E+03 0. -1.
<mgrwt>
<rscale>  0 0.14628114E+04</rscale>
<asrwt>0</asrwt>
<pdfrwt beam="1">  1        2 0.11200554E+00 0.14628114E+04</pdfrwt>
<pdfrwt beam="2">  1       -2 0.97472281E-01 0.14628114E+04</pdfrwt>
<totfact> 0.33235238E+01</totfact>
</mgrwt>
</event>
<event>
 8    2  0.7237260E-052  0.1298712E+04  0.7818608E-02  0.9030587E-01
         -2   -1    0    0    0  501 -0.00000000000E+00  0.00000000000E+00  0.46333271129E+03  0.46333271129E+03  0.25500000000E-02 0. -1.
          2   -1    0    0  501    0  0.00000000000E+00 -0.00000000000E+00 -0.91006641045E+03  0.91006641045E+03  0.25500000000E-02 0.  1.
    -200001    2    1    2    0    0  0.17077692782E+03 -0.12386727011E+03 -0.18731908047E+03  0.67513498543E+03  0.61336037609E+03 0.  0.
   -5000001    2    3    3    0    0  0.33912628818E+03 -0.17939168937E+03  0.59787092965E+01  0.39408427150E+03  0.89881313557E+02 0.  0.
     200001    1    1    2    0    0 -0.17077692782E+03  0.12386727011E+03 -0.25941461869E+03  0.69826413632E+03  0.61300000000E+03 0.  1.
         11    1    4    4    0    0  0.89027875736E+02 -0.13482272466E+02 -0.16829675834E+02  0.91602250616E+02  0.51100000000E-03 0.  1.
    -200002    1    4    4    0    0  0.25009841245E+03 -0.16590941690E+03  0.22808385130E+02  0.30248202088E+03  0.30000000000E+02 0.  1.
    -200000    1    3    3    0    0 -0.16834936036E+03  0.55524419262E+02 -0.19329778977E+03  0.28105071393E+03  0.10100000000E+03 0. -1.
<mgrwt>
<rscale>  0 0.12987125E+04</rscale>
<asrwt>0</asrwt>
<pdfrwt beam="1">  1        2 0.13000949E+00 0.12987125E+04</pdfrwt>
<pdfrwt beam="2">  1       -2 0.66190387E-01 0.12987125E+04</pdfrwt>
<totfact> 0.65994264E+01</totfact>
</mgrwt>
</event>
<event>
 8    2  0.7237260E-052  0.2039165E+04  0.7818608E-02  0.8588525E-01
          2   -1    0    0  501    0  0.00000000000E+00  0.00000000000E+00  0.54986722493E+03  0.54986722494E+03  0.25500000000E-02 0.  1.
         -2   -1    0    0    0  501 -0.00000000000E+00 -0.00000000000E+00 -0.18905449451E+04  0.18905449451E+04  0.25500000000E-02 0. -1.
    -200001    2    1    2    0    0  0.61233277752E+03  0.14872385234E+03 -0.51695027173E+02  0.88018282872E+03  0.61235546986E+03 0.  0.
   -5000001    2    3    3    0    0  0.23513344409E+03 -0.82316081425E+02  0.22949581847E+03  0.34639627980E+03  0.72514675592E+02 0.  0.
     200001    1    1    2    0    0 -0.61233277752E+03 -0.14872385234E+03 -0.12889826930E+04  0.15602293413E+04  0.61300000000E+03 0. -1.
         11    1    4    4    0    0  0.90207862366E+01 -0.14899013248E+02  0.24701232653E+01  0.17591381109E+02  0.51100000000E-03 0.  1.
    -200002    1    4    4    0    0  0.22611265785E+03 -0.67417068176E+02  0.22702569521E+03  0.32880489870E+03  0.30000000000E+02 0.  1.
    -200000    1    3    3    0    0  0.37719933343E+03  0.23103993377E+03 -0.28119084565E+03  0.53378654892E+03  0.10100000000E+03 0.  1.
<mgrwt>
<rscale>  0 0.20391652E+04</rscale>
<asrwt>0</asrwt>
<pdfrwt beam="1">  1        2 0.78552462E-01 0.20391652E+04</pdfrwt>
<pdfrwt beam="2">  1       -2 0.27007785E+00 0.20391652E+04</pdfrwt>
<totfact> 0.27063693E+00</totfact>
</mgrwt>
</event>
<event>
 8    2  0.7237260E-052  0.1476897E+04  0.7818608E-02  0.8899963E-01
          2   -1    0    0  501    0  0.00000000000E+00  0.00000000000E+00  0.17013246660E+03  0.17013246662E+03  0.25500000000E-02 0.  1.
         -2   -1    0    0    0  501 -0.00000000000E+00 -0.00000000000E+00 -0.32051878691E+04  0.32051878691E+04  0.25500000000E-02 0. -1.
    -200001    2    1    2    0    0 -0.22692219850E+03 -0.23716927765E+02 -0.73390000203E+03  0.98301154420E+03  0.61289991534E+03 0.  0.
   -5000001    2    3    3    0    0 -0.90421105151E+02  0.11158041243E+03  0.41585756014E+02  0.17770596265E+03  0.96040977522E+02 0.  0.
     200001    1    1    2    0    0  0.22692219850E+03  0.23716927765E+02 -0.23011554005E+04  0.23923087915E+04  0.61300000000E+03 0.  1.
         11    1    4    4    0    0 -0.13971532680E+02  0.60150052798E+02 -0.17537037322E+02  0.64193303820E+02  0.51100000000E-03 0.  1.
    -200002    1    4    4    0    0 -0.76449572471E+02  0.51430359630E+02  0.59122793336E+02  0.11351265883E+03  0.30000000000E+02 0.  1.
    -200000    1    3    3    0    0 -0.13650109334E+03 -0.13529734019E+03 -0.77548575804E+03  0.80530558155E+03  0.10100000000E+03 0. -1.
<mgrwt>
<rscale>  0 0.14768974E+04</rscale>
<asrwt>0</asrwt>
<pdfrwt beam="1">  1        2 0.24304640E-01 0.14768974E+04</pdfrwt>
<pdfrwt beam="2">  1       -2 0.45788395E+00 0.14768974E+04</pdfrwt>
<totfact> 0.68283152E-01</totfact>
</mgrwt>
</event>
<event>
 8    2  0.7237260E-052  0.1419225E+04  0.7818608E-02  0.8940019E-01
         -2   -1    0    0    0  501 -0.00000000000E+00  0.00000000000E+00  0.19263964118E+03  0.19263964119E+03  0.25500000000E-02 0. -1.
          2   -1    0    0  501    0  0.00000000000E+00 -0.00000000000E+00 -0.26139476292E+04  0.26139476292E+04  0.25500000000E-02 0.  1.
    -200001    2    1    2    0    0 -0.34280897083E+03 -0.47848706462E+02 -0.13851280192E+04  0.15538920094E+04  0.61334595299E+03 0.  0.
   -5000001    2    3    3    0    0 -0.14582570702E+03 -0.24051921139E+03 -0.11227294294E+04  0.11602191126E+04  0.80451164511E+02 0.  0.
     200001    1    1    2    0    0  0.34280897083E+03  0.47848706462E+02 -0.10361799688E+04  0.12526952610E+04  0.61300000000E+03 0.  1.
         11    1    4    4    0    0 -0.65203733438E+01  0.25111653422E+01 -0.73286029841E+02  0.73618363131E+02  0.51100000000E-03 0.  1.
    -200002    1    4    4    0    0 -0.13930533367E+03 -0.24303037674E+03 -0.10494433995E+04  0.10866007495E+04  0.30000000000E+02 0.  1.
    -200000    1    3    3    0    0 -0.19698326381E+03  0.19267050493E+03 -0.26239858986E+03  0.39367289677E+03  0.10100000000E+03 0. -1.
<mgrwt>
<rscale>  0 0.14192250E+04</rscale>
<asrwt>0</asrwt>
<pdfrwt beam="1">  1        2 0.37342107E+00 0.14192250E+04</pdfrwt>
<pdfrwt beam="2">  1       -2 0.27519950E-01 0.14192250E+04</pdfrwt>
<totfact> 0.45032666E+01</totfact>
</mgrwt>
</event>
<event>
 8    2  0.7237260E-052  0.1265286E+04  0.7818608E-02  0.9057556E-01
         -2   -1    0    0    0  501 -0.00000000000E+00  0.00000000000E+00  0.17460063163E+03  0.17460063165E+03  0.25500000000E-02 0. -1.
          2   -1    0    0  501    0  0.00000000000E+00 -0.00000000000E+00 -0.22923004951E+04  0.22923004951E+04  0.25500000000E-02 0.  1.
    -200001    2    1    2    0    0 -0.67587748645E+02 -0.80491847739E+02 -0.12808012350E+04  0.14242049315E+04  0.61388992656E+03 0.  0.
   -5000001    2    3    3    0    0 -0.23556199463E+03 -0.16419660373E+03 -0.66072978982E+03  0.76852861605E+03  0.26762361729E+03 0.  0.
     200001    1    1    2    0    0  0.67587748645E+02  0.80491847739E+02 -0.83689862847E+03  0.10426961953E+04  0.61300000000E+03 0. -1.
         11    1    4    4    0    0 -0.10387020233E+03 -0.73400457869E+02 -0.56622185877E+03  0.58033080178E+03  0.51100000000E-03 0.  1.
    -200002    1    4    4    0    0 -0.13169179230E+03 -0.90796145862E+02 -0.94507931057E+02  0.18819781427E+03  0.30000000000E+02 0.  1.
    -200000    1    3    3    0    0  0.16797424598E+03  0.83704755992E+02 -0.62007144518E+03  0.65567631543E+03  0.10100000000E+03 0.  1.
<mgrwt>
<rscale>  0 0.12652859E+04</rscale>
<asrwt>0</asrwt>
<pdfrwt beam="1">  1        2 0.32747148E+00 0.12652859E+04</pdfrwt>
<pdfrwt beam="2">  1       -2 0.24942949E-01 0.12652859E+04</pdfrwt>
<totfact> 0.80343984E+01</totfact>
</mgrwt>
</event>
<event>
 8    2  0.7237260E-052  0.1255523E+04  0.7818608E-02  0.9065599E-01
         -2   -1    0    0    0  501 -0.00000000000E+00  0.00000000000E+00  0.11317174069E+03  0.11317174072E+03  0.25500000000E-02 0. -1.
          2   -1    0    0  501    0  0.00000000000E+00 -0.00000000000E+00 -0.34821804444E+04  0.34821804444E+04  0.25500000000E-02 0.  1.
    -200001    2    1    2    0    0  0.11123923467E+03 -0.61785436290E+02 -0.18169729125E+04  0.19218003620E+04  0.61297182578E+03 0.  0.
   -5000001    2    3    3    0    0  0.19064594548E+02 -0.26830687321E+03 -0.54325793948E+03  0.62422643322E+03  0.14892083179E+03 0.  0.
     200001    1    1    2    0    0 -0.11123923467E+03  0.61785436290E+02 -0.15520357912E+04  0.16735518231E+04  0.61300000000E+03 0. -1.
         11    1    4    4    0    0 -0.14823973483E+02 -0.35853791980E+02 -0.22061124881E+03  0.22399680286E+03  0.51100000000E-03 0.  1.
    -200002    1    4    4    0    0  0.33888568030E+02 -0.23245308123E+03 -0.32264669068E+03  0.40022963036E+03  0.30000000000E+02 0.  1.
    -200000    1    3    3    0    0  0.92174640118E+02  0.20652143692E+03 -0.12737149730E+04  0.12975739288E+04  0.10100000000E+03 0.  1.
<mgrwt>
<rscale>  0 0.12555229E+04</rscale>
<asrwt>0</asrwt>
<pdfrwt beam="1">  1        2 0.49745429E+00 0.12555229E+04</pdfrwt>
<pdfrwt beam="2">  1       -2 0.16167394E-01 0.12555229E+04</pdfrwt>
<totfact> 0.38159745E+01</totfact>
</mgrwt>
</event>
<event>
 8    2  0.7237260E-052  0.2126671E+04  0.7818608E-02  0.8549585E-01
         -2   -1    0    0    0  501 -0.00000000000E+00  0.00000000000E+00  0.44376002084E+03  0.44376002085E+03  0.25500000000E-02 0. -1.
          2   -1    0    0  501    0  0.00000000000E+00 -0.00000000000E+00 -0.25479579796E+04  0.25479579796E+04  0.25500000000E-02 0.  1.
    -200001    2    1    2    0    0 -0.52672637359E+03 -0.10857288814E+03 -0.20122296314E+04  0.21710744006E+04  0.61259058027E+03 0.  0.
   -5000001    2    3    3    0    0 -0.14974723401E+03  0.12253034837E+03 -0.13639539090E+04  0.13798826478E+04  0.79170293238E+02 0.  0.
     200001    1    1    2    0    0  0.52672637359E+03  0.10857288814E+03 -0.91968327390E+02  0.82064359982E+03  0.61300000000E+03 0. -1.
         11    1    4    4    0    0 -0.13502703041E+03  0.96455578796E+02 -0.10370213028E+04  0.10502138640E+04  0.51100000000E-03 0.  1.
    -200002    1    4    4    0    0 -0.14720203602E+02  0.26074769576E+02 -0.32693260621E+03  0.32966878379E+03  0.30000000000E+02 0. -1.
    -200000    1    3    3    0    0 -0.37697913958E+03 -0.23110323651E+03 -0.64827572237E+03  0.79119175287E+03  0.10100000000E+03 0. -1.
<mgrwt>
<rscale>  0 0.21266705E+04</rscale>
<asrwt>0</asrwt>
<pdfrwt beam="1">  1        2 0.36399399E+00 0.21266705E+04</pdfrwt>
<pdfrwt beam="2">  1       -2 0.63394290E-01 0.21266705E+04</pdfrwt>
<totfact> 0.88433312E+00</totfact>
</mgrwt>
</event>
<event>
 8    2  0.7237260E-052  0.1338536E+04  0.7818608E-02  0.8999552E-01
          2   -1    0    0  501    0  0.00000000000E+00  0.00000000000E+00  0.91800662531E+03  0.91800662531E+03  0.25500000000E-02 0.  1.
         -2   -1    0    0    0  501 -0.00000000000E+00 -0.00000000000E+00 -0.48792642719E+03  0.48792642720E+03  0.25500000000E-02 0. -1.
    -200001    2    1    2    0    0 -0.22972374256E+03  0.13461342417E+03  0.23701411599E+03  0.71027704274E+03  0.61434844706E+03 0.  0.
   -5000001    2    3    3    0    0 -0.15704819147E+03 -0.21405674357E+02  0.40787781117E+03  0.44756218370E+03  0.93942866148E+02 0.  0.
     200001    1    1    2    0    0  0.22972374256E+03 -0.13461342417E+03  0.19306608212E+03  0.69565600977E+03  0.61300000000E+03 0. -1.
         11    1    4    4    0    0 -0.74507845797E+01 -0.29584171545E+02  0.52339139018E+02  0.60581539022E+02  0.51100000000E-03 0.  1.
    -200002    1    4    4    0    0 -0.14959740689E+03  0.81784971871E+01  0.35553867215E+03  0.38698064468E+03  0.30000000000E+02 0.  1.
    -200000    1    3    3    0    0 -0.72675551084E+02  0.15601909852E+03 -0.17086369517E+03  0.26271485904E+03  0.10100000000E+03 0. -1.
<mgrwt>
<rscale>  0 0.13385361E+04</rscale>
<asrwt>0</asrwt>
<pdfrwt beam="1">  1        2 0.13114381E+00 0.13385361E+04</pdfrwt>
<pdfrwt beam="2">  1       -2 0.69703774E-01 0.13385361E+04</pdfrwt>
<totfact> 0.58135300E+01</totfact>
</mgrwt>
</event>
<event>
 8    2  0.7237260E-052  0.1311139E+04  0.7818608E-02  0.9020778E-01
         -2   -1    0    0    0  501 -0.00000000000E+00  0.00000000000E+00  0.13241963202E+03  0.13241963204E+03  0.25500000000E-02 0. -1.
          2   -1    0    0  501    0  0.00000000000E+00 -0.00000000000E+00 -0.32455264232E+04  0.32455264232E+04  0.25500000000E-02 0.  1.
    -200001    2    1    2    0    0 -0.17515492498E+03 -0.23025534713E+02 -0.11698302346E+04  0.13326338056E+04  0.61335198636E+03 0.  0.
   -5000001    2    3    3    0    0  0.72361644741E+02 -0.88722033126E+02 -0.26082246654E+01  0.13338875034E+03  0.68395534142E+02 0.  0.
     200001    1    1    2    0    0  0.17515492498E+03  0.23025534713E+02 -0.19432765566E+04  0.20453122496E+04  0.61300000000E+03 0.  1.
         11    1    4    4    0    0  0.54446490986E+02 -0.80927994052E+02 -0.78844324936E+00  0.97541694906E+02  0.51100000000E-03 0.  1.
    -200002    1    4    4    0    0  0.17915153755E+02 -0.77940390734E+01 -0.18197814160E+01  0.35847055437E+02  0.30000000000E+02 0.  1.
    -200000    1    3    3    0    0 -0.24751656972E+03  0.65696498413E+02 -0.11672220099E+04  0.11992450553E+04  0.10100000000E+03 0.  1.
<mgrwt>
<rscale>  0 0.13111391E+04</rscale>
<asrwt>0</asrwt>
<pdfrwt beam="1">  1        2 0.46364659E+00 0.13111391E+04</pdfrwt>
<pdfrwt beam="2">  1       -2 0.18917092E-01 0.13111391E+04</pdfrwt>
<totfact> 0.39889576E+01</totfact>
</mgrwt>
</event>
<event>
 8    2  0.7237260E-052  0.1591713E+04  0.7818608E-02  0.8825655E-01
          2   -1    0    0  501    0  0.00000000000E+00  0.00000000000E+00  0.16951233254E+04  0.16951233254E+04  0.25500000000E-02 0.  1.
         -2   -1    0    0    0  501 -0.00000000000E+00 -0.00000000000E+00 -0.37365265438E+03  0.37365265439E+03  0.25500000000E-02 0. -1.
    -200001    2    1    2    0    0 -0.27316390652E+03  0.36189568106E+03  0.37385469795E+03  0.85249803614E+03  0.61757474257E+03 0.  0.
   -5000001    2    3    3    0    0 -0.20347950785E+03  0.22293082085E+03  0.52734773369E+03  0.61181513311E+03  0.71554621637E+02 0.  0.
     200001    1    1    2    0    0  0.27316390652E+03 -0.36189568106E+03  0.94761597311E+03  0.12162779437E+04  0.61300000000E+03 0.  1.
         11    1    4    4    0    0 -0.17692142324E+02  0.15481158764E+01  0.49164313978E+02  0.52273686803E+02  0.51100000000E-03 0.  1.
    -200002    1    4    4    0    0 -0.18578736553E+03  0.22138270498E+03  0.47818341971E+03  0.55954144631E+03  0.30000000000E+02 0.  1.
    -200000    1    3    3    0    0 -0.69684398666E+02  0.13896486021E+03 -0.15349303574E+03  0.24068290303E+03  0.10100000000E+03 0. -1.
<mgrwt>
<rscale>  0 0.15917127E+04</rscale>
<asrwt>0</asrwt>
<pdfrwt beam="1">  1        2 0.24216048E+00 0.15917127E+04</pdfrwt>
<pdfrwt beam="2">  1       -2 0.53378948E-01 0.15917127E+04</pdfrwt>
<totfact> 0.36689052E+01</totfact>
</mgrwt>
</event>
<event>
 8    2  0.7237260E-052  0.1480613E+04  0.7818608E-02  0.8897448E-01
          2   -1    0    0  501    0  0.00000000000E+00  0.00000000000E+00  0.13933725676E+04  0.13933725676E+04  0.25500000000E-02 0.  1.
         -2   -1    0    0    0  501 -0.00000000000E+00 -0.00000000000E+00 -0.39332912463E+03  0.39332912463E+03  0.25500000000E-02 0. -1.
    -200001    2    1    2    0    0 -0.20948583013E+03  0.17310223503E+03  0.12095757747E+03  0.68107532871E+03  0.61268602973E+03 0.  0.
   -5000001    2    3    3    0    0 -0.17350677766E+03  0.50120254740E+02 -0.21954381397E+03  0.30350247843E+03  0.10629029275E+03 0.  0.
     200001    1    1    2    0    0  0.20948583013E+03 -0.17310223503E+03  0.87908586551E+03  0.11056263635E+04  0.61300000000E+03 0.  1.
         11    1    4    4    0    0 -0.14451961797E+03  0.80596304090E+00 -0.16067157991E+03  0.21610628438E+03  0.51100000000E-03 0.  1.
    -200002    1    4    4    0    0 -0.28987159693E+02  0.49314291699E+02 -0.58872234058E+02  0.87396194058E+02  0.30000000000E+02 0. -1.
    -200000    1    3    3    0    0 -0.35979052469E+02  0.12298198029E+03  0.34050139144E+03  0.37757285027E+03  0.10100000000E+03 0.  1.
<mgrwt>
<rscale>  0 0.14806134E+04</rscale>
<asrwt>0</asrwt>
<pdfrwt beam="1">  1        2 0.19905323E+00 0.14806134E+04</pdfrwt>
<pdfrwt beam="2">  1       -2 0.56189874E-01 0.14806134E+04</pdfrwt>
<totfact> 0.48059642E+01</totfact>
</mgrwt>
</event>
<event>
 8    2  0.7237260E-052  0.1300159E+04  0.7818608E-02  0.9029439E-01
          2   -1    0    0  501    0  0.00000000000E+00  0.00000000000E+00  0.19125103656E+04  0.19125103656E+04  0.25500000000E-02 0.  1.
         -2   -1    0    0    0  501 -0.00000000000E+00 -0.00000000000E+00 -0.22096804261E+03  0.22096804262E+03  0.25500000000E-02 0. -1.
    -200001    2    1    2    0    0  0.12274108186E+03 -0.13535552632E+03  0.10247378983E+04  0.12094742781E+04  0.61591702161E+03 0.  0.
   -5000001    2    3    3    0    0 -0.11423027044E+03  0.69261602573E+02  0.78996379602E+03  0.80531654856E+03  0.81524352665E+02 0.  0.
     200001    1    1    2    0    0 -0.12274108186E+03  0.13535552632E+03  0.66680442468E+03  0.92400413011E+03  0.61300000000E+03 0. -1.
         11    1    4    4    0    0 -0.52797485285E+02  0.14872887800E+02  0.48482403948E+03  0.48791713077E+03  0.51100000000E-03 0.  1.
    -200002    1    4    4    0    0 -0.61432785157E+02  0.54388714773E+02  0.30513975654E+03  0.31739941778E+03  0.30000000000E+02 0.  1.
    -200000    1    3    3    0    0  0.23697135230E+03 -0.20461712890E+03  0.23477410225E+03  0.40415772953E+03  0.10100000000E+03 0. -1.
<mgrwt>
<rscale>  0 0.13001595E+04</rscale>
<asrwt>0</asrwt>
<pdfrwt beam="1">  1        2 0.27321577E+00 0.13001595E+04</pdfrwt>
<pdfrwt beam="2">  1       -2 0.31566862E-01 0.13001595E+04</pdfrwt>
<totfact> 0.81352649E+01</totfact>
</mgrwt>
</event>
<event>
 8    2  0.7237260E-052  0.1336994E+04  0.7818608E-02  0.9000732E-01
          2   -1    0    0  501    0  0.00000000000E+00  0.00000000000E+00  0.18890933098E+04  0.18890933098E+04  0.25500000000E-02 0.  1.
         -2   -1    0    0    0  501 -0.00000000000E+00 -0.00000000000E+00 -0.23656244693E+03  0.23656244695E+03  0.25500000000E-02 0. -1.
    -200001    2    1    2    0    0  0.11267171927E+01  0.14686611058E+03  0.47420757400E+03  0.78932282779E+03  0.61366666792E+03 0.  0.
   -5000001    2    3    3    0    0 -0.14977133205E+03  0.12541624849E+03  0.55308866941E+03  0.59019084879E+03  0.65249325500E+02 0.  0.
     200001    1    1    2    0    0 -0.11267171927E+01 -0.14686611058E+03  0.11783232889E+04  0.13363329290E+04  0.61300000000E+03 0.  1.
         11    1    4    4    0    0 -0.52643987774E+01  0.28110339212E+02  0.93495560212E+02  0.97771799844E+02  0.51100000000E-03 0.  1.
    -200002    1    4    4    0    0 -0.14450693327E+03  0.97305909279E+02  0.45959310920E+03  0.49241904895E+03  0.30000000000E+02 0.  1.
    -200000    1    3    3    0    0  0.15089804924E+03  0.21449862085E+02 -0.78881095410E+02  0.19913197900E+03  0.10100000000E+03 0. -1.
<mgrwt>
<rscale>  0 0.13369944E+04</rscale>
<asrwt>0</asrwt>
<pdfrwt beam="1">  1        2 0.26987046E+00 0.13369944E+04</pdfrwt>
<pdfrwt beam="2">  1       -2 0.33794637E-01 0.13369944E+04</pdfrwt>
<totfact> 0.73334146E+01</totfact>
</mgrwt>
</event>
<event>
 8    2  0.7237260E-052  0.1658591E+04  0.7818608E-02  0.8785340E-01
         -2   -1    0    0    0  501 -0.00000000000E+00  0.00000000000E+00  0.15479734639E+03  0.15479734641E+03  0.25500000000E-02 0. -1.
          2   -1    0    0  501    0  0.00000000000E+00 -0.00000000000E+00 -0.44427846014E+04  0.44427846014E+04  0.25500000000E-02 0.  1.
    -200001    2    1    2    0    0  0.33753299285E+03  0.35153484206E+03 -0.13865102367E+04  0.15922794416E+04  0.61272988913E+03 0.  0.
   -5000001    2    3    3    0    0  0.55812887735E+02  0.19740142402E+03 -0.11696868953E+04  0.11918588008E+04  0.10137833732E+03 0.  0.
     200001    1    1    2    0    0 -0.33753299285E+03 -0.35153484206E+03 -0.29014770182E+04  0.30053025062E+04  0.61300000000E+03 0.  1.
         11    1    4    4    0    0  0.35848346561E+02  0.17035507306E+03 -0.75904111997E+03  0.77874859658E+03  0.51100000000E-03 0.  1.
    -200002    1    4    4    0    0  0.19964541174E+02  0.27046350961E+02 -0.41064577536E+03  0.41311020422E+03  0.30000000000E+02 0.  1.
    -200000    1    3    3    0    0  0.28172010511E+03  0.15413341804E+03 -0.21682334141E+03  0.40042064078E+03  0.10100000000E+03 0. -1.
<mgrwt>
<rscale>  0 0.16585913E+04</rscale>
<asrwt>0</asrwt>
<pdfrwt beam="1">  1        2 0.63468343E+00 0.16585913E+04</pdfrwt>
<pdfrwt beam="2">  1       -2 0.22113909E-01 0.16585913E+04</pdfrwt>
<totfact> 0.47047199E+00</totfact>
</mgrwt>
</event>
<event>
 8    2  0.7237260E-052  0.1581142E+04  0.7818608E-02  0.8832218E-01
         -2   -1    0    0    0  501 -0.00000000000E+00  0.00000000000E+00  0.81888428314E+03  0.81888428315E+03  0.25500000000E-02 0. -1.
          2   -1    0    0  501    0  0.00000000000E+00 -0.00000000000E+00 -0.76323646428E+03  0.76323646429E+03  0.25500000000E-02 0.  1.
    -200001    2    1    2    0    0 -0.41066846597E+03  0.23156679799E+02  0.31065646840E+03  0.80110651447E+03  0.61325311691E+03 0.  0.
   -5000001    2    3    3    0    0 -0.60114147390E+02  0.36008185463E+02 -0.16435060816E+03  0.20203538826E+03  0.94323250418E+02 0.  0.
     200001    1    1    2    0    0  0.41066846597E+03 -0.23156679799E+02 -0.25500864954E+03  0.78101423297E+03  0.61300000000E+03 0.  1.
         11    1    4    4    0    0 -0.51588942742E+02 -0.62117513065E+01 -0.12811875493E+03  0.13825491034E+03  0.51100000000E-03 0.  1.
    -200002    1    4    4    0    0 -0.85252046472E+01  0.42219936770E+02 -0.36231853227E+02  0.63780477918E+02  0.30000000000E+02 0.  1.
    -200000    1    3    3    0    0 -0.35055431858E+03 -0.12851505665E+02  0.47500707656E+03  0.59907112621E+03  0.10100000000E+03 0. -1.
<mgrwt>
<rscale>  0 0.15811418E+04</rscale>
<asrwt>0</asrwt>
<pdfrwt beam="1">  1        2 0.10903378E+00 0.15811418E+04</pdfrwt>
<pdfrwt beam="2">  1       -2 0.11698347E+00 0.15811418E+04</pdfrwt>
<totfact> 0.21976087E+01</totfact>
</mgrwt>
</event>
<event>
 8    2  0.7237260E-052  0.1641835E+04  0.7818608E-02  0.8795252E-01
         -2   -1    0    0    0  501 -0.00000000000E+00  0.00000000000E+00  0.37911507452E+03  0.37911507453E+03  0.25500000000E-02 0. -1.
          2   -1    0    0  501    0  0.00000000000E+00 -0.00000000000E+00 -0.17775740843E+04  0.17775740843E+04  0.25500000000E-02 0.  1.
    -200001    2    1    2    0    0  0.18777550504E+02 -0.28618341726E+03 -0.89786583971E+02  0.68337790089E+03  0.61375091043E+03 0.  0.
   -5000001    2    3    3    0    0 -0.11484675263E+03  0.90798437424E+02 -0.19649893195E+03  0.25728014408E+03  0.78403504068E+02 0.  0.
     200001    1    1    2    0    0 -0.18777550504E+02  0.28618341726E+03 -0.13086724258E+04  0.14733112580E+04  0.61300000000E+03 0.  1.
         11    1    4    4    0    0  0.12137345101E+01  0.11239817916E+01  0.55627859329E+01  0.58035397927E+01  0.51100000000E-03 0.  1.
    -200002    1    4    4    0    0 -0.11606048714E+03  0.89674455633E+02 -0.20206171788E+03  0.25147660428E+03  0.30000000000E+02 0.  1.
    -200000    1    3    3    0    0  0.13362430314E+03 -0.37698185469E+03  0.10671234798E+03  0.42609775682E+03  0.10100000000E+03 0.  1.
<mgrwt>
<rscale>  0 0.16418345E+04</rscale>
<asrwt>0</asrwt>
<pdfrwt beam="1">  1        2 0.25393915E+00 0.16418345E+04</pdfrwt>
<pdfrwt beam="2">  1       -2 0.54159297E-01 0.16418345E+04</pdfrwt>
<totfact> 0.32139709E+01</totfact>
</mgrwt>
</event>
<event>
 8    2  0.7237260E-052  0.1527922E+04  0.7818608E-02  0.8866095E-01
          2   -1    0    0  501    0  0.00000000000E+00  0.00000000000E+00  0.28188623847E+04  0.28188623847E+04  0.25500000000E-02 0.  1.
         -2   -1    0    0    0  501 -0.00000000000E+00 -0.00000000000E+00 -0.20704668070E+03  0.20704668072E+03  0.25500000000E-02 0. -1.
    -200001    2    1    2    0    0  0.34728397852E+03 -0.10359174393E+03  0.18537380796E+04  0.19858186387E+04  0.61301989115E+03 0.  0.
   -5000001    2    3    3    0    0 -0.12126979509E+02 -0.27456453374E+03  0.56334576057E+03  0.63166899092E+03  0.78195404706E+02 0.  0.
     200001    1    1    2    0    0 -0.34728397852E+03  0.10359174393E+03  0.75807762443E+03  0.10400904267E+04  0.61300000000E+03 0.  1.
         11    1    4    4    0    0  0.18494685670E+02 -0.16909428761E+03  0.30219325070E+03  0.34677902513E+03  0.51100000000E-03 0.  1.
    -200002    1    4    4    0    0 -0.30621665179E+02 -0.10547024613E+03  0.26115250987E+03  0.28488996579E+03  0.30000000000E+02 0.  1.
    -200000    1    3    3    0    0  0.35941095803E+03  0.17097278981E+03  0.12903923190E+04  0.13541496478E+04  0.10100000000E+03 0. -1.
<mgrwt>
<rscale>  0 0.15279216E+04</rscale>
<asrwt>0</asrwt>
<pdfrwt beam="1">  1        2 0.40269460E+00 0.15279216E+04</pdfrwt>
<pdfrwt beam="2">  1       -2 0.29578099E-01 0.15279216E+04</pdfrwt>
<totfact> 0.30312034E+01</totfact>
</mgrwt>
</event>
<event>
 8    2  0.7237260E-052  0.1345485E+04  0.7818608E-02  0.8994253E-01
         -2   -1    0    0    0  501 -0.00000000000E+00  0.00000000000E+00  0.49451820835E+03  0.49451820836E+03  0.25500000000E-02 0. -1.
          2   -1    0    0  501    0  0.00000000000E+00 -0.00000000000E+00 -0.91519830563E+03  0.91519830563E+03  0.25500000000E-02 0.  1.
    -200001    2    1    2    0    0 -0.71894894206E+01  0.20819678282E+03 -0.40106865491E+03  0.76198879511E+03  0.61349268031E+03 0.  0.
   -5000001    2    3    3    0    0 -0.28433197542E+03  0.18826149553E+03 -0.19843205289E+03  0.40356451343E+03  0.84864444491E+02 0.  0.
     200001    1    1    2    0    0  0.71894894206E+01 -0.20819678282E+03 -0.19611442367E+02  0.64772771888E+03  0.61300000000E+03 0. -1.
         11    1    4    4    0    0 -0.10048280922E+03  0.45055953606E+02 -0.10022426489E+03  0.14890177023E+03  0.51100000000E-03 0.  1.
    -200002    1    4    4    0    0 -0.18384916620E+03  0.14320554193E+03 -0.98207788004E+02  0.25466274320E+03  0.30000000000E+02 0.  1.
    -200000    1    3    3    0    0  0.27714248600E+03  0.19935287289E+02 -0.20263660201E+03  0.35842428168E+03  0.10100000000E+03 0.  1.
<mgrwt>
<rscale>  0 0.13454846E+04</rscale>
<asrwt>0</asrwt>
<pdfrwt beam="1">  1        2 0.13074261E+00 0.13454846E+04</pdfrwt>
<pdfrwt beam="2">  1       -2 0.70645458E-01 0.13454846E+04</pdfrwt>
<totfact> 0.56665472E+01</totfact>
</mgrwt>
</event>
<event>
 8    2  0.7237260E-052  0.1293350E+04  0.7818608E-02  0.9034855E-01
         -2   -1    0    0    0  501 -0.00000000000E+00  0.00000000000E+00  0.61472190886E+03  0.61472190886E+03  0.25500000000E-02 0.  1.
          2   -1    0    0  501    0  0.00000000000E+00 -0.00000000000E+00 -0.68028937662E+03  0.68028937663E+03  0.25500000000E-02 0. -1.
    -200001    2    1    2    0    0  0.66838832583E+02  0.19611138187E+03 -0.36449313008E+02  0.64728914555E+03  0.61214996683E+03 0.  0.
   -5000001    2    3    3    0    0 -0.34296799877E+02 -0.11213097078E+03  0.19005057675E+03  0.23894497186E+03  0.85005016102E+02 0.  0.
     200001    1    1    2    0    0 -0.66838832583E+02 -0.19611138187E+03 -0.29118154758E+02  0.64772213995E+03  0.61300000000E+03 0.  1.
         11    1    4    4    0    0  0.85141319814E+01 -0.75485515004E+02  0.71618346445E+02  0.10440182454E+03  0.51100000000E-03 0.  1.
    -200002    1    4    4    0    0 -0.42810931859E+02 -0.36645455778E+02  0.11843223031E+03  0.13454314732E+03  0.30000000000E+02 0.  1.
    -200000    1    3    3    0    0  0.10113563246E+03  0.30824235265E+03 -0.22649988976E+03  0.40834417369E+03  0.10100000000E+03 0. -1.
<mgrwt>
<rscale>  0 0.12933504E+04</rscale>
<asrwt>0</asrwt>
<pdfrwt beam="1">  1        2 0.97184196E-01 0.12933504E+04</pdfrwt>
<pdfrwt beam="2">  1       -2 0.87817416E-01 0.12933504E+04</pdfrwt>
<totfact> 0.51209562E+01</totfact>
</mgrwt>
</event>
<event>
 8    2  0.7237260E-052  0.1754775E+04  0.7818608E-02  0.8730726E-01
         -2   -1    0    0    0  501 -0.00000000000E+00  0.00000000000E+00  0.38455731302E+03  0.38455731302E+03  0.25500000000E-02 0. -1.
          2   -1    0    0  501    0  0.00000000000E+00 -0.00000000000E+00 -0.20018044246E+04  0.20018044246E+04  0.25500000000E-02 0.  1.
    -200001    2    1    2    0    0  0.11251456767E+03  0.36471482798E+03 -0.14866640219E+04  0.16525379325E+04  0.61240123318E+03 0.  0.
   -5000001    2    3    3    0    0  0.34217938785E+02 -0.76518821103E+02 -0.69334384376E+03  0.73581801869E+03  0.23168183710E+03 0.  0.
     200001    1    1    2    0    0 -0.11251456767E+03 -0.36471482798E+03 -0.13058308961E+03  0.73382380513E+03  0.61300000000E+03 0.  1.
         11    1    4    4    0    0 -0.63144440430E+02  0.31166434963E+02 -0.41035008004E+03  0.41634811783E+03  0.51100000000E-03 0.  1.
    -200002    1    4    4    0    0  0.97362379216E+02 -0.10768525607E+03 -0.28299376371E+03  0.31946990087E+03  0.30000000000E+02 0.  1.
    -200000    1    3    3    0    0  0.78296628882E+02  0.44123364908E+03 -0.79332017819E+03  0.91671991377E+03  0.10100000000E+03 0. -1.
<mgrwt>
<rscale>  0 0.17547747E+04</rscale>
<asrwt>0</asrwt>
<pdfrwt beam="1">  1        2 0.28597205E+00 0.17547747E+04</pdfrwt>
<pdfrwt beam="2">  1       -2 0.54936760E-01 0.17547747E+04</pdfrwt>
<totfact> 0.23699267E+01</totfact>
</mgrwt>
</event>
<event>
 8    2  0.7237260E-052  0.1462825E+04  0.7818608E-02  0.8909557E-01
          2   -1    0    0  501    0  0.00000000000E+00  0.00000000000E+00  0.21510012283E+04  0.21510012283E+04  0.25500000000E-02 0.  1.
         -2   -1    0    0    0  501 -0.00000000000E+00 -0.00000000000E+00 -0.24870487611E+03  0.24870487612E+03  0.25500000000E-02 0. -1.
    -200001    2    1    2    0    0  0.23297859132E+03  0.16321603717E+03  0.14100143258E+04  0.15636265075E+04  0.61308152583E+03 0.  0.
   -5000001    2    3    3    0    0  0.32334999482E+03  0.14474900307E+03  0.13742522625E+04  0.14222477712E+04  0.93337819511E+02 0.  0.
     200001    1    1    2    0    0 -0.23297859132E+03 -0.16321603717E+03  0.49228202638E+03  0.83607959687E+03  0.61300000000E+03 0. -1.
         11    1    4    4    0    0  0.20444084904E+03  0.10424134764E+03  0.73162482723E+03  0.76677063528E+03  0.51100000000E-03 0.  1.
    -200002    1    4    4    0    0  0.11890914578E+03  0.40507655432E+02  0.64262743528E+03  0.65547713589E+03  0.30000000000E+02 0.  1.
    -200000    1    3    3    0    0 -0.90371403504E+02  0.18467034096E+02  0.35762063260E+02  0.14137873634E+03  0.10100000000E+03 0. -1.
<mgrwt>
<rscale>  0 0.14628253E+04</rscale>
<asrwt>0</asrwt>
<pdfrwt beam="1">  1        2 0.30728589E+00 0.14628253E+04</pdfrwt>
<pdfrwt beam="2">  1       -2 0.35529268E-01 0.14628253E+04</pdfrwt>
<totfact> 0.48430539E+01</totfact>
</mgrwt>
</event>
<event>
 8    2  0.7237260E-052  0.2423859E+04  0.7818608E-02  0.8430625E-01
         -2   -1    0    0    0  501 -0.00000000000E+00  0.00000000000E+00  0.68725657931E+03  0.68725657931E+03  0.25500000000E-02 0. -1.
          2   -1    0    0  501    0  0.00000000000E+00 -0.00000000000E+00 -0.21371541869E+04  0.21371541869E+04  0.25500000000E-02 0.  1.
    -200001    2    1    2    0    0  0.66026739765E+03 -0.70130985313E+03 -0.11980647261E+04  0.16552327016E+04  0.61371627177E+03 0.  0.
   -5000001    2    3    3    0    0  0.74538452162E+03 -0.67249157473E+03 -0.10474690323E+04  0.14528580961E+04  0.75909622531E+02 0.  0.
     200001    1    1    2    0    0 -0.66026739765E+03  0.70130985313E+03 -0.25183288154E+03  0.11691780646E+04  0.61300000000E+03 0.  1.
         11    1    4    4    0    0  0.32352021654E+03 -0.32992637488E+03 -0.45960835937E+03  0.65173352480E+03  0.51100000000E-03 0.  1.
    -200002    1    4    4    0    0  0.42186430508E+03 -0.34256519985E+03 -0.58786067292E+03  0.80112457135E+03  0.30000000000E+02 0.  1.
    -200000    1    3    3    0    0 -0.85117123972E+02 -0.28818278406E+02 -0.15059569376E+03  0.20237460548E+03  0.10100000000E+03 0. -1.
<mgrwt>
<rscale>  0 0.24238591E+04</rscale>
<asrwt>0</asrwt>
<pdfrwt beam="1">  1        2 0.30530774E+00 0.24238591E+04</pdfrwt>
<pdfrwt beam="2">  1       -2 0.98179512E-01 0.24238591E+04</pdfrwt>
<totfact> 0.53065848E+00</totfact>
</mgrwt>
</event>
<event>
 8    2  0.7237260E-052  0.1614687E+04  0.7818608E-02  0.8811575E-01
          2   -1    0    0  501    0  0.00000000000E+00  0.00000000000E+00  0.17467162634E+04  0.17467162634E+04  0.25500000000E-02 0.  1.
         -2   -1    0    0    0  501 -0.00000000000E+00 -0.00000000000E+00 -0.37315957443E+03  0.37315957444E+03  0.25500000000E-02 0. -1.
    -200001    2    1    2    0    0 -0.15048717831E+02  0.13153553624E+03  0.19492257271E+02  0.62763338220E+03  0.61320115228E+03 0.  0.
   -5000001    2    3    3    0    0 -0.16349392121E+03 -0.33138604154E+02  0.22468557007E+03  0.30910732905E+03  0.13128330479E+03 0.  0.
     200001    1    1    2    0    0  0.15048717831E+02 -0.13153553624E+03  0.13540644317E+04  0.14922424557E+04  0.61300000000E+03 0.  1.
         11    1    4    4    0    0  0.16743006382E+01  0.23325260430E+02  0.48588479629E+00  0.23390321526E+02  0.51100000000E-03 0.  1.
    -200002    1    4    4    0    0 -0.16516822185E+03 -0.56463864585E+02  0.22419968527E+03  0.28571700753E+03  0.30000000000E+02 0.  1.
    -200000    1    3    3    0    0  0.14844520338E+03  0.16467414039E+03 -0.20519331280E+03  0.31852605315E+03  0.10100000000E+03 0. -1.
<mgrwt>
<rscale>  0 0.16146875E+04</rscale>
<asrwt>0</asrwt>
<pdfrwt beam="1">  1        2 0.24953089E+00 0.16146875E+04</pdfrwt>
<pdfrwt beam="2">  1       -2 0.53308511E-01 0.16146875E+04</pdfrwt>
<totfact> 0.34526622E+01</totfact>
</mgrwt>
</event>
<event>
 8    2  0.7237260E-052  0.1400077E+04  0.7818608E-02  0.8953763E-01
          2   -1    0    0  501    0  0.00000000000E+00  0.00000000000E+00  0.16748196627E+04  0.16748196627E+04  0.25500000000E-02 0.  1.
         -2   -1    0    0    0  501 -0.00000000000E+00 -0.00000000000E+00 -0.29260109736E+03  0.29260109737E+03  0.25500000000E-02 0. -1.
    -200001    2    1    2    0    0 -0.89017947421E+01 -0.21907325361E+03  0.10530428236E+04  0.12379017395E+04  0.61272277256E+03 0.  0.
   -5000001    2    3    3    0    0 -0.61883685356E+02 -0.17234226898E+03  0.31286823940E+03  0.48753497538E+03  0.32599443063E+03 0.  0.
     200001    1    1    2    0    0  0.89017947421E+01  0.21907325361E+03  0.32917574177E+03  0.72951902057E+03  0.61300000000E+03 0. -1.
         11    1    4    4    0    0  0.77772318893E+01 -0.11744869543E+03 -0.38550296103E+02  0.12385801033E+03  0.51100000000E-03 0.  1.
    -200002    1    4    4    0    0 -0.69660917245E+02 -0.54893573555E+02  0.35141853550E+03  0.36367696504E+03  0.30000000000E+02 0.  1.
    -200000    1    3    3    0    0  0.52981890614E+02 -0.46730984624E+02  0.74017458420E+03  0.75036676416E+03  0.10100000000E+03 0.  1.
<mgrwt>
<rscale>  0 0.14000772E+04</rscale>
<asrwt>0</asrwt>
<pdfrwt beam="1">  1        2 0.23925995E+00 0.14000772E+04</pdfrwt>
<pdfrwt beam="2">  1       -2 0.41800157E-01 0.14000772E+04</pdfrwt>
<totfact> 0.62445861E+01</totfact>
</mgrwt>
</event>
<event>
 8    2  0.7237260E-052  0.1525938E+04  0.7818608E-02  0.8867385E-01
          2   -1    0    0  501    0  0.00000000000E+00  0.00000000000E+00  0.21713264653E+04  0.21713264653E+04  0.25500000000E-02 0.  1.
         -2   -1    0    0    0  501 -0.00000000000E+00 -0.00000000000E+00 -0.26809511776E+03  0.26809511777E+03  0.25500000000E-02 0. -1.
    -200001    2    1    2    0    0 -0.40545759894E+03 -0.15986674712E+03  0.74077243246E+03  0.10548519855E+04  0.61156820810E+03 0.  0.
   -5000001    2    3    3    0    0 -0.52529510416E+02  0.20226520684E+03  0.15261794492E+03  0.27265988056E+03  0.85910476621E+02 0.  0.
     200001    1    1    2    0    0  0.40545759894E+03  0.15986674712E+03  0.11624589151E+04  0.13845695976E+04  0.61300000000E+03 0.  1.
         11    1    4    4    0    0 -0.33340534746E+02  0.19738203414E+02  0.37639557046E+02  0.54017813599E+02  0.51100000000E-03 0.  1.
    -200002    1    4    4    0    0 -0.19188975669E+02  0.18252700343E+03  0.11497838787E+03  0.21864206696E+03  0.30000000000E+02 0.  1.
    -200000    1    3    3    0    0 -0.35292808853E+03 -0.36213195396E+03  0.58815448754E+03  0.78219210490E+03  0.10100000000E+03 0.  1.
<mgrwt>
<rscale>  0 0.15259384E+04</rscale>
<asrwt>0</asrwt>
<pdfrwt beam="1">  1        2 0.31018949E+00 0.15259384E+04</pdfrwt>
<pdfrwt beam="2">  1       -2 0.38299303E-01 0.15259384E+04</pdfrwt>
<totfact> 0.40703617E+01</totfact>
</mgrwt>
</event>
<event>
 8    2  0.7237260E-052  0.1277803E+04  0.7818608E-02  0.9047355E-01
         -2   -1    0    0    0  501 -0.00000000000E+00  0.00000000000E+00  0.50585794823E+03  0.50585794824E+03  0.25500000000E-02 0. -1.
          2   -1    0    0  501    0  0.00000000000E+00 -0.00000000000E+00 -0.80693650044E+03  0.80693650044E+03  0.25500000000E-02 0.  1.
    -200001    2    1    2    0    0  0.10668181126E+03 -0.13515223492E+03 -0.20487899922E+03  0.66884531291E+03  0.61296942243E+03 0.  0.
   -5000001    2    3    3    0    0  0.92389912232E+02  0.20321732155E+03 -0.20590100647E+03  0.31543300467E+03  0.85261833840E+02 0.  0.
     200001    1    1    2    0    0 -0.10668181126E+03  0.13515223492E+03 -0.96199552987E+02  0.64394913577E+03  0.61300000000E+03 0. -1.
         11    1    4    4    0    0  0.70601632031E+02  0.12453517970E+03 -0.84981705908E+02  0.16647970377E+03  0.51100000000E-03 0.  1.
    -200002    1    4    4    0    0  0.21788280201E+02  0.78682141846E+02 -0.12091930056E+03  0.14895330090E+03  0.30000000000E+02 0.  1.
    -200000    1    3    3    0    0  0.14291899028E+02 -0.33836955647E+03  0.10220072511E+01  0.35341230825E+03  0.10100000000E+03 0. -1.
<mgrwt>
<rscale>  0 0.12778032E+04</rscale>
<asrwt>0</asrwt>
<pdfrwt beam="1">  1        2 0.11527664E+00 0.12778032E+04</pdfrwt>
<pdfrwt beam="2">  1       -2 0.72265421E-01 0.12778032E+04</pdfrwt>
<totfact> 0.64049731E+01</totfact>
</mgrwt>
</event>
<event>
 8    2  0.7237260E-052  0.1577942E+04  0.7818608E-02  0.8834215E-01
          2   -1    0    0  501    0  0.00000000000E+00  0.00000000000E+00  0.34649374183E+03  0.34649374184E+03  0.25500000000E-02 0.  1.
         -2   -1    0    0    0  501 -0.00000000000E+00 -0.00000000000E+00 -0.17964984666E+04  0.17964984666E+04  0.25500000000E-02 0. -1.
    -200001    2    1    2    0    0 -0.11283286153E+03 -0.45583900744E+03 -0.50544546968E+03  0.92295874917E+03  0.61307199782E+03 0.  0.
   -5000001    2    3    3    0    0 -0.22241850655E+03 -0.28344326145E+03 -0.55978014737E+03  0.68868846930E+03  0.17643106255E+03 0.  0.
     200001    1    1    2    0    0  0.11283286153E+03  0.45583900744E+03 -0.94455925510E+03  0.12200334593E+04  0.61300000000E+03 0. -1.
         11    1    4    4    0    0 -0.15538938625E+03 -0.12201050863E+03 -0.41543644144E+03  0.46002158911E+03  0.51100000000E-03 0.  1.
    -200002    1    4    4    0    0 -0.67029120307E+02 -0.16143275282E+03 -0.14434370594E+03  0.22866688019E+03  0.30000000000E+02 0.  1.
    -200000    1    3    3    0    0  0.10958564503E+03 -0.17239574600E+03  0.54334677694E+02  0.23427027988E+03  0.10100000000E+03 0.  1.
<mgrwt>
<rscale>  0 0.15779423E+04</rscale>
<asrwt>0</asrwt>
<pdfrwt beam="1">  1        2 0.49499107E-01 0.15779423E+04</pdfrwt>
<pdfrwt beam="2">  1       -2 0.25664263E+00 0.15779423E+04</pdfrwt>
<totfact> 0.57231722E+00</totfact>
</mgrwt>
</event>
<event>
 8    2  0.7237260E-052  0.1305622E+04  0.7818608E-02  0.9025119E-01
          2   -1    0    0  501    0  0.00000000000E+00  0.00000000000E+00  0.49860414293E+04  0.49860414293E+04  0.25500000000E-02 0.  1.
         -2   -1    0    0    0  501 -0.00000000000E+00 -0.00000000000E+00 -0.85471057162E+02  0.85471057200E+02  0.25500000000E-02 0. -1.
    -200001    2    1    2    0    0 -0.21303549644E+03 -0.11753271301E+01  0.27280437350E+04  0.28041293047E+04  0.61280750090E+03 0.  0.
   -5000001    2    3    3    0    0  0.10954457814E+03 -0.18981367428E+03  0.71773628168E+03  0.75689229168E+03  0.98546058370E+02 0.  0.
     200001    1    1    2    0    0  0.21303549644E+03  0.11753271301E+01  0.21725266372E+04  0.22673831819E+04  0.61300000000E+03 0. -1.
         11    1    4    4    0    0  0.39925015456E+02 -0.26388479751E+02  0.71675615316E+02  0.86184410156E+02  0.51100000000E-03 0.  1.
    -200002    1    4    4    0    0  0.69619562682E+02 -0.16342519453E+03  0.64606066636E+03  0.67070788152E+03  0.30000000000E+02 0.  1.
    -200000    1    3    3    0    0 -0.32258007458E+03  0.18863834715E+03  0.20103074533E+04  0.20472370130E+04  0.10100000000E+03 0. -1.
<mgrwt>
<rscale>  0 0.13056220E+04</rscale>
<asrwt>0</asrwt>
<pdfrwt beam="1">  1        2 0.71229177E+00 0.13056220E+04</pdfrwt>
<pdfrwt beam="2">  1       -2 0.12210149E-01 0.13056220E+04</pdfrwt>
<totfact> 0.46729366E+00</totfact>
</mgrwt>
</event>
<event>
 8    2  0.7237260E-052  0.2125237E+04  0.7818608E-02  0.8550207E-01
          2   -1    0    0  501    0  0.00000000000E+00  0.00000000000E+00  0.15241737214E+04  0.15241737214E+04  0.25500000000E-02 0.  1.
         -2   -1    0    0    0  501 -0.00000000000E+00 -0.00000000000E+00 -0.74083267009E+03  0.74083267009E+03  0.25500000000E-02 0. -1.
    -200001    2    1    2    0    0 -0.75915461515E+03 -0.21760420236E+03  0.88485136013E+01  0.10003819375E+04  0.61401824581E+03 0.  0.
   -5000001    2    3    3    0    0 -0.61381123509E+03 -0.13096130209E+03 -0.24538018538E+03  0.67872230116E+03  0.80854386105E+02 0.  0.
     200001    1    1    2    0    0  0.75915461515E+03  0.21760420236E+03  0.77449253776E+03  0.12646244540E+04  0.61300000000E+03 0.  1.
         11    1    4    4    0    0 -0.21852156301E+03 -0.40345841708E+02 -0.12335640226E+03  0.25415794779E+03  0.51100000000E-03 0.  1.
    -200002    1    4    4    0    0 -0.39528967208E+03 -0.90615460382E+02 -0.12202378312E+03  0.42456435338E+03  0.30000000000E+02 0.  1.
    -200000    1    3    3    0    0 -0.14534338006E+03 -0.86642900267E+02  0.25422869898E+03  0.32165963638E+03  0.10100000000E+03 0.  1.
<mgrwt>
<rscale>  0 0.21252366E+04</rscale>
<asrwt>0</asrwt>
<pdfrwt beam="1">  1        2 0.21773910E+00 0.21252366E+04</pdfrwt>
<pdfrwt beam="2">  1       -2 0.10583324E+00 0.21252366E+04</pdfrwt>
<totfact> 0.94575609E+00</totfact>
</mgrwt>
</event>
<event>
 8    2  0.7237260E-052  0.1932819E+04  0.7818608E-02  0.8638690E-01
          2   -1    0    0  501    0  0.00000000000E+00  0.00000000000E+00  0.13663534799E+04  0.13663534799E+04  0.25500000000E-02 0.  1.
         -2   -1    0    0    0  501 -0.00000000000E+00 -0.00000000000E+00 -0.68353295676E+03  0.68353295676E+03  0.25500000000E-02 0. -1.
    -200001    2    1    2    0    0 -0.24224937857E+03 -0.26462263564E+03 -0.35543798599E+03  0.79192791888E+03  0.61000308696E+03 0.  0.
   -5000001    2    3    3    0    0 -0.31689803822E+03 -0.27145029979E+02 -0.40221361643E+03  0.51924312799E+03  0.81709322843E+02 0.  0.
     200001    1    1    2    0    0  0.24224937857E+03  0.26462263564E+03  0.10382585091E+04  0.12579585178E+04  0.61300000000E+03 0.  1.
         11    1    4    4    0    0 -0.28589037503E+02  0.66664153822E+01 -0.11398201471E+02  0.31491159972E+02  0.51100000000E-03 0.  1.
    -200002    1    4    4    0    0 -0.28830900072E+03 -0.33811445361E+02 -0.39081541496E+03  0.48775196801E+03  0.30000000000E+02 0.  1.
    -200000    1    3    3    0    0  0.74648659653E+02 -0.23747760566E+03  0.46775630440E+02  0.27268479089E+03  0.10100000000E+03 0.  1.
<mgrwt>
<rscale>  0 0.19328193E+04</rscale>
<asrwt>0</asrwt>
<pdfrwt beam="1">  1        2 0.19519336E+00 0.19328193E+04</pdfrwt>
<pdfrwt beam="2">  1       -2 0.97647563E-01 0.19328193E+04</pdfrwt>
<totfact> 0.14140862E+01</totfact>
</mgrwt>
</event>
<event>
 8    2  0.7237260E-052  0.1426065E+04  0.7818608E-02  0.8935165E-01
         -2   -1    0    0    0  501 -0.00000000000E+00  0.00000000000E+00  0.53024487074E+03  0.53024487074E+03  0.25500000000E-02 0. -1.
          2   -1    0    0  501    0  0.00000000000E+00 -0.00000000000E+00 -0.95883067888E+03  0.95883067888E+03  0.25500000000E-02 0.  1.
    -200001    2    1    2    0    0  0.79993368598E+02 -0.21058604370E+03  0.85326659725E+02  0.65803978298E+03  0.61236451261E+03 0.  0.
   -5000001    2    3    3    0    0  0.15369986596E+03 -0.13036776837E+03  0.31730916547E+03  0.38256836446E+03  0.71091793963E+02 0.  0.
     200001    1    1    2    0    0 -0.79993368598E+02  0.21058604370E+03 -0.51391246786E+03  0.83103576665E+03  0.61300000000E+03 0.  1.
         11    1    4    4    0    0  0.13776727454E+02 -0.29389695391E+02  0.89573234863E+02  0.95272854574E+02  0.51100000000E-03 0.  1.
    -200002    1    4    4    0    0  0.13992313850E+03 -0.10097807297E+03  0.22773593061E+03  0.28729550988E+03  0.30000000000E+02 0.  1.
    -200000    1    3    3    0    0 -0.73706497360E+02 -0.80218275330E+02 -0.23198250574E+03  0.27547141852E+03  0.10100000000E+03 0.  1.
<mgrwt>
<rscale>  0 0.14260646E+04</rscale>
<asrwt>0</asrwt>
<pdfrwt beam="1">  1        2 0.13697581E+00 0.14260646E+04</pdfrwt>
<pdfrwt beam="2">  1       -2 0.75749268E-01 0.14260646E+04</pdfrwt>
<totfact> 0.45302372E+01</totfact>
</mgrwt>
</event>
<event>
 8    2  0.7237260E-052  0.1592444E+04  0.7818608E-02  0.8825203E-01
          2   -1    0    0  501    0  0.00000000000E+00  0.00000000000E+00  0.16840465992E+04  0.16840465992E+04  0.25500000000E-02 0.  1.
         -2   -1    0    0    0  501 -0.00000000000E+00 -0.00000000000E+00 -0.37645610160E+03  0.37645610161E+03  0.25500000000E-02 0. -1.
    -200001    2    1    2    0    0  0.24549473989E+03 -0.24087213462E+03  0.11379095807E+04  0.13374206404E+04  0.61283660381E+03 0.  0.
   -5000001    2    3    3    0    0 -0.15152367676E+03 -0.16694833051E+03  0.66883946891E+03  0.71027143826E+03  0.79423618399E+02 0.  0.
     200001    1    1    2    0    0 -0.24549473989E+03  0.24087213462E+03  0.16968091690E+03  0.72308206043E+03  0.61300000000E+03 0. -1.
         11    1    4    4    0    0 -0.58884494866E+02 -0.11324965789E+03  0.34312827420E+03  0.36610091683E+03  0.51100000000E-03 0.  1.
    -200002    1    4    4    0    0 -0.92639181892E+02 -0.53698672617E+02  0.32571119471E+03  0.34417052143E+03  0.30000000000E+02 0.  1.
    -200000    1    3    3    0    0  0.39701841665E+03 -0.73923804114E+02  0.46907011182E+03  0.62714920216E+03  0.10100000000E+03 0.  1.
<mgrwt>
<rscale>  0 0.15924442E+04</rscale>
<asrwt>0</asrwt>
<pdfrwt beam="1">  1        2 0.24057808E+00 0.15924442E+04</pdfrwt>
<pdfrwt beam="2">  1       -2 0.53779445E-01 0.15924442E+04</pdfrwt>
<totfact> 0.36607737E+01</totfact>
</mgrwt>
</event>
<event>
 8    2  0.7237260E-052  0.2036180E+04  0.7818608E-02  0.8589890E-01
         -2   -1    0    0    0  501 -0.00000000000E+00  0.00000000000E+00  0.14180297032E+04  0.14180297032E+04  0.25500000000E-02 0. -1.
          2   -1    0    0  501    0  0.00000000000E+00 -0.00000000000E+00 -0.73094908364E+03  0.73094908365E+03  0.25500000000E-02 0.  1.
    -200001    2    1    2    0    0  0.32385053375E+03 -0.56101671831E+03  0.86258228213E+03  0.12400295254E+04  0.61156038455E+03 0.  0.
   -5000001    2    3    3    0    0  0.69238251798E+02  0.54752980547E+02 -0.28583854337E+02  0.12272123358E+03  0.80322101893E+02 0.  0.
     200001    1    1    2    0    0 -0.32385053375E+03  0.56101671831E+03 -0.17550166253E+03  0.90894926150E+03  0.61300000000E+03 0.  1.
         11    1    4    4    0    0  0.26256090543E+02  0.51158818494E+02 -0.38570976220E+02  0.69241080344E+02  0.51100000000E-03 0.  1.
    -200002    1    4    4    0    0  0.42982161254E+02  0.35941620533E+01  0.99871218832E+01  0.53480153239E+02  0.30000000000E+02 0.  1.
    -200000    1    3    3    0    0  0.25461228195E+03 -0.61576969886E+03  0.89116613646E+03  0.11173082918E+04  0.10100000000E+03 0. -1.
<mgrwt>
<rscale>  0 0.20361803E+04</rscale>
<asrwt>0</asrwt>
<pdfrwt beam="1">  1        2 0.10442130E+00 0.20361803E+04</pdfrwt>
<pdfrwt beam="2">  1       -2 0.20257567E+00 0.20361803E+04</pdfrwt>
<totfact> 0.50697013E+00</totfact>
</mgrwt>
</event>
<event>
 8    2  0.7237260E-052  0.1870970E+04  0.7818608E-02  0.8669443E-01
         -2   -1    0    0    0  501 -0.00000000000E+00  0.00000000000E+00  0.43927861276E+03  0.43927861277E+03  0.25500000000E-02 0. -1.
          2   -1    0    0  501    0  0.00000000000E+00 -0.00000000000E+00 -0.19922038555E+04  0.19922038555E+04  0.25500000000E-02 0.  1.
    -200001    2    1    2    0    0 -0.62895917931E+03 -0.23424062609E+03 -0.10640574512E+04  0.13993879775E+04  0.61287040399E+03 0.  0.
   -5000001    2    3    3    0    0 -0.34420914103E+03 -0.38509602440E+02 -0.94935326642E+03  0.10215635899E+04  0.14952465149E+03 0.  0.
     200001    1    1    2    0    0  0.62895917931E+03  0.23424062609E+03 -0.48886779152E+03  0.10320944907E+04  0.61300000000E+03 0. -1.
         11    1    4    4    0    0 -0.10128531931E+03  0.33638108969E+02 -0.42805802855E+03  0.44116200436E+03  0.51100000000E-03 0.  1.
    -200002    1    4    4    0    0 -0.24292382172E+03 -0.72147711409E+02 -0.52129523787E+03  0.58040158549E+03  0.30000000000E+02 0.  1.
    -200000    1    3    3    0    0 -0.28475003828E+03 -0.19573102365E+03 -0.11470418476E+03  0.37782438768E+03  0.10100000000E+03 0. -1.
<mgrwt>
<rscale>  0 0.18709704E+04</rscale>
<asrwt>0</asrwt>
<pdfrwt beam="1">  1        2 0.28460055E+00 0.18709704E+04</pdfrwt>
<pdfrwt beam="2">  1       -2 0.62754088E-01 0.18709704E+04</pdfrwt>
<totfact> 0.17950499E+01</totfact>
</mgrwt>
</event>
<event>
 8    2  0.7237260E-052  0.1459272E+04  0.7818608E-02  0.8911998E-01
          2   -1    0    0  501    0  0.00000000000E+00  0.00000000000E+00  0.52419302490E+03  0.52419302490E+03  0.25500000000E-02 0.  1.
         -2   -1    0    0    0  501 -0.00000000000E+00 -0.00000000000E+00 -0.10155966126E+04  0.10155966126E+04  0.25500000000E-02 0. -1.
    -200001    2    1    2    0    0 -0.36092921960E+03 -0.94054836100E+01 -0.41340925295E+03  0.82410082177E+03  0.61471667403E+03 0.  0.
   -5000001    2    3    3    0    0 -0.27647366876E+03 -0.16118259291E+03 -0.21209471615E+03  0.53967583394E+03  0.37927340976E+03 0.  0.
     200001    1    1    2    0    0  0.36092921960E+03  0.94054836100E+01 -0.77994334730E+02  0.71568881571E+03  0.61300000000E+03 0.  1.
         11    1    4    4    0    0 -0.22687575657E+03  0.84808414650E+02 -0.84179739168E+02  0.25642017199E+03  0.51100000000E-03 0.  1.
    -200002    1    4    4    0    0 -0.49597912185E+02 -0.24599100756E+03 -0.12791497699E+03  0.28325566195E+03  0.30000000000E+02 0.  1.
    -200000    1    3    3    0    0 -0.84455550848E+02  0.15177710930E+03 -0.20131453679E+03  0.28442498783E+03  0.10100000000E+03 0. -1.
<mgrwt>
<rscale>  0 0.14592720E+04</rscale>
<asrwt>0</asrwt>
<pdfrwt beam="1">  1        2 0.74884718E-01 0.14592720E+04</pdfrwt>
<pdfrwt beam="2">  1       -2 0.14508523E+00 0.14592720E+04</pdfrwt>
<totfact> 0.20182936E+01</totfact>
</mgrwt>
</event>
<event>
 8    2  0.7237260E-052  0.1319266E+04  0.7818608E-02  0.9014425E-01
         -2   -1    0    0    0  501 -0.00000000000E+00  0.00000000000E+00  0.53735894252E+03  0.53735894253E+03  0.25500000000E-02 0. -1.
          2   -1    0    0  501    0  0.00000000000E+00 -0.00000000000E+00 -0.80973057108E+03  0.80973057109E+03  0.25500000000E-02 0.  1.
    -200001    2    1    2    0    0 -0.81157137789E+02 -0.20443455810E+03 -0.24394142877E+03  0.69520206488E+03  0.61271406119E+03 0.  0.
   -5000001    2    3    3    0    0 -0.24467453831E+03 -0.32995841648E+03 -0.12180735565E+03  0.43517915990E+03  0.76195032775E+02 0.  0.
     200001    1    1    2    0    0  0.81157137789E+02  0.20443455810E+03 -0.28430199790E+02  0.65188744874E+03  0.61300000000E+03 0. -1.
         11    1    4    4    0    0 -0.16453433101E+03 -0.22529246898E+03 -0.10849398271E+03  0.29933123283E+03  0.51100000000E-03 0.  1.
    -200002    1    4    4    0    0 -0.80140207299E+02 -0.10466594750E+03 -0.13313372942E+02  0.13584792708E+03  0.30000000000E+02 0. -1.
    -200000    1    3    3    0    0  0.16351740052E+03  0.12552385838E+03 -0.12213407312E+03  0.26002290497E+03  0.10100000000E+03 0.  1.
<mgrwt>
<rscale>  0 0.13192664E+04</rscale>
<asrwt>0</asrwt>
<pdfrwt beam="1">  1        2 0.11567580E+00 0.13192664E+04</pdfrwt>
<pdfrwt beam="2">  1       -2 0.76765563E-01 0.13192664E+04</pdfrwt>
<totfact> 0.55624746E+01</totfact>
</mgrwt>
</event>
<event>
 8    2  0.7237260E-052  0.1311181E+04  0.7818608E-02  0.9020745E-01
         -2   -1    0    0    0  501 -0.00000000000E+00  0.00000000000E+00  0.77098040097E+03  0.77098040098E+03  0.25500000000E-02 0. -1.
          2   -1    0    0  501    0  0.00000000000E+00 -0.00000000000E+00 -0.55747051675E+03  0.55747051676E+03  0.25500000000E-02 0.  1.
    -200001    2    1    2    0    0 -0.17660864692E+03 -0.10587849201E+03  0.21393788194E+03  0.68179022431E+03  0.61373253409E+03 0.  0.
   -5000001    2    3    3    0    0  0.79605095165E+02 -0.13222233809E+03  0.26772618693E+03  0.39995044427E+03  0.25389629544E+03 0.  0.
     200001    1    1    2    0    0  0.17660864692E+03  0.10587849201E+03 -0.42799771825E+00  0.64666069342E+03  0.61300000000E+03 0.  1.
         11    1    4    4    0    0  0.41746104435E+02 -0.44902552561E+02 -0.42150755407E+02  0.74402033867E+02  0.51100000000E-03 0.  1.
    -200002    1    4    4    0    0  0.37858990730E+02 -0.87319785526E+02  0.30987694233E+03  0.32554841040E+03  0.30000000000E+02 0.  1.
    -200000    1    3    3    0    0 -0.25621374209E+03  0.26343846079E+02 -0.53788304984E+02  0.28183978004E+03  0.10100000000E+03 0.  1.
<mgrwt>
<rscale>  0 0.13111809E+04</rscale>
<asrwt>0</asrwt>
<pdfrwt beam="1">  1        2 0.79638645E-01 0.13111809E+04</pdfrwt>
<pdfrwt beam="2">  1       -2 0.11014006E+00 0.13111809E+04</pdfrwt>
<totfact> 0.38018911E+01</totfact>
</mgrwt>
</event>
<event>
 8    2  0.7237260E-052  0.1599741E+04  0.7818608E-02  0.8820707E-01
         -2   -1    0    0    0  501 -0.00000000000E+00  0.00000000000E+00  0.17497321890E+04  0.17497321890E+04  0.25500000000E-02 0. -1.
          2   -1    0    0  501    0  0.00000000000E+00 -0.00000000000E+00 -0.36565169269E+03  0.36565169270E+03  0.25500000000E-02 0.  1.
    -200001    2    1    2    0    0  0.20190680828E+03 -0.34754662734E+03  0.26944323358E+03  0.78131482618E+03  0.61343148279E+03 0.  0.
   -5000001    2    3    3    0    0 -0.92753147392E+02 -0.32358437234E+03  0.28687824472E+01  0.37063049834E+03  0.15507657467E+03 0.  0.
     200001    1    1    2    0    0 -0.20190680828E+03  0.34754662734E+03  0.11146372627E+04  0.13340690555E+04  0.61300000000E+03 0. -1.
         11    1    4    4    0    0 -0.79941613722E+02 -0.12169904188E+03 -0.58799481222E+02  0.15703088038E+03  0.51100000000E-03 0.  1.
    -200002    1    4    4    0    0 -0.12811533670E+02 -0.20188533046E+03  0.61668263670E+02  0.21359961796E+03  0.30000000000E+02 0.  1.
    -200000    1    3    3    0    0  0.29465995567E+03 -0.23962255003E+02  0.26657445113E+03  0.41068432785E+03  0.10100000000E+03 0. -1.
<mgrwt>
<rscale>  0 0.15997406E+04</rscale>
<asrwt>0</asrwt>
<pdfrwt beam="1">  1        2 0.52235956E-01 0.15997406E+04</pdfrwt>
<pdfrwt beam="2">  1       -2 0.24996174E+00 0.15997406E+04</pdfrwt>
<totfact> 0.59117352E+00</totfact>
</mgrwt>
</event>
<event>
 8    2  0.7237260E-052  0.1265908E+04  0.7818608E-02  0.9057046E-01
          2   -1    0    0  501    0  0.00000000000E+00  0.00000000000E+00  0.52962248475E+03  0.52962248476E+03  0.25500000000E-02 0.  1.
         -2   -1    0    0    0  501 -0.00000000000E+00 -0.00000000000E+00 -0.75644613323E+03  0.75644613323E+03  0.25500000000E-02 0. -1.
    -200001    2    1    2    0    0 -0.14941678400E+03  0.41081930383E+02 -0.81745220360E+02  0.63735462042E+03  0.61280137954E+03 0.  0.
   -5000001    2    3    3    0    0 -0.26585049304E+03 -0.14883781957E+02 -0.26959413261E+03  0.38800108948E+03  0.83461592883E+02 0.  0.
     200001    1    1    2    0    0  0.14941678400E+03 -0.41081930383E+02 -0.14507842812E+03  0.64871399758E+03  0.61300000000E+03 0. -1.
         11    1    4    4    0    0 -0.23284402492E+03 -0.20511318010E+02 -0.23292123478E+03  0.32998387191E+03  0.51100000000E-03 0.  1.
    -200002    1    4    4    0    0 -0.33006468121E+02  0.56275360528E+01 -0.36672897823E+02  0.58017217570E+02  0.30000000000E+02 0. -1.
    -200000    1    3    3    0    0  0.11643370904E+03  0.55965712340E+02  0.18784891225E+03  0.24935353094E+03  0.10100000000E+03 0.  1.
<mgrwt>
<rscale>  0 0.12659082E+04</rscale>
<asrwt>0</asrwt>
<pdfrwt beam="1">  1        2 0.75660355E-01 0.12659082E+04</pdfrwt>
<pdfrwt beam="2">  1       -2 0.10806373E+00 0.12659082E+04</pdfrwt>
<totfact> 0.42388166E+01</totfact>
</mgrwt>
</event>
<event>
 8    2  0.7237260E-052  0.1722726E+04  0.7818608E-02  0.8748508E-01
          2   -1    0    0  501    0  0.00000000000E+00  0.00000000000E+00  0.12404374069E+04  0.12404374069E+04  0.25500000000E-02 0.  1.
         -2   -1    0    0    0  501 -0.00000000000E+00 -0.00000000000E+00 -0.59813248256E+03  0.59813248256E+03  0.25500000000E-02 0. -1.
    -200001    2    1    2    0    0  0.19107144671E+03 -0.34071968390E+03  0.81433563622E+03  0.10916015055E+04  0.61306860760E+03 0.  0.
   -5000001    2    3    3    0    0  0.84171825432E+02 -0.27854734268E+03  0.86828363381E+03  0.92306570666E+03  0.11601858366E+03 0.  0.
     200001    1    1    2    0    0 -0.19107144671E+03  0.34071968390E+03 -0.17203071192E+03  0.74696838393E+03  0.61300000000E+03 0. -1.
         11    1    4    4    0    0  0.87449351797E+02 -0.26583346229E+03  0.79437756307E+03  0.84222950051E+03  0.51100000000E-03 0.  1.
    -200002    1    4    4    0    0 -0.32775263654E+01 -0.12713880384E+02  0.73906070740E+02  0.80836206156E+02  0.30000000000E+02 0. -1.
    -200000    1    3    3    0    0  0.10689962128E+03 -0.62172341224E+02 -0.53947997594E+02  0.16853579883E+03  0.10100000000E+03 0. -1.
<mgrwt>
<rscale>  0 0.17227256E+04</rscale>
<asrwt>0</asrwt>
<pdfrwt beam="1">  1        2 0.17720534E+00 0.17227256E+04</pdfrwt>
<pdfrwt beam="2">  1       -2 0.85447498E-01 0.17227256E+04</pdfrwt>
<totfact> 0.22990282E+01</totfact>
</mgrwt>
</event>
<event>
 8    2  0.7237260E-052  0.1326148E+04  0.7818608E-02  0.9009083E-01
          2   -1    0    0  501    0  0.00000000000E+00  0.00000000000E+00  0.48029938586E+03  0.48029938587E+03  0.25500000000E-02 0.  1.
         -2   -1    0    0    0  501 -0.00000000000E+00 -0.00000000000E+00 -0.91540217015E+03  0.91540217015E+03  0.25500000000E-02 0. -1.
    -200001    2    1    2    0    0 -0.22880335818E+03  0.49036422937E+01 -0.32951489587E+03  0.73290986582E+03  0.61335290200E+03 0.  0.
   -5000001    2    3    3    0    0 -0.20345552169E+03  0.26967865624E+03 -0.84278530438E+02  0.35729011693E+03  0.80203678375E+02 0.  0.
     200001    1    1    2    0    0  0.22880335818E+03 -0.49036422937E+01 -0.10558788841E+03  0.66279169020E+03  0.61300000000E+03 0. -1.
         11    1    4    4    0    0 -0.10216538149E+03  0.79393519577E+02 -0.36970966727E+02  0.13456577762E+03  0.51100000000E-03 0.  1.
    -200002    1    4    4    0    0 -0.10129014021E+03  0.19028513666E+03 -0.47307563711E+02  0.22272433931E+03  0.30000000000E+02 0.  1.
    -200000    1    3    3    0    0 -0.25347836488E+02 -0.26477501395E+03 -0.24523636544E+03  0.37561974889E+03  0.10100000000E+03 0. -1.
<mgrwt>
<rscale>  0 0.13261480E+04</rscale>
<asrwt>0</asrwt>
<pdfrwt beam="1">  1        2 0.68614198E-01 0.13261480E+04</pdfrwt>
<pdfrwt beam="2">  1       -2 0.13077174E+00 0.13261480E+04</pdfrwt>
<totfact> 0.29458970E+01</totfact>
</mgrwt>
</event>
<event>
 8    2  0.7237260E-052  0.1925956E+04  0.7818608E-02  0.8642043E-01
         -2   -1    0    0    0  501 -0.00000000000E+00  0.00000000000E+00  0.27531233885E+03  0.27531233887E+03  0.25500000000E-02 0. -1.
          2   -1    0    0  501    0  0.00000000000E+00 -0.00000000000E+00 -0.33682698163E+04  0.33682698163E+04  0.25500000000E-02 0.  1.
    -200001    2    1    2    0    0 -0.57944705873E+03 -0.45845190145E+03 -0.14017802769E+04  0.16989005968E+04  0.61264855610E+03 0.  0.
   -5000001    2    3    3    0    0  0.31389096613E+02  0.58342561175E+02 -0.38010844752E+03  0.39728173852E+03  0.94663710346E+02 0.  0.
     200001    1    1    2    0    0  0.57944705873E+03  0.45845190145E+03 -0.16911772006E+04  0.19446815584E+04  0.61300000000E+03 0.  1.
         11    1    4    4    0    0  0.39110624431E+02  0.11767067715E+02 -0.27684399682E+03  0.27984049636E+03  0.51100000000E-03 0.  1.
    -200002    1    4    4    0    0 -0.77215278183E+01  0.46575493460E+02 -0.10326445070E+03  0.11744124217E+03  0.30000000000E+02 0. -1.
    -200000    1    3    3    0    0 -0.61083615534E+03 -0.51679446262E+03 -0.10216718293E+04  0.13016188582E+04  0.10100000000E+03 0. -1.
<mgrwt>
<rscale>  0 0.19259556E+04</rscale>
<asrwt>0</asrwt>
<pdfrwt beam="1">  1        2 0.48118138E+00 0.19259556E+04</pdfrwt>
<pdfrwt beam="2">  1       -2 0.39330336E-01 0.19259556E+04</pdfrwt>
<totfact> 0.83048632E+00</totfact>
</mgrwt>
</event>
<event>
 8    2  0.7237260E-052  0.1854202E+04  0.7818608E-02  0.8677995E-01
         -2   -1    0    0    0  501 -0.00000000000E+00  0.00000000000E+00  0.50146080106E+03  0.50146080107E+03  0.25500000000E-02 0. -1.
          2   -1    0    0  501    0  0.00000000000E+00 -0.00000000000E+00 -0.17140243596E+04  0.17140243596E+04  0.25500000000E-02 0.  1.
    -200001    2    1    2    0    0  0.55219347514E+03 -0.27959364142E+03 -0.98486848476E+03  0.13150939763E+04  0.61352750217E+03 0.  0.
   -5000001    2    3    3    0    0  0.13737689253E+03  0.13050929529E+03 -0.58421097404E+02  0.21565640307E+03  0.84791348639E+02 0.  0.
     200001    1    1    2    0    0 -0.55219347514E+03  0.27959364142E+03 -0.22769507381E+03  0.90039118440E+03  0.61300000000E+03 0. -1.
         11    1    4    4    0    0  0.65561537488E+02  0.96219833332E+02 -0.78236954125E+01  0.11669525155E+03  0.51100000000E-03 0.  1.
    -200002    1    4    4    0    0  0.71815355042E+02  0.34289461954E+02 -0.50597401991E+02  0.98961151515E+02  0.30000000000E+02 0.  1.
    -200000    1    3    3    0    0  0.41481658261E+03 -0.41010293671E+03 -0.92644738735E+03  0.10994375732E+04  0.10100000000E+03 0.  1.
<mgrwt>
<rscale>  0 0.18542017E+04</rscale>
<asrwt>0</asrwt>
<pdfrwt beam="1">  1        2 0.24486062E+00 0.18542017E+04</pdfrwt>
<pdfrwt beam="2">  1       -2 0.71637258E-01 0.18542017E+04</pdfrwt>
<totfact> 0.18794355E+01</totfact>
</mgrwt>
</event>
<event>
 8    2  0.7237260E-052  0.1331020E+04  0.7818608E-02  0.9005322E-01
          2   -1    0    0  501    0  0.00000000000E+00  0.00000000000E+00  0.14344535563E+04  0.14344535563E+04  0.25500000000E-02 0. -1.
         -2   -1    0    0    0  501 -0.00000000000E+00 -0.00000000000E+00 -0.30876104187E+03  0.30876104188E+03  0.25500000000E-02 0.  1.
    -200001    2    1    2    0    0  0.88647152401E+02  0.21306305712E+03  0.71537647851E+03  0.97030940782E+03  0.61358182580E+03 0.  0.
   -5000001    2    3    3    0    0 -0.26231538504E+02  0.98135204084E+02 -0.79247014631E+02  0.15297653751E+03  0.82481026954E+02 0.  0.
     200001    1    1    2    0    0 -0.88647152401E+02 -0.21306305712E+03  0.41031603587E+03  0.77290519033E+03  0.61300000000E+03 0.  1.
         11    1    4    4    0    0 -0.36415421959E+02  0.91137932892E+02 -0.55300119419E+02  0.11265127153E+03  0.51100000000E-03 0.  1.
    -200002    1    4    4    0    0  0.10183883455E+02  0.69972711920E+01 -0.23946895212E+02  0.40325265984E+02  0.30000000000E+02 0.  1.
    -200000    1    3    3    0    0  0.11487869091E+03  0.11492785303E+03  0.79462349314E+03  0.81733287031E+03  0.10100000000E+03 0. -1.
<mgrwt>
<rscale>  0 0.13310197E+04</rscale>
<asrwt>0</asrwt>
<pdfrwt beam="1">  1        2 0.20492194E+00 0.13310197E+04</pdfrwt>
<pdfrwt beam="2">  1       -2 0.44108719E-01 0.13310197E+04</pdfrwt>
<totfact> 0.75582123E+01</totfact>
</mgrwt>
</event>
<event>
 8    2  0.7237260E-052  0.1916002E+04  0.7818608E-02  0.8646932E-01
          2   -1    0    0  501    0  0.00000000000E+00  0.00000000000E+00  0.30239446162E+04  0.30239446162E+04  0.25500000000E-02 0.  1.
         -2   -1    0    0    0  501 -0.00000000000E+00 -0.00000000000E+00 -0.30349956134E+03  0.30349956135E+03  0.25500000000E-02 0. -1.
    -200001    2    1    2    0    0 -0.62007850022E+03 -0.39046302880E+03  0.14844889344E+04  0.17652933350E+04  0.61285760077E+03 0.  0.
   -5000001    2    3    3    0    0 -0.42228837894E+03  0.52414009246E+02  0.48200786710E+03  0.64706692980E+03  0.72727741246E+02 0.  0.
     200001    1    1    2    0    0  0.62007850022E+03  0.39046302880E+03  0.12359561204E+04  0.15621508426E+04  0.61300000000E+03 0.  1.
         11    1    4    4    0    0 -0.85060386012E+02 -0.73039568528E+01  0.69519613973E+02  0.11009810980E+03  0.51100000000E-03 0.  1.
    -200002    1    4    4    0    0 -0.33722799293E+03  0.59717966098E+02  0.41248825313E+03  0.53696882000E+03  0.30000000000E+02 0.  1.
    -200000    1    3    3    0    0 -0.19779012128E+03 -0.44287703805E+03  0.10024810673E+04  0.11182264052E+04  0.10100000000E+03 0. -1.
<mgrwt>
<rscale>  0 0.19160019E+04</rscale>
<asrwt>0</asrwt>
<pdfrwt beam="1">  1        2 0.43199208E+00 0.19160019E+04</pdfrwt>
<pdfrwt beam="2">  1       -2 0.43357081E-01 0.19160019E+04</pdfrwt>
<totfact> 0.10840408E+01</totfact>
</mgrwt>
</event>
<event>
 8    2  0.7237260E-052  0.1590739E+04  0.7818608E-02  0.8826258E-01
          2   -1    0    0  501    0  0.00000000000E+00  0.00000000000E+00  0.21043262827E+04  0.21043262827E+04  0.25500000000E-02 0.  1.
         -2   -1    0    0    0  501 -0.00000000000E+00 -0.00000000000E+00 -0.30062467556E+03  0.30062467557E+03  0.25500000000E-02 0. -1.
    -200001    2    1    2    0    0  0.40116738889E+02 -0.10033042279E+03  0.16505636305E+04  0.17639394245E+04  0.61273685113E+03 0.  0.
   -5000001    2    3    3    0    0 -0.66283873277E+02  0.21146543350E+03  0.36517350697E+03  0.43316276565E+03  0.71882612123E+02 0.  0.
     200001    1    1    2    0    0 -0.40116738889E+02  0.10033042279E+03  0.15313797667E+03  0.64101153373E+03  0.61300000000E+03 0. -1.
         11    1    4    4    0    0 -0.17399735327E+02  0.33324997671E+02  0.11329276824E+03  0.11936732214E+03  0.51100000000E-03 0.  1.
    -200002    1    4    4    0    0 -0.48884137950E+02  0.17814043583E+03  0.25188073873E+03  0.31379544351E+03  0.30000000000E+02 0.  1.
    -200000    1    3    3    0    0  0.10640061217E+03 -0.31179585629E+03  0.12853901235E+04  0.13307766589E+04  0.10100000000E+03 0.  1.
<mgrwt>
<rscale>  0 0.15907387E+04</rscale>
<asrwt>0</asrwt>
<pdfrwt beam="1">  1        2 0.30061804E+00 0.15907387E+04</pdfrwt>
<pdfrwt beam="2">  1       -2 0.42946382E-01 0.15907387E+04</pdfrwt>
<totfact> 0.35029651E+01</totfact>
</mgrwt>
</event>
<event>
 8    2  0.7237260E-052  0.1510768E+04  0.7818608E-02  0.8877324E-01
          2   -1    0    0  501    0  0.00000000000E+00  0.00000000000E+00  0.18112746225E+04  0.18112746225E+04  0.25500000000E-02 0.  1.
         -2   -1    0    0    0  501 -0.00000000000E+00 -0.00000000000E+00 -0.31502935145E+03  0.31502935146E+03  0.25500000000E-02 0. -1.
    -200001    2    1    2    0    0  0.18569406112E+03 -0.37034965027E+03  0.96386739197E+03  0.12148017228E+04  0.61242283479E+03 0.  0.
   -5000001    2    3    3    0    0  0.30800805225E+03 -0.17021674115E+03  0.87471103921E+03  0.94431373972E+03  0.52595985538E+02 0.  0.
     200001    1    1    2    0    0 -0.18569406112E+03  0.37034965027E+03  0.53237787911E+03  0.91150225121E+03  0.61300000000E+03 0. -1.
         11    1    4    4    0    0  0.12049349952E+03 -0.86246250768E+02  0.36151585916E+03  0.39070553570E+03  0.51100000000E-03 0.  1.
    -200002    1    4    4    0    0  0.18751455272E+03 -0.83970490379E+02  0.51319518005E+03  0.55360820403E+03  0.30000000000E+02 0.  1.
    -200000    1    3    3    0    0 -0.12231399113E+03 -0.20013290913E+03  0.89156352753E+02  0.27048798305E+03  0.10100000000E+03 0. -1.
<mgrwt>
<rscale>  0 0.15107676E+04</rscale>
<asrwt>0</asrwt>
<pdfrwt beam="1">  1        2 0.25875353E+00 0.15107676E+04</pdfrwt>
<pdfrwt beam="2">  1       -2 0.45004192E-01 0.15107676E+04</pdfrwt>
<totfact> 0.45448944E+01</totfact>
</mgrwt>
</event>
<event>
 8    2  0.7237260E-052  0.1445287E+04  0.7818608E-02  0.8921675E-01
         -2   -1    0    0    0  501 -0.00000000000E+00  0.00000000000E+00  0.59088804139E+03  0.59088804139E+03  0.25500000000E-02 0. -1.
          2   -1    0    0  501    0  0.00000000000E+00 -0.00000000000E+00 -0.88377729744E+03  0.88377729744E+03  0.25500000000E-02 0.  1.
    -200001    2    1    2    0    0  0.35886474286E+03  0.96221942758E+02 -0.52464234248E+02  0.71861259131E+03  0.61286947597E+03 0.  0.
   -5000001    2    3    3    0    0 -0.12033704574E+03  0.14754030554E+03 -0.63123761502E+02  0.22608588738E+03  0.10431238119E+03 0.  0.
     200001    1    1    2    0    0 -0.35886474286E+03 -0.96221942758E+02 -0.24042502180E+03  0.75605274753E+03  0.61300000000E+03 0.  1.
         11    1    4    4    0    0 -0.23879607264E+02 -0.90492557503E+01  0.77987085470E+01  0.26701021104E+02  0.51100000000E-03 0.  1.
    -200002    1    4    4    0    0 -0.96457438477E+02  0.15658956129E+03 -0.70922470049E+02  0.19938486628E+03  0.30000000000E+02 0.  1.
    -200000    1    3    3    0    0  0.47920178860E+03 -0.51318362784E+02  0.10659527254E+02  0.49252670392E+03  0.10100000000E+03 0. -1.
<mgrwt>
<rscale>  0 0.14452867E+04</rscale>
<asrwt>0</asrwt>
<pdfrwt beam="1">  1        2 0.12625390E+00 0.14452867E+04</pdfrwt>
<pdfrwt beam="2">  1       -2 0.84412578E-01 0.14452867E+04</pdfrwt>
<totfact> 0.39655384E+01</totfact>
</mgrwt>
</event>
<event>
 8    2  0.7237260E-052  0.1332503E+04  0.7818608E-02  0.9004180E-01
          2   -1    0    0  501    0  0.00000000000E+00  0.00000000000E+00  0.27500813305E+04  0.27500813305E+04  0.25500000000E-02 0.  1.
         -2   -1    0    0    0  501 -0.00000000000E+00 -0.00000000000E+00 -0.16141020805E+03  0.16141020807E+03  0.25500000000E-02 0. -1.
    -200001    2    1    2    0    0 -0.16559823312E+03  0.14055185387E+03  0.98102876160E+03  0.11772883905E+04  0.61352499937E+03 0.  0.
   -5000001    2    3    3    0    0 -0.10146656324E+03  0.94759641687E+02  0.10285116600E+04  0.10406669302E+04  0.76658800357E+02 0.  0.
     200001    1    1    2    0    0  0.16559823312E+03 -0.14055185387E+03  0.16076423608E+04  0.17342031481E+04  0.61300000000E+03 0.  1.
         11    1    4    4    0    0 -0.95416283840E+02  0.76601890847E+02  0.83376567521E+03  0.84269645666E+03  0.51100000000E-03 0.  1.
    -200002    1    4    4    0    0 -0.60502794005E+01  0.18157750840E+02  0.19474598478E+03  0.19797047352E+03  0.30000000000E+02 0. -1.
    -200000    1    3    3    0    0 -0.64131669880E+02  0.45792212187E+02 -0.47482898392E+02  0.13662146031E+03  0.10100000000E+03 0. -1.
<mgrwt>
<rscale>  0 0.13325032E+04</rscale>
<asrwt>0</asrwt>
<pdfrwt beam="1">  1        2 0.39286873E+00 0.13325032E+04</pdfrwt>
<pdfrwt beam="2">  1       -2 0.23058603E-01 0.13325032E+04</pdfrwt>
<totfact> 0.52893161E+01</totfact>
</mgrwt>
</event>
<event>
 8    2  0.7237260E-052  0.2361275E+04  0.7818608E-02  0.8454145E-01
         -2   -1    0    0    0  501 -0.00000000000E+00  0.00000000000E+00  0.44624350390E+03  0.44624350391E+03  0.25500000000E-02 0. -1.
          2   -1    0    0  501    0  0.00000000000E+00 -0.00000000000E+00 -0.31236423915E+04  0.31236423915E+04  0.25500000000E-02 0.  1.
    -200001    2    1    2    0    0 -0.44128878262E+03 -0.87016475931E+03 -0.17279257042E+04  0.20768383999E+04  0.61286866605E+03 0.  0.
   -5000001    2    3    3    0    0 -0.10861841150E+03 -0.77062128338E+03 -0.10591521012E+04  0.13165505521E+04  0.76466077071E+02 0.  0.
     200001    1    1    2    0    0  0.44128878262E+03  0.87016475931E+03 -0.94947318338E+03  0.14930474956E+04  0.61300000000E+03 0. -1.
         11    1    4    4    0    0 -0.34327736077E+02 -0.10710591699E+03 -0.12829312546E+03  0.17061417572E+03  0.51100000000E-03 0.  1.
    -200002    1    4    4    0    0 -0.74290675420E+02 -0.66351536639E+03 -0.93085897579E+03  0.11459363764E+04  0.30000000000E+02 0.  1.
    -200000    1    3    3    0    0 -0.33267037112E+03 -0.99543475936E+02 -0.66877360298E+03  0.76028784777E+03  0.10100000000E+03 0.  1.
<mgrwt>
<rscale>  0 0.23612752E+04</rscale>
<asrwt>0</asrwt>
<pdfrwt beam="1">  1        2 0.44623462E+00 0.23612752E+04</pdfrwt>
<pdfrwt beam="2">  1       -2 0.63749074E-01 0.23612752E+04</pdfrwt>
<totfact> 0.41421837E+00</totfact>
</mgrwt>
</event>
<event>
 8    2  0.7237260E-052  0.1279974E+04  0.7818608E-02  0.9045599E-01
          2   -1    0    0  501    0  0.00000000000E+00  0.00000000000E+00  0.36166942152E+03  0.36166942153E+03  0.25500000000E-02 0.  1.
         -2   -1    0    0    0  501 -0.00000000000E+00 -0.00000000000E+00 -0.11324794978E+04  0.11324794978E+04  0.25500000000E-02 0. -1.
    -200001    2    1    2    0    0  0.12330960906E+03 -0.13674524093E+03 -0.38923551286E+03  0.74898271771E+03  0.61283464846E+03 0.  0.
   -5000001    2    3    3    0    0  0.18924241091E+03  0.16014548950E+03 -0.33193763271E+03  0.42344426031E+03  0.87539600666E+02 0.  0.
     200001    1    1    2    0    0 -0.12330960906E+03  0.13674524093E+03 -0.38157456342E+03  0.74516620163E+03  0.61300000000E+03 0. -1.
         11    1    4    4    0    0  0.41567069424E+02  0.23625953357E+02 -0.21693327436E+02  0.52503403585E+02  0.51100000000E-03 0.  1.
    -200002    1    4    4    0    0  0.14767534149E+03  0.13651953615E+03 -0.31024430527E+03  0.37094085672E+03  0.30000000000E+02 0.  1.
    -200000    1    3    3    0    0 -0.65932801856E+02 -0.29689073043E+03 -0.57297880157E+02  0.32553845740E+03  0.10100000000E+03 0.  1.
<mgrwt>
<rscale>  0 0.12799738E+04</rscale>
<asrwt>0</asrwt>
<pdfrwt beam="1">  1        2 0.51667061E-01 0.12799738E+04</pdfrwt>
<pdfrwt beam="2">  1       -2 0.16178278E+00 0.12799738E+04</pdfrwt>
<totfact> 0.23227338E+01</totfact>
</mgrwt>
</event>
<event>
 8    2  0.7237260E-052  0.1501022E+04  0.7818608E-02  0.8883774E-01
         -2   -1    0    0    0  501 -0.00000000000E+00  0.00000000000E+00  0.11349362799E+03  0.11349362802E+03  0.25500000000E-02 0. -1.
          2   -1    0    0  501    0  0.00000000000E+00 -0.00000000000E+00 -0.49629792648E+04  0.49629792648E+04  0.25500000000E-02 0.  1.
    -200001    2    1    2    0    0 -0.32237520004E+03  0.21933692886E+03 -0.30619806639E+04  0.31469710177E+04  0.61291642347E+03 0.  0.
   -5000001    2    3    3    0    0 -0.36440608262E+03  0.16222400530E+03 -0.29572934561E+04  0.29851411916E+04  0.79843142945E+02 0.  0.
     200001    1    1    2    0    0  0.32237520004E+03 -0.21933692886E+03 -0.17875049729E+04  0.19295018751E+04  0.61300000000E+03 0.  1.
         11    1    4    4    0    0 -0.30959093518E+03  0.14108980234E+03 -0.24138630281E+04  0.24377218048E+04  0.51100000000E-03 0.  1.
    -200002    1    4    4    0    0 -0.54815147434E+02  0.21134202968E+02 -0.54343042806E+03  0.54741938682E+03  0.30000000000E+02 0. -1.
    -200000    1    3    3    0    0  0.42030882576E+02  0.57112923553E+02 -0.10468720777E+03  0.16182982604E+03  0.10100000000E+03 0. -1.
<mgrwt>
<rscale>  0 0.15010217E+04</rscale>
<asrwt>0</asrwt>
<pdfrwt beam="1">  1        2 0.70899690E+00 0.15010217E+04</pdfrwt>
<pdfrwt beam="2">  1       -2 0.16213378E-01 0.15010217E+04</pdfrwt>
<totfact> 0.29647580E+00</totfact>
</mgrwt>
</event>
<event>
 8    2  0.7237260E-052  0.1512992E+04  0.7818608E-02  0.8875859E-01
         -2   -1    0    0    0  501 -0.00000000000E+00  0.00000000000E+00  0.12714912389E+04  0.12714912389E+04  0.25500000000E-02 0. -1.
          2   -1    0    0  501    0  0.00000000000E+00 -0.00000000000E+00 -0.45009046880E+03  0.45009046881E+03  0.25500000000E-02 0.  1.
    -200001    2    1    2    0    0  0.42185421089E+02 -0.17380528585E+03  0.87247286639E+03  0.10809841381E+04  0.61264175267E+03 0.  0.
   -5000001    2    3    3    0    0 -0.19452986599E+01 -0.37530322088E+03  0.63320414650E+03  0.74932247532E+03  0.14028681011E+03 0.  0.
     200001    1    1    2    0    0 -0.42185421089E+02  0.17380528585E+03 -0.51072096301E+02  0.64059756959E+03  0.61300000000E+03 0.  1.
         11    1    4    4    0    0  0.51856593433E+02 -0.21613199761E+03  0.28395699257E+03  0.36060188617E+03  0.51100000000E-03 0.  1.
    -200002    1    4    4    0    0 -0.53801892093E+02 -0.15917122326E+03  0.34924715393E+03  0.38872058916E+03  0.30000000000E+02 0.  1.
    -200000    1    3    3    0    0  0.44130719749E+02  0.20149793502E+03  0.23926871988E+03  0.33166166278E+03  0.10100000000E+03 0.  1.
<mgrwt>
<rscale>  0 0.15129919E+04</rscale>
<asrwt>0</asrwt>
<pdfrwt beam="1">  1        2 0.64298637E-01 0.15129919E+04</pdfrwt>
<pdfrwt beam="2">  1       -2 0.18164161E+00 0.15129919E+04</pdfrwt>
<totfact> 0.12922017E+01</totfact>
</mgrwt>
</event>
<event>
 8    2  0.7237260E-052  0.2251527E+04  0.7818608E-02  0.8497282E-01
          2   -1    0    0  501    0  0.00000000000E+00  0.00000000000E+00  0.28081734460E+04  0.28081734460E+04  0.25500000000E-02 0.  1.
         -2   -1    0    0    0  501 -0.00000000000E+00 -0.00000000000E+00 -0.45130515040E+03  0.45130515041E+03  0.25500000000E-02 0. -1.
    -200001    2    1    2    0    0  0.10534560424E+03  0.79123368977E+03  0.19085412158E+04  0.21577006611E+04  0.61318359603E+03 0.  0.
   -5000001    2    3    3    0    0  0.27950093007E+03  0.67118545803E+03  0.11576644219E+04  0.13710885489E+04  0.10529105486E+03 0.  0.
     200001    1    1    2    0    0 -0.10534560424E+03 -0.79123368977E+03  0.44832707977E+03  0.11017779353E+04  0.61300000000E+03 0. -1.
         11    1    4    4    0    0  0.22399160048E+01  0.42586629933E+02  0.38089694409E+02  0.57179219068E+02  0.51100000000E-03 0.  1.
    -200002    1    4    4    0    0  0.27726101407E+03  0.62859882810E+03  0.11195747275E+04  0.13139093298E+04  0.30000000000E+02 0.  1.
    -200000    1    3    3    0    0 -0.17415532584E+03  0.12004823174E+03  0.75087679391E+03  0.78661211222E+03  0.10100000000E+03 0. -1.
<mgrwt>
<rscale>  0 0.22515267E+04</rscale>
<asrwt>0</asrwt>
<pdfrwt beam="1">  1        2 0.40116763E+00 0.22515267E+04</pdfrwt>
<pdfrwt beam="2">  1       -2 0.64472166E-01 0.22515267E+04</pdfrwt>
<totfact> 0.61183264E+00</totfact>
</mgrwt>
</event>
<event>
 8    2  0.7237260E-052  0.1483015E+04  0.7818608E-02  0.8895827E-01
         -2   -1    0    0    0  501 -0.00000000000E+00  0.00000000000E+00  0.19945817721E+03  0.19945817722E+03  0.25500000000E-02 0. -1.
          2   -1    0    0  501    0  0.00000000000E+00 -0.00000000000E+00 -0.27566351678E+04  0.27566351678E+04  0.25500000000E-02 0.  1.
    -200001    2    1    2    0    0  0.14803159598E+03 -0.38875628553E+03 -0.13463418852E+04  0.15366091235E+04  0.61276938841E+03 0.  0.
   -5000001    2    3    3    0    0  0.57753386546E+02  0.71170591942E+02 -0.10130447512E+02  0.11698068825E+03  0.71980196172E+02 0.  0.
     200001    1    1    2    0    0 -0.14803159598E+03  0.38875628553E+03 -0.12108351053E+04  0.14194842216E+04  0.61300000000E+03 0.  1.
         11    1    4    4    0    0  0.46628559741E+02  0.24057681836E+02  0.15235675398E+02  0.54636255764E+02  0.51100000000E-03 0.  1.
    -200002    1    4    4    0    0  0.11124826805E+02  0.47112910106E+02 -0.25366122910E+02  0.62344432482E+02  0.30000000000E+02 0.  1.
    -200000    1    3    3    0    0  0.90278209430E+02 -0.45992687747E+03 -0.13362114377E+04  0.14196284352E+04  0.10100000000E+03 0. -1.
<mgrwt>
<rscale>  0 0.14830151E+04</rscale>
<asrwt>0</asrwt>
<pdfrwt beam="1">  1        2 0.39380500E+00 0.14830151E+04</pdfrwt>
<pdfrwt beam="2">  1       -2 0.28494027E-01 0.14830151E+04</pdfrwt>
<totfact> 0.35240826E+01</totfact>
</mgrwt>
</event>
<event>
 8    2  0.7237260E-052  0.1326465E+04  0.7818608E-02  0.9008838E-01
         -2   -1    0    0    0  501 -0.00000000000E+00  0.00000000000E+00  0.46489882931E+03  0.46489882932E+03  0.25500000000E-02 0. -1.
          2   -1    0    0  501    0  0.00000000000E+00 -0.00000000000E+00 -0.94617857762E+03  0.94617857762E+03  0.25500000000E-02 0.  1.
    -200001    2    1    2    0    0  0.23779584055E+02 -0.10958304740E+03  0.35100458032E+00  0.62347909878E+03  0.61331244119E+03 0.  0.
   -5000001    2    3    3    0    0 -0.18495769824E+03  0.16799852777E+03  0.21616247756E+02  0.26115880614E+03  0.72827222838E+02 0.  0.
     200001    1    1    2    0    0 -0.23779584055E+02  0.10958304740E+03 -0.48163075288E+03  0.78759830816E+03  0.61300000000E+03 0.  1.
         11    1    4    4    0    0 -0.51323234914E+01  0.40879156926E+01  0.14476430743E+02  0.15893987746E+02  0.51100000000E-03 0.  1.
    -200002    1    4    4    0    0 -0.17982537475E+03  0.16391061208E+03  0.71398170126E+01  0.24526481839E+03  0.30000000000E+02 0.  1.
    -200000    1    3    3    0    0  0.20873728229E+03 -0.27758157517E+03 -0.21265243176E+02  0.36232029264E+03  0.10100000000E+03 0.  1.
<mgrwt>
<rscale>  0 0.13264649E+04</rscale>
<asrwt>0</asrwt>
<pdfrwt beam="1">  1        2 0.13516837E+00 0.13264649E+04</pdfrwt>
<pdfrwt beam="2">  1       -2 0.66414119E-01 0.13264649E+04</pdfrwt>
<totfact> 0.61983211E+01</totfact>
</mgrwt>
</event>
<event>
 8    2  0.7237260E-052  0.1359600E+04  0.7818608E-02  0.8983593E-01
         -2   -1    0    0    0  501 -0.00000000000E+00  0.00000000000E+00  0.15015568412E+04  0.15015568412E+04  0.25500000000E-02 0. -1.
          2   -1    0    0  501    0  0.00000000000E+00 -0.00000000000E+00 -0.30776580126E+03  0.30776580127E+03  0.25500000000E-02 0.  1.
    -200001    2    1    2    0    0 -0.22742731514E+03  0.15998670223E+03  0.71827988821E+03  0.98518746909E+03  0.61428773623E+03 0.  0.
   -5000001    2    3    3    0    0 -0.34443576946E+03 -0.88967682409E+02  0.50241147507E+03  0.62122396020E+03  0.83370682220E+02 0.  0.
     200001    1    1    2    0    0  0.22742731514E+03 -0.15998670223E+03  0.47551115172E+03  0.82413517336E+03  0.61300000000E+03 0. -1.
         11    1    4    4    0    0 -0.18912017046E+03 -0.82307971096E+02  0.26374740854E+03  0.33481896077E+03  0.51100000000E-03 0.  1.
    -200002    1    4    4    0    0 -0.15531559900E+03 -0.66597113133E+01  0.23866406652E+03  0.28640499943E+03  0.30000000000E+02 0. -1.
    -200000    1    3    3    0    0  0.11700845432E+03  0.24895438463E+03  0.21586841314E+03  0.36396350889E+03  0.10100000000E+03 0. -1.
<mgrwt>
<rscale>  0 0.13595997E+04</rscale>
<asrwt>0</asrwt>
<pdfrwt beam="1">  1        2 0.43966543E-01 0.13595997E+04</pdfrwt>
<pdfrwt beam="2">  1       -2 0.21450812E+00 0.13595997E+04</pdfrwt>
<totfact> 0.12134690E+01</totfact>
</mgrwt>
</event>
<event>
 8    2  0.7237260E-052  0.1332770E+04  0.7818608E-02  0.9003974E-01
         -2   -1    0    0    0  501 -0.00000000000E+00  0.00000000000E+00  0.37735379669E+03  0.37735379670E+03  0.25500000000E-02 0. -1.
          2   -1    0    0  501    0  0.00000000000E+00 -0.00000000000E+00 -0.11767974227E+04  0.11767974227E+04  0.25500000000E-02 0.  1.
    -200001    2    1    2    0    0  0.21576963848E+03  0.96892696200E+02 -0.52841219791E+03  0.84339685500E+03  0.61331400820E+03 0.  0.
   -5000001    2    3    3    0    0  0.30251975831E+03  0.11072162069E+03 -0.57584321457E+03  0.70138444785E+03  0.23783871523E+03 0.  0.
     200001    1    1    2    0    0 -0.21576963848E+03 -0.96892696200E+02 -0.27103142805E+03  0.71075436436E+03  0.61300000000E+03 0.  1.
         11    1    4    4    0    0  0.19976599458E+03  0.36595543187E+02 -0.14041255677E+03  0.24690356918E+03  0.51100000000E-03 0.  1.
    -200002    1    4    4    0    0  0.10275376372E+03  0.74126077508E+02 -0.43543065780E+03  0.45448087868E+03  0.30000000000E+02 0.  1.
    -200000    1    3    3    0    0 -0.86750119829E+02 -0.13828924495E+02  0.47431016659E+02  0.14201240715E+03  0.10100000000E+03 0. -1.
<mgrwt>
<rscale>  0 0.13327700E+04</rscale>
<asrwt>0</asrwt>
<pdfrwt beam="1">  1        2 0.16811392E+00 0.13327700E+04</pdfrwt>
<pdfrwt beam="2">  1       -2 0.53907686E-01 0.13327700E+04</pdfrwt>
<totfact> 0.69900028E+01</totfact>
</mgrwt>
</event>
<event>
 8    2  0.7237260E-052  0.1284773E+04  0.7818608E-02  0.9041728E-01
         -2   -1    0    0    0  501 -0.00000000000E+00  0.00000000000E+00  0.39099023391E+03  0.39099023392E+03  0.25500000000E-02 0. -1.
          2   -1    0    0  501    0  0.00000000000E+00 -0.00000000000E+00 -0.10554238102E+04  0.10554238102E+04  0.25500000000E-02 0.  1.
    -200001    2    1    2    0    0  0.41466588128E+02 -0.17273362328E+03 -0.41564864023E+03  0.76141818507E+03  0.61272953078E+03 0.  0.
   -5000001    2    3    3    0    0 -0.74567711298E+02  0.37537787214E+02 -0.39941942433E+03  0.50037716882E+03  0.28960663927E+03 0.  0.
     200001    1    1    2    0    0 -0.41466588128E+02  0.17273362328E+03 -0.24878493610E+03  0.68499585909E+03  0.61300000000E+03 0. -1.
         11    1    4    4    0    0 -0.17646121815E+03  0.70661801061E+02 -0.24741148568E+03  0.31200015206E+03  0.51100000000E-03 0.  1.
    -200002    1    4    4    0    0  0.10189350685E+03 -0.33124013847E+02 -0.15200793864E+03  0.18837701676E+03  0.30000000000E+02 0.  1.
    -200000    1    3    3    0    0  0.11603429943E+03 -0.21027141050E+03 -0.16229215899E+02  0.26104101625E+03  0.10100000000E+03 0. -1.
<mgrwt>
<rscale>  0 0.12847730E+04</rscale>
<asrwt>0</asrwt>
<pdfrwt beam="1">  1        2 0.15077483E+00 0.12847730E+04</pdfrwt>
<pdfrwt beam="2">  1       -2 0.55855748E-01 0.12847730E+04</pdfrwt>
<totfact> 0.76787275E+01</totfact>
</mgrwt>
</event>
<event>
 8    2  0.7237260E-052  0.1831796E+04  0.7818608E-02  0.8689571E-01
          2   -1    0    0  501    0  0.00000000000E+00  0.00000000000E+00  0.11349997232E+04  0.11349997232E+04  0.25500000000E-02 0.  1.
         -2   -1    0    0    0  501 -0.00000000000E+00 -0.00000000000E+00 -0.73909215360E+03  0.73909215361E+03  0.25500000000E-02 0. -1.
    -200001    2    1    2    0    0  0.35291544002E+03  0.48762991794E+03  0.52251552501E+03  0.10056848184E+04  0.61322690377E+03 0.  0.
   -5000001    2    3    3    0    0  0.45731361120E+03  0.22489306228E+03  0.19178123793E+03  0.55901290068E+03  0.12650198205E+03 0.  0.
     200001    1    1    2    0    0 -0.35291544002E+03 -0.48762991794E+03 -0.12660795540E+03  0.86840705838E+03  0.61300000000E+03 0. -1.
         11    1    4    4    0    0  0.51276048668E+02  0.56210867058E+02 -0.52573045504E+01  0.76266204795E+02  0.51100000000E-03 0.  1.
    -200002    1    4    4    0    0  0.40603756253E+03  0.16868219522E+03  0.19703854248E+03  0.48274669589E+03  0.30000000000E+02 0.  1.
    -200000    1    3    3    0    0 -0.10439817118E+03  0.26273685566E+03  0.33073428708E+03  0.44667191777E+03  0.10100000000E+03 0.  1.
<mgrwt>
<rscale>  0 0.18317963E+04</rscale>
<asrwt>0</asrwt>
<pdfrwt beam="1">  1        2 0.16214282E+00 0.18317963E+04</pdfrwt>
<pdfrwt beam="2">  1       -2 0.10558459E+00 0.18317963E+04</pdfrwt>
<totfact> 0.15970114E+01</totfact>
</mgrwt>
</event>
<event>
 8    2  0.7237260E-052  0.1241175E+04  0.7818608E-02  0.9077560E-01
          2   -1    0    0  501    0  0.00000000000E+00  0.00000000000E+00  0.12265196149E+04  0.12265196149E+04  0.25500000000E-02 0.  1.
         -2   -1    0    0    0  501 -0.00000000000E+00 -0.00000000000E+00 -0.31400140842E+03  0.31400140843E+03  0.25500000000E-02 0. -1.
    -200001    2    1    2    0    0 -0.10514518873E+03  0.21796978913E+02  0.47464622355E+03  0.77957983478E+03  0.60903617484E+03 0.  0.
   -5000001    2    3    3    0    0  0.13397275845E+03  0.23487433121E+03  0.22183739108E+03  0.35923157857E+03  0.81980775135E+02 0.  0.
     200001    1    1    2    0    0  0.10514518873E+03 -0.21796978913E+02  0.43787198295E+03  0.76094118856E+03  0.61300000000E+03 0. -1.
         11    1    4    4    0    0  0.19019437870E+02  0.10139115783E+03  0.93487313126E+02  0.13921847441E+03  0.51100000000E-03 0.  1.
    -200002    1    4    4    0    0  0.11495332058E+03  0.13348317338E+03  0.12835007796E+03  0.22001310416E+03  0.30000000000E+02 0. -1.
    -200000    1    3    3    0    0 -0.23911794718E+03 -0.21307735230E+03  0.25280883247E+03  0.42034825621E+03  0.10100000000E+03 0.  1.
<mgrwt>
<rscale>  0 0.12411751E+04</rscale>
<asrwt>0</asrwt>
<pdfrwt beam="1">  1        2 0.17521709E+00 0.12411751E+04</pdfrwt>
<pdfrwt beam="2">  1       -2 0.44857344E-01 0.12411751E+04</pdfrwt>
<totfact> 0.95716683E+01</totfact>
</mgrwt>
</event>
<event>
 8    2  0.7237260E-052  0.1439519E+04  0.7818608E-02  0.8925699E-01
          2   -1    0    0  501    0  0.00000000000E+00  0.00000000000E+00  0.26471501865E+04  0.26471501865E+04  0.25500000000E-02 0.  1.
         -2   -1    0    0    0  501 -0.00000000000E+00 -0.00000000000E+00 -0.19570245808E+03  0.19570245810E+03  0.25500000000E-02 0. -1.
    -200001    2    1    2    0    0  0.61150492407E+01 -0.28693839371E+02  0.19683168127E+04  0.20617987336E+04  0.61309233584E+03 0.  0.
   -5000001    2    3    3    0    0  0.15186969292E+03 -0.20480038897E+03  0.46014859368E+03  0.53306386123E+03  0.86097322478E+02 0.  0.
     200001    1    1    2    0    0 -0.61150492407E+01  0.28693839371E+02  0.48313091572E+03  0.78105391105E+03  0.61300000000E+03 0. -1.
         11    1    4    4    0    0  0.63228165011E+02 -0.72672235663E+02  0.10353900540E+03  0.14141916534E+03  0.51100000000E-03 0.  1.
    -200002    1    4    4    0    0  0.88641527906E+02 -0.13212815331E+03  0.35660958827E+03  0.39164469589E+03  0.30000000000E+02 0.  1.
    -200000    1    3    3    0    0 -0.14575464368E+03  0.17610654960E+03  0.15081682190E+04  0.15287348723E+04  0.10100000000E+03 0.  1.
<mgrwt>
<rscale>  0 0.14395191E+04</rscale>
<asrwt>0</asrwt>
<pdfrwt beam="1">  1        2 0.37816430E+00 0.14395191E+04</pdfrwt>
<pdfrwt beam="2">  1       -2 0.27957495E-01 0.14395191E+04</pdfrwt>
<totfact> 0.41930904E+01</totfact>
</mgrwt>
</event>
<event>
 8    2  0.7237260E-052  0.1875807E+04  0.7818608E-02  0.8666993E-01
         -2   -1    0    0    0  501 -0.00000000000E+00  0.00000000000E+00  0.43254462119E+03  0.43254462119E+03  0.25500000000E-02 0.  1.
          2   -1    0    0  501    0  0.00000000000E+00 -0.00000000000E+00 -0.20336933556E+04  0.20336933556E+04  0.25500000000E-02 0. -1.
    -200001    2    1    2    0    0 -0.11061292029E+03 -0.61343879008E+03 -0.12467617264E+04  0.15228920600E+04  0.61338654747E+03 0.  0.
   -5000001    2    3    3    0    0 -0.19095658219E+03  0.27868515012E+02 -0.42354924913E+03  0.47141217605E+03  0.74795741035E+02 0.  0.
     200001    1    1    2    0    0  0.11061292029E+03  0.61343879008E+03 -0.35438700800E+03  0.94334591680E+03  0.61300000000E+03 0.  1.
         11    1    4    4    0    0 -0.89824204731E+02  0.34955083191E+01 -0.12601164761E+03  0.15478870006E+03  0.51100000000E-03 0.  1.
    -200002    1    4    4    0    0 -0.10113237746E+03  0.24373006693E+02 -0.29753760152E+03  0.31662347599E+03  0.30000000000E+02 0.  1.
    -200000    1    3    3    0    0  0.80343661904E+02 -0.64130730509E+03 -0.82321247726E+03  0.10514798839E+04  0.10100000000E+03 0. -1.
<mgrwt>
<rscale>  0 0.18758072E+04</rscale>
<asrwt>0</asrwt>
<pdfrwt beam="1">  1        2 0.29052762E+00 0.18758072E+04</pdfrwt>
<pdfrwt beam="2">  1       -2 0.61792090E-01 0.18758072E+04</pdfrwt>
<totfact> 0.17653423E+01</totfact>
</mgrwt>
</event>
<event>
 8    2  0.7237260E-052  0.1303970E+04  0.7818608E-02  0.9026423E-01
          2   -1    0    0  501    0  0.00000000000E+00  0.00000000000E+00  0.20444387902E+04  0.20444387902E+04  0.25500000000E-02 0.  1.
         -2   -1    0    0    0  501 -0.00000000000E+00 -0.00000000000E+00 -0.20792224672E+03  0.20792224673E+03  0.25500000000E-02 0. -1.
    -200001    2    1    2    0    0  0.49789778881E+01 -0.57063042269E+02  0.54470830526E+03  0.82134094436E+03  0.61205622948E+03 0.  0.
   -5000001    2    3    3    0    0  0.16064129795E+03  0.19680458950E+03  0.34052318316E+03  0.44641148908E+03  0.13707481995E+03 0.  0.
     200001    1    1    2    0    0 -0.49789778881E+01  0.57063042269E+02  0.12918082382E+04  0.14310200926E+04  0.61300000000E+03 0.  1.
         11    1    4    4    0    0  0.14138492086E+03  0.19959601628E+03  0.25319128954E+03  0.35204274551E+03  0.51100000000E-03 0.  1.
    -200002    1    4    4    0    0  0.19256377084E+02 -0.27914267857E+01  0.87331893616E+02  0.94368743577E+02  0.30000000000E+02 0.  1.
    -200000    1    3    3    0    0 -0.15566232006E+03 -0.25386763177E+03  0.20418512210E+03  0.37492945528E+03  0.10100000000E+03 0. -1.
<mgrwt>
<rscale>  0 0.13039698E+04</rscale>
<asrwt>0</asrwt>
<pdfrwt beam="1">  1        2 0.29206268E+00 0.13039698E+04</pdfrwt>
<pdfrwt beam="2">  1       -2 0.29703179E-01 0.13039698E+04</pdfrwt>
<totfact> 0.77973322E+01</totfact>
</mgrwt>
</event>
<event>
 8    2  0.7237260E-052  0.1334416E+04  0.7818608E-02  0.9002709E-01
         -2   -1    0    0    0  501 -0.00000000000E+00  0.00000000000E+00  0.74457070762E+03  0.74457070762E+03  0.25500000000E-02 0. -1.
          2   -1    0    0  501    0  0.00000000000E+00 -0.00000000000E+00 -0.59788382325E+03  0.59788382326E+03  0.25500000000E-02 0.  1.
    -200001    2    1    2    0    0  0.25769832179E+03 -0.19943644025E+01  0.16377967976E+02  0.66483973158E+03  0.61264282279E+03 0.  0.
   -5000001    2    3    3    0    0  0.44197649055E+03 -0.19176462207E+02  0.61256901137E+02  0.44927353152E+03  0.48819496980E+02 0.  0.
     200001    1    1    2    0    0 -0.25769832179E+03  0.19943644025E+01  0.13030891639E+03  0.67761479930E+03  0.61300000000E+03 0. -1.
         11    1    4    4    0    0  0.39649651664E+02 -0.57650525260E+01 -0.43803711473E+01  0.40305314282E+02  0.51100000000E-03 0.  1.
    -200002    1    4    4    0    0  0.40232683889E+03 -0.13411409681E+02  0.65637272284E+02  0.40896821724E+03  0.30000000000E+02 0.  1.
    -200000    1    3    3    0    0 -0.18427816876E+03  0.17182097805E+02 -0.44878933161E+02  0.21556620006E+03  0.10100000000E+03 0. -1.
<mgrwt>
<rscale>  0 0.13344164E+04</rscale>
<asrwt>0</asrwt>
<pdfrwt beam="1">  1        2 0.85411974E-01 0.13344164E+04</pdfrwt>
<pdfrwt beam="2">  1       -2 0.10636724E+00 0.13344164E+04</pdfrwt>
<totfact> 0.38026379E+01</totfact>
</mgrwt>
</event>
<event>
 8    2  0.7237260E-052  0.1534707E+04  0.7818608E-02  0.8861696E-01
         -2   -1    0    0    0  501 -0.00000000000E+00  0.00000000000E+00  0.44543705924E+03  0.44543705925E+03  0.25500000000E-02 0. -1.
          2   -1    0    0  501    0  0.00000000000E+00 -0.00000000000E+00 -0.13219183732E+04  0.13219183732E+04  0.25500000000E-02 0.  1.
    -200001    2    1    2    0    0  0.36802888334E+03 -0.28125793613E+02 -0.11899390173E+03  0.72534175742E+03  0.61296394443E+03 0.  0.
   -5000001    2    3    3    0    0  0.35161586052E+03  0.56138853493E+02  0.16826114322E+03  0.40897744382E+03  0.11029711238E+03 0.  0.
     200001    1    1    2    0    0 -0.36802888334E+03  0.28125793613E+02 -0.75748741219E+03  0.10420136750E+04  0.61300000000E+03 0.  1.
         11    1    4    4    0    0  0.17141011448E+03 -0.29359829695E+01  0.34219765392E+02  0.17481716073E+03  0.51100000000E-03 0.  1.
    -200002    1    4    4    0    0  0.18020574604E+03  0.59074836462E+02  0.13404137783E+03  0.23416028309E+03  0.30000000000E+02 0.  1.
    -200000    1    3    3    0    0  0.16413022826E+02 -0.84264647106E+02 -0.28725504495E+03  0.31636431360E+03  0.10100000000E+03 0.  1.
<mgrwt>
<rscale>  0 0.15347071E+04</rscale>
<asrwt>0</asrwt>
<pdfrwt beam="1">  1        2 0.18884548E+00 0.15347071E+04</pdfrwt>
<pdfrwt beam="2">  1       -2 0.63633866E-01 0.15347071E+04</pdfrwt>
<totfact> 0.40272940E+01</totfact>
</mgrwt>
</event>
<event>
 8    2  0.7237260E-052  0.1525142E+04  0.7818608E-02  0.8867904E-01
          2   -1    0    0  501    0  0.00000000000E+00  0.00000000000E+00  0.92774571625E+03  0.92774571625E+03  0.25500000000E-02 0.  1.
         -2   -1    0    0    0  501 -0.00000000000E+00 -0.00000000000E+00 -0.62680411037E+03  0.62680411038E+03  0.25500000000E-02 0. -1.
    -200001    2    1    2    0    0 -0.12729022516E+03 -0.15654482710E+03 -0.26394276339E+03  0.69689463079E+03  0.61260693741E+03 0.  0.
   -5000001    2    3    3    0    0 -0.19002613928E+03  0.16941561016E+03 -0.59041657803E+01  0.26449329010E+03  0.71486073873E+02 0.  0.
     200001    1    1    2    0    0  0.12729022516E+03  0.15654482710E+03  0.56488436927E+03  0.85765519584E+03  0.61300000000E+03 0.  1.
         11    1    4    4    0    0 -0.68893116095E+02  0.61980194203E+02 -0.31436886295E+02  0.97857466445E+02  0.51100000000E-03 0.  1.
    -200002    1    4    4    0    0 -0.12113302319E+03  0.10743541595E+03  0.25532720515E+02  0.16663582365E+03  0.30000000000E+02 0.  1.
    -200000    1    3    3    0    0  0.62735914120E+02 -0.32596043725E+03 -0.25803859761E+03  0.43240134069E+03  0.10100000000E+03 0. -1.
<mgrwt>
<rscale>  0 0.15251424E+04</rscale>
<asrwt>0</asrwt>
<pdfrwt beam="1">  1        2 0.13253510E+00 0.15251424E+04</pdfrwt>
<pdfrwt beam="2">  1       -2 0.89543444E-01 0.15251424E+04</pdfrwt>
<totfact> 0.32241936E+01</totfact>
</mgrwt>
</event>
<event>
 8    2  0.7237260E-052  0.1891927E+04  0.7818608E-02  0.8658885E-01
         -2   -1    0    0    0  501 -0.00000000000E+00  0.00000000000E+00  0.45478971267E+03  0.45478971267E+03  0.25500000000E-02 0. -1.
          2   -1    0    0  501    0  0.00000000000E+00 -0.00000000000E+00 -0.19676057657E+04  0.19676057657E+04  0.25500000000E-02 0.  1.
    -200001    2    1    2    0    0 -0.44302489701E+03 -0.48048456699E+01 -0.29754824394E+02  0.75760307276E+03  0.61382645785E+03 0.  0.
   -5000001    2    3    3    0    0 -0.51028391801E+03 -0.64020148428E+02 -0.18320698907E+03  0.55320445527E+03  0.89342666737E+02 0.  0.
     200001    1    1    2    0    0  0.44302489701E+03  0.48048456699E+01 -0.14830612287E+04  0.16647924056E+04  0.61300000000E+03 0.  1.
         11    1    4    4    0    0 -0.40799380230E+03 -0.71264783107E+02 -0.15906971305E+03  0.44366742684E+03  0.51100000000E-03 0.  1.
    -200002    1    4    4    0    0 -0.10229011571E+03  0.72446346786E+01 -0.24137276016E+02  0.10953702843E+03  0.30000000000E+02 0.  1.
    -200000    1    3    3    0    0  0.67259021000E+02  0.59215302758E+02  0.15345216468E+03  0.20439861749E+03  0.10100000000E+03 0.  1.
<mgrwt>
<rscale>  0 0.18919269E+04</rscale>
<asrwt>0</asrwt>
<pdfrwt beam="1">  1        2 0.28108653E+00 0.18919269E+04</pdfrwt>
<pdfrwt beam="2">  1       -2 0.64969960E-01 0.18919269E+04</pdfrwt>
<totfact> 0.17130320E+01</totfact>
</mgrwt>
</event>
<event>
 8    2  0.7237260E-052  0.1764335E+04  0.7818608E-02  0.8725499E-01
         -2   -1    0    0    0  501 -0.00000000000E+00  0.00000000000E+00  0.26786296898E+03  0.26786296899E+03  0.25500000000E-02 0.  1.
          2   -1    0    0  501    0  0.00000000000E+00 -0.00000000000E+00 -0.29052893719E+04  0.29052893719E+04  0.25500000000E-02 0. -1.
    -200001    2    1    2    0    0  0.33014877598E+03 -0.33948545470E+03 -0.56032559483E+03  0.95631555051E+03  0.61345421321E+03 0.  0.
   -5000001    2    3    3    0    0 -0.67655163869E+02  0.27204888995E+02 -0.33921464233E+03  0.36318754069E+03  0.10733726735E+03 0.  0.
     200001    1    1    2    0    0 -0.33014877598E+03  0.33948545470E+03 -0.20771008081E+04  0.22168367904E+04  0.61300000000E+03 0. -1.
         11    1    4    4    0    0  0.25302451122E+01  0.46746472847E+02 -0.84954717201E+02  0.96999684736E+02  0.51100000000E-03 0.  1.
    -200002    1    4    4    0    0 -0.70185408981E+02 -0.19541583852E+02 -0.25425992513E+03  0.26618785596E+03  0.30000000000E+02 0.  1.
    -200000    1    3    3    0    0  0.39780393985E+03 -0.36669034369E+03 -0.22111095250E+03  0.59312800982E+03  0.10100000000E+03 0.  1.
<mgrwt>
<rscale>  0 0.17643349E+04</rscale>
<asrwt>0</asrwt>
<pdfrwt beam="1">  1        2 0.41504132E+00 0.17643349E+04</pdfrwt>
<pdfrwt beam="2">  1       -2 0.38266140E-01 0.17643349E+04</pdfrwt>
<totfact> 0.16335214E+01</totfact>
</mgrwt>
</event>
<event>
 8    2  0.7237260E-052  0.2010057E+04  0.7818608E-02  0.8601933E-01
          2   -1    0    0  501    0  0.00000000000E+00  0.00000000000E+00  0.11338658037E+04  0.11338658038E+04  0.25500000000E-02 0.  1.
         -2   -1    0    0    0  501 -0.00000000000E+00 -0.00000000000E+00 -0.89083058977E+03  0.89083058978E+03  0.25500000000E-02 0. -1.
    -200001    2    1    2    0    0  0.12473099656E+03  0.77285557658E+03 -0.34738808671E+02  0.99232486573E+03  0.60880069856E+03 0.  0.
   -5000001    2    3    3    0    0  0.18469839122E+03  0.63772442833E+03 -0.24838050808E+03  0.71357714578E+03  0.81813959588E+02 0.  0.
     200001    1    1    2    0    0 -0.12473099656E+03 -0.77285557658E+03  0.27777402265E+03  0.10323715278E+04  0.61300000000E+03 0. -1.
         11    1    4    4    0    0  0.14312955188E+03  0.41640645677E+03 -0.14135696951E+03  0.46245237451E+03  0.51100000000E-03 0.  1.
    -200002    1    4    4    0    0  0.41568839342E+02  0.22131797156E+03 -0.10702353857E+03  0.25112477127E+03  0.30000000000E+02 0. -1.
    -200000    1    3    3    0    0 -0.59967394660E+02  0.13513114825E+03  0.21364169941E+03  0.27874771995E+03  0.10100000000E+03 0.  1.
<mgrwt>
<rscale>  0 0.20100571E+04</rscale>
<asrwt>0</asrwt>
<pdfrwt beam="1">  1        2 0.16198083E+00 0.20100571E+04</pdfrwt>
<pdfrwt beam="2">  1       -2 0.12726151E+00 0.20100571E+04</pdfrwt>
<totfact> 0.99693931E+00</totfact>
</mgrwt>
</event>
<event>
 8    2  0.7237260E-052  0.1459313E+04  0.7818608E-02  0.8911970E-01
          2   -1    0    0  501    0  0.00000000000E+00  0.00000000000E+00  0.25308944694E+04  0.25308944694E+04  0.25500000000E-02 0.  1.
         -2   -1    0    0    0  501 -0.00000000000E+00 -0.00000000000E+00 -0.21035974870E+03  0.21035974872E+03  0.25500000000E-02 0. -1.
    -200001    2    1    2    0    0  0.35296294339E+03  0.17140235560E+03  0.12640095413E+04  0.14582982323E+04  0.61233324821E+03 0.  0.
   -5000001    2    3    3    0    0 -0.15145768128E+03  0.76448816746E+02  0.48948722905E+03  0.52366346227E+03  0.76431822635E+02 0.  0.
     200001    1    1    2    0    0 -0.35296294339E+03 -0.17140235560E+03  0.10565251795E+04  0.12829559859E+04  0.61300000000E+03 0.  1.
         11    1    4    4    0    0 -0.25701011191E+00  0.85234997577E+01  0.86045748157E+02  0.86467258997E+02  0.51100000000E-03 0.  1.
    -200002    1    4    4    0    0 -0.15120067117E+03  0.67925316989E+02  0.40344148089E+03  0.43719620327E+03  0.30000000000E+02 0.  1.
    -200000    1    3    3    0    0  0.50442062468E+03  0.94953538859E+02  0.77452231223E+03  0.93463476999E+03  0.10100000000E+03 0.  1.
<mgrwt>
<rscale>  0 0.14593126E+04</rscale>
<asrwt>0</asrwt>
<pdfrwt beam="1">  1        2 0.36155636E+00 0.14593126E+04</pdfrwt>
<pdfrwt beam="2">  1       -2 0.30051392E-01 0.14593126E+04</pdfrwt>
<totfact> 0.42190531E+01</totfact>
</mgrwt>
</event>
<event>
 8    2  0.7237260E-052  0.1548868E+04  0.7818608E-02  0.8852591E-01
         -2   -1    0    0    0  501 -0.00000000000E+00  0.00000000000E+00  0.35543136979E+03  0.35543136979E+03  0.25500000000E-02 0. -1.
          2   -1    0    0  501    0  0.00000000000E+00 -0.00000000000E+00 -0.16873802387E+04  0.16873802387E+04  0.25500000000E-02 0.  1.
    -200001    2    1    2    0    0  0.28340906820E+03  0.35308786374E+03 -0.48298279005E+03  0.90197676396E+03  0.61261567706E+03 0.  0.
   -5000001    2    3    3    0    0 -0.84144994433E+02  0.36118954621E+03 -0.26561689053E+03  0.46310256730E+03  0.79833495013E+02 0.  0.
     200001    1    1    2    0    0 -0.28340906820E+03 -0.35308786374E+03 -0.84896607886E+03  0.11408348445E+04  0.61300000000E+03 0.  1.
         11    1    4    4    0    0 -0.65599723499E+01  0.27797862764E+02  0.38003756760E+00  0.28563943010E+02  0.51100000000E-03 0.  1.
    -200002    1    4    4    0    0 -0.77585022084E+02  0.33339168345E+03 -0.26599692810E+03  0.43453862429E+03  0.30000000000E+02 0.  1.
    -200000    1    3    3    0    0  0.36755406263E+03 -0.81016824738E+01 -0.21736589952E+03  0.43887419666E+03  0.10100000000E+03 0. -1.
<mgrwt>
<rscale>  0 0.15488678E+04</rscale>
<asrwt>0</asrwt>
<pdfrwt beam="1">  1        2 0.24105432E+00 0.15488678E+04</pdfrwt>
<pdfrwt beam="2">  1       -2 0.50775911E-01 0.15488678E+04</pdfrwt>
<totfact> 0.41170790E+01</totfact>
</mgrwt>
</event>
<event>
 8    2  0.7237260E-052  0.1311203E+04  0.7818608E-02  0.9020728E-01
          2   -1    0    0  501    0  0.00000000000E+00  0.00000000000E+00  0.61048847649E+03  0.61048847650E+03  0.25500000000E-02 0.  1.
         -2   -1    0    0    0  501 -0.00000000000E+00 -0.00000000000E+00 -0.70404788717E+03  0.70404788718E+03  0.25500000000E-02 0. -1.
    -200001    2    1    2    0    0  0.14099760146E+03 -0.61344734577E+02  0.12806696561E+03  0.64481197951E+03  0.61297458444E+03 0.  0.
   -5000001    2    3    3    0    0  0.24908481382E+03  0.23032763867E+02  0.29623860000E+03  0.40546890706E+03  0.11863378007E+03 0.  0.
     200001    1    1    2    0    0 -0.14099760146E+03  0.61344734577E+02 -0.22162637629E+03  0.66972438417E+03  0.61300000000E+03 0. -1.
         11    1    4    4    0    0  0.35327837705E+02 -0.38617742885E+02  0.58392673459E+02  0.78416136710E+02  0.51100000000E-03 0.  1.
    -200002    1    4    4    0    0  0.21375697612E+03  0.61650506753E+02  0.23784592654E+03  0.32705277035E+03  0.30000000000E+02 0.  1.
    -200000    1    3    3    0    0 -0.10808721236E+03 -0.84377498445E+02 -0.16817163439E+03  0.23934307245E+03  0.10100000000E+03 0. -1.
<mgrwt>
<rscale>  0 0.13112027E+04</rscale>
<asrwt>0</asrwt>
<pdfrwt beam="1">  1        2 0.87212640E-01 0.13112027E+04</pdfrwt>
<pdfrwt beam="2">  1       -2 0.10057827E+00 0.13112027E+04</pdfrwt>
<totfact> 0.42482040E+01</totfact>
</mgrwt>
</event>
<event>
 8    2  0.7237260E-052  0.1740484E+04  0.7818608E-02  0.8738606E-01
          2   -1    0    0  501    0  0.00000000000E+00  0.00000000000E+00  0.61274142361E+03  0.61274142361E+03  0.25500000000E-02 0.  1.
         -2   -1    0    0    0  501 -0.00000000000E+00 -0.00000000000E+00 -0.12359558712E+04  0.12359558713E+04  0.25500000000E-02 0. -1.
    -200001    2    1    2    0    0 -0.47368521658E+03 -0.27979959696E+03 -0.12849328526E+02  0.82352410096E+03  0.61266739816E+03 0.  0.
   -5000001    2    3    3    0    0 -0.27120955666E+03  0.11344221687E+03 -0.30907093012E+02  0.36947278244E+03  0.22165542712E+03 0.  0.
     200001    1    1    2    0    0  0.47368521658E+03  0.27979959696E+03 -0.61036511911E+03  0.10251731939E+04  0.61300000000E+03 0. -1.
         11    1    4    4    0    0 -0.23879243325E+03  0.26122054402E+02  0.46532876480E+02  0.24468244011E+03  0.51100000000E-03 0.  1.
    -200002    1    4    4    0    0 -0.32417123409E+02  0.87320162464E+02 -0.77439969493E+02  0.12479034233E+03  0.30000000000E+02 0.  1.
    -200000    1    3    3    0    0 -0.20247565992E+03 -0.39324181383E+03  0.18057764486E+02  0.45405131853E+03  0.10100000000E+03 0.  1.
<mgrwt>
<rscale>  0 0.17404843E+04</rscale>
<asrwt>0</asrwt>
<pdfrwt beam="1">  1        2 0.87534490E-01 0.17404843E+04</pdfrwt>
<pdfrwt beam="2">  1       -2 0.17656512E+00 0.17404843E+04</pdfrwt>
<totfact> 0.96353574E+00</totfact>
</mgrwt>
</event>
<event>
 8    2  0.7237260E-052  0.1480859E+04  0.7818608E-02  0.8897282E-01
          2   -1    0    0  501    0  0.00000000000E+00  0.00000000000E+00  0.10988363715E+04  0.10988363715E+04  0.25500000000E-02 0.  1.
         -2   -1    0    0    0  501 -0.00000000000E+00 -0.00000000000E+00 -0.49892413018E+03  0.49892413019E+03  0.25500000000E-02 0. -1.
    -200001    2    1    2    0    0 -0.36339336483E+03 -0.20235250504E+03  0.29243830634E+03  0.79569411129E+03  0.61205202542E+03 0.  0.
   -5000001    2    3    3    0    0 -0.21435095645E+03 -0.16148622759E+03  0.46623869899E+03  0.54213688182E+03  0.67154597463E+02 0.  0.
     200001    1    1    2    0    0  0.36339336483E+03  0.20235250504E+03  0.30747393496E+03  0.80206639038E+03  0.61300000000E+03 0. -1.
         11    1    4    4    0    0 -0.12634941679E+03 -0.91422646252E+02  0.31289533050E+03  0.34960801367E+03  0.51100000000E-03 0.  1.
    -200002    1    4    4    0    0 -0.88001539656E+02 -0.70063581337E+02  0.15334336849E+03  0.19252886815E+03  0.30000000000E+02 0. -1.
    -200000    1    3    3    0    0 -0.14904240838E+03 -0.40866277454E+02 -0.17380039265E+03  0.25355722947E+03  0.10100000000E+03 0. -1.
<mgrwt>
<rscale>  0 0.14808592E+04</rscale>
<asrwt>0</asrwt>
<pdfrwt beam="1">  1        2 0.15697663E+00 0.14808592E+04</pdfrwt>
<pdfrwt beam="2">  1       -2 0.71274875E-01 0.14808592E+04</pdfrwt>
<totfact> 0.42385027E+01</totfact>
</mgrwt>
</event>
<event>
 8    2  0.7237260E-052  0.1515228E+04  0.7818608E-02  0.8874389E-01
         -2   -1    0    0    0  501 -0.00000000000E+00  0.00000000000E+00  0.76784880995E+03  0.76784880996E+03  0.25500000000E-02 0. -1.
          2   -1    0    0  501    0  0.00000000000E+00 -0.00000000000E+00 -0.74751587977E+03  0.74751587977E+03  0.25500000000E-02 0.  1.
    -200001    2    1    2    0    0 -0.21255905335E+03  0.14658179004E+03 -0.35053418135E+03  0.75380117514E+03  0.61536527933E+03 0.  0.
   -5000001    2    3    3    0    0 -0.18081823738E+03  0.10509956440E+03 -0.42963536757E+02  0.42588509462E+03  0.36849843273E+03 0.  0.
     200001    1    1    2    0    0  0.21255905335E+03 -0.14658179004E+03  0.37086711154E+03  0.76156351459E+03  0.61300000000E+03 0. -1.
         11    1    4    4    0    0  0.35938436296E+02 -0.84927544407E+02 -0.93917115881E+02  0.13162326412E+03  0.51100000000E-03 0.  1.
    -200002    1    4    4    0    0 -0.21675667368E+03  0.19002710880E+03  0.50953579124E+02  0.29426183050E+03  0.30000000000E+02 0.  1.
    -200000    1    3    3    0    0 -0.31740815967E+02  0.41482225646E+02 -0.30757064460E+03  0.32791608052E+03  0.10100000000E+03 0.  1.
<mgrwt>
<rscale>  0 0.15152283E+04</rscale>
<asrwt>0</asrwt>
<pdfrwt beam="1">  1        2 0.10678798E+00 0.15152283E+04</pdfrwt>
<pdfrwt beam="2">  1       -2 0.10969269E+00 0.15152283E+04</pdfrwt>
<totfact> 0.26523297E+01</totfact>
</mgrwt>
</event>
<event>
 8    2  0.7237260E-052  0.1775724E+04  0.7818608E-02  0.8719317E-01
          2   -1    0    0  501    0  0.00000000000E+00  0.00000000000E+00  0.86611551856E+03  0.86611551856E+03  0.25500000000E-02 0.  1.
         -2   -1    0    0    0  501 -0.00000000000E+00 -0.00000000000E+00 -0.91015425837E+03  0.91015425837E+03  0.25500000000E-02 0. -1.
    -200001    2    1    2    0    0 -0.27511559214E+03 -0.93260870286E+02 -0.59607206528E+03  0.90168646392E+03  0.61102405292E+03 0.  0.
   -5000001    2    3    3    0    0  0.26909148741E+02 -0.21471813113E+03 -0.49472749834E+03  0.54609887757E+03  0.81490541472E+02 0.  0.
     200001    1    1    2    0    0  0.27511559214E+03  0.93260870286E+02  0.55203332547E+03  0.87458331301E+03  0.61300000000E+03 0.  1.
         11    1    4    4    0    0  0.73740880408E+00 -0.10004134830E+03 -0.14718970004E+03  0.17797084857E+03  0.51100000000E-03 0.  1.
    -200002    1    4    4    0    0  0.26171739937E+02 -0.11467678282E+03 -0.34753779830E+03  0.36812802900E+03  0.30000000000E+02 0.  1.
    -200000    1    3    3    0    0 -0.30202474089E+03  0.12145726084E+03 -0.10134456694E+03  0.35558758635E+03  0.10100000000E+03 0. -1.
<mgrwt>
<rscale>  0 0.17757238E+04</rscale>
<asrwt>0</asrwt>
<pdfrwt beam="1">  1        2 0.12373079E+00 0.17757238E+04</pdfrwt>
<pdfrwt beam="2">  1       -2 0.13002204E+00 0.17757238E+04</pdfrwt>
<totfact> 0.14102085E+01</totfact>
</mgrwt>
</event>
<event>
 8    2  0.7237260E-052  0.1309239E+04  0.7818608E-02  0.9022271E-01
          2   -1    0    0  501    0  0.00000000000E+00  0.00000000000E+00  0.23745947048E+04  0.23745947048E+04  0.25500000000E-02 0.  1.
         -2   -1    0    0    0  501 -0.00000000000E+00 -0.00000000000E+00 -0.18046304930E+03  0.18046304931E+03  0.25500000000E-02 0. -1.
    -200001    2    1    2    0    0  0.15382021207E+03  0.89103933584E+02  0.81519576079E+03  0.10355731802E+04  0.61340648393E+03 0.  0.
   -5000001    2    3    3    0    0  0.25818023141E+03  0.73818996942E+02  0.82412314792E+03  0.88926753723E+03  0.19877503270E+03 0.  0.
     200001    1    1    2    0    0 -0.15382021207E+03 -0.89103933584E+02  0.13789358947E+04  0.15194845739E+04  0.61300000000E+03 0.  1.
         11    1    4    4    0    0  0.13450376117E+03  0.66679725993E+02  0.18843162751E+03  0.24092307045E+03  0.51100000000E-03 0.  1.
    -200002    1    4    4    0    0  0.12367647024E+03  0.71392709497E+01  0.63569152041E+03  0.64834446678E+03  0.30000000000E+02 0.  1.
    -200000    1    3    3    0    0 -0.10436001934E+03  0.15284936641E+02 -0.89273871327E+01  0.14630564297E+03  0.10100000000E+03 0. -1.
<mgrwt>
<rscale>  0 0.13092389E+04</rscale>
<asrwt>0</asrwt>
<pdfrwt beam="1">  1        2 0.33922779E+00 0.13092389E+04</pdfrwt>
<pdfrwt beam="2">  1       -2 0.25780438E-01 0.13092389E+04</pdfrwt>
<totfact> 0.68361138E+01</totfact>
</mgrwt>
</event>
<event>
 8    2  0.7237260E-052  0.2154676E+04  0.7818608E-02  0.8537533E-01
          2   -1    0    0  501    0  0.00000000000E+00  0.00000000000E+00  0.78618245822E+03  0.78618245823E+03  0.25500000000E-02 0.  1.
         -2   -1    0    0    0  501 -0.00000000000E+00 -0.00000000000E+00 -0.14763203213E+04  0.14763203213E+04  0.25500000000E-02 0. -1.
    -200001    2    1    2    0    0  0.77891538047E+03 -0.60425088285E+02  0.90666723280E+02  0.99925887464E+03  0.61639068991E+03 0.  0.
   -5000001    2    3    3    0    0  0.76976773866E+03  0.12356239830E+02 -0.64078931032E+02  0.80044232955E+03  0.20953941246E+03 0.  0.
     200001    1    1    2    0    0 -0.77891538047E+03  0.60425088285E+02 -0.78080458640E+03  0.12632439049E+04  0.61300000000E+03 0.  1.
         11    1    4    4    0    0  0.54090542182E+03 -0.48381341813E+02  0.29998972388E+02  0.54389279085E+03  0.51100000000E-03 0.  1.
    -200002    1    4    4    0    0  0.22886231685E+03  0.60737581643E+02 -0.94077903420E+02  0.25654953870E+03  0.30000000000E+02 0. -1.
    -200000    1    3    3    0    0  0.91476418028E+01 -0.72781328116E+02  0.15474565431E+03  0.19881654509E+03  0.10100000000E+03 0.  1.
<mgrwt>
<rscale>  0 0.21546760E+04</rscale>
<asrwt>0</asrwt>
<pdfrwt beam="1">  1        2 0.11231178E+00 0.21546760E+04</pdfrwt>
<pdfrwt beam="2">  1       -2 0.21090290E+00 0.21546760E+04</pdfrwt>
<totfact> 0.40444705E+00</totfact>
</mgrwt>
</event>
<event>
 8    2  0.7237260E-052  0.1339038E+04  0.7818608E-02  0.8999168E-01
          2   -1    0    0  501    0  0.00000000000E+00  0.00000000000E+00  0.16035253949E+04  0.16035253949E+04  0.25500000000E-02 0.  1.
         -2   -1    0    0    0  501 -0.00000000000E+00 -0.00000000000E+00 -0.27954395407E+03  0.27954395408E+03  0.25500000000E-02 0. -1.
    -200001    2    1    2    0    0 -0.15303707592E+02 -0.52414681634E+02  0.29381094529E+03  0.68306861891E+03  0.61422826721E+03 0.  0.
   -5000001    2    3    3    0    0 -0.11655391512E+03 -0.20903153383E+03  0.37916403768E+03  0.45444973672E+03  0.74028362641E+02 0.  0.
     200001    1    1    2    0    0  0.15303707592E+02  0.52414681634E+02  0.10301704955E+04  0.12000007301E+04  0.61300000000E+03 0.  1.
         11    1    4    4    0    0 -0.45528819928E+02 -0.13154145200E+03  0.18351468705E+03  0.23033381732E+03  0.51100000000E-03 0.  1.
    -200002    1    4    4    0    0 -0.71025095188E+02 -0.77490081829E+02  0.19564935062E+03  0.22411591940E+03  0.30000000000E+02 0. -1.
    -200000    1    3    3    0    0  0.10125020752E+03  0.15661685219E+03 -0.85353092381E+02  0.22861888219E+03  0.10100000000E+03 0. -1.
<mgrwt>
<rscale>  0 0.13390382E+04</rscale>
<asrwt>0</asrwt>
<pdfrwt beam="1">  1        2 0.22907506E+00 0.13390382E+04</pdfrwt>
<pdfrwt beam="2">  1       -2 0.39934850E-01 0.13390382E+04</pdfrwt>
<totfact> 0.74745618E+01</totfact>
</mgrwt>
</event>
<event>
 8    2  0.7237260E-052  0.1504086E+04  0.7818608E-02  0.8881740E-01
          2   -1    0    0  501    0  0.00000000000E+00  0.00000000000E+00  0.11010359387E+04  0.11010359387E+04  0.25500000000E-02 0.  1.
         -2   -1    0    0    0  501 -0.00000000000E+00 -0.00000000000E+00 -0.51366983055E+03  0.51366983056E+03  0.25500000000E-02 0. -1.
    -200001    2    1    2    0    0  0.43238990409E+03 -0.45219603626E+02  0.25572781046E+03  0.79326873445E+03  0.61226851161E+03 0.  0.
   -5000001    2    3    3    0    0  0.41404194387E+03 -0.21143416987E+03  0.93756255712E+01  0.47885765215E+03  0.11437486257E+03 0.  0.
     200001    1    1    2    0    0 -0.43238990409E+03  0.45219603626E+02  0.33163829773E+03  0.82143703485E+03  0.61300000000E+03 0. -1.
         11    1    4    4    0    0  0.30356633744E+03 -0.11829641579E+03 -0.26824630994E+02  0.32690384526E+03  0.51100000000E-03 0.  1.
    -200002    1    4    4    0    0  0.11047560643E+03 -0.93137754086E+02  0.36200256565E+02  0.15195380689E+03  0.30000000000E+02 0.  1.
    -200000    1    3    3    0    0  0.18347960214E+02  0.16621456625E+03  0.24635218489E+03  0.31441108231E+03  0.10100000000E+03 0. -1.
<mgrwt>
<rscale>  0 0.15040864E+04</rscale>
<asrwt>0</asrwt>
<pdfrwt beam="1">  1        2 0.15729085E+00 0.15040864E+04</pdfrwt>
<pdfrwt beam="2">  1       -2 0.73381405E-01 0.15040864E+04</pdfrwt>
<totfact> 0.39569137E+01</totfact>
</mgrwt>
</event>
<event>
 8    2  0.7237260E-052  0.1261161E+04  0.7818608E-02  0.9060945E-01
         -2   -1    0    0    0  501 -0.00000000000E+00  0.00000000000E+00  0.17589386206E+03  0.17589386207E+03  0.25500000000E-02 0. -1.
          2   -1    0    0  501    0  0.00000000000E+00 -0.00000000000E+00 -0.22606356620E+04  0.22606356621E+04  0.25500000000E-02 0.  1.
    -200001    2    1    2    0    0  0.14271210818E+03  0.34458961655E+02 -0.10132078717E+04  0.11933448535E+04  0.61312933560E+03 0.  0.
   -5000001    2    3    3    0    0  0.37026378276E+03  0.20921206505E+02 -0.54461881849E+03  0.66255324068E+03  0.69528221431E+02 0.  0.
     200001    1    1    2    0    0 -0.14271210818E+03 -0.34458961655E+02 -0.10715339283E+04  0.12431846706E+04  0.61300000000E+03 0. -1.
         11    1    4    4    0    0  0.25579239733E+03  0.27668077197E+02 -0.39950976057E+03  0.47518767011E+03  0.51100000000E-03 0.  1.
    -200002    1    4    4    0    0  0.11447138543E+03 -0.67468706927E+01 -0.14510905792E+03  0.18736557058E+03  0.30000000000E+02 0.  1.
    -200000    1    3    3    0    0 -0.22755167459E+03  0.13537755151E+02 -0.46858905322E+03  0.53079161280E+03  0.10100000000E+03 0.  1.
<mgrwt>
<rscale>  0 0.12611613E+04</rscale>
<asrwt>0</asrwt>
<pdfrwt beam="1">  1        2 0.32294793E+00 0.12611613E+04</pdfrwt>
<pdfrwt beam="2">  1       -2 0.25127696E-01 0.12611613E+04</pdfrwt>
<totfact> 0.82342993E+01</totfact>
</mgrwt>
</event>
<event>
 8    2  0.7237260E-052  0.1943510E+04  0.7818608E-02  0.8633497E-01
          2   -1    0    0  501    0  0.00000000000E+00  0.00000000000E+00  0.94563140887E+03  0.94563140887E+03  0.25500000000E-02 0.  1.
         -2   -1    0    0    0  501 -0.00000000000E+00 -0.00000000000E+00 -0.99860047927E+03  0.99860047927E+03  0.25500000000E-02 0. -1.
    -200001    2    1    2    0    0 -0.38105002049E+03 -0.41514155476E+03  0.47512189673E+03  0.95823457670E+03  0.61231614272E+03 0.  0.
   -5000001    2    3    3    0    0 -0.32098779807E+03 -0.53546722190E+03  0.39960520889E+03  0.77387214323E+03  0.22234086186E+03 0.  0.
     200001    1    1    2    0    0  0.38105002049E+03  0.41514155476E+03 -0.52809096713E+03  0.98599731144E+03  0.61300000000E+03 0. -1.
         11    1    4    4    0    0  0.33491831748E+02 -0.38025097257E+02  0.22930685482E+02  0.55618586392E+02  0.51100000000E-03 0.  1.
    -200002    1    4    4    0    0 -0.35447962982E+03 -0.49744212464E+03  0.37667452341E+03  0.71825355684E+03  0.30000000000E+02 0.  1.
    -200000    1    3    3    0    0 -0.60062222420E+02  0.12032566714E+03  0.75516687839E+02  0.18436243348E+03  0.10100000000E+03 0.  1.
<mgrwt>
<rscale>  0 0.19435102E+04</rscale>
<asrwt>0</asrwt>
<pdfrwt beam="1">  1        2 0.13509020E+00 0.19435102E+04</pdfrwt>
<pdfrwt beam="2">  1       -2 0.14265721E+00 0.19435102E+04</pdfrwt>
<totfact> 0.97315636E+00</totfact>
</mgrwt>
</event>
<event>
 8    2  0.7237260E-052  0.1534049E+04  0.7818608E-02  0.8862121E-01
          2   -1    0    0  501    0  0.00000000000E+00  0.00000000000E+00  0.13495336724E+04  0.13495336724E+04  0.25500000000E-02 0.  1.
         -2   -1    0    0    0  501 -0.00000000000E+00 -0.00000000000E+00 -0.43594804068E+03  0.43594804069E+03  0.25500000000E-02 0. -1.
    -200001    2    1    2    0    0  0.11182658613E+03 -0.33578600437E+02  0.97674945319E+03  0.11582725167E+04  0.61149245355E+03 0.  0.
   -5000001    2    3    3    0    0 -0.52234583654E+02 -0.88810457420E+02  0.13324021991E+03  0.29128032978E+03  0.23764579786E+03 0.  0.
     200001    1    1    2    0    0 -0.11182658613E+03  0.33578600437E+02 -0.63163821457E+02  0.62720919645E+03  0.61300000000E+03 0. -1.
         11    1    4    4    0    0 -0.44122896168E+02 -0.13747865765E+03 -0.18164421096E+01  0.14439705931E+03  0.51100000000E-03 0.  1.
    -200002    1    4    4    0    0 -0.81116874863E+01  0.48668200233E+02  0.13505666202E+03  0.14688327047E+03  0.30000000000E+02 0.  1.
    -200000    1    3    3    0    0  0.16406116978E+03  0.55231856983E+02  0.84350923329E+03  0.86699218687E+03  0.10100000000E+03 0.  1.
<mgrwt>
<rscale>  0 0.15340490E+04</rscale>
<asrwt>0</asrwt>
<pdfrwt beam="1">  1        2 0.19279053E+00 0.15340490E+04</pdfrwt>
<pdfrwt beam="2">  1       -2 0.62278291E-01 0.15340490E+04</pdfrwt>
<totfact> 0.40720608E+01</totfact>
</mgrwt>
</event>
<event>
 8    2  0.7237260E-052  0.1789401E+04  0.7818608E-02  0.8711956E-01
         -2   -1    0    0    0  501 -0.00000000000E+00  0.00000000000E+00  0.34597351988E+03  0.34597351989E+03  0.25500000000E-02 0. -1.
          2   -1    0    0  501    0  0.00000000000E+00 -0.00000000000E+00 -0.23137297054E+04  0.23137297054E+04  0.25500000000E-02 0.  1.
    -200001    2    1    2    0    0 -0.50904585179E+03 -0.17046438813E+03 -0.43413969373E+03  0.92305866444E+03  0.61267792312E+03 0.  0.
   -5000001    2    3    3    0    0 -0.12216372254E+03 -0.32057991654E+03 -0.31131671068E+03  0.47865013732E+03  0.12038439109E+03 0.  0.
     200001    1    1    2    0    0  0.50904585179E+03  0.17046438813E+03 -0.15336164918E+04  0.17366445609E+04  0.61300000000E+03 0.  1.
         11    1    4    4    0    0  0.50874732921E+00 -0.10579162404E+03 -0.48125458161E+02  0.11622472312E+03  0.51100000000E-03 0.  1.
    -200002    1    4    4    0    0 -0.12267246987E+03 -0.21478829250E+03 -0.26319125252E+03  0.36242541420E+03  0.30000000000E+02 0.  1.
    -200000    1    3    3    0    0 -0.38688212926E+03  0.15011552841E+03 -0.12282298305E+03  0.44440852712E+03  0.10100000000E+03 0. -1.
<mgrwt>
<rscale>  0 0.17894013E+04</rscale>
<asrwt>0</asrwt>
<pdfrwt beam="1">  1        2 0.33053281E+00 0.17894013E+04</pdfrwt>
<pdfrwt beam="2">  1       -2 0.49424790E-01 0.17894013E+04</pdfrwt>
<totfact> 0.20268085E+01</totfact>
</mgrwt>
</event>
<event>
 8    2  0.7237260E-052  0.1328395E+04  0.7818608E-02  0.9007346E-01
          2   -1    0    0  501    0  0.00000000000E+00  0.00000000000E+00  0.85736884250E+03  0.85736884250E+03  0.25500000000E-02 0.  1.
         -2   -1    0    0    0  501 -0.00000000000E+00 -0.00000000000E+00 -0.51454888873E+03  0.51454888873E+03  0.25500000000E-02 0. -1.
    -200001    2    1    2    0    0  0.27026795403E+02 -0.24858829488E+03  0.11852060503E+03  0.67291430787E+03  0.61338401015E+03 0.  0.
   -5000001    2    3    3    0    0  0.11887738755E+03 -0.50743176534E+02  0.32313098150E+03  0.35724735000E+03  0.80655654705E+02 0.  0.
     200001    1    1    2    0    0 -0.27026795403E+02  0.24858829488E+03  0.22429934875E+03  0.69900342336E+03  0.61300000000E+03 0.  1.
         11    1    4    4    0    0  0.10040366596E+02  0.16215954014E+02  0.24547007005E+02  0.31085715033E+02  0.51100000000E-03 0.  1.
    -200002    1    4    4    0    0  0.10883702095E+03 -0.66959130548E+02  0.29858397450E+03  0.32616163496E+03  0.30000000000E+02 0.  1.
    -200000    1    3    3    0    0 -0.91850592147E+02 -0.19784511835E+03 -0.20461037648E+03  0.31566695788E+03  0.10100000000E+03 0. -1.
<mgrwt>
<rscale>  0 0.13283948E+04</rscale>
<asrwt>0</asrwt>
<pdfrwt beam="1">  1        2 0.12248126E+00 0.13283948E+04</pdfrwt>
<pdfrwt beam="2">  1       -2 0.73506984E-01 0.13283948E+04</pdfrwt>
<totfact> 0.56773260E+01</totfact>
</mgrwt>
</event>
<event>
 8    2  0.7237260E-052  0.1798591E+04  0.7818608E-02  0.8707049E-01
          2   -1    0    0  501    0  0.00000000000E+00  0.00000000000E+00  0.74964902615E+03  0.74964902616E+03  0.25500000000E-02 0. -1.
         -2   -1    0    0    0  501 -0.00000000000E+00 -0.00000000000E+00 -0.10788144384E+04  0.10788144384E+04  0.25500000000E-02 0.  1.
    -200001    2    1    2    0    0 -0.14402451344E+03  0.48981244908E+03 -0.58625000871E+03  0.99029833433E+03  0.61346753991E+03 0.  0.
   -5000001    2    3    3    0    0  0.21204874316E+02  0.41891844330E+03 -0.64678204218E+03  0.77537546977E+03  0.83293458332E+02 0.  0.
     200001    1    1    2    0    0  0.14402451344E+03 -0.48981244908E+03  0.25708459648E+03  0.83816513021E+03  0.61300000000E+03 0. -1.
         11    1    4    4    0    0 -0.63083756922E+01  0.31841874106E+03 -0.50172754409E+03  0.59427335357E+03  0.51100000000E-03 0.  1.
    -200002    1    4    4    0    0  0.27513250008E+02  0.10049970223E+03 -0.14505449809E+03  0.18110211620E+03  0.30000000000E+02 0.  1.
    -200000    1    3    3    0    0 -0.16522938776E+03  0.70894005786E+02  0.60532033475E+02  0.21492286457E+03  0.10100000000E+03 0. -1.
<mgrwt>
<rscale>  0 0.17985908E+04</rscale>
<asrwt>0</asrwt>
<pdfrwt beam="1">  1        2 0.10709272E+00 0.17985908E+04</pdfrwt>
<pdfrwt beam="2">  1       -2 0.15411635E+00 0.17985908E+04</pdfrwt>
<totfact> 0.10900696E+01</totfact>
</mgrwt>
</event>
<event>
 8    2  0.7237260E-052  0.1235624E+04  0.7818608E-02  0.9082234E-01
          2   -1    0    0  501    0  0.00000000000E+00  0.00000000000E+00  0.15587517197E+04  0.15587517197E+04  0.25500000000E-02 0.  1.
         -2   -1    0    0    0  501 -0.00000000000E+00 -0.00000000000E+00 -0.24487004819E+03  0.24487004821E+03  0.25500000000E-02 0. -1.
    -200001    2    1    2    0    0  0.44356028258E+02  0.44167605384E+02  0.59170367836E+03  0.85429132576E+03  0.61301075984E+03 0.  0.
   -5000001    2    3    3    0    0 -0.26528883588E+03 -0.52187356851E+02  0.23582644308E+03  0.36234231700E+03  0.50755854575E+02 0.  0.
     200001    1    1    2    0    0 -0.44356028258E+02 -0.44167605384E+02  0.72217799316E+03  0.94933044216E+03  0.61300000000E+03 0.  1.
         11    1    4    4    0    0 -0.14464973511E+03 -0.33921570512E+02  0.11332809202E+03  0.18686218252E+03  0.51100000000E-03 0.  1.
    -200002    1    4    4    0    0 -0.12063910076E+03 -0.18265786339E+02  0.12249835106E+03  0.17548013448E+03  0.30000000000E+02 0.  1.
    -200000    1    3    3    0    0  0.30964486414E+03  0.96354962235E+02  0.35587723528E+03  0.49194900877E+03  0.10100000000E+03 0. -1.
<mgrwt>
<rscale>  0 0.12356239E+04</rscale>
<asrwt>0</asrwt>
<pdfrwt beam="1">  1        2 0.22267882E+00 0.12356239E+04</pdfrwt>
<pdfrwt beam="2">  1       -2 0.34981436E-01 0.12356239E+04</pdfrwt>
<totfact> 0.10264692E+02</totfact>
</mgrwt>
</event>
<event>
 8    2  0.7237260E-052  0.1693494E+04  0.7818608E-02  0.8765084E-01
         -2   -1    0    0    0  501 -0.00000000000E+00  0.00000000000E+00  0.38208676380E+03  0.38208676381E+03  0.25500000000E-02 0. -1.
          2   -1    0    0  501    0  0.00000000000E+00 -0.00000000000E+00 -0.18764859306E+04  0.18764859306E+04  0.25500000000E-02 0.  1.
    -200001    2    1    2    0    0 -0.63652945133E+02 -0.23836692219E+03 -0.38954794847E+02  0.66014915640E+03  0.61107196437E+03 0.  0.
   -5000001    2    3    3    0    0 -0.94586096828E+02  0.11197182264E+03 -0.18749675869E+03  0.26523168272E+03  0.11708369751E+03 0.  0.
     200001    1    1    2    0    0  0.63652945133E+02  0.23836692219E+03 -0.14554443720E+04  0.15984235381E+04  0.61300000000E+03 0.  1.
         11    1    4    4    0    0 -0.67853211879E+02  0.72891961371E+02 -0.18381547817E+03  0.20905842822E+03  0.51100000000E-03 0.  1.
    -200002    1    4    4    0    0 -0.26732884949E+02  0.39079861265E+02 -0.36812805126E+01  0.56173254493E+02  0.30000000000E+02 0.  1.
    -200000    1    3    3    0    0  0.30933151695E+02 -0.35033874483E+03  0.14854196384E+03  0.39491747368E+03  0.10100000000E+03 0. -1.
<mgrwt>
<rscale>  0 0.16934939E+04</rscale>
<asrwt>0</asrwt>
<pdfrwt beam="1">  1        2 0.26806941E+00 0.16934939E+04</pdfrwt>
<pdfrwt beam="2">  1       -2 0.54583825E-01 0.16934939E+04</pdfrwt>
<totfact> 0.28001547E+01</totfact>
</mgrwt>
</event>
<event>
 8    2  0.7237260E-052  0.1833550E+04  0.7818608E-02  0.8688659E-01
          2   -1    0    0  501    0  0.00000000000E+00  0.00000000000E+00  0.21424400842E+04  0.21424400842E+04  0.25500000000E-02 0.  1.
         -2   -1    0    0    0  501 -0.00000000000E+00 -0.00000000000E+00 -0.39229874996E+03  0.39229874997E+03  0.25500000000E-02 0. -1.
    -200001    2    1    2    0    0 -0.50112957102E+03 -0.96742492660E+02  0.25008952540E+03  0.83579375383E+03  0.61279398773E+03 0.  0.
   -5000001    2    3    3    0    0 -0.55425413685E+03 -0.48707364900E+02  0.15389825227E+02  0.57043636793E+03  0.12486291494E+03 0.  0.
     200001    1    1    2    0    0  0.50112957102E+03  0.96742492660E+02  0.15000518089E+04  0.16989450804E+04  0.61300000000E+03 0.  1.
         11    1    4    4    0    0 -0.35035703469E+03 -0.82627140934E+02 -0.94985577823E+01  0.36009376387E+03  0.51100000000E-03 0.  1.
    -200002    1    4    4    0    0 -0.20389710215E+03  0.33919776034E+02  0.24888383009E+02  0.21034260406E+03  0.30000000000E+02 0.  1.
    -200000    1    3    3    0    0  0.53124565828E+02 -0.48035127761E+02  0.23469970018E+03  0.26535738591E+03  0.10100000000E+03 0.  1.
<mgrwt>
<rscale>  0 0.18335502E+04</rscale>
<asrwt>0</asrwt>
<pdfrwt beam="1">  1        2 0.30606287E+00 0.18335502E+04</pdfrwt>
<pdfrwt beam="2">  1       -2 0.56042678E-01 0.18335502E+04</pdfrwt>
<totfact> 0.19121700E+01</totfact>
</mgrwt>
</event>
<event>
 8    2  0.7237260E-052  0.1313548E+04  0.7818608E-02  0.9018890E-01
         -2   -1    0    0    0  501 -0.00000000000E+00  0.00000000000E+00  0.19345374996E+03  0.19345374997E+03  0.25500000000E-02 0. -1.
          2   -1    0    0  501    0  0.00000000000E+00 -0.00000000000E+00 -0.22297427812E+04  0.22297427812E+04  0.25500000000E-02 0.  1.
    -200001    2    1    2    0    0  0.58115708773E+02 -0.22029609401E+03 -0.11338445782E+04  0.13087088482E+04  0.61254184936E+03 0.  0.
   -5000001    2    3    3    0    0 -0.17746860775E+03 -0.26456755821E+03 -0.33435204631E+03  0.46796558104E+03  0.75560535780E+02 0.  0.
     200001    1    1    2    0    0 -0.58115708773E+02  0.22029609401E+03 -0.90244445296E+03  0.11144876829E+04  0.61300000000E+03 0. -1.
         11    1    4    4    0    0 -0.11456482070E+03 -0.17565679862E+03 -0.17799842745E+03  0.27507062588E+03  0.51100000000E-03 0.  1.
    -200002    1    4    4    0    0 -0.62903787047E+02 -0.88910759591E+02 -0.15635361886E+03  0.19289495516E+03  0.30000000000E+02 0.  1.
    -200000    1    3    3    0    0  0.23558431652E+03  0.44271464206E+02 -0.79949253194E+03  0.84074326721E+03  0.10100000000E+03 0.  1.
<mgrwt>
<rscale>  0 0.13135480E+04</rscale>
<asrwt>0</asrwt>
<pdfrwt beam="1">  1        2 0.31853467E+00 0.13135480E+04</pdfrwt>
<pdfrwt beam="2">  1       -2 0.27636251E-01 0.13135480E+04</pdfrwt>
<totfact> 0.71506631E+01</totfact>
</mgrwt>
</event>
<event>
 8    2  0.7237260E-052  0.1345536E+04  0.7818608E-02  0.8994214E-01
         -2   -1    0    0    0  501 -0.00000000000E+00  0.00000000000E+00  0.62178756135E+03  0.62178756135E+03  0.25500000000E-02 0. -1.
          2   -1    0    0  501    0  0.00000000000E+00 -0.00000000000E+00 -0.72792811382E+03  0.72792811383E+03  0.25500000000E-02 0.  1.
    -200001    2    1    2    0    0 -0.74006882980E+02  0.21981113999E+03  0.99659203166E+02  0.66275388919E+03  0.61279425982E+03 0.  0.
   -5000001    2    3    3    0    0  0.13567997057E+03 -0.10592226875E+03 -0.76858137542E+02  0.22522651669E+03  0.12325270416E+03 0.  0.
     200001    1    1    2    0    0  0.74006882980E+02 -0.21981113999E+03 -0.20579975564E+03  0.68696178599E+03  0.61300000000E+03 0.  1.
         11    1    4    4    0    0 -0.20373361558E+01  0.12863140258E+02 -0.33396604078E+02  0.35846119457E+02  0.51100000000E-03 0.  1.
    -200002    1    4    4    0    0  0.13771730672E+03 -0.11878540901E+03 -0.43461533464E+02  0.18938039723E+03  0.30000000000E+02 0.  1.
    -200000    1    3    3    0    0 -0.20968685355E+03  0.32573340874E+03  0.17651734071E+03  0.43752737250E+03  0.10100000000E+03 0. -1.
<mgrwt>
<rscale>  0 0.13455358E+04</rscale>
<asrwt>0</asrwt>
<pdfrwt beam="1">  1        2 0.10398973E+00 0.13455358E+04</pdfrwt>
<pdfrwt beam="2">  1       -2 0.88826795E-01 0.13455358E+04</pdfrwt>
<totfact> 0.45703699E+01</totfact>
</mgrwt>
</event>
<event>
 8    2  0.7237260E-052  0.1869481E+04  0.7818608E-02  0.8670199E-01
         -2   -1    0    0    0  501 -0.00000000000E+00  0.00000000000E+00  0.28340824831E+03  0.28340824832E+03  0.25500000000E-02 0. -1.
          2   -1    0    0  501    0  0.00000000000E+00 -0.00000000000E+00 -0.30829710034E+04  0.30829710034E+04  0.25500000000E-02 0.  1.
    -200001    2    1    2    0    0 -0.84354313050E+02 -0.62306481144E+03 -0.81464561870E+03  0.11958976352E+04  0.60926042084E+03 0.  0.
   -5000001    2    3    3    0    0 -0.20963039614E+03 -0.64390420034E+03 -0.75170849449E+03  0.10218560921E+04  0.14341091325E+03 0.  0.
     200001    1    1    2    0    0  0.84354313050E+02  0.62306481144E+03 -0.19849171364E+04  0.21704816166E+04  0.61300000000E+03 0. -1.
         11    1    4    4    0    0 -0.33703954931E+02 -0.21888181939E+02 -0.19480801791E+02  0.44660393250E+02  0.51100000000E-03 0.  1.
    -200002    1    4    4    0    0 -0.17592644120E+03 -0.62201601840E+03 -0.73222769270E+03  0.97719569883E+03  0.30000000000E+02 0.  1.
    -200000    1    3    3    0    0  0.12527608308E+03  0.20839388901E+02 -0.62937124208E+02  0.17404154311E+03  0.10100000000E+03 0. -1.
<mgrwt>
<rscale>  0 0.18694806E+04</rscale>
<asrwt>0</asrwt>
<pdfrwt beam="1">  1        2 0.44042441E+00 0.18694806E+04</pdfrwt>
<pdfrwt beam="2">  1       -2 0.40486894E-01 0.18694806E+04</pdfrwt>
<totfact> 0.11540105E+01</totfact>
</mgrwt>
</event>
<event>
 8    2  0.7237260E-052  0.1499603E+04  0.7818608E-02  0.8884717E-01
          2   -1    0    0  501    0  0.00000000000E+00  0.00000000000E+00  0.84309074719E+03  0.84309074720E+03  0.25500000000E-02 0.  1.
         -2   -1    0    0    0  501 -0.00000000000E+00 -0.00000000000E+00 -0.66683523866E+03  0.66683523866E+03  0.25500000000E-02 0. -1.
    -200001    2    1    2    0    0 -0.22463196414E+03 -0.30480105071E+03  0.29704358823E+03  0.77936321646E+03  0.61303256850E+03 0.  0.
   -5000001    2    3    3    0    0 -0.28588853232E+03 -0.61194098539E+02  0.38753638454E+03  0.49390453211E+03  0.90995971871E+02 0.  0.
     200001    1    1    2    0    0  0.22463196414E+03  0.30480105071E+03 -0.12078807970E+03  0.73056276939E+03  0.61300000000E+03 0.  1.
         11    1    4    4    0    0 -0.16621659751E+03 -0.61597492986E+02  0.18113680412E+03  0.25344180839E+03  0.51100000000E-03 0.  1.
    -200002    1    4    4    0    0 -0.11967193480E+03  0.40339444719E+00  0.20639958041E+03  0.24046272373E+03  0.30000000000E+02 0.  1.
    -200000    1    3    3    0    0  0.61256568173E+02 -0.24360695217E+03 -0.90492796302E+02  0.28545868435E+03  0.10100000000E+03 0.  1.
<mgrwt>
<rscale>  0 0.14996034E+04</rscale>
<asrwt>0</asrwt>
<pdfrwt beam="1">  1        2 0.12044154E+00 0.14996034E+04</pdfrwt>
<pdfrwt beam="2">  1       -2 0.95262177E-01 0.14996034E+04</pdfrwt>
<totfact> 0.31824530E+01</totfact>
</mgrwt>
</event>
<event>
 8    2  0.7237260E-052  0.1268868E+04  0.7818608E-02  0.9054624E-01
         -2   -1    0    0    0  501 -0.00000000000E+00  0.00000000000E+00  0.79688378495E+03  0.79688378495E+03  0.25500000000E-02 0. -1.
          2   -1    0    0  501    0  0.00000000000E+00 -0.00000000000E+00 -0.50510053046E+03  0.50510053047E+03  0.25500000000E-02 0.  1.
    -200001    2    1    2    0    0 -0.45342571473E+01 -0.27180339802E+02 -0.19459533965E+02  0.61394332556E+03  0.61301582621E+03 0.  0.
   -5000001    2    3    3    0    0  0.93613036970E+02 -0.74311976177E+02 -0.27967569418E+03  0.31433068810E+03  0.79370127078E+02 0.  0.
     200001    1    1    2    0    0  0.45342571473E+01  0.27180339802E+02  0.31124278845E+03  0.68804098986E+03  0.61300000000E+03 0. -1.
         11    1    4    4    0    0  0.26877714785E+01 -0.31272072308E+02 -0.29717408909E+02  0.43223732075E+02  0.51100000000E-03 0.  1.
    -200002    1    4    4    0    0  0.90925265491E+02 -0.43039903868E+02 -0.24995828527E+03  0.27110695602E+03  0.30000000000E+02 0.  1.
    -200000    1    3    3    0    0 -0.98147294117E+02  0.47131636374E+02  0.26021616021E+03  0.29961263746E+03  0.10100000000E+03 0. -1.
<mgrwt>
<rscale>  0 0.12688679E+04</rscale>
<asrwt>0</asrwt>
<pdfrwt beam="1">  1        2 0.72157220E-01 0.12688679E+04</pdfrwt>
<pdfrwt beam="2">  1       -2 0.11384054E+00 0.12688679E+04</pdfrwt>
<totfact> 0.39445407E+01</totfact>
</mgrwt>
</event>
<event>
 8    2  0.7237260E-052  0.1569738E+04  0.7818608E-02  0.8839358E-01
          2   -1    0    0  501    0  0.00000000000E+00  0.00000000000E+00  0.12402836072E+04  0.12402836072E+04  0.25500000000E-02 0.  1.
         -2   -1    0    0    0  501 -0.00000000000E+00 -0.00000000000E+00 -0.49667596646E+03  0.49667596647E+03  0.25500000000E-02 0. -1.
    -200001    2    1    2    0    0 -0.47092471713E+03 -0.12838583913E+03  0.31818301217E+03  0.84532729099E+03  0.61244165989E+03 0.  0.
   -5000001    2    3    3    0    0 -0.10165049323E+03 -0.17438665724E+03  0.39629817975E+03  0.45190321051E+03  0.80129491399E+02 0.  0.
     200001    1    1    2    0    0  0.47092471713E+03  0.12838583913E+03  0.42542462853E+03  0.89163228264E+03  0.61300000000E+03 0. -1.
         11    1    4    4    0    0 -0.74482347387E+02 -0.12804505068E+03  0.32846520266E+03  0.36032283363E+03  0.51100000000E-03 0.  1.
    -200002    1    4    4    0    0 -0.27168145844E+02 -0.46341606564E+02  0.67832977087E+02  0.91580376872E+02  0.30000000000E+02 0.  1.
    -200000    1    3    3    0    0 -0.36927422389E+03  0.46000818110E+02 -0.78115167580E+02  0.39342408049E+03  0.10100000000E+03 0. -1.
<mgrwt>
<rscale>  0 0.15697376E+04</rscale>
<asrwt>0</asrwt>
<pdfrwt beam="1">  1        2 0.17718337E+00 0.15697376E+04</pdfrwt>
<pdfrwt beam="2">  1       -2 0.70953709E-01 0.15697376E+04</pdfrwt>
<totfact> 0.35241142E+01</totfact>
</mgrwt>
</event>
<event>
 8    2  0.7237260E-052  0.2276369E+04  0.7818608E-02  0.8487297E-01
         -2   -1    0    0    0  501 -0.00000000000E+00  0.00000000000E+00  0.11442009461E+04  0.11442009461E+04  0.25500000000E-02 0. -1.
          2   -1    0    0  501    0  0.00000000000E+00 -0.00000000000E+00 -0.11321992558E+04  0.11321992558E+04  0.25500000000E-02 0.  1.
    -200001    2    1    2    0    0  0.90886509329E+03 -0.10352871035E+03 -0.28216514942E+03  0.11366383491E+04  0.61284224181E+03 0.  0.
   -5000001    2    3    3    0    0  0.91708382574E+03 -0.20601169420E+03 -0.18170975662E+03  0.96096081639E+03  0.83328827014E+02 0.  0.
     200001    1    1    2    0    0 -0.90886509329E+03  0.10352871035E+03  0.29416683967E+03  0.11397618529E+04  0.61300000000E+03 0. -1.
         11    1    4    4    0    0  0.71695592845E+03 -0.18136587968E+03 -0.13377614422E+03  0.75154204301E+03  0.51100000000E-03 0.  1.
    -200002    1    4    4    0    0  0.20012789729E+03 -0.24645814526E+02 -0.47933612408E+02  0.20941877339E+03  0.30000000000E+02 0. -1.
    -200000    1    3    3    0    0 -0.82187324518E+01  0.10248298385E+03 -0.10045539280E+03  0.17567753267E+03  0.10100000000E+03 0. -1.
<mgrwt>
<rscale>  0 0.22763686E+04</rscale>
<asrwt>0</asrwt>
<pdfrwt beam="1">  1        2 0.16174275E+00 0.22763686E+04</pdfrwt>
<pdfrwt beam="2">  1       -2 0.16345728E+00 0.22763686E+04</pdfrwt>
<totfact> 0.50721979E+00</totfact>
</mgrwt>
</event>
<event>
 8    2  0.7237260E-052  0.1344619E+04  0.7818608E-02  0.8994911E-01
         -2   -1    0    0    0  501 -0.00000000000E+00  0.00000000000E+00  0.21193739622E+03  0.21193739623E+03  0.25500000000E-02 0.  1.
          2   -1    0    0  501    0  0.00000000000E+00 -0.00000000000E+00 -0.21327068138E+04  0.21327068138E+04  0.25500000000E-02 0. -1.
    -200001    2    1    2    0    0 -0.42339561595E+02  0.96981480116E+02 -0.51461434822E+03  0.80703596179E+03  0.61260188562E+03 0.  0.
   -5000001    2    3    3    0    0  0.26476340967E+03  0.10563180799E+03 -0.30981947107E+03  0.42424488975E+03  0.52324753853E+02 0.  0.
     200001    1    1    2    0    0  0.42339561595E+02 -0.96981480116E+02 -0.14061550694E+04  0.15376082482E+04  0.61300000000E+03 0. -1.
         11    1    4    4    0    0  0.26409256856E+02  0.25083000782E+02 -0.37360434698E+02  0.52176698410E+02  0.51100000000E-03 0.  1.
    -200002    1    4    4    0    0  0.23835415281E+03  0.80548807213E+02 -0.27245903637E+03  0.37206819134E+03  0.30000000000E+02 0.  1.
    -200000    1    3    3    0    0 -0.30710297126E+03 -0.86503278784E+01 -0.20479487715E+03  0.38279107204E+03  0.10100000000E+03 0.  1.
<mgrwt>
<rscale>  0 0.13446194E+04</rscale>
<asrwt>0</asrwt>
<pdfrwt beam="1">  1        2 0.30467239E+00 0.13446194E+04</pdfrwt>
<pdfrwt beam="2">  1       -2 0.30276772E-01 0.13446194E+04</pdfrwt>
<totfact> 0.67580906E+01</totfact>
</mgrwt>
</event>
<event>
 8    2  0.7237260E-052  0.1302493E+04  0.7818608E-02  0.9027591E-01
          2   -1    0    0  501    0  0.00000000000E+00  0.00000000000E+00  0.27175249688E+04  0.27175249688E+04  0.25500000000E-02 0. -1.
         -2   -1    0    0    0  501 -0.00000000000E+00 -0.00000000000E+00 -0.15606919286E+03  0.15606919288E+03  0.25500000000E-02 0.  1.
    -200001    2    1    2    0    0  0.10471272219E+03  0.11728865264E+03  0.16247421127E+04  0.17431416553E+04  0.61158361287E+03 0.  0.
   -5000001    2    3    3    0    0  0.21802006677E+03  0.10682258763E+03  0.39985722312E+03  0.50884343952E+03  0.20022994859E+03 0.  0.
     200001    1    1    2    0    0 -0.10471272219E+03 -0.11728865264E+03  0.93671366323E+03  0.11304525063E+04  0.61300000000E+03 0.  1.
         11    1    4    4    0    0 -0.32229459431E+02  0.17196537171E+02  0.13555939080E+02  0.38964373863E+02  0.51100000000E-03 0.  1.
    -200002    1    4    4    0    0  0.25024952620E+03  0.89626050458E+02  0.38630128404E+03  0.46987906565E+03  0.30000000000E+02 0.  1.
    -200000    1    3    3    0    0 -0.11330734458E+03  0.10466065009E+02  0.12248848895E+04  0.12342982158E+04  0.10100000000E+03 0. -1.
<mgrwt>
<rscale>  0 0.13024929E+04</rscale>
<asrwt>0</asrwt>
<pdfrwt beam="1">  1        2 0.38821778E+00 0.13024929E+04</pdfrwt>
<pdfrwt beam="2">  1       -2 0.22295603E-01 0.13024929E+04</pdfrwt>
<totfact> 0.58626362E+01</totfact>
</mgrwt>
</event>
<event>
 8    2  0.7237260E-052  0.1713389E+04  0.7818608E-02  0.8753765E-01
          2   -1    0    0  501    0  0.00000000000E+00  0.00000000000E+00  0.54531766751E+03  0.54531766751E+03  0.25500000000E-02 0.  1.
         -2   -1    0    0    0  501 -0.00000000000E+00 -0.00000000000E+00 -0.13458677193E+04  0.13458677194E+04  0.25500000000E-02 0. -1.
    -200001    2    1    2    0    0 -0.30312233289E+03 -0.17632195159E+03  0.13481125197E+03  0.71916049465E+03  0.61322521483E+03 0.  0.
   -5000001    2    3    3    0    0  0.39426595254E+02 -0.11430988162E+03  0.29120342543E+03  0.32438869105E+03  0.76206183839E+02 0.  0.
     200001    1    1    2    0    0  0.30312233289E+03  0.17632195159E+03 -0.93536130381E+03  0.11720248922E+04  0.61300000000E+03 0. -1.
         11    1    4    4    0    0 -0.14358720075E+02 -0.10283273253E+02  0.16112479619E+02  0.23906705142E+02  0.51100000000E-03 0.  1.
    -200002    1    4    4    0    0  0.53785315329E+02 -0.10402660837E+03  0.27509094581E+03  0.30048198591E+03  0.30000000000E+02 0.  1.
    -200000    1    3    3    0    0 -0.34254892815E+03 -0.62012069968E+02 -0.15639217346E+03  0.39477180360E+03  0.10100000000E+03 0. -1.
<mgrwt>
<rscale>  0 0.17133890E+04</rscale>
<asrwt>0</asrwt>
<pdfrwt beam="1">  1        2 0.77902524E-01 0.17133890E+04</pdfrwt>
<pdfrwt beam="2">  1       -2 0.19226682E+00 0.17133890E+04</pdfrwt>
<totfact> 0.86546865E+00</totfact>
</mgrwt>
</event>
<event>
 8    2  0.7237260E-052  0.1227947E+04  0.7818608E-02  0.9088741E-01
         -2   -1    0    0    0  501 -0.00000000000E+00  0.00000000000E+00  0.35227101545E+03  0.35227101546E+03  0.25500000000E-02 0. -1.
          2   -1    0    0  501    0  0.00000000000E+00 -0.00000000000E+00 -0.10700945169E+04  0.10700945169E+04  0.25500000000E-02 0.  1.
    -200001    2    1    2    0    0 -0.30546260294E+02 -0.80175450235E+01 -0.37346266688E+03  0.71855395288E+03  0.61306448649E+03 0.  0.
   -5000001    2    3    3    0    0  0.21114904744E+03  0.14982431928E+03 -0.61982619012E+02  0.28203190747E+03  0.93106954029E+02 0.  0.
     200001    1    1    2    0    0  0.30546260294E+02  0.80175450235E+01 -0.34436083457E+03  0.70381157950E+03  0.61300000000E+03 0. -1.
         11    1    4    4    0    0  0.17338509378E+01  0.32460659700E+02 -0.93278088738E+00  0.32520312847E+02  0.51100000000E-03 0.  1.
    -200002    1    4    4    0    0  0.20941519650E+03  0.11736365958E+03 -0.61049838125E+02  0.24951159462E+03  0.30000000000E+02 0.  1.
    -200000    1    3    3    0    0 -0.24169530773E+03 -0.15784186431E+03 -0.31148004787E+03  0.43652204541E+03  0.10100000000E+03 0.  1.
<mgrwt>
<rscale>  0 0.12279467E+04</rscale>
<asrwt>0</asrwt>
<pdfrwt beam="1">  1        2 0.15287064E+00 0.12279467E+04</pdfrwt>
<pdfrwt beam="2">  1       -2 0.50324431E-01 0.12279467E+04</pdfrwt>
<totfact> 0.93646577E+01</totfact>
</mgrwt>
</event>
<event>
 8    2  0.7237260E-052  0.2010560E+04  0.7818608E-02  0.8601699E-01
         -2   -1    0    0    0  501 -0.00000000000E+00  0.00000000000E+00  0.12599233473E+04  0.12599233473E+04  0.25500000000E-02 0. -1.
          2   -1    0    0  501    0  0.00000000000E+00 -0.00000000000E+00 -0.80210283304E+03  0.80210283304E+03  0.25500000000E-02 0.  1.
    -200001    2    1    2    0    0  0.45533083283E+03  0.28071086288E+03  0.83438081488E+03  0.11655378001E+04  0.61332068565E+03 0.  0.
   -5000001    2    3    3    0    0  0.21137848273E+03  0.25290970035E+03  0.83357899725E+03  0.90004336203E+03  0.81116763824E+02 0.  0.
     200001    1    1    2    0    0 -0.45533083283E+03 -0.28071086288E+03 -0.37656030061E+03  0.89648838021E+03  0.61300000000E+03 0.  1.
         11    1    4    4    0    0  0.68520756578E+02  0.11343116603E+03  0.25732178829E+03  0.28944123106E+03  0.51100000000E-03 0.  1.
    -200002    1    4    4    0    0  0.14285772615E+03  0.13947853432E+03  0.57625720896E+03  0.61060213096E+03  0.30000000000E+02 0.  1.
    -200000    1    3    3    0    0  0.24395235010E+03  0.27801162535E+02  0.80181762609E+00  0.26549443811E+03  0.10100000000E+03 0.  1.
<mgrwt>
<rscale>  0 0.20105602E+04</rscale>
<asrwt>0</asrwt>
<pdfrwt beam="1">  1        2 0.11458612E+00 0.20105602E+04</pdfrwt>
<pdfrwt beam="2">  1       -2 0.17998905E+00 0.20105602E+04</pdfrwt>
<totfact> 0.63982263E+00</totfact>
</mgrwt>
</event>
<event>
 8    2  0.7237260E-052  0.1862061E+04  0.7818608E-02  0.8673975E-01
          2   -1    0    0  501    0  0.00000000000E+00  0.00000000000E+00  0.37581070332E+04  0.37581070332E+04  0.25500000000E-02 0. -1.
         -2   -1    0    0    0  501 -0.00000000000E+00 -0.00000000000E+00 -0.23065277763E+03  0.23065277765E+03  0.25500000000E-02 0.  1.
    -200001    2    1    2    0    0 -0.28349439066E+03 -0.62920752060E+03  0.20229424778E+04  0.22236547536E+04  0.61324792818E+03 0.  0.
   -5000001    2    3    3    0    0 -0.45645873278E+03 -0.41315266327E+03  0.15012172357E+04  0.16244931784E+04  0.79216159807E+02 0.  0.
     200001    1    1    2    0    0  0.28349439066E+03  0.62920752060E+03  0.15045117777E+04  0.17651050572E+04  0.61300000000E+03 0.  1.
         11    1    4    4    0    0 -0.18813005701E+03 -0.12506654745E+03  0.54385897541E+03  0.58891183107E+03  0.51100000000E-03 0.  1.
    -200002    1    4    4    0    0 -0.26832867577E+03 -0.28808611581E+03  0.95735826034E+03  0.10355813474E+04  0.30000000000E+02 0.  1.
    -200000    1    3    3    0    0  0.17296434211E+03 -0.21605485733E+03  0.52172524205E+03  0.59916157521E+03  0.10100000000E+03 0.  1.
<mgrwt>
<rscale>  0 0.18620610E+04</rscale>
<asrwt>0</asrwt>
<pdfrwt beam="1">  1        2 0.53687242E+00 0.18620610E+04</pdfrwt>
<pdfrwt beam="2">  1       -2 0.32950398E-01 0.18620610E+04</pdfrwt>
<totfact> 0.67371291E+00</totfact>
</mgrwt>
</event>
<event>
 8    2  0.7237260E-052  0.2093800E+04  0.7818608E-02  0.8563980E-01
         -2   -1    0    0    0  501 -0.00000000000E+00  0.00000000000E+00  0.43351016640E+03  0.43351016640E+03  0.25500000000E-02 0. -1.
          2   -1    0    0  501    0  0.00000000000E+00 -0.00000000000E+00 -0.25281975402E+04  0.25281975402E+04  0.25500000000E-02 0.  1.
    -200001    2    1    2    0    0 -0.31461260394E+02  0.34931205493E+03 -0.21411333868E+04  0.22539401213E+04  0.61056135475E+03 0.  0.
   -5000001    2    3    3    0    0 -0.20357338470E+03  0.11059323399E+03 -0.16431197658E+04  0.16667196981E+04  0.15632978231E+03 0.  0.
     200001    1    1    2    0    0  0.31461260394E+02 -0.34931205493E+03  0.46446012990E+02  0.70776758526E+03  0.61300000000E+03 0. -1.
         11    1    4    4    0    0 -0.39943479004E+02  0.10014237570E+03 -0.80477980453E+03  0.81196952572E+03  0.51100000000E-03 0.  1.
    -200002    1    4    4    0    0 -0.16362990569E+03  0.10450858291E+02 -0.83833996125E+03  0.85475017233E+03  0.30000000000E+02 0.  1.
    -200000    1    3    3    0    0  0.17211212430E+03  0.23871882094E+03 -0.49801362100E+03  0.58722042327E+03  0.10100000000E+03 0. -1.
<mgrwt>
<rscale>  0 0.20937997E+04</rscale>
<asrwt>0</asrwt>
<pdfrwt beam="1">  1        2 0.36117107E+00 0.20937997E+04</pdfrwt>
<pdfrwt beam="2">  1       -2 0.61930025E-01 0.20937997E+04</pdfrwt>
<totfact> 0.95475821E+00</totfact>
</mgrwt>
</event>
<event>
 8    2  0.7237260E-052  0.1349379E+04  0.7818608E-02  0.8991299E-01
         -2   -1    0    0    0  501 -0.00000000000E+00  0.00000000000E+00  0.31951035817E+03  0.31951035818E+03  0.25500000000E-02 0. -1.
          2   -1    0    0  501    0  0.00000000000E+00 -0.00000000000E+00 -0.14246976146E+04  0.14246976146E+04  0.25500000000E-02 0.  1.
    -200001    2    1    2    0    0  0.53455472222E+02  0.23221923162E+03 -0.74562830394E+03  0.99465150435E+03  0.61366667534E+03 0.  0.
   -5000001    2    3    3    0    0  0.45301946244E+02  0.40878880695E+02 -0.76975280765E+03  0.77679696215E+03  0.84680495425E+02 0.  0.
     200001    1    1    2    0    0 -0.53455472222E+02 -0.23221923162E+03 -0.35955895248E+03  0.74955646842E+03  0.61300000000E+03 0. -1.
         11    1    4    4    0    0 -0.96147364247E+01 -0.11439066292E+02 -0.43855490819E+02  0.46331409102E+02  0.51100000000E-03 0.  1.
    -200002    1    4    4    0    0  0.54916682669E+02  0.52317946987E+02 -0.72589731683E+03  0.73046555305E+03  0.30000000000E+02 0.  1.
    -200000    1    3    3    0    0  0.81535259777E+01  0.19134035092E+03  0.24124503704E+02  0.21785454220E+03  0.10100000000E+03 0. -1.
<mgrwt>
<rscale>  0 0.13493786E+04</rscale>
<asrwt>0</asrwt>
<pdfrwt beam="1">  1        2 0.20352823E+00 0.13493786E+04</pdfrwt>
<pdfrwt beam="2">  1       -2 0.45644338E-01 0.13493786E+04</pdfrwt>
<totfact> 0.71357760E+01</totfact>
</mgrwt>
</event>
<event>
 8    2  0.7237260E-052  0.1419772E+04  0.7818608E-02  0.8939630E-01
         -2   -1    0    0    0  501 -0.00000000000E+00  0.00000000000E+00  0.18213715364E+03  0.18213715366E+03  0.25500000000E-02 0. -1.
          2   -1    0    0  501    0  0.00000000000E+00 -0.00000000000E+00 -0.27668063819E+04  0.27668063819E+04  0.25500000000E-02 0.  1.
    -200001    2    1    2    0    0  0.28434414700E+03  0.21583305655E+03 -0.12472844144E+04  0.14350734479E+04  0.61341819992E+03 0.  0.
   -5000001    2    3    3    0    0  0.39499845956E+03  0.38463308170E+02 -0.10666981985E+04  0.11409360890E+04  0.79918102877E+02 0.  0.
     200001    1    1    2    0    0 -0.28434414700E+03 -0.21583305655E+03 -0.13373848138E+04  0.15138700877E+04  0.61300000000E+03 0. -1.
         11    1    4    4    0    0  0.17407158546E+03  0.32669600545E+02 -0.55960574507E+03  0.58696406158E+03  0.51100000000E-03 0.  1.
    -200002    1    4    4    0    0  0.22092687410E+03  0.57937076248E+01 -0.50709245348E+03  0.55397202738E+03  0.30000000000E+02 0.  1.
    -200000    1    3    3    0    0 -0.11065431256E+03  0.17736974838E+03 -0.18058621590E+03  0.29413735890E+03  0.10100000000E+03 0. -1.
<mgrwt>
<rscale>  0 0.14197721E+04</rscale>
<asrwt>0</asrwt>
<pdfrwt beam="1">  1        2 0.39525803E+00 0.14197721E+04</pdfrwt>
<pdfrwt beam="2">  1       -2 0.26019595E-01 0.14197721E+04</pdfrwt>
<totfact> 0.41337483E+01</totfact>
</mgrwt>
</event>
<event>
 8    2  0.7237260E-052  0.1408752E+04  0.7818608E-02  0.8947508E-01
          2   -1    0    0  501    0  0.00000000000E+00  0.00000000000E+00  0.73011882721E+03  0.73011882722E+03  0.25500000000E-02 0.  1.
         -2   -1    0    0    0  501 -0.00000000000E+00 -0.00000000000E+00 -0.67954052354E+03  0.67954052354E+03  0.25500000000E-02 0. -1.
    -200001    2    1    2    0    0  0.22895503848E+03  0.23046320349E+03  0.14870117069E+03  0.70899481274E+03  0.61239522248E+03 0.  0.
   -5000001    2    3    3    0    0  0.28125426186E+03  0.33750477073E+03 -0.58550404805E+02  0.44948118799E+03  0.74778060794E+02 0.  0.
     200001    1    1    2    0    0 -0.22895503848E+03 -0.23046320349E+03 -0.98122867013E+02  0.70066453802E+03  0.61300000000E+03 0.  1.
         11    1    4    4    0    0  0.23553850018E+03  0.26112348215E+03 -0.43286759467E+02  0.35431285828E+03  0.51100000000E-03 0.  1.
    -200002    1    4    4    0    0  0.45715761680E+02  0.76381288584E+02 -0.15263645338E+02  0.95168329715E+02  0.30000000000E+02 0. -1.
    -200000    1    3    3    0    0 -0.52299223381E+02 -0.10704156724E+03  0.20725157549E+03  0.25951362475E+03  0.10100000000E+03 0.  1.
<mgrwt>
<rscale>  0 0.14087517E+04</rscale>
<asrwt>0</asrwt>
<pdfrwt beam="1">  1        2 0.10430269E+00 0.14087517E+04</pdfrwt>
<pdfrwt beam="2">  1       -2 0.97077217E-01 0.14087517E+04</pdfrwt>
<totfact> 0.36870496E+01</totfact>
</mgrwt>
</event>
<event>
 8    2  0.7237260E-052  0.2134347E+04  0.7818608E-02  0.8546262E-01
          2   -1    0    0  501    0  0.00000000000E+00  0.00000000000E+00  0.88771934790E+03  0.88771934790E+03  0.25500000000E-02 0.  1.
         -2   -1    0    0    0  501 -0.00000000000E+00 -0.00000000000E+00 -0.12829046835E+04  0.12829046835E+04  0.25500000000E-02 0. -1.
    -200001    2    1    2    0    0 -0.16168592565E+03 -0.40780545180E+03  0.57196550416E+03  0.94441141855E+03  0.61018092766E+03 0.  0.
   -5000001    2    3    3    0    0 -0.40567388770E+02 -0.53870391713E+03  0.39811639807E+03  0.67565759088E+03  0.78542283744E+02 0.  0.
     200001    1    1    2    0    0  0.16168592565E+03  0.40780545180E+03 -0.96715083974E+03  0.12262126128E+04  0.61300000000E+03 0. -1.
         11    1    4    4    0    0  0.16940931560E+02 -0.47468094910E+02  0.35653835795E+02  0.61736627731E+02  0.51100000000E-03 0.  1.
    -200002    1    4    4    0    0 -0.57508320330E+02 -0.49123582222E+03  0.36246256228E+03  0.61392096315E+03  0.30000000000E+02 0.  1.
    -200000    1    3    3    0    0 -0.12111853688E+03  0.13089846533E+03  0.17384910608E+03  0.26875382767E+03  0.10100000000E+03 0.  1.
<mgrwt>
<rscale>  0 0.21343470E+04</rscale>
<asrwt>0</asrwt>
<pdfrwt beam="1">  1        2 0.12681705E+00 0.21343470E+04</pdfrwt>
<pdfrwt beam="2">  1       -2 0.18327210E+00 0.21343470E+04</pdfrwt>
<totfact> 0.52616020E+00</totfact>
</mgrwt>
</event>
<event>
 8    2  0.7237260E-052  0.1758300E+04  0.7818608E-02  0.8728795E-01
          2   -1    0    0  501    0  0.00000000000E+00  0.00000000000E+00  0.10435149643E+04  0.10435149643E+04  0.25500000000E-02 0.  1.
         -2   -1    0    0    0  501 -0.00000000000E+00 -0.00000000000E+00 -0.74067415271E+03  0.74067415272E+03  0.25500000000E-02 0. -1.
    -200001    2    1    2    0    0 -0.46724097857E+02 -0.31663643104E+03  0.70156793844E+03  0.98594473562E+03  0.61436770641E+03 0.  0.
   -5000001    2    3    3    0    0  0.42484751746E+01  0.16985380400E+03  0.25339674869E+03  0.31487889138E+03  0.77913026590E+02 0.  0.
     200001    1    1    2    0    0  0.46724097857E+02  0.31663643104E+03 -0.39872712684E+03  0.79824438141E+03  0.61300000000E+03 0. -1.
         11    1    4    4    0    0  0.17181079459E+02  0.10125996218E+02  0.52446257834E+02  0.56110028086E+02  0.51100000000E-03 0.  1.
    -200002    1    4    4    0    0 -0.12932604285E+02  0.15972780779E+03  0.20095049086E+03  0.25876886329E+03  0.30000000000E+02 0. -1.
    -200000    1    3    3    0    0 -0.50972573032E+02 -0.48649023504E+03  0.44817118975E+03  0.67106584424E+03  0.10100000000E+03 0.  1.
<mgrwt>
<rscale>  0 0.17582998E+04</rscale>
<asrwt>0</asrwt>
<pdfrwt beam="1">  1        2 0.14907357E+00 0.17582998E+04</pdfrwt>
<pdfrwt beam="2">  1       -2 0.10581059E+00 0.17582998E+04</pdfrwt>
<totfact> 0.18109661E+01</totfact>
</mgrwt>
</event>
<event>
 8    2  0.7237260E-052  0.2347388E+04  0.7818608E-02  0.8459468E-01
          2   -1    0    0  501    0  0.00000000000E+00  0.00000000000E+00  0.14812549819E+04  0.14812549819E+04  0.25500000000E-02 0.  1.
         -2   -1    0    0    0  501 -0.00000000000E+00 -0.00000000000E+00 -0.92999362946E+03  0.92999362946E+03  0.25500000000E-02 0. -1.
    -200001    2    1    2    0    0  0.21147199844E+03 -0.76805603331E+03  0.89774179303E+03  0.13480232486E+04  0.61367407911E+03 0.  0.
   -5000001    2    3    3    0    0  0.15486323511E+03 -0.50220558059E+03  0.16112533099E+03  0.55638834067E+03  0.86101954569E+02 0.  0.
     200001    1    1    2    0    0 -0.21147199844E+03  0.76805603331E+03 -0.34648044055E+03  0.10632253628E+04  0.61300000000E+03 0. -1.
         11    1    4    4    0    0  0.33848113288E+02 -0.21365506659E+03  0.42750726342E+02  0.22050353026E+03  0.51100000000E-03 0.  1.
    -200002    1    4    4    0    0  0.12101512183E+03 -0.28855051399E+03  0.11837460465E+03  0.33588481041E+03  0.30000000000E+02 0.  1.
    -200000    1    3    3    0    0  0.56608763322E+02 -0.26585045272E+03  0.73661646204E+03  0.79163490793E+03  0.10100000000E+03 0.  1.
<mgrwt>
<rscale>  0 0.23473881E+04</rscale>
<asrwt>0</asrwt>
<pdfrwt beam="1">  1        2 0.21160785E+00 0.23473881E+04</pdfrwt>
<pdfrwt beam="2">  1       -2 0.13285624E+00 0.23473881E+04</pdfrwt>
<totfact> 0.55833933E+00</totfact>
</mgrwt>
</event>
<event>
 8    2  0.7237260E-052  0.1510133E+04  0.7818608E-02  0.8877743E-01
          2   -1    0    0  501    0  0.00000000000E+00  0.00000000000E+00  0.23996161998E+04  0.23996161998E+04  0.25500000000E-02 0.  1.
         -2   -1    0    0    0  501 -0.00000000000E+00 -0.00000000000E+00 -0.23759015329E+03  0.23759015330E+03  0.25500000000E-02 0. -1.
    -200001    2    1    2    0    0 -0.24376159879E+03  0.36599934972E+03  0.10332332657E+04  0.12795181035E+04  0.61336804192E+03 0.  0.
   -5000001    2    3    3    0    0 -0.24848124537E+03  0.18470390156E+03  0.13014505138E+03  0.35287921084E+03  0.10829377865E+03 0.  0.
     200001    1    1    2    0    0  0.24376159879E+03 -0.36599934972E+03  0.11287927808E+04  0.13576882496E+04  0.61300000000E+03 0.  1.
         11    1    4    4    0    0 -0.17953969367E+03  0.96076449080E+02  0.44308105770E+02  0.20839480298E+03  0.51100000000E-03 0.  1.
    -200002    1    4    4    0    0 -0.68941551698E+02  0.88627452481E+02  0.85836945612E+02  0.14448440786E+03  0.30000000000E+02 0.  1.
    -200000    1    3    3    0    0  0.47196465823E+01  0.18129544816E+03  0.90308821430E+03  0.92663889266E+03  0.10100000000E+03 0.  1.
<mgrwt>
<rscale>  0 0.15101327E+04</rscale>
<asrwt>0</asrwt>
<pdfrwt beam="1">  1        2 0.34280230E+00 0.15101327E+04</pdfrwt>
<pdfrwt beam="2">  1       -2 0.33941451E-01 0.15101327E+04</pdfrwt>
<totfact> 0.39144156E+01</totfact>
</mgrwt>
</event>
<event>
 8    2  0.7237260E-052  0.2551360E+04  0.7818608E-02  0.8384913E-01
         -2   -1    0    0    0  501 -0.00000000000E+00  0.00000000000E+00  0.51770289142E+03  0.51770289143E+03  0.25500000000E-02 0. -1.
          2   -1    0    0  501    0  0.00000000000E+00 -0.00000000000E+00 -0.31434247648E+04  0.31434247648E+04  0.25500000000E-02 0.  1.
    -200001    2    1    2    0    0  0.23093942253E+03  0.71385138199E+03 -0.11948883172E+03  0.97414238058E+03  0.60972041486E+03 0.  0.
   -5000001    2    3    3    0    0  0.38394845271E+03  0.54007686942E+03 -0.21903931278E+03  0.70262692464E+03  0.81283057727E+02 0.  0.
     200001    1    1    2    0    0 -0.23093942253E+03 -0.71385138199E+03 -0.25062330417E+04  0.26869852756E+04  0.61300000000E+03 0. -1.
         11    1    4    4    0    0  0.66400456003E+02  0.14520445784E+03 -0.42862381921E+02  0.16531950556E+03  0.51100000000E-03 0.  1.
    -200002    1    4    4    0    0  0.31754799671E+03  0.39487241158E+03 -0.17617693086E+03  0.53730741909E+03  0.30000000000E+02 0.  1.
    -200000    1    3    3    0    0 -0.15300903018E+03  0.17377451258E+03  0.99550481056E+02  0.27151545594E+03  0.10100000000E+03 0. -1.
<mgrwt>
<rscale>  0 0.25513605E+04</rscale>
<asrwt>0</asrwt>
<pdfrwt beam="1">  1        2 0.44906067E+00 0.25513605E+04</pdfrwt>
<pdfrwt beam="2">  1       -2 0.73957558E-01 0.25513605E+04</pdfrwt>
<totfact> 0.28756922E+00</totfact>
</mgrwt>
</event>
<event>
 8    2  0.7237260E-052  0.1516690E+04  0.7818608E-02  0.8873430E-01
          2   -1    0    0  501    0  0.00000000000E+00  0.00000000000E+00  0.26291971656E+04  0.26291971656E+04  0.25500000000E-02 0.  1.
         -2   -1    0    0    0  501 -0.00000000000E+00 -0.00000000000E+00 -0.21873106081E+03  0.21873106083E+03  0.25500000000E-02 0. -1.
    -200001    2    1    2    0    0 -0.15827110544E+03  0.18736494514E+03  0.19061446752E+04  0.20171066633E+04  0.61251645103E+03 0.  0.
   -5000001    2    3    3    0    0 -0.10012591177E+03 -0.16470002857E+03  0.29809342091E+03  0.36684594276E+03  0.92547071887E+02 0.  0.
     200001    1    1    2    0    0  0.15827110544E+03 -0.18736494514E+03  0.50432142964E+03  0.83082156320E+03  0.61300000000E+03 0. -1.
         11    1    4    4    0    0 -0.24671104316E+02 -0.86275528046E+01  0.93145280830E+02  0.96742655518E+02  0.51100000000E-03 0.  1.
    -200002    1    4    4    0    0 -0.75454807457E+02 -0.15607247576E+03  0.20494814008E+03  0.27010328724E+03  0.30000000000E+02 0.  1.
    -200000    1    3    3    0    0 -0.58145193672E+02  0.35206497371E+03  0.16080512543E+04  0.16502607205E+04  0.10100000000E+03 0.  1.
<mgrwt>
<rscale>  0 0.15166899E+04</rscale>
<asrwt>0</asrwt>
<pdfrwt beam="1">  1        2 0.37559957E+00 0.15166899E+04</pdfrwt>
<pdfrwt beam="2">  1       -2 0.31247297E-01 0.15166899E+04</pdfrwt>
<totfact> 0.34628105E+01</totfact>
</mgrwt>
</event>
<event>
 8    2  0.7237260E-052  0.3195055E+04  0.7818608E-02  0.8190124E-01
         -2   -1    0    0    0  501 -0.00000000000E+00  0.00000000000E+00  0.20995811784E+04  0.20995811784E+04  0.25500000000E-02 0. -1.
          2   -1    0    0  501    0  0.00000000000E+00 -0.00000000000E+00 -0.12155255270E+04  0.12155255270E+04  0.25500000000E-02 0.  1.
    -200001    2    1    2    0    0  0.13694294252E+04 -0.53969816121E+03  0.34255807575E+03  0.16311828116E+04  0.61384059306E+03 0.  0.
   -5000001    2    3    3    0    0  0.12952172669E+04 -0.62700333310E+03  0.29567490145E+03  0.14714058748E+04  0.83009957112E+02 0.  0.
     200001    1    1    2    0    0 -0.13694294252E+04  0.53969816121E+03  0.54149757567E+03  0.16839238938E+04  0.61300000000E+03 0.  1.
         11    1    4    4    0    0  0.31833162092E+02 -0.11479818014E+02 -0.42168066296E+01  0.34101581910E+02  0.51100000000E-03 0.  1.
    -200002    1    4    4    0    0  0.12633841048E+04 -0.61552351508E+03  0.29989170808E+03  0.14373042929E+04  0.30000000000E+02 0.  1.
    -200000    1    3    3    0    0  0.74212158286E+02  0.87305171885E+02  0.46883174292E+02  0.15977693672E+03  0.10100000000E+03 0.  1.
<mgrwt>
<rscale>  0 0.31950553E+04</rscale>
<asrwt>0</asrwt>
<pdfrwt beam="1">  1        2 0.17364650E+00 0.31950553E+04</pdfrwt>
<pdfrwt beam="2">  1       -2 0.29994017E+00 0.31950553E+04</pdfrwt>
<totfact> 0.56525105E-01</totfact>
</mgrwt>
</event>
<event>
 8    2  0.7237260E-052  0.1550835E+04  0.7818608E-02  0.8851335E-01
          2   -1    0    0  501    0  0.00000000000E+00  0.00000000000E+00  0.56658230257E+03  0.56658230258E+03  0.25500000000E-02 0.  1.
         -2   -1    0    0    0  501 -0.00000000000E+00 -0.00000000000E+00 -0.10612263896E+04  0.10612263896E+04  0.25500000000E-02 0. -1.
    -200001    2    1    2    0    0 -0.11417330781E+03 -0.45720822502E+03 -0.19036611979E+03  0.79688812642E+03  0.61377236922E+03 0.  0.
   -5000001    2    3    3    0    0  0.62799996834E+02  0.95601492946E+02 -0.11353685666E+03  0.20273169036E+03  0.12298794819E+03 0.  0.
     200001    1    1    2    0    0  0.11417330781E+03  0.45720822502E+03 -0.30427796721E+03  0.83092056574E+03  0.61300000000E+03 0.  1.
         11    1    4    4    0    0  0.70771562428E+02  0.65150159570E+01 -0.66438030032E+02  0.97288598079E+02  0.51100000000E-03 0.  1.
    -200002    1    4    4    0    0 -0.79715655938E+01  0.89086476989E+02 -0.47098826632E+02  0.10544309228E+03  0.30000000000E+02 0.  1.
    -200000    1    3    3    0    0 -0.17697330465E+03 -0.55280971796E+03 -0.76829263130E+02  0.59415643605E+03  0.10100000000E+03 0. -1.
<mgrwt>
<rscale>  0 0.15508347E+04</rscale>
<asrwt>0</asrwt>
<pdfrwt beam="1">  1        2 0.80940329E-01 0.15508347E+04</pdfrwt>
<pdfrwt beam="2">  1       -2 0.15160377E+00 0.15508347E+04</pdfrwt>
<totfact> 0.16302488E+01</totfact>
</mgrwt>
</event>
<event>
 8    2  0.7237260E-052  0.1429540E+04  0.7818608E-02  0.8932709E-01
         -2   -1    0    0    0  501 -0.00000000000E+00  0.00000000000E+00  0.18461541609E+04  0.18461541609E+04  0.25500000000E-02 0. -1.
          2   -1    0    0  501    0  0.00000000000E+00 -0.00000000000E+00 -0.27673549091E+03  0.27673549092E+03  0.25500000000E-02 0.  1.
    -200001    2    1    2    0    0  0.31012063713E+03  0.14291293566E+03  0.98526721392E+03  0.12098722148E+04  0.61354737100E+03 0.  0.
   -5000001    2    3    3    0    0  0.11138256336E+03 -0.18653226882E+03  0.62405930249E+03  0.67256120612E+03  0.12525254576E+03 0.  0.
     200001    1    1    2    0    0 -0.31012063713E+03 -0.14291293566E+03  0.58415145608E+03  0.91301743707E+03  0.61300000000E+03 0.  1.
         11    1    4    4    0    0  0.83615948584E+02 -0.10125948032E+03  0.20873873809E+03  0.24661096893E+03  0.51100000000E-03 0.  1.
    -200002    1    4    4    0    0  0.27766614778E+02 -0.85272788494E+02  0.41532056440E+03  0.42595023720E+03  0.30000000000E+02 0.  1.
    -200000    1    3    3    0    0  0.19873807377E+03  0.32944520448E+03  0.36120791143E+03  0.53731100864E+03  0.10100000000E+03 0.  1.
<mgrwt>
<rscale>  0 0.14295403E+04</rscale>
<asrwt>0</asrwt>
<pdfrwt beam="1">  1        2 0.39533642E-01 0.14295403E+04</pdfrwt>
<pdfrwt beam="2">  1       -2 0.26373631E+00 0.14295403E+04</pdfrwt>
<totfact> 0.67341191E+00</totfact>
</mgrwt>
</event>
<event>
 8    2  0.7237260E-052  0.1633040E+04  0.7818608E-02  0.8800503E-01
         -2   -1    0    0    0  501 -0.00000000000E+00  0.00000000000E+00  0.30870009261E+03  0.30870009262E+03  0.25500000000E-02 0. -1.
          2   -1    0    0  501    0  0.00000000000E+00 -0.00000000000E+00 -0.21597173612E+04  0.21597173612E+04  0.25500000000E-02 0.  1.
    -200001    2    1    2    0    0 -0.32289401415E+03 -0.30571923656E+03 -0.13900243637E+04  0.15818463882E+04  0.61020117043E+03 0.  0.
   -5000001    2    3    3    0    0 -0.25370609107E+03 -0.38974619487E+03 -0.13410079934E+04  0.14254779036E+04  0.13196946003E+03 0.  0.
     200001    1    1    2    0    0  0.32289401415E+03  0.30571923656E+03 -0.46099290494E+03  0.88657106561E+03  0.61300000000E+03 0. -1.
         11    1    4    4    0    0 -0.19911749367E+03 -0.19409955954E+03 -0.77740080572E+03  0.82563577202E+03  0.51100000000E-03 0.  1.
    -200002    1    4    4    0    0 -0.54588597404E+02 -0.19564663533E+03 -0.56360718764E+03  0.59984213160E+03  0.30000000000E+02 0.  1.
    -200000    1    3    3    0    0 -0.69187923071E+02  0.84026958313E+02 -0.49016370312E+02  0.15636848461E+03  0.10100000000E+03 0. -1.
<mgrwt>
<rscale>  0 0.16330400E+04</rscale>
<asrwt>0</asrwt>
<pdfrwt beam="1">  1        2 0.30853104E+00 0.16330400E+04</pdfrwt>
<pdfrwt beam="2">  1       -2 0.44100015E-01 0.16330400E+04</pdfrwt>
<totfact> 0.31016394E+01</totfact>
</mgrwt>
</event>
<event>
 8    2  0.7237260E-052  0.1373189E+04  0.7818608E-02  0.8973457E-01
         -2   -1    0    0    0  501 -0.00000000000E+00  0.00000000000E+00  0.14802626950E+04  0.14802626951E+04  0.25500000000E-02 0. -1.
          2   -1    0    0  501    0  0.00000000000E+00 -0.00000000000E+00 -0.31846523919E+03  0.31846523921E+03  0.25500000000E-02 0.  1.
    -200001    2    1    2    0    0  0.15056850194E+03  0.13424153892E+03  0.27646014580E+03  0.70315373909E+03  0.61425019660E+03 0.  0.
   -5000001    2    3    3    0    0  0.10934011420E+03 -0.82866471037E+02  0.40225735276E+03  0.42954525014E+03  0.62257782444E+02 0.  0.
     200001    1    1    2    0    0 -0.15056850194E+03 -0.13424153892E+03  0.88533731005E+03  0.10955741952E+04  0.61300000000E+03 0. -1.
         11    1    4    4    0    0  0.36352952984E+02 -0.54108318475E+02  0.20610727051E+03  0.21616996618E+03  0.51100000000E-03 0.  1.
    -200002    1    4    4    0    0  0.72987161219E+02 -0.28758152562E+02  0.19615008225E+03  0.21337528396E+03  0.30000000000E+02 0.  1.
    -200000    1    3    3    0    0  0.41228387737E+02  0.21710800996E+03 -0.12579720696E+03  0.27360848895E+03  0.10100000000E+03 0.  1.
<mgrwt>
<rscale>  0 0.13731893E+04</rscale>
<asrwt>0</asrwt>
<pdfrwt beam="1">  1        2 0.45495034E-01 0.13731893E+04</pdfrwt>
<pdfrwt beam="2">  1       -2 0.21146610E+00 0.13731893E+04</pdfrwt>
<totfact> 0.12204849E+01</totfact>
</mgrwt>
</event>
<event>
 8    2  0.7237260E-052  0.1534133E+04  0.7818608E-02  0.8862067E-01
         -2   -1    0    0    0  501 -0.00000000000E+00  0.00000000000E+00  0.14055108851E+04  0.14055108851E+04  0.25500000000E-02 0. -1.
          2   -1    0    0  501    0  0.00000000000E+00 -0.00000000000E+00 -0.41863121271E+03  0.41863121272E+03  0.25500000000E-02 0.  1.
    -200001    2    1    2    0    0  0.41873028306E+03 -0.17352389031E+03  0.39226711418E+03  0.85730256367E+03  0.61290179176E+03 0.  0.
   -5000001    2    3    3    0    0  0.31121576370E+03  0.16720115490E+03  0.28256055647E+03  0.47014696561E+03  0.12800868495E+03 0.  0.
     200001    1    1    2    0    0 -0.41873028306E+03  0.17352389031E+03  0.59461255824E+03  0.96683953419E+03  0.61300000000E+03 0. -1.
         11    1    4    4    0    0 -0.25269272866E+01  0.17924427180E+02 -0.42780028001E+01  0.18600316112E+02  0.51100000000E-03 0.  1.
    -200002    1    4    4    0    0  0.31374269098E+03  0.14927672772E+03  0.28683855927E+03  0.45154664949E+03  0.30000000000E+02 0.  1.
    -200000    1    3    3    0    0  0.10751451936E+03 -0.34072504521E+03  0.10970655771E+03  0.38715559806E+03  0.10100000000E+03 0.  1.
<mgrwt>
<rscale>  0 0.15341326E+04</rscale>
<asrwt>0</asrwt>
<pdfrwt beam="1">  1        2 0.59804459E-01 0.15341326E+04</pdfrwt>
<pdfrwt beam="2">  1       -2 0.20078727E+00 0.15341326E+04</pdfrwt>
<totfact> 0.10418538E+01</totfact>
</mgrwt>
</event>
<event>
 8    2  0.7237260E-052  0.1814673E+04  0.7818608E-02  0.8698535E-01
         -2   -1    0    0    0  501 -0.00000000000E+00  0.00000000000E+00  0.16333470201E+04  0.16333470201E+04  0.25500000000E-02 0. -1.
          2   -1    0    0  501    0  0.00000000000E+00 -0.00000000000E+00 -0.50403214116E+03  0.50403214117E+03  0.25500000000E-02 0.  1.
    -200001    2    1    2    0    0 -0.16724992114E+03 -0.58439451976E+03  0.23680204384E+03  0.89567160645E+03  0.61372870862E+03 0.  0.
   -5000001    2    3    3    0    0  0.15166609315E+03 -0.31484057405E+03  0.13199179694E+03  0.45345792317E+03  0.25705070074E+03 0.  0.
     200001    1    1    2    0    0  0.16724992114E+03  0.58439451976E+03  0.89251283505E+03  0.12417075548E+04  0.61300000000E+03 0. -1.
         11    1    4    4    0    0  0.12734913257E+03 -0.11244751539E+03  0.17399052433E+03  0.24317678311E+03  0.51100000000E-03 0.  1.
    -200002    1    4    4    0    0  0.24316960582E+02 -0.20239305866E+03 -0.41998727395E+02  0.21028114006E+03  0.30000000000E+02 0.  1.
    -200000    1    3    3    0    0 -0.31891601430E+03 -0.26955394572E+03  0.10481024691E+03  0.44221368328E+03  0.10100000000E+03 0.  1.
<mgrwt>
<rscale>  0 0.18146729E+04</rscale>
<asrwt>0</asrwt>
<pdfrwt beam="1">  1        2 0.72004590E-01 0.18146729E+04</pdfrwt>
<pdfrwt beam="2">  1       -2 0.23333529E+00 0.18146729E+04</pdfrwt>
<totfact> 0.51244087E+00</totfact>
</mgrwt>
</event>
<event>
 8    2  0.7237260E-052  0.1353708E+04  0.7818608E-02  0.8988026E-01
          2   -1    0    0  501    0  0.00000000000E+00  0.00000000000E+00  0.34748361576E+04  0.34748361577E+04  0.25500000000E-02 0.  1.
         -2   -1    0    0    0  501 -0.00000000000E+00 -0.00000000000E+00 -0.13184255886E+03  0.13184255889E+03  0.25500000000E-02 0. -1.
    -200001    2    1    2    0    0  0.20014202174E+03  0.55931107175E+02  0.22093311058E+04  0.23012497581E+04  0.60944351363E+03 0.  0.
   -5000001    2    3    3    0    0  0.14467697296E+03 -0.25245911386E+03  0.12624537273E+04  0.12987734891E+04  0.91411878600E+02 0.  0.
     200001    1    1    2    0    0 -0.20014202174E+03 -0.55931107175E+02  0.11336624929E+04  0.13054289584E+04  0.61300000000E+03 0.  1.
         11    1    4    4    0    0  0.91222058396E+02 -0.10419331731E+03  0.45805625469E+03  0.47853238529E+03  0.51100000000E-03 0.  1.
    -200002    1    4    4    0    0  0.53454914560E+02 -0.14826579655E+03  0.80439747265E+03  0.82024110378E+03  0.30000000000E+02 0.  1.
    -200000    1    3    3    0    0  0.55465048784E+02  0.30839022103E+03  0.94687737850E+03  0.10024762690E+04  0.10100000000E+03 0.  1.
<mgrwt>
<rscale>  0 0.13537079E+04</rscale>
<asrwt>0</asrwt>
<pdfrwt beam="1">  1        2 0.49640512E+00 0.13537079E+04</pdfrwt>
<pdfrwt beam="2">  1       -2 0.18834653E-01 0.13537079E+04</pdfrwt>
<totfact> 0.29319644E+01</totfact>
</mgrwt>
</event>
<event>
 8    2  0.7237260E-052  0.1555319E+04  0.7818608E-02  0.8848477E-01
         -2   -1    0    0    0  501 -0.00000000000E+00  0.00000000000E+00  0.48485996701E+03  0.48485996701E+03  0.25500000000E-02 0. -1.
          2   -1    0    0  501    0  0.00000000000E+00 -0.00000000000E+00 -0.12472768426E+04  0.12472768426E+04  0.25500000000E-02 0.  1.
    -200001    2    1    2    0    0  0.29911682133E+03  0.24126825101E+03 -0.69971869828E+03  0.10059265761E+04  0.61204638559E+03 0.  0.
   -5000001    2    3    3    0    0  0.13869695514E+03  0.19697334851E+03  0.15271597688E+02  0.26490788867E+03  0.10912205273E+03 0.  0.
     200001    1    1    2    0    0 -0.29911682133E+03 -0.24126825101E+03 -0.62698177295E+02  0.72621023346E+03  0.61300000000E+03 0.  1.
         11    1    4    4    0    0  0.57128448986E+02  0.54403938147E+02  0.51289295628E+02  0.94095908602E+02  0.51100000000E-03 0.  1.
    -200002    1    4    4    0    0  0.81568506156E+02  0.14256941037E+03 -0.36017697940E+02  0.17081198006E+03  0.30000000000E+02 0.  1.
    -200000    1    3    3    0    0  0.16041986619E+03  0.44294902496E+02 -0.71499029597E+03  0.74101868747E+03  0.10100000000E+03 0.  1.
<mgrwt>
<rscale>  0 0.15553194E+04</rscale>
<asrwt>0</asrwt>
<pdfrwt beam="1">  1        2 0.17818240E+00 0.15553194E+04</pdfrwt>
<pdfrwt beam="2">  1       -2 0.69265710E-01 0.15553194E+04</pdfrwt>
<totfact> 0.36848038E+01</totfact>
</mgrwt>
</event>
<event>
 8    2  0.7237260E-052  0.1516680E+04  0.7818608E-02  0.8873436E-01
          2   -1    0    0  501    0  0.00000000000E+00  0.00000000000E+00  0.12037017248E+04  0.12037017248E+04  0.25500000000E-02 0.  1.
         -2   -1    0    0    0  501 -0.00000000000E+00 -0.00000000000E+00 -0.47775937910E+03  0.47775937911E+03  0.25500000000E-02 0. -1.
    -200001    2    1    2    0    0 -0.36326720860E+03 -0.66478492881E+02  0.84860889186E+02  0.72066097445E+03  0.61299952261E+03 0.  0.
   -5000001    2    3    3    0    0 -0.27589218051E+03 -0.28481510036E+02 -0.23205521413E+03  0.37466244442E+03  0.97952198397E+02 0.  0.
     200001    1    1    2    0    0  0.36326720860E+03  0.66478492881E+02  0.64108145646E+03  0.96080012941E+03  0.61300000000E+03 0. -1.
         11    1    4    4    0    0 -0.23173901347E+03 -0.35268944932E+01 -0.20656948653E+03  0.31046153081E+03  0.51100000000E-03 0.  1.
    -200002    1    4    4    0    0 -0.44153167044E+02 -0.24954615543E+02 -0.25485727607E+02  0.64200913612E+02  0.30000000000E+02 0.  1.
    -200000    1    3    3    0    0 -0.87375028089E+02 -0.37996982845E+02  0.31691610332E+03  0.34599853003E+03  0.10100000000E+03 0.  1.
<mgrwt>
<rscale>  0 0.15166803E+04</rscale>
<asrwt>0</asrwt>
<pdfrwt beam="1">  1        2 0.17195739E+00 0.15166803E+04</pdfrwt>
<pdfrwt beam="2">  1       -2 0.68251340E-01 0.15166803E+04</pdfrwt>
<totfact> 0.40388945E+01</totfact>
</mgrwt>
</event>
<event>
 8    2  0.7237260E-052  0.1315159E+04  0.7818608E-02  0.9017630E-01
         -2   -1    0    0    0  501 -0.00000000000E+00  0.00000000000E+00  0.59264828031E+03  0.59264828032E+03  0.25500000000E-02 0. -1.
          2   -1    0    0  501    0  0.00000000000E+00 -0.00000000000E+00 -0.72962429907E+03  0.72962429908E+03  0.25500000000E-02 0.  1.
    -200001    2    1    2    0    0  0.54084869205E+02 -0.20259417583E+03 -0.18126078132E+03  0.67288847630E+03  0.61315076249E+03 0.  0.
   -5000001    2    3    3    0    0  0.98209339752E+00 -0.38984495044E+03 -0.17561695959E+03  0.45353576920E+03  0.15123930560E+03 0.  0.
     200001    1    1    2    0    0 -0.54084869205E+02  0.20259417583E+03  0.44284762561E+02  0.64938410309E+03  0.61300000000E+03 0.  1.
         11    1    4    4    0    0  0.26960972048E+02 -0.19278700304E+01 -0.20284263707E+02  0.33794408576E+02  0.51100000000E-03 0.  1.
    -200002    1    4    4    0    0 -0.25978878651E+02 -0.38791708041E+03 -0.15533269589E+03  0.41974136062E+03  0.30000000000E+02 0.  1.
    -200000    1    3    3    0    0  0.53102775808E+02  0.18725077461E+03 -0.56438217263E+01  0.21935270710E+03  0.10100000000E+03 0.  1.
<mgrwt>
<rscale>  0 0.13151587E+04</rscale>
<asrwt>0</asrwt>
<pdfrwt beam="1">  1        2 0.10423204E+00 0.13151587E+04</pdfrwt>
<pdfrwt beam="2">  1       -2 0.84664040E-01 0.13151587E+04</pdfrwt>
<totfact> 0.50968042E+01</totfact>
</mgrwt>
</event>
<event>
 8    2  0.7237260E-052  0.1243302E+04  0.7818608E-02  0.9075777E-01
          2   -1    0    0  501    0  0.00000000000E+00  0.00000000000E+00  0.35519349728E+04  0.35519349728E+04  0.25500000000E-02 0.  1.
         -2   -1    0    0    0  501 -0.00000000000E+00 -0.00000000000E+00 -0.10879978740E+03  0.10879978743E+03  0.25500000000E-02 0. -1.
    -200001    2    1    2    0    0  0.39073178241E+02 -0.11501242103E+02  0.13078178055E+04  0.14387967987E+04  0.59840606935E+03 0.  0.
   -5000001    2    3    3    0    0  0.37722367454E+02 -0.58139627588E+02 -0.18416419345E+02  0.10790417240E+03  0.80628485145E+02 0.  0.
     200001    1    1    2    0    0 -0.39073178241E+02  0.11501242103E+02  0.21353173799E+04  0.22219379615E+04  0.61300000000E+03 0.  1.
         11    1    4    4    0    0  0.21965005337E+02 -0.40774381196E+02 -0.42492637037E+02  0.62854083590E+02  0.51100000000E-03 0.  1.
    -200002    1    4    4    0    0  0.15757362116E+02 -0.17365246393E+02  0.24076217692E+02  0.45050088807E+02  0.30000000000E+02 0. -1.
    -200000    1    3    3    0    0  0.13508107875E+01  0.46638385485E+02  0.13262342248E+04  0.13308926263E+04  0.10100000000E+03 0.  1.
<mgrwt>
<rscale>  0 0.12433017E+04</rscale>
<asrwt>0</asrwt>
<pdfrwt beam="1">  1        2 0.50741931E+00 0.12433017E+04</pdfrwt>
<pdfrwt beam="2">  1       -2 0.15542826E-01 0.12433017E+04</pdfrwt>
<totfact> 0.37073742E+01</totfact>
</mgrwt>
</event>
<event>
 8    2  0.7237260E-052  0.1805808E+04  0.7818608E-02  0.8703217E-01
         -2   -1    0    0    0  501 -0.00000000000E+00  0.00000000000E+00  0.76399596561E+03  0.76399596562E+03  0.25500000000E-02 0. -1.
          2   -1    0    0  501    0  0.00000000000E+00 -0.00000000000E+00 -0.10670681583E+04  0.10670681583E+04  0.25500000000E-02 0.  1.
    -200001    2    1    2    0    0 -0.37223462817E+03  0.51669290221E+03 -0.33988611908E+03  0.94638653366E+03  0.61204143940E+03 0.  0.
   -5000001    2    3    3    0    0 -0.93163134362E+02  0.71789843181E+02 -0.38502890420E+03  0.40967571615E+03  0.75853702253E+02 0.  0.
     200001    1    1    2    0    0  0.37223462817E+03 -0.51669290221E+03  0.36813926358E+02  0.88467759030E+03  0.61300000000E+03 0.  1.
         11    1    4    4    0    0 -0.79102305294E+02  0.69703098939E+02 -0.26685059180E+03  0.28692322153E+03  0.51100000000E-03 0.  1.
    -200002    1    4    4    0    0 -0.14060829068E+02  0.20867442419E+01 -0.11817831239E+03  0.12275249462E+03  0.30000000000E+02 0.  1.
    -200000    1    3    3    0    0 -0.27907149381E+03  0.44490305903E+03  0.45142785113E+02  0.53671081752E+03  0.10100000000E+03 0. -1.
<mgrwt>
<rscale>  0 0.18058081E+04</rscale>
<asrwt>0</asrwt>
<pdfrwt beam="1">  1        2 0.15243831E+00 0.18058081E+04</pdfrwt>
<pdfrwt beam="2">  1       -2 0.10914228E+00 0.18058081E+04</pdfrwt>
<totfact> 0.16204888E+01</totfact>
</mgrwt>
</event>
<event>
 8    2  0.7237260E-052  0.1307878E+04  0.7818608E-02  0.9023341E-01
         -2   -1    0    0    0  501 -0.00000000000E+00  0.00000000000E+00  0.21806275970E+03  0.21806275971E+03  0.25500000000E-02 0. -1.
          2   -1    0    0  501    0  0.00000000000E+00 -0.00000000000E+00 -0.19610692919E+04  0.19610692919E+04  0.25500000000E-02 0.  1.
    -200001    2    1    2    0    0 -0.21591985546E+03  0.65236965268E+02 -0.81831789517E+03  0.10470122165E+04  0.61295445042E+03 0.  0.
   -5000001    2    3    3    0    0 -0.23503965297E+03 -0.75242357513E+01 -0.34714000605E+03  0.55929368882E+03  0.37013915487E+03 0.  0.
     200001    1    1    2    0    0  0.21591985546E+03 -0.65236965268E+02 -0.92468863702E+03  0.11321198351E+04  0.61300000000E+03 0.  1.
         11    1    4    4    0    0  0.60521815591E+01  0.14758095879E+02  0.72311624408E+02  0.74049992035E+02  0.51100000000E-03 0.  1.
    -200002    1    4    4    0    0 -0.24109183453E+03 -0.22282331630E+02 -0.41945163046E+03  0.48524369679E+03  0.30000000000E+02 0.  1.
    -200000    1    3    3    0    0  0.19119797506E+02  0.72761201019E+02 -0.47117788912E+03  0.48771852766E+03  0.10100000000E+03 0.  1.
<mgrwt>
<rscale>  0 0.13078779E+04</rscale>
<asrwt>0</asrwt>
<pdfrwt beam="1">  1        2 0.28015275E+00 0.13078779E+04</pdfrwt>
<pdfrwt beam="2">  1       -2 0.31151824E-01 0.13078779E+04</pdfrwt>
<totfact> 0.78701076E+01</totfact>
</mgrwt>
</event>
<event>
 8    2  0.7237260E-052  0.2121302E+04  0.7818608E-02  0.8551917E-01
         -2   -1    0    0    0  501 -0.00000000000E+00  0.00000000000E+00  0.50000653639E+03  0.50000653639E+03  0.25500000000E-02 0. -1.
          2   -1    0    0  501    0  0.00000000000E+00 -0.00000000000E+00 -0.22499324387E+04  0.22499324387E+04  0.25500000000E-02 0.  1.
    -200001    2    1    2    0    0  0.57647678608E+03 -0.26116645662E+03 -0.16407989074E+04  0.18621264363E+04  0.61217677788E+03 0.  0.
   -5000001    2    3    3    0    0  0.50363033477E+03 -0.41906399660E+03 -0.14045632636E+04  0.15518902070E+04  0.79417288572E+02 0.  0.
     200001    1    1    2    0    0 -0.57647678608E+03  0.26116645662E+03 -0.10912699490E+03  0.88781253876E+03  0.61300000000E+03 0. -1.
         11    1    4    4    0    0  0.39407318358E+03 -0.32627217929E+03 -0.11358315216E+04  0.12457369122E+04  0.51100000000E-03 0.  1.
    -200002    1    4    4    0    0  0.10955715119E+03 -0.92791817310E+02 -0.26873174193E+03  0.30615329471E+03  0.30000000000E+02 0.  1.
    -200000    1    3    3    0    0  0.72846451308E+02  0.15789753997E+03 -0.23623564383E+03  0.31023622937E+03  0.10100000000E+03 0.  1.
<mgrwt>
<rscale>  0 0.21213024E+04</rscale>
<asrwt>0</asrwt>
<pdfrwt beam="1">  1        2 0.32141891E+00 0.21213024E+04</pdfrwt>
<pdfrwt beam="2">  1       -2 0.71429506E-01 0.21213024E+04</pdfrwt>
<totfact> 0.97879677E+00</totfact>
</mgrwt>
</event>
<event>
 8    2  0.7237260E-052  0.1360399E+04  0.7818608E-02  0.8982993E-01
         -2   -1    0    0    0  501 -0.00000000000E+00  0.00000000000E+00  0.57309404879E+03  0.57309404880E+03  0.25500000000E-02 0. -1.
          2   -1    0    0  501    0  0.00000000000E+00 -0.00000000000E+00 -0.80732201376E+03  0.80732201376E+03  0.25500000000E-02 0.  1.
    -200001    2    1    2    0    0 -0.11743197969E+03  0.45849422768E+02 -0.40243501260E+03  0.73237667310E+03  0.59877308934E+03 0.  0.
   -5000001    2    3    3    0    0 -0.76799736974E+02  0.75913349149E+02 -0.53782048680E+03  0.55606715708E+03  0.91097590454E+02 0.  0.
     200001    1    1    2    0    0  0.11743197969E+03 -0.45849422768E+02  0.16820704763E+03  0.64803938946E+03  0.61300000000E+03 0. -1.
         11    1    4    4    0    0 -0.43706069116E+01  0.18362407375E+02 -0.27803010902E+03  0.27867009479E+03  0.51100000000E-03 0.  1.
    -200002    1    4    4    0    0 -0.72429130063E+02  0.57550941774E+02 -0.25979037777E+03  0.27739706229E+03  0.30000000000E+02 0.  1.
    -200000    1    3    3    0    0 -0.40632242712E+02 -0.30063926381E+02  0.13538547419E+03  0.17630951602E+03  0.10100000000E+03 0. -1.
<mgrwt>
<rscale>  0 0.13603991E+04</rscale>
<asrwt>0</asrwt>
<pdfrwt beam="1">  1        2 0.11533172E+00 0.13603991E+04</pdfrwt>
<pdfrwt beam="2">  1       -2 0.81870579E-01 0.13603991E+04</pdfrwt>
<totfact> 0.48189470E+01</totfact>
</mgrwt>
</event>
<event>
 8    2  0.7237260E-052  0.1819468E+04  0.7818608E-02  0.8696014E-01
         -2   -1    0    0    0  501 -0.00000000000E+00  0.00000000000E+00  0.13853666748E+04  0.13853666748E+04  0.25500000000E-02 0. -1.
          2   -1    0    0  501    0  0.00000000000E+00 -0.00000000000E+00 -0.59739873303E+03  0.59739873304E+03  0.25500000000E-02 0.  1.
    -200001    2    1    2    0    0  0.13585351303E+03  0.19443565299E+03 -0.29186854361E+03  0.71861461172E+03  0.61233839768E+03 0.  0.
   -5000001    2    3    3    0    0 -0.12783817421E+03  0.22073534949E+02 -0.34750826572E+03  0.38314660382E+03  0.95966064544E+02 0.  0.
     200001    1    1    2    0    0 -0.13585351303E+03 -0.19443565299E+03  0.10798364853E+04  0.12641507961E+04  0.61300000000E+03 0. -1.
         11    1    4    4    0    0  0.68042305754E+00 -0.16276945777E+02 -0.87979157032E+02  0.89474767458E+02  0.51100000000E-03 0.  1.
    -200002    1    4    4    0    0 -0.12851859726E+03  0.38350480726E+02 -0.25952910869E+03  0.29367183636E+03  0.30000000000E+02 0.  1.
    -200000    1    3    3    0    0  0.26369168723E+03  0.17236211805E+03  0.55639722109E+02  0.33546800791E+03  0.10100000000E+03 0. -1.
<mgrwt>
<rscale>  0 0.18194684E+04</rscale>
<asrwt>0</asrwt>
<pdfrwt beam="1">  1        2 0.85342677E-01 0.18194684E+04</pdfrwt>
<pdfrwt beam="2">  1       -2 0.19790952E+00 0.18194684E+04</pdfrwt>
<totfact> 0.70736577E+00</totfact>
</mgrwt>
</event>
<event>
 8    2  0.7237260E-052  0.1245541E+04  0.7818608E-02  0.9073903E-01
         -2   -1    0    0    0  501 -0.00000000000E+00  0.00000000000E+00  0.58995234875E+03  0.58995234875E+03  0.25500000000E-02 0. -1.
          2   -1    0    0  501    0  0.00000000000E+00 -0.00000000000E+00 -0.65741404017E+03  0.65741404017E+03  0.25500000000E-02 0.  1.
    -200001    2    1    2    0    0  0.25118604966E+02 -0.10703023829E+03 -0.10233448891E+01  0.62105219452E+03  0.61124329433E+03 0.  0.
   -5000001    2    3    3    0    0 -0.25981350915E+03 -0.15306261479E+03  0.26935225770E+02  0.31398873038E+03  0.83259791222E+02 0.  0.
     200001    1    1    2    0    0 -0.25118604966E+02  0.10703023829E+03 -0.66438346530E+02  0.62631419441E+03  0.61300000000E+03 0. -1.
         11    1    4    4    0    0 -0.10548604389E+03 -0.80648182454E+02  0.44419064729E+02  0.14001602801E+03  0.51100000000E-03 0.  1.
    -200002    1    4    4    0    0 -0.15432746526E+03 -0.72414432338E+02 -0.17483838959E+02  0.17397270236E+03  0.30000000000E+02 0.  1.
    -200000    1    3    3    0    0  0.28493211411E+03  0.46032376500E+02 -0.27958570659E+02  0.30706346414E+03  0.10100000000E+03 0. -1.
<mgrwt>
<rscale>  0 0.12455408E+04</rscale>
<asrwt>0</asrwt>
<pdfrwt beam="1">  1        2 0.93916291E-01 0.12455408E+04</pdfrwt>
<pdfrwt beam="2">  1       -2 0.84278908E-01 0.12455408E+04</pdfrwt>
<totfact> 0.58842196E+01</totfact>
</mgrwt>
</event>
<event>
 8    2  0.7237260E-052  0.1283033E+04  0.7818608E-02  0.9043130E-01
         -2   -1    0    0    0  501 -0.00000000000E+00  0.00000000000E+00  0.17321809035E+03  0.17321809037E+03  0.25500000000E-02 0.  1.
          2   -1    0    0  501    0  0.00000000000E+00 -0.00000000000E+00 -0.23758670638E+04  0.23758670638E+04  0.25500000000E-02 0. -1.
    -200001    2    1    2    0    0 -0.72790834549E+02  0.10378346892E+03 -0.82273098023E+03  0.10338253804E+04  0.61305720557E+03 0.  0.
   -5000001    2    3    3    0    0 -0.17177867038E+02 -0.23956823178E+03 -0.25993342878E+03  0.36455318132E+03  0.87439223600E+02 0.  0.
     200001    1    1    2    0    0  0.72790834549E+02 -0.10378346892E+03 -0.13799179932E+04  0.15152597738E+04  0.61300000000E+03 0. -1.
         11    1    4    4    0    0 -0.28077236002E+02 -0.19680085885E+03 -0.17838596116E+03  0.26709635034E+03  0.51100000000E-03 0.  1.
    -200002    1    4    4    0    0  0.10899368964E+02 -0.42767372934E+02 -0.81547467614E+02  0.97456830985E+02  0.30000000000E+02 0.  1.
    -200000    1    3    3    0    0 -0.55612967511E+02  0.34335170070E+03 -0.56279755145E+03  0.66927219907E+03  0.10100000000E+03 0. -1.
<mgrwt>
<rscale>  0 0.12830326E+04</rscale>
<asrwt>0</asrwt>
<pdfrwt beam="1">  1        2 0.33940956E+00 0.12830326E+04</pdfrwt>
<pdfrwt beam="2">  1       -2 0.24745443E-01 0.12830326E+04</pdfrwt>
<totfact> 0.73677495E+01</totfact>
</mgrwt>
</event>
<event>
 8    2  0.7237260E-052  0.1450715E+04  0.7818608E-02  0.8917905E-01
          2   -1    0    0  501    0  0.00000000000E+00  0.00000000000E+00  0.12180084437E+04  0.12180084437E+04  0.25500000000E-02 0.  1.
         -2   -1    0    0    0  501 -0.00000000000E+00 -0.00000000000E+00 -0.43197012147E+03  0.43197012148E+03  0.25500000000E-02 0. -1.
    -200001    2    1    2    0    0 -0.25659255561E+03  0.28686483088E+03  0.36360503388E+03  0.81191528959E+03  0.61552144237E+03 0.  0.
   -5000001    2    3    3    0    0 -0.92898967896E+02  0.44755562381E+03  0.16304011760E+03  0.49090998242E+03  0.73988352155E+02 0.  0.
     200001    1    1    2    0    0  0.25659255561E+03 -0.28686483088E+03  0.42243328835E+03  0.83806327559E+03  0.61300000000E+03 0. -1.
         11    1    4    4    0    0 -0.70627098301E+02  0.28867846433E+03  0.79915949435E+02  0.30774990131E+03  0.51100000000E-03 0.  1.
    -200002    1    4    4    0    0 -0.22271869595E+02  0.15887715947E+03  0.83124168161E+02  0.18316008110E+03  0.30000000000E+02 0. -1.
    -200000    1    3    3    0    0 -0.16369358772E+03 -0.16069079293E+03  0.20056491629E+03  0.32100530718E+03  0.10100000000E+03 0.  1.
<mgrwt>
<rscale>  0 0.14507147E+04</rscale>
<asrwt>0</asrwt>
<pdfrwt beam="1">  1        2 0.17400121E+00 0.14507147E+04</pdfrwt>
<pdfrwt beam="2">  1       -2 0.61710018E-01 0.14507147E+04</pdfrwt>
<totfact> 0.49456020E+01</totfact>
</mgrwt>
</event>
<event>
 8    2  0.7237260E-052  0.1473375E+04  0.7818608E-02  0.8902354E-01
          2   -1    0    0  501    0  0.00000000000E+00  0.00000000000E+00  0.18726730192E+04  0.18726730192E+04  0.25500000000E-02 0.  1.
         -2   -1    0    0    0  501 -0.00000000000E+00 -0.00000000000E+00 -0.28980432315E+03  0.28980432316E+03  0.25500000000E-02 0. -1.
    -200001    2    1    2    0    0  0.32569561456E+03 -0.14737585480E+03  0.10916490408E+04  0.12994228681E+04  0.60745772348E+03 0.  0.
   -5000001    2    3    3    0    0  0.14137307786E+03 -0.33000432025E+03  0.86812345386E+03  0.94236175012E+03  0.74284173323E+02 0.  0.
     200001    1    1    2    0    0 -0.32569561456E+03  0.14737585480E+03  0.49121965524E+03  0.86305447431E+03  0.61300000000E+03 0.  1.
         11    1    4    4    0    0  0.34050133497E+01 -0.49676059904E+02  0.16525438557E+03  0.17259292278E+03  0.51100000000E-03 0.  1.
    -200002    1    4    4    0    0  0.13796806451E+03 -0.28032826035E+03  0.70286906829E+03  0.76976882734E+03  0.30000000000E+02 0.  1.
    -200000    1    3    3    0    0  0.18432253670E+03  0.18262846546E+03  0.22352558696E+03  0.35706111795E+03  0.10100000000E+03 0. -1.
<mgrwt>
<rscale>  0 0.14733754E+04</rscale>
<asrwt>0</asrwt>
<pdfrwt beam="1">  1        2 0.26752472E+00 0.14733754E+04</pdfrwt>
<pdfrwt beam="2">  1       -2 0.41400617E-01 0.14733754E+04</pdfrwt>
<totfact> 0.49998819E+01</totfact>
</mgrwt>
</event>
<event>
 8    2  0.7237260E-052  0.1479570E+04  0.7818608E-02  0.8898153E-01
          2   -1    0    0  501    0  0.00000000000E+00  0.00000000000E+00  0.13431370056E+04  0.13431370056E+04  0.25500000000E-02 0.  1.
         -2   -1    0    0    0  501 -0.00000000000E+00 -0.00000000000E+00 -0.40746548762E+03  0.40746548763E+03  0.25500000000E-02 0. -1.
    -200001    2    1    2    0    0  0.52305783245E+02  0.14910876622E+03  0.12572385326E+02  0.63129452497E+03  0.61106905769E+03 0.  0.
   -5000001    2    3    3    0    0 -0.40743156848E+02 -0.10857491232E+03 -0.18152827842E+03  0.28067357422E+03  0.17993505213E+03 0.  0.
     200001    1    1    2    0    0 -0.52305783245E+02 -0.14910876622E+03  0.92309913270E+03  0.11193079683E+04  0.61300000000E+03 0.  1.
         11    1    4    4    0    0  0.56624789599E+02 -0.89852523112E+01 -0.10328121114E+03  0.11812751640E+03  0.51100000000E-03 0.  1.
    -200002    1    4    4    0    0 -0.97367946447E+02 -0.99589660004E+02 -0.78247067280E+02  0.16254605782E+03  0.30000000000E+02 0.  1.
    -200000    1    3    3    0    0  0.93048940093E+02  0.25768367853E+03  0.19410066375E+03  0.35062095075E+03  0.10100000000E+03 0.  1.
<mgrwt>
<rscale>  0 0.14795702E+04</rscale>
<asrwt>0</asrwt>
<pdfrwt beam="1">  1        2 0.19187671E+00 0.14795702E+04</pdfrwt>
<pdfrwt beam="2">  1       -2 0.58209356E-01 0.14795702E+04</pdfrwt>
<totfact> 0.47547036E+01</totfact>
</mgrwt>
</event>
<event>
 8    2  0.7237260E-052  0.2154335E+04  0.7818608E-02  0.8537679E-01
          2   -1    0    0  501    0  0.00000000000E+00  0.00000000000E+00  0.15531452680E+04  0.15531452680E+04  0.25500000000E-02 0.  1.
         -2   -1    0    0    0  501 -0.00000000000E+00 -0.00000000000E+00 -0.74705827996E+03  0.74705827996E+03  0.25500000000E-02 0. -1.
    -200001    2    1    2    0    0  0.52371881328E+03 -0.58124794357E+03 -0.37260095170E+02  0.99669525493E+03  0.61634612778E+03 0.  0.
   -5000001    2    3    3    0    0  0.11786906187E+03  0.47990751905E+02 -0.12155104416E+03  0.23645758112E+03  0.15792815873E+03 0.  0.
     200001    1    1    2    0    0 -0.52371881328E+03  0.58124794357E+03  0.84334708325E+03  0.13035082931E+04  0.61300000000E+03 0.  1.
         11    1    4    4    0    0  0.27773930981E+02 -0.35886946223E+02 -0.97434786883E+02  0.10748396088E+03  0.51100000000E-03 0.  1.
    -200002    1    4    4    0    0  0.90095130887E+02  0.83877698128E+02 -0.24116257275E+02  0.12897362024E+03  0.30000000000E+02 0.  1.
    -200000    1    3    3    0    0  0.40584975141E+03 -0.62923869548E+03  0.84290948989E+02  0.76023767381E+03  0.10100000000E+03 0. -1.
<mgrwt>
<rscale>  0 0.21543352E+04</rscale>
<asrwt>0</asrwt>
<pdfrwt beam="1">  1        2 0.22187790E+00 0.21543352E+04</pdfrwt>
<pdfrwt beam="2">  1       -2 0.10672261E+00 0.21543352E+04</pdfrwt>
<totfact> 0.89265191E+00</totfact>
</mgrwt>
</event>
<event>
 8    2  0.7237260E-052  0.1421696E+04  0.7818608E-02  0.8938262E-01
         -2   -1    0    0    0  501 -0.00000000000E+00  0.00000000000E+00  0.68037243576E+03  0.68037243577E+03  0.25500000000E-02 0. -1.
          2   -1    0    0  501    0  0.00000000000E+00 -0.00000000000E+00 -0.74268843621E+03  0.74268843622E+03  0.25500000000E-02 0.  1.
    -200001    2    1    2    0    0  0.47055002257E+02  0.31253956163E+03 -0.20289823446E+03  0.71919475166E+03  0.61333371540E+03 0.  0.
   -5000001    2    3    3    0    0 -0.12686539709E+03  0.31017946326E+03  0.94278775566E+02  0.36035070383E+03  0.93048448784E+02 0.  0.
     200001    1    1    2    0    0 -0.47055002257E+02 -0.31253956163E+03  0.14058223401E+03  0.70386612033E+03  0.61300000000E+03 0. -1.
         11    1    4    4    0    0 -0.52913154423E+01 -0.39814741685E+01  0.96880951356E+01  0.11734962432E+02  0.51100000000E-03 0.  1.
    -200002    1    4    4    0    0 -0.12157408165E+03  0.31416093743E+03  0.84590680430E+02  0.34861574140E+03  0.30000000000E+02 0.  1.
    -200000    1    3    3    0    0  0.17392039935E+03  0.23600983730E+01 -0.29717701002E+03  0.35884404783E+03  0.10100000000E+03 0.  1.
<mgrwt>
<rscale>  0 0.14216958E+04</rscale>
<asrwt>0</asrwt>
<pdfrwt beam="1">  1        2 0.10609835E+00 0.14216958E+04</pdfrwt>
<pdfrwt beam="2">  1       -2 0.97196062E-01 0.14216958E+04</pdfrwt>
<totfact> 0.35951034E+01</totfact>
</mgrwt>
</event>
<event>
 8    2  0.7237260E-052  0.1388661E+04  0.7818608E-02  0.8962067E-01
         -2   -1    0    0    0  501 -0.00000000000E+00  0.00000000000E+00  0.38527891674E+03  0.38527891675E+03  0.25500000000E-02 0. -1.
          2   -1    0    0  501    0  0.00000000000E+00 -0.00000000000E+00 -0.12512882697E+04  0.12512882697E+04  0.25500000000E-02 0.  1.
    -200001    2    1    2    0    0  0.52922503277E+01  0.13980610731E+03 -0.85998994517E+02  0.63468949189E+03  0.61307517362E+03 0.  0.
   -5000001    2    3    3    0    0  0.16302736808E+03  0.29398871438E+03  0.64819397160E+02  0.34903265062E+03  0.67933423480E+02 0.  0.
     200001    1    1    2    0    0 -0.52922503277E+01 -0.13980610731E+03 -0.78001035843E+03  0.10018776945E+04  0.61300000000E+03 0.  1.
         11    1    4    4    0    0  0.11825659464E+02  0.68918402612E+02  0.18488771905E+02  0.72328605179E+02  0.51100000000E-03 0.  1.
    -200002    1    4    4    0    0  0.15120170861E+03  0.22507031177E+03  0.46330625255E+02  0.27670404544E+03  0.30000000000E+02 0.  1.
    -200000    1    3    3    0    0 -0.15773511775E+03 -0.15418260708E+03 -0.15081839168E+03  0.28565684127E+03  0.10100000000E+03 0.  1.
<mgrwt>
<rscale>  0 0.13886612E+04</rscale>
<asrwt>0</asrwt>
<pdfrwt beam="1">  1        2 0.17875546E+00 0.13886612E+04</pdfrwt>
<pdfrwt beam="2">  1       -2 0.55039846E-01 0.13886612E+04</pdfrwt>
<totfact> 0.60497889E+01</totfact>
</mgrwt>
</event>
<event>
 8    2  0.7237260E-052  0.3367764E+04  0.7818608E-02  0.8145864E-01
          2   -1    0    0  501    0  0.00000000000E+00  0.00000000000E+00  0.16195617397E+04  0.16195617397E+04  0.25500000000E-02 0.  1.
         -2   -1    0    0    0  501 -0.00000000000E+00 -0.00000000000E+00 -0.17507568775E+04  0.17507568775E+04  0.25500000000E-02 0. -1.
    -200001    2    1    2    0    0 -0.10751296361E+04 -0.47519789398E+03  0.97347321189E+03  0.16446946907E+04  0.61290599470E+03 0.  0.
   -5000001    2    3    3    0    0 -0.48653509880E+03 -0.24753253935E+03  0.81850363804E+03  0.98705374616E+03  0.79612385535E+02 0.  0.
     200001    1    1    2    0    0  0.10751296361E+04  0.47519789398E+03 -0.11046683497E+04  0.17256239265E+04  0.61300000000E+03 0. -1.
         11    1    4    4    0    0 -0.10060963286E+03 -0.20292706011E+02  0.14318472423E+03  0.17617025116E+03  0.51100000000E-03 0.  1.
    -200002    1    4    4    0    0 -0.38592546594E+03 -0.22723983333E+03  0.67531891382E+03  0.81088349500E+03  0.30000000000E+02 0.  1.
    -200000    1    3    3    0    0 -0.58859453733E+03 -0.22766535463E+03  0.15496957384E+03  0.65764094451E+03  0.10100000000E+03 0. -1.
<mgrwt>
<rscale>  0 0.33677642E+04</rscale>
<asrwt>0</asrwt>
<pdfrwt beam="1">  1        2 0.23136596E+00 0.33677642E+04</pdfrwt>
<pdfrwt beam="2">  1       -2 0.25010812E+00 0.33677642E+04</pdfrwt>
<totfact> 0.67948098E-01</totfact>
</mgrwt>
</event>
<event>
 8    2  0.7237260E-052  0.1735962E+04  0.7818608E-02  0.8741116E-01
          2   -1    0    0  501    0  0.00000000000E+00  0.00000000000E+00  0.22936040885E+04  0.22936040885E+04  0.25500000000E-02 0.  1.
         -2   -1    0    0    0  501 -0.00000000000E+00 -0.00000000000E+00 -0.32847472886E+03  0.32847472887E+03  0.25500000000E-02 0. -1.
    -200001    2    1    2    0    0  0.26021032567E+02 -0.43397822601E+03  0.32478815267E+03  0.81777771443E+03  0.61176699104E+03 0.  0.
   -5000001    2    3    3    0    0  0.78763178483E+02 -0.28545708746E+03  0.30618393408E+02  0.46909862155E+03  0.36252812809E+03 0.  0.
     200001    1    1    2    0    0 -0.26021032567E+02  0.43397822601E+03  0.16403412070E+04  0.18043011029E+04  0.61300000000E+03 0.  1.
         11    1    4    4    0    0 -0.67827972156E+02 -0.84243209860E+01 -0.10579984113E+03  0.12595717278E+03  0.51100000000E-03 0.  1.
    -200002    1    4    4    0    0  0.14659115064E+03 -0.27703276648E+03  0.13641823454E+03  0.34314144877E+03  0.30000000000E+02 0.  1.
    -200000    1    3    3    0    0 -0.52742145916E+02 -0.14852113855E+03  0.29416975926E+03  0.34867909289E+03  0.10100000000E+03 0.  1.
<mgrwt>
<rscale>  0 0.17359620E+04</rscale>
<asrwt>0</asrwt>
<pdfrwt beam="1">  1        2 0.32765773E+00 0.17359620E+04</pdfrwt>
<pdfrwt beam="2">  1       -2 0.46924960E-01 0.17359620E+04</pdfrwt>
<totfact> 0.23161991E+01</totfact>
</mgrwt>
</event>
<event>
 8    2  0.7237260E-052  0.1392348E+04  0.7818608E-02  0.8959376E-01
         -2   -1    0    0    0  501 -0.00000000000E+00  0.00000000000E+00  0.11507322709E+04  0.11507322709E+04  0.25500000000E-02 0. -1.
          2   -1    0    0  501    0  0.00000000000E+00 -0.00000000000E+00 -0.42117404058E+03  0.42117404059E+03  0.25500000000E-02 0.  1.
    -200001    2    1    2    0    0 -0.31469103926E+03  0.56381078494E+02  0.45676034504E+03  0.82867218791E+03  0.61307283908E+03 0.  0.
   -5000001    2    3    3    0    0  0.25226943084E+02 -0.20105464266E+02 -0.77380333493E+02  0.18299294061E+03  0.16265937400E+03 0.  0.
     200001    1    1    2    0    0  0.31469103926E+03 -0.56381078494E+02  0.27279788524E+03  0.74323412354E+03  0.61300000000E+03 0.  1.
         11    1    4    4    0    0  0.31479272695E+01  0.77896889608E+01 -0.11975813569E+03  0.12005248754E+03  0.51100000000E-03 0.  1.
    -200002    1    4    4    0    0  0.22079015815E+02 -0.27895153227E+02  0.42377802199E+02  0.62940453065E+02  0.30000000000E+02 0.  1.
    -200000    1    3    3    0    0 -0.33991798234E+03  0.76486542760E+02  0.53414067853E+03  0.64567924731E+03  0.10100000000E+03 0. -1.
<mgrwt>
<rscale>  0 0.13923485E+04</rscale>
<asrwt>0</asrwt>
<pdfrwt beam="1">  1        2 0.60167721E-01 0.13923485E+04</pdfrwt>
<pdfrwt beam="2">  1       -2 0.16439032E+00 0.13923485E+04</pdfrwt>
<totfact> 0.18598942E+01</totfact>
</mgrwt>
</event>
<event>
 8    2  0.7237260E-052  0.1807614E+04  0.7818608E-02  0.8702261E-01
          2   -1    0    0  501    0  0.00000000000E+00  0.00000000000E+00  0.59744346016E+03  0.59744346017E+03  0.25500000000E-02 0.  1.
         -2   -1    0    0    0  501 -0.00000000000E+00 -0.00000000000E+00 -0.13672714075E+04  0.13672714075E+04  0.25500000000E-02 0. -1.
    -200001    2    1    2    0    0  0.32711111519E+03 -0.28782325020E+03  0.15844701872E+03  0.77001519092E+03  0.61479592669E+03 0.  0.
   -5000001    2    3    3    0    0  0.29626499484E+03 -0.34856059653E+03  0.32322139001E+03  0.56509544611E+03  0.74788766754E+02 0.  0.
     200001    1    1    2    0    0 -0.32711111519E+03  0.28782325020E+03 -0.92827496609E+03  0.11946996768E+04  0.61300000000E+03 0. -1.
         11    1    4    4    0    0  0.16801259169E+03 -0.19086299653E+03  0.21432400452E+03  0.33255329396E+03  0.51100000000E-03 0.  1.
    -200002    1    4    4    0    0  0.12825240314E+03 -0.15769759999E+03  0.10889738549E+03  0.23254215214E+03  0.30000000000E+02 0. -1.
    -200000    1    3    3    0    0  0.30846120357E+02  0.60737346331E+02 -0.16477437129E+03  0.20491974482E+03  0.10100000000E+03 0. -1.
<mgrwt>
<rscale>  0 0.18076143E+04</rscale>
<asrwt>0</asrwt>
<pdfrwt beam="1">  1        2 0.85349066E-01 0.18076143E+04</pdfrwt>
<pdfrwt beam="2">  1       -2 0.19532449E+00 0.18076143E+04</pdfrwt>
<totfact> 0.73641468E+00</totfact>
</mgrwt>
</event>
<event>
 8    2  0.7237260E-052  0.1454732E+04  0.7818608E-02  0.8915127E-01
         -2   -1    0    0    0  501 -0.00000000000E+00  0.00000000000E+00  0.65645038926E+03  0.65645038926E+03  0.25500000000E-02 0. -1.
          2   -1    0    0  501    0  0.00000000000E+00 -0.00000000000E+00 -0.80594200527E+03  0.80594200528E+03  0.25500000000E-02 0.  1.
    -200001    2    1    2    0    0 -0.58755100123E+02 -0.32405393982E+03  0.13570530849E+03  0.71034890946E+03  0.61458646642E+03 0.  0.
   -5000001    2    3    3    0    0 -0.32912584582E+02 -0.48862898066E+03  0.48863976770E+02  0.49705287909E+03  0.69515159594E+02 0.  0.
     200001    1    1    2    0    0  0.58755100123E+02  0.32405393982E+03 -0.28519692450E+03  0.75204348508E+03  0.61300000000E+03 0.  1.
         11    1    4    4    0    0  0.13934654097E+02 -0.10238174865E+03  0.23704651016E+02  0.10600994067E+03  0.51100000000E-03 0.  1.
    -200002    1    4    4    0    0 -0.46847238679E+02 -0.38624723202E+03  0.25159325754E+02  0.39104293842E+03  0.30000000000E+02 0.  1.
    -200000    1    3    3    0    0 -0.25842515542E+02  0.16457504084E+03  0.86841331718E+02  0.21329603037E+03  0.10100000000E+03 0. -1.
<mgrwt>
<rscale>  0 0.14547315E+04</rscale>
<asrwt>0</asrwt>
<pdfrwt beam="1">  1        2 0.11513457E+00 0.14547315E+04</pdfrwt>
<pdfrwt beam="2">  1       -2 0.93778627E-01 0.14547315E+04</pdfrwt>
<totfact> 0.35131682E+01</totfact>
</mgrwt>
</event>
<event>
 8    2  0.7237260E-052  0.3504366E+04  0.7818608E-02  0.8112756E-01
         -2   -1    0    0    0  501 -0.00000000000E+00  0.00000000000E+00  0.18164557481E+04  0.18164557481E+04  0.25500000000E-02 0. -1.
          2   -1    0    0  501    0  0.00000000000E+00 -0.00000000000E+00 -0.16901846380E+04  0.16901846380E+04  0.25500000000E-02 0.  1.
    -200001    2    1    2    0    0  0.11378946461E+04  0.12129644456E+03 -0.11142945586E+04  0.17110097917E+04  0.61350231522E+03 0.  0.
   -5000001    2    3    3    0    0  0.24895948661E+02 -0.12044343138E+03 -0.22047901315E+03  0.25969607734E+03  0.60865662920E+02 0.  0.
     200001    1    1    2    0    0 -0.11378946461E+04 -0.12129644456E+03  0.12405656688E+04  0.17956305944E+04  0.61300000000E+03 0. -1.
         11    1    4    4    0    0 -0.10553107201E+02 -0.35058743234E+02 -0.36943765440E+02  0.52012742226E+02  0.51100000000E-03 0.  1.
    -200002    1    4    4    0    0  0.35449055862E+02 -0.85384688151E+02 -0.18353524771E+03  0.20768333511E+03  0.30000000000E+02 0.  1.
    -200000    1    3    3    0    0  0.11129986974E+04  0.24173987595E+03 -0.89381554549E+03  0.14513137143E+04  0.10100000000E+03 0.  1.
<mgrwt>
<rscale>  0 0.35043662E+04</rscale>
<asrwt>0</asrwt>
<pdfrwt beam="1">  1        2 0.24145495E+00 0.35043662E+04</pdfrwt>
<pdfrwt beam="2">  1       -2 0.25949368E+00 0.35043662E+04</pdfrwt>
<totfact> 0.54073379E-01</totfact>
</mgrwt>
</event>
<event>
 8    2  0.7237260E-052  0.2283763E+04  0.7818608E-02  0.8484351E-01
          2   -1    0    0  501    0  0.00000000000E+00  0.00000000000E+00  0.25352291005E+04  0.25352291005E+04  0.25500000000E-02 0.  1.
         -2   -1    0    0    0  501 -0.00000000000E+00 -0.00000000000E+00 -0.51430996809E+03  0.51430996810E+03  0.25500000000E-02 0. -1.
    -200001    2    1    2    0    0 -0.41363445431E+03 -0.30455960174E+03 -0.77302852633E+02  0.80406484000E+03  0.61375444854E+03 0.  0.
   -5000001    2    3    3    0    0 -0.47681503218E+03 -0.40974865386E+03 -0.19686359608E+02  0.63501696993E+03  0.87249441770E+02 0.  0.
     200001    1    1    2    0    0  0.41363445431E+03  0.30455960174E+03  0.20982219851E+04  0.22454742286E+04  0.61300000000E+03 0.  1.
         11    1    4    4    0    0 -0.32776701581E+02 -0.46381677494E+02  0.17042487310E+02  0.59296024721E+02  0.51100000000E-03 0.  1.
    -200002    1    4    4    0    0 -0.44403833060E+03 -0.36336697637E+03 -0.36728846919E+02  0.57572094521E+03  0.30000000000E+02 0.  1.
    -200000    1    3    3    0    0  0.63180577877E+02  0.10518905212E+03 -0.57616493025E+02  0.16904787007E+03  0.10100000000E+03 0. -1.
<mgrwt>
<rscale>  0 0.22837632E+04</rscale>
<asrwt>0</asrwt>
<pdfrwt beam="1">  1        2 0.36217558E+00 0.22837632E+04</pdfrwt>
<pdfrwt beam="2">  1       -2 0.73472853E-01 0.22837632E+04</pdfrwt>
<totfact> 0.64363137E+00</totfact>
</mgrwt>
</event>
<event>
 8    2  0.7237260E-052  0.1286281E+04  0.7818608E-02  0.9040516E-01
         -2   -1    0    0    0  501 -0.00000000000E+00  0.00000000000E+00  0.26829078221E+03  0.26829078223E+03  0.25500000000E-02 0. -1.
          2   -1    0    0  501    0  0.00000000000E+00 -0.00000000000E+00 -0.15417223182E+04  0.15417223182E+04  0.25500000000E-02 0.  1.
    -200001    2    1    2    0    0 -0.12902237633E+03  0.14550667872E+03 -0.61986355628E+03  0.89309485366E+03  0.61283653781E+03 0.  0.
   -5000001    2    3    3    0    0  0.14497204840E+03  0.78290487908E+02  0.13215512194E+02  0.19267992803E+03  0.99018228571E+02 0.  0.
     200001    1    1    2    0    0  0.12902237633E+03 -0.14550667872E+03 -0.65356797967E+03  0.91691824674E+03  0.61300000000E+03 0.  1.
         11    1    4    4    0    0  0.61116568508E+02 -0.12103913300E+02  0.20457508152E+02  0.65576286136E+02  0.51100000000E-03 0.  1.
    -200002    1    4    4    0    0  0.83855479897E+02  0.90394401207E+02 -0.72419959580E+01  0.12710364190E+03  0.30000000000E+02 0.  1.
    -200000    1    3    3    0    0 -0.27399442473E+03  0.67216190813E+02 -0.63307906847E+03  0.70041492562E+03  0.10100000000E+03 0.  1.
<mgrwt>
<rscale>  0 0.12862813E+04</rscale>
<asrwt>0</asrwt>
<pdfrwt beam="1">  1        2 0.22024604E+00 0.12862813E+04</pdfrwt>
<pdfrwt beam="2">  1       -2 0.38327256E-01 0.12862813E+04</pdfrwt>
<totfact> 0.87593819E+01</totfact>
</mgrwt>
</event>
<event>
 8    2  0.7237260E-052  0.1357013E+04  0.7818608E-02  0.8985536E-01
          2   -1    0    0  501    0  0.00000000000E+00  0.00000000000E+00  0.75219369036E+03  0.75219369036E+03  0.25500000000E-02 0.  1.
         -2   -1    0    0    0  501 -0.00000000000E+00 -0.00000000000E+00 -0.61203798767E+03  0.61203798768E+03  0.25500000000E-02 0. -1.
    -200001    2    1    2    0    0  0.50294026201E+02  0.24464374555E+03  0.22105261017E+03  0.69737835013E+03  0.61244775733E+03 0.  0.
   -5000001    2    3    3    0    0  0.44334784488E+02  0.40042043312E+03  0.22363143252E+03  0.51161091682E+03  0.22233446929E+03 0.  0.
     200001    1    1    2    0    0 -0.50294026201E+02 -0.24464374555E+03 -0.80896907482E+02  0.66685332791E+03  0.61300000000E+03 0. -1.
         11    1    4    4    0    0 -0.41186317195E+02  0.27649060093E+02 -0.23890287800E+02  0.55059323457E+02  0.51100000000E-03 0.  1.
    -200002    1    4    4    0    0  0.85521101683E+02  0.37277137302E+03  0.24752172032E+03  0.45655159337E+03  0.30000000000E+02 0.  1.
    -200000    1    3    3    0    0  0.59592417129E+01 -0.15577668757E+03 -0.25788223462E+01  0.18576743330E+03  0.10100000000E+03 0. -1.
<mgrwt>
<rscale>  0 0.13570131E+04</rscale>
<asrwt>0</asrwt>
<pdfrwt beam="1">  1        2 0.10745624E+00 0.13570131E+04</pdfrwt>
<pdfrwt beam="2">  1       -2 0.87433998E-01 0.13570131E+04</pdfrwt>
<totfact> 0.45440023E+01</totfact>
</mgrwt>
</event>
<event>
 8    2  0.7237260E-052  0.1545374E+04  0.7818608E-02  0.8854828E-01
         -2   -1    0    0    0  501 -0.00000000000E+00  0.00000000000E+00  0.11902591353E+03  0.11902591355E+03  0.25500000000E-02 0. -1.
          2   -1    0    0  501    0  0.00000000000E+00 -0.00000000000E+00 -0.50160932605E+04  0.50160932605E+04  0.25500000000E-02 0.  1.
    -200001    2    1    2    0    0  0.40628697556E+03 -0.60376768153E+02 -0.16829628480E+04  0.18374000849E+04  0.61234031682E+03 0.  0.
   -5000001    2    3    3    0    0  0.32926321571E+03  0.57233393899E+02 -0.88495117118E+03  0.10208289330E+04  0.38374888723E+03 0.  0.
     200001    1    1    2    0    0 -0.40628697556E+03  0.60376768153E+02 -0.32141044990E+04  0.32977190892E+04  0.61300000000E+03 0.  1.
         11    1    4    4    0    0  0.45101221884E+02  0.17826160034E+03 -0.21781009153E+03  0.28504833686E+03  0.51100000000E-03 0.  1.
    -200002    1    4    4    0    0  0.28416199383E+03 -0.12102820644E+03 -0.66714107965E+03  0.73578059613E+03  0.30000000000E+02 0.  1.
    -200000    1    3    3    0    0  0.77023759849E+02 -0.11761016205E+03 -0.79801167680E+03  0.81657115190E+03  0.10100000000E+03 0.  1.
<mgrwt>
<rscale>  0 0.15453738E+04</rscale>
<asrwt>0</asrwt>
<pdfrwt beam="1">  1        2 0.71658462E+00 0.15453738E+04</pdfrwt>
<pdfrwt beam="2">  1       -2 0.17003705E-01 0.15453738E+04</pdfrwt>
<totfact> 0.24166718E+00</totfact>
</mgrwt>
</event>
<event>
 8    2  0.7237260E-052  0.1268926E+04  0.7818608E-02  0.9054577E-01
          2   -1    0    0  501    0  0.00000000000E+00  0.00000000000E+00  0.17846715573E+04  0.17846715573E+04  0.25500000000E-02 0.  1.
         -2   -1    0    0    0  501 -0.00000000000E+00 -0.00000000000E+00 -0.22555595649E+03  0.22555595651E+03  0.25500000000E-02 0. -1.
    -200001    2    1    2    0    0 -0.38216004431E+02  0.11231995808E+03  0.60099390132E+03  0.86661812813E+03  0.61299027284E+03 0.  0.
   -5000001    2    3    3    0    0 -0.25321094245E+03  0.20228976798E+03  0.46715369694E+03  0.57950910637E+03  0.11207718856E+03 0.  0.
     200001    1    1    2    0    0  0.38216004431E+02 -0.11231995808E+03  0.95812169945E+03  0.11436093856E+04  0.61300000000E+03 0.  1.
         11    1    4    4    0    0 -0.99943016562E+02  0.14558748887E+03  0.23119779168E+03  0.29092394600E+03  0.51100000000E-03 0.  1.
    -200002    1    4    4    0    0 -0.15326792588E+03  0.56702279105E+02  0.23595590526E+03  0.28858516037E+03  0.30000000000E+02 0.  1.
    -200000    1    3    3    0    0  0.21499493801E+03 -0.89969809898E+02  0.13384020438E+03  0.28710902175E+03  0.10100000000E+03 0.  1.
<mgrwt>
<rscale>  0 0.12689260E+04</rscale>
<asrwt>0</asrwt>
<pdfrwt beam="1">  1        2 0.25495307E+00 0.12689260E+04</pdfrwt>
<pdfrwt beam="2">  1       -2 0.32222281E-01 0.12689260E+04</pdfrwt>
<totfact> 0.91275076E+01</totfact>
</mgrwt>
</event>
<event>
 8    2  0.7237260E-052  0.1478844E+04  0.7818608E-02  0.8898645E-01
         -2   -1    0    0    0  501 -0.00000000000E+00  0.00000000000E+00  0.59593987677E+03  0.59593987677E+03  0.25500000000E-02 0. -1.
          2   -1    0    0  501    0  0.00000000000E+00 -0.00000000000E+00 -0.91744937386E+03  0.91744937387E+03  0.25500000000E-02 0.  1.
    -200001    2    1    2    0    0 -0.32379768260E+03  0.25762185996E+03 -0.16223304383E+03  0.75684979328E+03  0.61260761266E+03 0.  0.
   -5000001    2    3    3    0    0 -0.93726796625E+01 -0.16365753063E+03  0.46155385144E+02  0.18242299660E+03  0.65392626929E+02 0.  0.
     200001    1    1    2    0    0  0.32379768260E+03 -0.25762185996E+03 -0.15927645326E+03  0.75653945736E+03  0.61300000000E+03 0.  1.
         11    1    4    4    0    0  0.15170702039E+02 -0.72457398044E+02  0.37406074295E+02  0.82942384377E+02  0.51100000000E-03 0.  1.
    -200002    1    4    4    0    0 -0.24543381702E+02 -0.91200132583E+02  0.87493108494E+01  0.99480612226E+02  0.30000000000E+02 0.  1.
    -200000    1    3    3    0    0 -0.31442500293E+03  0.42127939059E+03 -0.20838842898E+03  0.57442679667E+03  0.10100000000E+03 0. -1.
<mgrwt>
<rscale>  0 0.14788437E+04</rscale>
<asrwt>0</asrwt>
<pdfrwt beam="1">  1        2 0.13106420E+00 0.14788437E+04</pdfrwt>
<pdfrwt beam="2">  1       -2 0.85134268E-01 0.14788437E+04</pdfrwt>
<totfact> 0.36880396E+01</totfact>
</mgrwt>
</event>
<event>
 8    2  0.7237260E-052  0.1537523E+04  0.7818608E-02  0.8859877E-01
         -2   -1    0    0    0  501 -0.00000000000E+00  0.00000000000E+00  0.19545142908E+03  0.19545142909E+03  0.25500000000E-02 0. -1.
          2   -1    0    0  501    0  0.00000000000E+00 -0.00000000000E+00 -0.30237381363E+04  0.30237381363E+04  0.25500000000E-02 0.  1.
    -200001    2    1    2    0    0 -0.40834596635E+03 -0.14716843725E+03 -0.17533516744E+04  0.19078317569E+04  0.61414570036E+03 0.  0.
   -5000001    2    3    3    0    0 -0.45505673301E+03  0.95579032352E+02 -0.12855391907E+04  0.13691688292E+04  0.76159637722E+02 0.  0.
     200001    1    1    2    0    0  0.40834596635E+03  0.14716843725E+03 -0.10749350328E+04  0.13113578085E+04  0.61300000000E+03 0.  1.
         11    1    4    4    0    0 -0.30740874062E+03  0.41025450142E+02 -0.88494572382E+03  0.93771645794E+03  0.51100000000E-03 0.  1.
    -200002    1    4    4    0    0 -0.14764799239E+03  0.54553582211E+02 -0.40059346685E+03  0.43145237127E+03  0.30000000000E+02 0.  1.
    -200000    1    3    3    0    0  0.46710766666E+02 -0.24274746960E+03 -0.46781248375E+03  0.53866292769E+03  0.10100000000E+03 0.  1.
<mgrwt>
<rscale>  0 0.15375226E+04</rscale>
<asrwt>0</asrwt>
<pdfrwt beam="1">  1        2 0.43196256E+00 0.15375226E+04</pdfrwt>
<pdfrwt beam="2">  1       -2 0.27921635E-01 0.15375226E+04</pdfrwt>
<totfact> 0.25985205E+01</totfact>
</mgrwt>
</event>
<event>
 8    2  0.7237260E-052  0.1695874E+04  0.7818608E-02  0.8763721E-01
         -2   -1    0    0    0  501 -0.00000000000E+00  0.00000000000E+00  0.73499363089E+03  0.73499363090E+03  0.25500000000E-02 0. -1.
          2   -1    0    0  501    0  0.00000000000E+00 -0.00000000000E+00 -0.97823581646E+03  0.97823581646E+03  0.25500000000E-02 0.  1.
    -200001    2    1    2    0    0 -0.50297981972E+03 -0.70625403183E+02 -0.41701631511E+03  0.89840241374E+03  0.61257460224E+03 0.  0.
   -5000001    2    3    3    0    0 -0.10420123342E+03  0.22729297042E+03 -0.24154957432E+03  0.36102982851E+03  0.97346539594E+02 0.  0.
     200001    1    1    2    0    0  0.50297981972E+03  0.70625403183E+02  0.17377412954E+03  0.81482703362E+03  0.61300000000E+03 0. -1.
         11    1    4    4    0    0 -0.60511593791E+02  0.54123875673E+02 -0.11215767339E+03  0.13845717967E+03  0.51100000000E-03 0.  1.
    -200002    1    4    4    0    0 -0.43689639631E+02  0.17316909475E+03 -0.12939190093E+03  0.22257264885E+03  0.30000000000E+02 0.  1.
    -200000    1    3    3    0    0 -0.39877858630E+03 -0.29791837361E+03 -0.17546674079E+03  0.53737258522E+03  0.10100000000E+03 0.  1.
<mgrwt>
<rscale>  0 0.16958739E+04</rscale>
<asrwt>0</asrwt>
<pdfrwt beam="1">  1        2 0.13974797E+00 0.16958739E+04</pdfrwt>
<pdfrwt beam="2">  1       -2 0.10499909E+00 0.16958739E+04</pdfrwt>
<totfact> 0.20332831E+01</totfact>
</mgrwt>
</event>
<event>
 8    2  0.7237260E-052  0.1316841E+04  0.7818608E-02  0.9016316E-01
          2   -1    0    0  501    0  0.00000000000E+00  0.00000000000E+00  0.18105084826E+04  0.18105084826E+04  0.25500000000E-02 0.  1.
         -2   -1    0    0    0  501 -0.00000000000E+00 -0.00000000000E+00 -0.23944527803E+03  0.23944527804E+03  0.25500000000E-02 0. -1.
    -200001    2    1    2    0    0 -0.15630946005E+03  0.13724373251E+03  0.60548475345E+03  0.88746538019E+03  0.61458483951E+03 0.  0.
   -5000001    2    3    3    0    0 -0.32210037936E+03  0.25166711803E+03  0.32629449903E+03  0.52867917889E+03  0.77127047225E+02 0.  0.
     200001    1    1    2    0    0  0.15630946005E+03 -0.13724373251E+03  0.96557845109E+03  0.11624883804E+04  0.61300000000E+03 0.  1.
         11    1    4    4    0    0 -0.77777842823E+02  0.25947169567E+02  0.63915750719E+02  0.10396091397E+03  0.51100000000E-03 0.  1.
    -200002    1    4    4    0    0 -0.24432253654E+03  0.22571994846E+03  0.26237874831E+03  0.42471826492E+03  0.30000000000E+02 0.  1.
    -200000    1    3    3    0    0  0.16579091931E+03 -0.11442338551E+03  0.27919025442E+03  0.35878620130E+03  0.10100000000E+03 0. -1.
<mgrwt>
<rscale>  0 0.13168412E+04</rscale>
<asrwt>0</asrwt>
<pdfrwt beam="1">  1        2 0.25864408E+00 0.13168412E+04</pdfrwt>
<pdfrwt beam="2">  1       -2 0.34206467E-01 0.13168412E+04</pdfrwt>
<totfact> 0.78777215E+01</totfact>
</mgrwt>
</event>
<event>
 8    2  0.7237260E-052  0.1369619E+04  0.7818608E-02  0.8976108E-01
         -2   -1    0    0    0  501 -0.00000000000E+00  0.00000000000E+00  0.23707229769E+03  0.23707229770E+03  0.25500000000E-02 0. -1.
          2   -1    0    0  501    0  0.00000000000E+00 -0.00000000000E+00 -0.19781483317E+04  0.19781483317E+04  0.25500000000E-02 0.  1.
    -200001    2    1    2    0    0 -0.80856755667E+02  0.20970794676E+03 -0.54409992906E+03  0.85175591270E+03  0.61557141270E+03 0.  0.
   -5000001    2    3    3    0    0 -0.19573676788E+03  0.13115342046E+03  0.17885518432E+02  0.26405116199E+03  0.11785169656E+03 0.  0.
     200001    1    1    2    0    0  0.80856755667E+02 -0.20970794676E+03 -0.11969761050E+04  0.13634647167E+04  0.61300000000E+03 0.  1.
         11    1    4    4    0    0 -0.18727554288E+03  0.12575253460E+03 -0.39479006513E+01  0.22561341901E+03  0.51100000000E-03 0.  1.
    -200002    1    4    4    0    0 -0.84612249998E+01  0.54008858664E+01  0.21833419083E+02  0.38437742981E+02  0.30000000000E+02 0.  1.
    -200000    1    3    3    0    0  0.11488001221E+03  0.78554526301E+02 -0.56198544750E+03  0.58770475071E+03  0.10100000000E+03 0.  1.
<mgrwt>
<rscale>  0 0.13696192E+04</rscale>
<asrwt>0</asrwt>
<pdfrwt beam="1">  1        2 0.28259261E+00 0.13696192E+04</pdfrwt>
<pdfrwt beam="2">  1       -2 0.33867472E-01 0.13696192E+04</pdfrwt>
<totfact> 0.65573854E+01</totfact>
</mgrwt>
</event>
<event>
 8    2  0.7237260E-052  0.1702798E+04  0.7818608E-02  0.8759770E-01
          2   -1    0    0  501    0  0.00000000000E+00  0.00000000000E+00  0.50238495986E+04  0.50238495986E+04  0.25500000000E-02 0.  1.
         -2   -1    0    0    0  501 -0.00000000000E+00 -0.00000000000E+00 -0.14428788177E+03  0.14428788179E+03  0.25500000000E-02 0. -1.
    -200001    2    1    2    0    0 -0.62647189588E+02  0.51956481583E+03  0.16056622785E+04  0.17964822785E+04  0.61263770382E+03 0.  0.
   -5000001    2    3    3    0    0 -0.69660842301E+02  0.60370870898E+03  0.15220202372E+04  0.16405131240E+04  0.73626553319E+02 0.  0.
     200001    1    1    2    0    0  0.62647189588E+02 -0.51956481583E+03  0.32738994383E+04  0.33716552019E+04  0.61300000000E+03 0.  1.
         11    1    4    4    0    0  0.58873150322E+01  0.13343051697E+03  0.37967925573E+03  0.40248565262E+03  0.51100000000E-03 0.  1.
    -200002    1    4    4    0    0 -0.75548157334E+02  0.47027819202E+03  0.11423409815E+04  0.12380274714E+04  0.30000000000E+02 0.  1.
    -200000    1    3    3    0    0  0.70136527137E+01 -0.84143893158E+02  0.83642041321E+02  0.15596915450E+03  0.10100000000E+03 0. -1.
<mgrwt>
<rscale>  0 0.17027984E+04</rscale>
<asrwt>0</asrwt>
<pdfrwt beam="1">  1        2 0.71769284E+00 0.17027984E+04</pdfrwt>
<pdfrwt beam="2">  1       -2 0.20612553E-01 0.17027984E+04</pdfrwt>
<totfact> 0.16647702E+00</totfact>
</mgrwt>
</event>
<event>
 8    2  0.7237260E-052  0.1333045E+04  0.7818608E-02  0.9003763E-01
         -2   -1    0    0    0  501 -0.00000000000E+00  0.00000000000E+00  0.61776562472E+03  0.61776562473E+03  0.25500000000E-02 0. -1.
          2   -1    0    0  501    0  0.00000000000E+00 -0.00000000000E+00 -0.71912746373E+03  0.71912746373E+03  0.25500000000E-02 0.  1.
    -200001    2    1    2    0    0 -0.77659918022E+02 -0.22390323598E+03 -0.15834804415E+03  0.67721123368E+03  0.61431036942E+03 0.  0.
   -5000001    2    3    3    0    0  0.74458518163E+02  0.99203855424E+01 -0.32058793758E+03  0.33907474108E+03  0.80947942129E+02 0.  0.
     200001    1    1    2    0    0  0.77659918022E+02  0.22390323598E+03  0.56986205152E+02  0.65968185478E+03  0.61300000000E+03 0.  1.
         11    1    4    4    0    0 -0.40108503781E+01  0.22141414556E+02 -0.39643186185E+02  0.45584113137E+02  0.51100000000E-03 0.  1.
    -200002    1    4    4    0    0  0.78469368541E+02 -0.12221029014E+02 -0.28094475140E+03  0.29349062794E+03  0.30000000000E+02 0.  1.
    -200000    1    3    3    0    0 -0.15211843619E+03 -0.23382362152E+03  0.16223989343E+03  0.33813649260E+03  0.10100000000E+03 0. -1.
<mgrwt>
<rscale>  0 0.13330450E+04</rscale>
<asrwt>0</asrwt>
<pdfrwt beam="1">  1        2 0.10273249E+00 0.13330450E+04</pdfrwt>
<pdfrwt beam="2">  1       -2 0.88252232E-01 0.13330450E+04</pdfrwt>
<totfact> 0.47142385E+01</totfact>
</mgrwt>
</event>
<event>
 8    2  0.7237260E-052  0.1573406E+04  0.7818608E-02  0.8837055E-01
          2   -1    0    0  501    0  0.00000000000E+00  0.00000000000E+00  0.12791248799E+04  0.12791248799E+04  0.25500000000E-02 0.  1.
         -2   -1    0    0    0  501 -0.00000000000E+00 -0.00000000000E+00 -0.48384752066E+03  0.48384752066E+03  0.25500000000E-02 0. -1.
    -200001    2    1    2    0    0  0.64961946236E+02 -0.43605121153E+03  0.14899956028E+03  0.76908875194E+03  0.61232011715E+03 0.  0.
   -5000001    2    3    3    0    0 -0.10494575287E+03 -0.39086435474E+03 -0.12178279986E+03  0.43080696880E+03  0.83516699938E+02 0.  0.
     200001    1    1    2    0    0 -0.64961946236E+02  0.43605121153E+03  0.64627779892E+03  0.99388364858E+03  0.61300000000E+03 0. -1.
         11    1    4    4    0    0 -0.87481995391E+02 -0.21104771087E+03 -0.86589994464E+02  0.24431959177E+03  0.51100000000E-03 0.  1.
    -200002    1    4    4    0    0 -0.17463757482E+02 -0.17981664388E+03 -0.35192805398E+02  0.18648737703E+03  0.30000000000E+02 0.  1.
    -200000    1    3    3    0    0  0.16990769911E+03 -0.45186856785E+02  0.27078236014E+03  0.33828178314E+03  0.10100000000E+03 0.  1.
<mgrwt>
<rscale>  0 0.15734057E+04</rscale>
<asrwt>0</asrwt>
<pdfrwt beam="1">  1        2 0.18273212E+00 0.15734057E+04</pdfrwt>
<pdfrwt beam="2">  1       -2 0.69121076E-01 0.15734057E+04</pdfrwt>
<totfact> 0.35479010E+01</totfact>
</mgrwt>
</event>
<event>
 8    2  0.7237260E-052  0.3338948E+04  0.7818608E-02  0.8153055E-01
          2   -1    0    0  501    0  0.00000000000E+00  0.00000000000E+00  0.13330622171E+04  0.13330622171E+04  0.25500000000E-02 0.  1.
         -2   -1    0    0    0  501 -0.00000000000E+00 -0.00000000000E+00 -0.20907828620E+04  0.20907828620E+04  0.25500000000E-02 0. -1.
    -200001    2    1    2    0    0 -0.13514404152E+04 -0.75623063949E+03 -0.49543278186E+03  0.17377727500E+04  0.61328990986E+03 0.  0.
   -5000001    2    3    3    0    0 -0.10013420993E+04 -0.57071409071E+03 -0.61881114885E+03  0.13106797366E+04  0.80954066661E+02 0.  0.
     200001    1    1    2    0    0  0.13514404152E+04  0.75623063949E+03 -0.26228786303E+03  0.16860723291E+04  0.61300000000E+03 0.  1.
         11    1    4    4    0    0 -0.25802859913E+03 -0.14751948942E+03 -0.19638668449E+03  0.35624217545E+03  0.51100000000E-03 0.  1.
    -200002    1    4    4    0    0 -0.74331350013E+03 -0.42319460129E+03 -0.42242446437E+03  0.95443756115E+03  0.30000000000E+02 0.  1.
    -200000    1    3    3    0    0 -0.35009831592E+03 -0.18551654878E+03  0.12337836699E+03  0.42709301344E+03  0.10100000000E+03 0.  1.
<mgrwt>
<rscale>  0 0.33389481E+04</rscale>
<asrwt>0</asrwt>
<pdfrwt beam="1">  1        2 0.19043746E+00 0.33389481E+04</pdfrwt>
<pdfrwt beam="2">  1       -2 0.29868327E+00 0.33389481E+04</pdfrwt>
<totfact> 0.48909621E-01</totfact>
</mgrwt>
</event>
<event>
 8    2  0.7237260E-052  0.1684797E+04  0.7818608E-02  0.8770083E-01
         -2   -1    0    0    0  501 -0.00000000000E+00  0.00000000000E+00  0.49517203938E+03  0.49517203939E+03  0.25500000000E-02 0. -1.
          2   -1    0    0  501    0  0.00000000000E+00 -0.00000000000E+00 -0.14331092313E+04  0.14331092314E+04  0.25500000000E-02 0.  1.
    -200001    2    1    2    0    0 -0.11038727623E+03 -0.22311059321E+02 -0.11175239421E+04  0.12796646390E+04  0.61318732308E+03 0.  0.
   -5000001    2    3    3    0    0 -0.99167004462E+02 -0.14238063755E+03 -0.41521907203E+02  0.19222545584E+03  0.71555687229E+02 0.  0.
     200001    1    1    2    0    0  0.11038727623E+03  0.22311059321E+02  0.17958675009E+03  0.64861663171E+03  0.61300000000E+03 0. -1.
         11    1    4    4    0    0 -0.62380760727E+02 -0.49604183934E+02  0.90844439876E+00  0.79704200919E+02  0.51100000000E-03 0.  1.
    -200002    1    4    4    0    0 -0.36786243735E+02 -0.92776453613E+02 -0.42430351602E+02  0.11252125493E+03  0.30000000000E+02 0. -1.
    -200000    1    3    3    0    0 -0.11220271772E+02  0.12006957823E+03 -0.10760020349E+04  0.10874391832E+04  0.10100000000E+03 0.  1.
<mgrwt>
<rscale>  0 0.16847975E+04</rscale>
<asrwt>0</asrwt>
<pdfrwt beam="1">  1        2 0.20472989E+00 0.16847975E+04</pdfrwt>
<pdfrwt beam="2">  1       -2 0.70738863E-01 0.16847975E+04</pdfrwt>
<totfact> 0.27547610E+01</totfact>
</mgrwt>
</event>
<event>
 8    2  0.7237260E-052  0.1392871E+04  0.7818608E-02  0.8958995E-01
         -2   -1    0    0    0  501 -0.00000000000E+00  0.00000000000E+00  0.23612189660E+03  0.23612189661E+03  0.25500000000E-02 0. -1.
          2   -1    0    0  501    0  0.00000000000E+00 -0.00000000000E+00 -0.20541177759E+04  0.20541177759E+04  0.25500000000E-02 0.  1.
    -200001    2    1    2    0    0 -0.15655798161E+02  0.13277603443E+03 -0.14059736124E+04  0.15396359637E+04  0.61305996652E+03 0.  0.
   -5000001    2    3    3    0    0 -0.12749346994E+03  0.21471314732E+03 -0.23217763127E+03  0.35337319320E+03  0.92789227298E+02 0.  0.
     200001    1    1    2    0    0  0.15655798161E+02 -0.13277603443E+03 -0.41202226697E+03  0.75060370890E+03  0.61300000000E+03 0. -1.
         11    1    4    4    0    0 -0.29651251200E+02  0.10212101958E+03 -0.54631586040E+02  0.11955128411E+03  0.51100000000E-03 0.  1.
    -200002    1    4    4    0    0 -0.97842218737E+02  0.11259212774E+03 -0.17754604523E+03  0.23382190910E+03  0.30000000000E+02 0.  1.
    -200000    1    3    3    0    0  0.11183767178E+03 -0.81937112891E+02 -0.11737959811E+04  0.11862627704E+04  0.10100000000E+03 0.  1.
<mgrwt>
<rscale>  0 0.13928707E+04</rscale>
<asrwt>0</asrwt>
<pdfrwt beam="1">  1        2 0.29344539E+00 0.13928707E+04</pdfrwt>
<pdfrwt beam="2">  1       -2 0.33731701E-01 0.13928707E+04</pdfrwt>
<totfact> 0.60294170E+01</totfact>
</mgrwt>
</event>
<event>
 8    2  0.7237260E-052  0.1536898E+04  0.7818608E-02  0.8860280E-01
         -2   -1    0    0    0  501 -0.00000000000E+00  0.00000000000E+00  0.85233261359E+03  0.85233261359E+03  0.25500000000E-02 0. -1.
          2   -1    0    0  501    0  0.00000000000E+00 -0.00000000000E+00 -0.69282086574E+03  0.69282086575E+03  0.25500000000E-02 0.  1.
    -200001    2    1    2    0    0  0.43937947370E+03  0.14229796774E+03  0.11562124647E+03  0.77638926995E+03  0.61327725568E+03 0.  0.
   -5000001    2    3    3    0    0  0.24845025260E+03 -0.82190733386E+02 -0.19553539343E+03  0.33608414965E+03  0.78965947694E+02 0.  0.
     200001    1    1    2    0    0 -0.43937947370E+03 -0.14229796774E+03  0.43890501376E+02  0.76876420939E+03  0.61300000000E+03 0.  1.
         11    1    4    4    0    0  0.12617846146E+03 -0.68564450170E+02 -0.12899323269E+03  0.19303197156E+03  0.51100000000E-03 0.  1.
    -200002    1    4    4    0    0  0.12227179114E+03 -0.13626283215E+02 -0.66542160741E+02  0.14305217810E+03  0.30000000000E+02 0.  1.
    -200000    1    3    3    0    0  0.19092922110E+03  0.22448870113E+03  0.31115663990E+03  0.44030512030E+03  0.10100000000E+03 0. -1.
<mgrwt>
<rscale>  0 0.15368979E+04</rscale>
<asrwt>0</asrwt>
<pdfrwt beam="1">  1        2 0.98974409E-01 0.15368979E+04</pdfrwt>
<pdfrwt beam="2">  1       -2 0.12176180E+00 0.15368979E+04</pdfrwt>
<totfact> 0.22536819E+01</totfact>
</mgrwt>
</event>
<event>
 8    2  0.7237260E-052  0.1514821E+04  0.7818608E-02  0.8874657E-01
          2   -1    0    0  501    0  0.00000000000E+00  0.00000000000E+00  0.28532578710E+04  0.28532578710E+04  0.25500000000E-02 0.  1.
         -2   -1    0    0    0  501 -0.00000000000E+00 -0.00000000000E+00 -0.20105812334E+03  0.20105812336E+03  0.25500000000E-02 0. -1.
    -200001    2    1    2    0    0 -0.40185476961E+03 -0.19730136567E+03  0.13947274758E+04  0.15854999408E+04  0.60673737787E+03 0.  0.
   -5000001    2    3    3    0    0 -0.27373460018E+03 -0.20029269901E+03  0.13799631408E+04  0.14216624863E+04  0.42168215696E+02 0.  0.
     200001    1    1    2    0    0  0.40185476961E+03  0.19730136567E+03  0.12574722718E+04  0.14688160536E+04  0.61300000000E+03 0.  1.
         11    1    4    4    0    0 -0.75933818061E+02 -0.44258852749E+02  0.33461601333E+03  0.34596628037E+03  0.51100000000E-03 0.  1.
    -200002    1    4    4    0    0 -0.19780078212E+03 -0.15603384626E+03  0.10453471275E+04  0.10756962060E+04  0.30000000000E+02 0. -1.
    -200000    1    3    3    0    0 -0.12812016943E+03  0.29913333468E+01  0.14764334977E+02  0.16383745444E+03  0.10100000000E+03 0. -1.
<mgrwt>
<rscale>  0 0.15148210E+04</rscale>
<asrwt>0</asrwt>
<pdfrwt beam="1">  1        2 0.40760826E+00 0.15148210E+04</pdfrwt>
<pdfrwt beam="2">  1       -2 0.28722590E-01 0.15148210E+04</pdfrwt>
<totfact> 0.30692277E+01</totfact>
</mgrwt>
</event>
<event>
 8    2  0.7237260E-052  0.1806451E+04  0.7818608E-02  0.8702876E-01
          2   -1    0    0  501    0  0.00000000000E+00  0.00000000000E+00  0.19149733327E+04  0.19149733327E+04  0.25500000000E-02 0.  1.
         -2   -1    0    0    0  501 -0.00000000000E+00 -0.00000000000E+00 -0.42601967363E+03  0.42601967363E+03  0.25500000000E-02 0. -1.
    -200001    2    1    2    0    0  0.12205696491E+02 -0.39333497521E+03  0.51976133424E+02  0.72992665420E+03  0.61256021771E+03 0.  0.
   -5000001    2    3    3    0    0  0.23600694506E+03 -0.37553522417E+03 -0.69492108232E+02  0.45541005411E+03  0.76440706223E+02 0.  0.
     200001    1    1    2    0    0 -0.12205696491E+02  0.39333497521E+03  0.14369775256E+04  0.16110663521E+04  0.61300000000E+03 0.  1.
         11    1    4    4    0    0  0.13650211839E+03 -0.18652253253E+03 -0.86701453614E+01  0.23129776239E+03  0.51100000000E-03 0.  1.
    -200002    1    4    4    0    0  0.99504826670E+02 -0.18901269164E+03 -0.60821962870E+02  0.22411229172E+03  0.30000000000E+02 0.  1.
    -200000    1    3    3    0    0 -0.22380124856E+03 -0.17799751039E+02  0.12146824166E+03  0.27451660009E+03  0.10100000000E+03 0. -1.
<mgrwt>
<rscale>  0 0.18064510E+04</rscale>
<asrwt>0</asrwt>
<pdfrwt beam="1">  1        2 0.27356762E+00 0.18064510E+04</pdfrwt>
<pdfrwt beam="2">  1       -2 0.60859954E-01 0.18064510E+04</pdfrwt>
<totfact> 0.21104837E+01</totfact>
</mgrwt>
</event>
<event>
 8    2  0.7237260E-052  0.1360253E+04  0.7818608E-02  0.8983103E-01
          2   -1    0    0  501    0  0.00000000000E+00  0.00000000000E+00  0.11525008631E+04  0.11525008631E+04  0.25500000000E-02 0.  1.
         -2   -1    0    0    0  501 -0.00000000000E+00 -0.00000000000E+00 -0.40136383317E+03  0.40136383318E+03  0.25500000000E-02 0. -1.
    -200001    2    1    2    0    0  0.13812555141E+03  0.54393862595E+02  0.66618447255E+03  0.91745028947E+03  0.61308720581E+03 0.  0.
   -5000001    2    3    3    0    0  0.31171729329E+03  0.10578247499E+03  0.17722269330E+03  0.38635754437E+03  0.97502133903E+02 0.  0.
     200001    1    1    2    0    0 -0.13812555141E+03 -0.54393862595E+02  0.84952557419E+02  0.63641440685E+03  0.61300000000E+03 0. -1.
         11    1    4    4    0    0  0.60864634958E+02 -0.14469603435E+02  0.21555913256E+02  0.66170466288E+02  0.51100000000E-03 0.  1.
    -200002    1    4    4    0    0  0.25085265833E+03  0.12025207843E+03  0.15566678005E+03  0.32018707808E+03  0.30000000000E+02 0.  1.
    -200000    1    3    3    0    0 -0.17359174188E+03 -0.51388612397E+02  0.48896177925E+03  0.53109274510E+03  0.10100000000E+03 0.  1.
<mgrwt>
<rscale>  0 0.13602532E+04</rscale>
<asrwt>0</asrwt>
<pdfrwt beam="1">  1        2 0.16464298E+00 0.13602532E+04</pdfrwt>
<pdfrwt beam="2">  1       -2 0.57337689E-01 0.13602532E+04</pdfrwt>
<totfact> 0.63374117E+01</totfact>
</mgrwt>
</event>
<event>
 8    2  0.7237260E-052  0.1656226E+04  0.7818608E-02  0.8786732E-01
          2   -1    0    0  501    0  0.00000000000E+00  0.00000000000E+00  0.54875464024E+03  0.54875464025E+03  0.25500000000E-02 0.  1.
         -2   -1    0    0    0  501 -0.00000000000E+00 -0.00000000000E+00 -0.12496862731E+04  0.12496862731E+04  0.25500000000E-02 0. -1.
    -200001    2    1    2    0    0 -0.20483625264E+03  0.38895247212E+03 -0.72212937310E+03  0.10438150059E+04  0.61223934795E+03 0.  0.
   -5000001    2    3    3    0    0 -0.29453807359E+03  0.31901418978E+03 -0.17193544269E+03  0.47298040549E+03  0.75006249398E+02 0.  0.
     200001    1    1    2    0    0  0.20483625264E+03 -0.38895247212E+03  0.21197740226E+02  0.75462590742E+03  0.61300000000E+03 0.  1.
         11    1    4    4    0    0 -0.21756069696E+03  0.22126580129E+03 -0.14346033445E+03  0.34186558652E+03  0.51100000000E-03 0.  1.
    -200002    1    4    4    0    0 -0.76977376624E+02  0.97748388488E+02 -0.28475108236E+02  0.13111481897E+03  0.30000000000E+02 0.  1.
    -200000    1    3    3    0    0  0.89701820950E+02  0.69938282347E+02 -0.55019393041E+03  0.57083460046E+03  0.10100000000E+03 0. -1.
<mgrwt>
<rscale>  0 0.16562260E+04</rscale>
<asrwt>0</asrwt>
<pdfrwt beam="1">  1        2 0.78393521E-01 0.16562260E+04</pdfrwt>
<pdfrwt beam="2">  1       -2 0.17852661E+00 0.16562260E+04</pdfrwt>
<totfact> 0.10701770E+01</totfact>
</mgrwt>
</event>
<event>
 8    2  0.7237260E-052  0.1512470E+04  0.7818608E-02  0.8876203E-01
         -2   -1    0    0    0  501 -0.00000000000E+00  0.00000000000E+00  0.62200644759E+03  0.62200644759E+03  0.25500000000E-02 0. -1.
          2   -1    0    0  501    0  0.00000000000E+00 -0.00000000000E+00 -0.91942979130E+03  0.91942979131E+03  0.25500000000E-02 0.  1.
    -200001    2    1    2    0    0 -0.19082838906E+02  0.18364251461E+03  0.26539255813E+03  0.68901646714E+03  0.60845850653E+03 0.  0.
   -5000001    2    3    3    0    0  0.20238990435E+03 -0.11803890712E+03  0.79888071697E+02  0.25927844147E+03  0.77125542044E+02 0.  0.
     200001    1    1    2    0    0  0.19082838906E+02 -0.18364251461E+03 -0.56281590185E+03  0.85241977176E+03  0.61300000000E+03 0.  1.
         11    1    4    4    0    0  0.64650081767E+02 -0.34056821957E+02 -0.73498600247E+01  0.73440592569E+02  0.51100000000E-03 0.  1.
    -200002    1    4    4    0    0  0.13773982258E+03 -0.83982085167E+02  0.87237931721E+02  0.18583784890E+03  0.30000000000E+02 0.  1.
    -200000    1    3    3    0    0 -0.22147274325E+03  0.30168142173E+03  0.18550448644E+03  0.42973802567E+03  0.10100000000E+03 0. -1.
<mgrwt>
<rscale>  0 0.15124698E+04</rscale>
<asrwt>0</asrwt>
<pdfrwt beam="1">  1        2 0.13134711E+00 0.15124698E+04</pdfrwt>
<pdfrwt beam="2">  1       -2 0.88858064E-01 0.15124698E+04</pdfrwt>
<totfact> 0.33256525E+01</totfact>
</mgrwt>
</event>
<event>
 8    2  0.7237260E-052  0.1296148E+04  0.7818608E-02  0.9032626E-01
         -2   -1    0    0    0  501 -0.00000000000E+00  0.00000000000E+00  0.24517411543E+03  0.24517411544E+03  0.25500000000E-02 0. -1.
          2   -1    0    0  501    0  0.00000000000E+00 -0.00000000000E+00 -0.17130669172E+04  0.17130669172E+04  0.25500000000E-02 0.  1.
    -200001    2    1    2    0    0  0.19259232109E+03  0.80430036356E+02 -0.69840798859E+03  0.95253895418E+03  0.61318508447E+03 0.  0.
   -5000001    2    3    3    0    0  0.31149387973E+03 -0.94868862125E+02 -0.62080853466E+03  0.70537512247E+03  0.78245054679E+02 0.  0.
     200001    1    1    2    0    0 -0.19259232109E+03 -0.80430036356E+02 -0.76948481315E+03  0.10057020784E+04  0.61300000000E+03 0.  1.
         11    1    4    4    0    0  0.21371699342E+03 -0.78251990408E+02 -0.47248983548E+03  0.52444730136E+03  0.51100000000E-03 0.  1.
    -200002    1    4    4    0    0  0.97776886313E+02 -0.16616871717E+02 -0.14831869918E+03  0.18092782110E+03  0.30000000000E+02 0.  1.
    -200000    1    3    3    0    0 -0.11890155865E+03  0.17529889848E+03 -0.77599453936E+02  0.24716383172E+03  0.10100000000E+03 0. -1.
<mgrwt>
<rscale>  0 0.12961476E+04</rscale>
<asrwt>0</asrwt>
<pdfrwt beam="1">  1        2 0.24472384E+00 0.12961476E+04</pdfrwt>
<pdfrwt beam="2">  1       -2 0.35024875E-01 0.12961476E+04</pdfrwt>
<totfact> 0.84694053E+01</totfact>
</mgrwt>
</event>
<event>
 8    2  0.7237260E-052  0.1501846E+04  0.7818608E-02  0.8883227E-01
         -2   -1    0    0    0  501 -0.00000000000E+00  0.00000000000E+00  0.23825651269E+03  0.23825651271E+03  0.25500000000E-02 0. -1.
          2   -1    0    0  501    0  0.00000000000E+00 -0.00000000000E+00 -0.23667141189E+04  0.23667141189E+04  0.25500000000E-02 0.  1.
    -200001    2    1    2    0    0  0.24946033438E+03 -0.27009042058E+02 -0.44991913696E+03  0.80047060680E+03  0.61267121344E+03 0.  0.
   -5000001    2    3    3    0    0  0.27313937662E+03  0.14641484465E+03 -0.11173226188E+02  0.31742245626E+03  0.67747686056E+02 0.  0.
     200001    1    1    2    0    0 -0.24946033438E+03  0.27009042058E+02 -0.16785384692E+04  0.18045000248E+04  0.61300000000E+03 0.  1.
         11    1    4    4    0    0  0.92494453433E+02  0.22023418832E+02  0.67891803347E+01  0.95322336642E+02  0.51100000000E-03 0.  1.
    -200002    1    4    4    0    0  0.18064492318E+03  0.12439142582E+03 -0.17962406523E+02  0.22210011962E+03  0.30000000000E+02 0.  1.
    -200000    1    3    3    0    0 -0.23679042238E+02 -0.17342388671E+03 -0.43874591077E+03  0.48304815054E+03  0.10100000000E+03 0.  1.
<mgrwt>
<rscale>  0 0.15018456E+04</rscale>
<asrwt>0</asrwt>
<pdfrwt beam="1">  1        2 0.33810200E+00 0.15018456E+04</pdfrwt>
<pdfrwt beam="2">  1       -2 0.34036646E-01 0.15018456E+04</pdfrwt>
<totfact> 0.40530529E+01</totfact>
</mgrwt>
</event>
<event>
 8    2  0.7237260E-052  0.1934904E+04  0.7818608E-02  0.8637675E-01
          2   -1    0    0  501    0  0.00000000000E+00  0.00000000000E+00  0.61805099076E+03  0.61805099077E+03  0.25500000000E-02 0.  1.
         -2   -1    0    0    0  501 -0.00000000000E+00 -0.00000000000E+00 -0.15143782906E+04  0.15143782906E+04  0.25500000000E-02 0. -1.
    -200001    2    1    2    0    0  0.54684612148E+03 -0.59490476879E+02 -0.10076999650E+04  0.13013139657E+04  0.61268182653E+03 0.  0.
   -5000001    2    3    3    0    0  0.14888148649E+02 -0.31524939929E+02  0.58130549071E+02  0.10550585370E+03  0.80850761413E+02 0.  0.
     200001    1    1    2    0    0 -0.54684612148E+03  0.59490476879E+02  0.11137266511E+03  0.83111531567E+03  0.61300000000E+03 0.  1.
         11    1    4    4    0    0 -0.75784444965E+01 -0.11221890534E+02 -0.15404212804E+02  0.20509837164E+02  0.51100000000E-03 0.  1.
    -200002    1    4    4    0    0  0.22466593146E+02 -0.20303049395E+02  0.73534761874E+02  0.84996016532E+02  0.30000000000E+02 0.  1.
    -200000    1    3    3    0    0  0.53195797283E+03 -0.27965536950E+02 -0.10658305141E+04  0.11958081120E+04  0.10100000000E+03 0. -1.
<mgrwt>
<rscale>  0 0.19349036E+04</rscale>
<asrwt>0</asrwt>
<pdfrwt beam="1">  1        2 0.88292999E-01 0.19349036E+04</pdfrwt>
<pdfrwt beam="2">  1       -2 0.21633976E+00 0.19349036E+04</pdfrwt>
<totfact> 0.51145015E+00</totfact>
</mgrwt>
</event>
<event>
 8    2  0.7237260E-052  0.1445078E+04  0.7818608E-02  0.8921820E-01
          2   -1    0    0  501    0  0.00000000000E+00  0.00000000000E+00  0.32288554723E+04  0.32288554723E+04  0.25500000000E-02 0.  1.
         -2   -1    0    0    0  501 -0.00000000000E+00 -0.00000000000E+00 -0.16168652281E+03  0.16168652283E+03  0.25500000000E-02 0. -1.
    -200001    2    1    2    0    0 -0.68020059726E+02  0.14568962932E+02  0.24171517886E+04  0.24943666258E+04  0.61188488402E+03 0.  0.
   -5000001    2    3    3    0    0  0.17961110265E+03 -0.14207744999E+03  0.50148769682E+03  0.55379217373E+03  0.52437692903E+02 0.  0.
     200001    1    1    2    0    0  0.68020059726E+02 -0.14568962932E+02  0.65001716083E+03  0.89617536932E+03  0.61300000000E+03 0. -1.
         11    1    4    4    0    0  0.37860205040E+02 -0.20707849692E+02  0.13019404385E+03  0.13715939348E+03  0.51100000000E-03 0.  1.
    -200002    1    4    4    0    0  0.14175089761E+03 -0.12136960030E+03  0.37129365297E+03  0.41663278025E+03  0.30000000000E+02 0.  1.
    -200000    1    3    3    0    0 -0.24763116237E+03  0.15664641292E+03  0.19156640918E+04  0.19405744520E+04  0.10100000000E+03 0.  1.
<mgrwt>
<rscale>  0 0.14450777E+04</rscale>
<asrwt>0</asrwt>
<pdfrwt beam="1">  1        2 0.46126504E+00 0.14450777E+04</pdfrwt>
<pdfrwt beam="2">  1       -2 0.23098076E-01 0.14450777E+04</pdfrwt>
<totfact> 0.28289257E+01</totfact>
</mgrwt>
</event>
<event>
 8    2  0.7237260E-052  0.1873383E+04  0.7818608E-02  0.8668220E-01
         -2   -1    0    0    0  501 -0.00000000000E+00  0.00000000000E+00  0.57004406233E+03  0.57004406234E+03  0.25500000000E-02 0.  1.
          2   -1    0    0  501    0  0.00000000000E+00 -0.00000000000E+00 -0.15391636011E+04  0.15391636011E+04  0.25500000000E-02 0. -1.
    -200001    2    1    2    0    0  0.14558826948E+02 -0.10303371164E+03 -0.12744764883E+04  0.14165029848E+04  0.60939517684E+03 0.  0.
   -5000001    2    3    3    0    0  0.17932964892E+03  0.17397919964E+03 -0.72406529776E+03  0.77071737373E+03  0.85479996893E+02 0.  0.
     200001    1    1    2    0    0 -0.14558826948E+02  0.10303371164E+03  0.30535694953E+03  0.69270467864E+03  0.61300000000E+03 0.  1.
         11    1    4    4    0    0  0.56124139904E+02  0.95444044271E+02 -0.24249124513E+03  0.26657360828E+03  0.51100000000E-03 0.  1.
    -200002    1    4    4    0    0  0.12320550902E+03  0.78535155367E+02 -0.48157405263E+03  0.50414376545E+03  0.30000000000E+02 0.  1.
    -200000    1    3    3    0    0 -0.16477082198E+03 -0.27701291128E+03 -0.55041119055E+03  0.64578561107E+03  0.10100000000E+03 0.  1.
<mgrwt>
<rscale>  0 0.18733831E+04</rscale>
<asrwt>0</asrwt>
<pdfrwt beam="1">  1        2 0.21988051E+00 0.18733831E+04</pdfrwt>
<pdfrwt beam="2">  1       -2 0.81434867E-01 0.18733831E+04</pdfrwt>
<totfact> 0.17426818E+01</totfact>
</mgrwt>
</event>
<event>
 8    2  0.7237260E-052  0.1309034E+04  0.7818608E-02  0.9022432E-01
         -2   -1    0    0    0  501 -0.00000000000E+00  0.00000000000E+00  0.11571066446E+04  0.11571066446E+04  0.25500000000E-02 0. -1.
          2   -1    0    0  501    0  0.00000000000E+00 -0.00000000000E+00 -0.37022738839E+03  0.37022738839E+03  0.25500000000E-02 0.  1.
    -200001    2    1    2    0    0 -0.22830131858E+03  0.19864832576E+02  0.40493660486E+03  0.76959707825E+03  0.61301705136E+03 0.  0.
   -5000001    2    3    3    0    0 -0.31637287349E+02  0.16654322841E+03  0.19650508165E+03  0.43220117897E+03  0.34560967450E+03 0.  0.
     200001    1    1    2    0    0  0.22830131858E+03 -0.19864832576E+02  0.38194265133E+03  0.75773695472E+03  0.61300000000E+03 0.  1.
         11    1    4    4    0    0 -0.70033416317E+02  0.16716866069E+03  0.28116382526E+03  0.33451926276E+03  0.51100000000E-03 0.  1.
    -200002    1    4    4    0    0  0.38396128968E+02 -0.62543227780E+00 -0.84658743614E+02  0.97681916216E+02  0.30000000000E+02 0.  1.
    -200000    1    3    3    0    0 -0.19666403123E+03 -0.14667839583E+03  0.20843152321E+03  0.33739589928E+03  0.10100000000E+03 0. -1.
<mgrwt>
<rscale>  0 0.13090341E+04</rscale>
<asrwt>0</asrwt>
<pdfrwt beam="1">  1        2 0.52889626E-01 0.13090341E+04</pdfrwt>
<pdfrwt beam="2">  1       -2 0.16530095E+00 0.13090341E+04</pdfrwt>
<totfact> 0.21288360E+01</totfact>
</mgrwt>
</event>
<event>
 8    2  0.7237260E-052  0.1338057E+04  0.7818608E-02  0.8999918E-01
          2   -1    0    0  501    0  0.00000000000E+00  0.00000000000E+00  0.21184478391E+04  0.21184478391E+04  0.25500000000E-02 0.  1.
         -2   -1    0    0    0  501 -0.00000000000E+00 -0.00000000000E+00 -0.21128639269E+03  0.21128639270E+03  0.25500000000E-02 0. -1.
    -200001    2    1    2    0    0 -0.15930489748E+03  0.17812379828E+03  0.11640415806E+04  0.13372110468E+04  0.61321647429E+03 0.  0.
   -5000001    2    3    3    0    0  0.63496105888E+02  0.86154860292E+02  0.97337271939E+03  0.10137080525E+04  0.26209759529E+03 0.  0.
     200001    1    1    2    0    0  0.15930489748E+03 -0.17812379828E+03  0.74311986579E+03  0.99252318502E+03  0.61300000000E+03 0. -1.
         11    1    4    4    0    0  0.10839746642E+03 -0.33161468389E+02  0.71611884667E+03  0.72503510003E+03  0.51100000000E-03 0.  1.
    -200002    1    4    4    0    0 -0.44901360530E+02  0.11931632868E+03  0.25725387271E+03  0.28867295248E+03  0.30000000000E+02 0.  1.
    -200000    1    3    3    0    0 -0.22280100337E+03  0.91968937985E+02  0.19066886123E+03  0.32350299427E+03  0.10100000000E+03 0. -1.
<mgrwt>
<rscale>  0 0.13380571E+04</rscale>
<asrwt>0</asrwt>
<pdfrwt beam="1">  1        2 0.30263542E+00 0.13380571E+04</pdfrwt>
<pdfrwt beam="2">  1       -2 0.30183769E-01 0.13380571E+04</pdfrwt>
<totfact> 0.69160697E+01</totfact>
</mgrwt>
</event>
<event>
 8    2  0.7237260E-052  0.1320652E+04  0.7818608E-02  0.9013347E-01
          2   -1    0    0  501    0  0.00000000000E+00  0.00000000000E+00  0.12205887623E+04  0.12205887623E+04  0.25500000000E-02 0.  1.
         -2   -1    0    0    0  501 -0.00000000000E+00 -0.00000000000E+00 -0.35722948390E+03  0.35722948391E+03  0.25500000000E-02 0. -1.
    -200001    2    1    2    0    0 -0.70583996804E+02  0.12635620238E+03  0.66824620073E+03  0.91843512271E+03  0.61320640845E+03 0.  0.
   -5000001    2    3    3    0    0 -0.30754336339E+03  0.61899392104E+02  0.51894968745E+03  0.61381261750E+03  0.95093092199E+02 0.  0.
     200001    1    1    2    0    0  0.70583996804E+02 -0.12635620238E+03  0.19511307767E+03  0.65938312350E+03  0.61300000000E+03 0.  1.
         11    1    4    4    0    0 -0.84868817324E+02 -0.12762084609E+02  0.93485370557E+02  0.12690587640E+03  0.51100000000E-03 0.  1.
    -200002    1    4    4    0    0 -0.22267454607E+03  0.74661476713E+02  0.42546431690E+03  0.48690674110E+03  0.30000000000E+02 0.  1.
    -200000    1    3    3    0    0  0.23695936659E+03  0.64456810272E+02  0.14929651327E+03  0.30462250521E+03  0.10100000000E+03 0. -1.
<mgrwt>
<rscale>  0 0.13206518E+04</rscale>
<asrwt>0</asrwt>
<pdfrwt beam="1">  1        2 0.17436983E+00 0.13206518E+04</pdfrwt>
<pdfrwt beam="2">  1       -2 0.51032783E-01 0.13206518E+04</pdfrwt>
<totfact> 0.73928522E+01</totfact>
</mgrwt>
</event>
<event>
 8    2  0.7237260E-052  0.1313650E+04  0.7818608E-02  0.9018810E-01
          2   -1    0    0  501    0  0.00000000000E+00  0.00000000000E+00  0.32926126023E+04  0.32926126023E+04  0.25500000000E-02 0.  1.
         -2   -1    0    0    0  501 -0.00000000000E+00 -0.00000000000E+00 -0.13102631264E+03  0.13102631266E+03  0.25500000000E-02 0. -1.
    -200001    2    1    2    0    0  0.94432728819E+02  0.79297138207E+02  0.10556553232E+04  0.12268412884E+04  0.61280160672E+03 0.  0.
   -5000001    2    3    3    0    0  0.34864155952E+02  0.21664675950E+03  0.97071999811E+02  0.25139455938E+03  0.74999490444E+02 0.  0.
     200001    1    1    2    0    0 -0.94432728819E+02 -0.79297138207E+02  0.21059309665E+04  0.21967976265E+04  0.61300000000E+03 0.  1.
         11    1    4    4    0    0  0.33678491940E+02  0.15141505997E+03  0.89760053615E+02  0.17921391807E+03  0.51100000000E-03 0.  1.
    -200002    1    4    4    0    0  0.11856640120E+01  0.65231699533E+02  0.73119461957E+01  0.72180641313E+02  0.30000000000E+02 0.  1.
    -200000    1    3    3    0    0  0.59568572867E+02 -0.13734962129E+03  0.95858332338E+03  0.97544672905E+03  0.10100000000E+03 0.  1.
<mgrwt>
<rscale>  0 0.13136497E+04</rscale>
<asrwt>0</asrwt>
<pdfrwt beam="1">  1        2 0.47037321E+00 0.13136497E+04</pdfrwt>
<pdfrwt beam="2">  1       -2 0.18718046E-01 0.13136497E+04</pdfrwt>
<totfact> 0.38148218E+01</totfact>
</mgrwt>
</event>
<event>
 8    2  0.7237260E-052  0.1851361E+04  0.7818608E-02  0.8679453E-01
         -2   -1    0    0    0  501 -0.00000000000E+00  0.00000000000E+00  0.98710358197E+03  0.98710358197E+03  0.25500000000E-02 0. -1.
          2   -1    0    0  501    0  0.00000000000E+00 -0.00000000000E+00 -0.86807919229E+03  0.86807919229E+03  0.25500000000E-02 0.  1.
    -200001    2    1    2    0    0  0.61537954110E+03  0.20341300937E+03  0.30740533598E+03  0.94341240135E+03  0.61274797956E+03 0.  0.
   -5000001    2    3    3    0    0 -0.56604008544E+02  0.75026748554E+02  0.21149543766E+03  0.24524005046E+03  0.81113102614E+02 0.  0.
     200001    1    1    2    0    0 -0.61537954110E+03 -0.20341300937E+03 -0.18838094630E+03  0.91177037291E+03  0.61300000000E+03 0.  1.
         11    1    4    4    0    0  0.95626614281E+01  0.21476181092E+02  0.12256190742E+02  0.26511979550E+02  0.51100000000E-03 0.  1.
    -200002    1    4    4    0    0 -0.66166669972E+02  0.53550567463E+02  0.19923924692E+03  0.21872807091E+03  0.30000000000E+02 0.  1.
    -200000    1    3    3    0    0  0.67198354964E+03  0.12838626081E+03  0.95909898324E+02  0.69817235090E+03  0.10100000000E+03 0. -1.
<mgrwt>
<rscale>  0 0.18513607E+04</rscale>
<asrwt>0</asrwt>
<pdfrwt beam="1">  1        2 0.12401131E+00 0.18513607E+04</pdfrwt>
<pdfrwt beam="2">  1       -2 0.14101480E+00 0.18513607E+04</pdfrwt>
<totfact> 0.11348670E+01</totfact>
</mgrwt>
</event>
<event>
 8    2  0.7237260E-052  0.1795368E+04  0.7818608E-02  0.8708767E-01
          2   -1    0    0  501    0  0.00000000000E+00  0.00000000000E+00  0.90348204327E+03  0.90348204328E+03  0.25500000000E-02 0.  1.
         -2   -1    0    0    0  501 -0.00000000000E+00 -0.00000000000E+00 -0.89192297404E+03  0.89192297404E+03  0.25500000000E-02 0. -1.
    -200001    2    1    2    0    0 -0.20646263238E+03 -0.15409934980E+03  0.60840122063E+03  0.90189341590E+03  0.61391062884E+03 0.  0.
   -5000001    2    3    3    0    0 -0.31585160896E+03 -0.23470108718E+03  0.60971577372E+03  0.73258506905E+03  0.10040278611E+03 0.  0.
     200001    1    1    2    0    0  0.20646263238E+03  0.15409934980E+03 -0.59684215140E+03  0.89351160142E+03  0.61300000000E+03 0. -1.
         11    1    4    4    0    0 -0.18809992783E+02 -0.34517093754E+02  0.26202787185E+02  0.47242265465E+02  0.51100000000E-03 0.  1.
    -200002    1    4    4    0    0 -0.29704161618E+03 -0.20018399343E+03  0.58351298653E+03  0.68534280358E+03  0.30000000000E+02 0.  1.
    -200000    1    3    3    0    0  0.10938897658E+03  0.80601737377E+02 -0.13145530851E+01  0.16930834686E+03  0.10100000000E+03 0. -1.
<mgrwt>
<rscale>  0 0.17953678E+04</rscale>
<asrwt>0</asrwt>
<pdfrwt beam="1">  1        2 0.12906886E+00 0.17953678E+04</pdfrwt>
<pdfrwt beam="2">  1       -2 0.12741757E+00 0.17953678E+04</pdfrwt>
<totfact> 0.14001154E+01</totfact>
</mgrwt>
</event>
<event>
 8    2  0.7237260E-052  0.1430408E+04  0.7818608E-02  0.8932097E-01
          2   -1    0    0  501    0  0.00000000000E+00  0.00000000000E+00  0.34439001954E+03  0.34439001955E+03  0.25500000000E-02 0.  1.
         -2   -1    0    0    0  501 -0.00000000000E+00 -0.00000000000E+00 -0.14852841510E+04  0.14852841510E+04  0.25500000000E-02 0. -1.
    -200001    2    1    2    0    0 -0.47948528714E+02  0.35591752425E+03 -0.68040461479E+03  0.98303614847E+03  0.61190953898E+03 0.  0.
   -5000001    2    3    3    0    0  0.14715240927E+03  0.80775428991E+02 -0.57799690661E+03  0.61635387827E+03  0.13278997599E+03 0.  0.
     200001    1    1    2    0    0  0.47948528714E+02 -0.35591752425E+03 -0.46048951666E+03  0.84663802208E+03  0.61300000000E+03 0.  1.
         11    1    4    4    0    0  0.11332503491E+03 -0.43122123163E+01 -0.25047212300E+03  0.27494989200E+03  0.51100000000E-03 0.  1.
    -200002    1    4    4    0    0  0.33827374363E+02  0.85087641307E+02 -0.32752478361E+03  0.34140398626E+03  0.30000000000E+02 0.  1.
    -200000    1    3    3    0    0 -0.19510093798E+03  0.27514209526E+03 -0.10240770818E+03  0.36668227020E+03  0.10100000000E+03 0. -1.
<mgrwt>
<rscale>  0 0.14304084E+04</rscale>
<asrwt>0</asrwt>
<pdfrwt beam="1">  1        2 0.49198575E-01 0.14304084E+04</pdfrwt>
<pdfrwt beam="2">  1       -2 0.21218345E+00 0.14304084E+04</pdfrwt>
<totfact> 0.11021819E+01</totfact>
</mgrwt>
</event>
<event>
 8    2  0.7237260E-052  0.1300806E+04  0.7818608E-02  0.9028926E-01
          2   -1    0    0  501    0  0.00000000000E+00  0.00000000000E+00  0.32407698906E+04  0.32407698906E+04  0.25500000000E-02 0. -1.
         -2   -1    0    0    0  501 -0.00000000000E+00 -0.00000000000E+00 -0.13053194354E+03  0.13053194356E+03  0.25500000000E-02 0.  1.
    -200001    2    1    2    0    0 -0.19386199122E+02 -0.60688490726E+02  0.20926407675E+04  0.21816245933E+04  0.61341793790E+03 0.  0.
   -5000001    2    3    3    0    0 -0.27361624116E+03 -0.15747473550E+03  0.11659262100E+04  0.12105420208E+04  0.79774163967E+02 0.  0.
     200001    1    1    2    0    0  0.19386199122E+02  0.60688490726E+02  0.10175971795E+04  0.11896772409E+04  0.61300000000E+03 0.  1.
         11    1    4    4    0    0 -0.22531619398E+03 -0.12269527780E+03  0.98015015646E+03  0.10131711838E+04  0.51100000000E-03 0.  1.
    -200002    1    4    4    0    0 -0.48300047183E+02 -0.34779457707E+02  0.18577605357E+03  0.19737083705E+03  0.30000000000E+02 0. -1.
    -200000    1    3    3    0    0  0.25423004204E+03  0.96786244778E+02  0.92671455746E+03  0.97108257242E+03  0.10100000000E+03 0.  1.
<mgrwt>
<rscale>  0 0.13008059E+04</rscale>
<asrwt>0</asrwt>
<pdfrwt beam="1">  1        2 0.46296715E+00 0.13008059E+04</pdfrwt>
<pdfrwt beam="2">  1       -2 0.18647420E-01 0.13008059E+04</pdfrwt>
<totfact> 0.41200628E+01</totfact>
</mgrwt>
</event>
<event>
 8    2  0.7237260E-052  0.1724451E+04  0.7818608E-02  0.8747541E-01
          2   -1    0    0  501    0  0.00000000000E+00  0.00000000000E+00  0.23412045915E+04  0.23412045915E+04  0.25500000000E-02 0.  1.
         -2   -1    0    0    0  501 -0.00000000000E+00 -0.00000000000E+00 -0.31754287447E+03  0.31754287448E+03  0.25500000000E-02 0. -1.
    -200001    2    1    2    0    0 -0.90600904469E+00  0.59394751183E+03  0.82494327522E+03  0.11871940791E+04  0.61328941492E+03 0.  0.
   -5000001    2    3    3    0    0 -0.45757358239E+02  0.17106775790E+03  0.70680722590E+03  0.73442917768E+03  0.91933937239E+02 0.  0.
     200001    1    1    2    0    0  0.90600904469E+00 -0.59394751183E+03  0.11987184418E+04  0.14715533868E+04  0.61300000000E+03 0.  1.
         11    1    4    4    0    0 -0.57201701319E+01  0.11423832979E+03  0.30922118815E+03  0.32969813396E+03  0.51100000000E-03 0.  1.
    -200002    1    4    4    0    0 -0.40037188107E+02  0.56829428108E+02  0.39758603776E+03  0.40473104372E+03  0.30000000000E+02 0.  1.
    -200000    1    3    3    0    0  0.44851349194E+02  0.42287975393E+03  0.11813604932E+03  0.45276490142E+03  0.10100000000E+03 0. -1.
<mgrwt>
<rscale>  0 0.17244510E+04</rscale>
<asrwt>0</asrwt>
<pdfrwt beam="1">  1        2 0.33445781E+00 0.17244510E+04</pdfrwt>
<pdfrwt beam="2">  1       -2 0.45363266E-01 0.17244510E+04</pdfrwt>
<totfact> 0.23440101E+01</totfact>
</mgrwt>
</event>
<event>
 8    2  0.7237260E-052  0.1851143E+04  0.7818608E-02  0.8679565E-01
          2   -1    0    0  501    0  0.00000000000E+00  0.00000000000E+00  0.17189161847E+04  0.17189161847E+04  0.25500000000E-02 0.  1.
         -2   -1    0    0    0  501 -0.00000000000E+00 -0.00000000000E+00 -0.49838557514E+03  0.49838557515E+03  0.25500000000E-02 0. -1.
    -200001    2    1    2    0    0 -0.34872957920E+03 -0.59266339584E+03  0.49424632609E+03  0.10442203131E+04  0.61094550601E+03 0.  0.
   -5000001    2    3    3    0    0  0.16240358212E+02  0.10063100035E+03  0.11544667389E+03  0.16812080308E+03  0.67426422488E+02 0.  0.
     200001    1    1    2    0    0  0.34872957920E+03  0.59266339584E+03  0.72628428344E+03  0.11730814467E+04  0.61300000000E+03 0. -1.
         11    1    4    4    0    0  0.27859845992E+02  0.71438389499E+02  0.88065197307E+02  0.11676940306E+03  0.51100000000E-03 0.  1.
    -200002    1    4    4    0    0 -0.11619487780E+02  0.29192610850E+02  0.27381476583E+02  0.51351400024E+02  0.30000000000E+02 0.  1.
    -200000    1    3    3    0    0 -0.36496993741E+03 -0.69329439619E+03  0.37879965220E+03  0.87609951005E+03  0.10100000000E+03 0. -1.
<mgrwt>
<rscale>  0 0.18511435E+04</rscale>
<asrwt>0</asrwt>
<pdfrwt beam="1">  1        2 0.24555946E+00 0.18511435E+04</pdfrwt>
<pdfrwt beam="2">  1       -2 0.71197939E-01 0.18511435E+04</pdfrwt>
<totfact> 0.18942792E+01</totfact>
</mgrwt>
</event>
<event>
 8    2  0.7237260E-052  0.1290843E+04  0.7818608E-02  0.9036859E-01
         -2   -1    0    0    0  501 -0.00000000000E+00  0.00000000000E+00  0.42314002429E+03  0.42314002430E+03  0.25500000000E-02 0. -1.
          2   -1    0    0  501    0  0.00000000000E+00 -0.00000000000E+00 -0.98447037018E+03  0.98447037018E+03  0.25500000000E-02 0.  1.
    -200001    2    1    2    0    0 -0.44604311261E+02  0.18044519945E+03 -0.18935490395E+03  0.66687782196E+03  0.61181756691E+03 0.  0.
   -5000001    2    3    3    0    0  0.60607666655E+02 -0.18464646736E+03  0.38700794772E+02  0.21237602087E+03  0.76408216566E+02 0.  0.
     200001    1    1    2    0    0  0.44604311261E+02 -0.18044519945E+03 -0.37197544193E+03  0.74073257252E+03  0.61300000000E+03 0. -1.
         11    1    4    4    0    0  0.49731330271E+02 -0.13397233587E+03  0.35742257930E+01  0.14294952633E+03  0.51100000000E-03 0.  1.
    -200002    1    4    4    0    0  0.10876336383E+02 -0.50674131495E+02  0.35126568979E+02  0.69426494540E+02  0.30000000000E+02 0. -1.
    -200000    1    3    3    0    0 -0.10521197792E+03  0.36509166681E+03 -0.22805569873E+03  0.45450180109E+03  0.10100000000E+03 0. -1.
<mgrwt>
<rscale>  0 0.12908429E+04</rscale>
<asrwt>0</asrwt>
<pdfrwt beam="1">  1        2 0.14063862E+00 0.12908429E+04</pdfrwt>
<pdfrwt beam="2">  1       -2 0.60448575E-01 0.12908429E+04</pdfrwt>
<totfact> 0.71871691E+01</totfact>
</mgrwt>
</event>
<event>
 8    2  0.7237260E-052  0.1605078E+04  0.7818608E-02  0.8817434E-01
         -2   -1    0    0    0  501 -0.00000000000E+00  0.00000000000E+00  0.37854725092E+03  0.37854725093E+03  0.25500000000E-02 0. -1.
          2   -1    0    0  501    0  0.00000000000E+00 -0.00000000000E+00 -0.17014228431E+04  0.17014228431E+04  0.25500000000E-02 0.  1.
    -200001    2    1    2    0    0 -0.46651933799E+03 -0.38968349581E+02 -0.94920573805E+03  0.12229070947E+04  0.61265928870E+03 0.  0.
   -5000001    2    3    3    0    0 -0.32796701796E+03 -0.90836103221E+02 -0.98073561362E+03  0.10410221247E+04  0.77917634234E+02 0.  0.
     200001    1    1    2    0    0  0.46651933799E+03  0.38968349581E+02 -0.37366985410E+03  0.85706299935E+03  0.61300000000E+03 0. -1.
         11    1    4    4    0    0 -0.15387450565E+03 -0.70158040922E+02 -0.53569799783E+03  0.56175782956E+03  0.51100000000E-03 0.  1.
    -200002    1    4    4    0    0 -0.17409251231E+03 -0.20678062299E+02 -0.44503761579E+03  0.47926429511E+03  0.30000000000E+02 0. -1.
    -200000    1    3    3    0    0 -0.13855232003E+03  0.51867753640E+02  0.31529875565E+02  0.18188496999E+03  0.10100000000E+03 0. -1.
<mgrwt>
<rscale>  0 0.16050781E+04</rscale>
<asrwt>0</asrwt>
<pdfrwt beam="1">  1        2 0.24306040E+00 0.16050781E+04</pdfrwt>
<pdfrwt beam="2">  1       -2 0.54078179E-01 0.16050781E+04</pdfrwt>
<totfact> 0.35410324E+01</totfact>
</mgrwt>
</event>
<event>
 8    2  0.7237260E-052  0.1921095E+04  0.7818608E-02  0.8644427E-01
         -2   -1    0    0    0  501 -0.00000000000E+00  0.00000000000E+00  0.47852427918E+03  0.47852427919E+03  0.25500000000E-02 0. -1.
          2   -1    0    0  501    0  0.00000000000E+00 -0.00000000000E+00 -0.19281192653E+04  0.19281192653E+04  0.25500000000E-02 0.  1.
    -200001    2    1    2    0    0 -0.61350588709E+03 -0.20030224121E+03 -0.11770637312E+04  0.14757553953E+04  0.61307788920E+03 0.  0.
   -5000001    2    3    3    0    0  0.78731061254E+02  0.22425741039E+02 -0.31633065755E+02  0.11523631937E+03  0.74681085858E+02 0.  0.
     200001    1    1    2    0    0  0.61350588709E+03  0.20030224121E+03 -0.27253125491E+03  0.93088814915E+03  0.61300000000E+03 0. -1.
         11    1    4    4    0    0  0.56601324398E+02  0.11961510288E+02 -0.46027117698E+02  0.73927553834E+02  0.51100000000E-03 0.  1.
    -200002    1    4    4    0    0  0.22129736855E+02  0.10464230752E+02  0.14394051943E+02  0.41308765533E+02  0.30000000000E+02 0.  1.
    -200000    1    3    3    0    0 -0.69223694834E+03 -0.22272798225E+03 -0.11454306655E+04  0.13605190760E+04  0.10100000000E+03 0.  1.
<mgrwt>
<rscale>  0 0.19210954E+04</rscale>
<asrwt>0</asrwt>
<pdfrwt beam="1">  1        2 0.27544561E+00 0.19210954E+04</pdfrwt>
<pdfrwt beam="2">  1       -2 0.68360612E-01 0.19210954E+04</pdfrwt>
<totfact> 0.16046666E+01</totfact>
</mgrwt>
</event>
<event>
 8    2  0.7237260E-052  0.1317870E+04  0.7818608E-02  0.9015513E-01
         -2   -1    0    0    0  501 -0.00000000000E+00  0.00000000000E+00  0.18545028020E+03  0.18545028022E+03  0.25500000000E-02 0. -1.
          2   -1    0    0  501    0  0.00000000000E+00 -0.00000000000E+00 -0.23413034816E+04  0.23413034816E+04  0.25500000000E-02 0.  1.
    -200001    2    1    2    0    0 -0.21487969122E+01  0.97248939035E+02 -0.65017040763E+03  0.89816183965E+03  0.61197316753E+03 0.  0.
   -5000001    2    3    3    0    0  0.12700867138E+03 -0.62156774361E+02 -0.64935654118E+03  0.66948412876E+03  0.80934627229E+02 0.  0.
     200001    1    1    2    0    0  0.21487969122E+01 -0.97248939035E+02 -0.15056827938E+04  0.16285919222E+04  0.61300000000E+03 0.  1.
         11    1    4    4    0    0  0.58430373828E+02 -0.63385226690E+02 -0.29677384043E+03  0.30904127218E+03  0.51100000000E-03 0.  1.
    -200002    1    4    4    0    0  0.68578297553E+02  0.12284523295E+01 -0.35258270075E+03  0.36044285658E+03  0.30000000000E+02 0.  1.
    -200000    1    3    3    0    0 -0.12915746829E+03  0.15940571340E+03 -0.81386644410E+00  0.22867771089E+03  0.10100000000E+03 0. -1.
<mgrwt>
<rscale>  0 0.13178701E+04</rscale>
<asrwt>0</asrwt>
<pdfrwt beam="1">  1        2 0.33447191E+00 0.13178701E+04</pdfrwt>
<pdfrwt beam="2">  1       -2 0.26492898E-01 0.13178701E+04</pdfrwt>
<totfact> 0.67638772E+01</totfact>
</mgrwt>
</event>
<event>
 8    2  0.7237260E-052  0.1323504E+04  0.7818608E-02  0.9011131E-01
         -2   -1    0    0    0  501 -0.00000000000E+00  0.00000000000E+00  0.16340639106E+03  0.16340639108E+03  0.25500000000E-02 0.  1.
          2   -1    0    0  501    0  0.00000000000E+00 -0.00000000000E+00 -0.26799165337E+04  0.26799165337E+04  0.25500000000E-02 0. -1.
    -200001    2    1    2    0    0  0.84709378606E+02 -0.22952373555E+03 -0.13522154234E+04  0.15049627276E+04  0.61365253715E+03 0.  0.
   -5000001    2    3    3    0    0 -0.29249968579E+02 -0.14242861720E+02 -0.10754883649E+04  0.11227174499E+04  0.32056330036E+03 0.  0.
     200001    1    1    2    0    0 -0.84709378606E+02  0.22952373555E+03 -0.11642947193E+04  0.13383601972E+04  0.61300000000E+03 0.  1.
         11    1    4    4    0    0  0.38768856851E+02  0.11433705088E+03 -0.19179976795E+03  0.22663436732E+03  0.51100000000E-03 0.  1.
    -200002    1    4    4    0    0 -0.68018825430E+02 -0.12857991260E+03 -0.88368859691E+03  0.89608308256E+03  0.30000000000E+02 0.  1.
    -200000    1    3    3    0    0  0.11395934719E+03 -0.21528087383E+03 -0.27672705850E+03  0.38224527774E+03  0.10100000000E+03 0. -1.
<mgrwt>
<rscale>  0 0.13235037E+04</rscale>
<asrwt>0</asrwt>
<pdfrwt beam="1">  1        2 0.38284519E+00 0.13235037E+04</pdfrwt>
<pdfrwt beam="2">  1       -2 0.23343772E-01 0.13235037E+04</pdfrwt>
<totfact> 0.56457829E+01</totfact>
</mgrwt>
</event>
<event>
 8    2  0.7237260E-052  0.2215155E+04  0.7818608E-02  0.8512146E-01
         -2   -1    0    0    0  501 -0.00000000000E+00  0.00000000000E+00  0.47290961395E+03  0.47290961396E+03  0.25500000000E-02 0. -1.
          2   -1    0    0  501    0  0.00000000000E+00 -0.00000000000E+00 -0.25940016890E+04  0.25940016890E+04  0.25500000000E-02 0.  1.
    -200001    2    1    2    0    0 -0.65827698401E+03 -0.29463460705E+03 -0.26197714687E+03  0.98071489428E+03  0.61076307930E+03 0.  0.
   -5000001    2    3    3    0    0  0.10106209325E+03 -0.47776838359E+01 -0.23699342783E+02  0.12772592477E+03  0.74268970998E+02 0.  0.
     200001    1    1    2    0    0  0.65827698401E+03  0.29463460705E+03 -0.18591149282E+04  0.20861964086E+04  0.61300000000E+03 0.  1.
         11    1    4    4    0    0  0.17041114284E+02  0.25377721216E+02 -0.11949723830E+02  0.32821093980E+02  0.51100000000E-03 0.  1.
    -200002    1    4    4    0    0  0.84020978970E+02 -0.30155405052E+02 -0.11749618954E+02  0.94904830786E+02  0.30000000000E+02 0.  1.
    -200000    1    3    3    0    0 -0.75933907727E+03 -0.28985692321E+03 -0.23827780408E+03  0.85298896952E+03  0.10100000000E+03 0. -1.
<mgrwt>
<rscale>  0 0.22151554E+04</rscale>
<asrwt>0</asrwt>
<pdfrwt beam="1">  1        2 0.37057166E+00 0.22151554E+04</pdfrwt>
<pdfrwt beam="2">  1       -2 0.67558518E-01 0.22151554E+04</pdfrwt>
<totfact> 0.72364935E+00</totfact>
</mgrwt>
</event>
<event>
 8    2  0.7237260E-052  0.1879469E+04  0.7818608E-02  0.8665144E-01
          2   -1    0    0  501    0  0.00000000000E+00  0.00000000000E+00  0.23378433524E+04  0.23378433524E+04  0.25500000000E-02 0.  1.
         -2   -1    0    0    0  501 -0.00000000000E+00 -0.00000000000E+00 -0.37774173274E+03  0.37774173275E+03  0.25500000000E-02 0. -1.
    -200001    2    1    2    0    0 -0.81076419248E+02  0.66326468704E+03  0.62330577757E+03  0.11002567735E+04  0.61283068177E+03 0.  0.
   -5000001    2    3    3    0    0  0.59623541706E+02 -0.46638187803E+02  0.21120511957E+03  0.26133691857E+03  0.13401229492E+03 0.  0.
     200001    1    1    2    0    0  0.81076419248E+02 -0.66326468704E+03  0.13367958421E+04  0.16153283116E+04  0.61300000000E+03 0.  1.
         11    1    4    4    0    0  0.43346348401E+02  0.15632411358E+02  0.88996858261E+01  0.46930614876E+02  0.51100000000E-03 0.  1.
    -200002    1    4    4    0    0  0.16277193305E+02 -0.62270599161E+02  0.20230543374E+03  0.21440630369E+03  0.30000000000E+02 0.  1.
    -200000    1    3    3    0    0 -0.14069996095E+03  0.70990287485E+03  0.41210065800E+03  0.83891985496E+03  0.10100000000E+03 0. -1.
<mgrwt>
<rscale>  0 0.18794691E+04</rscale>
<asrwt>0</asrwt>
<pdfrwt beam="1">  1        2 0.33397762E+00 0.18794691E+04</pdfrwt>
<pdfrwt beam="2">  1       -2 0.53963104E-01 0.18794691E+04</pdfrwt>
<totfact> 0.16323319E+01</totfact>
</mgrwt>
</event>
<event>
 8    2  0.7237260E-052  0.2700370E+04  0.7818608E-02  0.8334885E-01
          2   -1    0    0  501    0  0.00000000000E+00  0.00000000000E+00  0.11303780098E+04  0.11303780098E+04  0.25500000000E-02 0.  1.
         -2   -1    0    0    0  501 -0.00000000000E+00 -0.00000000000E+00 -0.16127347980E+04  0.16127347980E+04  0.25500000000E-02 0. -1.
    -200001    2    1    2    0    0  0.58033319420E+03  0.97953451803E+03  0.15313088310E+03  0.13023185586E+04  0.61344117275E+03 0.  0.
   -5000001    2    3    3    0    0  0.49621790714E+03  0.50484127402E+03  0.31912887783E+03  0.78254419248E+03  0.97135210885E+02 0.  0.
     200001    1    1    2    0    0 -0.58033319420E+03 -0.97953451803E+03 -0.63548767123E+03  0.14407942492E+04  0.61300000000E+03 0. -1.
         11    1    4    4    0    0  0.10243351481E+02  0.39892877823E+02  0.21349297053E+02  0.46391383203E+02  0.51100000000E-03 0.  1.
    -200002    1    4    4    0    0  0.48597455566E+03  0.46494839620E+03  0.29777958078E+03  0.73615280928E+03  0.30000000000E+02 0.  1.
    -200000    1    3    3    0    0  0.84115287059E+02  0.47469324400E+03 -0.16599799474E+03  0.51977436612E+03  0.10100000000E+03 0. -1.
<mgrwt>
<rscale>  0 0.27003703E+04</rscale>
<asrwt>0</asrwt>
<pdfrwt beam="1">  1        2 0.16148257E+00 0.27003703E+04</pdfrwt>
<pdfrwt beam="2">  1       -2 0.23039069E+00 0.27003703E+04</pdfrwt>
<totfact> 0.17592542E+00</totfact>
</mgrwt>
</event>
<event>
 8    2  0.7237260E-052  0.1502158E+04  0.7818608E-02  0.8883019E-01
         -2   -1    0    0    0  501 -0.00000000000E+00  0.00000000000E+00  0.39488042471E+03  0.39488042472E+03  0.25500000000E-02 0.  1.
          2   -1    0    0  501    0  0.00000000000E+00 -0.00000000000E+00 -0.14285828537E+04  0.14285828537E+04  0.25500000000E-02 0. -1.
    -200001    2    1    2    0    0 -0.25601998424E+03 -0.31987266355E+03 -0.34115708758E+03  0.81190368892E+03  0.61231910672E+03 0.  0.
   -5000001    2    3    3    0    0 -0.11537837998E+03 -0.18775096448E+03 -0.49242777440E+03  0.54672445726E+03  0.88656212037E+02 0.  0.
     200001    1    1    2    0    0  0.25601998424E+03  0.31987266355E+03 -0.69254534140E+03  0.10115595895E+04  0.61300000000E+03 0. -1.
         11    1    4    4    0    0  0.41127105593E+01 -0.56913160333E+02 -0.13819942192E+03  0.14951622797E+03  0.51100000000E-03 0.  1.
    -200002    1    4    4    0    0 -0.11949109054E+03 -0.13083780415E+03 -0.35422835248E+03  0.39720822929E+03  0.30000000000E+02 0.  1.
    -200000    1    3    3    0    0 -0.14064160426E+03 -0.13212169906E+03  0.15127068682E+03  0.26517923166E+03  0.10100000000E+03 0.  1.
<mgrwt>
<rscale>  0 0.15021577E+04</rscale>
<asrwt>0</asrwt>
<pdfrwt beam="1">  1        2 0.20408326E+00 0.15021577E+04</pdfrwt>
<pdfrwt beam="2">  1       -2 0.56411490E-01 0.15021577E+04</pdfrwt>
<totfact> 0.45549179E+01</totfact>
</mgrwt>
</event>
<event>
 8    2  0.7237260E-052  0.1634530E+04  0.7818608E-02  0.8799611E-01
          2   -1    0    0  501    0  0.00000000000E+00  0.00000000000E+00  0.10348924560E+04  0.10348924560E+04  0.25500000000E-02 0. -1.
         -2   -1    0    0    0  501 -0.00000000000E+00 -0.00000000000E+00 -0.64540259983E+03  0.64540259983E+03  0.25500000000E-02 0.  1.
    -200001    2    1    2    0    0 -0.75061289024E+02  0.50301922131E+03  0.38460691285E+03  0.88376798329E+03  0.61193205241E+03 0.  0.
   -5000001    2    3    3    0    0 -0.54726773289E+02 -0.32735533297E+02 -0.10483264280E+03  0.15082956279E+03  0.87709971846E+02 0.  0.
     200001    1    1    2    0    0  0.75061289024E+02 -0.50301922131E+03  0.48829432979E+01  0.79652707252E+03  0.61300000000E+03 0.  1.
         11    1    4    4    0    0  0.92474894431E+01  0.11799806243E+02  0.21059046953E+01  0.15138900991E+02  0.51100000000E-03 0.  1.
    -200002    1    4    4    0    0 -0.63974262733E+02 -0.44535339540E+02 -0.10693854749E+03  0.13569066180E+03  0.30000000000E+02 0.  1.
    -200000    1    3    3    0    0 -0.20334515734E+02  0.53575475461E+03  0.48943955564E+03  0.73293842050E+03  0.10100000000E+03 0. -1.
<mgrwt>
<rscale>  0 0.16345302E+04</rscale>
<asrwt>0</asrwt>
<pdfrwt beam="1">  1        2 0.14784178E+00 0.16345302E+04</pdfrwt>
<pdfrwt beam="2">  1       -2 0.92200371E-01 0.16345302E+04</pdfrwt>
<totfact> 0.25617165E+01</totfact>
</mgrwt>
</event>
<event>
 8    2  0.7237260E-052  0.1858004E+04  0.7818608E-02  0.8676047E-01
          2   -1    0    0  501    0  0.00000000000E+00  0.00000000000E+00  0.17772861034E+04  0.17772861034E+04  0.25500000000E-02 0. -1.
         -2   -1    0    0    0  501 -0.00000000000E+00 -0.00000000000E+00 -0.48559710446E+03  0.48559710447E+03  0.25500000000E-02 0.  1.
    -200001    2    1    2    0    0  0.52519974994E+03 -0.12898937243E+03  0.10871788662E+03  0.82494625233E+03  0.61338707586E+03 0.  0.
   -5000001    2    3    3    0    0  0.58842521381E+02 -0.24892502655E+03  0.13989362057E+03  0.33194873495E+03  0.15872500242E+03 0.  0.
     200001    1    1    2    0    0 -0.52519974994E+03  0.12898937243E+03  0.11829711124E+04  0.14379369556E+04  0.61300000000E+03 0.  1.
         11    1    4    4    0    0  0.10095841206E+03 -0.19440211862E+03  0.13351201543E+03  0.25653507159E+03  0.51100000000E-03 0.  1.
    -200002    1    4    4    0    0 -0.42115890681E+02 -0.54522907935E+02  0.63816051353E+01  0.75413663362E+02  0.30000000000E+02 0.  1.
    -200000    1    3    3    0    0  0.46635722856E+03  0.11993565412E+03 -0.31175733950E+02  0.49299751738E+03  0.10100000000E+03 0.  1.
<mgrwt>
<rscale>  0 0.18580043E+04</rscale>
<asrwt>0</asrwt>
<pdfrwt beam="1">  1        2 0.25389802E+00 0.18580043E+04</pdfrwt>
<pdfrwt beam="2">  1       -2 0.69371014E-01 0.18580043E+04</pdfrwt>
<totfact> 0.18688878E+01</totfact>
</mgrwt>
</event>
<event>
 8    2  0.7237260E-052  0.2552909E+04  0.7818608E-02  0.8384375E-01
         -2   -1    0    0    0  501 -0.00000000000E+00  0.00000000000E+00  0.58124439049E+03  0.58124439049E+03  0.25500000000E-02 0. -1.
          2   -1    0    0  501    0  0.00000000000E+00 -0.00000000000E+00 -0.28031863775E+04  0.28031863775E+04  0.25500000000E-02 0.  1.
    -200001    2    1    2    0    0  0.69898520066E+03  0.84300901052E+03 -0.80242514622E+03  0.14896902676E+04  0.61322628411E+03 0.  0.
   -5000001    2    3    3    0    0  0.47005891280E+03  0.15149780387E+03 -0.44877989216E+03  0.67368722844E+03  0.92434431246E+02 0.  0.
     200001    1    1    2    0    0 -0.69898520066E+03 -0.84300901052E+03 -0.14195168408E+04  0.18947405004E+04  0.61300000000E+03 0.  1.
         11    1    4    4    0    0  0.41253516133E+02  0.39948979283E+02 -0.65088610641E+02  0.86800350083E+02  0.51100000000E-03 0.  1.
    -200002    1    4    4    0    0  0.42880539666E+03  0.11154882459E+03 -0.38369128151E+03  0.58688687836E+03  0.30000000000E+02 0.  1.
    -200000    1    3    3    0    0  0.22892628786E+03  0.69151120665E+03 -0.35364525407E+03  0.81600303916E+03  0.10100000000E+03 0.  1.
<mgrwt>
<rscale>  0 0.25529092E+04</rscale>
<asrwt>0</asrwt>
<pdfrwt beam="1">  1        2 0.40045519E+00 0.25529092E+04</pdfrwt>
<pdfrwt beam="2">  1       -2 0.83034915E-01 0.25529092E+04</pdfrwt>
<totfact> 0.34383449E+00</totfact>
</mgrwt>
</event>
<event>
 8    2  0.7237260E-052  0.1593439E+04  0.7818608E-02  0.8824589E-01
          2   -1    0    0  501    0  0.00000000000E+00  0.00000000000E+00  0.34534005019E+04  0.34534005019E+04  0.25500000000E-02 0.  1.
         -2   -1    0    0    0  501 -0.00000000000E+00 -0.00000000000E+00 -0.18380775725E+03  0.18380775727E+03  0.25500000000E-02 0. -1.
    -200001    2    1    2    0    0 -0.66317966621E+01  0.50941920318E+03  0.15837801695E+04  0.17724603020E+04  0.61131333336E+03 0.  0.
   -5000001    2    3    3    0    0 -0.83772475956E+02  0.17044319128E+01  0.92953410360E+03  0.93462744987E+03  0.49740199729E+02 0.  0.
     200001    1    1    2    0    0  0.66317966621E+01 -0.50941920318E+03  0.16858125751E+04  0.18647479572E+04  0.61300000000E+03 0.  1.
         11    1    4    4    0    0 -0.43810119357E+01  0.69074413869E+01  0.30382703149E+02  0.31464498455E+02  0.51100000000E-03 0.  1.
    -200002    1    4    4    0    0 -0.79391464020E+02 -0.52030094741E+01  0.89915140045E+03  0.90316295141E+03  0.30000000000E+02 0.  1.
    -200000    1    3    3    0    0  0.77140679294E+02  0.50771477127E+03  0.65424606592E+03  0.83783285214E+03  0.10100000000E+03 0. -1.
<mgrwt>
<rscale>  0 0.15934388E+04</rscale>
<asrwt>0</asrwt>
<pdfrwt beam="1">  1        2 0.49334292E+00 0.15934388E+04</pdfrwt>
<pdfrwt beam="2">  1       -2 0.26258252E-01 0.15934388E+04</pdfrwt>
<totfact> 0.16313219E+01</totfact>
</mgrwt>
</event>
<event>
 8    2  0.7237260E-052  0.1574565E+04  0.7818608E-02  0.8836328E-01
          2   -1    0    0  501    0  0.00000000000E+00  0.00000000000E+00  0.26995239206E+04  0.26995239206E+04  0.25500000000E-02 0.  1.
         -2   -1    0    0    0  501 -0.00000000000E+00 -0.00000000000E+00 -0.22960117238E+03  0.22960117239E+03  0.25500000000E-02 0. -1.
    -200001    2    1    2    0    0 -0.37755496171E+03 -0.10072512262E+03  0.67655325828E+03  0.99401878406E+03  0.61453700648E+03 0.  0.
   -5000001    2    3    3    0    0 -0.37731298397E+03  0.90997012342E+02  0.16038782195E+03  0.43421060866E+03  0.11031344031E+03 0.  0.
     200001    1    1    2    0    0  0.37755496171E+03  0.10072512262E+03  0.17933694899E+04  0.19351063089E+04  0.61300000000E+03 0.  1.
         11    1    4    4    0    0 -0.21317897354E+03  0.82575317910E+02  0.13423795018E+03  0.26511089219E+03  0.51100000000E-03 0.  1.
    -200002    1    4    4    0    0 -0.16413401043E+03  0.84216944317E+01  0.26149871775E+02  0.16909971647E+03  0.30000000000E+02 0.  1.
    -200000    1    3    3    0    0 -0.24197773651E+00 -0.19172213496E+03  0.51616543633E+03  0.55980817541E+03  0.10100000000E+03 0.  1.
<mgrwt>
<rscale>  0 0.15745652E+04</rscale>
<asrwt>0</asrwt>
<pdfrwt beam="1">  1        2 0.38564626E+00 0.15745652E+04</pdfrwt>
<pdfrwt beam="2">  1       -2 0.32800168E-01 0.15745652E+04</pdfrwt>
<totfact> 0.28848066E+01</totfact>
</mgrwt>
</event>
<event>
 8    2  0.7237260E-052  0.1488544E+04  0.7818608E-02  0.8892107E-01
         -2   -1    0    0    0  501 -0.00000000000E+00  0.00000000000E+00  0.18213950533E+04  0.18213950533E+04  0.25500000000E-02 0. -1.
          2   -1    0    0  501    0  0.00000000000E+00 -0.00000000000E+00 -0.30413006526E+03  0.30413006527E+03  0.25500000000E-02 0.  1.
    -200001    2    1    2    0    0 -0.84673025087E+02  0.17539439973E+03  0.22259616524E+03  0.67988717034E+03  0.61218036148E+03 0.  0.
   -5000001    2    3    3    0    0 -0.32888223780E+03  0.48235195848E+02  0.16846598454E+03  0.38166128420E+03  0.82428074422E+02 0.  0.
     200001    1    1    2    0    0  0.84673025087E+02 -0.17539439973E+03  0.12946688228E+04  0.14456379483E+04  0.61300000000E+03 0. -1.
         11    1    4    4    0    0 -0.24021200855E+02 -0.59314801068E+01 -0.53435074088E+01  0.25313111591E+02  0.51100000000E-03 0.  1.
    -200002    1    4    4    0    0 -0.30486103694E+03  0.54166675955E+02  0.17380949195E+03  0.35634817261E+03  0.30000000000E+02 0.  1.
    -200000    1    3    3    0    0  0.24420921271E+03  0.12715920388E+03  0.54130180700E+02  0.29822588614E+03  0.10100000000E+03 0. -1.
<mgrwt>
<rscale>  0 0.14885443E+04</rscale>
<asrwt>0</asrwt>
<pdfrwt beam="1">  1        2 0.43447152E-01 0.14885443E+04</pdfrwt>
<pdfrwt beam="2">  1       -2 0.26019930E+00 0.14885443E+04</pdfrwt>
<totfact> 0.63399362E+00</totfact>
</mgrwt>
</event>
<event>
 8    2  0.7237260E-052  0.1450027E+04  0.7818608E-02  0.8918382E-01
         -2   -1    0    0    0  501 -0.00000000000E+00  0.00000000000E+00  0.41769607744E+03  0.41769607745E+03  0.25500000000E-02 0. -1.
          2   -1    0    0  501    0  0.00000000000E+00 -0.00000000000E+00 -0.12584372399E+04  0.12584372399E+04  0.25500000000E-02 0.  1.
    -200001    2    1    2    0    0 -0.36372511000E+03  0.82400156089E+02 -0.53937851325E+03  0.89788259443E+03  0.61333370318E+03 0.  0.
   -5000001    2    3    3    0    0 -0.23549396436E+03  0.14156560336E+03 -0.63691627864E+03  0.69873844428E+03  0.84112069315E+02 0.  0.
     200001    1    1    2    0    0  0.36372511000E+03 -0.82400156089E+02 -0.30136264920E+03  0.77825072290E+03  0.61300000000E+03 0. -1.
         11    1    4    4    0    0 -0.35528187416E+02  0.46560139993E+02 -0.84087940872E+02  0.10247380415E+03  0.51100000000E-03 0.  1.
    -200002    1    4    4    0    0 -0.19996577695E+03  0.95005463365E+02 -0.55282833777E+03  0.59626464013E+03  0.30000000000E+02 0.  1.
    -200000    1    3    3    0    0 -0.12823114564E+03 -0.59165447270E+02  0.97537765394E+02  0.19914415015E+03  0.10100000000E+03 0. -1.
<mgrwt>
<rscale>  0 0.14500266E+04</rscale>
<asrwt>0</asrwt>
<pdfrwt beam="1">  1        2 0.17977675E+00 0.14500266E+04</pdfrwt>
<pdfrwt beam="2">  1       -2 0.59670869E-01 0.14500266E+04</pdfrwt>
<totfact> 0.50390492E+01</totfact>
</mgrwt>
</event>
<event>
 8    2  0.7237260E-052  0.1257614E+04  0.7818608E-02  0.9063870E-01
          2   -1    0    0  501    0  0.00000000000E+00  0.00000000000E+00  0.46489624107E+04  0.46489624107E+04  0.25500000000E-02 0.  1.
         -2   -1    0    0    0  501 -0.00000000000E+00 -0.00000000000E+00 -0.85050899371E+02  0.85050899409E+02  0.25500000000E-02 0. -1.
    -200001    2    1    2    0    0 -0.92651480550E+02 -0.25598777352E+01  0.26755530265E+04  0.27464878091E+04  0.61320505400E+03 0.  0.
   -5000001    2    3    3    0    0  0.27331645480E+02 -0.91500381037E+02  0.91973544581E+02  0.15662481989E+03  0.83383827729E+02 0.  0.
     200001    1    1    2    0    0  0.92651480550E+02  0.25598777352E+01  0.18883584848E+04  0.19875255010E+04  0.61300000000E+03 0. -1.
         11    1    4    4    0    0 -0.66716668080E+01 -0.75608569142E+02  0.39829057419E+02  0.85717680095E+02  0.51100000000E-03 0.  1.
    -200002    1    4    4    0    0  0.34003312288E+02 -0.15891811895E+02  0.52144487163E+02  0.70907139791E+02  0.30000000000E+02 0.  1.
    -200000    1    3    3    0    0 -0.11998312603E+03  0.88940503302E+02  0.25835794819E+04  0.25898629892E+04  0.10100000000E+03 0.  1.
<mgrwt>
<rscale>  0 0.12576143E+04</rscale>
<asrwt>0</asrwt>
<pdfrwt beam="1">  1        2 0.66413770E+00 0.12576143E+04</pdfrwt>
<pdfrwt beam="2">  1       -2 0.12150125E-01 0.12576143E+04</pdfrwt>
<totfact> 0.94393246E+00</totfact>
</mgrwt>
</event>
<event>
 8    2  0.7237260E-052  0.1283444E+04  0.7818608E-02  0.9042798E-01
         -2   -1    0    0    0  501 -0.00000000000E+00  0.00000000000E+00  0.15463780013E+03  0.15463780015E+03  0.25500000000E-02 0. -1.
          2   -1    0    0  501    0  0.00000000000E+00 -0.00000000000E+00 -0.26630433636E+04  0.26630433636E+04  0.25500000000E-02 0.  1.
    -200001    2    1    2    0    0  0.18067971934E+03 -0.56168932230E+02 -0.11818166493E+04  0.13441116007E+04  0.61167417199E+03 0.  0.
   -5000001    2    3    3    0    0 -0.16516912917E+03 -0.17826286543E+03 -0.43860402950E+03  0.50919582485E+03  0.88591212504E+02 0.  0.
     200001    1    1    2    0    0 -0.18067971934E+03  0.56168932230E+02 -0.13265889142E+04  0.14735695631E+04  0.61300000000E+03 0. -1.
         11    1    4    4    0    0 -0.64472793961E+02 -0.60840791726E+02 -0.23889151661E+03  0.25480875144E+03  0.51100000000E-03 0.  1.
    -200002    1    4    4    0    0 -0.10069633521E+03 -0.11742207371E+03 -0.19971251288E+03  0.25438707342E+03  0.30000000000E+02 0.  1.
    -200000    1    3    3    0    0  0.34584884851E+03  0.12209393320E+03 -0.74321261979E+03  0.83491577585E+03  0.10100000000E+03 0.  1.
<mgrwt>
<rscale>  0 0.12834441E+04</rscale>
<asrwt>0</asrwt>
<pdfrwt beam="1">  1        2 0.38043474E+00 0.12834441E+04</pdfrwt>
<pdfrwt beam="2">  1       -2 0.22091116E-01 0.12834441E+04</pdfrwt>
<totfact> 0.63825363E+01</totfact>
</mgrwt>
</event>
<event>
 8    2  0.7237260E-052  0.1273730E+04  0.7818608E-02  0.9050661E-01
          2   -1    0    0  501    0  0.00000000000E+00  0.00000000000E+00  0.83674693701E+03  0.83674693701E+03  0.25500000000E-02 0.  1.
         -2   -1    0    0    0  501 -0.00000000000E+00 -0.00000000000E+00 -0.48473085672E+03  0.48473085673E+03  0.25500000000E-02 0. -1.
    -200001    2    1    2    0    0  0.11797762388E+03  0.12114996904E+03  0.20716993627E+03  0.66929266652E+03  0.61354482821E+03 0.  0.
   -5000001    2    3    3    0    0 -0.34747344200E+01  0.14809791186E+03 -0.17955587668E+03  0.25068220158E+03  0.93038637467E+02 0.  0.
     200001    1    1    2    0    0 -0.11797762388E+03 -0.12114996904E+03  0.14484614402E+03  0.65218512722E+03  0.61300000000E+03 0. -1.
         11    1    4    4    0    0 -0.15028973601E+02  0.10311380577E+02 -0.68305364623E+02  0.70695243499E+02  0.51100000000E-03 0.  1.
    -200002    1    4    4    0    0  0.11554239181E+02  0.13778653128E+03 -0.11125051206E+03  0.17998695808E+03  0.30000000000E+02 0.  1.
    -200000    1    3    3    0    0  0.12145235830E+03 -0.26947942817E+02  0.38672581295E+03  0.41861046494E+03  0.10100000000E+03 0.  1.
<mgrwt>
<rscale>  0 0.12737300E+04</rscale>
<asrwt>0</asrwt>
<pdfrwt beam="1">  1        2 0.11953528E+00 0.12737300E+04</pdfrwt>
<pdfrwt beam="2">  1       -2 0.69247266E-01 0.12737300E+04</pdfrwt>
<totfact> 0.67080300E+01</totfact>
</mgrwt>
</event>
<event>
 8    2  0.7237260E-052  0.1315578E+04  0.7818608E-02  0.9017302E-01
          2   -1    0    0  501    0  0.00000000000E+00  0.00000000000E+00  0.90325923967E+03  0.90325923967E+03  0.25500000000E-02 0. -1.
         -2   -1    0    0    0  501 -0.00000000000E+00 -0.00000000000E+00 -0.47902791306E+03  0.47902791307E+03  0.25500000000E-02 0.  1.
    -200001    2    1    2    0    0 -0.68392324690E+02  0.17706611199E+03  0.37061569924E+03  0.73833563780E+03  0.60971599900E+03 0.  0.
   -5000001    2    3    3    0    0 -0.13052727659E+03  0.25602579266E+02  0.46395538329E+03  0.52452438784E+03  0.20537374164E+03 0.  0.
     200001    1    1    2    0    0  0.68392324690E+02 -0.17706611199E+03  0.53615627372E+02  0.64395151494E+03  0.61300000000E+03 0.  1.
         11    1    4    4    0    0 -0.10200933727E+03  0.83615946913E+02  0.13810784043E+03  0.19097462412E+03  0.51100000000E-03 0.  1.
    -200002    1    4    4    0    0 -0.28517939314E+02 -0.58013367647E+02  0.32584754286E+03  0.33354976372E+03  0.30000000000E+02 0.  1.
    -200000    1    3    3    0    0  0.62134951898E+02  0.15146353272E+03 -0.93339684055E+02  0.21381124996E+03  0.10100000000E+03 0.  1.
<mgrwt>
<rscale>  0 0.13155780E+04</rscale>
<asrwt>0</asrwt>
<pdfrwt beam="1">  1        2 0.12903703E+00 0.13155780E+04</pdfrwt>
<pdfrwt beam="2">  1       -2 0.68432560E-01 0.13155780E+04</pdfrwt>
<totfact> 0.61961491E+01</totfact>
</mgrwt>
</event>
<event>
 8    2  0.7237260E-052  0.1953539E+04  0.7818608E-02  0.8628656E-01
         -2   -1    0    0    0  501 -0.00000000000E+00  0.00000000000E+00  0.20942822413E+03  0.20942822414E+03  0.25500000000E-02 0. -1.
          2   -1    0    0  501    0  0.00000000000E+00 -0.00000000000E+00 -0.45556366125E+04  0.45556366125E+04  0.25500000000E-02 0.  1.
    -200001    2    1    2    0    0 -0.27118503840E+03  0.70935874204E+03 -0.23090146844E+04  0.25061583894E+04  0.61036866725E+03 0.  0.
   -5000001    2    3    3    0    0 -0.94310003321E+02  0.73114857255E+02 -0.12173213880E+04  0.12262809295E+04  0.87483697120E+02 0.  0.
     200001    1    1    2    0    0  0.27118503840E+03 -0.70935874204E+03 -0.20371937039E+04  0.22589064472E+04  0.61300000000E+03 0. -1.
         11    1    4    4    0    0 -0.73336189028E+02  0.65214097412E+02 -0.10613307371E+04  0.10658583436E+04  0.51100000000E-03 0.  1.
    -200002    1    4    4    0    0 -0.20973814294E+02  0.79007598421E+01 -0.15599065090E+03  0.16042258588E+03  0.30000000000E+02 0. -1.
    -200000    1    3    3    0    0 -0.17687503508E+03  0.63624388478E+03 -0.10916932964E+04  0.12798774599E+04  0.10100000000E+03 0.  1.
<mgrwt>
<rscale>  0 0.19535392E+04</rscale>
<asrwt>0</asrwt>
<pdfrwt beam="1">  1        2 0.65080516E+00 0.19535392E+04</pdfrwt>
<pdfrwt beam="2">  1       -2 0.29918321E-01 0.19535392E+04</pdfrwt>
<totfact> 0.21382359E+00</totfact>
</mgrwt>
</event>
<event>
 8    2  0.7237260E-052  0.1870209E+04  0.7818608E-02  0.8669829E-01
         -2   -1    0    0    0  501 -0.00000000000E+00  0.00000000000E+00  0.28683654952E+03  0.28683654953E+03  0.25500000000E-02 0. -1.
          2   -1    0    0  501    0  0.00000000000E+00 -0.00000000000E+00 -0.30484986816E+04  0.30484986816E+04  0.25500000000E-02 0.  1.
    -200001    2    1    2    0    0  0.58615237465E+03 -0.15640041423E+03 -0.72718990691E+03  0.11256108296E+04  0.60840684008E+03 0.  0.
   -5000001    2    3    3    0    0  0.23709412572E+03 -0.36346121376E+03 -0.33386667244E+03  0.55148540545E+03  0.65966045070E+02 0.  0.
     200001    1    1    2    0    0 -0.58615237465E+03  0.15640041423E+03 -0.20344722251E+04  0.22097244015E+04  0.61300000000E+03 0.  1.
         11    1    4    4    0    0  0.19093306729E+03 -0.28733386575E+03 -0.26123949421E+03  0.43273809622E+03  0.51100000000E-03 0.  1.
    -200002    1    4    4    0    0  0.46161058429E+02 -0.76127348010E+02 -0.72627178232E+02  0.11874730923E+03  0.30000000000E+02 0. -1.
    -200000    1    3    3    0    0  0.34905824893E+03  0.20706079952E+03 -0.39332323447E+03  0.57412542412E+03  0.10100000000E+03 0.  1.
<mgrwt>
<rscale>  0 0.18702094E+04</rscale>
<asrwt>0</asrwt>
<pdfrwt beam="1">  1        2 0.43549979E+00 0.18702094E+04</pdfrwt>
<pdfrwt beam="2">  1       -2 0.40976652E-01 0.18702094E+04</pdfrwt>
<totfact> 0.11786513E+01</totfact>
</mgrwt>
</event>
<event>
 8    2  0.7237260E-052  0.1600182E+04  0.7818608E-02  0.8820436E-01
          2   -1    0    0  501    0  0.00000000000E+00  0.00000000000E+00  0.85918554920E+03  0.85918554920E+03  0.25500000000E-02 0.  1.
         -2   -1    0    0    0  501 -0.00000000000E+00 -0.00000000000E+00 -0.74506081129E+03  0.74506081130E+03  0.25500000000E-02 0. -1.
    -200001    2    1    2    0    0 -0.34568621412E+03 -0.37900036532E+03  0.40133422164E+02  0.80151106767E+03  0.61454785369E+03 0.  0.
   -5000001    2    3    3    0    0  0.13282668351E+03 -0.15168991334E+01 -0.66384062036E+02  0.17460171626E+03  0.91835106554E+02 0.  0.
     200001    1    1    2    0    0  0.34568621412E+03  0.37900036532E+03  0.73991315742E+02  0.80273529283E+03  0.61300000000E+03 0.  1.
         11    1    4    4    0    0 -0.58375092572E+01  0.10469510323E+02 -0.22704331614E+02  0.25674380908E+02  0.51100000000E-03 0.  1.
    -200002    1    4    4    0    0  0.13866419276E+03 -0.11986409457E+02 -0.43679730422E+02  0.14892733536E+03  0.30000000000E+02 0.  1.
    -200000    1    3    3    0    0 -0.47851289763E+03 -0.37748346619E+03  0.10651748420E+03  0.62690935141E+03  0.10100000000E+03 0. -1.
<mgrwt>
<rscale>  0 0.16001818E+04</rscale>
<asrwt>0</asrwt>
<pdfrwt beam="1">  1        2 0.12274079E+00 0.16001818E+04</pdfrwt>
<pdfrwt beam="2">  1       -2 0.10643726E+00 0.16001818E+04</pdfrwt>
<totfact> 0.23670924E+01</totfact>
</mgrwt>
</event>
<event>
 8    2  0.7237260E-052  0.1242533E+04  0.7818608E-02  0.9076421E-01
         -2   -1    0    0    0  501 -0.00000000000E+00  0.00000000000E+00  0.23912556824E+03  0.23912556825E+03  0.25500000000E-02 0. -1.
          2   -1    0    0  501    0  0.00000000000E+00 -0.00000000000E+00 -0.16140982123E+04  0.16140982123E+04  0.25500000000E-02 0.  1.
    -200001    2    1    2    0    0 -0.58457441492E+02  0.43952888632E+02 -0.58269873525E+03  0.84882541563E+03  0.61287653021E+03 0.  0.
   -5000001    2    3    3    0    0  0.16251929587E+03 -0.30509695519E+02 -0.35346199063E+03  0.50658883083E+03  0.32303792603E+03 0.  0.
     200001    1    1    2    0    0  0.58457441492E+02 -0.43952888632E+02 -0.79227390886E+03  0.10043983650E+04  0.61300000000E+03 0.  1.
         11    1    4    4    0    0 -0.94794512314E+02 -0.32345894086E+02 -0.67798927038E+02  0.12095020024E+03  0.51100000000E-03 0.  1.
    -200002    1    4    4    0    0  0.25731380818E+03  0.18361985672E+01 -0.28566306359E+03  0.38563863060E+03  0.30000000000E+02 0.  1.
    -200000    1    3    3    0    0 -0.22097673736E+03  0.74462584151E+02 -0.22923674462E+03  0.34223658480E+03  0.10100000000E+03 0.  1.
<mgrwt>
<rscale>  0 0.12425331E+04</rscale>
<asrwt>0</asrwt>
<pdfrwt beam="1">  1        2 0.23058545E+00 0.12425331E+04</pdfrwt>
<pdfrwt beam="2">  1       -2 0.34160796E-01 0.12425331E+04</pdfrwt>
<totfact> 0.10039674E+02</totfact>
</mgrwt>
</event>
<event>
 8    2  0.7237260E-052  0.1318138E+04  0.7818608E-02  0.9015304E-01
          2   -1    0    0  501    0  0.00000000000E+00  0.00000000000E+00  0.16723304484E+04  0.16723304484E+04  0.25500000000E-02 0.  1.
         -2   -1    0    0    0  501 -0.00000000000E+00 -0.00000000000E+00 -0.25974054196E+03  0.25974054197E+03  0.25500000000E-02 0. -1.
    -200001    2    1    2    0    0 -0.14765525975E+03 -0.16662203206E+03  0.57333856341E+03  0.86920844324E+03  0.61419966804E+03 0.  0.
   -5000001    2    3    3    0    0  0.21483119229E+03 -0.43608527796E+02  0.97060977751E+02  0.24987808815E+03  0.70456232191E+02 0.  0.
     200001    1    1    2    0    0  0.14765525975E+03  0.16662203206E+03  0.83925134303E+03  0.10628625471E+04  0.61300000000E+03 0.  1.
         11    1    4    4    0    0  0.15283957717E+01 -0.92211993467E+01 -0.31051515420E+01  0.98492881665E+01  0.51100000000E-03 0.  1.
    -200002    1    4    4    0    0  0.21330279652E+03 -0.34387328449E+02  0.10016612929E+03  0.24002879998E+03  0.30000000000E+02 0.  1.
    -200000    1    3    3    0    0 -0.36248645204E+03 -0.12301350427E+03  0.47627758566E+03  0.61933035510E+03  0.10100000000E+03 0.  1.
<mgrwt>
<rscale>  0 0.13181381E+04</rscale>
<asrwt>0</asrwt>
<pdfrwt beam="1">  1        2 0.23890435E+00 0.13181381E+04</pdfrwt>
<pdfrwt beam="2">  1       -2 0.37105792E-01 0.13181381E+04</pdfrwt>
<totfact> 0.79475554E+01</totfact>
</mgrwt>
</event>
<event>
 8    2  0.7237260E-052  0.2337007E+04  0.7818608E-02  0.8463471E-01
          2   -1    0    0  501    0  0.00000000000E+00  0.00000000000E+00  0.18945305404E+04  0.18945305404E+04  0.25500000000E-02 0.  1.
         -2   -1    0    0    0  501 -0.00000000000E+00 -0.00000000000E+00 -0.72070668065E+03  0.72070668066E+03  0.25500000000E-02 0. -1.
    -200001    2    1    2    0    0 -0.35996952623E+03  0.31076381835E+03  0.15647683822E+04  0.17464686499E+04  0.61278091051E+03 0.  0.
   -5000001    2    3    3    0    0 -0.47936962080E+03  0.25170181254E+03  0.84309430283E+03  0.10056858342E+04  0.86295757909E+02 0.  0.
     200001    1    1    2    0    0  0.35996952623E+03 -0.31076381835E+03 -0.39094452250E+03  0.86876857119E+03  0.61300000000E+03 0. -1.
         11    1    4    4    0    0 -0.14592989684E+03  0.66746305923E+02  0.18862964380E+03  0.24765247155E+03  0.51100000000E-03 0.  1.
    -200002    1    4    4    0    0 -0.33343972397E+03  0.18495550661E+03  0.65446465904E+03  0.75803336264E+03  0.30000000000E+02 0.  1.
    -200000    1    3    3    0    0  0.11940009457E+03  0.59062005815E+02  0.72167407940E+03  0.74078281567E+03  0.10100000000E+03 0. -1.
<mgrwt>
<rscale>  0 0.23370073E+04</rscale>
<asrwt>0</asrwt>
<pdfrwt beam="1">  1        2 0.27064721E+00 0.23370073E+04</pdfrwt>
<pdfrwt beam="2">  1       -2 0.10295810E+00 0.23370073E+04</pdfrwt>
<totfact> 0.63678604E+00</totfact>
</mgrwt>
</event>
<event>
 8    2  0.7237260E-052  0.1772123E+04  0.7818608E-02  0.8721266E-01
          2   -1    0    0  501    0  0.00000000000E+00  0.00000000000E+00  0.15801838027E+04  0.15801838027E+04  0.25500000000E-02 0.  1.
         -2   -1    0    0    0  501 -0.00000000000E+00 -0.00000000000E+00 -0.49684405765E+03  0.49684405766E+03  0.25500000000E-02 0. -1.
    -200001    2    1    2    0    0  0.34222812189E+03  0.38292736812E+03  0.98877988602E+03  0.12717552211E+04  0.61312496498E+03 0.  0.
   -5000001    2    3    3    0    0  0.18491750894E+03  0.31693918839E+03  0.92433671541E+03  0.10632966136E+04  0.37623980480E+03 0.  0.
     200001    1    1    2    0    0 -0.34222812189E+03 -0.38292736812E+03  0.94559859056E+02  0.80527263930E+03  0.61300000000E+03 0. -1.
         11    1    4    4    0    0 -0.10093113473E+03  0.54836174643E+01  0.15769926350E+03  0.18731316485E+03  0.51100000000E-03 0.  1.
    -200002    1    4    4    0    0  0.28584864367E+03  0.31145557092E+03  0.76663745191E+03  0.87598344871E+03  0.30000000000E+02 0.  1.
    -200000    1    3    3    0    0  0.15731061295E+03  0.65988179727E+02  0.64443170613E+02  0.20845860752E+03  0.10100000000E+03 0. -1.
<mgrwt>
<rscale>  0 0.17721229E+04</rscale>
<asrwt>0</asrwt>
<pdfrwt beam="1">  1        2 0.22574054E+00 0.17721229E+04</pdfrwt>
<pdfrwt beam="2">  1       -2 0.70977723E-01 0.17721229E+04</pdfrwt>
<totfact> 0.22680738E+01</totfact>
</mgrwt>
</event>
<event>
 8    2  0.7237260E-052  0.1754634E+04  0.7818608E-02  0.8730804E-01
          2   -1    0    0  501    0  0.00000000000E+00  0.00000000000E+00  0.67964946960E+03  0.67964946961E+03  0.25500000000E-02 0.  1.
         -2   -1    0    0    0  501 -0.00000000000E+00 -0.00000000000E+00 -0.11324738400E+04  0.11324738400E+04  0.25500000000E-02 0. -1.
    -200001    2    1    2    0    0 -0.52936151095E+03  0.17240753948E+03 -0.52733338269E+03  0.98069768950E+03  0.61134236950E+03 0.  0.
   -5000001    2    3    3    0    0  0.77145063811E+02  0.49677270723E+02  0.46500875931E+02  0.13075669128E+03  0.80720435791E+02 0.  0.
     200001    1    1    2    0    0  0.52936151095E+03 -0.17240753948E+03  0.74509012251E+02  0.83142562015E+03  0.61300000000E+03 0. -1.
         11    1    4    4    0    0  0.46486286861E+02  0.16163383696E+02  0.57011743326E+02  0.75316457139E+02  0.51100000000E-03 0.  1.
    -200002    1    4    4    0    0  0.30658776951E+02  0.33513887028E+02 -0.10510867396E+02  0.55440234138E+02  0.30000000000E+02 0. -1.
    -200000    1    3    3    0    0 -0.60650657476E+03  0.12273026876E+03 -0.57383425862E+03  0.84994099822E+03  0.10100000000E+03 0. -1.
<mgrwt>
<rscale>  0 0.17546341E+04</rscale>
<asrwt>0</asrwt>
<pdfrwt beam="1">  1        2 0.97092782E-01 0.17546341E+04</pdfrwt>
<pdfrwt beam="2">  1       -2 0.16178198E+00 0.17546341E+04</pdfrwt>
<totfact> 0.10832276E+01</totfact>
</mgrwt>
</event>
<event>
 8    2  0.7237260E-052  0.1767965E+04  0.7818608E-02  0.8723523E-01
          2   -1    0    0  501    0  0.00000000000E+00  0.00000000000E+00  0.19806688108E+04  0.19806688108E+04  0.25500000000E-02 0.  1.
         -2   -1    0    0    0  501 -0.00000000000E+00 -0.00000000000E+00 -0.39452579004E+03  0.39452579005E+03  0.25500000000E-02 0. -1.
    -200001    2    1    2    0    0  0.46089850465E+03  0.43152119456E+03  0.90263293920E+03  0.12609266777E+04  0.61363824095E+03 0.  0.
   -5000001    2    3    3    0    0  0.23302122627E+03  0.34861796801E+03  0.90231386620E+03  0.99824416827E+03  0.80546426608E+02 0.  0.
     200001    1    1    2    0    0 -0.46089850465E+03 -0.43152119456E+03  0.68351008160E+03  0.11142679232E+04  0.61300000000E+03 0. -1.
         11    1    4    4    0    0 -0.45605840652E+01  0.13869405507E+02  0.43787482962E+02  0.46157372115E+02  0.51100000000E-03 0.  1.
    -200002    1    4    4    0    0  0.23758181034E+03  0.33474856250E+03  0.85852638324E+03  0.95208679615E+03  0.30000000000E+02 0.  1.
    -200000    1    3    3    0    0  0.22787727837E+03  0.82903226550E+02  0.31907299938E+00  0.26268250946E+03  0.10100000000E+03 0. -1.
<mgrwt>
<rscale>  0 0.17679648E+04</rscale>
<asrwt>0</asrwt>
<pdfrwt beam="1">  1        2 0.28295269E+00 0.17679648E+04</pdfrwt>
<pdfrwt beam="2">  1       -2 0.56360827E-01 0.17679648E+04</pdfrwt>
<totfact> 0.23015340E+01</totfact>
</mgrwt>
</event>
<event>
 8    2  0.7237260E-052  0.1693434E+04  0.7818608E-02  0.8765118E-01
          2   -1    0    0  501    0  0.00000000000E+00  0.00000000000E+00  0.11522564056E+04  0.11522564056E+04  0.25500000000E-02 0.  1.
         -2   -1    0    0    0  501 -0.00000000000E+00 -0.00000000000E+00 -0.62219662388E+03  0.62219662389E+03  0.25500000000E-02 0. -1.
    -200001    2    1    2    0    0 -0.23833202550E+03 -0.53356504679E+03  0.26440669211E+03  0.88685268160E+03  0.61245650172E+03 0.  0.
   -5000001    2    3    3    0    0 -0.42524804573E+02 -0.54955454819E+03  0.19323603312E+02  0.55690897074E+03  0.77172790594E+02 0.  0.
     200001    1    1    2    0    0  0.23833202550E+03  0.53356504679E+03  0.26565308959E+03  0.88760034787E+03  0.61300000000E+03 0. -1.
         11    1    4    4    0    0 -0.53755368325E+02 -0.29832528536E+03  0.34610023833E+01  0.30314945826E+03  0.51100000000E-03 0.  1.
    -200002    1    4    4    0    0  0.11230563752E+02 -0.25122926283E+03  0.15862600929E+02  0.25375951248E+03  0.30000000000E+02 0.  1.
    -200000    1    3    3    0    0 -0.19580722093E+03  0.15989501399E+02  0.24508308879E+03  0.32994371086E+03  0.10100000000E+03 0.  1.
<mgrwt>
<rscale>  0 0.16934344E+04</rscale>
<asrwt>0</asrwt>
<pdfrwt beam="1">  1        2 0.16460806E+00 0.16934344E+04</pdfrwt>
<pdfrwt beam="2">  1       -2 0.88885231E-01 0.16934344E+04</pdfrwt>
<totfact> 0.23642023E+01</totfact>
</mgrwt>
</event>
<event>
 8    2  0.7237260E-052  0.1742245E+04  0.7818608E-02  0.8737631E-01
          2   -1    0    0  501    0  0.00000000000E+00  0.00000000000E+00  0.79042615328E+03  0.79042615328E+03  0.25500000000E-02 0.  1.
         -2   -1    0    0    0  501 -0.00000000000E+00 -0.00000000000E+00 -0.96005716522E+03  0.96005716522E+03  0.25500000000E-02 0. -1.
    -200001    2    1    2    0    0 -0.30271851732E+02  0.57640846192E+03  0.14077047852E+03  0.85310871152E+03  0.61222140281E+03 0.  0.
   -5000001    2    3    3    0    0  0.15832587116E+03  0.55607910710E+03  0.21774952056E+03  0.62483441016E+03  0.93338800051E+02 0.  0.
     200001    1    1    2    0    0  0.30271851732E+02 -0.57640846192E+03 -0.31040149046E+03  0.89737460699E+03  0.61300000000E+03 0. -1.
         11    1    4    4    0    0  0.97066139320E+02  0.27441620812E+03  0.69264939130E+02  0.29920515115E+03  0.51100000000E-03 0.  1.
    -200002    1    4    4    0    0  0.61259731835E+02  0.28166289898E+03  0.14848458143E+03  0.32562925901E+03  0.30000000000E+02 0. -1.
    -200000    1    3    3    0    0 -0.18859772289E+03  0.20329354826E+02 -0.76979042031E+02  0.22827430135E+03  0.10100000000E+03 0. -1.
<mgrwt>
<rscale>  0 0.17422449E+04</rscale>
<asrwt>0</asrwt>
<pdfrwt beam="1">  1        2 0.11291802E+00 0.17422449E+04</pdfrwt>
<pdfrwt beam="2">  1       -2 0.13715102E+00 0.17422449E+04</pdfrwt>
<totfact> 0.13907215E+01</totfact>
</mgrwt>
</event>
<event>
 8    2  0.7237260E-052  0.2468078E+04  0.7818608E-02  0.8414447E-01
          2   -1    0    0  501    0  0.00000000000E+00  0.00000000000E+00  0.10703757848E+04  0.10703757848E+04  0.25500000000E-02 0.  1.
         -2   -1    0    0    0  501 -0.00000000000E+00 -0.00000000000E+00 -0.14227273006E+04  0.14227273006E+04  0.25500000000E-02 0. -1.
    -200001    2    1    2    0    0  0.79431466356E+03  0.71753957515E+03 -0.20536010763E+03  0.12508574169E+04  0.61373665125E+03 0.  0.
   -5000001    2    3    3    0    0  0.14687165043E+03  0.17291343424E+03 -0.30266216399E+03  0.39326265322E+03  0.10761408582E+03 0.  0.
     200001    1    1    2    0    0 -0.79431466356E+03 -0.71753957515E+03 -0.14699140820E+03  0.12422456684E+04  0.61300000000E+03 0.  1.
         11    1    4    4    0    0  0.57886300558E+02  0.13161723177E+03 -0.21316424542E+03  0.25712431821E+03  0.51100000000E-03 0.  1.
    -200002    1    4    4    0    0  0.88985349873E+02  0.41296202465E+02 -0.89497918570E+02  0.13613833501E+03  0.30000000000E+02 0.  1.
    -200000    1    3    3    0    0  0.64744301313E+03  0.54462614091E+03  0.97302056356E+02  0.85759476373E+03  0.10100000000E+03 0.  1.
<mgrwt>
<rscale>  0 0.24680785E+04</rscale>
<asrwt>0</asrwt>
<pdfrwt beam="1">  1        2 0.15291083E+00 0.24680785E+04</pdfrwt>
<pdfrwt beam="2">  1       -2 0.20324676E+00 0.24680785E+04</pdfrwt>
<totfact> 0.28967505E+00</totfact>
</mgrwt>
</event>
<event>
 8    2  0.7237260E-052  0.1241436E+04  0.7818608E-02  0.9077341E-01
          2   -1    0    0  501    0  0.00000000000E+00  0.00000000000E+00  0.22107394200E+03  0.22107394202E+03  0.25500000000E-02 0.  1.
         -2   -1    0    0    0  501 -0.00000000000E+00 -0.00000000000E+00 -0.17428149198E+04  0.17428149198E+04  0.25500000000E-02 0. -1.
    -200001    2    1    2    0    0  0.81243823154E+02  0.48914418034E+02 -0.72932661950E+03  0.95756749449E+03  0.61320878133E+03 0.  0.
   -5000001    2    3    3    0    0  0.21444247450E+03 -0.18294812832E+03 -0.54083817721E+03  0.61517734568E+03  0.80508634236E+02 0.  0.
     200001    1    1    2    0    0 -0.81243823154E+02 -0.48914418034E+02 -0.79241435826E+03  0.10063213673E+04  0.61300000000E+03 0. -1.
         11    1    4    4    0    0  0.10399498149E+03 -0.78167882624E+02 -0.17731539419E+03  0.21992253879E+03  0.51100000000E-03 0.  1.
    -200002    1    4    4    0    0  0.11044749301E+03 -0.10478024570E+03 -0.36352278302E+03  0.39525480690E+03  0.30000000000E+02 0.  1.
    -200000    1    3    3    0    0 -0.13319865135E+03  0.23186254636E+03 -0.18848844228E+03  0.34239014880E+03  0.10100000000E+03 0.  1.
<mgrwt>
<rscale>  0 0.12414362E+04</rscale>
<asrwt>0</asrwt>
<pdfrwt beam="1">  1        2 0.31581993E-01 0.12414362E+04</pdfrwt>
<pdfrwt beam="2">  1       -2 0.24897355E+00 0.12414362E+04</pdfrwt>
<totfact> 0.10818709E+01</totfact>
</mgrwt>
</event>
<event>
 8    2  0.7237260E-052  0.1322726E+04  0.7818608E-02  0.9011735E-01
         -2   -1    0    0    0  501 -0.00000000000E+00  0.00000000000E+00  0.43726380748E+03  0.43726380748E+03  0.25500000000E-02 0. -1.
          2   -1    0    0  501    0  0.00000000000E+00 -0.00000000000E+00 -0.10003133401E+04  0.10003133401E+04  0.25500000000E-02 0.  1.
    -200001    2    1    2    0    0 -0.20414361342E+03  0.13620672964E+03 -0.30783646511E+03  0.72967207067E+03  0.61435425722E+03 0.  0.
   -5000001    2    3    3    0    0  0.82587027724E+02  0.18458085243E+03  0.66816605350E+02  0.24477987695E+03  0.12067319991E+03 0.  0.
     200001    1    1    2    0    0  0.20414361342E+03 -0.13620672964E+03 -0.25521306753E+03  0.70790507693E+03  0.61300000000E+03 0. -1.
         11    1    4    4    0    0  0.51615047956E+02  0.12428584567E+03  0.95795233411E+02  0.16519022778E+03  0.51100000000E-03 0.  1.
    -200002    1    4    4    0    0  0.30971979768E+02  0.60295006756E+02 -0.28978628060E+02  0.79589649168E+02  0.30000000000E+02 0.  1.
    -200000    1    3    3    0    0 -0.28673064115E+03 -0.48374122787E+02 -0.37465307046E+03  0.48489219372E+03  0.10100000000E+03 0.  1.
<mgrwt>
<rscale>  0 0.13227257E+04</rscale>
<asrwt>0</asrwt>
<pdfrwt beam="1">  1        2 0.14290191E+00 0.13227257E+04</pdfrwt>
<pdfrwt beam="2">  1       -2 0.62466258E-01 0.13227257E+04</pdfrwt>
<totfact> 0.65386523E+01</totfact>
</mgrwt>
</event>
<event>
 8    2  0.7237260E-052  0.1617156E+04  0.7818608E-02  0.8810077E-01
         -2   -1    0    0    0  501 -0.00000000000E+00  0.00000000000E+00  0.65877917005E+03  0.65877917006E+03  0.25500000000E-02 0.  1.
          2   -1    0    0  501    0  0.00000000000E+00 -0.00000000000E+00 -0.99243899649E+03  0.99243899649E+03  0.25500000000E-02 0. -1.
    -200001    2    1    2    0    0 -0.18259406471E+03 -0.41604927464E+03 -0.44042828608E+03  0.88075979950E+03  0.61263623614E+03 0.  0.
   -5000001    2    3    3    0    0  0.12528450307E+03 -0.21356576714E+03  0.31123089083E+02  0.27384095589E+03  0.11275495042E+03 0.  0.
     200001    1    1    2    0    0  0.18259406471E+03  0.41604927464E+03  0.10676845965E+03  0.77045836706E+03  0.61300000000E+03 0.  1.
         11    1    4    4    0    0 -0.13925094066E+02 -0.63871592160E+02  0.10406078583E+02  0.66194977163E+02  0.51100000000E-03 0.  1.
    -200002    1    4    4    0    0  0.13920959713E+03 -0.14969417498E+03  0.20717010499E+02  0.20764597872E+03  0.30000000000E+02 0.  1.
    -200000    1    3    3    0    0 -0.30787856778E+03 -0.20248350750E+03 -0.47155137517E+03  0.60691884361E+03  0.10100000000E+03 0. -1.
<mgrwt>
<rscale>  0 0.16171557E+04</rscale>
<asrwt>0</asrwt>
<pdfrwt beam="1">  1        2 0.14177700E+00 0.16171557E+04</pdfrwt>
<pdfrwt beam="2">  1       -2 0.94111311E-01 0.16171557E+04</pdfrwt>
<totfact> 0.25969695E+01</totfact>
</mgrwt>
</event>
<event>
 8    2  0.7237260E-052  0.1442846E+04  0.7818608E-02  0.8923375E-01
          2   -1    0    0  501    0  0.00000000000E+00  0.00000000000E+00  0.27123204439E+04  0.27123204439E+04  0.25500000000E-02 0.  1.
         -2   -1    0    0    0  501 -0.00000000000E+00 -0.00000000000E+00 -0.19188406274E+03  0.19188406276E+03  0.25500000000E-02 0. -1.
    -200001    2    1    2    0    0 -0.23924246310E+03 -0.14721252833E+03  0.74522587866E+03  0.10052443141E+04  0.61338897627E+03 0.  0.
   -5000001    2    3    3    0    0 -0.18465481210E+02  0.12948210226E+03  0.58052250752E+03  0.60196947634E+03  0.90853067651E+02 0.  0.
     200001    1    1    2    0    0  0.23924246310E+03  0.14721252833E+03  0.17752105025E+04  0.18989601926E+04  0.61300000000E+03 0.  1.
         11    1    4    4    0    0 -0.24998604349E+02  0.11783361799E+03  0.51208079961E+03  0.52605744656E+03  0.51100000000E-03 0.  1.
    -200002    1    4    4    0    0  0.65331231392E+01  0.11648484271E+02  0.68441707913E+02  0.75912029783E+02  0.30000000000E+02 0. -1.
    -200000    1    3    3    0    0 -0.22077698189E+03 -0.27669463059E+03  0.16470337114E+03  0.40327483779E+03  0.10100000000E+03 0. -1.
<mgrwt>
<rscale>  0 0.14428459E+04</rscale>
<asrwt>0</asrwt>
<pdfrwt beam="1">  1        2 0.38747434E+00 0.14428459E+04</pdfrwt>
<pdfrwt beam="2">  1       -2 0.27412010E-01 0.14428459E+04</pdfrwt>
<totfact> 0.40119163E+01</totfact>
</mgrwt>
</event>
<event>
 8    2  0.7237260E-052  0.1673478E+04  0.7818608E-02  0.8776637E-01
          2   -1    0    0  501    0  0.00000000000E+00  0.00000000000E+00  0.15760565449E+04  0.15760565449E+04  0.25500000000E-02 0.  1.
         -2   -1    0    0    0  501 -0.00000000000E+00 -0.00000000000E+00 -0.44423027063E+03  0.44423027064E+03  0.25500000000E-02 0. -1.
    -200001    2    1    2    0    0 -0.27915676099E+03  0.21827007177E+02 -0.32233437843E+02  0.67521844226E+03  0.61357642947E+03 0.  0.
   -5000001    2    3    3    0    0 -0.43904720687E+02  0.27464687796E+03 -0.71724515768E+02  0.31324889276E+03  0.12498772173E+03 0.  0.
     200001    1    1    2    0    0  0.27915676099E+03 -0.21827007177E+02  0.11640597122E+04  0.13450683733E+04  0.61300000000E+03 0.  1.
         11    1    4    4    0    0 -0.33028945519E+02  0.45869485668E+02 -0.59299448771E+02  0.81922802579E+02  0.51100000000E-03 0.  1.
    -200002    1    4    4    0    0 -0.10875775168E+02  0.22877739229E+03 -0.12425066997E+02  0.23132609018E+03  0.30000000000E+02 0.  1.
    -200000    1    3    3    0    0 -0.23525204031E+03 -0.25281987078E+03  0.39491077925E+02  0.36196954950E+03  0.10100000000E+03 0. -1.
<mgrwt>
<rscale>  0 0.16734778E+04</rscale>
<asrwt>0</asrwt>
<pdfrwt beam="1">  1        2 0.22515094E+00 0.16734778E+04</pdfrwt>
<pdfrwt beam="2">  1       -2 0.63461467E-01 0.16734778E+04</pdfrwt>
<totfact> 0.29262774E+01</totfact>
</mgrwt>
</event>
<event>
 8    2  0.7237260E-052  0.2160080E+04  0.7818608E-02  0.8535230E-01
         -2   -1    0    0    0  501 -0.00000000000E+00  0.00000000000E+00  0.41986992431E+03  0.41986992431E+03  0.25500000000E-02 0. -1.
          2   -1    0    0  501    0  0.00000000000E+00 -0.00000000000E+00 -0.27782081553E+04  0.27782081553E+04  0.25500000000E-02 0.  1.
    -200001    2    1    2    0    0  0.27034722533E+03  0.40643067476E+03 -0.22797247920E+04  0.24105359611E+04  0.61258875031E+03 0.  0.
   -5000001    2    3    3    0    0 -0.15172040972E+03  0.18214780020E+02 -0.84628422756E+03  0.86334317376E+03  0.76246842115E+02 0.  0.
     200001    1    1    2    0    0 -0.27034722533E+03 -0.40643067476E+03 -0.78613439016E+02  0.78754211851E+03  0.61300000000E+03 0. -1.
         11    1    4    4    0    0 -0.29175335888E+02  0.12299067998E+02 -0.34278688698E+03  0.34424601259E+03  0.51100000000E-03 0.  1.
    -200002    1    4    4    0    0 -0.12254507383E+03  0.59157120225E+01 -0.50349734057E+03  0.51909716117E+03  0.30000000000E+02 0.  1.
    -200000    1    3    3    0    0  0.42206763505E+03  0.38821589474E+03 -0.14334405644E+04  0.15471927873E+04  0.10100000000E+03 0. -1.
<mgrwt>
<rscale>  0 0.21600797E+04</rscale>
<asrwt>0</asrwt>
<pdfrwt beam="1">  1        2 0.39688687E+00 0.21600797E+04</pdfrwt>
<pdfrwt beam="2">  1       -2 0.59981419E-01 0.21600797E+04</pdfrwt>
<totfact> 0.74647477E+00</totfact>
</mgrwt>
</event>
<event>
 8    2  0.7237260E-052  0.1387488E+04  0.7818608E-02  0.8962925E-01
          2   -1    0    0  501    0  0.00000000000E+00  0.00000000000E+00  0.26632407833E+04  0.26632407833E+04  0.25500000000E-02 0.  1.
         -2   -1    0    0    0  501 -0.00000000000E+00 -0.00000000000E+00 -0.18071256107E+03  0.18071256109E+03  0.25500000000E-02 0. -1.
    -200001    2    1    2    0    0 -0.64220287936E+02  0.82950870209E+02  0.18833304600E+04  0.19803492392E+04  0.60319515531E+03 0.  0.
   -5000001    2    3    3    0    0 -0.21905235206E+03  0.24715923068E+03  0.13649776916E+04  0.14060427476E+04  0.68705832328E+02 0.  0.
     200001    1    1    2    0    0  0.64220287936E+02 -0.82950870209E+02  0.59919776227E+03  0.86360410522E+03  0.61300000000E+03 0. -1.
         11    1    4    4    0    0 -0.16516911133E+03  0.20091890552E+03  0.10347146553E+04  0.10669037725E+04  0.51100000000E-03 0.  1.
    -200002    1    4    4    0    0 -0.53883240733E+02  0.46240325161E+02  0.33026303630E+03  0.33913897513E+03  0.30000000000E+02 0. -1.
    -200000    1    3    3    0    0  0.15483206412E+03 -0.16420836047E+03  0.51835276837E+03  0.57430649152E+03  0.10100000000E+03 0.  1.
<mgrwt>
<rscale>  0 0.13874885E+04</rscale>
<asrwt>0</asrwt>
<pdfrwt beam="1">  1        2 0.38046297E+00 0.13874885E+04</pdfrwt>
<pdfrwt beam="2">  1       -2 0.25816080E-01 0.13874885E+04</pdfrwt>
<totfact> 0.47781208E+01</totfact>
</mgrwt>
</event>
<event>
 8    2  0.7237260E-052  0.1837081E+04  0.7818608E-02  0.8686825E-01
          2   -1    0    0  501    0  0.00000000000E+00  0.00000000000E+00  0.10833915787E+04  0.10833915787E+04  0.25500000000E-02 0.  1.
         -2   -1    0    0    0  501 -0.00000000000E+00 -0.00000000000E+00 -0.77877357193E+03  0.77877357194E+03  0.25500000000E-02 0. -1.
    -200001    2    1    2    0    0 -0.48215627211E+01  0.56270131910E+03 -0.24287390249E+03  0.86608663332E+03  0.61193324955E+03 0.  0.
   -5000001    2    3    3    0    0 -0.23137795531E+03  0.11212787323E+03 -0.20430282140E+03  0.35030280510E+03  0.12191798175E+03 0.  0.
     200001    1    1    2    0    0  0.48215627211E+01 -0.56270131910E+03  0.54749190928E+03  0.99607851735E+03  0.61300000000E+03 0.  1.
         11    1    4    4    0    0 -0.22428592898E+02  0.64305763531E+02 -0.50184358494E+02  0.84597534482E+02  0.51100000000E-03 0.  1.
    -200002    1    4    4    0    0 -0.20894936241E+03  0.47822109700E+02 -0.15411846290E+03  0.26570527062E+03  0.30000000000E+02 0.  1.
    -200000    1    3    3    0    0  0.22655639259E+03  0.45057344587E+03 -0.38571081095E+02  0.51578382821E+03  0.10100000000E+03 0. -1.
<mgrwt>
<rscale>  0 0.18370811E+04</rscale>
<asrwt>0</asrwt>
<pdfrwt beam="1">  1        2 0.15477023E+00 0.18370811E+04</pdfrwt>
<pdfrwt beam="2">  1       -2 0.11125337E+00 0.18370811E+04</pdfrwt>
<totfact> 0.15089541E+01</totfact>
</mgrwt>
</event>
<event>
 8    2  0.7237260E-052  0.1374991E+04  0.7818608E-02  0.8972123E-01
          2   -1    0    0  501    0  0.00000000000E+00  0.00000000000E+00  0.18438124292E+04  0.18438124292E+04  0.25500000000E-02 0.  1.
         -2   -1    0    0    0  501 -0.00000000000E+00 -0.00000000000E+00 -0.25634386658E+03  0.25634386659E+03  0.25500000000E-02 0. -1.
    -200001    2    1    2    0    0  0.17172620330E+03 -0.24484020038E+03  0.91901919525E+03  0.11451535893E+04  0.61428319957E+03 0.  0.
   -5000001    2    3    3    0    0  0.19264018691E+03 -0.75421885507E+02  0.91945570970E+03  0.94680755163E+03  0.90813188989E+02 0.  0.
     200001    1    1    2    0    0 -0.17172620330E+03  0.24484020038E+03  0.66844936734E+03  0.95500270645E+03  0.61300000000E+03 0. -1.
         11    1    4    4    0    0  0.68406939546E+02 -0.28369222471E+02  0.17543951152E+03  0.19042936844E+03  0.51100000000E-03 0.  1.
    -200002    1    4    4    0    0  0.12423324736E+03 -0.47052663036E+02  0.74401619818E+03  0.75637818319E+03  0.30000000000E+02 0.  1.
    -200000    1    3    3    0    0 -0.20913983610E+02 -0.16941831487E+03 -0.43651444369E+00  0.19834603770E+03  0.10100000000E+03 0. -1.
<mgrwt>
<rscale>  0 0.13749909E+04</rscale>
<asrwt>0</asrwt>
<pdfrwt beam="1">  1        2 0.26340177E+00 0.13749909E+04</pdfrwt>
<pdfrwt beam="2">  1       -2 0.36620553E-01 0.13749909E+04</pdfrwt>
<totfact> 0.66177681E+01</totfact>
</mgrwt>
</event>
<event>
 8    2  0.7237260E-052  0.2501461E+04  0.7818608E-02  0.8402465E-01
          2   -1    0    0  501    0  0.00000000000E+00  0.00000000000E+00  0.12859905371E+04  0.12859905371E+04  0.25500000000E-02 0.  1.
         -2   -1    0    0    0  501 -0.00000000000E+00 -0.00000000000E+00 -0.12164375717E+04  0.12164375717E+04  0.25500000000E-02 0. -1.
    -200001    2    1    2    0    0  0.58331978454E+03  0.76808017325E+03 -0.47353891837E+03  0.12371507013E+04  0.61326472833E+03 0.  0.
   -5000001    2    3    3    0    0  0.65258810085E+03  0.56332730739E+03 -0.49617876409E+03  0.99749386680E+03  0.74778096734E+02 0.  0.
     200001    1    1    2    0    0 -0.58331978454E+03 -0.76808017325E+03  0.54309188384E+03  0.12652774075E+04  0.61300000000E+03 0.  1.
         11    1    4    4    0    0  0.39920092470E+03  0.30668040639E+03 -0.29265044176E+03  0.58228732684E+03  0.51100000000E-03 0.  1.
    -200002    1    4    4    0    0  0.25338717615E+03  0.25664690101E+03 -0.20352832233E+03  0.41520653996E+03  0.30000000000E+02 0.  1.
    -200000    1    3    3    0    0 -0.69268316314E+02  0.20475286586E+03  0.22639845716E+02  0.23965683453E+03  0.10100000000E+03 0.  1.
<mgrwt>
<rscale>  0 0.25014613E+04</rscale>
<asrwt>0</asrwt>
<pdfrwt beam="1">  1        2 0.18371293E+00 0.25014613E+04</pdfrwt>
<pdfrwt beam="2">  1       -2 0.17377680E+00 0.25014613E+04</pdfrwt>
<totfact> 0.34360059E+00</totfact>
</mgrwt>
</event>
